<event>
 8    1  0.1108957E+005  0.1043930E+01  0.7957747E-01            NaN
         13   -1    0    0    0    0  0.00000000000E+00  0.00000000000E+00  0.74505805969E-08  0.10566000000E+00  0.10566000000E+00 0.  1.
     999900   -1    0    0    0    0 -0.00000000000E+00 -0.00000000000E+00 -0.74505805969E-08  0.93827000000E+00  0.93827000000E+00 0. -1.
     999902    2    1    2    0    0  0.17653322744E-01 -0.11386680933E-01  0.68498324685E-02  0.10218343780E+01  0.10215954579E+01 0.  0.
     999903    2    3    3    0    0 -0.52048638596E-02  0.11884471163E+00 -0.49154107945E-01  0.13019591223E+00  0.19588086803E-01 0.  0.
         14    1    1    2    0    0 -0.17653322744E-01  0.11386680933E-01 -0.68498324685E-02  0.22095621997E-01  0.00000000000E+00 0. -1.
     999901    1    3    3    0    0  0.22858186603E-01 -0.13023139256E+00  0.56003940413E-01  0.89163846577E+00  0.88000000000E+00 0. -1.
        -11    1    4    4    0    0  0.53211015841E-02  0.23854566020E-01 -0.15118481520E-01  0.28743417447E-01  0.51100000000E-03 0.  1.
         11    1    4    4    0    0 -0.10525965444E-01  0.94990145606E-01 -0.34035626425E-01  0.10145249478E+00  0.51100000000E-03 0. -1.
</event>
<event>
 8    1  0.1108957E+005  0.1043930E+01  0.7957747E-01            NaN
         13   -1    0    0    0    0  0.00000000000E+00  0.00000000000E+00  0.74505805969E-08  0.10566000000E+00  0.10566000000E+00 0.  1.
     999900   -1    0    0    0    0 -0.00000000000E+00 -0.00000000000E+00 -0.74505805969E-08  0.93827000000E+00  0.93827000000E+00 0. -1.
     999902    2    1    2    0    0  0.21150628146E-02 -0.13782442972E-01  0.18017276580E-01  0.10211472987E+01  0.10208931159E+01 0.  0.
     999903    2    3    3    0    0 -0.97491869366E-01 -0.21199865988E-01  0.85839953580E-01  0.13290382156E+00  0.18461561234E-01 0.  0.
         14    1    1    2    0    0 -0.21150628146E-02  0.13782442972E-01 -0.18017276580E-01  0.22782701340E-01  0.00000000000E+00 0. -1.
     999901    1    3    3    0    0  0.99606932181E-01  0.74174230164E-02 -0.67822676999E-01  0.88824347710E+00  0.88000000000E+00 0. -1.
        -11    1    4    4    0    0 -0.56328593585E-01 -0.11878969820E-01  0.37386463812E-01  0.68644221728E-01  0.51100000000E-03 0.  1.
         11    1    4    4    0    0 -0.41163275781E-01 -0.93208961681E-02  0.48453489767E-01  0.64259599828E-01  0.51100000000E-03 0. -1.
</event>
<event>
 8    1  0.1108957E+005  0.1043930E+01  0.7957747E-01            NaN
         13   -1    0    0    0    0  0.00000000000E+00  0.00000000000E+00  0.74505805969E-08  0.10566000000E+00  0.10566000000E+00 0. -1.
     999900   -1    0    0    0    0 -0.00000000000E+00 -0.00000000000E+00 -0.74505805969E-08  0.93827000000E+00  0.93827000000E+00 0. -1.
     999902    2    1    2    0    0  0.98496905445E-02  0.65149604371E-02  0.20483565235E-01  0.10202860249E+01  0.10200120269E+01 0.  0.
     999903    2    3    3    0    0 -0.40220732439E-01  0.11973291363E+00 -0.27706638701E-01  0.13031543667E+00  0.16148599973E-01 0.  0.
         14    1    1    2    0    0 -0.98496905445E-02 -0.65149604371E-02 -0.20483565235E-01  0.23643975090E-01  0.00000000000E+00 0.  1.
     999901    1    3    3    0    0  0.50070422984E-01 -0.11321795319E+00  0.48190203936E-01  0.88997058824E+00  0.88000000000E+00 0. -1.
        -11    1    4    4    0    0 -0.25693962987E-01  0.89669290764E-01 -0.14472304664E-01  0.94395286764E-01  0.51100000000E-03 0.  1.
         11    1    4    4    0    0 -0.14526769452E-01  0.30063622867E-01 -0.13234334037E-01  0.35920149902E-01  0.51100000000E-03 0. -1.
</event>
<event>
 8    1  0.1108957E+005  0.1043930E+01  0.7957747E-01            NaN
         13   -1    0    0    0    0  0.00000000000E+00  0.00000000000E+00  0.74505805969E-08  0.10566000000E+00  0.10566000000E+00 0. -1.
     999900   -1    0    0    0    0 -0.00000000000E+00 -0.00000000000E+00 -0.74505805969E-08  0.93827000000E+00  0.93827000000E+00 0. -1.
     999902    2    1    2    0    0 -0.77442935256E-02  0.22039776250E-01  0.29123970029E-02  0.10203883799E+01  0.10201167767E+01 0.  0.
     999903    2    3    3    0    0 -0.18969199133E-01  0.11464826673E+00 -0.61802791407E-01  0.13309452408E+00  0.19761369714E-01 0.  0.
         14    1    1    2    0    0  0.77442935256E-02 -0.22039776250E-01 -0.29123970029E-02  0.23541620073E-01  0.00000000000E+00 0. -1.
     999901    1    3    3    0    0  0.11224905608E-01 -0.92608490484E-01  0.64715188410E-01  0.88729385585E+00  0.88000000000E+00 0.  1.
        -11    1    4    4    0    0 -0.12027728894E-01  0.35829802329E-01 -0.28059105702E-01  0.47074574146E-01  0.51100000000E-03 0.  1.
         11    1    4    4    0    0 -0.69414702397E-02  0.78818464406E-01 -0.33743685705E-01  0.86019949932E-01  0.51100000000E-03 0. -1.
</event>
<event>
 8    1  0.1108957E+005  0.1043930E+01  0.7957747E-01            NaN
         13   -1    0    0    0    0  0.00000000000E+00  0.00000000000E+00  0.74505805969E-08  0.10566000000E+00  0.10566000000E+00 0. -1.
     999900   -1    0    0    0    0 -0.00000000000E+00 -0.00000000000E+00 -0.74505805969E-08  0.93827000000E+00  0.93827000000E+00 0.  1.
     999902    2    1    2    0    0 -0.16148069840E-01  0.12347381368E-01  0.97289577022E-02  0.10213940153E+01  0.10211453687E+01 0.  0.
     999903    2    3    3    0    0 -0.78029484891E-01 -0.55660793552E-01 -0.87765267163E-01  0.13124821534E+00  0.18347410158E-01 0.  0.
         14    1    1    2    0    0  0.16148069840E-01 -0.12347381368E-01 -0.97289577022E-02  0.22535984651E-01  0.00000000000E+00 0. -1.
     999901    1    3    3    0    0  0.61881415052E-01  0.68008174920E-01  0.97494224865E-01  0.89014580001E+00  0.88000000000E+00 0. -1.
        -11    1    4    4    0    0 -0.17788303136E-01 -0.13513695470E-01 -0.10831892837E-01  0.24832130741E-01  0.51100000000E-03 0. -1.
         11    1    4    4    0    0 -0.60241181756E-01 -0.42147098082E-01 -0.76933374325E-01  0.10641608460E+00  0.51100000000E-03 0.  1.
</event>
<event>
 7    1  0.1152235E+005  0.1043930E+01  0.7957747E-01            NaN
         13   -1    0    0    0    0  0.00000000000E+00  0.00000000000E+00  0.74505805969E-08  0.10566000000E+00  0.10566000000E+00 0. -1.
     999900   -1    0    0    0    0 -0.00000000000E+00 -0.00000000000E+00 -0.74505805969E-08  0.93827000000E+00  0.93827000000E+00 0.  1.
     999903    2    1    2    0    0 -0.10695080039E+00  0.21344664483E-01  0.77041627652E-02  0.11139382197E+00  0.21334503558E-01 0.  0.
         14    1    1    2    0    0 -0.28420299318E-01 -0.32747762420E-02 -0.30357522002E-01  0.41713507583E-01  0.00000000000E+00 0.  1.
     999901    1    1    2    0    0  0.13537109971E+00 -0.18069888241E-01  0.22653359237E-01  0.89082267045E+00  0.88000000000E+00 0. -1.
        -11    1    3    3    0    0 -0.48792533356E-01 -0.85566580455E-03  0.14120040356E-02  0.48823133366E-01  0.51100000000E-03 0.  1.
         11    1    3    3    0    0 -0.58158267039E-01  0.22200330288E-01  0.62921587296E-02  0.62570688603E-01  0.51100000000E-03 0. -1.
</event>
<event>
 8    1  0.1108957E+005  0.1043930E+01  0.7957747E-01            NaN
         13   -1    0    0    0    0  0.00000000000E+00  0.00000000000E+00  0.74505805969E-08  0.10566000000E+00  0.10566000000E+00 0.  1.
     999900   -1    0    0    0    0 -0.00000000000E+00 -0.00000000000E+00 -0.74505805969E-08  0.93827000000E+00  0.93827000000E+00 0.  1.
     999902    2    1    2    0    0  0.12112274738E-01  0.11382425157E-01  0.17621292067E-01  0.10197065251E+01  0.10194187661E+01 0.  0.
     999903    2    3    3    0    0  0.12934487318E+00  0.17103431532E-02  0.17619571806E-01  0.13187938466E+00  0.18673545352E-01 0.  0.
         14    1    1    2    0    0 -0.12112274738E-01 -0.11382425157E-01 -0.17621292067E-01  0.24223474893E-01  0.00000000000E+00 0. -1.
     999901    1    3    3    0    0 -0.11723259844E+00  0.96720820038E-02  0.17202601727E-05  0.88782714045E+00  0.88000000000E+00 0. -1.
        -11    1    4    4    0    0  0.55802536932E-01 -0.29177493623E-02  0.16177548500E-01  0.58175687240E-01  0.51100000000E-03 0. -1.
         11    1    4    4    0    0  0.73542336250E-01  0.46280925155E-02  0.14420233065E-02  0.73703697422E-01  0.51100000000E-03 0.  1.
</event>
<event>
 8    1  0.1108957E+005  0.1043930E+01  0.7957747E-01            NaN
         13   -1    0    0    0    0  0.00000000000E+00  0.00000000000E+00  0.74505805969E-08  0.10566000000E+00  0.10566000000E+00 0.  1.
     999900   -1    0    0    0    0 -0.00000000000E+00 -0.00000000000E+00 -0.74505805969E-08  0.93827000000E+00  0.93827000000E+00 0.  1.
     999902    2    1    2    0    0 -0.13168216235E-01 -0.16549130198E-01  0.11617112961E-01  0.10198004964E+01  0.10195149923E+01 0.  0.
     999903    2    3    3    0    0 -0.82813416580E-01  0.86024147050E-01 -0.45307877769E-01  0.12928818000E+00  0.20110043729E-01 0.  0.
         14    1    1    2    0    0  0.13168216235E-01  0.16549130198E-01 -0.11617112961E-01  0.24129503573E-01  0.00000000000E+00 0. -1.
     999901    1    3    3    0    0  0.69645200345E-01 -0.10257327725E+00  0.56924990730E-01  0.89051231643E+00  0.88000000000E+00 0.  1.
        -11    1    4    4    0    0 -0.25613778560E-01  0.16723831269E-01 -0.17396113899E-01  0.35194290506E-01  0.51100000000E-03 0.  1.
         11    1    4    4    0    0 -0.57199638019E-01  0.69300315782E-01 -0.27911763869E-01  0.94093889495E-01  0.51100000000E-03 0. -1.
</event>
<event>
 8    1  0.1108957E+005  0.1043930E+01  0.7957747E-01            NaN
         13   -1    0    0    0    0  0.00000000000E+00  0.00000000000E+00  0.74505805969E-08  0.10566000000E+00  0.10566000000E+00 0.  1.
     999900   -1    0    0    0    0 -0.00000000000E+00 -0.00000000000E+00 -0.74505805969E-08  0.93827000000E+00  0.93827000000E+00 0. -1.
     999902    2    1    2    0    0  0.11596287313E-01 -0.49817319784E-02  0.21107538274E-01  0.10193369175E+01  0.10190402012E+01 0.  0.
     999903    2    3    3    0    0  0.74270193039E-01  0.33092800724E-01  0.10342298995E+00  0.13245839030E+00  0.15418017932E-01 0.  0.
         14    1    1    2    0    0 -0.11596287313E-01  0.49817319784E-02 -0.21107538274E-01  0.24593082461E-01  0.00000000000E+00 0. -1.
     999901    1    3    3    0    0 -0.62673905726E-01 -0.38074532702E-01 -0.82315451671E-01  0.88687852724E+00  0.88000000000E+00 0. -1.
        -11    1    4    4    0    0  0.35940934601E-01  0.15898506600E-01  0.37744730126E-01  0.54492559725E-01  0.51100000000E-03 0.  1.
         11    1    4    4    0    0  0.38329258437E-01  0.17194294124E-01  0.65678259820E-01  0.77965830572E-01  0.51100000000E-03 0. -1.
</event>
<event>
 8    1  0.1108957E+005  0.1043930E+01  0.7957747E-01            NaN
         13   -1    0    0    0    0  0.00000000000E+00  0.00000000000E+00  0.74505805969E-08  0.10566000000E+00  0.10566000000E+00 0.  1.
     999900   -1    0    0    0    0 -0.00000000000E+00 -0.00000000000E+00 -0.74505805969E-08  0.93827000000E+00  0.93827000000E+00 0.  1.
     999902    2    1    2    0    0 -0.81581497539E-02 -0.17296132139E-01  0.14688602320E-01  0.10198163808E+01  0.10195312569E+01 0.  0.
     999903    2    3    3    0    0 -0.67764360226E-01  0.53392434992E-01  0.96841252847E-01  0.13116637551E+00  0.19586454022E-01 0.  0.
         14    1    1    2    0    0  0.81581497539E-02  0.17296132139E-01 -0.14688602320E-01  0.24113619232E-01  0.00000000000E+00 0. -1.
     999901    1    3    3    0    0  0.59606210472E-01 -0.70688567131E-01 -0.82152650528E-01  0.88865000525E+00  0.88000000000E+00 0.  1.
        -11    1    4    4    0    0 -0.59463326429E-01  0.36872026456E-01  0.76242491811E-01  0.10348242461E+00  0.51100000000E-03 0. -1.
         11    1    4    4    0    0 -0.83010337964E-02  0.16520408537E-01  0.20598761037E-01  0.27683950902E-01  0.51100000000E-03 0.  1.
</event>
<event>
 8    1  0.1108957E+005  0.1043930E+01  0.7957747E-01            NaN
         13   -1    0    0    0    0  0.00000000000E+00  0.00000000000E+00  0.74505805969E-08  0.10566000000E+00  0.10566000000E+00 0.  1.
     999900   -1    0    0    0    0 -0.00000000000E+00 -0.00000000000E+00 -0.74505805969E-08  0.93827000000E+00  0.93827000000E+00 0.  1.
     999902    2    1    2    0    0 -0.22425956737E-01 -0.96550374773E-02  0.20412500051E-02  0.10194287758E+01  0.10191342988E+01 0.  0.
     999903    2    3    3    0    0 -0.40001468896E-01  0.11555792010E+00 -0.37753387462E-01  0.12950136500E+00  0.19787239849E-01 0.  0.
         14    1    1    2    0    0  0.22425956737E-01  0.96550374773E-02 -0.20412500051E-02  0.24501224171E-01  0.00000000000E+00 0.  1.
     999901    1    3    3    0    0  0.17575512158E-01 -0.12521295758E+00  0.39794637467E-01  0.88992741083E+00  0.88000000000E+00 0.  1.
        -11    1    4    4    0    0 -0.68444397799E-02  0.33297096449E-01 -0.26026017026E-02  0.34096592857E-01  0.51100000000E-03 0. -1.
         11    1    4    4    0    0 -0.33157029116E-01  0.82260823650E-01 -0.35150785759E-01  0.95404772144E-01  0.51100000000E-03 0.  1.
</event>
<event>
 8    1  0.1108957E+005  0.1043930E+01  0.7957747E-01            NaN
         13   -1    0    0    0    0  0.00000000000E+00  0.00000000000E+00  0.74505805969E-08  0.10566000000E+00  0.10566000000E+00 0. -1.
     999900   -1    0    0    0    0 -0.00000000000E+00 -0.00000000000E+00 -0.74505805969E-08  0.93827000000E+00  0.93827000000E+00 0.  1.
     999902    2    1    2    0    0 -0.19249333598E-01 -0.17258209636E-02 -0.13636161977E-01  0.10202770886E+01  0.10200028811E+01 0.  0.
     999903    2    3    3    0    0  0.10707269862E+00  0.19395296529E-01  0.63684387461E-01  0.12765072516E+00  0.19956605670E-01 0.  0.
         14    1    1    2    0    0  0.19249333598E-01  0.17258209636E-02  0.13636161977E-01  0.23652911352E-01  0.00000000000E+00 0. -1.
     999901    1    3    3    0    0 -0.12632203222E+00 -0.21121117492E-01 -0.77320549438E-01  0.89262636349E+00  0.88000000000E+00 0.  1.
        -11    1    4    4    0    0  0.60824559854E-01  0.96883543542E-02  0.47202577321E-01  0.77600487874E-01  0.51100000000E-03 0.  1.
         11    1    4    4    0    0  0.46248138768E-01  0.97069421747E-02  0.16481810141E-01  0.50050237286E-01  0.51100000000E-03 0. -1.
</event>
<event>
 8    1  0.1108957E+005  0.1043930E+01  0.7957747E-01            NaN
         13   -1    0    0    0    0  0.00000000000E+00  0.00000000000E+00  0.74505805969E-08  0.10566000000E+00  0.10566000000E+00 0. -1.
     999900   -1    0    0    0    0 -0.00000000000E+00 -0.00000000000E+00 -0.74505805969E-08  0.93827000000E+00  0.93827000000E+00 0.  1.
     999902    2    1    2    0    0  0.40839971832E-03 -0.17543309760E-01 -0.15990841321E-01  0.10201888645E+01  0.10199125834E+01 0.  0.
     999903    2    3    3    0    0  0.11963063314E+00 -0.48250959838E-01  0.14287250871E-01  0.13110300613E+00  0.18553413940E-01 0.  0.
         14    1    1    2    0    0 -0.40839971832E-03  0.17543309760E-01  0.15990841321E-01  0.23741135479E-01  0.00000000000E+00 0. -1.
     999901    1    3    3    0    0 -0.11922223342E+00  0.30707650077E-01 -0.30278092192E-01  0.88908585839E+00  0.88000000000E+00 0. -1.
        -11    1    4    4    0    0  0.10736295119E+00 -0.48284651303E-01  0.10203713017E-01  0.11816339417E+00  0.51100000000E-03 0. -1.
         11    1    4    4    0    0  0.12267681947E-01  0.33691465144E-04  0.40835378532E-02  0.12939611968E-01  0.51100000000E-03 0.  1.
</event>
<event>
 8    1  0.1108957E+005  0.1043930E+01  0.7957747E-01            NaN
         13   -1    0    0    0    0  0.00000000000E+00  0.00000000000E+00  0.74505805969E-08  0.10566000000E+00  0.10566000000E+00 0.  1.
     999900   -1    0    0    0    0 -0.00000000000E+00 -0.00000000000E+00 -0.74505805969E-08  0.93827000000E+00  0.93827000000E+00 0. -1.
     999902    2    1    2    0    0  0.25250794578E-02  0.22697101740E-01  0.31816648061E-02  0.10208723018E+01  0.10206118749E+01 0.  0.
     999903    2    3    3    0    0 -0.10032875540E+00  0.28012699893E-01  0.78214079241E-01  0.13169457486E+00  0.19376489387E-01 0.  0.
         14    1    1    2    0    0 -0.25250794578E-02 -0.22697101740E-01 -0.31816648061E-02  0.23057698164E-01  0.00000000000E+00 0.  1.
     999901    1    3    3    0    0  0.10285383486E+00 -0.53155981526E-02 -0.75032414435E-01  0.88917772697E+00  0.88000000000E+00 0. -1.
        -11    1    4    4    0    0 -0.97324884601E-02  0.91714307257E-02  0.11010324320E-01  0.17329882741E-01  0.51100000000E-03 0.  1.
         11    1    4    4    0    0 -0.90596266942E-01  0.18841269167E-01  0.67203754921E-01  0.11436469212E+00  0.51100000000E-03 0. -1.
</event>
<event>
 8    1  0.1108957E+005  0.1043930E+01  0.7957747E-01            NaN
         13   -1    0    0    0    0  0.00000000000E+00  0.00000000000E+00  0.74505805969E-08  0.10566000000E+00  0.10566000000E+00 0.  1.
     999900   -1    0    0    0    0 -0.00000000000E+00 -0.00000000000E+00 -0.74505805969E-08  0.93827000000E+00  0.93827000000E+00 0.  1.
     999902    2    1    2    0    0  0.13287532978E-01  0.17341092420E-01  0.82910266857E-02  0.10205630759E+01  0.10202955350E+01 0.  0.
     999903    2    3    3    0    0  0.80132525025E-01 -0.44191680239E-01 -0.90832510423E-01  0.13034961234E+00  0.19140280001E-01 0.  0.
         14    1    1    2    0    0 -0.13287532978E-01 -0.17341092420E-01 -0.82910266857E-02  0.23366924112E-01  0.00000000000E+00 0.  1.
     999901    1    3    3    0    0 -0.66844992047E-01  0.61532772658E-01  0.99123537108E-01  0.89021346355E+00  0.88000000000E+00 0.  1.
        -11    1    4    4    0    0  0.37828068310E-01 -0.10949021404E-01 -0.43598270441E-01  0.58752992504E-01  0.51100000000E-03 0. -1.
         11    1    4    4    0    0  0.42304456715E-01 -0.33242658835E-01 -0.47234239982E-01  0.71596619836E-01  0.51100000000E-03 0.  1.
</event>
<event>
 8    1  0.1108957E+005  0.1043930E+01  0.7957747E-01            NaN
         13   -1    0    0    0    0  0.00000000000E+00  0.00000000000E+00  0.74505805969E-08  0.10566000000E+00  0.10566000000E+00 0. -1.
     999900   -1    0    0    0    0 -0.00000000000E+00 -0.00000000000E+00 -0.74505805969E-08  0.93827000000E+00  0.93827000000E+00 0.  1.
     999902    2    1    2    0    0 -0.53656911392E-02  0.18865263527E-01 -0.12101868463E-01  0.10208834378E+01  0.10206232652E+01 0.  0.
     999903    2    3    3    0    0  0.77071165930E-01  0.10586927001E+00 -0.81674364765E-02  0.13274999495E+00  0.20188788718E-01 0.  0.
         14    1    1    2    0    0  0.53656911392E-02 -0.18865263527E-01  0.12101868463E-01  0.23046562209E-01  0.00000000000E+00 0. -1.
     999901    1    3    3    0    0 -0.82436857069E-01 -0.87004006479E-01 -0.39344319862E-02  0.88813344285E+00  0.88000000000E+00 0. -1.
        -11    1    4    4    0    0  0.10283446019E-02  0.63967435700E-02 -0.36602689370E-02  0.74588545107E-02  0.51100000000E-03 0. -1.
         11    1    4    4    0    0  0.76042821328E-01  0.99472526436E-01 -0.45071675395E-02  0.12529114043E+00  0.51100000000E-03 0.  1.
</event>
<event>
 8    1  0.1108957E+005  0.1043930E+01  0.7957747E-01            NaN
         13   -1    0    0    0    0  0.00000000000E+00  0.00000000000E+00  0.74505805969E-08  0.10566000000E+00  0.10566000000E+00 0. -1.
     999900   -1    0    0    0    0 -0.00000000000E+00 -0.00000000000E+00 -0.74505805969E-08  0.93827000000E+00  0.93827000000E+00 0.  1.
     999902    2    1    2    0    0  0.23870030140E-01  0.36642322212E-03  0.35195269548E-02  0.10197991137E+01  0.10195135765E+01 0.  0.
     999903    2    3    3    0    0 -0.57949647819E-01  0.81776823386E-01  0.78785343738E-01  0.12907634191E+00  0.20198047646E-01 0.  0.
         14    1    1    2    0    0 -0.23870030140E-01 -0.36642322212E-03 -0.35195269548E-02  0.24130886325E-01  0.00000000000E+00 0.  1.
     999901    1    3    3    0    0  0.81819677959E-01 -0.81410400163E-01 -0.75265816783E-01  0.89072277176E+00  0.88000000000E+00 0.  1.
        -11    1    4    4    0    0 -0.37978529716E-01  0.58010300519E-01  0.42525500417E-01  0.81340291323E-01  0.51100000000E-03 0.  1.
         11    1    4    4    0    0 -0.19971118103E-01  0.23766522866E-01  0.36259843321E-01  0.47736050592E-01  0.51100000000E-03 0. -1.
</event>
<event>
 8    1  0.1108957E+005  0.1043930E+01  0.7957747E-01            NaN
         13   -1    0    0    0    0  0.00000000000E+00  0.00000000000E+00  0.74505805969E-08  0.10566000000E+00  0.10566000000E+00 0. -1.
     999900   -1    0    0    0    0 -0.00000000000E+00 -0.00000000000E+00 -0.74505805969E-08  0.93827000000E+00  0.93827000000E+00 0. -1.
     999902    2    1    2    0    0  0.23777959267E-01  0.19923592755E-02 -0.31609096587E-02  0.10198602640E+01  0.10195761893E+01 0.  0.
     999903    2    3    3    0    0  0.11006136707E+00 -0.69523227577E-01 -0.16371553253E-01  0.13265463577E+00  0.19550983112E-01 0.  0.
         14    1    1    2    0    0 -0.23777959267E-01 -0.19923592755E-02  0.31609096587E-02  0.24069736023E-01  0.00000000000E+00 0.  1.
     999901    1    3    3    0    0 -0.86283407801E-01  0.71515586852E-01  0.13210643594E-01  0.88720562821E+00  0.88000000000E+00 0.  1.
        -11    1    4    4    0    0  0.40817496756E-01 -0.37161064740E-01 -0.63842666190E-02  0.55570070680E-01  0.51100000000E-03 0. -1.
         11    1    4    4    0    0  0.69243870312E-01 -0.32362162837E-01 -0.99872866338E-02  0.77084565086E-01  0.51100000000E-03 0.  1.
</event>
<event>
 8    1  0.1108957E+005  0.1043930E+01  0.7957747E-01            NaN
         13   -1    0    0    0    0  0.00000000000E+00  0.00000000000E+00  0.74505805969E-08  0.10566000000E+00  0.10566000000E+00 0.  1.
     999900   -1    0    0    0    0 -0.00000000000E+00 -0.00000000000E+00 -0.74505805969E-08  0.93827000000E+00  0.93827000000E+00 0. -1.
     999902    2    1    2    0    0  0.90637230759E-02 -0.71649875527E-02  0.26575509115E-01  0.10149516321E+01  0.10145378601E+01 0.  0.
     999903    2    3    3    0    0 -0.41515331983E-01  0.61804860386E-01 -0.95003544620E-01  0.12248507974E+00  0.20822048693E-01 0.  0.
         14    1    1    2    0    0 -0.90637230759E-02  0.71649875527E-02 -0.26575509115E-01  0.28978367921E-01  0.00000000000E+00 0. -1.
     999901    1    3    3    0    0  0.50579055059E-01 -0.68969847938E-01  0.12157905374E+00  0.89246655234E+00  0.88000000000E+00 0.  1.
        -11    1    4    4    0    0 -0.31406505999E-01  0.30736643717E-01 -0.62429619112E-01  0.76346763845E-01  0.51100000000E-03 0. -1.
         11    1    4    4    0    0 -0.10108825984E-01  0.31068216668E-01 -0.32573925508E-01  0.46138315896E-01  0.51100000000E-03 0.  1.
</event>
<event>
 8    1  0.1108957E+005  0.1043930E+01  0.7957747E-01            NaN
         13   -1    0    0    0    0  0.00000000000E+00  0.00000000000E+00  0.74505805969E-08  0.10566000000E+00  0.10566000000E+00 0.  1.
     999900   -1    0    0    0    0 -0.00000000000E+00 -0.00000000000E+00 -0.74505805969E-08  0.93827000000E+00  0.93827000000E+00 0. -1.
     999902    2    1    2    0    0 -0.33794014700E-02 -0.23888987796E-01  0.51154691006E-04  0.10198031123E+01  0.10195176709E+01 0.  0.
     999903    2    3    3    0    0 -0.39343430706E-01 -0.55732551143E-01 -0.11096182025E+00  0.13152877152E+00  0.18255667252E-01 0.  0.
         14    1    1    2    0    0  0.33794014700E-02  0.23888987796E-01 -0.51154691006E-04  0.24126887678E-01  0.00000000000E+00 0.  1.
     999901    1    3    3    0    0  0.35964029236E-01  0.31843563348E-01  0.11101297494E+00  0.88827434080E+00  0.88000000000E+00 0.  1.
        -11    1    4    4    0    0 -0.31231248365E-01 -0.29514944756E-01 -0.72442590524E-01  0.84230118611E-01  0.51100000000E-03 0.  1.
         11    1    4    4    0    0 -0.81121823405E-02 -0.26217606387E-01 -0.38519229728E-01  0.47298652907E-01  0.51100000000E-03 0. -1.
</event>
<event>
 8    1  0.1108957E+005  0.1043930E+01  0.7957747E-01            NaN
         13   -1    0    0    0    0  0.00000000000E+00  0.00000000000E+00  0.74505805969E-08  0.10566000000E+00  0.10566000000E+00 0.  1.
     999900   -1    0    0    0    0 -0.00000000000E+00 -0.00000000000E+00 -0.74505805969E-08  0.93827000000E+00  0.93827000000E+00 0. -1.
     999902    2    1    2    0    0 -0.20367426194E-01 -0.15238455642E-01  0.25225785973E-02  0.10183681929E+01  0.10180473321E+01 0.  0.
     999903    2    3    3    0    0 -0.22409486158E-01  0.96064091840E-02 -0.12497272742E+00  0.12883095906E+00  0.19615433873E-01 0.  0.
         14    1    1    2    0    0  0.20367426194E-01  0.15238455642E-01 -0.25225785973E-02  0.25561807114E-01  0.00000000000E+00 0. -1.
     999901    1    3    3    0    0  0.20420599638E-02 -0.24844864826E-01  0.12749530601E+00  0.88953723383E+00  0.88000000000E+00 0.  1.
        -11    1    4    4    0    0 -0.18155273625E-01  0.70492181830E-02 -0.49538067100E-01  0.53231444188E-01  0.51100000000E-03 0. -1.
         11    1    4    4    0    0 -0.42542125330E-02  0.25571910010E-02 -0.75434660316E-01  0.75599514867E-01  0.51100000000E-03 0.  1.
</event>
<event>
 8    1  0.1108957E+005  0.1043930E+01  0.7957747E-01            NaN
         13   -1    0    0    0    0  0.00000000000E+00  0.00000000000E+00  0.74505805969E-08  0.10566000000E+00  0.10566000000E+00 0. -1.
     999900   -1    0    0    0    0 -0.00000000000E+00 -0.00000000000E+00 -0.74505805969E-08  0.93827000000E+00  0.93827000000E+00 0.  1.
     999902    2    1    2    0    0  0.12779615707E-01 -0.13722980666E-03 -0.20246992999E-01  0.10199867727E+01  0.10197057116E+01 0.  0.
     999903    2    3    3    0    0 -0.98254568900E-01  0.43735525237E-01  0.65982134883E-01  0.12774864790E+00  0.19982953732E-01 0.  0.
         14    1    1    2    0    0 -0.12779615707E-01  0.13722980666E-03  0.20246992999E-01  0.23943227334E-01  0.00000000000E+00 0. -1.
     999901    1    3    3    0    0  0.11103418461E+00 -0.43872755043E-01 -0.86229127882E-01  0.89223812476E+00  0.88000000000E+00 0.  1.
        -11    1    4    4    0    0 -0.26161842964E-01  0.19616974285E-01  0.13553160569E-01  0.35400804932E-01  0.51100000000E-03 0.  1.
         11    1    4    4    0    0 -0.72092725935E-01  0.24118550951E-01  0.52428974314E-01  0.92347842971E-01  0.51100000000E-03 0. -1.
</event>
<event>
 8    1  0.1108957E+005  0.1043930E+01  0.7957747E-01            NaN
         13   -1    0    0    0    0  0.00000000000E+00  0.00000000000E+00  0.74505805969E-08  0.10566000000E+00  0.10566000000E+00 0.  1.
     999900   -1    0    0    0    0 -0.00000000000E+00 -0.00000000000E+00 -0.74505805969E-08  0.93827000000E+00  0.93827000000E+00 0.  1.
     999902    2    1    2    0    0 -0.62759870487E-02 -0.15004114072E-01  0.14510091618E-01  0.10221342616E+01  0.10219018517E+01 0.  0.
     999903    2    3    3    0    0 -0.44550791124E-01  0.32307859295E-01  0.12029856064E+00  0.13371173623E+00  0.19455435043E-01 0.  0.
         14    1    1    2    0    0  0.62759870487E-02  0.15004114072E-01 -0.14510091618E-01  0.21795738374E-01  0.00000000000E+00 0. -1.
     999901    1    3    3    0    0  0.38274804075E-01 -0.47311973366E-01 -0.10578846902E+00  0.88842252539E+00  0.88000000000E+00 0.  1.
        -11    1    4    4    0    0 -0.16611714546E-01  0.13540194077E-01  0.26678670195E-01  0.34224238197E-01  0.51100000000E-03 0. -1.
         11    1    4    4    0    0 -0.27939076578E-01  0.18767665218E-01  0.93619890442E-01  0.99487498034E-01  0.51100000000E-03 0.  1.
</event>
<event>
 8    1  0.1108957E+005  0.1043930E+01  0.7957747E-01            NaN
         13   -1    0    0    0    0  0.00000000000E+00  0.00000000000E+00  0.74505805969E-08  0.10566000000E+00  0.10566000000E+00 0.  1.
     999900   -1    0    0    0    0 -0.00000000000E+00 -0.00000000000E+00 -0.74505805969E-08  0.93827000000E+00  0.93827000000E+00 0. -1.
     999902    2    1    2    0    0 -0.88282124194E-02  0.21163490736E-01 -0.25125069764E-02  0.10208617672E+01  0.10206010995E+01 0.  0.
     999903    2    3    3    0    0  0.39610245520E-01  0.24496926390E-01 -0.12114341281E+00  0.13157514981E+00  0.21615333123E-01 0.  0.
         14    1    1    2    0    0  0.88282124194E-02 -0.21163490736E-01  0.25125069764E-02  0.23068232831E-01  0.00000000000E+00 0. -1.
     999901    1    3    3    0    0 -0.48438457939E-01 -0.33334356542E-02  0.11863090584E+00  0.88928661736E+00  0.88000000000E+00 0.  1.
        -11    1    4    4    0    0  0.21596623931E-01  0.22157585843E-01 -0.93550084132E-01  0.98535537436E-01  0.51100000000E-03 0.  1.
         11    1    4    4    0    0  0.18013621589E-01  0.23393405465E-02 -0.27593328681E-01  0.33039612371E-01  0.51100000000E-03 0. -1.
</event>
<event>
 8    1  0.1108957E+005  0.1043930E+01  0.7957747E-01            NaN
         13   -1    0    0    0    0  0.00000000000E+00  0.00000000000E+00  0.74505805969E-08  0.10566000000E+00  0.10566000000E+00 0.  1.
     999900   -1    0    0    0    0 -0.00000000000E+00 -0.00000000000E+00 -0.74505805969E-08  0.93827000000E+00  0.93827000000E+00 0. -1.
     999902    2    1    2    0    0  0.24527642295E-02 -0.22837528852E-01  0.56123776627E-02  0.10202853905E+01  0.10200113776E+01 0.  0.
     999903    2    3    3    0    0  0.90885783355E-01  0.20172146943E-01 -0.88274960905E-01  0.12984445284E+00  0.19999302016E-01 0.  0.
         14    1    1    2    0    0 -0.24527642295E-02  0.22837528852E-01 -0.56123776627E-02  0.23644609523E-01  0.00000000000E+00 0. -1.
     999901    1    3    3    0    0 -0.88433019126E-01 -0.43009675795E-01  0.93887338568E-01  0.89044093764E+00  0.88000000000E+00 0.  1.
        -11    1    4    4    0    0  0.36055405236E-01  0.99692659160E-02 -0.22706146161E-01  0.43763097515E-01  0.51100000000E-03 0. -1.
         11    1    4    4    0    0  0.54830378120E-01  0.10202881027E-01 -0.65568814745E-01  0.86081355322E-01  0.51100000000E-03 0.  1.
</event>
<event>
 8    1  0.1108957E+005  0.1043930E+01  0.7957747E-01            NaN
         13   -1    0    0    0    0  0.00000000000E+00  0.00000000000E+00  0.74505805969E-08  0.10566000000E+00  0.10566000000E+00 0.  1.
     999900   -1    0    0    0    0 -0.00000000000E+00 -0.00000000000E+00 -0.74505805969E-08  0.93827000000E+00  0.93827000000E+00 0. -1.
     999902    2    1    2    0    0 -0.88862752913E-02  0.12290724452E-01 -0.18325933646E-01  0.10201420274E+01  0.10198646422E+01 0.  0.
     999903    2    3    3    0    0  0.11237343557E+00  0.62424606997E-01  0.32493407113E-02  0.13015168132E+00  0.20106748996E-01 0.  0.
         14    1    1    2    0    0  0.88862752913E-02 -0.12290724452E-01  0.18325933646E-01  0.23787972593E-01  0.00000000000E+00 0.  1.
     999901    1    3    3    0    0 -0.12125971086E+00 -0.50133882546E-01 -0.21575274358E-01  0.88999034608E+00  0.88000000000E+00 0.  1.
        -11    1    4    4    0    0  0.55228402966E-01  0.33704043771E-01  0.11322812635E-01  0.65685662573E-01  0.51100000000E-03 0. -1.
         11    1    4    4    0    0  0.57145032606E-01  0.28720563226E-01 -0.80734719241E-02  0.64466018750E-01  0.51100000000E-03 0.  1.
</event>
<event>
 8    1  0.1108957E+005  0.1043930E+01  0.7957747E-01            NaN
         13   -1    0    0    0    0  0.00000000000E+00  0.00000000000E+00  0.74505805969E-08  0.10566000000E+00  0.10566000000E+00 0.  1.
     999900   -1    0    0    0    0 -0.00000000000E+00 -0.00000000000E+00 -0.74505805969E-08  0.93827000000E+00  0.93827000000E+00 0. -1.
     999902    2    1    2    0    0  0.15234122576E-02 -0.22229521319E-01 -0.12723587936E-01  0.10182714324E+01  0.10179481067E+01 0.  0.
     999903    2    3    3    0    0 -0.21530724879E-01  0.90213074094E-01 -0.85563511923E-01  0.12783306559E+00  0.20450115755E-01 0.  0.
         14    1    1    2    0    0 -0.15234122576E-02  0.22229521319E-01  0.12723587936E-01  0.25658567632E-01  0.00000000000E+00 0.  1.
     999901    1    3    3    0    0  0.23054137136E-01 -0.11244259541E+00  0.72839923987E-01  0.89043836678E+00  0.88000000000E+00 0.  1.
        -11    1    4    4    0    0 -0.96701969617E-02  0.57765467809E-01 -0.65543201643E-01  0.87900707523E-01  0.51100000000E-03 0. -1.
         11    1    4    4    0    0 -0.11860527917E-01  0.32447606286E-01 -0.20020310279E-01  0.39932358067E-01  0.51100000000E-03 0.  1.
</event>
<event>
 8    1  0.1108957E+005  0.1043930E+01  0.7957747E-01            NaN
         13   -1    0    0    0    0  0.00000000000E+00  0.00000000000E+00  0.74505805969E-08  0.10566000000E+00  0.10566000000E+00 0.  1.
     999900   -1    0    0    0    0 -0.00000000000E+00 -0.00000000000E+00 -0.74505805969E-08  0.93827000000E+00  0.93827000000E+00 0. -1.
     999902    2    1    2    0    0  0.18619727206E-01 -0.78882555222E-02 -0.12696061008E-01  0.10200530492E+01  0.10197735603E+01 0.  0.
     999903    2    3    3    0    0 -0.10448878749E+00 -0.63385740916E-01 -0.37561208082E-01  0.12940499700E+00  0.19978739494E-01 0.  0.
         14    1    1    2    0    0 -0.18619727206E-01  0.78882555222E-02  0.12696061008E-01  0.23876950843E-01  0.00000000000E+00 0.  1.
     999901    1    3    3    0    0  0.12310851470E+00  0.55497485394E-01  0.24865147073E-01  0.89064805216E+00  0.88000000000E+00 0. -1.
        -11    1    4    4    0    0 -0.47620120598E-01 -0.36368411393E-01 -0.10326419223E-01  0.60804878817E-01  0.51100000000E-03 0. -1.
         11    1    4    4    0    0 -0.56868666897E-01 -0.27017329523E-01 -0.27234788859E-01  0.68600118181E-01  0.51100000000E-03 0.  1.
</event>
<event>
 8    1  0.1108957E+005  0.1043930E+01  0.7957747E-01            NaN
         13   -1    0    0    0    0  0.00000000000E+00  0.00000000000E+00  0.74505805969E-08  0.10566000000E+00  0.10566000000E+00 0. -1.
     999900   -1    0    0    0    0 -0.00000000000E+00 -0.00000000000E+00 -0.74505805969E-08  0.93827000000E+00  0.93827000000E+00 0.  1.
     999902    2    1    2    0    0 -0.16688460322E-01 -0.29203757395E-02  0.17080895852E-01  0.10198719389E+01  0.10195881430E+01 0.  0.
     999903    2    3    3    0    0 -0.20028450341E-01 -0.82287145765E-01  0.99810485392E-01  0.13242930709E+00  0.20076732794E-01 0.  0.
         14    1    1    2    0    0  0.16688460322E-01  0.29203757395E-02 -0.17080895852E-01  0.24058061134E-01  0.00000000000E+00 0.  1.
     999901    1    3    3    0    0  0.33399900188E-02  0.79366770025E-01 -0.82729589540E-01  0.88744263178E+00  0.88000000000E+00 0. -1.
        -11    1    4    4    0    0 -0.18715609027E-01 -0.38768831381E-01  0.42957455834E-01  0.60818586309E-01  0.51100000000E-03 0.  1.
         11    1    4    4    0    0 -0.13128413139E-02 -0.43518314383E-01  0.56853029558E-01  0.71610720776E-01  0.51100000000E-03 0. -1.
</event>
<event>
 8    1  0.1108957E+005  0.1043930E+01  0.7957747E-01            NaN
         13   -1    0    0    0    0  0.00000000000E+00  0.00000000000E+00  0.74505805969E-08  0.10566000000E+00  0.10566000000E+00 0.  1.
     999900   -1    0    0    0    0 -0.00000000000E+00 -0.00000000000E+00 -0.74505805969E-08  0.93827000000E+00  0.93827000000E+00 0. -1.
     999902    2    1    2    0    0  0.15508269035E-01 -0.91579439897E-02 -0.15531356534E-01  0.10201477086E+01  0.10198704575E+01 0.  0.
     999903    2    3    3    0    0  0.36779996929E-01  0.49771691522E-01  0.11127940994E+00  0.12885305543E+00  0.19748756078E-01 0.  0.
         14    1    1    2    0    0 -0.15508269035E-01  0.91579439897E-02  0.15531356534E-01  0.23782291361E-01  0.00000000000E+00 0.  1.
     999901    1    3    3    0    0 -0.21271727894E-01 -0.58929635511E-01 -0.12681076647E+00  0.89129465321E+00  0.88000000000E+00 0. -1.
        -11    1    4    4    0    0  0.58564697669E-02  0.13990927038E-01  0.44543820255E-01  0.47058020798E-01  0.51100000000E-03 0.  1.
         11    1    4    4    0    0  0.30923527163E-01  0.35780764484E-01  0.66735589681E-01  0.81795034631E-01  0.51100000000E-03 0. -1.
</event>
<event>
 8    1  0.1108957E+005  0.1043930E+01  0.7957747E-01            NaN
         13   -1    0    0    0    0  0.00000000000E+00  0.00000000000E+00  0.74505805969E-08  0.10566000000E+00  0.10566000000E+00 0.  1.
     999900   -1    0    0    0    0 -0.00000000000E+00 -0.00000000000E+00 -0.74505805969E-08  0.93827000000E+00  0.93827000000E+00 0.  1.
     999902    2    1    2    0    0  0.25917274962E-02  0.22719240858E-01  0.11010054577E-01  0.10185508302E+01  0.10182345955E+01 0.  0.
     999903    2    3    3    0    0 -0.50556666501E-01 -0.26523741110E-01 -0.11169568407E+00  0.12708780724E+00  0.20393615136E-01 0.  0.
         14    1    1    2    0    0 -0.25917274962E-02 -0.22719240858E-01 -0.11010054577E-01  0.25379169773E-01  0.00000000000E+00 0. -1.
     999901    1    3    3    0    0  0.53148393997E-01  0.49242981968E-01  0.12270573865E+00  0.89146302299E+00  0.88000000000E+00 0. -1.
        -11    1    4    4    0    0 -0.12631303061E-01  0.22382612006E-02 -0.27995055646E-01  0.30798439763E-01  0.51100000000E-03 0. -1.
         11    1    4    4    0    0 -0.37925363440E-01 -0.28762002311E-01 -0.83700628427E-01  0.96289367476E-01  0.51100000000E-03 0.  1.
</event>
<event>
 8    1  0.1108957E+005  0.1043930E+01  0.7957747E-01            NaN
         13   -1    0    0    0    0  0.00000000000E+00  0.00000000000E+00  0.74505805969E-08  0.10566000000E+00  0.10566000000E+00 0. -1.
     999900   -1    0    0    0    0 -0.00000000000E+00 -0.00000000000E+00 -0.74505805969E-08  0.93827000000E+00  0.93827000000E+00 0. -1.
     999902    2    1    2    0    0  0.62008592076E-02 -0.85393496586E-02  0.13360746661E-01  0.10269041168E+01  0.10267629641E+01 0.  0.
     999903    2    3    3    0    0 -0.10297150942E+00  0.78370831191E-01 -0.31377532740E-01  0.13478669221E+00  0.20923286145E-01 0.  0.
         14    1    1    2    0    0 -0.62008592076E-02  0.85393496586E-02 -0.13360746661E-01  0.17025883203E-01  0.00000000000E+00 0.  1.
     999901    1    3    3    0    0  0.10917236862E+00 -0.86910180850E-01  0.44738279401E-01  0.89211742459E+00  0.88000000000E+00 0.  1.
        -11    1    4    4    0    0 -0.60834246442E-01  0.57919613914E-01 -0.16184184658E-01  0.85543416872E-01  0.51100000000E-03 0.  1.
         11    1    4    4    0    0 -0.42137262975E-01  0.20451217277E-01 -0.15193348082E-01  0.49243275339E-01  0.51100000000E-03 0. -1.
</event>
<event>
 8    1  0.1108957E+005  0.1043930E+01  0.7957747E-01            NaN
         13   -1    0    0    0    0  0.00000000000E+00  0.00000000000E+00  0.74505805969E-08  0.10566000000E+00  0.10566000000E+00 0.  1.
     999900   -1    0    0    0    0 -0.00000000000E+00 -0.00000000000E+00 -0.74505805969E-08  0.93827000000E+00  0.93827000000E+00 0.  1.
     999902    2    1    2    0    0  0.21253099753E-01 -0.79417083476E-03  0.61594359538E-02  0.10217881029E+01  0.10215481700E+01 0.  0.
     999903    2    3    3    0    0  0.65949105166E-01  0.36446050627E-01 -0.10724246441E+00  0.13260614288E+00  0.20145567197E-01 0.  0.
         14    1    1    2    0    0 -0.21253099753E-01  0.79417083476E-03 -0.61594359538E-02  0.22141897111E-01  0.00000000000E+00 0. -1.
     999901    1    3    3    0    0 -0.44696005413E-01 -0.37240221461E-01  0.11340190037E+00  0.88918196001E+00  0.88000000000E+00 0. -1.
        -11    1    4    4    0    0  0.50028895779E-01  0.36363903822E-01 -0.89101544535E-01  0.10846460378E+00  0.51100000000E-03 0.  1.
         11    1    4    4    0    0  0.15920209387E-01  0.82146805034E-04 -0.18140919880E-01  0.24141539100E-01  0.51100000000E-03 0. -1.
</event>
<event>
 7    1  0.1108957E+005  0.1043930E+01  0.7957747E-01            NaN
         13   -1    0    0    0    0  0.00000000000E+00  0.00000000000E+00  0.74505805969E-08  0.10566000000E+00  0.10566000000E+00 0.  1.
     999900   -1    0    0    0    0 -0.00000000000E+00 -0.00000000000E+00 -0.74505805969E-08  0.93827000000E+00  0.93827000000E+00 0. -1.
     999903    2    1    2    0    0  0.85086407085E-01 -0.48154503239E-01 -0.53119852331E-01  0.11315193330E+00  0.20569113853E-01 0.  0.
         14    1    1    2    0    0 -0.12414701342E-01 -0.22767436967E-01  0.36510978002E-01  0.44783172176E-01  0.00000000000E+00 0.  1.
     999901    1    1    2    0    0 -0.72671705742E-01  0.70921940207E-01  0.16608874329E-01  0.88599489453E+00  0.88000000000E+00 0. -1.
        -11    1    3    3    0    0  0.49996561794E-01 -0.17774930853E-01 -0.33533903293E-01  0.62772511095E-01  0.51100000000E-03 0.  1.
         11    1    3    3    0    0  0.35089845290E-01 -0.30379572386E-01 -0.19585949039E-01  0.50379422204E-01  0.51100000000E-03 0. -1.
</event>
<event>
 8    1  0.1108957E+005  0.1043930E+01  0.7957747E-01            NaN
         13   -1    0    0    0    0  0.00000000000E+00  0.00000000000E+00  0.74505805969E-08  0.10566000000E+00  0.10566000000E+00 0.  1.
     999900   -1    0    0    0    0 -0.00000000000E+00 -0.00000000000E+00 -0.74505805969E-08  0.93827000000E+00  0.93827000000E+00 0.  1.
     999902    2    1    2    0    0 -0.21620528085E-01 -0.31832906386E-03  0.15334886751E-01  0.10174213727E+01  0.10170759767E+01 0.  0.
     999903    2    3    3    0    0  0.74302228427E-01 -0.40365597544E-01 -0.89710399216E-01  0.12509885759E+00  0.21250078291E-01 0.  0.
         14    1    1    2    0    0  0.21620528085E-01  0.31832906386E-03 -0.15334886751E-01  0.26508627270E-01  0.00000000000E+00 0.  1.
     999901    1    3    3    0    0 -0.95922756512E-01  0.40047268480E-01  0.10504528597E+00  0.89232251514E+00  0.88000000000E+00 0. -1.
        -11    1    4    4    0    0  0.30684246405E-01 -0.20232227196E-01 -0.53622791092E-01  0.65011774628E-01  0.51100000000E-03 0. -1.
         11    1    4    4    0    0  0.43617982022E-01 -0.20133370348E-01 -0.36087608124E-01  0.60087082958E-01  0.51100000000E-03 0.  1.
</event>
<event>
 8    1  0.1108957E+005  0.1043930E+01  0.7957747E-01            NaN
         13   -1    0    0    0    0  0.00000000000E+00  0.00000000000E+00  0.74505805969E-08  0.10566000000E+00  0.10566000000E+00 0. -1.
     999900   -1    0    0    0    0 -0.00000000000E+00 -0.00000000000E+00 -0.74505805969E-08  0.93827000000E+00  0.93827000000E+00 0. -1.
     999902    2    1    2    0    0  0.81692614882E-02 -0.94717680358E-02 -0.20217926665E-01  0.10201557328E+01  0.10198786709E+01 0.  0.
     999903    2    3    3    0    0  0.33465268857E-01  0.58761856498E-01 -0.11199403000E+00  0.13239530978E+00  0.20321793702E-01 0.  0.
         14    1    1    2    0    0 -0.81692614882E-02  0.94717680358E-02  0.20217926665E-01  0.23774267215E-01  0.00000000000E+00 0.  1.
     999901    1    3    3    0    0 -0.25296007369E-01 -0.68233624534E-01  0.91776103331E-01  0.88776042300E+00  0.88000000000E+00 0.  1.
        -11    1    4    4    0    0  0.29765536204E-01  0.55097444352E-01 -0.89076128935E-01  0.10888770999E+00  0.51100000000E-03 0.  1.
         11    1    4    4    0    0  0.36997326524E-02  0.36644121465E-02 -0.22917901060E-01  0.23507599794E-01  0.51100000000E-03 0. -1.
</event>
<event>
 8    1  0.1108957E+005  0.1043930E+01  0.7957747E-01            NaN
         13   -1    0    0    0    0  0.00000000000E+00  0.00000000000E+00  0.74505805969E-08  0.10566000000E+00  0.10566000000E+00 0. -1.
     999900   -1    0    0    0    0 -0.00000000000E+00 -0.00000000000E+00 -0.74505805969E-08  0.93827000000E+00  0.93827000000E+00 0. -1.
     999902    2    1    2    0    0  0.19273400926E-01  0.15619368004E-01 -0.77016065163E-02  0.10179541770E+01  0.10176227017E+01 0.  0.
     999903    2    3    3    0    0 -0.27574469712E-01  0.11925303977E+00 -0.39220451867E-01  0.13007575142E+00  0.19995459194E-01 0.  0.
         14    1    1    2    0    0 -0.19273400926E-01 -0.15619368004E-01  0.77016065163E-02  0.25975823049E-01  0.00000000000E+00 0. -1.
     999901    1    3    3    0    0  0.46847870638E-01 -0.10363367177E+00  0.31518845350E-01  0.88787842553E+00  0.88000000000E+00 0.  1.
        -11    1    4    4    0    0 -0.92980430166E-02  0.68728297711E-01 -0.14156536595E-01  0.70786306300E-01  0.51100000000E-03 0.  1.
         11    1    4    4    0    0 -0.18276426696E-01  0.50524742062E-01 -0.25063915271E-01  0.59289445123E-01  0.51100000000E-03 0. -1.
</event>
<event>
 8    1  0.1108957E+005  0.1043930E+01  0.7957747E-01            NaN
         13   -1    0    0    0    0  0.00000000000E+00  0.00000000000E+00  0.74505805969E-08  0.10566000000E+00  0.10566000000E+00 0.  1.
     999900   -1    0    0    0    0 -0.00000000000E+00 -0.00000000000E+00 -0.74505805969E-08  0.93827000000E+00  0.93827000000E+00 0. -1.
     999902    2    1    2    0    0 -0.18846991850E-01  0.75469194653E-02 -0.12916686368E-01  0.10198674589E+01  0.10195835561E+01 0.  0.
     999903    2    3    3    0    0 -0.59220466427E-01 -0.74165304059E-01 -0.89437049612E-01  0.13185717133E+00  0.19487735064E-01 0.  0.
         14    1    1    2    0    0  0.18846991850E-01 -0.75469194653E-02  0.12916686368E-01  0.24062541053E-01  0.00000000000E+00 0.  1.
     999901    1    3    3    0    0  0.40373474576E-01  0.81712223524E-01  0.76520363244E-01  0.88801028762E+00  0.88000000000E+00 0. -1.
        -11    1    4    4    0    0 -0.28240201515E-01 -0.20467804842E-01 -0.31237043804E-01  0.46823648334E-01  0.51100000000E-03 0. -1.
         11    1    4    4    0    0 -0.30980264911E-01 -0.53697499216E-01 -0.58200005807E-01  0.85033522996E-01  0.51100000000E-03 0.  1.
</event>
<event>
 8    1  0.1108957E+005  0.1043930E+01  0.7957747E-01            NaN
         13   -1    0    0    0    0  0.00000000000E+00  0.00000000000E+00  0.74505805969E-08  0.10566000000E+00  0.10566000000E+00 0.  1.
     999900   -1    0    0    0    0 -0.00000000000E+00 -0.00000000000E+00 -0.74505805969E-08  0.93827000000E+00  0.93827000000E+00 0. -1.
     999902    2    1    2    0    0  0.13376222861E-01 -0.21440865796E-01 -0.12295042575E-01  0.10158265814E+01  0.10154377585E+01 0.  0.
     999903    2    3    3    0    0 -0.64059881016E-01  0.76824651820E-01 -0.69261205086E-01  0.12515402329E+00  0.29338021949E-01 0.  0.
         14    1    1    2    0    0 -0.13376222861E-01  0.21440865796E-01  0.12295042575E-01  0.28103418583E-01  0.00000000000E+00 0.  1.
     999901    1    3    3    0    0  0.77436103876E-01 -0.98265517616E-01  0.56966162511E-01  0.89067255813E+00  0.88000000000E+00 0.  1.
        -11    1    4    4    0    0 -0.21510179206E-01  0.46047255380E-01 -0.42275310161E-01  0.66109761062E-01  0.51100000000E-03 0. -1.
         11    1    4    4    0    0 -0.42549701810E-01  0.30777396440E-01 -0.26985894925E-01  0.59044262224E-01  0.51100000000E-03 0.  1.
</event>
<event>
 8    1  0.1108957E+005  0.1043930E+01  0.7957747E-01            NaN
         13   -1    0    0    0    0  0.00000000000E+00  0.00000000000E+00  0.74505805969E-08  0.10566000000E+00  0.10566000000E+00 0.  1.
     999900   -1    0    0    0    0 -0.00000000000E+00 -0.00000000000E+00 -0.74505805969E-08  0.93827000000E+00  0.93827000000E+00 0. -1.
     999902    2    1    2    0    0  0.85490411826E-02  0.59102565561E-02 -0.26153751359E-01  0.10157868668E+01  0.10153969287E+01 0.  0.
     999903    2    3    3    0    0 -0.75539709276E-01  0.77646239936E-02  0.95562048171E-01  0.12343654740E+00  0.18383120514E-01 0.  0.
         14    1    1    2    0    0 -0.85490411826E-02 -0.59102565561E-02  0.26153751359E-01  0.28143133227E-01  0.00000000000E+00 0.  1.
     999901    1    3    3    0    0  0.84088750459E-01 -0.18543674374E-02 -0.12171579953E+00  0.89235031937E+00  0.88000000000E+00 0. -1.
        -11    1    4    4    0    0 -0.70932358767E-01  0.41620356361E-02  0.92981132289E-01  0.11702339144E+00  0.51100000000E-03 0. -1.
         11    1    4    4    0    0 -0.46073505089E-02  0.36025883575E-02  0.25809158816E-02  0.64131559604E-02  0.51100000000E-03 0.  1.
</event>
<event>
 8    1  0.1108957E+005  0.1043930E+01  0.7957747E-01            NaN
         13   -1    0    0    0    0  0.00000000000E+00  0.00000000000E+00  0.74505805969E-08  0.10566000000E+00  0.10566000000E+00 0.  1.
     999900   -1    0    0    0    0 -0.00000000000E+00 -0.00000000000E+00 -0.74505805969E-08  0.93827000000E+00  0.93827000000E+00 0. -1.
     999902    2    1    2    0    0  0.22503704936E-01  0.36429106748E-02 -0.63140195538E-02  0.10202750982E+01  0.10200008440E+01 0.  0.
     999903    2    3    3    0    0 -0.16765415888E-01 -0.11052520809E+00 -0.63251459354E-01  0.13020864273E+00  0.21369200658E-01 0.  0.
         14    1    1    2    0    0 -0.22503704936E-01 -0.36429106748E-02  0.63140195538E-02  0.23654901754E-01  0.00000000000E+00 0.  1.
     999901    1    3    3    0    0  0.39269120824E-01  0.11416811876E+00  0.56937439801E-01  0.89006645552E+00  0.88000000000E+00 0.  1.
        -11    1    4    4    0    0 -0.12026274744E-01 -0.27035362104E-01 -0.10844242073E-01  0.31518261301E-01  0.51100000000E-03 0.  1.
         11    1    4    4    0    0 -0.47391411442E-02 -0.83489845986E-01 -0.52407217282E-01  0.98690381425E-01  0.51100000000E-03 0. -1.
</event>
<event>
 8    1  0.1108957E+005  0.1043930E+01  0.7957747E-01            NaN
         13   -1    0    0    0    0  0.00000000000E+00  0.00000000000E+00  0.74505805969E-08  0.10566000000E+00  0.10566000000E+00 0. -1.
     999900   -1    0    0    0    0 -0.00000000000E+00 -0.00000000000E+00 -0.74505805969E-08  0.93827000000E+00  0.93827000000E+00 0.  1.
     999902    2    1    2    0    0 -0.37688406592E-02 -0.23209669402E-01  0.10165111666E-02  0.10203943630E+01  0.10201228994E+01 0.  0.
     999903    2    3    3    0    0  0.62718190152E-01  0.12085955482E-01  0.11176728171E+00  0.13026401324E+00  0.19928527033E-01 0.  0.
         14    1    1    2    0    0  0.37688406592E-02  0.23209669402E-01 -0.10165111666E-02  0.23535636992E-01  0.00000000000E+00 0. -1.
     999901    1    3    3    0    0 -0.66487030812E-01 -0.35295624884E-01 -0.11075077054E+00  0.89013034977E+00  0.88000000000E+00 0.  1.
        -11    1    4    4    0    0  0.56881968544E-01  0.16095377371E-01  0.93004169122E-01  0.11020279540E+00  0.51100000000E-03 0. -1.
         11    1    4    4    0    0  0.58362216085E-02 -0.40094218891E-02  0.18763112584E-01  0.20061217845E-01  0.51100000000E-03 0.  1.
</event>
<event>
 8    1  0.1108957E+005  0.1043930E+01  0.7957747E-01            NaN
         13   -1    0    0    0    0  0.00000000000E+00  0.00000000000E+00  0.74505805969E-08  0.10566000000E+00  0.10566000000E+00 0. -1.
     999900   -1    0    0    0    0 -0.00000000000E+00 -0.00000000000E+00 -0.74505805969E-08  0.93827000000E+00  0.93827000000E+00 0.  1.
     999902    2    1    2    0    0  0.71989227052E-02  0.20311378987E-01  0.97826982718E-02  0.10202640373E+01  0.10199895235E+01 0.  0.
     999903    2    3    3    0    0  0.73835467764E-01 -0.73981748126E-01  0.75238429139E-01  0.13031118707E+00  0.19879861657E-01 0.  0.
         14    1    1    2    0    0 -0.71989227052E-02 -0.20311378987E-01 -0.97826982718E-02  0.23665962688E-01  0.00000000000E+00 0. -1.
     999901    1    3    3    0    0 -0.66636545059E-01  0.94293127113E-01 -0.65455730867E-01  0.88995285025E+00  0.88000000000E+00 0. -1.
        -11    1    4    4    0    0  0.60369598605E-01 -0.55916398932E-01  0.49206141245E-01  0.95878243426E-01  0.51100000000E-03 0. -1.
         11    1    4    4    0    0  0.13465869159E-01 -0.18065349194E-01  0.26032287894E-01  0.34432943640E-01  0.51100000000E-03 0.  1.
</event>
<event>
 8    1  0.1108957E+005  0.1043930E+01  0.7957747E-01            NaN
         13   -1    0    0    0    0  0.00000000000E+00  0.00000000000E+00  0.74505805969E-08  0.10566000000E+00  0.10566000000E+00 0.  1.
     999900   -1    0    0    0    0 -0.00000000000E+00 -0.00000000000E+00 -0.74505805969E-08  0.93827000000E+00  0.93827000000E+00 0.  1.
     999902    2    1    2    0    0  0.15012665340E-01  0.16570432085E-01 -0.76231306946E-02  0.10203064638E+01  0.10200329449E+01 0.  0.
     999903    2    3    3    0    0  0.76626301847E-01 -0.66892915002E-02  0.10397072365E+00  0.13081759752E+00  0.19672205977E-01 0.  0.
         14    1    1    2    0    0 -0.15012665340E-01 -0.16570432085E-01  0.76231306946E-02  0.23623536181E-01  0.00000000000E+00 0. -1.
     999901    1    3    3    0    0 -0.61613636507E-01  0.23259723586E-01 -0.11159385435E+00  0.88948886630E+00  0.88000000000E+00 0.  1.
        -11    1    4    4    0    0  0.35102931176E-01 -0.51477566774E-02  0.63897821143E-01  0.73088356417E-01  0.51100000000E-03 0.  1.
         11    1    4    4    0    0  0.41523370672E-01 -0.15415348227E-02  0.40072902510E-01  0.57729241101E-01  0.51100000000E-03 0. -1.
</event>
<event>
 8    1  0.1108957E+005  0.1043930E+01  0.7957747E-01            NaN
         13   -1    0    0    0    0  0.00000000000E+00  0.00000000000E+00  0.74505805969E-08  0.10566000000E+00  0.10566000000E+00 0.  1.
     999900   -1    0    0    0    0 -0.00000000000E+00 -0.00000000000E+00 -0.74505805969E-08  0.93827000000E+00  0.93827000000E+00 0.  1.
     999902    2    1    2    0    0  0.47999339610E-02 -0.14293451807E-01 -0.18158056796E-01  0.10203279417E+01  0.10200549257E+01 0.  0.
     999903    2    3    3    0    0 -0.12481845493E+00  0.23915407980E-01 -0.18225158862E-01  0.13001291417E+00  0.20484335555E-01 0.  0.
         14    1    1    2    0    0 -0.47999339610E-02  0.14293451807E-01  0.18158056796E-01  0.23602058325E-01  0.00000000000E+00 0.  1.
     999901    1    3    3    0    0  0.12961838890E+00 -0.38208859787E-01  0.67102066582E-04  0.89031502751E+00  0.88000000000E+00 0. -1.
        -11    1    4    4    0    0 -0.62037450163E-01  0.14295689302E-01  0.92818900083E-03  0.63672086593E-01  0.51100000000E-03 0. -1.
         11    1    4    4    0    0 -0.62781004772E-01  0.96197186779E-02 -0.19153347863E-01  0.66340827572E-01  0.51100000000E-03 0.  1.
</event>
<event>
 8    1  0.1108957E+005  0.1043930E+01  0.7957747E-01            NaN
         13   -1    0    0    0    0  0.00000000000E+00  0.00000000000E+00  0.74505805969E-08  0.10566000000E+00  0.10566000000E+00 0.  1.
     999900   -1    0    0    0    0 -0.00000000000E+00 -0.00000000000E+00 -0.74505805969E-08  0.93827000000E+00  0.93827000000E+00 0. -1.
     999902    2    1    2    0    0 -0.20490387285E-02  0.22990577965E-01  0.52569052513E-02  0.10202572248E+01  0.10199825510E+01 0.  0.
     999903    2    3    3    0    0  0.36146588169E-01 -0.11884345423E+00  0.24451865714E-01  0.12787600291E+00  0.18000998091E-01 0.  0.
         14    1    1    2    0    0  0.20490387285E-02 -0.22990577965E-01 -0.52569052513E-02  0.23672775243E-01  0.00000000000E+00 0. -1.
     999901    1    3    3    0    0 -0.38195626897E-01  0.14183403220E+00 -0.19194960462E-01  0.89238122185E+00  0.88000000000E+00 0.  1.
        -11    1    4    4    0    0  0.95283857439E-02 -0.55369332731E-01  0.16668941082E-01  0.58606039448E-01  0.51100000000E-03 0.  1.
         11    1    4    4    0    0  0.26618202425E-01 -0.63474121502E-01  0.77829246315E-02  0.69269963459E-01  0.51100000000E-03 0. -1.
</event>
<event>
 8    1  0.1108957E+005  0.1043930E+01  0.7957747E-01            NaN
         13   -1    0    0    0    0  0.00000000000E+00  0.00000000000E+00  0.74505805969E-08  0.10566000000E+00  0.10566000000E+00 0.  1.
     999900   -1    0    0    0    0 -0.00000000000E+00 -0.00000000000E+00 -0.74505805969E-08  0.93827000000E+00  0.93827000000E+00 0. -1.
     999902    2    1    2    0    0  0.22988146048E-01  0.56012811768E-02 -0.37075988034E-02  0.10199805637E+01  0.10196993551E+01 0.  0.
     999903    2    3    3    0    0  0.13126755367E+00 -0.50391413387E-02  0.86970858988E-02  0.13319337114E+00  0.20205722488E-01 0.  0.
         14    1    1    2    0    0 -0.22988146048E-01 -0.56012811768E-02  0.37075988034E-02  0.23949436286E-01  0.00000000000E+00 0. -1.
     999901    1    3    3    0    0 -0.10827940762E+00  0.10640422515E-01 -0.12404684702E-01  0.88678719257E+00  0.88000000000E+00 0.  1.
        -11    1    4    4    0    0  0.45116107382E-02 -0.37897500842E-02 -0.12348329536E-02  0.60417522771E-02  0.51100000000E-03 0. -1.
         11    1    4    4    0    0  0.12675594293E+00 -0.12493912545E-02  0.99319188524E-02  0.12715161887E+00  0.51100000000E-03 0.  1.
</event>
<event>
 8    1  0.1108957E+005  0.1043930E+01  0.7957747E-01            NaN
         13   -1    0    0    0    0  0.00000000000E+00  0.00000000000E+00  0.74505805969E-08  0.10566000000E+00  0.10566000000E+00 0. -1.
     999900   -1    0    0    0    0 -0.00000000000E+00 -0.00000000000E+00 -0.74505805969E-08  0.93827000000E+00  0.93827000000E+00 0. -1.
     999902    2    1    2    0    0  0.79467238360E-02 -0.34268227772E-02 -0.21496575012E-01  0.10207568200E+01  0.10204937478E+01 0.  0.
     999903    2    3    3    0    0  0.30431682314E-01  0.10153785596E+00  0.71061905883E-01  0.12941500592E+00  0.21504088205E-01 0.  0.
         14    1    1    2    0    0 -0.79467238360E-02  0.34268227772E-02  0.21496575012E-01  0.23173180000E-01  0.00000000000E+00 0. -1.
     999901    1    3    3    0    0 -0.22484958478E-01 -0.10496467873E+00 -0.92558480895E-01  0.89134181408E+00  0.88000000000E+00 0. -1.
        -11    1    4    4    0    0  0.18954197090E-01  0.54986017057E-01  0.26348578338E-01  0.63853209477E-01  0.51100000000E-03 0.  1.
         11    1    4    4    0    0  0.11477485223E-01  0.46551838898E-01  0.44713327545E-01  0.65561796444E-01  0.51100000000E-03 0. -1.
</event>
<event>
 8    1  0.1108957E+005  0.1043930E+01  0.7957747E-01            NaN
         13   -1    0    0    0    0  0.00000000000E+00  0.00000000000E+00  0.74505805969E-08  0.10566000000E+00  0.10566000000E+00 0.  1.
     999900   -1    0    0    0    0 -0.00000000000E+00 -0.00000000000E+00 -0.74505805969E-08  0.93827000000E+00  0.93827000000E+00 0. -1.
     999902    2    1    2    0    0  0.97729095642E-02 -0.10705593012E-01  0.19339042932E-01  0.10197614654E+01  0.10194750258E+01 0.  0.
     999903    2    3    3    0    0 -0.11304406079E+00  0.40657428335E-01  0.43726573894E-01  0.12941494868E+00  0.20105459957E-01 0.  0.
         14    1    1    2    0    0 -0.97729095642E-02  0.10705593012E-01 -0.19339042932E-01  0.24168534598E-01  0.00000000000E+00 0. -1.
     999901    1    3    3    0    0  0.12281697035E+00 -0.51363021348E-01 -0.24387530962E-01  0.89034651672E+00  0.88000000000E+00 0. -1.
        -11    1    4    4    0    0 -0.10322483741E+00  0.30640131619E-01  0.37068944081E-01  0.11387955242E+00  0.51100000000E-03 0. -1.
         11    1    4    4    0    0 -0.98192233787E-02  0.10017296716E-01  0.66576298125E-02  0.15535396261E-01  0.51100000000E-03 0.  1.
</event>
<event>
 8    1  0.1108957E+005  0.1043930E+01  0.7957747E-01            NaN
         13   -1    0    0    0    0  0.00000000000E+00  0.00000000000E+00  0.74505805969E-08  0.10566000000E+00  0.10566000000E+00 0. -1.
     999900   -1    0    0    0    0 -0.00000000000E+00 -0.00000000000E+00 -0.74505805969E-08  0.93827000000E+00  0.93827000000E+00 0.  1.
     999902    2    1    2    0    0 -0.10677327680E-01 -0.13920792889E-01  0.20762505009E-01  0.10167477371E+01  0.10163843198E+01 0.  0.
     999903    2    3    3    0    0 -0.27323541302E-01  0.11709010909E+00  0.35419196887E-01  0.12677258495E+00  0.18976280763E-01 0.  0.
         14    1    1    2    0    0  0.10677327680E-01  0.13920792889E-01 -0.20762505009E-01  0.27182262881E-01  0.00000000000E+00 0.  1.
     999901    1    3    3    0    0  0.16646213622E-01 -0.13101090197E+00 -0.14656691878E-01  0.88997515217E+00  0.88000000000E+00 0.  1.
        -11    1    4    4    0    0 -0.17996597854E-01  0.84687743184E-01  0.34012018411E-01  0.93021341085E-01  0.51100000000E-03 0.  1.
         11    1    4    4    0    0 -0.93269434483E-02  0.32402365901E-01  0.14071784768E-02  0.33751243864E-01  0.51100000000E-03 0. -1.
</event>
<event>
 8    1  0.1108957E+005  0.1043930E+01  0.7957747E-01            NaN
         13   -1    0    0    0    0  0.00000000000E+00  0.00000000000E+00  0.74505805969E-08  0.10566000000E+00  0.10566000000E+00 0. -1.
     999900   -1    0    0    0    0 -0.00000000000E+00 -0.00000000000E+00 -0.74505805969E-08  0.93827000000E+00  0.93827000000E+00 0.  1.
     999902    2    1    2    0    0  0.23083013334E-02  0.20833290628E-01  0.10831258566E-01  0.10203361361E+01  0.10200633118E+01 0.  0.
     999903    2    3    3    0    0  0.71804442101E-01  0.81016296482E-01  0.75071954534E-01  0.13321800707E+00  0.19791938960E-01 0.  0.
         14    1    1    2    0    0 -0.23083013334E-02 -0.20833290628E-01 -0.10831258566E-01  0.23593863938E-01  0.00000000000E+00 0.  1.
     999901    1    3    3    0    0 -0.69496140768E-01 -0.60183005854E-01 -0.64240695968E-01  0.88711812900E+00  0.88000000000E+00 0.  1.
        -11    1    4    4    0    0  0.15103291032E-01  0.79043379964E-02  0.16395832194E-01  0.23657396169E-01  0.51100000000E-03 0. -1.
         11    1    4    4    0    0  0.56701151069E-01  0.73111958486E-01  0.58676122340E-01  0.10956061090E+00  0.51100000000E-03 0.  1.
</event>
<event>
 8    1  0.1108957E+005  0.1043930E+01  0.7957747E-01            NaN
         13   -1    0    0    0    0  0.00000000000E+00  0.00000000000E+00  0.74505805969E-08  0.10566000000E+00  0.10566000000E+00 0.  1.
     999900   -1    0    0    0    0 -0.00000000000E+00 -0.00000000000E+00 -0.74505805969E-08  0.93827000000E+00  0.93827000000E+00 0.  1.
     999902    2    1    2    0    0 -0.19713279524E-01 -0.95097777088E-02 -0.11795038301E-01  0.10190669312E+01  0.10187635830E+01 0.  0.
     999903    2    3    3    0    0  0.50323174007E-01  0.81611043315E-02  0.11513818923E+00  0.12703026763E+00  0.16758902423E-01 0.  0.
         14    1    1    2    0    0  0.19713279524E-01  0.95097777088E-02  0.11795038301E-01  0.24863068801E-01  0.00000000000E+00 0.  1.
     999901    1    3    3    0    0 -0.70036453532E-01 -0.17670882040E-01 -0.12693322753E+00  0.89203666357E+00  0.88000000000E+00 0.  1.
        -11    1    4    4    0    0  0.25085123105E-01  0.18171519989E-02  0.75760789072E-01  0.79828088568E-01  0.51100000000E-03 0.  1.
         11    1    4    4    0    0  0.25238050903E-01  0.63439523326E-02  0.39377400154E-01  0.47202179065E-01  0.51100000000E-03 0. -1.
</event>
<event>
 8    1  0.1108957E+005  0.1043930E+01  0.7957747E-01            NaN
         13   -1    0    0    0    0  0.00000000000E+00  0.00000000000E+00  0.74505805969E-08  0.10566000000E+00  0.10566000000E+00 0.  1.
     999900   -1    0    0    0    0 -0.00000000000E+00 -0.00000000000E+00 -0.74505805969E-08  0.93827000000E+00  0.93827000000E+00 0.  1.
     999902    2    1    2    0    0  0.16203804821E-01  0.14699544727E-01 -0.56942107467E-02  0.10213232766E+01  0.10210730490E+01 0.  0.
     999903    2    3    3    0    0  0.67402317425E-01 -0.11002623790E+00 -0.93020472614E-02  0.13104757493E+00  0.20930680599E-01 0.  0.
         14    1    1    2    0    0 -0.16203804821E-01 -0.14699544727E-01  0.56942107467E-02  0.22606723378E-01  0.00000000000E+00 0. -1.
     999901    1    3    3    0    0 -0.51198512604E-01  0.12472578263E+00  0.36078365147E-02  0.89027570170E+00  0.88000000000E+00 0.  1.
        -11    1    4    4    0    0  0.28959790563E-01 -0.32008015482E-01 -0.88719732061E-02  0.44069893966E-01  0.51100000000E-03 0.  1.
         11    1    4    4    0    0  0.38442526862E-01 -0.78018222417E-01 -0.43007405529E-03  0.86977680961E-01  0.51100000000E-03 0. -1.
</event>
<event>
 8    1  0.1108957E+005  0.1043930E+01  0.7957747E-01            NaN
         13   -1    0    0    0    0  0.00000000000E+00  0.00000000000E+00  0.74505805969E-08  0.10566000000E+00  0.10566000000E+00 0. -1.
     999900   -1    0    0    0    0 -0.00000000000E+00 -0.00000000000E+00 -0.74505805969E-08  0.93827000000E+00  0.93827000000E+00 0.  1.
     999902    2    1    2    0    0 -0.59077452118E-03 -0.23794906526E-01  0.99431776172E-04  0.10201275531E+01  0.10198498263E+01 0.  0.
     999903    2    3    3    0    0  0.32653651457E-01  0.91943585521E-01  0.80707440024E-01  0.12827653338E+00  0.20525454193E-01 0.  0.
         14    1    1    2    0    0  0.59077452118E-03  0.23794906526E-01 -0.99431776172E-04  0.23802446886E-01  0.00000000000E+00 0.  1.
     999901    1    3    3    0    0 -0.33244425978E-01 -0.11573849205E+00 -0.80608008248E-01  0.89185101973E+00  0.88000000000E+00 0.  1.
        -11    1    4    4    0    0  0.26149331111E-01  0.47895317659E-01  0.51415218705E-01  0.74976895152E-01  0.51100000000E-03 0.  1.
         11    1    4    4    0    0  0.65043203460E-02  0.44048267862E-01  0.29292221319E-01  0.53299638231E-01  0.51100000000E-03 0. -1.
</event>
<event>
 8    1  0.1108957E+005  0.1043930E+01  0.7957747E-01            NaN
         13   -1    0    0    0    0  0.00000000000E+00  0.00000000000E+00  0.74505805969E-08  0.10566000000E+00  0.10566000000E+00 0. -1.
     999900   -1    0    0    0    0 -0.00000000000E+00 -0.00000000000E+00 -0.74505805969E-08  0.93827000000E+00  0.93827000000E+00 0. -1.
     999902    2    1    2    0    0 -0.39471244349E-02  0.13156540753E-01  0.20199313963E-01  0.10195028299E+01  0.10192101518E+01 0.  0.
     999903    2    3    3    0    0  0.47475304354E-01 -0.10545612487E+00  0.54359019309E-01  0.12940164680E+00  0.20371166393E-01 0.  0.
         14    1    1    2    0    0  0.39471244349E-02 -0.13156540753E-01 -0.20199313963E-01  0.24427170128E-01  0.00000000000E+00 0.  1.
     999901    1    3    3    0    0 -0.51422428789E-01  0.11861266562E+00 -0.34159705346E-01  0.89010118307E+00  0.88000000000E+00 0. -1.
        -11    1    4    4    0    0  0.18467670068E-01 -0.36028994704E-01  0.87868424304E-02  0.41432028891E-01  0.51100000000E-03 0.  1.
         11    1    4    4    0    0  0.29007634286E-01 -0.69427130162E-01  0.45572176879E-01  0.87969617914E-01  0.51100000000E-03 0. -1.
</event>
<event>
 8    1  0.1108957E+005  0.1043930E+01  0.7957747E-01            NaN
         13   -1    0    0    0    0  0.00000000000E+00  0.00000000000E+00  0.74505805969E-08  0.10566000000E+00  0.10566000000E+00 0. -1.
     999900   -1    0    0    0    0 -0.00000000000E+00 -0.00000000000E+00 -0.74505805969E-08  0.93827000000E+00  0.93827000000E+00 0. -1.
     999902    2    1    2    0    0  0.66767251382E-02  0.18306302332E-01 -0.14187002877E-01  0.10198266721E+01  0.10195417945E+01 0.  0.
     999903    2    3    3    0    0 -0.80844253719E-01  0.89053664814E-01 -0.49708794672E-01  0.13194891662E+00  0.21753246969E-01 0.  0.
         14    1    1    2    0    0 -0.66767251382E-02 -0.18306302332E-01  0.14187002877E-01  0.24103327867E-01  0.00000000000E+00 0. -1.
     999901    1    3    3    0    0  0.87520978857E-01 -0.70747362482E-01  0.35521791795E-01  0.88787775551E+00  0.88000000000E+00 0. -1.
        -11    1    4    4    0    0 -0.92976482844E-02  0.21581251979E-02 -0.24362621625E-02  0.98640895330E-02  0.51100000000E-03 0. -1.
         11    1    4    4    0    0 -0.71546605435E-01  0.86895539617E-01 -0.47272532510E-01  0.12208482709E+00  0.51100000000E-03 0.  1.
</event>
<event>
 8    1  0.1108957E+005  0.1043930E+01  0.7957747E-01            NaN
         13   -1    0    0    0    0  0.00000000000E+00  0.00000000000E+00  0.74505805969E-08  0.10566000000E+00  0.10566000000E+00 0.  1.
     999900   -1    0    0    0    0 -0.00000000000E+00 -0.00000000000E+00 -0.74505805969E-08  0.93827000000E+00  0.93827000000E+00 0.  1.
     999902    2    1    2    0    0 -0.97258760943E-02 -0.19260005032E-01 -0.97047393100E-02  0.10202715464E+01  0.10199972088E+01 0.  0.
     999903    2    3    3    0    0  0.39075825583E-01  0.61085201237E-01  0.10368909097E+00  0.12802992054E+00  0.19542543589E-01 0.  0.
         14    1    1    2    0    0  0.97258760943E-02  0.19260005032E-01  0.97047393100E-02  0.23658453557E-01  0.00000000000E+00 0.  1.
     999901    1    3    3    0    0 -0.48801701678E-01 -0.80345206268E-01 -0.11339383028E+00  0.89224162591E+00  0.88000000000E+00 0.  1.
        -11    1    4    4    0    0  0.38761812989E-01  0.49454778608E-01  0.80893775169E-01  0.10243201284E+00  0.51100000000E-03 0.  1.
         11    1    4    4    0    0  0.31401259391E-03  0.11630422628E-01  0.22795315806E-01  0.25597907690E-01  0.51100000000E-03 0. -1.
</event>
<event>
 8    1  0.1108957E+005  0.1043930E+01  0.7957747E-01            NaN
         13   -1    0    0    0    0  0.00000000000E+00  0.00000000000E+00  0.74505805969E-08  0.10566000000E+00  0.10566000000E+00 0.  1.
     999900   -1    0    0    0    0 -0.00000000000E+00 -0.00000000000E+00 -0.74505805969E-08  0.93827000000E+00  0.93827000000E+00 0. -1.
     999902    2    1    2    0    0 -0.22359092161E-01  0.80326212724E-02  0.24444116599E-02  0.10200463831E+01  0.10197667364E+01 0.  0.
     999903    2    3    3    0    0  0.10769875651E+00  0.12391597012E-02  0.66310015401E-01  0.12817194663E+00  0.20747821330E-01 0.  0.
         14    1    1    2    0    0  0.22359092161E-01 -0.80326212724E-02 -0.24444116599E-02  0.23883616877E-01  0.00000000000E+00 0. -1.
     999901    1    3    3    0    0 -0.13005784867E+00  0.67934615712E-02 -0.63865603741E-01  0.89187443649E+00  0.88000000000E+00 0. -1.
        -11    1    4    4    0    0  0.79788803529E-01 -0.26461086915E-02  0.58352297466E-01  0.98886332728E-01  0.51100000000E-03 0.  1.
         11    1    4    4    0    0  0.27909952985E-01  0.38852683927E-02  0.79577179352E-02  0.29285613906E-01  0.51100000000E-03 0. -1.
</event>
<event>
 8    1  0.1108957E+005  0.1043930E+01  0.7957747E-01            NaN
         13   -1    0    0    0    0  0.00000000000E+00  0.00000000000E+00  0.74505805969E-08  0.10566000000E+00  0.10566000000E+00 0.  1.
     999900   -1    0    0    0    0 -0.00000000000E+00 -0.00000000000E+00 -0.74505805969E-08  0.93827000000E+00  0.93827000000E+00 0.  1.
     999902    2    1    2    0    0 -0.59812016455E-02  0.22547202723E-01 -0.24901735561E-02  0.10204704159E+01  0.10202007241E+01 0.  0.
     999903    2    3    3    0    0 -0.68030098083E-01  0.11075879360E+00  0.23107458809E-01  0.13351687192E+00  0.19929772454E-01 0.  0.
         14    1    1    2    0    0  0.59812016455E-02 -0.22547202723E-01  0.24901735561E-02  0.23459584142E-01  0.00000000000E+00 0.  1.
     999901    1    3    3    0    0  0.62048896438E-01 -0.88211590880E-01 -0.25597632365E-01  0.88695354393E+00  0.88000000000E+00 0. -1.
        -11    1    4    4    0    0 -0.60018233132E-01  0.10443448864E+00  0.17097470385E-01  0.12166073869E+00  0.51100000000E-03 0.  1.
         11    1    4    4    0    0 -0.80118649517E-02  0.63243049677E-02  0.60099884238E-02  0.11856133231E-01  0.51100000000E-03 0. -1.
</event>
<event>
 8    1  0.1108957E+005  0.1043930E+01  0.7957747E-01            NaN
         13   -1    0    0    0    0  0.00000000000E+00  0.00000000000E+00  0.74505805969E-08  0.10566000000E+00  0.10566000000E+00 0. -1.
     999900   -1    0    0    0    0 -0.00000000000E+00 -0.00000000000E+00 -0.74505805969E-08  0.93827000000E+00  0.93827000000E+00 0.  1.
     999902    2    1    2    0    0  0.33003289930E-02 -0.25561594929E-01  0.49231805598E-03  0.10181515267E+01  0.10178251332E+01 0.  0.
     999903    2    3    3    0    0  0.11038629669E+00  0.85914311939E-02  0.62687340297E-01  0.12882478450E+00  0.20178584666E-01 0.  0.
         14    1    1    2    0    0 -0.33003289930E-02  0.25561594929E-01 -0.49231805598E-03  0.25778473264E-01  0.00000000000E+00 0.  1.
     999901    1    3    3    0    0 -0.10708596770E+00 -0.34153026123E-01 -0.62195022241E-01  0.88932674224E+00  0.88000000000E+00 0.  1.
        -11    1    4    4    0    0  0.34384085976E-01 -0.32097747077E-02  0.27947777169E-01  0.44428677583E-01  0.51100000000E-03 0.  1.
         11    1    4    4    0    0  0.76002210718E-01  0.11801205902E-01  0.34739563128E-01  0.84396106913E-01  0.51100000000E-03 0. -1.
</event>
<event>
 7    1  0.1108957E+005  0.1043930E+01  0.7957747E-01            NaN
         13   -1    0    0    0    0  0.00000000000E+00  0.00000000000E+00  0.74505805969E-08  0.10566000000E+00  0.10566000000E+00 0.  1.
     999900   -1    0    0    0    0 -0.00000000000E+00 -0.00000000000E+00 -0.74505805969E-08  0.93827000000E+00  0.93827000000E+00 0. -1.
     999903    2    1    2    0    0 -0.25263553937E-01  0.56636259383E-01 -0.83158088725E-01  0.10570970862E+00  0.20331299539E-01 0.  0.
         14    1    1    2    0    0 -0.32985487151E-01 -0.40736638623E-01  0.26220930262E-02  0.52482296641E-01  0.00000000000E+00 0.  1.
     999901    1    1    2    0    0  0.58249041089E-01 -0.15899620760E-01  0.80535995698E-01  0.88573799474E+00  0.88000000000E+00 0.  1.
        -11    1    3    3    0    0 -0.25853642489E-01  0.48771249421E-01 -0.61431414366E-01  0.82590104686E-01  0.51100000000E-03 0.  1.
         11    1    3    3    0    0  0.59008855200E-03  0.78650099619E-02 -0.21726674358E-01  0.23119603930E-01  0.51100000000E-03 0. -1.
</event>
<event>
 8    1  0.1108957E+005  0.1043930E+01  0.7957747E-01            NaN
         13   -1    0    0    0    0  0.00000000000E+00  0.00000000000E+00  0.74505805969E-08  0.10566000000E+00  0.10566000000E+00 0.  1.
     999900   -1    0    0    0    0 -0.00000000000E+00 -0.00000000000E+00 -0.74505805969E-08  0.93827000000E+00  0.93827000000E+00 0.  1.
     999902    2    1    2    0    0  0.10876386978E-01  0.11207216181E-01 -0.18243793219E-01  0.10199147240E+01  0.10196319487E+01 0.  0.
     999903    2    3    3    0    0  0.24596740351E-01  0.12402044362E+00  0.18705929508E-01  0.13183795124E+00  0.32330535376E-01 0.  0.
         14    1    1    2    0    0 -0.10876386978E-01 -0.11207216181E-01  0.18243793219E-01  0.24015275956E-01  0.00000000000E+00 0.  1.
     999901    1    3    3    0    0 -0.13720353373E-01 -0.11281322744E+00 -0.36949722727E-01  0.88807677280E+00  0.88000000000E+00 0. -1.
        -11    1    4    4    0    0  0.31609197249E-01  0.83499549290E-01  0.10475759910E-01  0.89896155363E-01  0.51100000000E-03 0. -1.
         11    1    4    4    0    0 -0.70124568984E-02  0.40520894328E-01  0.82301695978E-02  0.41941795879E-01  0.51100000000E-03 0.  1.
</event>
<event>
 8    1  0.1108957E+005  0.1043930E+01  0.7957747E-01            NaN
         13   -1    0    0    0    0  0.00000000000E+00  0.00000000000E+00  0.74505805969E-08  0.10566000000E+00  0.10566000000E+00 0.  1.
     999900   -1    0    0    0    0 -0.00000000000E+00 -0.00000000000E+00 -0.74505805969E-08  0.93827000000E+00  0.93827000000E+00 0.  1.
     999902    2    1    2    0    0  0.78913865747E-03  0.17629079913E-01 -0.15687790762E-01  0.10203182661E+01  0.10200450236E+01 0.  0.
     999903    2    3    3    0    0 -0.34179981864E-02  0.52114357213E-01 -0.12111556895E+00  0.13334478806E+00  0.19602615178E-01 0.  0.
         14    1    1    2    0    0 -0.78913865747E-03 -0.17629079913E-01  0.15687790762E-01  0.23611733892E-01  0.00000000000E+00 0.  1.
     999901    1    3    3    0    0  0.42071368439E-02 -0.34485277300E-01  0.10542777818E+00  0.88697347805E+00  0.88000000000E+00 0.  1.
        -11    1    4    4    0    0 -0.14322197779E-02  0.16751499452E-01 -0.63684802415E-01  0.65868650867E-01  0.51100000000E-03 0.  1.
         11    1    4    4    0    0 -0.19857784085E-02  0.35362857761E-01 -0.57430766531E-01  0.67476137191E-01  0.51100000000E-03 0. -1.
</event>
<event>
 8    1  0.1108957E+005  0.1043930E+01  0.7957747E-01            NaN
         13   -1    0    0    0    0  0.00000000000E+00  0.00000000000E+00  0.74505805969E-08  0.10566000000E+00  0.10566000000E+00 0. -1.
     999900   -1    0    0    0    0 -0.00000000000E+00 -0.00000000000E+00 -0.74505805969E-08  0.93827000000E+00  0.93827000000E+00 0.  1.
     999902    2    1    2    0    0  0.85905128867E-02 -0.21258753836E-01  0.91495564151E-02  0.10192430417E+01  0.10189440280E+01 0.  0.
     999903    2    3    3    0    0  0.64148327992E-01  0.10528801501E+00 -0.26722451652E-01  0.12773445708E+00  0.20035668558E-01 0.  0.
         14    1    1    2    0    0 -0.85905128867E-02  0.21258753836E-01 -0.91495564151E-02  0.24686958276E-01  0.00000000000E+00 0. -1.
     999901    1    3    3    0    0 -0.55557815105E-01 -0.12654676885E+00  0.35872008067E-01  0.89150858464E+00  0.88000000000E+00 0.  1.
        -11    1    4    4    0    0  0.43144590650E-01  0.62260224787E-01 -0.74397991852E-02  0.76114407478E-01  0.51100000000E-03 0.  1.
         11    1    4    4    0    0  0.21003737342E-01  0.43027790226E-01 -0.19282652467E-01  0.51620049605E-01  0.51100000000E-03 0. -1.
</event>
<event>
 8    1  0.1108957E+005  0.1043930E+01  0.7957747E-01            NaN
         13   -1    0    0    0    0  0.00000000000E+00  0.00000000000E+00  0.74505805969E-08  0.10566000000E+00  0.10566000000E+00 0.  1.
     999900   -1    0    0    0    0 -0.00000000000E+00 -0.00000000000E+00 -0.74505805969E-08  0.93827000000E+00  0.93827000000E+00 0. -1.
     999902    2    1    2    0    0  0.16615471897E-02 -0.15283481792E-01  0.17728781549E-01  0.10204639554E+01  0.10201941134E+01 0.  0.
     999903    2    3    3    0    0 -0.61896535852E-01  0.44032879352E-01 -0.10130474824E+00  0.12820444054E+00  0.20091066235E-01 0.  0.
         14    1    1    2    0    0 -0.16615471897E-02  0.15283481792E-01 -0.17728781549E-01  0.23466044617E-01  0.00000000000E+00 0. -1.
     999901    1    3    3    0    0  0.63558083041E-01 -0.59316361144E-01  0.11903352979E+00  0.89225951485E+00  0.88000000000E+00 0.  1.
        -11    1    4    4    0    0 -0.11880552752E-01  0.19084936585E-01 -0.33215891992E-01  0.40111581121E-01  0.51100000000E-03 0.  1.
         11    1    4    4    0    0 -0.50015983099E-01  0.24947942767E-01 -0.68088856250E-01  0.88092859416E-01  0.51100000000E-03 0. -1.
</event>
<event>
 8    1  0.1108957E+005  0.1043930E+01  0.7957747E-01            NaN
         13   -1    0    0    0    0  0.00000000000E+00  0.00000000000E+00  0.74505805969E-08  0.10566000000E+00  0.10566000000E+00 0.  1.
     999900   -1    0    0    0    0 -0.00000000000E+00 -0.00000000000E+00 -0.74505805969E-08  0.93827000000E+00  0.93827000000E+00 0.  1.
     999902    2    1    2    0    0 -0.22912825580E-01 -0.14431854714E-01  0.89091962762E-03  0.10168362785E+01  0.10164752567E+01 0.  0.
     999903    2    3    3    0    0 -0.74075219502E-01 -0.10274347056E+00 -0.25253301467E-01  0.13055187024E+00  0.19044755210E-01 0.  0.
         14    1    1    2    0    0  0.22912825580E-01  0.14431854714E-01 -0.89091962762E-03  0.27093721493E-01  0.00000000000E+00 0.  1.
     999901    1    3    3    0    0  0.51162393922E-01  0.88311615844E-01  0.26144221095E-01  0.88628440827E+00  0.88000000000E+00 0.  1.
        -11    1    4    4    0    0 -0.54226683912E-01 -0.62591246232E-01 -0.21736500574E-01  0.85620873221E-01  0.51100000000E-03 0. -1.
         11    1    4    4    0    0 -0.19848535590E-01 -0.40152224326E-01 -0.35168008938E-02  0.44930997017E-01  0.51100000000E-03 0.  1.
</event>
<event>
 8    1  0.1108957E+005  0.1043930E+01  0.7957747E-01            NaN
         13   -1    0    0    0    0  0.00000000000E+00  0.00000000000E+00  0.74505805969E-08  0.10566000000E+00  0.10566000000E+00 0.  1.
     999900   -1    0    0    0    0 -0.00000000000E+00 -0.00000000000E+00 -0.74505805969E-08  0.93827000000E+00  0.93827000000E+00 0.  1.
     999902    2    1    2    0    0 -0.12089791903E-01 -0.20828012152E-01  0.92866111621E-02  0.10181189499E+01  0.10177917203E+01 0.  0.
     999903    2    3    3    0    0  0.16047295152E-01 -0.88224014489E-01 -0.91094210492E-01  0.12940627075E+00  0.20170158879E-01 0.  0.
         14    1    1    2    0    0  0.12089791903E-01  0.20828012152E-01 -0.92866111621E-02  0.25811050063E-01  0.00000000000E+00 0. -1.
     999901    1    3    3    0    0 -0.28137087055E-01  0.67396002337E-01  0.10038082165E+00  0.88871267919E+00  0.88000000000E+00 0. -1.
        -11    1    4    4    0    0  0.32703919545E-02 -0.55771823622E-02 -0.14985315312E-01  0.16328540126E-01  0.51100000000E-03 0.  1.
         11    1    4    4    0    0  0.12776903197E-01 -0.82646832127E-01 -0.76108895179E-01  0.11307773062E+00  0.51100000000E-03 0. -1.
</event>
<event>
 8    1  0.1108957E+005  0.1043930E+01  0.7957747E-01            NaN
         13   -1    0    0    0    0  0.00000000000E+00  0.00000000000E+00  0.74505805969E-08  0.10566000000E+00  0.10566000000E+00 0. -1.
     999900   -1    0    0    0    0 -0.00000000000E+00 -0.00000000000E+00 -0.74505805969E-08  0.93827000000E+00  0.93827000000E+00 0.  1.
     999902    2    1    2    0    0 -0.82476411762E-02  0.13833194217E-01 -0.17052325379E-01  0.10204744538E+01  0.10202048560E+01 0.  0.
     999903    2    3    3    0    0  0.10414084624E+00  0.74555260877E-01 -0.21128374695E-01  0.13124166331E+00  0.19343298364E-01 0.  0.
         14    1    1    2    0    0  0.82476411762E-02 -0.13833194217E-01  0.17052325379E-01  0.23455546211E-01  0.00000000000E+00 0. -1.
     999901    1    3    3    0    0 -0.11238848742E+00 -0.60722066660E-01  0.40760493163E-02  0.88923279048E+00  0.88000000000E+00 0.  1.
        -11    1    4    4    0    0  0.56267539386E-01  0.32305732799E-01 -0.33973382961E-02  0.64973066641E-01  0.51100000000E-03 0.  1.
         11    1    4    4    0    0  0.47873306853E-01  0.42249528078E-01 -0.17731036399E-01  0.66268596671E-01  0.51100000000E-03 0. -1.
</event>
<event>
 8    1  0.1108957E+005  0.1043930E+01  0.7957747E-01            NaN
         13   -1    0    0    0    0  0.00000000000E+00  0.00000000000E+00  0.74505805969E-08  0.10566000000E+00  0.10566000000E+00 0.  1.
     999900   -1    0    0    0    0 -0.00000000000E+00 -0.00000000000E+00 -0.74505805969E-08  0.93827000000E+00  0.93827000000E+00 0.  1.
     999902    2    1    2    0    0  0.19963786974E-01 -0.11212435098E-01  0.52954153766E-03  0.10210269018E+01  0.10207699948E+01 0.  0.
     999903    2    3    3    0    0  0.11767580153E+00  0.10385389743E-02  0.60356689351E-01  0.13351520514E+00  0.18295005473E-01 0.  0.
         14    1    1    2    0    0 -0.19963786974E-01  0.11212435098E-01 -0.52954153766E-03  0.22903098162E-01  0.00000000000E+00 0. -1.
     999901    1    3    3    0    0 -0.97712014559E-01 -0.12250974072E-01 -0.59827147814E-01  0.88751169670E+00  0.88000000000E+00 0.  1.
        -11    1    4    4    0    0  0.41008758104E-01 -0.27913539907E-02  0.30339712412E-01  0.51090793384E-01  0.51100000000E-03 0. -1.
         11    1    4    4    0    0  0.76667043429E-01  0.38298929650E-02  0.30016976939E-01  0.82424411759E-01  0.51100000000E-03 0.  1.
</event>
<event>
 8    1  0.1108957E+005  0.1043930E+01  0.7957747E-01            NaN
         13   -1    0    0    0    0  0.00000000000E+00  0.00000000000E+00  0.74505805969E-08  0.10566000000E+00  0.10566000000E+00 0.  1.
     999900   -1    0    0    0    0 -0.00000000000E+00 -0.00000000000E+00 -0.74505805969E-08  0.93827000000E+00  0.93827000000E+00 0. -1.
     999902    2    1    2    0    0 -0.75910273242E-03 -0.16690560062E-01  0.18584606569E-01  0.10189392290E+01  0.10186327178E+01 0.  0.
     999903    2    3    3    0    0  0.78284003022E-01 -0.34015769516E-01  0.98232132517E-01  0.13164463092E+00  0.19882134863E-01 0.  0.
         14    1    1    2    0    0  0.75910273242E-03  0.16690560062E-01 -0.18584606569E-01  0.24990770966E-01  0.00000000000E+00 0. -1.
     999901    1    3    3    0    0 -0.79043105754E-01  0.17325209454E-01 -0.79647525948E-01  0.88729459811E+00  0.88000000000E+00 0. -1.
        -11    1    4    4    0    0  0.35431854872E-01 -0.73556994186E-02  0.50877015508E-01  0.62436003088E-01  0.51100000000E-03 0. -1.
         11    1    4    4    0    0  0.42852148150E-01 -0.26660070097E-01  0.47355117010E-01  0.69208627834E-01  0.51100000000E-03 0.  1.
</event>
<event>
 8    1  0.1108957E+005  0.1043930E+01  0.7957747E-01            NaN
         13   -1    0    0    0    0  0.00000000000E+00  0.00000000000E+00  0.74505805969E-08  0.10566000000E+00  0.10566000000E+00 0.  1.
     999900   -1    0    0    0    0 -0.00000000000E+00 -0.00000000000E+00 -0.74505805969E-08  0.93827000000E+00  0.93827000000E+00 0.  1.
     999902    2    1    2    0    0  0.18437571127E-01 -0.14321935367E-01 -0.46078298154E-02  0.10201330683E+01  0.10198554717E+01 0.  0.
     999903    2    3    3    0    0  0.84757481195E-01  0.34650898666E-02  0.98497017400E-01  0.13145690781E+00  0.19581080373E-01 0.  0.
         14    1    1    2    0    0 -0.18437571127E-01  0.14321935367E-01  0.46078298154E-02  0.23796931679E-01  0.00000000000E+00 0.  1.
     999901    1    3    3    0    0 -0.66319910067E-01 -0.17787025234E-01 -0.10310484722E+00  0.88867616051E+00  0.88000000000E+00 0.  1.
        -11    1    4    4    0    0  0.54945914663E-01 -0.68697109654E-02  0.59295521920E-01  0.81132401096E-01  0.51100000000E-03 0. -1.
         11    1    4    4    0    0  0.29811566532E-01  0.10334800832E-01  0.39201495480E-01  0.50324506716E-01  0.51100000000E-03 0.  1.
</event>
<event>
 8    1  0.1108957E+005  0.1043930E+01  0.7957747E-01            NaN
         13   -1    0    0    0    0  0.00000000000E+00  0.00000000000E+00  0.74505805969E-08  0.10566000000E+00  0.10566000000E+00 0. -1.
     999900   -1    0    0    0    0 -0.00000000000E+00 -0.00000000000E+00 -0.74505805969E-08  0.93827000000E+00  0.93827000000E+00 0.  1.
     999902    2    1    2    0    0 -0.19624364216E-02  0.27151343551E-01 -0.20681710751E-01  0.10097425787E+01  0.10091636614E+01 0.  0.
     999903    2    3    3    0    0  0.10678839192E+00 -0.48048740942E-01 -0.15637086293E-01  0.11985087543E+00  0.20180974169E-01 0.  0.
         14    1    1    2    0    0  0.19624364216E-02 -0.27151343551E-01  0.20681710751E-01  0.34187421268E-01  0.00000000000E+00 0. -1.
     999901    1    3    3    0    0 -0.10875082834E+00  0.75200084493E-01 -0.50446244583E-02  0.88989170330E+00  0.88000000000E+00 0.  1.
        -11    1    4    4    0    0  0.53199806211E-01 -0.18309572917E-01 -0.16228588303E-01  0.58558415626E-01  0.51100000000E-03 0. -1.
         11    1    4    4    0    0  0.53588585708E-01 -0.29739168025E-01  0.59150200982E-03  0.61292459803E-01  0.51100000000E-03 0.  1.
</event>
<event>
 8    1  0.1108957E+005  0.1043930E+01  0.7957747E-01            NaN
         13   -1    0    0    0    0  0.00000000000E+00  0.00000000000E+00  0.74505805969E-08  0.10566000000E+00  0.10566000000E+00 0.  1.
     999900   -1    0    0    0    0 -0.00000000000E+00 -0.00000000000E+00 -0.74505805969E-08  0.93827000000E+00  0.93827000000E+00 0. -1.
     999902    2    1    2    0    0  0.55810924490E-02  0.15650805358E-01 -0.13038494343E-01  0.10228089528E+01  0.10225908543E+01 0.  0.
     999903    2    3    3    0    0  0.10944530994E-01  0.12286211600E+00  0.48627149260E-01  0.13414383969E+00  0.20373703043E-01 0.  0.
         14    1    1    2    0    0 -0.55810924490E-02 -0.15650805358E-01  0.13038494343E-01  0.21121047228E-01  0.00000000000E+00 0. -1.
     999901    1    3    3    0    0 -0.53634385452E-02 -0.10721131064E+00 -0.61665643603E-01  0.88866511308E+00  0.88000000000E+00 0. -1.
        -11    1    4    4    0    0  0.22353903477E-02  0.19692410642E-01  0.16652438777E-03  0.19826166001E-01  0.51100000000E-03 0.  1.
         11    1    4    4    0    0  0.87091406465E-02  0.10316970536E+00  0.48460624872E-01  0.11431767369E+00  0.51100000000E-03 0. -1.
</event>
<event>
 8    1  0.1108957E+005  0.1043930E+01  0.7957747E-01            NaN
         13   -1    0    0    0    0  0.00000000000E+00  0.00000000000E+00  0.74505805969E-08  0.10566000000E+00  0.10566000000E+00 0.  1.
     999900   -1    0    0    0    0 -0.00000000000E+00 -0.00000000000E+00 -0.74505805969E-08  0.93827000000E+00  0.93827000000E+00 0. -1.
     999902    2    1    2    0    0  0.43744655793E-02 -0.52463528580E-02  0.22201669112E-01  0.10207012618E+01  0.10204369121E+01 0.  0.
     999903    2    3    3    0    0 -0.12410895527E+00 -0.25386933195E-01 -0.21921873714E-01  0.13004952321E+00  0.19615829952E-01 0.  0.
         14    1    1    2    0    0 -0.43744655793E-02  0.52463528580E-02 -0.22201669112E-01  0.23228738208E-01  0.00000000000E+00 0. -1.
     999901    1    3    3    0    0  0.12848342085E+00  0.20140580337E-01  0.44123542826E-01  0.89065173858E+00  0.88000000000E+00 0.  1.
        -11    1    4    4    0    0 -0.77687478159E-01 -0.25214037427E-01 -0.16257776302E-01  0.83280660164E-01  0.51100000000E-03 0. -1.
         11    1    4    4    0    0 -0.46421477110E-01 -0.17289576863E-03 -0.56640974120E-02  0.46768863045E-01  0.51100000000E-03 0.  1.
</event>
<event>
 8    1  0.1108957E+005  0.1043930E+01  0.7957747E-01            NaN
         13   -1    0    0    0    0  0.00000000000E+00  0.00000000000E+00  0.74505805969E-08  0.10566000000E+00  0.10566000000E+00 0. -1.
     999900   -1    0    0    0    0 -0.00000000000E+00 -0.00000000000E+00 -0.74505805969E-08  0.93827000000E+00  0.93827000000E+00 0.  1.
     999902    2    1    2    0    0  0.19765631321E-01 -0.88518229569E-02 -0.42746280063E-02  0.10218549599E+01  0.10216164895E+01 0.  0.
     999903    2    3    3    0    0  0.33586817979E-01 -0.58761241755E-01  0.11239291753E+00  0.13264559677E+00  0.19537874924E-01 0.  0.
         14    1    1    2    0    0 -0.19765631321E-01  0.88518229569E-02  0.42746280063E-02  0.22075040108E-01  0.00000000000E+00 0. -1.
     999901    1    3    3    0    0 -0.13821186658E-01  0.49909418798E-01 -0.11666754554E+00  0.88920936312E+00  0.88000000000E+00 0.  1.
        -11    1    4    4    0    0  0.20119916685E-01 -0.34730325413E-01  0.83913328792E-01  0.93019967860E-01  0.51100000000E-03 0.  1.
         11    1    4    4    0    0  0.13466901294E-01 -0.24030916342E-01  0.28479588739E-01  0.39625628909E-01  0.51100000000E-03 0. -1.
</event>
<event>
 8    1  0.1108957E+005  0.1043930E+01  0.7957747E-01            NaN
         13   -1    0    0    0    0  0.00000000000E+00  0.00000000000E+00  0.74505805969E-08  0.10566000000E+00  0.10566000000E+00 0.  1.
     999900   -1    0    0    0    0 -0.00000000000E+00 -0.00000000000E+00 -0.74505805969E-08  0.93827000000E+00  0.93827000000E+00 0. -1.
     999902    2    1    2    0    0  0.17746630769E-01  0.12290990950E-01  0.12666927233E-01  0.10189007689E+01  0.10185933018E+01 0.  0.
     999903    2    3    3    0    0  0.87578581509E-01 -0.92963447842E-01  0.10691749988E-01  0.12987945336E+00  0.21027322991E-01 0.  0.
         14    1    1    2    0    0 -0.17746630769E-01 -0.12290990950E-01 -0.12666927233E-01  0.25029231065E-01  0.00000000000E+00 0.  1.
     999901    1    3    3    0    0 -0.69831950740E-01  0.10525443879E+00  0.19751772448E-02  0.88902131558E+00  0.88000000000E+00 0. -1.
        -11    1    4    4    0    0  0.24039009586E-01 -0.35039967113E-01  0.11005563134E-01  0.43898255296E-01  0.51100000000E-03 0.  1.
         11    1    4    4    0    0  0.63539571923E-01 -0.57923480729E-01 -0.31381314577E-03  0.85981198059E-01  0.51100000000E-03 0. -1.
</event>
<event>
 8    1  0.1108957E+005  0.1043930E+01  0.7957747E-01            NaN
         13   -1    0    0    0    0  0.00000000000E+00  0.00000000000E+00  0.74505805969E-08  0.10566000000E+00  0.10566000000E+00 0. -1.
     999900   -1    0    0    0    0 -0.00000000000E+00 -0.00000000000E+00 -0.74505805969E-08  0.93827000000E+00  0.93827000000E+00 0. -1.
     999902    2    1    2    0    0 -0.17426542341E-01  0.11900642270E-01 -0.10769056856E-01  0.10202386039E+01  0.10199634928E+01 0.  0.
     999903    2    3    3    0    0 -0.85236316513E-01 -0.44004740945E-01  0.86160849579E-01  0.13056507718E+00  0.20540216692E-01 0.  0.
         14    1    1    2    0    0  0.17426542341E-01 -0.11900642270E-01  0.10769056856E-01  0.23691396117E-01  0.00000000000E+00 0. -1.
     999901    1    3    3    0    0  0.67809774172E-01  0.55905383215E-01 -0.96929906434E-01  0.88967352670E+00  0.88000000000E+00 0.  1.
        -11    1    4    4    0    0 -0.71753970096E-01 -0.30772414538E-01  0.60904041732E-01  0.99020892449E-01  0.51100000000E-03 0. -1.
         11    1    4    4    0    0 -0.13482346417E-01 -0.13232326407E-01  0.25256807847E-01  0.31544184736E-01  0.51100000000E-03 0.  1.
</event>
<event>
 8    1  0.1108957E+005  0.1043930E+01  0.7957747E-01            NaN
         13   -1    0    0    0    0  0.00000000000E+00  0.00000000000E+00  0.74505805969E-08  0.10566000000E+00  0.10566000000E+00 0. -1.
     999900   -1    0    0    0    0 -0.00000000000E+00 -0.00000000000E+00 -0.74505805969E-08  0.93827000000E+00  0.93827000000E+00 0.  1.
     999902    2    1    2    0    0 -0.82295093430E-02 -0.10215323909E-02  0.22358155978E-01  0.10200835015E+01  0.10198047335E+01 0.  0.
     999903    2    3    3    0    0 -0.52692155318E-01 -0.91273244531E-01  0.77561609298E-01  0.13263225230E+00  0.21638916657E-01 0.  0.
         14    1    1    2    0    0  0.82295093430E-02  0.10215323909E-02 -0.22358155978E-01  0.23846498510E-01  0.00000000000E+00 0.  1.
     999901    1    3    3    0    0  0.44462645975E-01  0.90251712140E-01 -0.55203453321E-01  0.88745124919E+00  0.88000000000E+00 0.  1.
        -11    1    4    4    0    0 -0.29589943182E-01 -0.70684797316E-01  0.54417616851E-01  0.93986400366E-01  0.51100000000E-03 0.  1.
         11    1    4    4    0    0 -0.23102212135E-01 -0.20588447215E-01  0.23143992447E-01  0.38645851933E-01  0.51100000000E-03 0. -1.
</event>
<event>
 8    1  0.1108957E+005  0.1043930E+01  0.7957747E-01            NaN
         13   -1    0    0    0    0  0.00000000000E+00  0.00000000000E+00  0.74505805969E-08  0.10566000000E+00  0.10566000000E+00 0. -1.
     999900   -1    0    0    0    0 -0.00000000000E+00 -0.00000000000E+00 -0.74505805969E-08  0.93827000000E+00  0.93827000000E+00 0.  1.
     999902    2    1    2    0    0 -0.40572560869E-02  0.10224722089E-01 -0.22825747744E-01  0.10185918661E+01  0.10182766661E+01 0.  0.
     999903    2    3    3    0    0 -0.35535225083E-01  0.86020180386E-01 -0.91561760508E-01  0.13210415978E+00  0.20142725446E-01 0.  0.
         14    1    1    2    0    0  0.40572560869E-02 -0.10224722089E-01  0.22825747744E-01  0.25338133886E-01  0.00000000000E+00 0. -1.
     999901    1    3    3    0    0  0.31477968996E-01 -0.75795458297E-01  0.68736012764E-01  0.88648770633E+00  0.88000000000E+00 0. -1.
        -11    1    4    4    0    0 -0.55737972890E-02  0.39239411446E-01 -0.36392258055E-01  0.53809443356E-01  0.51100000000E-03 0.  1.
         11    1    4    4    0    0 -0.29961427794E-01  0.46780768940E-01 -0.55169502453E-01  0.78294716424E-01  0.51100000000E-03 0. -1.
</event>
<event>
 7    1  0.1108957E+005  0.1043930E+01  0.7957747E-01            NaN
         13   -1    0    0    0    0  0.00000000000E+00  0.00000000000E+00  0.74505805969E-08  0.10566000000E+00  0.10566000000E+00 0. -1.
     999900   -1    0    0    0    0 -0.00000000000E+00 -0.00000000000E+00 -0.74505805969E-08  0.93827000000E+00  0.93827000000E+00 0.  1.
     999903    2    1    2    0    0  0.65895063010E-01 -0.49952238178E-01 -0.57660211436E-01  0.10264237416E+00  0.19322824886E-01 0.  0.
         14    1    1    2    0    0 -0.94560840580E-02  0.38085183257E-02 -0.50640546575E-01  0.51656435174E-01  0.00000000000E+00 0.  1.
     999901    1    1    2    0    0 -0.56438978952E-01  0.46143719852E-01  0.10830075801E+00  0.88963119067E+00  0.88000000000E+00 0. -1.
        -11    1    3    3    0    0  0.59739332134E-01 -0.36721987838E-01 -0.50233533700E-01  0.86261006391E-01  0.51100000000E-03 0. -1.
         11    1    3    3    0    0  0.61557308754E-02 -0.13230250340E-01 -0.74266777360E-02  0.16381367765E-01  0.51100000000E-03 0.  1.
</event>
<event>
 8    1  0.1108957E+005  0.1043930E+01  0.7957747E-01            NaN
         13   -1    0    0    0    0  0.00000000000E+00  0.00000000000E+00  0.74505805969E-08  0.10566000000E+00  0.10566000000E+00 0.  1.
     999900   -1    0    0    0    0 -0.00000000000E+00 -0.00000000000E+00 -0.74505805969E-08  0.93827000000E+00  0.93827000000E+00 0.  1.
     999902    2    1    2    0    0 -0.89969126789E-02 -0.90007154700E-02 -0.19641780271E-01  0.10205257942E+01  0.10202573890E+01 0.  0.
     999903    2    3    3    0    0  0.11842751932E+00  0.21211928402E-01  0.40931132525E-01  0.12877534285E+00  0.20801636421E-01 0.  0.
         14    1    1    2    0    0  0.89969126789E-02  0.90007154700E-02  0.19641780271E-01  0.23404205796E-01  0.00000000000E+00 0.  1.
     999901    1    3    3    0    0 -0.12742443200E+00 -0.30212643872E-01 -0.60572912796E-01  0.89175045135E+00  0.88000000000E+00 0.  1.
        -11    1    4    4    0    0  0.57673756457E-01  0.20877205767E-01  0.20943871145E-01  0.64815328157E-01  0.51100000000E-03 0. -1.
         11    1    4    4    0    0  0.60753762865E-01  0.33472263520E-03  0.19987261380E-01  0.63960014696E-01  0.51100000000E-03 0.  1.
</event>
<event>
 8    1  0.1108957E+005  0.1043930E+01  0.7957747E-01            NaN
         13   -1    0    0    0    0  0.00000000000E+00  0.00000000000E+00  0.74505805969E-08  0.10566000000E+00  0.10566000000E+00 0.  1.
     999900   -1    0    0    0    0 -0.00000000000E+00 -0.00000000000E+00 -0.74505805969E-08  0.93827000000E+00  0.93827000000E+00 0.  1.
     999902    2    1    2    0    0  0.19849880052E-01 -0.81897214952E-02 -0.29416483038E-03  0.10224549957E+01  0.10222294471E+01 0.  0.
     999903    2    3    3    0    0 -0.12140197306E+00 -0.18391559545E-01 -0.38996723507E-01  0.13029242557E+00  0.19459783955E-01 0.  0.
         14    1    1    2    0    0 -0.19849880052E-01  0.81897214952E-02  0.29416483038E-03  0.21475004288E-01  0.00000000000E+00 0.  1.
     999901    1    3    3    0    0  0.14125185311E+00  0.10201838050E-01  0.38702558676E-01  0.89216257014E+00  0.88000000000E+00 0.  1.
        -11    1    4    4    0    0 -0.68626470327E-01 -0.77957133673E-03 -0.23332899511E-01  0.72490588917E-01  0.51100000000E-03 0.  1.
         11    1    4    4    0    0 -0.52775502736E-01 -0.17611988208E-01 -0.15663823996E-01  0.57801836656E-01  0.51100000000E-03 0. -1.
</event>
<event>
 8    1  0.1108957E+005  0.1043930E+01  0.7957747E-01            NaN
         13   -1    0    0    0    0  0.00000000000E+00  0.00000000000E+00  0.74505805969E-08  0.10566000000E+00  0.10566000000E+00 0.  1.
     999900   -1    0    0    0    0 -0.00000000000E+00 -0.00000000000E+00 -0.74505805969E-08  0.93827000000E+00  0.93827000000E+00 0.  1.
     999902    2    1    2    0    0 -0.32960602639E-02 -0.22833358767E-01  0.57285471999E-02  0.10201593766E+01  0.10198824006E+01 0.  0.
     999903    2    3    3    0    0 -0.26576514165E-01  0.33588396525E-01 -0.12015024727E+00  0.12910894875E+00  0.19963647994E-01 0.  0.
         14    1    1    2    0    0  0.32960602639E-02  0.22833358767E-01 -0.57285471999E-02  0.23770623443E-01  0.00000000000E+00 0. -1.
     999901    1    3    3    0    0  0.23280453901E-01 -0.56421755292E-01  0.12587879447E+00  0.89105042781E+00  0.88000000000E+00 0. -1.
        -11    1    4    4    0    0 -0.41008883444E-02  0.88928949576E-02 -0.55322498853E-01  0.56184881118E-01  0.51100000000E-03 0.  1.
         11    1    4    4    0    0 -0.22475625820E-01  0.24695501567E-01 -0.64827748417E-01  0.72924067628E-01  0.51100000000E-03 0. -1.
</event>
<event>
 8    1  0.1108957E+005  0.1043930E+01  0.7957747E-01            NaN
         13   -1    0    0    0    0  0.00000000000E+00  0.00000000000E+00  0.74505805969E-08  0.10566000000E+00  0.10566000000E+00 0. -1.
     999900   -1    0    0    0    0 -0.00000000000E+00 -0.00000000000E+00 -0.74505805969E-08  0.93827000000E+00  0.93827000000E+00 0. -1.
     999902    2    1    2    0    0 -0.84118698094E-02  0.19167063579E-01  0.20920449116E-02  0.10228940182E+01  0.10226776911E+01 0.  0.
     999903    2    3    3    0    0  0.58977888837E-01  0.66212241238E-01  0.98236044638E-01  0.13385054510E+00  0.20079733470E-01 0.  0.
         14    1    1    2    0    0  0.84118698094E-02 -0.19167063579E-01 -0.20920449116E-02  0.21035981837E-01  0.00000000000E+00 0. -1.
     999901    1    3    3    0    0 -0.67389758647E-01 -0.47045177659E-01 -0.96143999726E-01  0.88904347306E+00  0.88000000000E+00 0. -1.
        -11    1    4    4    0    0  0.31885024895E-01  0.44559075424E-01  0.71359967752E-01  0.89970395875E-01  0.51100000000E-03 0. -1.
         11    1    4    4    0    0  0.27092863942E-01  0.21653165814E-01  0.26876076885E-01  0.43880149226E-01  0.51100000000E-03 0.  1.
</event>
<event>
 8    1  0.1108957E+005  0.1043930E+01  0.7957747E-01            NaN
         13   -1    0    0    0    0  0.00000000000E+00  0.00000000000E+00  0.74505805969E-08  0.10566000000E+00  0.10566000000E+00 0. -1.
     999900   -1    0    0    0    0 -0.00000000000E+00 -0.00000000000E+00 -0.74505805969E-08  0.93827000000E+00  0.93827000000E+00 0. -1.
     999902    2    1    2    0    0  0.83254050367E-02 -0.17413331322E-01 -0.14501806680E-01  0.10197879439E+01  0.10195021391E+01 0.  0.
     999903    2    3    3    0    0  0.20584436560E-01  0.12065419203E+00  0.29998919969E-01  0.12782760870E+00  0.21419833397E-01 0.  0.
         14    1    1    2    0    0 -0.83254050367E-02  0.17413331322E-01  0.14501806680E-01  0.24142056121E-01  0.00000000000E+00 0.  1.
     999901    1    3    3    0    0 -0.12259031523E-01 -0.13806752336E+00 -0.44500726649E-01  0.89196033518E+00  0.88000000000E+00 0.  1.
        -11    1    4    4    0    0  0.13487372331E-01  0.52811920478E-01  0.34150145049E-02  0.54616221053E-01  0.51100000000E-03 0.  1.
         11    1    4    4    0    0  0.70970642291E-02  0.67842271557E-01  0.26583905464E-01  0.73211387648E-01  0.51100000000E-03 0. -1.
</event>
<event>
 8    1  0.1108957E+005  0.1043930E+01  0.7957747E-01            NaN
         13   -1    0    0    0    0  0.00000000000E+00  0.00000000000E+00  0.74505805969E-08  0.10566000000E+00  0.10566000000E+00 0.  1.
     999900   -1    0    0    0    0 -0.00000000000E+00 -0.00000000000E+00 -0.74505805969E-08  0.93827000000E+00  0.93827000000E+00 0. -1.
     999902    2    1    2    0    0 -0.69318586355E-02  0.14510542692E-02  0.21938502613E-01  0.10208767113E+01  0.10206163851E+01 0.  0.
     999903    2    3    3    0    0 -0.35784075502E-01 -0.72318486371E-02  0.12733599802E+00  0.13407545101E+00  0.20711602489E-01 0.  0.
         14    1    1    2    0    0  0.69318586355E-02 -0.14510542692E-02 -0.21938502613E-01  0.23053288692E-01  0.00000000000E+00 0. -1.
     999901    1    3    3    0    0  0.28852216866E-01  0.86829029063E-02 -0.10539749541E+00  0.88680126029E+00  0.88000000000E+00 0. -1.
        -11    1    4    4    0    0 -0.18234003325E-01 -0.93945846844E-02  0.95260012632E-01  0.97444693166E-01  0.51100000000E-03 0.  1.
         11    1    4    4    0    0 -0.17550072177E-01  0.21627360473E-02  0.32075985391E-01  0.36630757847E-01  0.51100000000E-03 0. -1.
</event>
<event>
 8    1  0.1108957E+005  0.1043930E+01  0.7957747E-01            NaN
         13   -1    0    0    0    0  0.00000000000E+00  0.00000000000E+00  0.74505805969E-08  0.10566000000E+00  0.10566000000E+00 0. -1.
     999900   -1    0    0    0    0 -0.00000000000E+00 -0.00000000000E+00 -0.74505805969E-08  0.93827000000E+00  0.93827000000E+00 0.  1.
     999902    2    1    2    0    0 -0.15292915409E-01 -0.17394880505E-01  0.18501911182E-02  0.10206947178E+01  0.10204302175E+01 0.  0.
     999903    2    3    3    0    0 -0.16859685844E-01  0.86629580712E-01 -0.92682806614E-01  0.12953814857E+00  0.20027382083E-01 0.  0.
         14    1    1    2    0    0  0.15292915409E-01  0.17394880505E-01 -0.18501911182E-02  0.23235282151E-01  0.00000000000E+00 0.  1.
     999901    1    3    3    0    0  0.15667704349E-02 -0.10402446122E+00  0.94532997732E-01  0.89115656927E+00  0.88000000000E+00 0. -1.
        -11    1    4    4    0    0  0.30924256916E-02  0.31672372775E-01 -0.28590535690E-01  0.42782965604E-01  0.51100000000E-03 0. -1.
         11    1    4    4    0    0 -0.19952111535E-01  0.54957207936E-01 -0.64092270924E-01  0.86755182970E-01  0.51100000000E-03 0.  1.
</event>
<event>
 8    1  0.1108957E+005  0.1043930E+01  0.7957747E-01            NaN
         13   -1    0    0    0    0  0.00000000000E+00  0.00000000000E+00  0.74505805969E-08  0.10566000000E+00  0.10566000000E+00 0.  1.
     999900   -1    0    0    0    0 -0.00000000000E+00 -0.00000000000E+00 -0.74505805969E-08  0.93827000000E+00  0.93827000000E+00 0. -1.
     999902    2    1    2    0    0 -0.11951137491E-01 -0.13323571694E-01  0.15891306410E-01  0.10199950701E+01  0.10197142061E+01 0.  0.
     999903    2    3    3    0    0  0.68383319486E-01 -0.10470456667E+00 -0.32140604776E-01  0.13032593176E+00  0.17677820780E-01 0.  0.
         14    1    1    2    0    0  0.11951137491E-01  0.13323571694E-01 -0.15891306410E-01  0.23934929902E-01  0.00000000000E+00 0.  1.
     999901    1    3    3    0    0 -0.80334456977E-01  0.91380994978E-01  0.48031911187E-01  0.88966913834E+00  0.88000000000E+00 0. -1.
        -11    1    4    4    0    0  0.39001289052E-01 -0.45170069231E-01 -0.11306025169E-01  0.60741444073E-01  0.51100000000E-03 0.  1.
         11    1    4    4    0    0  0.29382030434E-01 -0.59534497441E-01 -0.20834579607E-01  0.69584487685E-01  0.51100000000E-03 0. -1.
</event>
<event>
 8    1  0.1108957E+005  0.1043930E+01  0.7957747E-01            NaN
         13   -1    0    0    0    0  0.00000000000E+00  0.00000000000E+00  0.74505805969E-08  0.10566000000E+00  0.10566000000E+00 0.  1.
     999900   -1    0    0    0    0 -0.00000000000E+00 -0.00000000000E+00 -0.74505805969E-08  0.93827000000E+00  0.93827000000E+00 0.  1.
     999902    2    1    2    0    0 -0.21459603550E-01  0.58375477254E-02 -0.14383055804E-01  0.10174448373E+01  0.10171000605E+01 0.  0.
     999903    2    3    3    0    0  0.18579814285E-01 -0.12368639641E+00 -0.71380278052E-02  0.12703364157E+00  0.21049002189E-01 0.  0.
         14    1    1    2    0    0  0.21459603550E-01 -0.58375477254E-02  0.14383055804E-01  0.26485162681E-01  0.00000000000E+00 0. -1.
     999901    1    3    3    0    0 -0.40039417835E-01  0.12952394414E+00 -0.72450279992E-02  0.89041119575E+00  0.88000000000E+00 0. -1.
        -11    1    4    4    0    0  0.61398224450E-02 -0.60528408269E-01 -0.13581040790E-01  0.62338522738E-01  0.51100000000E-03 0.  1.
         11    1    4    4    0    0  0.12439991840E-01 -0.63157988144E-01  0.64430129845E-02  0.64695118832E-01  0.51100000000E-03 0. -1.
</event>
<event>
 8    1  0.1108957E+005  0.1043930E+01  0.7957747E-01            NaN
         13   -1    0    0    0    0  0.00000000000E+00  0.00000000000E+00  0.74505805969E-08  0.10566000000E+00  0.10566000000E+00 0. -1.
     999900   -1    0    0    0    0 -0.00000000000E+00 -0.00000000000E+00 -0.74505805969E-08  0.93827000000E+00  0.93827000000E+00 0. -1.
     999902    2    1    2    0    0 -0.21398526579E-01  0.17352146649E-02  0.98205714786E-03  0.10224387844E+01  0.10222128915E+01 0.  0.
     999903    2    3    3    0    0 -0.88405573172E-01 -0.97821975623E-01  0.15309592414E-01  0.13417820517E+00  0.19614352913E-01 0.  0.
         14    1    1    2    0    0  0.21398526579E-01 -0.17352146649E-02 -0.98205714786E-03  0.21491215552E-01  0.00000000000E+00 0. -1.
     999901    1    3    3    0    0  0.67007046593E-01  0.99557190288E-01 -0.14327535266E-01  0.88826057928E+00  0.88000000000E+00 0. -1.
        -11    1    4    4    0    0 -0.61975294549E-01 -0.75810312294E-01  0.41296488886E-02  0.98007426787E-01  0.51100000000E-03 0. -1.
         11    1    4    4    0    0 -0.26430278623E-01 -0.22011663330E-01  0.11179943525E-01  0.36170778384E-01  0.51100000000E-03 0.  1.
</event>
<event>
 8    1  0.1108957E+005  0.1043930E+01  0.7957747E-01            NaN
         13   -1    0    0    0    0  0.00000000000E+00  0.00000000000E+00  0.74505805969E-08  0.10566000000E+00  0.10566000000E+00 0.  1.
     999900   -1    0    0    0    0 -0.00000000000E+00 -0.00000000000E+00 -0.74505805969E-08  0.93827000000E+00  0.93827000000E+00 0. -1.
     999902    2    1    2    0    0  0.16005438125E-01  0.14074990976E-01  0.10810067700E-01  0.10200315276E+01  0.10197515287E+01 0.  0.
     999903    2    3    3    0    0 -0.42825330315E-01  0.28134035289E-01 -0.11643850674E+00  0.12882396716E+00  0.20301620748E-01 0.  0.
         14    1    1    2    0    0 -0.16005438125E-01 -0.14074990976E-01 -0.10810067700E-01  0.23898472425E-01  0.00000000000E+00 0. -1.
     999901    1    3    3    0    0  0.58830768441E-01 -0.14059044314E-01  0.12724857444E+00  0.89120756041E+00  0.88000000000E+00 0.  1.
        -11    1    4    4    0    0 -0.11127517231E-01  0.91819928263E-02 -0.57371140273E-01  0.59159441252E-01  0.51100000000E-03 0.  1.
         11    1    4    4    0    0 -0.31697813084E-01  0.18952042463E-01 -0.59067366467E-01  0.69664525909E-01  0.51100000000E-03 0. -1.
</event>
<event>
 8    1  0.1108957E+005  0.1043930E+01  0.7957747E-01            NaN
         13   -1    0    0    0    0  0.00000000000E+00  0.00000000000E+00  0.74505805969E-08  0.10566000000E+00  0.10566000000E+00 0.  1.
     999900   -1    0    0    0    0 -0.00000000000E+00 -0.00000000000E+00 -0.74505805969E-08  0.93827000000E+00  0.93827000000E+00 0. -1.
     999902    2    1    2    0    0 -0.11793133500E-01 -0.49541832684E-02  0.20410179928E-01  0.10198427134E+01  0.10195582194E+01 0.  0.
     999903    2    3    3    0    0  0.29710494434E-01  0.55107526335E-01 -0.10918736715E+00  0.12735994928E+00  0.19471070819E-01 0.  0.
         14    1    1    2    0    0  0.11793133500E-01  0.49541832684E-02 -0.20410179928E-01  0.24087286570E-01  0.00000000000E+00 0. -1.
     999901    1    3    3    0    0 -0.41503627934E-01 -0.60061709604E-01  0.12959754707E+00  0.89248276415E+00  0.88000000000E+00 0.  1.
        -11    1    4    4    0    0  0.12400128734E-01  0.41157186691E-01 -0.77915149759E-01  0.88987127675E-01  0.51100000000E-03 0.  1.
         11    1    4    4    0    0  0.17310365700E-01  0.13950339645E-01 -0.31272217387E-01  0.38372821608E-01  0.51100000000E-03 0. -1.
</event>
<event>
 8    1  0.1108957E+005  0.1043930E+01  0.7957747E-01            NaN
         13   -1    0    0    0    0  0.00000000000E+00  0.00000000000E+00  0.74505805969E-08  0.10566000000E+00  0.10566000000E+00 0. -1.
     999900   -1    0    0    0    0 -0.00000000000E+00 -0.00000000000E+00 -0.74505805969E-08  0.93827000000E+00  0.93827000000E+00 0.  1.
     999902    2    1    2    0    0 -0.65678412877E-02 -0.29263637447E-02 -0.22707538418E-01  0.10201112585E+01  0.10198331468E+01 0.  0.
     999903    2    3    3    0    0 -0.18631725141E-01  0.55325023629E-01 -0.11805520469E+00  0.13296418004E+00  0.18287766296E-01 0.  0.
         14    1    1    2    0    0  0.65678412877E-02  0.29263637447E-02  0.22707538418E-01  0.23818741464E-01  0.00000000000E+00 0. -1.
     999901    1    3    3    0    0  0.12063883854E-01 -0.58251387373E-01  0.95347666277E-01  0.88714707850E+00  0.88000000000E+00 0. -1.
        -11    1    4    4    0    0 -0.10281394569E-01  0.29414300603E-01 -0.42865666704E-01  0.52996553258E-01  0.51100000000E-03 0. -1.
         11    1    4    4    0    0 -0.83503305723E-02  0.25910723025E-01 -0.75189537990E-01  0.79967626778E-01  0.51100000000E-03 0.  1.
</event>
<event>
 8    1  0.1108957E+005  0.1043930E+01  0.7957747E-01            NaN
         13   -1    0    0    0    0  0.00000000000E+00  0.00000000000E+00  0.74505805969E-08  0.10566000000E+00  0.10566000000E+00 0. -1.
     999900   -1    0    0    0    0 -0.00000000000E+00 -0.00000000000E+00 -0.74505805969E-08  0.93827000000E+00  0.93827000000E+00 0.  1.
     999902    2    1    2    0    0 -0.59542206186E-02 -0.13592835485E-01 -0.18580014255E-01  0.10201511260E+01  0.10198739554E+01 0.  0.
     999903    2    3    3    0    0  0.44747133428E-01 -0.11604512619E+00 -0.43582815113E-01  0.13240553223E+00  0.12766594290E-01 0.  0.
         14    1    1    2    0    0  0.59542206186E-02  0.13592835485E-01  0.18580014255E-01  0.23778874015E-01  0.00000000000E+00 0. -1.
     999901    1    3    3    0    0 -0.50701354046E-01  0.10245229071E+00  0.25002800858E-01  0.88774559375E+00  0.88000000000E+00 0.  1.
        -11    1    4    4    0    0  0.21264541831E-01 -0.71926797854E-01 -0.24514941621E-01  0.78910635991E-01  0.51100000000E-03 0.  1.
         11    1    4    4    0    0  0.23482591596E-01 -0.44118328340E-01 -0.19067873492E-01  0.53494896243E-01  0.51100000000E-03 0. -1.
</event>
<event>
 8    1  0.1108957E+005  0.1043930E+01  0.7957747E-01            NaN
         13   -1    0    0    0    0  0.00000000000E+00  0.00000000000E+00  0.74505805969E-08  0.10566000000E+00  0.10566000000E+00 0.  1.
     999900   -1    0    0    0    0 -0.00000000000E+00 -0.00000000000E+00 -0.74505805969E-08  0.93827000000E+00  0.93827000000E+00 0.  1.
     999902    2    1    2    0    0 -0.63834208543E-03 -0.63408171488E-02 -0.22524923179E-01  0.10205209076E+01  0.10202523890E+01 0.  0.
     999903    2    3    3    0    0 -0.78741117968E-01  0.66257442731E-01  0.74703826743E-01  0.12876758927E+00  0.20253837687E-01 0.  0.
         14    1    1    2    0    0  0.63834208543E-03  0.63408171488E-02  0.22524923179E-01  0.23409092399E-01  0.00000000000E+00 0.  1.
     999901    1    3    3    0    0  0.78102775882E-01 -0.72598259880E-01 -0.97228749922E-01  0.89175331833E+00  0.88000000000E+00 0. -1.
        -11    1    4    4    0    0 -0.59489608177E-01  0.48446408962E-01  0.44230208914E-01  0.88558684069E-01  0.51100000000E-03 0. -1.
         11    1    4    4    0    0 -0.19251509790E-01  0.17811033769E-01  0.30473617829E-01  0.40208905204E-01  0.51100000000E-03 0.  1.
</event>
<event>
 8    1  0.1108957E+005  0.1043930E+01  0.7957747E-01            NaN
         13   -1    0    0    0    0  0.00000000000E+00  0.00000000000E+00  0.74505805969E-08  0.10566000000E+00  0.10566000000E+00 0.  1.
     999900   -1    0    0    0    0 -0.00000000000E+00 -0.00000000000E+00 -0.74505805969E-08  0.93827000000E+00  0.93827000000E+00 0.  1.
     999902    2    1    2    0    0  0.19299363929E-01  0.80921351433E-02  0.11945329309E-01  0.10198335482E+01  0.10195488350E+01 0.  0.
     999903    2    3    3    0    0 -0.66441135672E-01  0.51137127661E-01  0.97957658626E-01  0.13045037682E+00  0.19803221833E-01 0.  0.
         14    1    1    2    0    0 -0.19299363929E-01 -0.80921351433E-02 -0.11945329309E-01  0.24096451846E-01  0.00000000000E+00 0.  1.
     999901    1    3    3    0    0  0.85740499601E-01 -0.43044992517E-01 -0.86012329317E-01  0.88938317133E+00  0.88000000000E+00 0.  1.
        -11    1    4    4    0    0 -0.30384902387E-01  0.21748524203E-01  0.29155447450E-01  0.47397698627E-01  0.51100000000E-03 0. -1.
         11    1    4    4    0    0 -0.36056233285E-01  0.29388603457E-01  0.68802211176E-01  0.83052678196E-01  0.51100000000E-03 0.  1.
</event>
<event>
 8    1  0.1108957E+005  0.1043930E+01  0.7957747E-01            NaN
         13   -1    0    0    0    0  0.00000000000E+00  0.00000000000E+00  0.74505805969E-08  0.10566000000E+00  0.10566000000E+00 0.  1.
     999900   -1    0    0    0    0 -0.00000000000E+00 -0.00000000000E+00 -0.74505805969E-08  0.93827000000E+00  0.93827000000E+00 0.  1.
     999902    2    1    2    0    0 -0.48524182187E-02  0.16426798465E-01  0.16610546508E-01  0.10200700770E+01  0.10197909914E+01 0.  0.
     999903    2    3    3    0    0  0.81294568372E-01  0.10071282407E+00  0.15285706382E-01  0.13185434160E+00  0.20000869994E-01 0.  0.
         14    1    1    2    0    0  0.48524182187E-02 -0.16426798465E-01 -0.16610546508E-01  0.23859923002E-01  0.00000000000E+00 0. -1.
     999901    1    3    3    0    0 -0.86146986591E-01 -0.84286025601E-01  0.13248401259E-02  0.88821573540E+00  0.88000000000E+00 0. -1.
        -11    1    4    4    0    0  0.65424870508E-01  0.74641753838E-01  0.19140934288E-01  0.10108630760E+00  0.51100000000E-03 0.  1.
         11    1    4    4    0    0  0.15869697863E-01  0.26071070228E-01 -0.38552279064E-02  0.30768034001E-01  0.51100000000E-03 0. -1.
</event>
<event>
 8    1  0.1108957E+005  0.1043930E+01  0.7957747E-01            NaN
         13   -1    0    0    0    0  0.00000000000E+00  0.00000000000E+00  0.74505805969E-08  0.10566000000E+00  0.10566000000E+00 0.  1.
     999900   -1    0    0    0    0 -0.00000000000E+00 -0.00000000000E+00 -0.74505805969E-08  0.93827000000E+00  0.93827000000E+00 0.  1.
     999902    2    1    2    0    0 -0.22502250465E-01 -0.39404157708E-02  0.36477967279E-02  0.10207959434E+01  0.10205337689E+01 0.  0.
     999903    2    3    3    0    0  0.37770258521E-01 -0.26276732527E-01  0.12067969250E+00  0.13072395139E+00  0.20201588679E-01 0.  0.
         14    1    1    2    0    0  0.22502250465E-01  0.39404157708E-02 -0.36477967279E-02  0.23134056570E-01  0.00000000000E+00 0. -1.
     999901    1    3    3    0    0 -0.60272508986E-01  0.22336316757E-01 -0.11703189577E+00  0.89007199204E+00  0.88000000000E+00 0.  1.
        -11    1    4    4    0    0  0.20932864235E-01 -0.17481372664E-01  0.94607856673E-01  0.98461621257E-01  0.51100000000E-03 0. -1.
         11    1    4    4    0    0  0.16837394286E-01 -0.87953598630E-02  0.26071835823E-01  0.32262330133E-01  0.51100000000E-03 0.  1.
</event>
<event>
 8    1  0.1108957E+005  0.1043930E+01  0.7957747E-01            NaN
         13   -1    0    0    0    0  0.00000000000E+00  0.00000000000E+00  0.74505805969E-08  0.10566000000E+00  0.10566000000E+00 0.  1.
     999900   -1    0    0    0    0 -0.00000000000E+00 -0.00000000000E+00 -0.74505805969E-08  0.93827000000E+00  0.93827000000E+00 0.  1.
     999902    2    1    2    0    0  0.24762618505E-03 -0.26080632252E-05 -0.23796215625E-01  0.10201324959E+01  0.10198548857E+01 0.  0.
     999903    2    3    3    0    0 -0.42742172896E-01  0.84161835246E-01 -0.91198383167E-01  0.13250936156E+00  0.18206535998E-01 0.  0.
         14    1    1    2    0    0 -0.24762618505E-03  0.26080632252E-05  0.23796215625E-01  0.23797504146E-01  0.00000000000E+00 0.  1.
     999901    1    3    3    0    0  0.42989799081E-01 -0.84164443309E-01  0.67402167542E-01  0.88762313429E+00  0.88000000000E+00 0.  1.
        -11    1    4    4    0    0 -0.11949869730E-01  0.43277631110E-01 -0.40536368970E-01  0.60491413203E-01  0.51100000000E-03 0. -1.
         11    1    4    4    0    0 -0.30792303165E-01  0.40884204136E-01 -0.50662014197E-01  0.72017948357E-01  0.51100000000E-03 0.  1.
</event>
<event>
 8    1  0.1108957E+005  0.1043930E+01  0.7957747E-01            NaN
         13   -1    0    0    0    0  0.00000000000E+00  0.00000000000E+00  0.74505805969E-08  0.10566000000E+00  0.10566000000E+00 0. -1.
     999900   -1    0    0    0    0 -0.00000000000E+00 -0.00000000000E+00 -0.74505805969E-08  0.93827000000E+00  0.93827000000E+00 0.  1.
     999902    2    1    2    0    0 -0.19731083225E-01 -0.12520892408E-01 -0.62415733572E-02  0.10197422835E+01  0.10194553836E+01 0.  0.
     999903    2    3    3    0    0  0.82836571729E-01  0.77389846385E-01 -0.55584623006E-01  0.12786852486E+00  0.20239154993E-01 0.  0.
         14    1    1    2    0    0  0.19731083225E-01  0.12520892408E-01  0.62415733572E-02  0.24187716509E-01  0.00000000000E+00 0. -1.
     999901    1    3    3    0    0 -0.10256765495E+00 -0.89910738793E-01  0.49343049649E-01  0.89187375864E+00  0.88000000000E+00 0. -1.
        -11    1    4    4    0    0  0.18700590286E-01  0.10060634815E-01 -0.16941752024E-01  0.27170066849E-01  0.51100000000E-03 0.  1.
         11    1    4    4    0    0  0.64135981443E-01  0.67329211570E-01 -0.38642870982E-01  0.10069845801E+00  0.51100000000E-03 0. -1.
</event>
<event>
 8    1  0.1108957E+005  0.1043930E+01  0.7957747E-01            NaN
         13   -1    0    0    0    0  0.00000000000E+00  0.00000000000E+00  0.74505805969E-08  0.10566000000E+00  0.10566000000E+00 0. -1.
     999900   -1    0    0    0    0 -0.00000000000E+00 -0.00000000000E+00 -0.74505805969E-08  0.93827000000E+00  0.93827000000E+00 0. -1.
     999902    2    1    2    0    0 -0.64392176570E-03  0.92705208930E-03  0.23655713464E-01  0.10202473726E+01  0.10199724675E+01 0.  0.
     999903    2    3    3    0    0  0.61779441269E-01  0.14884012429E-01  0.11528334285E+00  0.13318080494E+00  0.20214956751E-01 0.  0.
         14    1    1    2    0    0  0.64392176570E-03 -0.92705208930E-03 -0.23655713464E-01  0.23682627394E-01  0.00000000000E+00 0.  1.
     999901    1    3    3    0    0 -0.62423363035E-01 -0.13956960339E-01 -0.91627629391E-01  0.88706656766E+00  0.88000000000E+00 0. -1.
        -11    1    4    4    0    0  0.61893280990E-01  0.13399466182E-01  0.10382640233E+00  0.12161622781E+00  0.51100000000E-03 0. -1.
         11    1    4    4    0    0 -0.11383972048E-03  0.14845462467E-02  0.11456940529E-01  0.11564577135E-01  0.51100000000E-03 0.  1.
</event>
<event>
 8    1  0.1108957E+005  0.1043930E+01  0.7957747E-01            NaN
         13   -1    0    0    0    0  0.00000000000E+00  0.00000000000E+00  0.74505805969E-08  0.10566000000E+00  0.10566000000E+00 0.  1.
     999900   -1    0    0    0    0 -0.00000000000E+00 -0.00000000000E+00 -0.74505805969E-08  0.93827000000E+00  0.93827000000E+00 0. -1.
     999902    2    1    2    0    0 -0.14571713332E-01  0.15995830310E-01  0.81031655364E-02  0.10208245308E+01  0.10205630112E+01 0.  0.
     999903    2    3    3    0    0 -0.48042862263E-01 -0.11017146578E+00  0.46373807366E-01  0.13037343922E+00  0.20020868024E-01 0.  0.
         14    1    1    2    0    0  0.14571713332E-01 -0.15995830310E-01 -0.81031655364E-02  0.23105469233E-01  0.00000000000E+00 0. -1.
     999901    1    3    3    0    0  0.33471148931E-01  0.12616729610E+00 -0.38270641829E-01  0.89045109155E+00  0.88000000000E+00 0. -1.
        -11    1    4    4    0    0 -0.29183753315E-01 -0.42342821717E-01  0.18556610554E-01  0.54673713289E-01  0.51100000000E-03 0. -1.
         11    1    4    4    0    0 -0.18859108948E-01 -0.67828644068E-01  0.27817196811E-01  0.75699725929E-01  0.51100000000E-03 0.  1.
</event>
<event>
 8    1  0.1108957E+005  0.1043930E+01  0.7957747E-01            NaN
         13   -1    0    0    0    0  0.00000000000E+00  0.00000000000E+00  0.74505805969E-08  0.10566000000E+00  0.10566000000E+00 0. -1.
     999900   -1    0    0    0    0 -0.00000000000E+00 -0.00000000000E+00 -0.74505805969E-08  0.93827000000E+00  0.93827000000E+00 0.  1.
     999902    2    1    2    0    0 -0.16038240131E-01 -0.18049761831E-01  0.11386918087E-01  0.10172339150E+01  0.10168835513E+01 0.  0.
     999903    2    3    3    0    0 -0.36627235210E-01 -0.10880684269E+00  0.59866445212E-01  0.13099973662E+00  0.19911211870E-01 0.  0.
         14    1    1    2    0    0  0.16038240131E-01  0.18049761831E-01 -0.11386918087E-01  0.26696084960E-01  0.00000000000E+00 0.  1.
     999901    1    3    3    0    0  0.20588995079E-01  0.90757080857E-01 -0.48479527125E-01  0.88623417842E+00  0.88000000000E+00 0.  1.
        -11    1    4    4    0    0 -0.90245363701E-02 -0.44254758134E-01  0.14622536054E-01  0.47476368394E-01  0.51100000000E-03 0. -1.
         11    1    4    4    0    0 -0.27602698840E-01 -0.64552084554E-01  0.45243909157E-01  0.83523368229E-01  0.51100000000E-03 0.  1.
</event>
<event>
 8    1  0.1108957E+005  0.1043930E+01  0.7957747E-01            NaN
         13   -1    0    0    0    0  0.00000000000E+00  0.00000000000E+00  0.74505805969E-08  0.10566000000E+00  0.10566000000E+00 0.  1.
     999900   -1    0    0    0    0 -0.00000000000E+00 -0.00000000000E+00 -0.74505805969E-08  0.93827000000E+00  0.93827000000E+00 0.  1.
     999902    2    1    2    0    0 -0.11134772955E-01  0.10289710081E-01  0.17189951746E-01  0.10210093599E+01  0.10207520547E+01 0.  0.
     999903    2    3    3    0    0  0.72895266276E-01 -0.54591066826E-01  0.92569511613E-01  0.13142932371E+00  0.20264457283E-01 0.  0.
         14    1    1    2    0    0  0.11134772955E-01 -0.10289710081E-01 -0.17189951746E-01  0.22920640116E-01  0.00000000000E+00 0. -1.
     999901    1    3    3    0    0 -0.84030039231E-01  0.64880776908E-01 -0.75379559867E-01  0.88958003617E+00  0.88000000000E+00 0.  1.
        -11    1    4    4    0    0  0.38555094861E-01 -0.26412420462E-01  0.33427932267E-01  0.57461283235E-01  0.51100000000E-03 0. -1.
         11    1    4    4    0    0  0.34340171415E-01 -0.28178646365E-01  0.59141579346E-01  0.73968040479E-01  0.51100000000E-03 0.  1.
</event>
<event>
 8    1  0.1108957E+005  0.1043930E+01  0.7957747E-01            NaN
         13   -1    0    0    0    0  0.00000000000E+00  0.00000000000E+00  0.74505805969E-08  0.10566000000E+00  0.10566000000E+00 0.  1.
     999900   -1    0    0    0    0 -0.00000000000E+00 -0.00000000000E+00 -0.74505805969E-08  0.93827000000E+00  0.93827000000E+00 0. -1.
     999902    2    1    2    0    0 -0.21459669505E-01 -0.12648113131E-01  0.43253956964E-02  0.10186475707E+01  0.10183337725E+01 0.  0.
     999903    2    3    3    0    0  0.44955219879E-01 -0.93597923297E-01 -0.73906968701E-01  0.12899364245E+00  0.19889110830E-01 0.  0.
         14    1    1    2    0    0  0.21459669505E-01  0.12648113131E-01 -0.43253956964E-02  0.25282429253E-01  0.00000000000E+00 0. -1.
     999901    1    3    3    0    0 -0.66414889383E-01  0.80949810166E-01  0.78232364397E-01  0.88965392830E+00  0.88000000000E+00 0.  1.
        -11    1    4    4    0    0  0.19505513586E-01 -0.30098957506E-01 -0.15638263731E-01  0.39130917658E-01  0.51100000000E-03 0. -1.
         11    1    4    4    0    0  0.25449706292E-01 -0.63498965791E-01 -0.58268704970E-01  0.89862724791E-01  0.51100000000E-03 0.  1.
</event>
<event>
 8    1  0.1108957E+005  0.1043930E+01  0.7957747E-01            NaN
         13   -1    0    0    0    0  0.00000000000E+00  0.00000000000E+00  0.74505805969E-08  0.10566000000E+00  0.10566000000E+00 0. -1.
     999900   -1    0    0    0    0 -0.00000000000E+00 -0.00000000000E+00 -0.74505805969E-08  0.93827000000E+00  0.93827000000E+00 0.  1.
     999902    2    1    2    0    0  0.19064452673E-01 -0.14472319366E-01 -0.20244766427E-02  0.10199091780E+01  0.10196262705E+01 0.  0.
     999903    2    3    3    0    0 -0.10610559354E+00 -0.56008123424E-01 -0.41552656276E-01  0.12920426589E+00  0.23912595208E-01 0.  0.
         14    1    1    2    0    0 -0.19064452673E-01  0.14472319366E-01  0.20244766427E-02  0.24020821993E-01  0.00000000000E+00 0.  1.
     999901    1    3    3    0    0  0.12517004622E+00  0.41535804058E-01  0.39528179633E-01  0.89070491212E+00  0.88000000000E+00 0. -1.
        -11    1    4    4    0    0 -0.43878438831E-01 -0.25192264905E-01 -0.53170991784E-02  0.50877306040E-01  0.51100000000E-03 0.  1.
         11    1    4    4    0    0 -0.62227154711E-01 -0.30815858519E-01 -0.36235557097E-01  0.78326959847E-01  0.51100000000E-03 0. -1.
</event>
<event>
 8    1  0.1108957E+005  0.1043930E+01  0.7957747E-01            NaN
         13   -1    0    0    0    0  0.00000000000E+00  0.00000000000E+00  0.74505805969E-08  0.10566000000E+00  0.10566000000E+00 0. -1.
     999900   -1    0    0    0    0 -0.00000000000E+00 -0.00000000000E+00 -0.74505805969E-08  0.93827000000E+00  0.93827000000E+00 0. -1.
     999902    2    1    2    0    0  0.79213540172E-02  0.14811545448E-01  0.16938565792E-01  0.10200753414E+01  0.10197963803E+01 0.  0.
     999903    2    3    3    0    0  0.15623134544E-01  0.67310818490E-01 -0.10793495138E+00  0.12967717964E+00  0.19783542909E-01 0.  0.
         14    1    1    2    0    0 -0.79213540172E-02 -0.14811545448E-01 -0.16938565792E-01  0.23854658646E-01  0.00000000000E+00 0.  1.
     999901    1    3    3    0    0 -0.77017805268E-02 -0.52499273041E-01  0.12487351718E+00  0.89039816171E+00  0.88000000000E+00 0.  1.
        -11    1    4    4    0    0  0.99234877263E-02  0.11827750200E-01 -0.16752249275E-01  0.22787502282E-01  0.51100000000E-03 0.  1.
         11    1    4    4    0    0  0.56996468177E-02  0.55483068289E-01 -0.91182702109E-01  0.10688967736E+00  0.51100000000E-03 0. -1.
</event>
<event>
 8    1  0.1108957E+005  0.1043930E+01  0.7957747E-01            NaN
         13   -1    0    0    0    0  0.00000000000E+00  0.00000000000E+00  0.74505805969E-08  0.10566000000E+00  0.10566000000E+00 0.  1.
     999900   -1    0    0    0    0 -0.00000000000E+00 -0.00000000000E+00 -0.74505805969E-08  0.93827000000E+00  0.93827000000E+00 0. -1.
     999902    2    1    2    0    0 -0.19583056198E-01  0.11924679025E-01 -0.69534543436E-03  0.10209914393E+01  0.10207337271E+01 0.  0.
     999903    2    3    3    0    0  0.81469135660E-01 -0.97382335187E-01  0.22475259346E-02  0.12848472826E+00  0.19563607811E-01 0.  0.
         14    1    1    2    0    0  0.19583056198E-01 -0.11924679025E-01  0.69534543436E-03  0.22938560661E-01  0.00000000000E+00 0.  1.
     999901    1    3    3    0    0 -0.10105219186E+00  0.10930701421E+00 -0.29428713690E-02  0.89250671108E+00  0.88000000000E+00 0.  1.
        -11    1    4    4    0    0  0.70432654896E-01 -0.79883033399E-01  0.85719739750E-02  0.10684473670E+00  0.51100000000E-03 0.  1.
         11    1    4    4    0    0  0.11036480764E-01 -0.17499301788E-01 -0.63244480404E-02  0.21639991561E-01  0.51100000000E-03 0. -1.
</event>
<event>
 8    1  0.1108957E+005  0.1043930E+01  0.7957747E-01            NaN
         13   -1    0    0    0    0  0.00000000000E+00  0.00000000000E+00  0.74505805969E-08  0.10566000000E+00  0.10566000000E+00 0. -1.
     999900   -1    0    0    0    0 -0.00000000000E+00 -0.00000000000E+00 -0.74505805969E-08  0.93827000000E+00  0.93827000000E+00 0.  1.
     999902    2    1    2    0    0  0.73617530321E-02  0.19385848325E-01  0.29698226466E-01  0.10077085812E+01  0.10070573933E+01 0.  0.
     999903    2    3    3    0    0 -0.65081120845E-02 -0.18610383259E-01 -0.11205927085E+00  0.11544669432E+00  0.19543724295E-01 0.  0.
         14    1    1    2    0    0 -0.73617530321E-02 -0.19385848325E-01 -0.29698226466E-01  0.36221418776E-01  0.00000000000E+00 0.  1.
     999901    1    3    3    0    0  0.13869865117E-01  0.37996231584E-01  0.14175749731E+00  0.89226188690E+00  0.88000000000E+00 0. -1.
        -11    1    4    4    0    0 -0.27000331503E-02 -0.53154991853E-02 -0.59490356144E-02  0.84378229623E-02  0.51100000000E-03 0.  1.
         11    1    4    4    0    0 -0.38080789341E-02 -0.13294884074E-01 -0.10611023523E+00  0.10700887136E+00  0.51100000000E-03 0. -1.
</event>
<event>
 8    1  0.1108957E+005  0.1043930E+01  0.7957747E-01            NaN
         13   -1    0    0    0    0  0.00000000000E+00  0.00000000000E+00  0.74505805969E-08  0.10566000000E+00  0.10566000000E+00 0.  1.
     999900   -1    0    0    0    0 -0.00000000000E+00 -0.00000000000E+00 -0.74505805969E-08  0.93827000000E+00  0.93827000000E+00 0.  1.
     999902    2    1    2    0    0 -0.23443882099E-02  0.10100155991E-01 -0.21992443170E-01  0.10196158711E+01  0.10193259281E+01 0.  0.
     999903    2    3    3    0    0  0.64685896007E-01  0.71497697848E-01  0.82955389845E-01  0.12873048858E+00  0.19843287185E-01 0.  0.
         14    1    1    2    0    0  0.23443882099E-02 -0.10100155991E-01  0.21992443170E-01  0.24314128890E-01  0.00000000000E+00 0. -1.
     999901    1    3    3    0    0 -0.67030284217E-01 -0.61397541856E-01 -0.10494783301E+00  0.89088538253E+00  0.88000000000E+00 0.  1.
        -11    1    4    4    0    0  0.10566453116E-01  0.14511164936E-01  0.65357625346E-02  0.19110236842E-01  0.51100000000E-03 0.  1.
         11    1    4    4    0    0  0.54119442891E-01  0.56986532912E-01  0.76419627311E-01  0.10962025174E+00  0.51100000000E-03 0. -1.
</event>
<event>
 8    1  0.1108957E+005  0.1043930E+01  0.7957747E-01            NaN
         13   -1    0    0    0    0  0.00000000000E+00  0.00000000000E+00  0.74505805969E-08  0.10566000000E+00  0.10566000000E+00 0.  1.
     999900   -1    0    0    0    0 -0.00000000000E+00 -0.00000000000E+00 -0.74505805969E-08  0.93827000000E+00  0.93827000000E+00 0. -1.
     999902    2    1    2    0    0 -0.16069204366E-01  0.14205883343E-01 -0.96428826274E-02  0.10204138006E+01  0.10201427904E+01 0.  0.
     999903    2    3    3    0    0 -0.31867032230E-01  0.43896980319E-02  0.12452871009E+00  0.13004986084E+00  0.19255894575E-01 0.  0.
         14    1    1    2    0    0  0.16069204366E-01 -0.14205883343E-01  0.96428826274E-02  0.23516199436E-01  0.00000000000E+00 0.  1.
     999901    1    3    3    0    0  0.15797827864E-01  0.98161853113E-02 -0.13417159272E+00  0.89036393972E+00  0.88000000000E+00 0. -1.
        -11    1    4    4    0    0 -0.27878809529E-01 -0.23701507757E-02  0.78155903750E-01  0.83014770056E-01  0.51100000000E-03 0. -1.
         11    1    4    4    0    0 -0.39882227010E-02  0.67598488075E-02  0.46372806345E-01  0.47035090789E-01  0.51100000000E-03 0.  1.
</event>
<event>
 8    1  0.1108957E+005  0.1043930E+01  0.7957747E-01            NaN
         13   -1    0    0    0    0  0.00000000000E+00  0.00000000000E+00  0.74505805969E-08  0.10566000000E+00  0.10566000000E+00 0.  1.
     999900   -1    0    0    0    0 -0.00000000000E+00 -0.00000000000E+00 -0.74505805969E-08  0.93827000000E+00  0.93827000000E+00 0.  1.
     999902    2    1    2    0    0 -0.20971481193E-02 -0.29118937953E-03 -0.23271845666E-01  0.10205620386E+01  0.10202944736E+01 0.  0.
     999903    2    3    3    0    0  0.11236376437E+00  0.32692248795E-01 -0.57120614176E-01  0.13189171340E+00  0.20934679948E-01 0.  0.
         14    1    1    2    0    0  0.20971481193E-02  0.29118937953E-03  0.23271845666E-01  0.23367961447E-01  0.00000000000E+00 0.  1.
     999901    1    3    3    0    0 -0.11446091249E+00 -0.32983438174E-01  0.33848768510E-01  0.88867032516E+00  0.88000000000E+00 0. -1.
        -11    1    4    4    0    0  0.23247314387E-01  0.12130920114E-01 -0.20842589659E-01  0.33500321099E-01  0.51100000000E-03 0.  1.
         11    1    4    4    0    0  0.89116449983E-01  0.20561328681E-01 -0.36278024517E-01  0.98391392299E-01  0.51100000000E-03 0. -1.
</event>
<event>
 8    1  0.1108957E+005  0.1043930E+01  0.7957747E-01            NaN
         13   -1    0    0    0    0  0.00000000000E+00  0.00000000000E+00  0.74505805969E-08  0.10566000000E+00  0.10566000000E+00 0. -1.
     999900   -1    0    0    0    0 -0.00000000000E+00 -0.00000000000E+00 -0.74505805969E-08  0.93827000000E+00  0.93827000000E+00 0.  1.
     999902    2    1    2    0    0 -0.17593737221E-01 -0.12924317716E-01 -0.86328747613E-02  0.10204543934E+01  0.10201843289E+01 0.  0.
     999903    2    3    3    0    0 -0.69287814552E-01 -0.19001894460E-01  0.10796482493E+00  0.13123887503E+00  0.20133694597E-01 0.  0.
         14    1    1    2    0    0  0.17593737221E-01  0.12924317716E-01  0.86328747613E-02  0.23475606583E-01  0.00000000000E+00 0.  1.
     999901    1    3    3    0    0  0.51694077331E-01  0.60775767438E-02 -0.11659769969E+00  0.88921551839E+00  0.88000000000E+00 0. -1.
        -11    1    4    4    0    0 -0.11176182064E-01 -0.33891652698E-02  0.33611825549E-01  0.35586646716E-01  0.51100000000E-03 0.  1.
         11    1    4    4    0    0 -0.58111632488E-01 -0.15612729190E-01  0.74352999381E-01  0.95652228312E-01  0.51100000000E-03 0. -1.
</event>
<event>
 8    1  0.1108957E+005  0.1043930E+01  0.7957747E-01            NaN
         13   -1    0    0    0    0  0.00000000000E+00  0.00000000000E+00  0.74505805969E-08  0.10566000000E+00  0.10566000000E+00 0.  1.
     999900   -1    0    0    0    0 -0.00000000000E+00 -0.00000000000E+00 -0.74505805969E-08  0.93827000000E+00  0.93827000000E+00 0.  1.
     999902    2    1    2    0    0  0.29019673553E-01  0.20633662465E-01  0.13213103925E-01  0.10059500633E+01  0.10052328358E+01 0.  0.
     999903    2    3    3    0    0 -0.30403603203E-01 -0.41798854859E-01 -0.10012286705E+00  0.11450517581E+00  0.20379485375E-01 0.  0.
         14    1    1    2    0    0 -0.29019673553E-01 -0.20633662465E-01 -0.13213103925E-01  0.37979936745E-01  0.00000000000E+00 0.  1.
     999901    1    3    3    0    0  0.59423276756E-01  0.62432517324E-01  0.11333597098E+00  0.89144488745E+00  0.88000000000E+00 0.  1.
        -11    1    4    4    0    0 -0.14019494072E-01 -0.30728692387E-01 -0.47490404388E-01  0.58278627127E-01  0.51100000000E-03 0.  1.
         11    1    4    4    0    0 -0.16384109131E-01 -0.11070162472E-01 -0.52632462665E-01  0.56226548680E-01  0.51100000000E-03 0. -1.
</event>
<event>
 8    1  0.1108957E+005  0.1043930E+01  0.7957747E-01            NaN
         13   -1    0    0    0    0  0.00000000000E+00  0.00000000000E+00  0.74505805969E-08  0.10566000000E+00  0.10566000000E+00 0.  1.
     999900   -1    0    0    0    0 -0.00000000000E+00 -0.00000000000E+00 -0.74505805969E-08  0.93827000000E+00  0.93827000000E+00 0.  1.
     999902    2    1    2    0    0  0.20900206244E-01  0.11370844798E-01  0.24462064702E-02  0.10200114160E+01  0.10197309401E+01 0.  0.
     999903    2    3    3    0    0  0.38659915312E-01 -0.83893666480E-01  0.89634321192E-01  0.13040897578E+00  0.20963136706E-01 0.  0.
         14    1    1    2    0    0 -0.20900206244E-01 -0.11370844798E-01 -0.24462064702E-02  0.23918583958E-01  0.00000000000E+00 0. -1.
     999901    1    3    3    0    0 -0.17759709068E-01  0.95264511277E-01 -0.87188114722E-01  0.88960244026E+00  0.88000000000E+00 0. -1.
        -11    1    4    4    0    0  0.15389110100E-01 -0.39050503578E-01  0.54847202885E-01  0.69066948135E-01  0.51100000000E-03 0. -1.
         11    1    4    4    0    0  0.23270805212E-01 -0.44843162902E-01  0.34787118308E-01  0.61342027643E-01  0.51100000000E-03 0.  1.
</event>
<event>
 8    1  0.1108957E+005  0.1043930E+01  0.7957747E-01            NaN
         13   -1    0    0    0    0  0.00000000000E+00  0.00000000000E+00  0.74505805969E-08  0.10566000000E+00  0.10566000000E+00 0.  1.
     999900   -1    0    0    0    0 -0.00000000000E+00 -0.00000000000E+00 -0.74505805969E-08  0.93827000000E+00  0.93827000000E+00 0. -1.
     999902    2    1    2    0    0  0.23476361991E-01 -0.17821520017E-02 -0.37695853219E-02  0.10200862291E+01  0.10198075256E+01 0.  0.
     999903    2    3    3    0    0  0.26086105656E-01  0.95311285125E-01  0.83045996313E-01  0.13049593490E+00  0.19178778381E-01 0.  0.
         14    1    1    2    0    0 -0.23476361991E-01  0.17821520017E-02  0.37695853219E-02  0.23843770918E-01  0.00000000000E+00 0.  1.
     999901    1    3    3    0    0 -0.26097436646E-02 -0.97093437127E-01 -0.86815581635E-01  0.88959029419E+00  0.88000000000E+00 0. -1.
        -11    1    4    4    0    0  0.37017840419E-02  0.49697944665E-01  0.42039862051E-01  0.65201227222E-01  0.51100000000E-03 0. -1.
         11    1    4    4    0    0  0.22384321614E-01  0.45613340460E-01  0.41006134263E-01  0.65294707674E-01  0.51100000000E-03 0.  1.
</event>
<event>
 8    1  0.1108957E+005  0.1043930E+01  0.7957747E-01            NaN
         13   -1    0    0    0    0  0.00000000000E+00  0.00000000000E+00  0.74505805969E-08  0.10566000000E+00  0.10566000000E+00 0.  1.
     999900   -1    0    0    0    0 -0.00000000000E+00 -0.00000000000E+00 -0.74505805969E-08  0.93827000000E+00  0.93827000000E+00 0.  1.
     999902    2    1    2    0    0 -0.16710148194E-01  0.14084443726E-01 -0.94383213353E-03  0.10220555531E+01  0.10218214434E+01 0.  0.
     999903    2    3    3    0    0 -0.76363608251E-01 -0.10509214293E+00 -0.12527620075E-01  0.13194557212E+00  0.19414777070E-01 0.  0.
         14    1    1    2    0    0  0.16710148194E-01 -0.14084443726E-01  0.94383213353E-03  0.21874446892E-01  0.00000000000E+00 0.  1.
     999901    1    3    3    0    0  0.59653460057E-01  0.11917658665E+00  0.11583787942E-01  0.89010998098E+00  0.88000000000E+00 0.  1.
        -11    1    4    4    0    0 -0.19786931183E-01 -0.21023712510E-01  0.43948423841E-02  0.29207788241E-01  0.51100000000E-03 0.  1.
         11    1    4    4    0    0 -0.56576677068E-01 -0.84068430415E-01 -0.16922462459E-01  0.10273778388E+00  0.51100000000E-03 0. -1.
</event>
<event>
 8    1  0.1108957E+005  0.1043930E+01  0.7957747E-01            NaN
         13   -1    0    0    0    0  0.00000000000E+00  0.00000000000E+00  0.74505805969E-08  0.10566000000E+00  0.10566000000E+00 0. -1.
     999900   -1    0    0    0    0 -0.00000000000E+00 -0.00000000000E+00 -0.74505805969E-08  0.93827000000E+00  0.93827000000E+00 0. -1.
     999902    2    1    2    0    0  0.22447771559E-02  0.22897533196E-01  0.28798128890E-02  0.10207431638E+01  0.10204797779E+01 0.  0.
     999903    2    3    3    0    0  0.12785667764E+00  0.11761609702E-01  0.19933381126E-01  0.13159009344E+00  0.20807391155E-01 0.  0.
         14    1    1    2    0    0 -0.22447771559E-02 -0.22897533196E-01 -0.28798128890E-02  0.23186836206E-01  0.00000000000E+00 0.  1.
     999901    1    3    3    0    0 -0.12561190049E+00  0.11135923494E-01 -0.17053568237E-01  0.88915307036E+00  0.88000000000E+00 0. -1.
        -11    1    4    4    0    0  0.55523468426E-01  0.13912414547E-01  0.33067623963E-02  0.57337654496E-01  0.51100000000E-03 0. -1.
         11    1    4    4    0    0  0.72333209218E-01 -0.21508048449E-02  0.16626618730E-01  0.74252438941E-01  0.51100000000E-03 0.  1.
</event>
<event>
 8    1  0.1108957E+005  0.1043930E+01  0.7957747E-01            NaN
         13   -1    0    0    0    0  0.00000000000E+00  0.00000000000E+00  0.74505805969E-08  0.10566000000E+00  0.10566000000E+00 0. -1.
     999900   -1    0    0    0    0 -0.00000000000E+00 -0.00000000000E+00 -0.74505805969E-08  0.93827000000E+00  0.93827000000E+00 0. -1.
     999902    2    1    2    0    0  0.17577160391E-01 -0.22725389717E-01  0.95812554834E-03  0.10151842541E+01  0.10147771932E+01 0.  0.
     999903    2    3    3    0    0 -0.68828357509E-01  0.93748356780E-01  0.33594565819E-01  0.12271734465E+00  0.20120999725E-01 0.  0.
         14    1    1    2    0    0 -0.17577160391E-01  0.22725389717E-01 -0.95812554834E-03  0.28745745942E-01  0.00000000000E+00 0.  1.
     999901    1    3    3    0    0  0.86405517900E-01 -0.11647374650E+00 -0.32636440271E-01  0.89246690940E+00  0.88000000000E+00 0. -1.
        -11    1    4    4    0    0 -0.60095151369E-02  0.64584882314E-02 -0.26553691687E-02  0.92270498448E-02  0.51100000000E-03 0. -1.
         11    1    4    4    0    0 -0.62818842373E-01  0.87289868549E-01  0.36249934988E-01  0.11349029481E+00  0.51100000000E-03 0.  1.
</event>
<event>
 8    1  0.1108957E+005  0.1043930E+01  0.7957747E-01            NaN
         13   -1    0    0    0    0  0.00000000000E+00  0.00000000000E+00  0.74505805969E-08  0.10566000000E+00  0.10566000000E+00 0.  1.
     999900   -1    0    0    0    0 -0.00000000000E+00 -0.00000000000E+00 -0.74505805969E-08  0.93827000000E+00  0.93827000000E+00 0.  1.
     999902    2    1    2    0    0 -0.22753784823E-01  0.63694974386E-02 -0.13471575552E-02  0.10202631444E+01  0.10199886096E+01 0.  0.
     999903    2    3    3    0    0  0.10184039263E-01  0.11960159331E+00  0.47816320942E-01  0.13103682032E+00  0.21817239772E-01 0.  0.
         14    1    1    2    0    0  0.22753784823E-01 -0.63694974386E-02  0.13471575552E-02  0.23666855619E-01  0.00000000000E+00 0.  1.
     999901    1    3    3    0    0 -0.32937824086E-01 -0.11323209588E+00 -0.49163478497E-01  0.88922632406E+00  0.88000000000E+00 0. -1.
        -11    1    4    4    0    0  0.13257567862E-01  0.41749255356E-01  0.12982400960E-01  0.45689903525E-01  0.51100000000E-03 0.  1.
         11    1    4    4    0    0 -0.30735285991E-02  0.77852337958E-01  0.34833919981E-01  0.85346916791E-01  0.51100000000E-03 0. -1.
</event>
<event>
 8    1  0.1108957E+005  0.1043930E+01  0.7957747E-01            NaN
         13   -1    0    0    0    0  0.00000000000E+00  0.00000000000E+00  0.74505805969E-08  0.10566000000E+00  0.10566000000E+00 0. -1.
     999900   -1    0    0    0    0 -0.00000000000E+00 -0.00000000000E+00 -0.74505805969E-08  0.93827000000E+00  0.93827000000E+00 0.  1.
     999902    2    1    2    0    0  0.53192075072E-02  0.22271924593E-01 -0.79464623962E-02  0.10196920368E+01  0.10194039293E+01 0.  0.
     999903    2    3    3    0    0 -0.95098961466E-01 -0.26717847604E-01  0.79503002654E-01  0.12832723196E+00  0.19735632216E-01 0.  0.
         14    1    1    2    0    0 -0.53192075072E-02 -0.22271924593E-01  0.79464623962E-02  0.24237963161E-01  0.00000000000E+00 0. -1.
     999901    1    3    3    0    0  0.10041816897E+00  0.48989772198E-01 -0.87449465050E-01  0.89136480488E+00  0.88000000000E+00 0.  1.
        -11    1    4    4    0    0 -0.55283802931E-01 -0.25370380148E-01  0.45819595397E-01  0.76155443001E-01  0.51100000000E-03 0.  1.
         11    1    4    4    0    0 -0.39815158535E-01 -0.13474674564E-02  0.33683407256E-01  0.52171788958E-01  0.51100000000E-03 0. -1.
</event>
<event>
 8    1  0.1108957E+005  0.1043930E+01  0.7957747E-01            NaN
         13   -1    0    0    0    0  0.00000000000E+00  0.00000000000E+00  0.74505805969E-08  0.10566000000E+00  0.10566000000E+00 0.  1.
     999900   -1    0    0    0    0 -0.00000000000E+00 -0.00000000000E+00 -0.74505805969E-08  0.93827000000E+00  0.93827000000E+00 0.  1.
     999902    2    1    2    0    0 -0.19158245806E-01 -0.20743149325E-02 -0.12023646862E-01  0.10212163643E+01  0.10209637375E+01 0.  0.
     999903    2    3    3    0    0 -0.98329244072E-01 -0.43340103421E-01  0.74911875988E-01  0.13243703428E+00  0.19513433322E-01 0.  0.
         14    1    1    2    0    0  0.19158245806E-01  0.20743149325E-02  0.12023646862E-01  0.22713635743E-01  0.00000000000E+00 0.  1.
     999901    1    3    3    0    0  0.79170998266E-01  0.41265788488E-01 -0.86935522849E-01  0.88877932998E+00  0.88000000000E+00 0.  1.
        -11    1    4    4    0    0 -0.50013778507E-01 -0.12020001769E-01  0.31427655777E-01  0.60281150882E-01  0.51100000000E-03 0.  1.
         11    1    4    4    0    0 -0.48315465565E-01 -0.31320101652E-01  0.43484220210E-01  0.72155883395E-01  0.51100000000E-03 0. -1.
</event>
<event>
 8    1  0.1108957E+005  0.1043930E+01  0.7957747E-01            NaN
         13   -1    0    0    0    0  0.00000000000E+00  0.00000000000E+00  0.74505805969E-08  0.10566000000E+00  0.10566000000E+00 0.  1.
     999900   -1    0    0    0    0 -0.00000000000E+00 -0.00000000000E+00 -0.74505805969E-08  0.93827000000E+00  0.93827000000E+00 0. -1.
     999902    2    1    2    0    0 -0.22407210801E-01  0.71171209870E-02 -0.45676178200E-02  0.10199800597E+01  0.10196988392E+01 0.  0.
     999903    2    3    3    0    0 -0.13081803189E+00  0.16224420725E-01 -0.26737187829E-02  0.13327862412E+00  0.19479568264E-01 0.  0.
         14    1    1    2    0    0  0.22407210801E-01 -0.71171209870E-02  0.45676178200E-02  0.23949940283E-01  0.00000000000E+00 0.  1.
     999901    1    3    3    0    0  0.10841082109E+00 -0.91072997379E-02 -0.18938990370E-02  0.88670143560E+00  0.88000000000E+00 0. -1.
        -11    1    4    4    0    0 -0.33708466318E-01  0.51867074274E-03 -0.83745799412E-02  0.34740817939E-01  0.51100000000E-03 0. -1.
         11    1    4    4    0    0 -0.97109565571E-01  0.15705749982E-01  0.57008611582E-02  0.98537806180E-01  0.51100000000E-03 0.  1.
</event>
<event>
 8    1  0.1108957E+005  0.1043930E+01  0.7957747E-01            NaN
         13   -1    0    0    0    0  0.00000000000E+00  0.00000000000E+00  0.74505805969E-08  0.10566000000E+00  0.10566000000E+00 0.  1.
     999900   -1    0    0    0    0 -0.00000000000E+00 -0.00000000000E+00 -0.74505805969E-08  0.93827000000E+00  0.93827000000E+00 0. -1.
     999902    2    1    2    0    0 -0.12470332406E-01 -0.35443048439E-03 -0.19947757844E-01  0.10204024023E+01  0.10201311262E+01 0.  0.
     999903    2    3    3    0    0  0.21537694613E-01  0.10645181287E+00  0.66841208334E-01  0.12905710209E+00  0.19802214958E-01 0.  0.
         14    1    1    2    0    0  0.12470332406E-01  0.35443048439E-03  0.19947757844E-01  0.23527597716E-01  0.00000000000E+00 0.  1.
     999901    1    3    3    0    0 -0.34008027019E-01 -0.10680624335E+00 -0.86788966178E-01  0.89134530019E+00  0.88000000000E+00 0. -1.
        -11    1    4    4    0    0  0.20803987122E-01  0.64665294329E-01  0.48190110690E-01  0.83288378902E-01  0.51100000000E-03 0. -1.
         11    1    4    4    0    0  0.73370749070E-03  0.41786518539E-01  0.18651097644E-01  0.45768723192E-01  0.51100000000E-03 0.  1.
</event>
<event>
 8    1  0.1108957E+005  0.1043930E+01  0.7957747E-01            NaN
         13   -1    0    0    0    0  0.00000000000E+00  0.00000000000E+00  0.74505805969E-08  0.10566000000E+00  0.10566000000E+00 0. -1.
     999900   -1    0    0    0    0 -0.00000000000E+00 -0.00000000000E+00 -0.74505805969E-08  0.93827000000E+00  0.93827000000E+00 0. -1.
     999902    2    1    2    0    0  0.37975176122E-03 -0.58139844282E-02  0.22987057990E-01  0.10202160492E+01  0.10199404079E+01 0.  0.
     999903    2    3    3    0    0  0.31726808105E-02 -0.11103808300E+00  0.70292354550E-01  0.13268142880E+00  0.17995128816E-01 0.  0.
         14    1    1    2    0    0 -0.37975176122E-03  0.58139844282E-02 -0.22987057990E-01  0.23713950775E-01  0.00000000000E+00 0.  1.
     999901    1    3    3    0    0 -0.27929290492E-02  0.10522409857E+00 -0.47305296561E-01  0.88753462043E+00  0.88000000000E+00 0. -1.
        -11    1    4    4    0    0 -0.53057349412E-02 -0.13892252855E-01  0.71599419925E-02  0.16512764850E-01  0.51100000000E-03 0.  1.
         11    1    4    4    0    0  0.84784157517E-02 -0.97145830140E-01  0.63132412558E-01  0.11616866395E+00  0.51100000000E-03 0. -1.
</event>
<event>
 8    1  0.1108957E+005  0.1043930E+01  0.7957747E-01            NaN
         13   -1    0    0    0    0  0.00000000000E+00  0.00000000000E+00  0.74505805969E-08  0.10566000000E+00  0.10566000000E+00 0. -1.
     999900   -1    0    0    0    0 -0.00000000000E+00 -0.00000000000E+00 -0.74505805969E-08  0.93827000000E+00  0.93827000000E+00 0. -1.
     999902    2    1    2    0    0 -0.21164724358E-01 -0.71387888522E-02  0.54429191360E-02  0.10209401494E+01  0.10206812702E+01 0.  0.
     999903    2    3    3    0    0 -0.10807862823E+00  0.59169497887E-01 -0.45078673115E-01  0.13273789376E+00  0.20130631135E-01 0.  0.
         14    1    1    2    0    0  0.21164724358E-01  0.71387888522E-02 -0.54429191360E-02  0.22989850634E-01  0.00000000000E+00 0.  1.
     999901    1    3    3    0    0  0.86913903873E-01 -0.66308286740E-01  0.50521592251E-01  0.88820225560E+00  0.88000000000E+00 0.  1.
        -11    1    4    4    0    0 -0.32196529448E-01  0.24170358409E-01 -0.22726989137E-01  0.46234185300E-01  0.51100000000E-03 0.  1.
         11    1    4    4    0    0 -0.75882098784E-01  0.34999139479E-01 -0.22351683978E-01  0.86503708462E-01  0.51100000000E-03 0. -1.
</event>
<event>
 8    1  0.1108957E+005  0.1043930E+01  0.7957747E-01            NaN
         13   -1    0    0    0    0  0.00000000000E+00  0.00000000000E+00  0.74505805969E-08  0.10566000000E+00  0.10566000000E+00 0.  1.
     999900   -1    0    0    0    0 -0.00000000000E+00 -0.00000000000E+00 -0.74505805969E-08  0.93827000000E+00  0.93827000000E+00 0. -1.
     999902    2    1    2    0    0  0.18682967124E-01  0.69183761946E-02  0.13125993247E-01  0.10200719010E+01  0.10197928585E+01 0.  0.
     999903    2    3    3    0    0  0.25983396086E-01  0.11845109998E+00 -0.45226192028E-01  0.13108493693E+00  0.20785867456E-01 0.  0.
         14    1    1    2    0    0 -0.18682967124E-01 -0.69183761946E-02 -0.13125993247E-01  0.23858099012E-01  0.00000000000E+00 0. -1.
     999901    1    3    3    0    0 -0.73004289625E-02 -0.11153272379E+00  0.58352185276E-01  0.88898696406E+00  0.88000000000E+00 0.  1.
        -11    1    4    4    0    0  0.49164827757E-02  0.40432730060E-01 -0.24943911917E-01  0.47764393911E-01  0.51100000000E-03 0. -1.
         11    1    4    4    0    0  0.21066913311E-01  0.78018369921E-01 -0.20282280111E-01  0.83320543019E-01  0.51100000000E-03 0.  1.
</event>
<event>
 8    1  0.1108957E+005  0.1043930E+01  0.7957747E-01            NaN
         13   -1    0    0    0    0  0.00000000000E+00  0.00000000000E+00  0.74505805969E-08  0.10566000000E+00  0.10566000000E+00 0. -1.
     999900   -1    0    0    0    0 -0.00000000000E+00 -0.00000000000E+00 -0.74505805969E-08  0.93827000000E+00  0.93827000000E+00 0. -1.
     999902    2    1    2    0    0 -0.13314963936E-01  0.98898144705E-02 -0.17437288925E-01  0.10198643452E+01  0.10195803681E+01 0.  0.
     999903    2    3    3    0    0 -0.49597150188E-01  0.11517160780E+00 -0.38293479866E-01  0.13260134377E+00  0.19807807032E-01 0.  0.
         14    1    1    2    0    0  0.13314963936E-01 -0.98898144705E-02  0.17437288925E-01  0.24065654779E-01  0.00000000000E+00 0. -1.
     999901    1    3    3    0    0  0.36282186252E-01 -0.10528179333E+00  0.20856190941E-01  0.88726300145E+00  0.88000000000E+00 0.  1.
        -11    1    4    4    0    0 -0.40923375519E-01  0.87417228120E-01 -0.37367226507E-01  0.10350393796E+00  0.51100000000E-03 0. -1.
         11    1    4    4    0    0 -0.86737746691E-02  0.27754379678E-01 -0.92625335939E-03  0.29097405806E-01  0.51100000000E-03 0.  1.
</event>
<event>
 8    1  0.1108957E+005  0.1043930E+01  0.7957747E-01            NaN
         13   -1    0    0    0    0  0.00000000000E+00  0.00000000000E+00  0.74505805969E-08  0.10566000000E+00  0.10566000000E+00 0. -1.
     999900   -1    0    0    0    0 -0.00000000000E+00 -0.00000000000E+00 -0.74505805969E-08  0.93827000000E+00  0.93827000000E+00 0. -1.
     999902    2    1    2    0    0  0.65744932016E-02 -0.14395943375E-01 -0.15426141705E-01  0.10218294798E+01  0.10215904525E+01 0.  0.
     999903    2    3    3    0    0  0.84471048242E-01  0.62952140134E-01  0.74305623283E-01  0.13048084486E+00  0.20139396347E-01 0.  0.
         14    1    1    2    0    0 -0.65744932016E-02  0.14395943375E-01  0.15426141705E-01  0.22100520230E-01  0.00000000000E+00 0. -1.
     999901    1    3    3    0    0 -0.77896555040E-01 -0.77348083509E-01 -0.89731764988E-01  0.89134863491E+00  0.88000000000E+00 0. -1.
        -11    1    4    4    0    0  0.34167325701E-01  0.34516568715E-01  0.25586885170E-01  0.54897627227E-01  0.51100000000E-03 0. -1.
         11    1    4    4    0    0  0.50303722541E-01  0.28435571419E-01  0.48718738113E-01  0.75583217633E-01  0.51100000000E-03 0.  1.
</event>
<event>
 8    1  0.1108957E+005  0.1043930E+01  0.7957747E-01            NaN
         13   -1    0    0    0    0  0.00000000000E+00  0.00000000000E+00  0.74505805969E-08  0.10566000000E+00  0.10566000000E+00 0.  1.
     999900   -1    0    0    0    0 -0.00000000000E+00 -0.00000000000E+00 -0.74505805969E-08  0.93827000000E+00  0.93827000000E+00 0.  1.
     999902    2    1    2    0    0 -0.40542648128E-03  0.64812317358E-02 -0.21719417102E-01  0.10212605533E+01  0.10210089196E+01 0.  0.
     999903    2    3    3    0    0 -0.70789153101E-01  0.10133642040E+00 -0.45931412235E-01  0.13303896128E+00  0.17592506690E-01 0.  0.
         14    1    1    2    0    0  0.40542648128E-03 -0.64812317358E-02  0.21719417102E-01  0.22669446723E-01  0.00000000000E+00 0.  1.
     999901    1    3    3    0    0  0.70383726619E-01 -0.94855188663E-01  0.24211995133E-01  0.88822159200E+00  0.88000000000E+00 0. -1.
        -11    1    4    4    0    0 -0.27388293034E-01  0.54529132680E-01 -0.22144485412E-01  0.64916748696E-01  0.51100000000E-03 0.  1.
         11    1    4    4    0    0 -0.43400860067E-01  0.46807287719E-01 -0.23786926823E-01  0.68122212580E-01  0.51100000000E-03 0. -1.
</event>
<event>
 8    1  0.1108957E+005  0.1043930E+01  0.7957747E-01            NaN
         13   -1    0    0    0    0  0.00000000000E+00  0.00000000000E+00  0.74505805969E-08  0.10566000000E+00  0.10566000000E+00 0. -1.
     999900   -1    0    0    0    0 -0.00000000000E+00 -0.00000000000E+00 -0.74505805969E-08  0.93827000000E+00  0.93827000000E+00 0.  1.
     999902    2    1    2    0    0 -0.24274550376E-01 -0.23845483638E-02 -0.62004124462E-02  0.10187628591E+01  0.10184519518E+01 0.  0.
     999903    2    3    3    0    0  0.93504961765E-01  0.70320326944E-02  0.82473953018E-01  0.12644910902E+00  0.19869496411E-01 0.  0.
         14    1    1    2    0    0  0.24274550376E-01  0.23845483638E-02  0.62004124462E-02  0.25167140905E-01  0.00000000000E+00 0. -1.
     999901    1    3    3    0    0 -0.11777951214E+00 -0.94165810582E-02 -0.88674365464E-01  0.89231375007E+00  0.88000000000E+00 0.  1.
        -11    1    4    4    0    0  0.70906673244E-01  0.16082366361E-02  0.51171405700E-01  0.87459228317E-01  0.51100000000E-03 0. -1.
         11    1    4    4    0    0  0.22598288521E-01  0.54237960582E-02  0.31302547318E-01  0.38989880704E-01  0.51100000000E-03 0.  1.
</event>
<event>
 8    1  0.1108957E+005  0.1043930E+01  0.7957747E-01            NaN
         13   -1    0    0    0    0  0.00000000000E+00  0.00000000000E+00  0.74505805969E-08  0.10566000000E+00  0.10566000000E+00 0. -1.
     999900   -1    0    0    0    0 -0.00000000000E+00 -0.00000000000E+00 -0.74505805969E-08  0.93827000000E+00  0.93827000000E+00 0. -1.
     999902    2    1    2    0    0 -0.16442335927E-01  0.11654520955E-01  0.10031639534E-01  0.10214175132E+01  0.10211693906E+01 0.  0.
     999903    2    3    3    0    0  0.12578064357E+00  0.42467224912E-02  0.24783649548E-01  0.12984593831E+00  0.20172591856E-01 0.  0.
         14    1    1    2    0    0  0.16442335927E-01 -0.11654520955E-01 -0.10031639534E-01  0.22512486783E-01  0.00000000000E+00 0.  1.
     999901    1    3    3    0    0 -0.14222297950E+00  0.74077984636E-02 -0.14752010014E-01  0.89157157490E+00  0.88000000000E+00 0. -1.
        -11    1    4    4    0    0  0.55218074863E-01 -0.25515871415E-02  0.20027311659E-01  0.58795414122E-01  0.51100000000E-03 0. -1.
         11    1    4    4    0    0  0.70562568710E-01  0.67983096327E-02  0.47563378888E-02  0.71050524191E-01  0.51100000000E-03 0.  1.
</event>
<event>
 8    1  0.1108957E+005  0.1043930E+01  0.7957747E-01            NaN
         13   -1    0    0    0    0  0.00000000000E+00  0.00000000000E+00  0.74505805969E-08  0.10566000000E+00  0.10566000000E+00 0.  1.
     999900   -1    0    0    0    0 -0.00000000000E+00 -0.00000000000E+00 -0.74505805969E-08  0.93827000000E+00  0.93827000000E+00 0. -1.
     999902    2    1    2    0    0 -0.17300104428E-01  0.98453245312E-02 -0.13810457800E-01  0.10197028918E+01  0.10194150454E+01 0.  0.
     999903    2    3    3    0    0  0.12252228491E+00 -0.25786094928E-01 -0.96687259295E-02  0.12794224420E+00  0.24476531601E-01 0.  0.
         14    1    1    2    0    0  0.17300104428E-01 -0.98453245312E-02  0.13810457800E-01  0.24227108226E-01  0.00000000000E+00 0.  1.
     999901    1    3    3    0    0 -0.13982238934E+00  0.35631419459E-01 -0.41417318705E-02  0.89176064757E+00  0.88000000000E+00 0.  1.
        -11    1    4    4    0    0  0.43899637044E-01 -0.13034503798E-01 -0.14791190092E-01  0.48126051648E-01  0.51100000000E-03 0. -1.
         11    1    4    4    0    0  0.78622647867E-01 -0.12751591130E-01  0.51224641624E-02  0.79816192556E-01  0.51100000000E-03 0.  1.
</event>
<event>
 8    1  0.1108957E+005  0.1043930E+01  0.7957747E-01            NaN
         13   -1    0    0    0    0  0.00000000000E+00  0.00000000000E+00  0.74505805969E-08  0.10566000000E+00  0.10566000000E+00 0. -1.
     999900   -1    0    0    0    0 -0.00000000000E+00 -0.00000000000E+00 -0.74505805969E-08  0.93827000000E+00  0.93827000000E+00 0. -1.
     999902    2    1    2    0    0  0.59653617251E-02 -0.21567239211E-01 -0.86425472846E-03  0.10215362892E+01  0.10212908067E+01 0.  0.
     999903    2    3    3    0    0 -0.92503002445E-02 -0.66878548120E-01  0.11284769495E+00  0.13293343156E+00  0.19452164871E-01 0.  0.
         14    1    1    2    0    0 -0.59653617251E-02  0.21567239211E-01  0.86425472846E-03  0.22393710812E-01  0.00000000000E+00 0.  1.
     999901    1    3    3    0    0  0.15215661970E-01  0.45311308909E-01 -0.11371194968E+00  0.88860285763E+00  0.88000000000E+00 0. -1.
        -11    1    4    4    0    0 -0.38232062168E-02 -0.22608911994E-01  0.22268628725E-01  0.31967682957E-01  0.51100000000E-03 0.  1.
         11    1    4    4    0    0 -0.54270940277E-02 -0.44269636126E-01  0.90579066222E-01  0.10096574860E+00  0.51100000000E-03 0. -1.
</event>
<event>
 8    1  0.1108957E+005  0.1043930E+01  0.7957747E-01            NaN
         13   -1    0    0    0    0  0.00000000000E+00  0.00000000000E+00  0.74505805969E-08  0.10566000000E+00  0.10566000000E+00 0.  1.
     999900   -1    0    0    0    0 -0.00000000000E+00 -0.00000000000E+00 -0.74505805969E-08  0.93827000000E+00  0.93827000000E+00 0. -1.
     999902    2    1    2    0    0  0.71360714073E-02  0.17073160993E-01 -0.14177173579E-01  0.10206188741E+01  0.10203526241E+01 0.  0.
     999903    2    3    3    0    0 -0.58439491690E-01 -0.96553577219E-01 -0.60948854290E-01  0.12966501431E+00  0.18986459202E-01 0.  0.
         14    1    1    2    0    0 -0.71360714073E-02 -0.17073160993E-01  0.14177173579E-01  0.23311125930E-01  0.00000000000E+00 0. -1.
     999901    1    3    3    0    0  0.65575563097E-01  0.11362673821E+00  0.46771680711E-01  0.89095385976E+00  0.88000000000E+00 0.  1.
        -11    1    4    4    0    0 -0.46753186024E-01 -0.60435661380E-01 -0.38539159227E-01  0.85579538937E-01  0.51100000000E-03 0.  1.
         11    1    4    4    0    0 -0.11686305666E-01 -0.36117915840E-01 -0.22409695063E-01  0.44085475369E-01  0.51100000000E-03 0. -1.
</event>
<event>
 8    1  0.1108957E+005  0.1043930E+01  0.7957747E-01            NaN
         13   -1    0    0    0    0  0.00000000000E+00  0.00000000000E+00  0.74505805969E-08  0.10566000000E+00  0.10566000000E+00 0. -1.
     999900   -1    0    0    0    0 -0.00000000000E+00 -0.00000000000E+00 -0.74505805969E-08  0.93827000000E+00  0.93827000000E+00 0.  1.
     999902    2    1    2    0    0  0.10123558010E-01  0.20829314577E-01  0.43750953631E-02  0.10203612022E+01  0.10200889641E+01 0.  0.
     999903    2    3    3    0    0 -0.10719802480E-02  0.72454467343E-01  0.10964430567E+00  0.13251431045E+00  0.16951983030E-01 0.  0.
         14    1    1    2    0    0 -0.10123558010E-01 -0.20829314577E-01 -0.43750953631E-02  0.23568797847E-01  0.00000000000E+00 0.  1.
     999901    1    3    3    0    0  0.11195538258E-01 -0.51625152766E-01 -0.10526921030E+00  0.88784689171E+00  0.88000000000E+00 0.  1.
        -11    1    4    4    0    0 -0.90021762764E-02  0.36931044642E-01  0.55570895769E-01  0.67329984507E-01  0.51100000000E-03 0.  1.
         11    1    4    4    0    0  0.79301960283E-02  0.35523422701E-01  0.54073409896E-01  0.65184325940E-01  0.51100000000E-03 0. -1.
</event>
<event>
 8    1  0.1174685E+005  0.1043930E+01  0.7957747E-01            NaN
         13   -1    0    0    0    0  0.00000000000E+00  0.00000000000E+00  0.74505805969E-08  0.10566000000E+00  0.10566000000E+00 0.  1.
     999900   -1    0    0    0    0 -0.00000000000E+00 -0.00000000000E+00 -0.74505805969E-08  0.93827000000E+00  0.93827000000E+00 0. -1.
     999902    2    1    2    0    0  0.18987154673E-01 -0.11052769597E-01 -0.95021770946E-02  0.10199932682E+01  0.10197123615E+01 0.  0.
     999903    2    3    3    0    0 -0.86160815175E-01  0.74529736713E-01  0.53390248443E-01  0.12739261948E+00  0.19999828604E-01 0.  0.
         14    1    1    2    0    0 -0.18987154673E-01  0.11052769597E-01  0.95021770946E-02  0.23936731771E-01  0.00000000000E+00 0.  1.
     999901    1    3    3    0    0  0.10514796985E+00 -0.85582506310E-01 -0.62892425537E-01  0.89260064874E+00  0.88000000000E+00 0. -1.
        -11    1    4    4    0    0 -0.37572187896E-01  0.19848524096E-01  0.18552938681E-01  0.46369234054E-01  0.51100000000E-03 0. -1.
         11    1    4    4    0    0 -0.48588627279E-01  0.54681212617E-01  0.34837309762E-01  0.81023385430E-01  0.51100000000E-03 0.  1.
</event>
<event>
 8    1  0.1108957E+005  0.1043930E+01  0.7957747E-01            NaN
         13   -1    0    0    0    0  0.00000000000E+00  0.00000000000E+00  0.74505805969E-08  0.10566000000E+00  0.10566000000E+00 0. -1.
     999900   -1    0    0    0    0 -0.00000000000E+00 -0.00000000000E+00 -0.74505805969E-08  0.93827000000E+00  0.93827000000E+00 0. -1.
     999902    2    1    2    0    0 -0.10385655450E-01  0.16259378949E-01 -0.10661638094E-01  0.10218868657E+01  0.10216490917E+01 0.  0.
     999903    2    3    3    0    0  0.28833948911E-01 -0.11145068285E+00  0.55543755771E-01  0.12934488269E+00  0.19807537844E-01 0.  0.
         14    1    1    2    0    0  0.10385655450E-01 -0.16259378949E-01  0.10661638094E-01  0.22043134300E-01  0.00000000000E+00 0. -1.
     999901    1    3    3    0    0 -0.39219604361E-01  0.12771006180E+00 -0.66205393865E-01  0.89254198301E+00  0.88000000000E+00 0.  1.
        -11    1    4    4    0    0  0.10664821101E-01 -0.76163842315E-01  0.32928647215E-01  0.83661378268E-01  0.51100000000E-03 0. -1.
         11    1    4    4    0    0  0.18169127810E-01 -0.35286840540E-01  0.22615108555E-01  0.45683504426E-01  0.51100000000E-03 0.  1.
</event>
<event>
 8    1  0.1108957E+005  0.1043930E+01  0.7957747E-01            NaN
         13   -1    0    0    0    0  0.00000000000E+00  0.00000000000E+00  0.74505805969E-08  0.10566000000E+00  0.10566000000E+00 0.  1.
     999900   -1    0    0    0    0 -0.00000000000E+00 -0.00000000000E+00 -0.74505805969E-08  0.93827000000E+00  0.93827000000E+00 0.  1.
     999902    2    1    2    0    0 -0.40055156721E-02 -0.18288065171E-01  0.14523490430E-01  0.10202355015E+01  0.10199603175E+01 0.  0.
     999903    2    3    3    0    0 -0.51930345554E-01 -0.69146585995E-01 -0.96751562497E-01  0.13047962722E+00  0.13640276041E-01 0.  0.
         14    1    1    2    0    0  0.40055156721E-02  0.18288065171E-01 -0.14523490430E-01  0.23694498470E-01  0.00000000000E+00 0. -1.
     999901    1    3    3    0    0  0.47924829882E-01  0.50858520824E-01  0.11127505293E+00  0.88975587431E+00  0.88000000000E+00 0. -1.
        -11    1    4    4    0    0 -0.45588956919E-01 -0.64980142113E-01 -0.83561783593E-01  0.11525452121E+00  0.51100000000E-03 0. -1.
         11    1    4    4    0    0 -0.63413886356E-02 -0.41664438815E-02 -0.13189778904E-01  0.15225106009E-01  0.51100000000E-03 0.  1.
</event>
<event>
 8    1  0.1108957E+005  0.1043930E+01  0.7957747E-01            NaN
         13   -1    0    0    0    0  0.00000000000E+00  0.00000000000E+00  0.74505805969E-08  0.10566000000E+00  0.10566000000E+00 0. -1.
     999900   -1    0    0    0    0 -0.00000000000E+00 -0.00000000000E+00 -0.74505805969E-08  0.93827000000E+00  0.93827000000E+00 0. -1.
     999902    2    1    2    0    0 -0.22739667786E-01  0.51471545858E-02  0.35756100934E-02  0.10203424889E+01  0.10200698133E+01 0.  0.
     999903    2    3    3    0    0  0.96242471646E-01 -0.77991800304E-01  0.26664536407E-01  0.12815308423E+00  0.19154144013E-01 0.  0.
         14    1    1    2    0    0  0.22739667786E-01 -0.51471545858E-02 -0.35756100934E-02  0.23587511079E-01  0.00000000000E+00 0.  1.
     999901    1    3    3    0    0 -0.11898213943E+00  0.83138954890E-01 -0.23088926313E-01  0.89218940469E+00  0.88000000000E+00 0. -1.
        -11    1    4    4    0    0  0.20247846841E-01 -0.72404329854E-02  0.50603327290E-02  0.22096770348E-01  0.51100000000E-03 0. -1.
         11    1    4    4    0    0  0.75994624805E-01 -0.70751367319E-01  0.21604203678E-01  0.10605631388E+00  0.51100000000E-03 0.  1.
</event>
<event>
 8    1  0.1108957E+005  0.1043930E+01  0.7957747E-01            NaN
         13   -1    0    0    0    0  0.00000000000E+00  0.00000000000E+00  0.74505805969E-08  0.10566000000E+00  0.10566000000E+00 0. -1.
     999900   -1    0    0    0    0 -0.00000000000E+00 -0.00000000000E+00 -0.74505805969E-08  0.93827000000E+00  0.93827000000E+00 0. -1.
     999902    2    1    2    0    0 -0.11365113996E-01 -0.12618102048E-01 -0.17748947691E-01  0.10193656466E+01  0.10190696315E+01 0.  0.
     999903    2    3    3    0    0  0.59775694635E-01  0.58814127865E-01 -0.97294052726E-01  0.13004511838E+00  0.20331375082E-01 0.  0.
         14    1    1    2    0    0  0.11365113996E-01  0.12618102048E-01  0.17748947691E-01  0.24564353432E-01  0.00000000000E+00 0. -1.
     999901    1    3    3    0    0 -0.71140808630E-01 -0.71432229912E-01  0.79545105036E-01  0.88932052819E+00  0.88000000000E+00 0.  1.
        -11    1    4    4    0    0  0.38630979816E-01  0.39808115241E-01 -0.77868825795E-01  0.95607812401E-01  0.51100000000E-03 0. -1.
         11    1    4    4    0    0  0.21144714819E-01  0.19006012624E-01 -0.19425226932E-01  0.34437305978E-01  0.51100000000E-03 0.  1.
</event>
<event>
 8    1  0.1108957E+005  0.1043930E+01  0.7957747E-01            NaN
         13   -1    0    0    0    0  0.00000000000E+00  0.00000000000E+00  0.74505805969E-08  0.10566000000E+00  0.10566000000E+00 0. -1.
     999900   -1    0    0    0    0 -0.00000000000E+00 -0.00000000000E+00 -0.74505805969E-08  0.93827000000E+00  0.93827000000E+00 0. -1.
     999902    2    1    2    0    0 -0.16608150369E-01  0.57474128343E-02  0.14087432367E-01  0.10214062533E+01  0.10211578797E+01 0.  0.
     999903    2    3    3    0    0 -0.21296075004E-01  0.23600993305E-02  0.13047731143E+00  0.13372384703E+00  0.19966110970E-01 0.  0.
         14    1    1    2    0    0  0.16608150369E-01 -0.57474128343E-02 -0.14087432367E-01  0.22523746661E-01  0.00000000000E+00 0.  1.
     999901    1    3    3    0    0  0.46879246350E-02  0.33873135038E-02 -0.11638987906E+00  0.88768240631E+00  0.88000000000E+00 0. -1.
        -11    1    4    4    0    0 -0.42261155269E-02  0.86489474991E-02  0.27254682229E-01  0.28909222918E-01  0.51100000000E-03 0. -1.
         11    1    4    4    0    0 -0.17069959477E-01 -0.62888481687E-02  0.10322262920E+00  0.10481462411E+00  0.51100000000E-03 0.  1.
</event>
<event>
 8    1  0.1108957E+005  0.1043930E+01  0.7957747E-01            NaN
         13   -1    0    0    0    0  0.00000000000E+00  0.00000000000E+00  0.74505805969E-08  0.10566000000E+00  0.10566000000E+00 0.  1.
     999900   -1    0    0    0    0 -0.00000000000E+00 -0.00000000000E+00 -0.74505805969E-08  0.93827000000E+00  0.93827000000E+00 0. -1.
     999902    2    1    2    0    0 -0.11785067957E-01  0.17319998595E-01  0.93799634126E-02  0.10209767019E+01  0.10207186547E+01 0.  0.
     999903    2    3    3    0    0  0.24309562948E-01 -0.41415249179E-01  0.12051622207E+00  0.13131164154E+00  0.20307873062E-01 0.  0.
         14    1    1    2    0    0  0.11785067957E-01 -0.17319998595E-01 -0.93799634126E-02  0.22953298057E-01  0.00000000000E+00 0. -1.
     999901    1    3    3    0    0 -0.36094630904E-01  0.58735247774E-01 -0.11113625865E+00  0.88966506040E+00  0.88000000000E+00 0. -1.
        -11    1    4    4    0    0  0.66688469531E-02 -0.27564746142E-01  0.81635906095E-01  0.86423208888E-01  0.51100000000E-03 0. -1.
         11    1    4    4    0    0  0.17640715995E-01 -0.13850503037E-01  0.38880315970E-01  0.44888432654E-01  0.51100000000E-03 0.  1.
</event>
<event>
 8    1  0.1108957E+005  0.1043930E+01  0.7957747E-01            NaN
         13   -1    0    0    0    0  0.00000000000E+00  0.00000000000E+00  0.74505805969E-08  0.10566000000E+00  0.10566000000E+00 0. -1.
     999900   -1    0    0    0    0 -0.00000000000E+00 -0.00000000000E+00 -0.74505805969E-08  0.93827000000E+00  0.93827000000E+00 0. -1.
     999902    2    1    2    0    0 -0.20599071555E-01 -0.77403841902E-02 -0.12475893488E-01  0.10186340870E+01  0.10183199497E+01 0.  0.
     999903    2    3    3    0    0  0.33007432660E-01 -0.96210247463E-02 -0.12417692536E+00  0.12995286483E+00  0.16905134066E-01 0.  0.
         14    1    1    2    0    0  0.20599071555E-01  0.77403841902E-02  0.12475893488E-01  0.25295913003E-01  0.00000000000E+00 0. -1.
     999901    1    3    3    0    0 -0.53606504215E-01  0.18806405562E-02  0.11170103188E+00  0.88868122216E+00  0.88000000000E+00 0.  1.
        -11    1    4    4    0    0  0.12865467212E-01 -0.26619036966E-02 -0.22451408684E-01  0.26017933253E-01  0.51100000000E-03 0. -1.
         11    1    4    4    0    0  0.20141965448E-01 -0.69591210497E-02 -0.10172551668E+00  0.10393493158E+00  0.51100000000E-03 0.  1.
</event>
<event>
 8    1  0.1108957E+005  0.1043930E+01  0.7957747E-01            NaN
         13   -1    0    0    0    0  0.00000000000E+00  0.00000000000E+00  0.74505805969E-08  0.10566000000E+00  0.10566000000E+00 0. -1.
     999900   -1    0    0    0    0 -0.00000000000E+00 -0.00000000000E+00 -0.74505805969E-08  0.93827000000E+00  0.93827000000E+00 0. -1.
     999902    2    1    2    0    0  0.19552349208E-01 -0.10975049409E-01  0.74730138689E-02  0.10202954489E+01  0.10200216719E+01 0.  0.
     999903    2    3    3    0    0  0.38828090805E-01  0.21335609053E-01  0.12289392365E+00  0.13196132298E+00  0.18655976099E-01 0.  0.
         14    1    1    2    0    0 -0.19552349208E-01  0.10975049409E-01 -0.74730138689E-02  0.23634551093E-01  0.00000000000E+00 0. -1.
     999901    1    3    3    0    0 -0.19275741597E-01 -0.32310658462E-01 -0.11542090978E+00  0.88833412592E+00  0.88000000000E+00 0. -1.
        -11    1    4    4    0    0  0.13584127552E-02  0.70800605348E-02  0.28571814566E-01  0.29471719512E-01  0.51100000000E-03 0.  1.
         11    1    4    4    0    0  0.37469678050E-01  0.14255548518E-01  0.94322109085E-01  0.10248960347E+00  0.51100000000E-03 0. -1.
</event>
<event>
 8    1  0.1108957E+005  0.1043930E+01  0.7957747E-01            NaN
         13   -1    0    0    0    0  0.00000000000E+00  0.00000000000E+00  0.74505805969E-08  0.10566000000E+00  0.10566000000E+00 0. -1.
     999900   -1    0    0    0    0 -0.00000000000E+00 -0.00000000000E+00 -0.74505805969E-08  0.93827000000E+00  0.93827000000E+00 0.  1.
     999902    2    1    2    0    0  0.17495252843E-01  0.17432846709E-01 -0.40911329867E-02  0.10188955161E+01  0.10185879183E+01 0.  0.
     999903    2    3    3    0    0 -0.85869365702E-01  0.93454520815E-01 -0.15326432610E-01  0.12951945879E+00  0.20810940471E-01 0.  0.
         14    1    1    2    0    0 -0.17495252843E-01 -0.17432846709E-01  0.40911329867E-02  0.25034483928E-01  0.00000000000E+00 0. -1.
     999901    1    3    3    0    0  0.10336461854E+00 -0.76021674106E-01  0.11235299623E-01  0.88937605728E+00  0.88000000000E+00 0. -1.
        -11    1    4    4    0    0 -0.34127341671E-01  0.52301832604E-01 -0.57857171717E-02  0.62720752446E-01  0.51100000000E-03 0. -1.
         11    1    4    4    0    0 -0.51742024031E-01  0.41152688211E-01 -0.95407154383E-02  0.66798706349E-01  0.51100000000E-03 0.  1.
</event>
<event>
 8    1  0.1108957E+005  0.1043930E+01  0.7957747E-01            NaN
         13   -1    0    0    0    0  0.00000000000E+00  0.00000000000E+00  0.74505805969E-08  0.10566000000E+00  0.10566000000E+00 0.  1.
     999900   -1    0    0    0    0 -0.00000000000E+00 -0.00000000000E+00 -0.74505805969E-08  0.93827000000E+00  0.93827000000E+00 0.  1.
     999902    2    1    2    0    0  0.12007798527E-01 -0.32326362900E-02  0.17603201723E-01  0.10223775089E+01  0.10221503122E+01 0.  0.
     999903    2    3    3    0    0 -0.79859461576E-01 -0.12335287832E-01  0.10348705944E+00  0.13339016995E+00  0.23530257958E-01 0.  0.
         14    1    1    2    0    0 -0.12007798527E-01  0.32326362900E-02 -0.17603201723E-01  0.21552491126E-01  0.00000000000E+00 0. -1.
     999901    1    3    3    0    0  0.91867260103E-01  0.91026515423E-02 -0.85883857717E-01  0.88898733892E+00  0.88000000000E+00 0.  1.
        -11    1    4    4    0    0 -0.42552366395E-01  0.28603171132E-02  0.41843219335E-01  0.59749488911E-01  0.51100000000E-03 0. -1.
         11    1    4    4    0    0 -0.37307095181E-01 -0.15195604946E-01  0.61643840105E-01  0.73640681042E-01  0.51100000000E-03 0.  1.
</event>
<event>
 8    1  0.1108957E+005  0.1043930E+01  0.7957747E-01            NaN
         13   -1    0    0    0    0  0.00000000000E+00  0.00000000000E+00  0.74505805969E-08  0.10566000000E+00  0.10566000000E+00 0.  1.
     999900   -1    0    0    0    0 -0.00000000000E+00 -0.00000000000E+00 -0.74505805969E-08  0.93827000000E+00  0.93827000000E+00 0.  1.
     999902    2    1    2    0    0 -0.19181614856E-01  0.15150395358E-01 -0.29823834278E-04  0.10194868063E+01  0.10191937395E+01 0.  0.
     999903    2    3    3    0    0 -0.42354926727E-01 -0.72580945618E-01 -0.96445664011E-01  0.12958242673E+00  0.20685882275E-01 0.  0.
         14    1    1    2    0    0  0.19181614856E-01 -0.15150395358E-01  0.29823834278E-04  0.24443193683E-01  0.00000000000E+00 0. -1.
     999901    1    3    3    0    0  0.23173311872E-01  0.87731340976E-01  0.96415840177E-01  0.88990437959E+00  0.88000000000E+00 0. -1.
        -11    1    4    4    0    0 -0.22401505230E-01 -0.34408840478E-01 -0.31962802890E-01  0.52035349804E-01  0.51100000000E-03 0. -1.
         11    1    4    4    0    0 -0.19953421497E-01 -0.38172105140E-01 -0.64482861121E-01  0.77547076925E-01  0.51100000000E-03 0.  1.
</event>
<event>
 8    1  0.1108957E+005  0.1043930E+01  0.7957747E-01            NaN
         13   -1    0    0    0    0  0.00000000000E+00  0.00000000000E+00  0.74505805969E-08  0.10566000000E+00  0.10566000000E+00 0.  1.
     999900   -1    0    0    0    0 -0.00000000000E+00 -0.00000000000E+00 -0.74505805969E-08  0.93827000000E+00  0.93827000000E+00 0.  1.
     999902    2    1    2    0    0  0.31603928296E-02 -0.16933255102E-01  0.13801137071E-01  0.10218575150E+01  0.10216191004E+01 0.  0.
     999903    2    3    3    0    0 -0.29285670981E-01 -0.31719466426E-01  0.12565026219E+00  0.13406158915E+00  0.17909389179E-01 0.  0.
         14    1    1    2    0    0 -0.31603928296E-02  0.16933255102E-01 -0.13801137071E-01  0.22072485035E-01  0.00000000000E+00 0. -1.
     999901    1    3    3    0    0  0.32446063810E-01  0.14786211324E-01 -0.11184912512E+00  0.88779592581E+00  0.88000000000E+00 0.  1.
        -11    1    4    4    0    0 -0.19289476508E-01 -0.27393647965E-01  0.73412352963E-01  0.80697772841E-01  0.51100000000E-03 0.  1.
         11    1    4    4    0    0 -0.99961944723E-02 -0.43258184609E-02  0.52237909231E-01  0.53363816310E-01  0.51100000000E-03 0. -1.
</event>
<event>
 8    1  0.1108957E+005  0.1043930E+01  0.7957747E-01            NaN
         13   -1    0    0    0    0  0.00000000000E+00  0.00000000000E+00  0.74505805969E-08  0.10566000000E+00  0.10566000000E+00 0. -1.
     999900   -1    0    0    0    0 -0.00000000000E+00 -0.00000000000E+00 -0.74505805969E-08  0.93827000000E+00  0.93827000000E+00 0.  1.
     999902    2    1    2    0    0 -0.43682524961E-02  0.15276870002E-01 -0.17404914424E-01  0.10203631709E+01  0.10200909788E+01 0.  0.
     999903    2    3    3    0    0  0.19715792402E-01 -0.12413082154E+00  0.14213818099E-01  0.12850315392E+00  0.22668361534E-01 0.  0.
         14    1    1    2    0    0  0.43682524961E-02 -0.15276870002E-01  0.17404914424E-01  0.23566829083E-01  0.00000000000E+00 0. -1.
     999901    1    3    3    0    0 -0.24084044898E-01  0.13940769154E+00 -0.31618732523E-01  0.89186001700E+00  0.88000000000E+00 0. -1.
        -11    1    4    4    0    0  0.68010367620E-02 -0.53992724635E-01  0.17334725955E-01  0.57115866968E-01  0.51100000000E-03 0.  1.
         11    1    4    4    0    0  0.12914755640E-01 -0.70138096907E-01 -0.31209078556E-02  0.71387286948E-01  0.51100000000E-03 0. -1.
</event>
<event>
 8    1  0.1108957E+005  0.1043930E+01  0.7957747E-01            NaN
         13   -1    0    0    0    0  0.00000000000E+00  0.00000000000E+00  0.74505805969E-08  0.10566000000E+00  0.10566000000E+00 0.  1.
     999900   -1    0    0    0    0 -0.00000000000E+00 -0.00000000000E+00 -0.74505805969E-08  0.93827000000E+00  0.93827000000E+00 0.  1.
     999902    2    1    2    0    0  0.21517711701E-01 -0.77796196870E-02 -0.47948840348E-03  0.10210441024E+01  0.10207875855E+01 0.  0.
     999903    2    3    3    0    0 -0.69306798011E-01  0.93889433009E-01 -0.49895372936E-01  0.12917661366E+00  0.24049769144E-01 0.  0.
         14    1    1    2    0    0 -0.21517711701E-01  0.77796196870E-02  0.47948840348E-03  0.22885897589E-01  0.00000000000E+00 0. -1.
     999901    1    3    3    0    0  0.90824509712E-01 -0.10166905270E+00  0.49415884532E-01  0.89186748875E+00  0.88000000000E+00 0.  1.
        -11    1    4    4    0    0 -0.36218597494E-01  0.33983551396E-01 -0.29480293475E-01  0.57758266891E-01  0.51100000000E-03 0.  1.
         11    1    4    4    0    0 -0.33088200517E-01  0.59905881613E-01 -0.20415079461E-01  0.71418346772E-01  0.51100000000E-03 0. -1.
</event>
<event>
 8    1  0.1108957E+005  0.1043930E+01  0.7957747E-01            NaN
         13   -1    0    0    0    0  0.00000000000E+00  0.00000000000E+00  0.74505805969E-08  0.10566000000E+00  0.10566000000E+00 0.  1.
     999900   -1    0    0    0    0 -0.00000000000E+00 -0.00000000000E+00 -0.74505805969E-08  0.93827000000E+00  0.93827000000E+00 0. -1.
     999902    2    1    2    0    0 -0.18947639053E-01  0.18900458009E-01 -0.86598787128E-02  0.10158011209E+01  0.10154115833E+01 0.  0.
     999903    2    3    3    0    0  0.40540726122E-01 -0.99242468653E-01 -0.60107930854E-01  0.12442941463E+00  0.19419006550E-01 0.  0.
         14    1    1    2    0    0  0.18947639053E-01 -0.18900458009E-01  0.86598787128E-02  0.28128879074E-01  0.00000000000E+00 0. -1.
     999901    1    3    3    0    0 -0.59488365175E-01  0.11814292666E+00  0.51448052141E-01  0.89137170629E+00  0.88000000000E+00 0.  1.
        -11    1    4    4    0    0  0.52074984454E-02 -0.36759364345E-01 -0.21993947440E-01  0.43155112699E-01  0.51100000000E-03 0. -1.
         11    1    4    4    0    0  0.35333227677E-01 -0.62483104309E-01 -0.38113983413E-01  0.81274301933E-01  0.51100000000E-03 0.  1.
</event>
<event>
 8    1  0.1108957E+005  0.1043930E+01  0.7957747E-01            NaN
         13   -1    0    0    0    0  0.00000000000E+00  0.00000000000E+00  0.74505805969E-08  0.10566000000E+00  0.10566000000E+00 0.  1.
     999900   -1    0    0    0    0 -0.00000000000E+00 -0.00000000000E+00 -0.74505805969E-08  0.93827000000E+00  0.93827000000E+00 0. -1.
     999902    2    1    2    0    0 -0.14057180404E-01  0.27052790758E-02  0.18901993620E-01  0.10202190696E+01  0.10199434993E+01 0.  0.
     999903    2    3    3    0    0  0.79058518628E-01 -0.10022304993E+00  0.50366089932E-02  0.12923252473E+00  0.19513300903E-01 0.  0.
         14    1    1    2    0    0  0.14057180404E-01 -0.27052790758E-02 -0.18901993620E-01  0.23710930361E-01  0.00000000000E+00 0. -1.
     999901    1    3    3    0    0 -0.93115699032E-01  0.10292832901E+00  0.13865384627E-01  0.89098654491E+00  0.88000000000E+00 0.  1.
        -11    1    4    4    0    0  0.47006077004E-01 -0.70320295692E-01  0.97300971414E-02  0.85143708945E-01  0.51100000000E-03 0.  1.
         11    1    4    4    0    0  0.32052441623E-01 -0.29902754242E-01 -0.46934881482E-02  0.44088815784E-01  0.51100000000E-03 0. -1.
</event>
<event>
 8    1  0.1108957E+005  0.1043930E+01  0.7957747E-01            NaN
         13   -1    0    0    0    0  0.00000000000E+00  0.00000000000E+00  0.74505805969E-08  0.10566000000E+00  0.10566000000E+00 0. -1.
     999900   -1    0    0    0    0 -0.00000000000E+00 -0.00000000000E+00 -0.74505805969E-08  0.93827000000E+00  0.93827000000E+00 0.  1.
     999902    2    1    2    0    0 -0.22412055371E-01 -0.57126764853E-03  0.84365841880E-02  0.10199758245E+01  0.10196945033E+01 0.  0.
     999903    2    3    3    0    0  0.25212311464E-01 -0.11295522436E+00  0.56122667928E-01  0.13027239263E+00  0.20654274791E-01 0.  0.
         14    1    1    2    0    0  0.22412055371E-01  0.57126764853E-03 -0.84365841880E-02  0.23954175532E-01  0.00000000000E+00 0.  1.
     999901    1    3    3    0    0 -0.47624366835E-01  0.11238395671E+00 -0.47686083740E-01  0.88970343184E+00  0.88000000000E+00 0.  1.
        -11    1    4    4    0    0  0.18121447802E-01 -0.71690549083E-01  0.24851171260E-01  0.78011303875E-01  0.51100000000E-03 0. -1.
         11    1    4    4    0    0  0.70908636619E-02 -0.41264675274E-01  0.31271496668E-01  0.52261088755E-01  0.51100000000E-03 0.  1.
</event>
<event>
 8    1  0.1108957E+005  0.1043930E+01  0.7957747E-01            NaN
         13   -1    0    0    0    0  0.00000000000E+00  0.00000000000E+00  0.74505805969E-08  0.10566000000E+00  0.10566000000E+00 0.  1.
     999900   -1    0    0    0    0 -0.00000000000E+00 -0.00000000000E+00 -0.74505805969E-08  0.93827000000E+00  0.93827000000E+00 0. -1.
     999902    2    1    2    0    0 -0.72241128159E-02  0.21706325630E-01 -0.14090225086E-02  0.10210097530E+01  0.10207524568E+01 0.  0.
     999903    2    3    3    0    0  0.72338613661E-01  0.95100791553E-01 -0.54348126642E-01  0.13279833457E+00  0.20115745448E-01 0.  0.
         14    1    1    2    0    0  0.72241128159E-02 -0.21706325630E-01  0.14090225086E-02  0.22920247005E-01  0.00000000000E+00 0.  1.
     999901    1    3    3    0    0 -0.79562726476E-01 -0.73394465923E-01  0.52939104133E-01  0.88821141842E+00  0.88000000000E+00 0. -1.
        -11    1    4    4    0    0  0.72354687968E-02  0.22551437665E-01 -0.10681553941E-01  0.25986074445E-01  0.51100000000E-03 0. -1.
         11    1    4    4    0    0  0.65103144864E-01  0.72549353889E-01 -0.43666572701E-01  0.10681226013E+00  0.51100000000E-03 0.  1.
</event>
<event>
 8    1  0.1108957E+005  0.1043930E+01  0.7957747E-01            NaN
         13   -1    0    0    0    0  0.00000000000E+00  0.00000000000E+00  0.74505805969E-08  0.10566000000E+00  0.10566000000E+00 0. -1.
     999900   -1    0    0    0    0 -0.00000000000E+00 -0.00000000000E+00 -0.74505805969E-08  0.93827000000E+00  0.93827000000E+00 0.  1.
     999902    2    1    2    0    0  0.14771416076E-01 -0.16646442851E-01  0.10665359415E-01  0.10192510883E+01  0.10189522718E+01 0.  0.
     999903    2    3    3    0    0  0.12760690218E+00 -0.27193083013E-01 -0.11797267060E-02  0.13190482857E+00  0.19352178138E-01 0.  0.
         14    1    1    2    0    0 -0.14771416076E-01  0.16646442851E-01 -0.10665359415E-01  0.24678911725E-01  0.00000000000E+00 0. -1.
     999901    1    3    3    0    0 -0.11283548610E+00  0.10546640162E-01  0.11845086121E-01  0.88734625970E+00  0.88000000000E+00 0.  1.
        -11    1    4    4    0    0  0.77413841857E-01 -0.23615583601E-01 -0.70340171875E-02  0.81242459457E-01  0.51100000000E-03 0. -1.
         11    1    4    4    0    0  0.50193060320E-01 -0.35774994125E-02  0.58542904816E-02  0.50662369115E-01  0.51100000000E-03 0.  1.
</event>
<event>
 8    1  0.1108957E+005  0.1043930E+01  0.7957747E-01            NaN
         13   -1    0    0    0    0  0.00000000000E+00  0.00000000000E+00  0.74505805969E-08  0.10566000000E+00  0.10566000000E+00 0. -1.
     999900   -1    0    0    0    0 -0.00000000000E+00 -0.00000000000E+00 -0.74505805969E-08  0.93827000000E+00  0.93827000000E+00 0.  1.
     999902    2    1    2    0    0  0.46239325025E-02 -0.79060597194E-02 -0.22188113334E-01  0.10199258565E+01  0.10196433464E+01 0.  0.
     999903    2    3    3    0    0  0.46779811225E-01  0.11497668584E+00 -0.33691497234E-01  0.13031379773E+00  0.20942298534E-01 0.  0.
         14    1    1    2    0    0 -0.46239325025E-02  0.79060597194E-02  0.22188113334E-01  0.24004143505E-01  0.00000000000E+00 0. -1.
     999901    1    3    3    0    0 -0.42155878722E-01 -0.12288274556E+00  0.11503383899E-01  0.88961205877E+00  0.88000000000E+00 0. -1.
        -11    1    4    4    0    0  0.90141966844E-03  0.85000963831E-02 -0.76534400322E-02  0.11484792609E-01  0.51100000000E-03 0.  1.
         11    1    4    4    0    0  0.45878391556E-01  0.10647658945E+00 -0.26038057201E-01  0.11882900512E+00  0.51100000000E-03 0. -1.
</event>
<event>
 8    1  0.1108957E+005  0.1043930E+01  0.7957747E-01            NaN
         13   -1    0    0    0    0  0.00000000000E+00  0.00000000000E+00  0.74505805969E-08  0.10566000000E+00  0.10566000000E+00 0. -1.
     999900   -1    0    0    0    0 -0.00000000000E+00 -0.00000000000E+00 -0.74505805969E-08  0.93827000000E+00  0.93827000000E+00 0. -1.
     999902    2    1    2    0    0  0.24706937315E-02 -0.22774520648E-01  0.31776569556E-02  0.10208025137E+01  0.10205404898E+01 0.  0.
     999903    2    3    3    0    0  0.20014867312E-01  0.42830445115E-01  0.11999293828E+00  0.13048929944E+00  0.19852206153E-01 0.  0.
         14    1    1    2    0    0 -0.24706937315E-02  0.22774520648E-01 -0.31776569556E-02  0.23127486287E-01  0.00000000000E+00 0.  1.
     999901    1    3    3    0    0 -0.17544173581E-01 -0.65604965762E-01 -0.11681528132E+00  0.89031321427E+00  0.88000000000E+00 0. -1.
        -11    1    4    4    0    0  0.17616170452E-01  0.34905066997E-01  0.73420144179E-01  0.83183362854E-01  0.51100000000E-03 0.  1.
         11    1    4    4    0    0  0.23986968606E-02  0.79253781171E-02  0.46572794100E-01  0.47305936585E-01  0.51100000000E-03 0. -1.
</event>
<event>
 8    1  0.1108957E+005  0.1043930E+01  0.7957747E-01            NaN
         13   -1    0    0    0    0  0.00000000000E+00  0.00000000000E+00  0.74505805969E-08  0.10566000000E+00  0.10566000000E+00 0.  1.
     999900   -1    0    0    0    0 -0.00000000000E+00 -0.00000000000E+00 -0.74505805969E-08  0.93827000000E+00  0.93827000000E+00 0. -1.
     999902    2    1    2    0    0  0.43387710362E-02  0.16803901138E-01 -0.16845060482E-01  0.10197442172E+01  0.10194573637E+01 0.  0.
     999903    2    3    3    0    0  0.50875831088E-01  0.10620981036E+00  0.54697852809E-01  0.13110621271E+00  0.18113804244E-01 0.  0.
         14    1    1    2    0    0 -0.43387710362E-02 -0.16803901138E-01  0.16845060482E-01  0.24185782811E-01  0.00000000000E+00 0. -1.
     999901    1    3    3    0    0 -0.46537060052E-01 -0.89405909220E-01 -0.71542913291E-01  0.88863800448E+00  0.88000000000E+00 0. -1.
        -11    1    4    4    0    0  0.17037770343E-01  0.43877193375E-01  0.30837167056E-01  0.56273312590E-01  0.51100000000E-03 0. -1.
         11    1    4    4    0    0  0.33838060745E-01  0.62332616983E-01  0.23860685752E-01  0.74832900121E-01  0.51100000000E-03 0.  1.
</event>
<event>
 8    1  0.1108957E+005  0.1043930E+01  0.7957747E-01            NaN
         13   -1    0    0    0    0  0.00000000000E+00  0.00000000000E+00  0.74505805969E-08  0.10566000000E+00  0.10566000000E+00 0. -1.
     999900   -1    0    0    0    0 -0.00000000000E+00 -0.00000000000E+00 -0.74505805969E-08  0.93827000000E+00  0.93827000000E+00 0.  1.
     999902    2    1    2    0    0 -0.74652374978E-02  0.20626552757E-01  0.68634345358E-02  0.10209454142E+01  0.10206866550E+01 0.  0.
     999903    2    3    3    0    0  0.12048563308E+00 -0.94101392215E-02  0.44463041037E-01  0.13039089116E+00  0.20481308035E-01 0.  0.
         14    1    1    2    0    0  0.74652374978E-02 -0.20626552757E-01 -0.68634345358E-02  0.22984585773E-01  0.00000000000E+00 0.  1.
     999901    1    3    3    0    0 -0.12795087058E+00  0.30036691979E-01 -0.37599606501E-01  0.89055452307E+00  0.88000000000E+00 0. -1.
        -11    1    4    4    0    0  0.46995460355E-01  0.55789645798E-02  0.21215993702E-01  0.51865958484E-01  0.51100000000E-03 0.  1.
         11    1    4    4    0    0  0.73490172730E-01 -0.14989103801E-01  0.23247047335E-01  0.78524932674E-01  0.51100000000E-03 0. -1.
</event>
<event>
 8    1  0.1108957E+005  0.1043930E+01  0.7957747E-01            NaN
         13   -1    0    0    0    0  0.00000000000E+00  0.00000000000E+00  0.74505805969E-08  0.10566000000E+00  0.10566000000E+00 0. -1.
     999900   -1    0    0    0    0 -0.00000000000E+00 -0.00000000000E+00 -0.74505805969E-08  0.93827000000E+00  0.93827000000E+00 0. -1.
     999902    2    1    2    0    0 -0.23960188953E-01 -0.45892521461E-02 -0.54045864093E-02  0.10189427744E+01  0.10186363512E+01 0.  0.
     999903    2    3    3    0    0  0.75892633454E-01  0.93989602438E-01 -0.34759482893E-01  0.12734303982E+00  0.20354138681E-01 0.  0.
         14    1    1    2    0    0  0.23960188953E-01  0.45892521461E-02  0.54045864093E-02  0.24987225620E-01  0.00000000000E+00 0. -1.
     999901    1    3    3    0    0 -0.99852822406E-01 -0.98578854585E-01  0.29354896484E-01  0.89159973456E+00  0.88000000000E+00 0. -1.
        -11    1    4    4    0    0  0.37534407374E-01  0.60808661628E-01 -0.15748081775E-01  0.73176418787E-01  0.51100000000E-03 0. -1.
         11    1    4    4    0    0  0.38358226080E-01  0.33180940811E-01 -0.19011401119E-01  0.54166621037E-01  0.51100000000E-03 0.  1.
</event>
<event>
 8    1  0.1108957E+005  0.1043930E+01  0.7957747E-01            NaN
         13   -1    0    0    0    0  0.00000000000E+00  0.00000000000E+00  0.74505805969E-08  0.10566000000E+00  0.10566000000E+00 0. -1.
     999900   -1    0    0    0    0 -0.00000000000E+00 -0.00000000000E+00 -0.74505805969E-08  0.93827000000E+00  0.93827000000E+00 0. -1.
     999902    2    1    2    0    0 -0.70908615727E-02 -0.23053723533E-01 -0.12456428581E-01  0.10167837830E+01  0.10164213419E+01 0.  0.
     999903    2    3    3    0    0 -0.11029454626E+00 -0.28701301618E-02 -0.64100421035E-01  0.12901946743E+00  0.19079685952E-01 0.  0.
         14    1    1    2    0    0  0.70908615727E-02  0.23053723533E-01  0.12456428581E-01  0.27146217040E-01  0.00000000000E+00 0. -1.
     999901    1    3    3    0    0  0.10320368469E+00 -0.20183593372E-01  0.51643992453E-01  0.88776431553E+00  0.88000000000E+00 0. -1.
        -11    1    4    4    0    0 -0.91727686454E-01 -0.70750738051E-02 -0.46487640680E-01  0.10307951779E+00  0.51100000000E-03 0. -1.
         11    1    4    4    0    0 -0.18566859809E-01  0.42049436432E-02 -0.17612780355E-01  0.25939949634E-01  0.51100000000E-03 0.  1.
</event>
<event>
 8    1  0.1108957E+005  0.1043930E+01  0.7957747E-01            NaN
         13   -1    0    0    0    0  0.00000000000E+00  0.00000000000E+00  0.74505805969E-08  0.10566000000E+00  0.10566000000E+00 0. -1.
     999900   -1    0    0    0    0 -0.00000000000E+00 -0.00000000000E+00 -0.74505805969E-08  0.93827000000E+00  0.93827000000E+00 0. -1.
     999902    2    1    2    0    0  0.87528807278E-02 -0.21313835342E-01  0.37567686409E-02  0.10205846405E+01  0.10203175989E+01 0.  0.
     999903    2    3    3    0    0 -0.42420335730E-01 -0.42685058643E-01  0.11461327146E+00  0.13189763630E+00  0.25284092904E-01 0.  0.
         14    1    1    2    0    0 -0.87528807278E-02  0.21313835342E-01 -0.37567686409E-02  0.23345359467E-01  0.00000000000E+00 0.  1.
     999901    1    3    3    0    0  0.51173216458E-01  0.21371223301E-01 -0.11085650282E+00  0.88868700423E+00  0.88000000000E+00 0. -1.
        -11    1    4    4    0    0 -0.42143925922E-01 -0.28997162845E-01  0.96069555585E-01  0.10884193391E+00  0.51100000000E-03 0. -1.
         11    1    4    4    0    0 -0.27640980849E-03 -0.13687895798E-01  0.18543715871E-01  0.23055702399E-01  0.51100000000E-03 0.  1.
</event>
<event>
 8    1  0.1108957E+005  0.1043930E+01  0.7957747E-01            NaN
         13   -1    0    0    0    0  0.00000000000E+00  0.00000000000E+00  0.74505805969E-08  0.10566000000E+00  0.10566000000E+00 0.  1.
     999900   -1    0    0    0    0 -0.00000000000E+00 -0.00000000000E+00 -0.74505805969E-08  0.93827000000E+00  0.93827000000E+00 0. -1.
     999902    2    1    2    0    0 -0.17704409133E-01 -0.11496262066E-01  0.88226478044E-02  0.10210509865E+01  0.10207946257E+01 0.  0.
     999903    2    3    3    0    0  0.22410174704E-01 -0.11971867145E+00 -0.46106293893E-01  0.13181622652E+00  0.20370346457E-01 0.  0.
         14    1    1    2    0    0  0.17704409133E-01  0.11496262066E-01 -0.88226478044E-02  0.22879013495E-01  0.00000000000E+00 0. -1.
     999901    1    3    3    0    0 -0.40114583836E-01  0.10822240938E+00  0.54928941697E-01  0.88923475998E+00  0.88000000000E+00 0.  1.
        -11    1    4    4    0    0  0.11470983835E-01 -0.93251323604E-01 -0.41863940198E-01  0.10286031029E+00  0.51100000000E-03 0.  1.
         11    1    4    4    0    0  0.10939190869E-01 -0.26467347842E-01 -0.42423536946E-02  0.28955916226E-01  0.51100000000E-03 0. -1.
</event>
<event>
 8    1  0.1108957E+005  0.1043930E+01  0.7957747E-01            NaN
         13   -1    0    0    0    0  0.00000000000E+00  0.00000000000E+00  0.74505805969E-08  0.10566000000E+00  0.10566000000E+00 0.  1.
     999900   -1    0    0    0    0 -0.00000000000E+00 -0.00000000000E+00 -0.74505805969E-08  0.93827000000E+00  0.93827000000E+00 0. -1.
     999902    2    1    2    0    0 -0.55600896388E-02 -0.22177973098E-01  0.28778121630E-02  0.10208852850E+01  0.10206251546E+01 0.  0.
     999903    2    3    3    0    0  0.56938017249E-01  0.68928297758E-01  0.91692592368E-01  0.12954111400E+00  0.19501812257E-01 0.  0.
         14    1    1    2    0    0  0.55600896388E-02  0.22177973098E-01 -0.28778121630E-02  0.23044715021E-01  0.00000000000E+00 0. -1.
     999901    1    3    3    0    0 -0.62498106888E-01 -0.91106270857E-01 -0.88814780205E-01  0.89134417098E+00  0.88000000000E+00 0.  1.
        -11    1    4    4    0    0  0.10251660423E-01  0.30848236717E-02  0.91578482839E-02  0.14097516970E-01  0.51100000000E-03 0.  1.
         11    1    4    4    0    0  0.46686356826E-01  0.65843474087E-01  0.82534744084E-01  0.11544359703E+00  0.51100000000E-03 0. -1.
</event>
<event>
 8    1  0.1108957E+005  0.1043930E+01  0.7957747E-01            NaN
         13   -1    0    0    0    0  0.00000000000E+00  0.00000000000E+00  0.74505805969E-08  0.10566000000E+00  0.10566000000E+00 0.  1.
     999900   -1    0    0    0    0 -0.00000000000E+00 -0.00000000000E+00 -0.74505805969E-08  0.93827000000E+00  0.93827000000E+00 0.  1.
     999902    2    1    2    0    0 -0.12326627040E-01  0.15970270038E-01 -0.12448778733E-01  0.10202241494E+01  0.10199486986E+01 0.  0.
     999903    2    3    3    0    0  0.27961089483E-01 -0.94346795552E-01  0.78774470630E-01  0.12774746274E+00  0.20757086917E-01 0.  0.
         14    1    1    2    0    0  0.12326627040E-01 -0.15970270038E-01  0.12448778733E-01  0.23705850569E-01  0.00000000000E+00 0.  1.
     999901    1    3    3    0    0 -0.40287716523E-01  0.11031706559E+00 -0.91223249364E-01  0.89247668669E+00  0.88000000000E+00 0. -1.
        -11    1    4    4    0    0 -0.17526466005E-02 -0.24919212993E-01  0.17671962386E-01  0.30603893900E-01  0.51100000000E-03 0. -1.
         11    1    4    4    0    0  0.29713736084E-01 -0.69427582559E-01  0.61102508245E-01  0.97143568839E-01  0.51100000000E-03 0.  1.
</event>
<event>
 8    1  0.1108957E+005  0.1043930E+01  0.7957747E-01            NaN
         13   -1    0    0    0    0  0.00000000000E+00  0.00000000000E+00  0.74505805969E-08  0.10566000000E+00  0.10566000000E+00 0. -1.
     999900   -1    0    0    0    0 -0.00000000000E+00 -0.00000000000E+00 -0.74505805969E-08  0.93827000000E+00  0.93827000000E+00 0. -1.
     999902    2    1    2    0    0 -0.20501774599E-02  0.23460567818E-01 -0.41903872273E-04  0.10203799846E+01  0.10201081853E+01 0.  0.
     999903    2    3    3    0    0 -0.86659979176E-01 -0.90521295170E-01 -0.21697472590E-01  0.12874124200E+00  0.19986750702E-01 0.  0.
         14    1    1    2    0    0  0.20501774599E-02 -0.23460567818E-01  0.41903872273E-04  0.23550015411E-01  0.00000000000E+00 0.  1.
     999901    1    3    3    0    0  0.84609801716E-01  0.11398186299E+00  0.21655568718E-01  0.89163874259E+00  0.88000000000E+00 0. -1.
        -11    1    4    4    0    0 -0.56464288447E-01 -0.69975972239E-01 -0.20344883946E-01  0.92190172928E-01  0.51100000000E-03 0.  1.
         11    1    4    4    0    0 -0.30195690729E-01 -0.20545322931E-01 -0.13525886438E-02  0.36551069068E-01  0.51100000000E-03 0. -1.
</event>
<event>
 8    1  0.1108957E+005  0.1043930E+01  0.7957747E-01            NaN
         13   -1    0    0    0    0  0.00000000000E+00  0.00000000000E+00  0.74505805969E-08  0.10566000000E+00  0.10566000000E+00 0. -1.
     999900   -1    0    0    0    0 -0.00000000000E+00 -0.00000000000E+00 -0.74505805969E-08  0.93827000000E+00  0.93827000000E+00 0. -1.
     999902    2    1    2    0    0 -0.93566577113E-02  0.16826090507E-01 -0.14308479256E-01  0.10199425670E+01  0.10196604547E+01 0.  0.
     999903    2    3    3    0    0  0.10169942778E-01  0.10625742064E+00  0.73043337419E-01  0.13089274225E+00  0.20087649325E-01 0.  0.
         14    1    1    2    0    0  0.93566577113E-02 -0.16826090507E-01  0.14308479256E-01  0.23987433040E-01  0.00000000000E+00 0. -1.
     999901    1    3    3    0    0 -0.19526600490E-01 -0.89431330135E-01 -0.87351816675E-01  0.88904982471E+00  0.88000000000E+00 0.  1.
        -11    1    4    4    0    0 -0.20245115994E-02  0.48194290800E-01  0.23818063665E-01  0.53799159758E-01  0.51100000000E-03 0. -1.
         11    1    4    4    0    0  0.12194454378E-01  0.58063129842E-01  0.49225273754E-01  0.77093582494E-01  0.51100000000E-03 0.  1.
</event>
<event>
 8    1  0.1108957E+005  0.1043930E+01  0.7957747E-01            NaN
         13   -1    0    0    0    0  0.00000000000E+00  0.00000000000E+00  0.74505805969E-08  0.10566000000E+00  0.10566000000E+00 0. -1.
     999900   -1    0    0    0    0 -0.00000000000E+00 -0.00000000000E+00 -0.74505805969E-08  0.93827000000E+00  0.93827000000E+00 0. -1.
     999902    2    1    2    0    0 -0.12641617293E-01 -0.19357631166E-01  0.40352766571E-02  0.10204606193E+01  0.10201906997E+01 0.  0.
     999903    2    3    3    0    0  0.82798050497E-01  0.50639784482E-02 -0.96959585998E-01  0.12922265587E+00  0.20400304618E-01 0.  0.
         14    1    1    2    0    0  0.12641617293E-01  0.19357631166E-01 -0.40352766571E-02  0.23469380688E-01  0.00000000000E+00 0. -1.
     999901    1    3    3    0    0 -0.95439667790E-01 -0.24421609615E-01  0.10099486265E+00  0.89123796345E+00  0.88000000000E+00 0.  1.
        -11    1    4    4    0    0  0.27371210297E-01  0.11212650936E-01 -0.36156086832E-01  0.46716489916E-01  0.51100000000E-03 0. -1.
         11    1    4    4    0    0  0.55426840200E-01 -0.61486724880E-02 -0.60803499166E-01  0.82506165950E-01  0.51100000000E-03 0.  1.
</event>
<event>
 8    1  0.1108957E+005  0.1043930E+01  0.7957747E-01            NaN
         13   -1    0    0    0    0  0.00000000000E+00  0.00000000000E+00  0.74505805969E-08  0.10566000000E+00  0.10566000000E+00 0. -1.
     999900   -1    0    0    0    0 -0.00000000000E+00 -0.00000000000E+00 -0.74505805969E-08  0.93827000000E+00  0.93827000000E+00 0. -1.
     999902    2    1    2    0    0  0.10934284037E-01 -0.13570026691E-02 -0.22157259689E-01  0.10191844109E+01  0.10188839577E+01 0.  0.
     999903    2    3    3    0    0 -0.29361846871E-01  0.15642955552E-01 -0.12617381188E+00  0.13197968825E+00  0.19798666509E-01 0.  0.
         14    1    1    2    0    0 -0.10934284037E-01  0.13570026691E-02  0.22157259689E-01  0.24745589114E-01  0.00000000000E+00 0. -1.
     999901    1    3    3    0    0  0.40296130908E-01 -0.16999958221E-01  0.10401655219E+00  0.88720472264E+00  0.88000000000E+00 0.  1.
        -11    1    4    4    0    0 -0.23520986260E-01  0.20395320181E-01 -0.99406449925E-01  0.10416865790E+00  0.51100000000E-03 0.  1.
         11    1    4    4    0    0 -0.58408606108E-02 -0.47523646292E-02 -0.26767361953E-01  0.27811030351E-01  0.51100000000E-03 0. -1.
</event>
<event>
 8    1  0.1108957E+005  0.1043930E+01  0.7957747E-01            NaN
         13   -1    0    0    0    0  0.00000000000E+00  0.00000000000E+00  0.74505805969E-08  0.10566000000E+00  0.10566000000E+00 0. -1.
     999900   -1    0    0    0    0 -0.00000000000E+00 -0.00000000000E+00 -0.74505805969E-08  0.93827000000E+00  0.93827000000E+00 0. -1.
     999902    2    1    2    0    0 -0.19271108773E-01  0.17001997023E-01  0.42315474744E-02  0.10178848559E+01  0.10175515861E+01 0.  0.
     999903    2    3    3    0    0 -0.11530097766E+00  0.53633505241E-01 -0.25835895832E-01  0.13139308819E+00  0.20634480266E-01 0.  0.
         14    1    1    2    0    0  0.19271108773E-01 -0.17001997023E-01 -0.42315474744E-02  0.26045144080E-01  0.00000000000E+00 0. -1.
     999901    1    3    3    0    0  0.96029868887E-01 -0.36631508218E-01  0.30067443306E-01  0.88649176773E+00  0.88000000000E+00 0.  1.
        -11    1    4    4    0    0 -0.75274172817E-01  0.45183463233E-01 -0.14968496327E-01  0.89062132505E-01  0.51100000000E-03 0.  1.
         11    1    4    4    0    0 -0.40026804844E-01  0.84500420078E-02 -0.10867399505E-01  0.42330955682E-01  0.51100000000E-03 0. -1.
</event>
<event>
 8    1  0.1108957E+005  0.1043930E+01  0.7957747E-01            NaN
         13   -1    0    0    0    0  0.00000000000E+00  0.00000000000E+00  0.74505805969E-08  0.10566000000E+00  0.10566000000E+00 0. -1.
     999900   -1    0    0    0    0 -0.00000000000E+00 -0.00000000000E+00 -0.74505805969E-08  0.93827000000E+00  0.93827000000E+00 0.  1.
     999902    2    1    2    0    0 -0.18129112865E-01  0.13908654646E-01  0.63962946803E-02  0.10202017891E+01  0.10199258122E+01 0.  0.
     999903    2    3    3    0    0 -0.90025978745E-01 -0.56655453580E-01 -0.73547166596E-01  0.13085404513E+00  0.19976940259E-01 0.  0.
         14    1    1    2    0    0  0.18129112865E-01 -0.13908654646E-01 -0.63962946803E-02  0.23728210910E-01  0.00000000000E+00 0. -1.
     999901    1    3    3    0    0  0.71896865879E-01  0.70564108226E-01  0.79943461277E-01  0.88934774396E+00  0.88000000000E+00 0. -1.
        -11    1    4    4    0    0 -0.36076070466E-01 -0.12082830083E-01 -0.29718529011E-01  0.48279703092E-01  0.51100000000E-03 0. -1.
         11    1    4    4    0    0 -0.53949908279E-01 -0.44572623497E-01 -0.43828637585E-01  0.82574342033E-01  0.51100000000E-03 0.  1.
</event>
<event>
 8    1  0.1108957E+005  0.1043930E+01  0.7957747E-01            NaN
         13   -1    0    0    0    0  0.00000000000E+00  0.00000000000E+00  0.74505805969E-08  0.10566000000E+00  0.10566000000E+00 0. -1.
     999900   -1    0    0    0    0 -0.00000000000E+00 -0.00000000000E+00 -0.74505805969E-08  0.93827000000E+00  0.93827000000E+00 0. -1.
     999902    2    1    2    0    0  0.25534843863E-01  0.24678599038E-02 -0.50733859132E-02  0.10177793245E+01  0.10174433132E+01 0.  0.
     999903    2    3    3    0    0 -0.20708094434E-01 -0.12127587877E+00 -0.29923705115E-01  0.12757234826E+00  0.15576006105E-01 0.  0.
         14    1    1    2    0    0 -0.25534843863E-01 -0.24678599038E-02  0.50733859132E-02  0.26150675484E-01  0.00000000000E+00 0.  1.
     999901    1    3    3    0    0  0.46242938297E-01  0.12374373868E+00  0.24850319202E-01  0.89020697625E+00  0.88000000000E+00 0. -1.
        -11    1    4    4    0    0 -0.71959442745E-02 -0.79227914196E-01 -0.23391544920E-01  0.82923274758E-01  0.51100000000E-03 0. -1.
         11    1    4    4    0    0 -0.13512150159E-01 -0.42047964578E-01 -0.65321601944E-02  0.44649073506E-01  0.51100000000E-03 0.  1.
</event>
<event>
 8    1  0.1108957E+005  0.1043930E+01  0.7957747E-01            NaN
         13   -1    0    0    0    0  0.00000000000E+00  0.00000000000E+00  0.74505805969E-08  0.10566000000E+00  0.10566000000E+00 0.  1.
     999900   -1    0    0    0    0 -0.00000000000E+00 -0.00000000000E+00 -0.74505805969E-08  0.93827000000E+00  0.93827000000E+00 0.  1.
     999902    2    1    2    0    0 -0.13710853127E-01 -0.14359821420E-01  0.59872557066E-02  0.10231926136E+01  0.10229824462E+01 0.  0.
     999903    2    3    3    0    0  0.71111876780E-01  0.11710729041E-01  0.10889086095E+00  0.13276366016E+00  0.23977691037E-01 0.  0.
         14    1    1    2    0    0  0.13710853127E-01  0.14359821420E-01 -0.59872557066E-02  0.20737386421E-01  0.00000000000E+00 0. -1.
     999901    1    3    3    0    0 -0.84822729907E-01 -0.26070550462E-01 -0.10290360524E+00  0.89042895342E+00  0.88000000000E+00 0.  1.
        -11    1    4    4    0    0  0.37530454884E-01  0.18189168613E-01  0.61973244761E-01  0.74701573516E-01  0.51100000000E-03 0.  1.
         11    1    4    4    0    0  0.33581421896E-01 -0.64784395712E-02  0.46917616189E-01  0.58062086646E-01  0.51100000000E-03 0. -1.
</event>
<event>
 8    1  0.1108957E+005  0.1043930E+01  0.7957747E-01            NaN
         13   -1    0    0    0    0  0.00000000000E+00  0.00000000000E+00  0.74505805969E-08  0.10566000000E+00  0.10566000000E+00 0. -1.
     999900   -1    0    0    0    0 -0.00000000000E+00 -0.00000000000E+00 -0.74505805969E-08  0.93827000000E+00  0.93827000000E+00 0.  1.
     999902    2    1    2    0    0  0.65700093003E-02 -0.15785039437E-01 -0.16174689243E-01  0.10203937925E+01  0.10201223155E+01 0.  0.
     999903    2    3    3    0    0  0.66663162076E-01  0.98594893183E-01  0.44922646293E-01  0.12886317584E+00  0.20560734383E-01 0.  0.
         14    1    1    2    0    0 -0.65700093003E-02  0.15785039437E-01  0.16174689243E-01  0.23536207518E-01  0.00000000000E+00 0. -1.
     999901    1    3    3    0    0 -0.60093152775E-01 -0.11437993262E+00 -0.61097335536E-01  0.89153061664E+00  0.88000000000E+00 0.  1.
        -11    1    4    4    0    0  0.51096584907E-01  0.66042842942E-01  0.39490686454E-01  0.92370414801E-01  0.51100000000E-03 0.  1.
         11    1    4    4    0    0  0.15566577169E-01  0.32552050242E-01  0.54319598393E-02  0.36492761041E-01  0.51100000000E-03 0. -1.
</event>
<event>
 8    1  0.1108957E+005  0.1043930E+01  0.7957747E-01            NaN
         13   -1    0    0    0    0  0.00000000000E+00  0.00000000000E+00  0.74505805969E-08  0.10566000000E+00  0.10566000000E+00 0.  1.
     999900   -1    0    0    0    0 -0.00000000000E+00 -0.00000000000E+00 -0.74505805969E-08  0.93827000000E+00  0.93827000000E+00 0. -1.
     999902    2    1    2    0    0  0.18607168651E-01 -0.12008867521E-01 -0.82289936475E-02  0.10203046754E+01  0.10200311146E+01 0.  0.
     999903    2    3    3    0    0 -0.56418401239E-01  0.53431188629E-01 -0.10189394189E+00  0.12975183612E+00  0.20377332156E-01 0.  0.
         14    1    1    2    0    0 -0.18607168651E-01  0.12008867521E-01  0.82289936475E-02  0.23625324564E-01  0.00000000000E+00 0. -1.
     999901    1    3    3    0    0  0.75025569890E-01 -0.65440056149E-01  0.93664948242E-01  0.89055283932E+00  0.88000000000E+00 0.  1.
        -11    1    4    4    0    0 -0.12408513724E-01  0.20589196776E-01 -0.42721831913E-01  0.49023487022E-01  0.51100000000E-03 0.  1.
         11    1    4    4    0    0 -0.44009887515E-01  0.32841991853E-01 -0.59172109976E-01  0.80728349097E-01  0.51100000000E-03 0. -1.
</event>
<event>
 8    1  0.1108957E+005  0.1043930E+01  0.7957747E-01            NaN
         13   -1    0    0    0    0  0.00000000000E+00  0.00000000000E+00  0.74505805969E-08  0.10566000000E+00  0.10566000000E+00 0. -1.
     999900   -1    0    0    0    0 -0.00000000000E+00 -0.00000000000E+00 -0.74505805969E-08  0.93827000000E+00  0.93827000000E+00 0. -1.
     999902    2    1    2    0    0  0.12136022921E-01  0.20514743032E-01 -0.44119039479E-03  0.10200902772E+01  0.10198116695E+01 0.  0.
     999903    2    3    3    0    0  0.12119462374E+00 -0.26209801823E-01 -0.38920278234E-01  0.13129468670E+00  0.18665909104E-01 0.  0.
         14    1    1    2    0    0 -0.12136022921E-01 -0.20514743032E-01  0.44119039479E-03  0.23839722795E-01  0.00000000000E+00 0.  1.
     999901    1    3    3    0    0 -0.10905860082E+00  0.46724544855E-01  0.38479087839E-01  0.88879559051E+00  0.88000000000E+00 0. -1.
        -11    1    4    4    0    0  0.78458674316E-01 -0.11641127641E-01 -0.32362164494E-01  0.85667089597E-01  0.51100000000E-03 0. -1.
         11    1    4    4    0    0  0.42735949422E-01 -0.14568674182E-01 -0.65581137399E-02  0.45627597101E-01  0.51100000000E-03 0.  1.
</event>
<event>
 8    1  0.1108957E+005  0.1043930E+01  0.7957747E-01            NaN
         13   -1    0    0    0    0  0.00000000000E+00  0.00000000000E+00  0.74505805969E-08  0.10566000000E+00  0.10566000000E+00 0. -1.
     999900   -1    0    0    0    0 -0.00000000000E+00 -0.00000000000E+00 -0.74505805969E-08  0.93827000000E+00  0.93827000000E+00 0.  1.
     999902    2    1    2    0    0 -0.15900693227E-01 -0.17464889007E-01 -0.35283515705E-02  0.10200489687E+01  0.10197693831E+01 0.  0.
     999903    2    3    3    0    0  0.64976790571E-01  0.22746755456E-01  0.10678600939E+00  0.12857412214E+00  0.19714332001E-01 0.  0.
         14    1    1    2    0    0  0.15900693227E-01  0.17464889007E-01  0.35283515705E-02  0.23881031342E-01  0.00000000000E+00 0.  1.
     999901    1    3    3    0    0 -0.80877483799E-01 -0.40211644463E-01 -0.11031436096E+00  0.89147484652E+00  0.88000000000E+00 0.  1.
        -11    1    4    4    0    0  0.24502403341E-01  0.11866017447E-01  0.26448695595E-01  0.37960041612E-01  0.51100000000E-03 0. -1.
         11    1    4    4    0    0  0.40474387231E-01  0.10880738009E-01  0.80337313797E-01  0.90614080530E-01  0.51100000000E-03 0.  1.
</event>
<event>
 8    1  0.1108957E+005  0.1043930E+01  0.7957747E-01            NaN
         13   -1    0    0    0    0  0.00000000000E+00  0.00000000000E+00  0.74505805969E-08  0.10566000000E+00  0.10566000000E+00 0.  1.
     999900   -1    0    0    0    0 -0.00000000000E+00 -0.00000000000E+00 -0.74505805969E-08  0.93827000000E+00  0.93827000000E+00 0.  1.
     999902    2    1    2    0    0  0.47713294846E-02  0.21390964606E-01 -0.80596166198E-02  0.10205784182E+01  0.10203112326E+01 0.  0.
     999903    2    3    3    0    0 -0.44264292024E-02  0.13195658761E+00 -0.97760651420E-02  0.13361037936E+00  0.18000770366E-01 0.  0.
         14    1    1    2    0    0 -0.47713294846E-02 -0.21390964606E-01  0.80596166198E-02  0.23351581786E-01  0.00000000000E+00 0. -1.
     999901    1    3    3    0    0  0.91977586870E-02 -0.11056562300E+00  0.17164485221E-02  0.88696803886E+00  0.88000000000E+00 0. -1.
        -11    1    4    4    0    0  0.25246209115E-02  0.10019898326E+00 -0.23498246717E-02  0.10025962674E+00  0.51100000000E-03 0.  1.
         11    1    4    4    0    0 -0.69510501139E-02  0.31757604345E-01 -0.74262404703E-02  0.33350752615E-01  0.51100000000E-03 0. -1.
</event>
<event>
 8    1  0.1108957E+005  0.1043930E+01  0.7957747E-01            NaN
         13   -1    0    0    0    0  0.00000000000E+00  0.00000000000E+00  0.74505805969E-08  0.10566000000E+00  0.10566000000E+00 0.  1.
     999900   -1    0    0    0    0 -0.00000000000E+00 -0.00000000000E+00 -0.74505805969E-08  0.93827000000E+00  0.93827000000E+00 0. -1.
     999902    2    1    2    0    0  0.22420391884E-01  0.25522290775E-02  0.66771633309E-02  0.10203976317E+01  0.10201262444E+01 0.  0.
     999903    2    3    3    0    0 -0.22074040409E-01 -0.47403543130E-01 -0.11667076675E+00  0.12928032996E+00  0.19156636992E-01 0.  0.
         14    1    1    2    0    0 -0.22420391884E-01 -0.25522290775E-02 -0.66771633309E-02  0.23532368254E-01  0.00000000000E+00 0. -1.
     999901    1    3    3    0    0  0.44494432293E-01  0.49955772207E-01  0.12334793008E+00  0.89111730178E+00  0.88000000000E+00 0.  1.
        -11    1    4    4    0    0 -0.16886456433E-01 -0.40505266394E-01 -0.76548202799E-01  0.88236712820E-01  0.51100000000E-03 0. -1.
         11    1    4    4    0    0 -0.51875839751E-02 -0.68982767355E-02 -0.40122563948E-01  0.41043617143E-01  0.51100000000E-03 0.  1.
</event>
<event>
 8    1  0.1108957E+005  0.1043930E+01  0.7957747E-01            NaN
         13   -1    0    0    0    0  0.00000000000E+00  0.00000000000E+00  0.74505805969E-08  0.10566000000E+00  0.10566000000E+00 0.  1.
     999900   -1    0    0    0    0 -0.00000000000E+00 -0.00000000000E+00 -0.74505805969E-08  0.93827000000E+00  0.93827000000E+00 0. -1.
     999902    2    1    2    0    0  0.25074798806E-01  0.13700129057E-01  0.10698457729E-02  0.10153365805E+01  0.10149338835E+01 0.  0.
     999903    2    3    3    0    0  0.40441341807E-01  0.93635686941E-01  0.75356840891E-01  0.12846320635E+00  0.20518233830E-01 0.  0.
         14    1    1    2    0    0 -0.25074798806E-01 -0.13700129057E-01 -0.10698457729E-02  0.28593419546E-01  0.00000000000E+00 0. -1.
     999901    1    3    3    0    0 -0.15366543001E-01 -0.79935557884E-01 -0.74286995118E-01  0.88687337411E+00  0.88000000000E+00 0.  1.
        -11    1    4    4    0    0  0.84071374377E-02  0.37803638969E-01  0.36812992127E-01  0.53434563622E-01  0.51100000000E-03 0.  1.
         11    1    4    4    0    0  0.32034204370E-01  0.55832047973E-01  0.38543848764E-01  0.75028642724E-01  0.51100000000E-03 0. -1.
</event>
<event>
 8    1  0.1108957E+005  0.1043930E+01  0.7957747E-01            NaN
         13   -1    0    0    0    0  0.00000000000E+00  0.00000000000E+00  0.74505805969E-08  0.10566000000E+00  0.10566000000E+00 0.  1.
     999900   -1    0    0    0    0 -0.00000000000E+00 -0.00000000000E+00 -0.74505805969E-08  0.93827000000E+00  0.93827000000E+00 0.  1.
     999902    2    1    2    0    0  0.14683985213E-01 -0.17594296290E-01 -0.74845709133E-02  0.10198219622E+01  0.10195369719E+01 0.  0.
     999903    2    3    3    0    0 -0.95981988590E-01  0.99414256461E-02  0.81654389936E-01  0.12799746823E+00  0.20113140004E-01 0.  0.
         14    1    1    2    0    0 -0.14683985213E-01  0.17594296290E-01  0.74845709133E-02  0.24108037776E-01  0.00000000000E+00 0. -1.
     999901    1    3    3    0    0  0.11066597380E+00 -0.27535721936E-01 -0.89138960849E-01  0.89182449399E+00  0.88000000000E+00 0. -1.
        -11    1    4    4    0    0 -0.44269014688E-01  0.10110844960E-01  0.49137839793E-01  0.66908618785E-01  0.51100000000E-03 0. -1.
         11    1    4    4    0    0 -0.51712973902E-01 -0.16941931393E-03  0.32516550143E-01  0.61088849448E-01  0.51100000000E-03 0.  1.
</event>
<event>
 8    1  0.1108957E+005  0.1043930E+01  0.7957747E-01            NaN
         13   -1    0    0    0    0  0.00000000000E+00  0.00000000000E+00  0.74505805969E-08  0.10566000000E+00  0.10566000000E+00 0. -1.
     999900   -1    0    0    0    0 -0.00000000000E+00 -0.00000000000E+00 -0.74505805969E-08  0.93827000000E+00  0.93827000000E+00 0. -1.
     999902    2    1    2    0    0 -0.12058120448E-01 -0.85081100895E-02  0.17792547457E-01  0.10208137514E+01  0.10205519850E+01 0.  0.
     999903    2    3    3    0    0 -0.11451686488E+00  0.39261486901E-01 -0.47053199882E-01  0.13121569625E+00  0.18654185277E-01 0.  0.
         14    1    1    2    0    0  0.12058120448E-01  0.85081100895E-02 -0.17792547457E-01  0.23116248637E-01  0.00000000000E+00 0.  1.
     999901    1    3    3    0    0  0.10245874443E+00 -0.47769596990E-01  0.64845747339E-01  0.88959805511E+00  0.88000000000E+00 0.  1.
        -11    1    4    4    0    0 -0.33636087425E-01  0.32297428207E-02 -0.15918978898E-01  0.37356292992E-01  0.51100000000E-03 0.  1.
         11    1    4    4    0    0 -0.80880777456E-01  0.36031744080E-01 -0.31134220984E-01  0.93859403261E-01  0.51100000000E-03 0. -1.
</event>
<event>
 8    1  0.1108957E+005  0.1043930E+01  0.7957747E-01            NaN
         13   -1    0    0    0    0  0.00000000000E+00  0.00000000000E+00  0.74505805969E-08  0.10566000000E+00  0.10566000000E+00 0.  1.
     999900   -1    0    0    0    0 -0.00000000000E+00 -0.00000000000E+00 -0.74505805969E-08  0.93827000000E+00  0.93827000000E+00 0. -1.
     999902    2    1    2    0    0 -0.18710531356E-01 -0.11109983322E-01 -0.10525011453E-01  0.10197578760E+01  0.10194713503E+01 0.  0.
     999903    2    3    3    0    0 -0.12604059117E+00  0.80413978367E-02  0.30838703863E-01  0.13206565789E+00  0.23225366205E-01 0.  0.
         14    1    1    2    0    0  0.18710531356E-01  0.11109983322E-01  0.10525011453E-01  0.24172124010E-01  0.00000000000E+00 0.  1.
     999901    1    3    3    0    0  0.10733005981E+00 -0.19151381159E-01 -0.41363715316E-01  0.88769221811E+00  0.88000000000E+00 0.  1.
        -11    1    4    4    0    0 -0.45000127141E-01 -0.82226343949E-02  0.10255362134E-01  0.46883437722E-01  0.51100000000E-03 0.  1.
         11    1    4    4    0    0 -0.81040464028E-01  0.16264032232E-01  0.20583341730E-01  0.85182220164E-01  0.51100000000E-03 0. -1.
</event>
<event>
 8    1  0.1108957E+005  0.1043930E+01  0.7957747E-01            NaN
         13   -1    0    0    0    0  0.00000000000E+00  0.00000000000E+00  0.74505805969E-08  0.10566000000E+00  0.10566000000E+00 0. -1.
     999900   -1    0    0    0    0 -0.00000000000E+00 -0.00000000000E+00 -0.74505805969E-08  0.93827000000E+00  0.93827000000E+00 0.  1.
     999902    2    1    2    0    0 -0.12383277633E-01 -0.10369613909E-01 -0.17393102039E-01  0.10201940682E+01  0.10199179097E+01 0.  0.
     999903    2    3    3    0    0 -0.11071975083E-01 -0.12847038128E+00 -0.22515921411E-01  0.13228880638E+00  0.19134630341E-01 0.  0.
         14    1    1    2    0    0  0.12383277633E-01  0.10369613909E-01  0.17393102039E-01  0.23735931751E-01  0.00000000000E+00 0. -1.
     999901    1    3    3    0    0 -0.13113025495E-02  0.11810076737E+00  0.51228193716E-02  0.88790526186E+00  0.88000000000E+00 0.  1.
        -11    1    4    4    0    0 -0.33143309302E-02 -0.36960624471E-01  0.22129703210E-02  0.37178366148E-01  0.51100000000E-03 0. -1.
         11    1    4    4    0    0 -0.77576441532E-02 -0.91509756812E-01 -0.24728891732E-01  0.95110440236E-01  0.51100000000E-03 0.  1.
</event>
<event>
 8    1  0.1108957E+005  0.1043930E+01  0.7957747E-01            NaN
         13   -1    0    0    0    0  0.00000000000E+00  0.00000000000E+00  0.74505805969E-08  0.10566000000E+00  0.10566000000E+00 0.  1.
     999900   -1    0    0    0    0 -0.00000000000E+00 -0.00000000000E+00 -0.74505805969E-08  0.93827000000E+00  0.93827000000E+00 0. -1.
     999902    2    1    2    0    0  0.13443336364E-01  0.13950725765E-01 -0.13248346540E-01  0.10204594924E+01  0.10201895465E+01 0.  0.
     999903    2    3    3    0    0  0.79433445794E-01 -0.72596720115E-01  0.69824462941E-01  0.12987190735E+00  0.20280547620E-01 0.  0.
         14    1    1    2    0    0 -0.13443336364E-01 -0.13950725765E-01  0.13248346540E-01  0.23470507621E-01  0.00000000000E+00 0.  1.
     999901    1    3    3    0    0 -0.65990109430E-01  0.86547445879E-01 -0.83072809482E-01  0.89058758503E+00  0.88000000000E+00 0. -1.
        -11    1    4    4    0    0  0.38995388218E-01 -0.40258138879E-01  0.47552597564E-01  0.73504208752E-01  0.51100000000E-03 0.  1.
         11    1    4    4    0    0  0.40438057576E-01 -0.32338581236E-01  0.22271865378E-01  0.56367698598E-01  0.51100000000E-03 0. -1.
</event>
<event>
 8    1  0.1108957E+005  0.1043930E+01  0.7957747E-01            NaN
         13   -1    0    0    0    0  0.00000000000E+00  0.00000000000E+00  0.74505805969E-08  0.10566000000E+00  0.10566000000E+00 0.  1.
     999900   -1    0    0    0    0 -0.00000000000E+00 -0.00000000000E+00 -0.74505805969E-08  0.93827000000E+00  0.93827000000E+00 0. -1.
     999902    2    1    2    0    0 -0.19996698525E-01  0.14300017736E-01 -0.32023335517E-02  0.10191386023E+01  0.10188370220E+01 0.  0.
     999903    2    3    3    0    0 -0.31900194398E-02  0.78278443180E-01 -0.10298856598E+00  0.13103219226E+00  0.20617948389E-01 0.  0.
         14    1    1    2    0    0  0.19996698525E-01 -0.14300017736E-01  0.32023335517E-02  0.24791397688E-01  0.00000000000E+00 0. -1.
     999901    1    3    3    0    0 -0.16806679085E-01 -0.63978425444E-01  0.99786232432E-01  0.88810641005E+00  0.88000000000E+00 0.  1.
        -11    1    4    4    0    0 -0.40007368803E-02  0.26481779232E-01 -0.51178184253E-01  0.57764679444E-01  0.51100000000E-03 0.  1.
         11    1    4    4    0    0  0.81071744050E-03  0.51796663947E-01 -0.51810381731E-01  0.73267512821E-01  0.51100000000E-03 0. -1.
</event>
<event>
 8    1  0.1108957E+005  0.1043930E+01  0.7957747E-01            NaN
         13   -1    0    0    0    0  0.00000000000E+00  0.00000000000E+00  0.74505805969E-08  0.10566000000E+00  0.10566000000E+00 0. -1.
     999900   -1    0    0    0    0 -0.00000000000E+00 -0.00000000000E+00 -0.74505805969E-08  0.93827000000E+00  0.93827000000E+00 0.  1.
     999902    2    1    2    0    0  0.18871504294E-01 -0.88542291062E-02  0.14659543037E-01  0.10184460197E+01  0.10181271344E+01 0.  0.
     999903    2    3    3    0    0  0.35192978678E-01 -0.26910561254E-01 -0.11849792901E+00  0.12809590097E+00  0.20101656899E-01 0.  0.
         14    1    1    2    0    0 -0.18871504294E-01  0.88542291062E-02 -0.14659543037E-01  0.25483980251E-01  0.00000000000E+00 0.  1.
     999901    1    3    3    0    0 -0.16321474384E-01  0.18056332148E-01  0.13315747204E+00  0.89035011878E+00  0.88000000000E+00 0. -1.
        -11    1    4    4    0    0  0.10938695010E-01 -0.18392208701E-01 -0.70056827954E-01  0.73254000938E-01  0.51100000000E-03 0.  1.
         11    1    4    4    0    0  0.24254283668E-01 -0.85183525536E-02 -0.48441101052E-01  0.54841900027E-01  0.51100000000E-03 0. -1.
</event>
<event>
 8    1  0.1108957E+005  0.1043930E+01  0.7957747E-01            NaN
         13   -1    0    0    0    0  0.00000000000E+00  0.00000000000E+00  0.74505805969E-08  0.10566000000E+00  0.10566000000E+00 0.  1.
     999900   -1    0    0    0    0 -0.00000000000E+00 -0.00000000000E+00 -0.74505805969E-08  0.93827000000E+00  0.93827000000E+00 0. -1.
     999902    2    1    2    0    0 -0.86327838267E-02  0.16900611129E-02  0.25912915333E-01  0.10165646854E+01  0.10161962897E+01 0.  0.
     999903    2    3    3    0    0  0.11554095158E+00  0.22931986094E-01  0.44589680724E-01  0.12739700856E+00  0.19135586819E-01 0.  0.
         14    1    1    2    0    0  0.86327838267E-02 -0.16900611129E-02 -0.25912915333E-01  0.27365314620E-01  0.00000000000E+00 0. -1.
     999901    1    3    3    0    0 -0.12417373541E+00 -0.21241924981E-01 -0.18676765391E-01  0.88916767682E+00  0.88000000000E+00 0.  1.
        -11    1    4    4    0    0  0.95203991914E-01  0.25549998030E-01  0.33708584652E-01  0.10417836760E+00  0.51100000000E-03 0.  1.
         11    1    4    4    0    0  0.20336959670E-01 -0.26180119351E-02  0.10881096072E-01  0.23218640956E-01  0.51100000000E-03 0. -1.
</event>
<event>
 8    1  0.1108957E+005  0.1043930E+01  0.7957747E-01            NaN
         13   -1    0    0    0    0  0.00000000000E+00  0.00000000000E+00  0.74505805969E-08  0.10566000000E+00  0.10566000000E+00 0.  1.
     999900   -1    0    0    0    0 -0.00000000000E+00 -0.00000000000E+00 -0.74505805969E-08  0.93827000000E+00  0.93827000000E+00 0.  1.
     999902    2    1    2    0    0  0.22688598018E-01  0.16071713738E-02 -0.60310365646E-02  0.10203985555E+01  0.10201271897E+01 0.  0.
     999903    2    3    3    0    0  0.74612694100E-01  0.51371900179E-01  0.93669041424E-01  0.13185325806E+00  0.20131221804E-01 0.  0.
         14    1    1    2    0    0 -0.22688598018E-01 -0.16071713738E-02  0.60310365646E-02  0.23531444535E-01  0.00000000000E+00 0.  1.
     999901    1    3    3    0    0 -0.51924096082E-01 -0.49764728805E-01 -0.99700077988E-01  0.88854529740E+00  0.88000000000E+00 0.  1.
        -11    1    4    4    0    0  0.37605418870E-01  0.22083723735E-01  0.31505258896E-01  0.53802424124E-01  0.51100000000E-03 0.  1.
         11    1    4    4    0    0  0.37007275230E-01  0.29288176443E-01  0.62163782527E-01  0.78050833938E-01  0.51100000000E-03 0. -1.
</event>
<event>
 8    1  0.1108957E+005  0.1043930E+01  0.7957747E-01            NaN
         13   -1    0    0    0    0  0.00000000000E+00  0.00000000000E+00  0.74505805969E-08  0.10566000000E+00  0.10566000000E+00 0.  1.
     999900   -1    0    0    0    0 -0.00000000000E+00 -0.00000000000E+00 -0.74505805969E-08  0.93827000000E+00  0.93827000000E+00 0. -1.
     999902    2    1    2    0    0 -0.21213539693E-01 -0.96929113912E-02 -0.64504426172E-02  0.10197313429E+01  0.10194441802E+01 0.  0.
     999903    2    3    3    0    0  0.51623831167E-01  0.79005399754E-01 -0.85111645980E-01  0.12879910194E+00  0.20936648354E-01 0.  0.
         14    1    1    2    0    0  0.21213539693E-01  0.96929113912E-02  0.64504426172E-02  0.24198657142E-01  0.00000000000E+00 0. -1.
     999901    1    3    3    0    0 -0.72837370859E-01 -0.88698311145E-01  0.78661203363E-01  0.89093224092E+00  0.88000000000E+00 0.  1.
        -11    1    4    4    0    0  0.28094809901E-02  0.19212203081E-01 -0.18916947857E-01  0.27112985227E-01  0.51100000000E-03 0. -1.
         11    1    4    4    0    0  0.48814350177E-01  0.59793196673E-01 -0.66194698123E-01  0.10168611671E+00  0.51100000000E-03 0.  1.
</event>
<event>
 8    1  0.1108957E+005  0.1043930E+01  0.7957747E-01            NaN
         13   -1    0    0    0    0  0.00000000000E+00  0.00000000000E+00  0.74505805969E-08  0.10566000000E+00  0.10566000000E+00 0. -1.
     999900   -1    0    0    0    0 -0.00000000000E+00 -0.00000000000E+00 -0.74505805969E-08  0.93827000000E+00  0.93827000000E+00 0.  1.
     999902    2    1    2    0    0 -0.19492158061E-02  0.15559105460E-01  0.17571496051E-01  0.10203791470E+01  0.10201073281E+01 0.  0.
     999903    2    3    3    0    0  0.10237209960E+00 -0.34634608481E-01  0.73064709613E-01  0.13106376842E+00  0.12635534112E-01 0.  0.
         14    1    1    2    0    0  0.19492158061E-02 -0.15559105460E-01 -0.17571496051E-01  0.23550853031E-01  0.00000000000E+00 0.  1.
     999901    1    3    3    0    0 -0.10432131540E+00  0.50193713942E-01 -0.55493213561E-01  0.88931537855E+00  0.88000000000E+00 0. -1.
        -11    1    4    4    0    0  0.30289921159E-01 -0.15706131846E-01  0.26253169605E-01  0.43054058307E-01  0.51100000000E-03 0. -1.
         11    1    4    4    0    0  0.72082178437E-01 -0.18928476635E-01  0.46811540007E-01  0.88009710117E-01  0.51100000000E-03 0.  1.
</event>
<event>
 8    1  0.1108957E+005  0.1043930E+01  0.7957747E-01            NaN
         13   -1    0    0    0    0  0.00000000000E+00  0.00000000000E+00  0.74505805969E-08  0.10566000000E+00  0.10566000000E+00 0. -1.
     999900   -1    0    0    0    0 -0.00000000000E+00 -0.00000000000E+00 -0.74505805969E-08  0.93827000000E+00  0.93827000000E+00 0. -1.
     999902    2    1    2    0    0 -0.18661025580E-01  0.99026425804E-02 -0.12009362493E-01  0.10196293623E+01  0.10193397449E+01 0.  0.
     999903    2    3    3    0    0  0.41750165170E-01 -0.36366432131E-01 -0.11612784295E+00  0.13023012841E+00  0.20214271211E-01 0.  0.
         14    1    1    2    0    0  0.18661025580E-01 -0.99026425804E-02  0.12009362493E-01  0.24300637713E-01  0.00000000000E+00 0.  1.
     999901    1    3    3    0    0 -0.60411190750E-01  0.46269074712E-01  0.10411848046E+00  0.88939923387E+00  0.88000000000E+00 0.  1.
        -11    1    4    4    0    0  0.78978508816E-02 -0.71628028213E-03 -0.72100933786E-02  0.10730129241E-01  0.51100000000E-03 0.  1.
         11    1    4    4    0    0  0.33852314288E-01 -0.35650151849E-01 -0.10891774957E+00  0.11949999917E+00  0.51100000000E-03 0. -1.
</event>
<event>
 8    1  0.1108957E+005  0.1043930E+01  0.7957747E-01            NaN
         13   -1    0    0    0    0  0.00000000000E+00  0.00000000000E+00  0.74505805969E-08  0.10566000000E+00  0.10566000000E+00 0.  1.
     999900   -1    0    0    0    0 -0.00000000000E+00 -0.00000000000E+00 -0.74505805969E-08  0.93827000000E+00  0.93827000000E+00 0.  1.
     999902    2    1    2    0    0 -0.17498571151E-01  0.22209289588E-02  0.14590347724E-01  0.10210387186E+01  0.10207820796E+01 0.  0.
     999903    2    3    3    0    0  0.72150643757E-01  0.10595810553E+00  0.13809313751E-01  0.13042152049E+00  0.19652998203E-01 0.  0.
         14    1    1    2    0    0  0.17498571151E-01 -0.22209289588E-02 -0.14590347724E-01  0.22891281407E-01  0.00000000000E+00 0. -1.
     999901    1    3    3    0    0 -0.89649214908E-01 -0.10373717658E+00  0.78103397289E-03  0.89061719810E+00  0.88000000000E+00 0. -1.
        -11    1    4    4    0    0  0.14693865708E-01  0.11167552636E-01  0.54992715049E-02  0.19264657521E-01  0.51100000000E-03 0. -1.
         11    1    4    4    0    0  0.57456778050E-01  0.94790552899E-01  0.83100422460E-02  0.11115686297E+00  0.51100000000E-03 0.  1.
</event>
<event>
 8    1  0.1108957E+005  0.1043930E+01  0.7957747E-01            NaN
         13   -1    0    0    0    0  0.00000000000E+00  0.00000000000E+00  0.74505805969E-08  0.10566000000E+00  0.10566000000E+00 0. -1.
     999900   -1    0    0    0    0 -0.00000000000E+00 -0.00000000000E+00 -0.74505805969E-08  0.93827000000E+00  0.93827000000E+00 0. -1.
     999902    2    1    2    0    0  0.97311264397E-02  0.94023875910E-02  0.19264057123E-01  0.10203884705E+01  0.10201168693E+01 0.  0.
     999903    2    3    3    0    0 -0.40471010915E-01  0.11941917385E+00 -0.27908409433E-01  0.13086658238E+00  0.21174070431E-01 0.  0.
         14    1    1    2    0    0 -0.97311264397E-02 -0.94023875910E-02 -0.19264057123E-01  0.23541529497E-01  0.00000000000E+00 0.  1.
     999901    1    3    3    0    0  0.50202137355E-01 -0.11001678626E+00  0.47172466556E-01  0.88952188813E+00  0.88000000000E+00 0.  1.
        -11    1    4    4    0    0 -0.22016487359E-01  0.89290127599E-01 -0.14648428128E-01  0.93125131784E-01  0.51100000000E-03 0.  1.
         11    1    4    4    0    0 -0.18454523556E-01  0.30129046252E-01 -0.13259981304E-01  0.37741450593E-01  0.51100000000E-03 0. -1.
</event>
<event>
 8    1  0.1108957E+005  0.1043930E+01  0.7957747E-01            NaN
         13   -1    0    0    0    0  0.00000000000E+00  0.00000000000E+00  0.74505805969E-08  0.10566000000E+00  0.10566000000E+00 0.  1.
     999900   -1    0    0    0    0 -0.00000000000E+00 -0.00000000000E+00 -0.74505805969E-08  0.93827000000E+00  0.93827000000E+00 0.  1.
     999902    2    1    2    0    0  0.24921599686E-02 -0.19116467781E-01 -0.12875708660E-01  0.10207473756E+01  0.10204840864E+01 0.  0.
     999903    2    3    3    0    0  0.60397392143E-01  0.48679288511E-01  0.10126695251E+00  0.12890780055E+00  0.18566293753E-01 0.  0.
         14    1    1    2    0    0 -0.24921599686E-02  0.19116467781E-01  0.12875708660E-01  0.23182624425E-01  0.00000000000E+00 0. -1.
     999901    1    3    3    0    0 -0.57905232174E-01 -0.67795756291E-01 -0.11414266117E+00  0.89183957503E+00  0.88000000000E+00 0.  1.
        -11    1    4    4    0    0  0.59179872419E-01  0.42604738556E-01  0.97060660171E-01  0.12140203425E+00  0.51100000000E-03 0.  1.
         11    1    4    4    0    0  0.12175197231E-02  0.60745499542E-02  0.42062923412E-02  0.75057662955E-02  0.51100000000E-03 0. -1.
</event>
<event>
 8    1  0.1108957E+005  0.1043930E+01  0.7957747E-01            NaN
         13   -1    0    0    0    0  0.00000000000E+00  0.00000000000E+00  0.74505805969E-08  0.10566000000E+00  0.10566000000E+00 0.  1.
     999900   -1    0    0    0    0 -0.00000000000E+00 -0.00000000000E+00 -0.74505805969E-08  0.93827000000E+00  0.93827000000E+00 0.  1.
     999902    2    1    2    0    0 -0.17858806396E-01 -0.16132843579E-02 -0.14989267700E-01  0.10205586971E+01  0.10202910548E+01 0.  0.
     999903    2    3    3    0    0  0.50130030629E-01  0.73414049176E-01  0.90701126279E-01  0.12847011288E+00  0.19370932067E-01 0.  0.
         14    1    1    2    0    0  0.17858806396E-01  0.16132843579E-02  0.14989267700E-01  0.23371302884E-01  0.00000000000E+00 0.  1.
     999901    1    3    3    0    0 -0.67988837025E-01 -0.75027333534E-01 -0.10569039398E+00  0.89208858423E+00  0.88000000000E+00 0.  1.
        -11    1    4    4    0    0  0.26857194285E-01  0.40981409804E-01  0.63298334433E-01  0.80048267297E-01  0.51100000000E-03 0. -1.
         11    1    4    4    0    0  0.23272836344E-01  0.32432639372E-01  0.27402791846E-01  0.48421845587E-01  0.51100000000E-03 0.  1.
</event>
<event>
 8    1  0.1108957E+005  0.1043930E+01  0.7957747E-01            NaN
         13   -1    0    0    0    0  0.00000000000E+00  0.00000000000E+00  0.74505805969E-08  0.10566000000E+00  0.10566000000E+00 0. -1.
     999900   -1    0    0    0    0 -0.00000000000E+00 -0.00000000000E+00 -0.74505805969E-08  0.93827000000E+00  0.93827000000E+00 0.  1.
     999902    2    1    2    0    0  0.20747177168E-01 -0.10224496465E-01 -0.72748165111E-02  0.10196831725E+01  0.10193948517E+01 0.  0.
     999903    2    3    3    0    0  0.75785613301E-01 -0.10379499704E+00  0.23427558017E-01  0.13248122039E+00  0.22035487008E-01 0.  0.
         14    1    1    2    0    0 -0.20747177168E-01  0.10224496465E-01  0.72748165111E-02  0.24246827497E-01  0.00000000000E+00 0.  1.
     999901    1    3    3    0    0 -0.55038436133E-01  0.93570500575E-01 -0.30702374528E-01  0.88720195211E+00  0.88000000000E+00 0.  1.
        -11    1    4    4    0    0  0.49428057887E-01 -0.57914646167E-01  0.23089489170E-01  0.79565223422E-01  0.51100000000E-03 0. -1.
         11    1    4    4    0    0  0.26357555415E-01 -0.45880350873E-01  0.33806884678E-03  0.52915996968E-01  0.51100000000E-03 0.  1.
</event>
<event>
 8    1  0.1108957E+005  0.1043930E+01  0.7957747E-01            NaN
         13   -1    0    0    0    0  0.00000000000E+00  0.00000000000E+00  0.74505805969E-08  0.10566000000E+00  0.10566000000E+00 0. -1.
     999900   -1    0    0    0    0 -0.00000000000E+00 -0.00000000000E+00 -0.74505805969E-08  0.93827000000E+00  0.93827000000E+00 0. -1.
     999902    2    1    2    0    0  0.17741685189E-01 -0.11328668127E-01  0.10376598151E-01  0.10204612995E+01  0.10201913957E+01 0.  0.
     999903    2    3    3    0    0  0.30950140171E-01 -0.49747934860E-01  0.11767769821E+00  0.13301325626E+00  0.20290822702E-01 0.  0.
         14    1    1    2    0    0 -0.17741685189E-01  0.11328668127E-01 -0.10376598151E-01  0.23468700519E-01  0.00000000000E+00 0.  1.
     999901    1    3    3    0    0 -0.13208454982E-01  0.38419266733E-01 -0.10730110006E+00  0.88744804322E+00  0.88000000000E+00 0. -1.
        -11    1    4    4    0    0  0.15507515555E-01 -0.96580140824E-02  0.26156231962E-01  0.31908774125E-01  0.51100000000E-03 0. -1.
         11    1    4    4    0    0  0.15442624616E-01 -0.40089920777E-01  0.91521466248E-01  0.10110448214E+00  0.51100000000E-03 0.  1.
</event>
<event>
 8    1  0.1108957E+005  0.1043930E+01  0.7957747E-01            NaN
         13   -1    0    0    0    0  0.00000000000E+00  0.00000000000E+00  0.74505805969E-08  0.10566000000E+00  0.10566000000E+00 0. -1.
     999900   -1    0    0    0    0 -0.00000000000E+00 -0.00000000000E+00 -0.74505805969E-08  0.93827000000E+00  0.93827000000E+00 0.  1.
     999902    2    1    2    0    0 -0.11485315892E-01  0.19847217985E-01 -0.38548032429E-03  0.10209958957E+01  0.10207382848E+01 0.  0.
     999903    2    3    3    0    0 -0.60225787754E-01  0.11815295602E+00 -0.23010641206E-02  0.13417949920E+00  0.20287350283E-01 0.  0.
         14    1    1    2    0    0  0.11485315892E-01 -0.19847217985E-01  0.38548032429E-03  0.22934104255E-01  0.00000000000E+00 0.  1.
     999901    1    3    3    0    0  0.48740471862E-01 -0.98305738035E-01  0.19155837963E-02  0.88681639655E+00  0.88000000000E+00 0.  1.
        -11    1    4    4    0    0 -0.34392402402E-01  0.61236043047E-01  0.84946300159E-02  0.70746803257E-01  0.51100000000E-03 0. -1.
         11    1    4    4    0    0 -0.25833385352E-01  0.56916912973E-01 -0.10795694137E-01  0.63432695939E-01  0.51100000000E-03 0.  1.
</event>
<event>
 8    1  0.1108957E+005  0.1043930E+01  0.7957747E-01            NaN
         13   -1    0    0    0    0  0.00000000000E+00  0.00000000000E+00  0.74505805969E-08  0.10566000000E+00  0.10566000000E+00 0. -1.
     999900   -1    0    0    0    0 -0.00000000000E+00 -0.00000000000E+00 -0.74505805969E-08  0.93827000000E+00  0.93827000000E+00 0.  1.
     999902    2    1    2    0    0 -0.78283490782E-02 -0.99222175605E-02 -0.20483562921E-01  0.10198611446E+01  0.10195770910E+01 0.  0.
     999903    2    3    3    0    0 -0.12956317004E+00  0.58904864430E-03 -0.48991358352E-02  0.13128209481E+00  0.20591864311E-01 0.  0.
         14    1    1    2    0    0  0.78283490782E-02  0.99222175605E-02  0.20483562921E-01  0.24068855406E-01  0.00000000000E+00 0. -1.
     999901    1    3    3    0    0  0.12173482096E+00 -0.10511266205E-01 -0.15584427086E-01  0.88857904979E+00  0.88000000000E+00 0.  1.
        -11    1    4    4    0    0 -0.83593813674E-01 -0.84539479453E-02  0.12229220963E-02  0.84030658571E-01  0.51100000000E-03 0.  1.
         11    1    4    4    0    0 -0.45969356367E-01  0.90429965896E-02 -0.61220579315E-02  0.47251436236E-01  0.51100000000E-03 0. -1.
</event>
<event>
 8    1  0.1108957E+005  0.1043930E+01  0.7957747E-01            NaN
         13   -1    0    0    0    0  0.00000000000E+00  0.00000000000E+00  0.74505805969E-08  0.10566000000E+00  0.10566000000E+00 0. -1.
     999900   -1    0    0    0    0 -0.00000000000E+00 -0.00000000000E+00 -0.74505805969E-08  0.93827000000E+00  0.93827000000E+00 0.  1.
     999902    2    1    2    0    0  0.17843539711E-01 -0.14525269529E-01  0.66496477859E-03  0.10209122342E+01  0.10206527188E+01 0.  0.
     999903    2    3    3    0    0 -0.63354212090E-01 -0.11299373018E+00  0.14505116534E-01  0.13159751913E+00  0.18060160149E-01 0.  0.
         14    1    1    2    0    0 -0.17843539711E-01  0.14525269529E-01 -0.66496477859E-03  0.23017765801E-01  0.00000000000E+00 0.  1.
     999901    1    3    3    0    0  0.81197751801E-01  0.98468460655E-01 -0.13840151755E-01  0.88931471507E+00  0.88000000000E+00 0. -1.
        -11    1    4    4    0    0 -0.34750744140E-01 -0.52268755992E-01  0.14717165209E-01  0.64470870507E-01  0.51100000000E-03 0. -1.
         11    1    4    4    0    0 -0.28603467951E-01 -0.60724974193E-01 -0.21204867489E-03  0.67126648621E-01  0.51100000000E-03 0.  1.
</event>
<event>
 8    1  0.1108957E+005  0.1043930E+01  0.7957747E-01            NaN
         13   -1    0    0    0    0  0.00000000000E+00  0.00000000000E+00  0.74505805969E-08  0.10566000000E+00  0.10566000000E+00 0.  1.
     999900   -1    0    0    0    0 -0.00000000000E+00 -0.00000000000E+00 -0.74505805969E-08  0.93827000000E+00  0.93827000000E+00 0.  1.
     999902    2    1    2    0    0  0.10185549107E-01  0.16108581148E-01  0.13857376296E-01  0.10203660726E+01  0.10200939483E+01 0.  0.
     999903    2    3    3    0    0  0.85501542624E-01 -0.89602457469E-01  0.32855060116E-01  0.13064238820E+00  0.25472817766E-01 0.  0.
         14    1    1    2    0    0 -0.10185549107E-01 -0.16108581148E-01 -0.13857376296E-01  0.23563927411E-01  0.00000000000E+00 0. -1.
     999901    1    3    3    0    0 -0.75315993517E-01  0.10571103862E+00 -0.18997683820E-01  0.88972368438E+00  0.88000000000E+00 0. -1.
        -11    1    4    4    0    0  0.21366976093E-01 -0.39928686333E-01  0.13162982997E-01  0.47163257967E-01  0.51100000000E-03 0. -1.
         11    1    4    4    0    0  0.64134566531E-01 -0.49673771136E-01  0.19692077120E-01  0.83479130238E-01  0.51100000000E-03 0.  1.
</event>
<event>
 8    1  0.1108957E+005  0.1043930E+01  0.7957747E-01            NaN
         13   -1    0    0    0    0  0.00000000000E+00  0.00000000000E+00  0.74505805969E-08  0.10566000000E+00  0.10566000000E+00 0.  1.
     999900   -1    0    0    0    0 -0.00000000000E+00 -0.00000000000E+00 -0.74505805969E-08  0.93827000000E+00  0.93827000000E+00 0.  1.
     999902    2    1    2    0    0  0.57347728704E-02  0.17206872467E-01  0.15162958342E-01  0.10202893700E+01  0.10200154505E+01 0.  0.
     999903    2    3    3    0    0  0.13676992524E-01 -0.11363919408E+00 -0.53613506231E-01  0.12792510916E+00  0.19735727704E-01 0.  0.
         14    1    1    2    0    0 -0.57347728704E-02 -0.17206872467E-01 -0.15162958342E-01  0.23640629976E-01  0.00000000000E+00 0. -1.
     999901    1    3    3    0    0 -0.79422196537E-02  0.13084606655E+00  0.68776464573E-01  0.89236426086E+00  0.88000000000E+00 0. -1.
        -11    1    4    4    0    0 -0.51082433700E-02 -0.22835744393E-01 -0.11633455261E-01  0.26137401834E-01  0.51100000000E-03 0.  1.
         11    1    4    4    0    0  0.18785235894E-01 -0.90803449687E-01 -0.41980050970E-01  0.10178770733E+00  0.51100000000E-03 0. -1.
</event>
<event>
 8    1  0.1108957E+005  0.1043930E+01  0.7957747E-01            NaN
         13   -1    0    0    0    0  0.00000000000E+00  0.00000000000E+00  0.74505805969E-08  0.10566000000E+00  0.10566000000E+00 0. -1.
     999900   -1    0    0    0    0 -0.00000000000E+00 -0.00000000000E+00 -0.74505805969E-08  0.93827000000E+00  0.93827000000E+00 0. -1.
     999902    2    1    2    0    0  0.11481521654E-02 -0.18678277372E-01  0.13660386853E-01  0.10207610020E+01  0.10204980258E+01 0.  0.
     999903    2    3    3    0    0  0.48196296882E-02  0.18156313960E-01 -0.12603324971E+00  0.12897370732E+00  0.19923769223E-01 0.  0.
         14    1    1    2    0    0 -0.11481521654E-02  0.18678277372E-01 -0.13660386853E-01  0.23168997992E-01  0.00000000000E+00 0.  1.
     999901    1    3    3    0    0 -0.36714775228E-02 -0.36834591333E-01  0.13969363657E+00  0.89178729469E+00  0.88000000000E+00 0.  1.
        -11    1    4    4    0    0 -0.61629407234E-02  0.13143355210E-01 -0.83643585503E-01  0.84895465964E-01  0.51100000000E-03 0. -1.
         11    1    4    4    0    0  0.10982570412E-01  0.50129587507E-02 -0.42389664211E-01  0.44078241358E-01  0.51100000000E-03 0.  1.
</event>
<event>
 8    1  0.1108957E+005  0.1043930E+01  0.7957747E-01            NaN
         13   -1    0    0    0    0  0.00000000000E+00  0.00000000000E+00  0.74505805969E-08  0.10566000000E+00  0.10566000000E+00 0. -1.
     999900   -1    0    0    0    0 -0.00000000000E+00 -0.00000000000E+00 -0.74505805969E-08  0.93827000000E+00  0.93827000000E+00 0. -1.
     999902    2    1    2    0    0 -0.21248763319E-02 -0.31186609334E-01  0.55307355556E-02  0.10121855716E+01  0.10116876606E+01 0.  0.
     999903    2    3    3    0    0  0.82477053726E-01 -0.57793511377E-03 -0.88407284074E-01  0.12262459611E+00  0.20448601281E-01 0.  0.
         14    1    1    2    0    0  0.21248763319E-02  0.31186609334E-01 -0.55307355556E-02  0.31744428439E-01  0.00000000000E+00 0.  1.
     999901    1    3    3    0    0 -0.84601930058E-01 -0.30608674220E-01  0.93938019629E-01  0.88956097545E+00  0.88000000000E+00 0.  1.
        -11    1    4    4    0    0  0.52618699706E-02 -0.52331989002E-02 -0.56411849773E-02  0.93358307217E-02  0.51100000000E-03 0.  1.
         11    1    4    4    0    0  0.77215183755E-01  0.46552637864E-02 -0.82766099096E-01  0.11328876539E+00  0.51100000000E-03 0. -1.
</event>
<event>
 8    1  0.1108957E+005  0.1043930E+01  0.7957747E-01            NaN
         13   -1    0    0    0    0  0.00000000000E+00  0.00000000000E+00  0.74505805969E-08  0.10566000000E+00  0.10566000000E+00 0. -1.
     999900   -1    0    0    0    0 -0.00000000000E+00 -0.00000000000E+00 -0.74505805969E-08  0.93827000000E+00  0.93827000000E+00 0. -1.
     999902    2    1    2    0    0  0.33895061258E-02 -0.54468442370E-02  0.22862085911E-01  0.10201848566E+01  0.10199084811E+01 0.  0.
     999903    2    3    3    0    0 -0.11913748727E-01  0.74566172240E-01 -0.10094201406E+00  0.12779271879E+00  0.20967530200E-01 0.  0.
         14    1    1    2    0    0 -0.33895061258E-02  0.54468442370E-02 -0.22862085911E-01  0.23745143422E-01  0.00000000000E+00 0.  1.
     999901    1    3    3    0    0  0.15303254853E-01 -0.80013016477E-01  0.12380409997E+00  0.89239213779E+00  0.88000000000E+00 0.  1.
        -11    1    4    4    0    0 -0.12204371645E-01  0.28246725096E-01 -0.29386739648E-01  0.42551918335E-01  0.51100000000E-03 0.  1.
         11    1    4    4    0    0  0.29062291804E-03  0.46319447143E-01 -0.71555274410E-01  0.85240800456E-01  0.51100000000E-03 0. -1.
</event>
<event>
 8    1  0.1108957E+005  0.1043930E+01  0.7957747E-01            NaN
         13   -1    0    0    0    0  0.00000000000E+00  0.00000000000E+00  0.74505805969E-08  0.10566000000E+00  0.10566000000E+00 0.  1.
     999900   -1    0    0    0    0 -0.00000000000E+00 -0.00000000000E+00 -0.74505805969E-08  0.93827000000E+00  0.93827000000E+00 0. -1.
     999902    2    1    2    0    0  0.12732751237E-01  0.52407367002E-02 -0.19473620185E-01  0.10200802587E+01  0.10198014141E+01 0.  0.
     999903    2    3    3    0    0 -0.34444545114E-01  0.65116609991E-01  0.10235294317E+00  0.12842307740E+00  0.24285021049E-01 0.  0.
         14    1    1    2    0    0 -0.12732751237E-01 -0.52407367002E-02  0.19473620185E-01  0.23849741263E-01  0.00000000000E+00 0.  1.
     999901    1    3    3    0    0  0.47177296351E-01 -0.59875873291E-01 -0.12182656336E+00  0.89165718134E+00  0.88000000000E+00 0. -1.
        -11    1    4    4    0    0 -0.20355112403E-01  0.51784074721E-01  0.59963768092E-01  0.81803640508E-01  0.51100000000E-03 0.  1.
         11    1    4    4    0    0 -0.14089432711E-01  0.13332535270E-01  0.42389175081E-01  0.46619436890E-01  0.51100000000E-03 0. -1.
</event>
<event>
 8    1  0.1108957E+005  0.1043930E+01  0.7957747E-01            NaN
         13   -1    0    0    0    0  0.00000000000E+00  0.00000000000E+00  0.74505805969E-08  0.10566000000E+00  0.10566000000E+00 0.  1.
     999900   -1    0    0    0    0 -0.00000000000E+00 -0.00000000000E+00 -0.74505805969E-08  0.93827000000E+00  0.93827000000E+00 0.  1.
     999902    2    1    2    0    0  0.56519876978E-03 -0.18856343276E-01 -0.47584367986E-02  0.10244743105E+01  0.10242895534E+01 0.  0.
     999903    2    3    3    0    0 -0.26627473158E-01  0.91311548980E-01 -0.90822596523E-01  0.13302411817E+00  0.19996266473E-01 0.  0.
         14    1    1    2    0    0 -0.56519876978E-03  0.18856343276E-01  0.47584367986E-02  0.19455689455E-01  0.00000000000E+00 0.  1.
     999901    1    3    3    0    0  0.27192671927E-01 -0.11016789226E+00  0.86064159724E-01  0.89145019237E+00  0.88000000000E+00 0.  1.
        -11    1    4    4    0    0 -0.74824087620E-02  0.15992226050E-01 -0.27934913004E-01  0.33050842962E-01  0.51100000000E-03 0.  1.
         11    1    4    4    0    0 -0.19145064396E-01  0.75319322929E-01 -0.62887683518E-01  0.99973275212E-01  0.51100000000E-03 0. -1.
</event>
<event>
 8    1  0.1108957E+005  0.1043930E+01  0.7957747E-01            NaN
         13   -1    0    0    0    0  0.00000000000E+00  0.00000000000E+00  0.74505805969E-08  0.10566000000E+00  0.10566000000E+00 0. -1.
     999900   -1    0    0    0    0 -0.00000000000E+00 -0.00000000000E+00 -0.74505805969E-08  0.93827000000E+00  0.93827000000E+00 0.  1.
     999902    2    1    2    0    0  0.10168360622E-01 -0.43510358745E-02 -0.21019051142E-01  0.10201786299E+01  0.10199021077E+01 0.  0.
     999903    2    3    3    0    0 -0.98556317615E-01  0.76794818025E-01  0.23320655655E-01  0.12867893003E+00  0.20090351814E-01 0.  0.
         14    1    1    2    0    0 -0.10168360622E-01  0.43510358745E-02  0.21019051142E-01  0.23751370105E-01  0.00000000000E+00 0. -1.
     999901    1    3    3    0    0  0.10872467824E+00 -0.81145853899E-01 -0.44339706797E-01  0.89149969987E+00  0.88000000000E+00 0. -1.
        -11    1    4    4    0    0 -0.32584297515E-01  0.14793365203E-01  0.10069443812E-01  0.37178420062E-01  0.51100000000E-03 0.  1.
         11    1    4    4    0    0 -0.65972020100E-01  0.62001452822E-01  0.13251211843E-01  0.91500509967E-01  0.51100000000E-03 0. -1.
</event>
<event>
 8    1  0.1108957E+005  0.1043930E+01  0.7957747E-01            NaN
         13   -1    0    0    0    0  0.00000000000E+00  0.00000000000E+00  0.74505805969E-08  0.10566000000E+00  0.10566000000E+00 0.  1.
     999900   -1    0    0    0    0 -0.00000000000E+00 -0.00000000000E+00 -0.74505805969E-08  0.93827000000E+00  0.93827000000E+00 0. -1.
     999902    2    1    2    0    0 -0.82797801445E-02  0.21303178566E-01  0.54290692451E-02  0.10204384064E+01  0.10201679697E+01 0.  0.
     999903    2    3    3    0    0  0.54357170570E-01  0.32005224637E-01  0.11303356853E+00  0.13160959857E+00  0.23779453861E-01 0.  0.
         14    1    1    2    0    0  0.82797801445E-02 -0.21303178566E-01 -0.54290692451E-02  0.23491593585E-01  0.00000000000E+00 0. -1.
     999901    1    3    3    0    0 -0.62636950715E-01 -0.10702046070E-01 -0.10760449928E+00  0.88882880784E+00  0.88000000000E+00 0. -1.
        -11    1    4    4    0    0  0.34689157650E-01  0.23213055483E-01  0.50797651143E-01  0.65748354245E-01  0.51100000000E-03 0. -1.
         11    1    4    4    0    0  0.19668012920E-01  0.87921691540E-02  0.62235917385E-01  0.65861244328E-01  0.51100000000E-03 0.  1.
</event>
<event>
 8    1  0.1108957E+005  0.1043930E+01  0.7957747E-01            NaN
         13   -1    0    0    0    0  0.00000000000E+00  0.00000000000E+00  0.74505805969E-08  0.10566000000E+00  0.10566000000E+00 0. -1.
     999900   -1    0    0    0    0 -0.00000000000E+00 -0.00000000000E+00 -0.74505805969E-08  0.93827000000E+00  0.93827000000E+00 0.  1.
     999902    2    1    2    0    0  0.48581831250E-02 -0.14080812526E-01 -0.15007968709E-01  0.10227850160E+01  0.10225664177E+01 0.  0.
     999903    2    3    3    0    0  0.28225034489E-01 -0.53510267958E-01 -0.11940908583E+00  0.13542923335E+00  0.20555926582E-01 0.  0.
         14    1    1    2    0    0 -0.48581831250E-02  0.14080812526E-01  0.15007968709E-01  0.21144984025E-01  0.00000000000E+00 0. -1.
     999901    1    3    3    0    0 -0.23366851364E-01  0.39429455432E-01  0.10440111712E+00  0.88735578262E+00  0.88000000000E+00 0. -1.
        -11    1    4    4    0    0  0.23452109960E-01 -0.48943856835E-01 -0.88493159735E-01  0.10381138196E+00  0.51100000000E-03 0. -1.
         11    1    4    4    0    0  0.47729245290E-02 -0.45664111232E-02 -0.30915926098E-01  0.31617851391E-01  0.51100000000E-03 0.  1.
</event>
<event>
 8    1  0.1108957E+005  0.1043930E+01  0.7957747E-01            NaN
         13   -1    0    0    0    0  0.00000000000E+00  0.00000000000E+00  0.74505805969E-08  0.10566000000E+00  0.10566000000E+00 0.  1.
     999900   -1    0    0    0    0 -0.00000000000E+00 -0.00000000000E+00 -0.74505805969E-08  0.93827000000E+00  0.93827000000E+00 0. -1.
     999902    2    1    2    0    0  0.13428142328E-01 -0.12827230051E-01  0.15141492197E-01  0.10199692483E+01  0.10196877707E+01 0.  0.
     999903    2    3    3    0    0  0.10512653740E+00  0.73014530635E-01 -0.18285881611E-01  0.13042172686E+00  0.17109728845E-01 0.  0.
         14    1    1    2    0    0 -0.13428142328E-01  0.12827230051E-01 -0.15141492197E-01  0.23960751722E-01  0.00000000000E+00 0.  1.
     999901    1    3    3    0    0 -0.91698395075E-01 -0.85841760686E-01  0.33427373808E-01  0.88954752142E+00  0.88000000000E+00 0.  1.
        -11    1    4    4    0    0  0.22692374256E-01  0.24854396487E-01 -0.44967877232E-02  0.33958314077E-01  0.51100000000E-03 0. -1.
         11    1    4    4    0    0  0.82434163147E-01  0.48160134148E-01 -0.13789093888E-01  0.96463412785E-01  0.51100000000E-03 0.  1.
</event>
<event>
 8    1  0.1108957E+005  0.1043930E+01  0.7957747E-01            NaN
         13   -1    0    0    0    0  0.00000000000E+00  0.00000000000E+00  0.74505805969E-08  0.10566000000E+00  0.10566000000E+00 0. -1.
     999900   -1    0    0    0    0 -0.00000000000E+00 -0.00000000000E+00 -0.74505805969E-08  0.93827000000E+00  0.93827000000E+00 0.  1.
     999902    2    1    2    0    0  0.21448330842E-01 -0.84349578655E-02 -0.77106363948E-02  0.10196270511E+01  0.10193373779E+01 0.  0.
     999903    2    3    3    0    0 -0.12143910270E+00 -0.25600337577E-01  0.21594881862E-01  0.12745538473E+00  0.19383065449E-01 0.  0.
         14    1    1    2    0    0 -0.21448330842E-01  0.84349578655E-02  0.77106363948E-02  0.24302948869E-01  0.00000000000E+00 0. -1.
     999901    1    3    3    0    0  0.14288743354E+00  0.17165379712E-01 -0.29305518257E-01  0.89217166640E+00  0.88000000000E+00 0.  1.
        -11    1    4    4    0    0 -0.66736277032E-02 -0.39236345959E-02  0.56024684592E-02  0.95697956613E-02  0.51100000000E-03 0. -1.
         11    1    4    4    0    0 -0.11476547500E+00 -0.21676702981E-01  0.15992413403E-01  0.11788558907E+00  0.51100000000E-03 0.  1.
</event>
<event>
 8    1  0.1108957E+005  0.1043930E+01  0.7957747E-01            NaN
         13   -1    0    0    0    0  0.00000000000E+00  0.00000000000E+00  0.74505805969E-08  0.10566000000E+00  0.10566000000E+00 0. -1.
     999900   -1    0    0    0    0 -0.00000000000E+00 -0.00000000000E+00 -0.74505805969E-08  0.93827000000E+00  0.93827000000E+00 0.  1.
     999902    2    1    2    0    0  0.12312466357E-01  0.10912381209E-02 -0.20306602697E-01  0.10201572059E+01  0.10198801787E+01 0.  0.
     999903    2    3    3    0    0 -0.80700868171E-02  0.53846700952E-01  0.11432205305E+00  0.12812387560E+00  0.19534640540E-01 0.  0.
         14    1    1    2    0    0 -0.12312466357E-01 -0.10912381209E-02  0.20306602697E-01  0.23772794146E-01  0.00000000000E+00 0. -1.
     999901    1    3    3    0    0  0.20382553174E-01 -0.52755462831E-01 -0.13462865575E+00  0.89203333025E+00  0.88000000000E+00 0.  1.
        -11    1    4    4    0    0  0.23896465630E-02  0.25546456078E-01  0.69536274387E-01  0.74120755564E-01  0.51100000000E-03 0.  1.
         11    1    4    4    0    0 -0.10459733380E-01  0.28300244874E-01  0.44785778663E-01  0.54003120037E-01  0.51100000000E-03 0. -1.
</event>
<event>
 8    1  0.1108957E+005  0.1043930E+01  0.7957747E-01            NaN
         13   -1    0    0    0    0  0.00000000000E+00  0.00000000000E+00  0.74505805969E-08  0.10566000000E+00  0.10566000000E+00 0.  1.
     999900   -1    0    0    0    0 -0.00000000000E+00 -0.00000000000E+00 -0.74505805969E-08  0.93827000000E+00  0.93827000000E+00 0.  1.
     999902    2    1    2    0    0 -0.25978293916E-02  0.23577134540E-01 -0.14626755073E-02  0.10201651223E+01  0.10198882818E+01 0.  0.
     999903    2    3    3    0    0 -0.21691766985E-01  0.78586749370E-01  0.10209759266E+00  0.13218124562E+00  0.20038795733E-01 0.  0.
         14    1    1    2    0    0  0.25978293916E-02 -0.23577134540E-01  0.14626755073E-02  0.23764877662E-01  0.00000000000E+00 0.  1.
     999901    1    3    3    0    0  0.19093937593E-01 -0.55009614830E-01 -0.10356026817E+00  0.88798387672E+00  0.88000000000E+00 0.  1.
        -11    1    4    4    0    0 -0.71671744536E-03  0.28425801294E-01  0.45820212590E-01  0.53928590432E-01  0.51100000000E-03 0. -1.
         11    1    4    4    0    0 -0.20975049539E-01  0.50160948076E-01  0.56277380068E-01  0.78252655184E-01  0.51100000000E-03 0.  1.
</event>
<event>
 8    1  0.1108957E+005  0.1043930E+01  0.7957747E-01            NaN
         13   -1    0    0    0    0  0.00000000000E+00  0.00000000000E+00  0.74505805969E-08  0.10566000000E+00  0.10566000000E+00 0. -1.
     999900   -1    0    0    0    0 -0.00000000000E+00 -0.00000000000E+00 -0.74505805969E-08  0.93827000000E+00  0.93827000000E+00 0.  1.
     999902    2    1    2    0    0 -0.14845759372E-01 -0.18723946299E-01 -0.56212106814E-02  0.10193824798E+01  0.10190868753E+01 0.  0.
     999903    2    3    3    0    0 -0.11196431332E+00 -0.44586737664E-01  0.49605229179E-01  0.13194185808E+00  0.20591030023E-01 0.  0.
         14    1    1    2    0    0  0.14845759372E-01  0.18723946299E-01  0.56212106814E-02  0.24547520157E-01  0.00000000000E+00 0. -1.
     999901    1    3    3    0    0  0.97118553953E-01  0.25862791366E-01 -0.55226439860E-01  0.88744062177E+00  0.88000000000E+00 0.  1.
        -11    1    4    4    0    0 -0.73598151965E-01 -0.21727797210E-01  0.38797758401E-01  0.85990187360E-01  0.51100000000E-03 0.  1.
         11    1    4    4    0    0 -0.38366161360E-01 -0.22858940455E-01  0.10807470778E-01  0.45951670718E-01  0.51100000000E-03 0. -1.
</event>
<event>
 7    1  0.1108957E+005  0.1043930E+01  0.7957747E-01            NaN
         13   -1    0    0    0    0  0.00000000000E+00  0.00000000000E+00  0.74505805969E-08  0.10566000000E+00  0.10566000000E+00 0. -1.
     999900   -1    0    0    0    0 -0.00000000000E+00 -0.00000000000E+00 -0.74505805969E-08  0.93827000000E+00  0.93827000000E+00 0. -1.
     999903    2    1    2    0    0  0.10320988577E-02 -0.69623857702E-01  0.63159423651E-01  0.96117422506E-01  0.20022470475E-01 0.  0.
         14    1    1    2    0    0  0.36723354334E-01 -0.87132233474E-02  0.42956493103E-01  0.57182036641E-01  0.00000000000E+00 0. -1.
     999901    1    1    2    0    0 -0.37755453192E-01  0.78337081049E-01 -0.10611591675E+00  0.89063054085E+00  0.88000000000E+00 0. -1.
        -11    1    3    3    0    0  0.88949108815E-04 -0.11469148703E-01  0.18884309459E-02  0.11635144020E-01  0.51100000000E-03 0.  1.
         11    1    3    3    0    0  0.94314974891E-03 -0.58154708999E-01  0.61270992705E-01  0.84482278486E-01  0.51100000000E-03 0. -1.
</event>
<event>
 8    1  0.1108957E+005  0.1043930E+01  0.7957747E-01            NaN
         13   -1    0    0    0    0  0.00000000000E+00  0.00000000000E+00  0.74505805969E-08  0.10566000000E+00  0.10566000000E+00 0.  1.
     999900   -1    0    0    0    0 -0.00000000000E+00 -0.00000000000E+00 -0.74505805969E-08  0.93827000000E+00  0.93827000000E+00 0.  1.
     999902    2    1    2    0    0 -0.17896146075E-01  0.87198346283E-02  0.10792570525E-01  0.10212851962E+01  0.10210341154E+01 0.  0.
     999903    2    3    3    0    0  0.43959912240E-01 -0.17977878137E-01 -0.11855487666E+00  0.12928200007E+00  0.20072338605E-01 0.  0.
         14    1    1    2    0    0  0.17896146075E-01 -0.87198346283E-02 -0.10792570525E-01  0.22644803793E-01  0.00000000000E+00 0. -1.
     999901    1    3    3    0    0 -0.61856058315E-01  0.26697712765E-01  0.12934744718E+00  0.89200319613E+00  0.88000000000E+00 0. -1.
        -11    1    4    4    0    0  0.22600752449E-01 -0.19662504953E-01 -0.74203691826E-01  0.80024103331E-01  0.51100000000E-03 0. -1.
         11    1    4    4    0    0  0.21359159791E-01  0.16846268162E-02 -0.44351184834E-01  0.49257896744E-01  0.51100000000E-03 0.  1.
</event>
<event>
 8    1  0.1108957E+005  0.1043930E+01  0.7957747E-01            NaN
         13   -1    0    0    0    0  0.00000000000E+00  0.00000000000E+00  0.74505805969E-08  0.10566000000E+00  0.10566000000E+00 0. -1.
     999900   -1    0    0    0    0 -0.00000000000E+00 -0.00000000000E+00 -0.74505805969E-08  0.93827000000E+00  0.93827000000E+00 0. -1.
     999902    2    1    2    0    0  0.13914256734E-01  0.94771743008E-02  0.16907316166E-01  0.10200703958E+01  0.10197913177E+01 0.  0.
     999903    2    3    3    0    0 -0.37479252645E-01  0.37179608145E-01 -0.11511475175E+00  0.12830891195E+00  0.20609540835E-01 0.  0.
         14    1    1    2    0    0 -0.13914256734E-01 -0.94771743008E-02 -0.16907316166E-01  0.23859604211E-01  0.00000000000E+00 0.  1.
     999901    1    3    3    0    0  0.51393509379E-01 -0.27702433844E-01  0.13202206792E+00  0.89176148384E+00  0.88000000000E+00 0.  1.
        -11    1    4    4    0    0 -0.26782782014E-01  0.14619616556E-01 -0.76045913807E-01  0.81940787941E-01  0.51100000000E-03 0.  1.
         11    1    4    4    0    0 -0.10696470631E-01  0.22559991589E-01 -0.39068837945E-01  0.46368124006E-01  0.51100000000E-03 0. -1.
</event>
<event>
 8    1  0.1108957E+005  0.1043930E+01  0.7957747E-01            NaN
         13   -1    0    0    0    0  0.00000000000E+00  0.00000000000E+00  0.74505805969E-08  0.10566000000E+00  0.10566000000E+00 0.  1.
     999900   -1    0    0    0    0 -0.00000000000E+00 -0.00000000000E+00 -0.74505805969E-08  0.93827000000E+00  0.93827000000E+00 0.  1.
     999902    2    1    2    0    0  0.19363082102E-01 -0.83263448365E-02 -0.98606980192E-02  0.10206600552E+01  0.10203947559E+01 0.  0.
     999903    2    3    3    0    0  0.10821741665E+00  0.26993399561E-01 -0.70443553391E-01  0.13340988781E+00  0.19906056011E-01 0.  0.
         14    1    1    2    0    0 -0.19363082102E-01  0.83263448365E-02  0.98606980192E-02  0.23269944827E-01  0.00000000000E+00 0. -1.
     999901    1    3    3    0    0 -0.88854334550E-01 -0.35319744397E-01  0.60582855371E-01  0.88725016736E+00  0.88000000000E+00 0. -1.
        -11    1    4    4    0    0  0.90819121747E-01  0.29854840105E-01 -0.60948558533E-01  0.11337730047E+00  0.51100000000E-03 0.  1.
         11    1    4    4    0    0  0.17398294904E-01 -0.28614405437E-02 -0.94949948576E-02  0.20032587349E-01  0.51100000000E-03 0. -1.
</event>
<event>
 8    1  0.1108957E+005  0.1043930E+01  0.7957747E-01            NaN
         13   -1    0    0    0    0  0.00000000000E+00  0.00000000000E+00  0.74505805969E-08  0.10566000000E+00  0.10566000000E+00 0.  1.
     999900   -1    0    0    0    0 -0.00000000000E+00 -0.00000000000E+00 -0.74505805969E-08  0.93827000000E+00  0.93827000000E+00 0. -1.
     999902    2    1    2    0    0  0.24612969423E-02  0.96226128219E-02 -0.21080463492E-01  0.10206268114E+01  0.10203607448E+01 0.  0.
     999903    2    3    3    0    0 -0.14900377741E-01 -0.11860577135E+00  0.43547061195E-01  0.12881928548E+00  0.20216614899E-01 0.  0.
         14    1    1    2    0    0 -0.24612969423E-02 -0.96226128219E-02  0.21080463492E-01  0.23303188649E-01  0.00000000000E+00 0.  1.
     999901    1    3    3    0    0  0.17361674683E-01  0.12822838417E+00 -0.64627524687E-01  0.89180752587E+00  0.88000000000E+00 0. -1.
        -11    1    4    4    0    0 -0.14905559226E-01 -0.10461150930E+00  0.31277968093E-01  0.11020125219E+00  0.51100000000E-03 0.  1.
         11    1    4    4    0    0  0.51814855595E-05 -0.13994262047E-01  0.12269093102E-01  0.18618033291E-01  0.51100000000E-03 0. -1.
</event>
<event>
 8    1  0.1108957E+005  0.1043930E+01  0.7957747E-01            NaN
         13   -1    0    0    0    0  0.00000000000E+00  0.00000000000E+00  0.74505805969E-08  0.10566000000E+00  0.10566000000E+00 0.  1.
     999900   -1    0    0    0    0 -0.00000000000E+00 -0.00000000000E+00 -0.74505805969E-08  0.93827000000E+00  0.93827000000E+00 0.  1.
     999902    2    1    2    0    0 -0.22280833529E-01  0.11362162609E-01 -0.40646252910E-02  0.10185911867E+01  0.10182759695E+01 0.  0.
     999903    2    3    3    0    0  0.61319468448E-01 -0.10703166857E+00 -0.14394836787E-01  0.12667593116E+00  0.24974485418E-01 0.  0.
         14    1    1    2    0    0  0.22280833529E-01 -0.11362162609E-01  0.40646252910E-02  0.25338813323E-01  0.00000000000E+00 0. -1.
     999901    1    3    3    0    0 -0.83600301977E-01  0.11839383118E+00  0.10330211496E-01  0.89191525552E+00  0.88000000000E+00 0. -1.
        -11    1    4    4    0    0  0.20676041982E-01 -0.20431853585E-01  0.37258597881E-02  0.29310450442E-01  0.51100000000E-03 0. -1.
         11    1    4    4    0    0  0.40643426466E-01 -0.86599814984E-01 -0.18120696575E-01  0.97365480719E-01  0.51100000000E-03 0.  1.
</event>
<event>
 8    1  0.1108957E+005  0.1043930E+01  0.7957747E-01            NaN
         13   -1    0    0    0    0  0.00000000000E+00  0.00000000000E+00  0.74505805969E-08  0.10566000000E+00  0.10566000000E+00 0. -1.
     999900   -1    0    0    0    0 -0.00000000000E+00 -0.00000000000E+00 -0.74505805969E-08  0.93827000000E+00  0.93827000000E+00 0. -1.
     999902    2    1    2    0    0  0.71384713738E-02  0.20125791023E-01  0.12512825019E-01  0.10191797267E+01  0.10188791583E+01 0.  0.
     999903    2    3    3    0    0 -0.40029005655E-02  0.32685014367E-01 -0.12291084022E+00  0.12866221798E+00  0.19040964125E-01 0.  0.
         14    1    1    2    0    0 -0.71384713738E-02 -0.20125791023E-01 -0.12512825019E-01  0.24750273288E-01  0.00000000000E+00 0.  1.
     999901    1    3    3    0    0  0.11141371939E-01 -0.12559223344E-01  0.13542366524E+00  0.89051750874E+00  0.88000000000E+00 0.  1.
        -11    1    4    4    0    0  0.40863275432E-02  0.28571960855E-01 -0.89743520035E-01  0.94272029410E-01  0.51100000000E-03 0. -1.
         11    1    4    4    0    0 -0.80892281087E-02  0.41130535119E-02 -0.33167320181E-01  0.34390188566E-01  0.51100000000E-03 0.  1.
</event>
<event>
 8    1  0.1108957E+005  0.1043930E+01  0.7957747E-01            NaN
         13   -1    0    0    0    0  0.00000000000E+00  0.00000000000E+00  0.74505805969E-08  0.10566000000E+00  0.10566000000E+00 0.  1.
     999900   -1    0    0    0    0 -0.00000000000E+00 -0.00000000000E+00 -0.74505805969E-08  0.93827000000E+00  0.93827000000E+00 0. -1.
     999902    2    1    2    0    0 -0.57064261073E-02 -0.23885096134E-01 -0.47817733087E-02  0.10189114774E+01  0.10186042766E+01 0.  0.
     999903    2    3    3    0    0  0.48360536186E-01 -0.81075323797E-01 -0.88905284996E-01  0.13140332322E+00  0.21230498430E-01 0.  0.
         14    1    1    2    0    0  0.57064261073E-02  0.23885096134E-01  0.47817733087E-02  0.25018522582E-01  0.00000000000E+00 0.  1.
     999901    1    3    3    0    0 -0.54066962293E-01  0.57190227663E-01  0.84123511687E-01  0.88750815420E+00  0.88000000000E+00 0.  1.
        -11    1    4    4    0    0  0.16443191985E-01 -0.48057503506E-01 -0.44799470857E-01  0.67728545799E-01  0.51100000000E-03 0. -1.
         11    1    4    4    0    0  0.31917344201E-01 -0.33017820291E-01 -0.44105814139E-01  0.63674777420E-01  0.51100000000E-03 0.  1.
</event>
<event>
 8    1  0.1319577E+005  0.1043930E+01  0.7957747E-01            NaN
         13   -1    0    0    0    0  0.00000000000E+00  0.00000000000E+00  0.74505805969E-08  0.10566000000E+00  0.10566000000E+00 0. -1.
     999900   -1    0    0    0    0 -0.00000000000E+00 -0.00000000000E+00 -0.74505805969E-08  0.93827000000E+00  0.93827000000E+00 0. -1.
     999902    2    1    2    0    0  0.14354389589E-01 -0.15498967949E-01 -0.10314821512E-01  0.10204212346E+01  0.10201503977E+01 0.  0.
     999903    2    3    3    0    0  0.38321765351E-01  0.39076702544E-01  0.11564738482E+00  0.12945579400E+00  0.19721526421E-01 0.  0.
         14    1    1    2    0    0 -0.14354389589E-01  0.15498967949E-01  0.10314821512E-01  0.23508765403E-01  0.00000000000E+00 0. -1.
     999901    1    3    3    0    0 -0.23967375762E-01 -0.54575670494E-01 -0.12596220633E+00  0.89096544059E+00  0.88000000000E+00 0. -1.
        -11    1    4    4    0    0  0.32090181078E-01  0.26883030062E-01  0.67794916840E-01  0.79679915269E-01  0.51100000000E-03 0.  1.
         11    1    4    4    0    0  0.62315842727E-02  0.12193672483E-01  0.47852467978E-01  0.49775878734E-01  0.51100000000E-03 0. -1.
</event>
<event>
 8    1  0.1108957E+005  0.1043930E+01  0.7957747E-01            NaN
         13   -1    0    0    0    0  0.00000000000E+00  0.00000000000E+00  0.74505805969E-08  0.10566000000E+00  0.10566000000E+00 0.  1.
     999900   -1    0    0    0    0 -0.00000000000E+00 -0.00000000000E+00 -0.74505805969E-08  0.93827000000E+00  0.93827000000E+00 0.  1.
     999902    2    1    2    0    0 -0.16269957074E-01  0.17306046451E-01  0.33030087910E-02  0.10199483275E+01  0.10196663524E+01 0.  0.
     999903    2    3    3    0    0  0.30436417272E-01 -0.12142917709E+00 -0.15677058681E-01  0.12765398674E+00  0.19451211192E-01 0.  0.
         14    1    1    2    0    0  0.16269957074E-01 -0.17306046451E-01 -0.33030087910E-02  0.23981672461E-01  0.00000000000E+00 0.  1.
     999901    1    3    3    0    0 -0.46706374346E-01  0.13873522354E+00  0.18980067472E-01  0.89229434080E+00  0.88000000000E+00 0. -1.
        -11    1    4    4    0    0  0.14806190366E-01 -0.75241047446E-01 -0.86635348517E-03  0.76690613397E-01  0.51100000000E-03 0.  1.
         11    1    4    4    0    0  0.15630226906E-01 -0.46188129646E-01 -0.14810705196E-01  0.50963373346E-01  0.51100000000E-03 0. -1.
</event>
<event>
 8    1  0.1108957E+005  0.1043930E+01  0.7957747E-01            NaN
         13   -1    0    0    0    0  0.00000000000E+00  0.00000000000E+00  0.74505805969E-08  0.10566000000E+00  0.10566000000E+00 0. -1.
     999900   -1    0    0    0    0 -0.00000000000E+00 -0.00000000000E+00 -0.74505805969E-08  0.93827000000E+00  0.93827000000E+00 0. -1.
     999902    2    1    2    0    0  0.32305329417E-02  0.12981072209E-01  0.21714683597E-01  0.10184256462E+01  0.10181062444E+01 0.  0.
     999903    2    3    3    0    0 -0.10910652463E+00  0.66554304383E-01  0.14260365726E-01  0.12963699159E+00  0.16391534701E-01 0.  0.
         14    1    1    2    0    0 -0.32305329417E-02 -0.12981072209E-01 -0.21714683597E-01  0.25504353795E-01  0.00000000000E+00 0. -1.
     999901    1    3    3    0    0  0.11233705757E+00 -0.53573232174E-01  0.74543178709E-02  0.88878865461E+00  0.88000000000E+00 0.  1.
        -11    1    4    4    0    0 -0.24297313306E-01  0.10444040410E-01 -0.25138384888E-02  0.26570997703E-01  0.51100000000E-03 0.  1.
         11    1    4    4    0    0 -0.84809211326E-01  0.56110263973E-01  0.16774204215E-01  0.10306599389E+00  0.51100000000E-03 0. -1.
</event>
<event>
 8    1  0.1108957E+005  0.1043930E+01  0.7957747E-01            NaN
         13   -1    0    0    0    0  0.00000000000E+00  0.00000000000E+00  0.74505805969E-08  0.10566000000E+00  0.10566000000E+00 0. -1.
     999900   -1    0    0    0    0 -0.00000000000E+00 -0.00000000000E+00 -0.74505805969E-08  0.93827000000E+00  0.93827000000E+00 0.  1.
     999902    2    1    2    0    0 -0.37572578963E-02 -0.10430567890E-01 -0.18515745384E-01  0.10223488378E+01  0.10221210298E+01 0.  0.
     999903    2    3    3    0    0 -0.26202245471E-01 -0.95160093880E-01 -0.90016417246E-01  0.13510861325E+00  0.20233162509E-01 0.  0.
         14    1    1    2    0    0  0.37572578963E-02  0.10430567890E-01  0.18515745384E-01  0.21581162168E-01  0.00000000000E+00 0. -1.
     999901    1    3    3    0    0  0.22444987575E-01  0.84729525990E-01  0.71500671862E-01  0.88724022458E+00  0.88000000000E+00 0. -1.
        -11    1    4    4    0    0 -0.14458735495E-01 -0.48815053836E-01 -0.59844039253E-01  0.78571843991E-01  0.51100000000E-03 0. -1.
         11    1    4    4    0    0 -0.11743509976E-01 -0.46345040044E-01 -0.30172377993E-01  0.56536769257E-01  0.51100000000E-03 0.  1.
</event>
<event>
 8    1  0.1108957E+005  0.1043930E+01  0.7957747E-01            NaN
         13   -1    0    0    0    0  0.00000000000E+00  0.00000000000E+00  0.74505805969E-08  0.10566000000E+00  0.10566000000E+00 0. -1.
     999900   -1    0    0    0    0 -0.00000000000E+00 -0.00000000000E+00 -0.74505805969E-08  0.93827000000E+00  0.93827000000E+00 0.  1.
     999902    2    1    2    0    0  0.15993978778E-01  0.12624220730E-01  0.12305312407E-01  0.10201266595E+01  0.10198489115E+01 0.  0.
     999903    2    3    3    0    0 -0.44542120297E-01  0.60556192318E-01  0.10640926533E+00  0.13174743463E+00  0.19580650550E-01 0.  0.
         14    1    1    2    0    0 -0.15993978778E-01 -0.12624220730E-01 -0.12305312407E-01  0.23803340514E-01  0.00000000000E+00 0.  1.
     999901    1    3    3    0    0  0.60536099075E-01 -0.47931971588E-01 -0.94103952923E-01  0.88837922485E+00  0.88000000000E+00 0.  1.
        -11    1    4    4    0    0 -0.18369500831E-01  0.41233672764E-01  0.61380726045E-01  0.76193890708E-01  0.51100000000E-03 0.  1.
         11    1    4    4    0    0 -0.26172619466E-01  0.19322519554E-01  0.45028539285E-01  0.55553543926E-01  0.51100000000E-03 0. -1.
</event>
<event>
 8    1  0.1108957E+005  0.1043930E+01  0.7957747E-01            NaN
         13   -1    0    0    0    0  0.00000000000E+00  0.00000000000E+00  0.74505805969E-08  0.10566000000E+00  0.10566000000E+00 0.  1.
     999900   -1    0    0    0    0 -0.00000000000E+00 -0.00000000000E+00 -0.74505805969E-08  0.93827000000E+00  0.93827000000E+00 0. -1.
     999902    2    1    2    0    0 -0.58270512078E-02  0.81407192360E-02  0.22800479914E-01  0.10190284394E+01  0.10187241396E+01 0.  0.
     999903    2    3    3    0    0 -0.51598142621E-01  0.86642981410E-01  0.83268145704E-01  0.13228499479E+00  0.19908822356E-01 0.  0.
         14    1    1    2    0    0  0.58270512078E-02 -0.81407192360E-02 -0.22800479914E-01  0.24901560589E-01  0.00000000000E+00 0. -1.
     999901    1    3    3    0    0  0.45771091413E-01 -0.78502262174E-01 -0.60467665790E-01  0.88674344462E+00  0.88000000000E+00 0. -1.
        -11    1    4    4    0    0 -0.28328207578E-01  0.64653178637E-01  0.60861197276E-01  0.93203365322E-01  0.51100000000E-03 0.  1.
         11    1    4    4    0    0 -0.23269935043E-01  0.21989802772E-01  0.22406948428E-01  0.39081629466E-01  0.51100000000E-03 0. -1.
</event>
<event>
 8    1  0.1108957E+005  0.1043930E+01  0.7957747E-01            NaN
         13   -1    0    0    0    0  0.00000000000E+00  0.00000000000E+00  0.74505805969E-08  0.10566000000E+00  0.10566000000E+00 0. -1.
     999900   -1    0    0    0    0 -0.00000000000E+00 -0.00000000000E+00 -0.74505805969E-08  0.93827000000E+00  0.93827000000E+00 0.  1.
     999902    2    1    2    0    0 -0.18090595458E-02  0.58214787305E-03  0.23748874541E-01  0.10201052097E+01  0.10198269550E+01 0.  0.
     999903    2    3    3    0    0  0.23943137007E-01 -0.82153591740E-01 -0.93568045857E-01  0.12810092826E+00  0.18231351278E-01 0.  0.
         14    1    1    2    0    0  0.18090595458E-02 -0.58214787305E-03 -0.23748874541E-01  0.23824790336E-01  0.00000000000E+00 0.  1.
     999901    1    3    3    0    0 -0.25752196553E-01  0.82735739613E-01  0.11731692040E+00  0.89200428141E+00  0.88000000000E+00 0. -1.
        -11    1    4    4    0    0  0.86142044160E-02 -0.37287659237E-01 -0.29128121750E-01  0.48096597039E-01  0.51100000000E-03 0. -1.
         11    1    4    4    0    0  0.15328932591E-01 -0.44865932503E-01 -0.64439924107E-01  0.80004331218E-01  0.51100000000E-03 0.  1.
</event>
<event>
 8    1  0.1108957E+005  0.1043930E+01  0.7957747E-01            NaN
         13   -1    0    0    0    0  0.00000000000E+00  0.00000000000E+00  0.74505805969E-08  0.10566000000E+00  0.10566000000E+00 0.  1.
     999900   -1    0    0    0    0 -0.00000000000E+00 -0.00000000000E+00 -0.74505805969E-08  0.93827000000E+00  0.93827000000E+00 0.  1.
     999902    2    1    2    0    0 -0.19147483691E-01  0.16265314649E-02  0.11963010413E-01  0.10212940694E+01  0.10210431875E+01 0.  0.
     999903    2    3    3    0    0 -0.63361822546E-01  0.11543959594E-01 -0.11266692856E+00  0.13135818135E+00  0.20326127438E-01 0.  0.
         14    1    1    2    0    0  0.19147483691E-01 -0.16265314649E-02 -0.11963010413E-01  0.22635930607E-01  0.00000000000E+00 0. -1.
     999901    1    3    3    0    0  0.44214338856E-01 -0.99174281289E-02  0.12462993897E+00  0.88993588804E+00  0.88000000000E+00 0. -1.
        -11    1    4    4    0    0 -0.25784818913E-01 -0.42178658492E-02 -0.35370692878E-01  0.43977202211E-01  0.51100000000E-03 0. -1.
         11    1    4    4    0    0 -0.37577003634E-01  0.15761825443E-01 -0.77296235682E-01  0.87380979138E-01  0.51100000000E-03 0.  1.
</event>
<event>
 8    1  0.1108957E+005  0.1043930E+01  0.7957747E-01            NaN
         13   -1    0    0    0    0  0.00000000000E+00  0.00000000000E+00  0.74505805969E-08  0.10566000000E+00  0.10566000000E+00 0. -1.
     999900   -1    0    0    0    0 -0.00000000000E+00 -0.00000000000E+00 -0.74505805969E-08  0.93827000000E+00  0.93827000000E+00 0.  1.
     999902    2    1    2    0    0 -0.42262752133E-02  0.23253359536E-01  0.21807488076E-02  0.10201953039E+01  0.10199191744E+01 0.  0.
     999903    2    3    3    0    0 -0.50219024457E-01  0.17806974468E-01 -0.11782417700E+00  0.13084375460E+00  0.19962782255E-01 0.  0.
         14    1    1    2    0    0  0.42262752133E-02 -0.23253359536E-01 -0.21807488076E-02  0.23734696064E-01  0.00000000000E+00 0. -1.
     999901    1    3    3    0    0  0.45992749243E-01  0.54463850682E-02  0.12000492580E+00  0.88935154934E+00  0.88000000000E+00 0.  1.
        -11    1    4    4    0    0 -0.29161160348E-01  0.93524437946E-02 -0.44011103961E-01  0.53619771266E-01  0.51100000000E-03 0. -1.
         11    1    4    4    0    0 -0.21057864109E-01  0.84545306733E-02 -0.73813073035E-01  0.77223983332E-01  0.51100000000E-03 0.  1.
</event>
<event>
 8    1  0.1108957E+005  0.1043930E+01  0.7957747E-01            NaN
         13   -1    0    0    0    0  0.00000000000E+00  0.00000000000E+00  0.74505805969E-08  0.10566000000E+00  0.10566000000E+00 0.  1.
     999900   -1    0    0    0    0 -0.00000000000E+00 -0.00000000000E+00 -0.74505805969E-08  0.93827000000E+00  0.93827000000E+00 0. -1.
     999902    2    1    2    0    0  0.69287561509E-02  0.22255412260E-01 -0.53926071707E-02  0.10200053004E+01  0.10197246794E+01 0.  0.
     999903    2    3    3    0    0 -0.32721563314E-02  0.20895000638E-01 -0.12810160245E+00  0.13143149549E+00  0.20418359336E-01 0.  0.
         14    1    1    2    0    0 -0.69287561509E-02 -0.22255412260E-01  0.53926071707E-02  0.23924699554E-01  0.00000000000E+00 0.  1.
     999901    1    3    3    0    0  0.10200912482E-01  0.13604116220E-02  0.12270899528E+00  0.88857380496E+00  0.88000000000E+00 0.  1.
        -11    1    4    4    0    0  0.63164812034E-02  0.49462546548E-02 -0.17295811173E-01  0.19072744298E-01  0.51100000000E-03 0. -1.
         11    1    4    4    0    0 -0.95886375348E-02  0.15948745983E-01 -0.11080579127E+00  0.11235875119E+00  0.51100000000E-03 0.  1.
</event>
<event>
 8    1  0.1108957E+005  0.1043930E+01  0.7957747E-01            NaN
         13   -1    0    0    0    0  0.00000000000E+00  0.00000000000E+00  0.74505805969E-08  0.10566000000E+00  0.10566000000E+00 0.  1.
     999900   -1    0    0    0    0 -0.00000000000E+00 -0.00000000000E+00 -0.74505805969E-08  0.93827000000E+00  0.93827000000E+00 0.  1.
     999902    2    1    2    0    0  0.96016645319E-02  0.71127144596E-02 -0.20166263478E-01  0.10204894187E+01  0.10202201688E+01 0.  0.
     999903    2    3    3    0    0 -0.61484853308E-01 -0.10704639142E+00  0.30849182539E-01  0.12881225167E+00  0.20040135088E-01 0.  0.
         14    1    1    2    0    0 -0.96016645319E-02 -0.71127144596E-02  0.20166263478E-01  0.23440581295E-01  0.00000000000E+00 0. -1.
     999901    1    3    3    0    0  0.71086517840E-01  0.11415910588E+00 -0.51015446018E-01  0.89167716703E+00  0.88000000000E+00 0.  1.
        -11    1    4    4    0    0 -0.39891219921E-01 -0.84788022257E-01  0.27260431899E-01  0.97589499504E-01  0.51100000000E-03 0.  1.
         11    1    4    4    0    0 -0.21593633387E-01 -0.22258369167E-01  0.35887506400E-02  0.31222752169E-01  0.51100000000E-03 0. -1.
</event>
<event>
 8    1  0.1108957E+005  0.1043930E+01  0.7957747E-01            NaN
         13   -1    0    0    0    0  0.00000000000E+00  0.00000000000E+00  0.74505805969E-08  0.10566000000E+00  0.10566000000E+00 0. -1.
     999900   -1    0    0    0    0 -0.00000000000E+00 -0.00000000000E+00 -0.74505805969E-08  0.93827000000E+00  0.93827000000E+00 0.  1.
     999902    2    1    2    0    0  0.93737892208E-02 -0.21687854512E-01  0.45569498282E-02  0.10198676487E+01  0.10195837504E+01 0.  0.
     999903    2    3    3    0    0  0.16904029723E-01  0.82843724007E-01  0.95379149237E-01  0.12900726272E+00  0.19921418040E-01 0.  0.
         14    1    1    2    0    0 -0.93737892208E-02  0.21687854512E-01 -0.45569498282E-02  0.24062351286E-01  0.00000000000E+00 0. -1.
     999901    1    3    3    0    0 -0.75302405022E-02 -0.10453157852E+00 -0.90822199409E-01  0.89086038600E+00  0.88000000000E+00 0.  1.
        -11    1    4    4    0    0  0.16994522431E-01  0.40069896982E-01  0.55418803007E-01  0.70469250631E-01  0.51100000000E-03 0. -1.
         11    1    4    4    0    0 -0.90492708436E-04  0.42773827025E-01  0.39960346230E-01  0.58538012087E-01  0.51100000000E-03 0.  1.
</event>
<event>
 8    1  0.1108957E+005  0.1043930E+01  0.7957747E-01            NaN
         13   -1    0    0    0    0  0.00000000000E+00  0.00000000000E+00  0.74505805969E-08  0.10566000000E+00  0.10566000000E+00 0. -1.
     999900   -1    0    0    0    0 -0.00000000000E+00 -0.00000000000E+00 -0.74505805969E-08  0.93827000000E+00  0.93827000000E+00 0.  1.
     999902    2    1    2    0    0  0.10000261320E-01  0.29843896747E-02  0.20849672774E-01  0.10206143258E+01  0.10203479707E+01 0.  0.
     999903    2    3    3    0    0 -0.89965405011E-01  0.91346834733E-01 -0.10275438167E-01  0.13001350127E+00  0.18971230005E-01 0.  0.
         14    1    1    2    0    0 -0.10000261320E-01 -0.29843896747E-02 -0.20849672774E-01  0.23315674191E-01  0.00000000000E+00 0.  1.
     999901    1    3    3    0    0  0.99965666331E-01 -0.88362445058E-01  0.31125110941E-01  0.89060082454E+00  0.88000000000E+00 0. -1.
        -11    1    4    4    0    0 -0.59899241705E-01  0.57841435750E-01  0.21927418125E-02  0.83298379841E-01  0.51100000000E-03 0. -1.
         11    1    4    4    0    0 -0.30066163306E-01  0.33505398983E-01 -0.12468179980E-01  0.46715121427E-01  0.51100000000E-03 0.  1.
</event>
<event>
 8    1  0.1108957E+005  0.1043930E+01  0.7957747E-01            NaN
         13   -1    0    0    0    0  0.00000000000E+00  0.00000000000E+00  0.74505805969E-08  0.10566000000E+00  0.10566000000E+00 0.  1.
     999900   -1    0    0    0    0 -0.00000000000E+00 -0.00000000000E+00 -0.74505805969E-08  0.93827000000E+00  0.93827000000E+00 0. -1.
     999902    2    1    2    0    0 -0.11196585917E-01  0.85694057272E-02 -0.19343987271E-01  0.10199928303E+01  0.10197119131E+01 0.  0.
     999903    2    3    3    0    0  0.37480726018E-01  0.11722973946E+00  0.36568568324E-01  0.13021602529E+00  0.21710283634E-01 0.  0.
         14    1    1    2    0    0  0.11196585917E-01 -0.85694057272E-02  0.19343987271E-01  0.23937169721E-01  0.00000000000E+00 0.  1.
     999901    1    3    3    0    0 -0.48677311936E-01 -0.10866033374E+00 -0.55912555595E-01  0.88977680499E+00  0.88000000000E+00 0. -1.
        -11    1    4    4    0    0  0.25570811843E-01  0.75122672875E-01  0.12696321565E-01  0.80366287089E-01  0.51100000000E-03 0. -1.
         11    1    4    4    0    0  0.11909914175E-01  0.42107066587E-01  0.23872246759E-01  0.49849738200E-01  0.51100000000E-03 0.  1.
</event>
<event>
 8    1  0.1108957E+005  0.1043930E+01  0.7957747E-01            NaN
         13   -1    0    0    0    0  0.00000000000E+00  0.00000000000E+00  0.74505805969E-08  0.10566000000E+00  0.10566000000E+00 0.  1.
     999900   -1    0    0    0    0 -0.00000000000E+00 -0.00000000000E+00 -0.74505805969E-08  0.93827000000E+00  0.93827000000E+00 0.  1.
     999902    2    1    2    0    0  0.20523014189E-02  0.23764856931E-01  0.31771286713E-02  0.10198660329E+01  0.10195820960E+01 0.  0.
     999903    2    3    3    0    0 -0.12338951279E+00  0.11000922162E-01  0.34982059005E-01  0.13030989618E+00  0.20271468484E-01 0.  0.
         14    1    1    2    0    0 -0.20523014189E-02 -0.23764856931E-01 -0.31771286713E-02  0.24063967101E-01  0.00000000000E+00 0.  1.
     999901    1    3    3    0    0  0.12544181421E+00  0.12763934769E-01 -0.31804930333E-01  0.88955613672E+00  0.88000000000E+00 0.  1.
        -11    1    4    4    0    0 -0.54493208789E-01  0.14475522930E-01  0.12512289364E-01  0.57756982906E-01  0.51100000000E-03 0.  1.
         11    1    4    4    0    0 -0.68896304002E-01 -0.34746007675E-02  0.22469769641E-01  0.72552913273E-01  0.51100000000E-03 0. -1.
</event>
<event>
 8    1  0.1108957E+005  0.1043930E+01  0.7957747E-01            NaN
         13   -1    0    0    0    0  0.00000000000E+00  0.00000000000E+00  0.74505805969E-08  0.10566000000E+00  0.10566000000E+00 0.  1.
     999900   -1    0    0    0    0 -0.00000000000E+00 -0.00000000000E+00 -0.74505805969E-08  0.93827000000E+00  0.93827000000E+00 0.  1.
     999902    2    1    2    0    0  0.60295197148E-02 -0.22623095964E-01  0.74033474856E-02  0.10193745702E+01  0.10190787728E+01 0.  0.
     999903    2    3    3    0    0 -0.91333928690E-01 -0.48267567739E-01 -0.75886406648E-01  0.12972606479E+00  0.19961476581E-01 0.  0.
         14    1    1    2    0    0 -0.60295197148E-02  0.22623095964E-01 -0.74033474856E-02  0.24555429806E-01  0.00000000000E+00 0. -1.
     999901    1    3    3    0    0  0.97363448405E-01  0.25644471775E-01  0.83289754134E-01  0.88964850540E+00  0.88000000000E+00 0. -1.
        -11    1    4    4    0    0 -0.60834184197E-01 -0.40602341699E-01 -0.59350336543E-01  0.94191675254E-01  0.51100000000E-03 0.  1.
         11    1    4    4    0    0 -0.30499744494E-01 -0.76652260401E-02 -0.16536070105E-01  0.35534389540E-01  0.51100000000E-03 0. -1.
</event>
<event>
 8    1  0.1108957E+005  0.1043930E+01  0.7957747E-01            NaN
         13   -1    0    0    0    0  0.00000000000E+00  0.00000000000E+00  0.74505805969E-08  0.10566000000E+00  0.10566000000E+00 0. -1.
     999900   -1    0    0    0    0 -0.00000000000E+00 -0.00000000000E+00 -0.74505805969E-08  0.93827000000E+00  0.93827000000E+00 0.  1.
     999902    2    1    2    0    0 -0.12423663828E-01 -0.30155482460E-02  0.20271395721E-01  0.10199639732E+01  0.10196823703E+01 0.  0.
     999903    2    3    3    0    0 -0.24335565765E-01  0.23772492206E-01  0.12718638585E+00  0.13300833307E+00  0.18907373517E-01 0.  0.
         14    1    1    2    0    0  0.12423663828E-01  0.30155482460E-02 -0.20271395721E-01  0.23966026759E-01  0.00000000000E+00 0.  1.
     999901    1    3    3    0    0  0.11911901937E-01 -0.26788040452E-01 -0.10691499013E+00  0.88695564017E+00  0.88000000000E+00 0.  1.
        -11    1    4    4    0    0 -0.18069272130E-01  0.10063338149E-01  0.97948815730E-01  0.10010994453E+00  0.51100000000E-03 0.  1.
         11    1    4    4    0    0 -0.62662936354E-02  0.13709154057E-01  0.29237570120E-01  0.32898388538E-01  0.51100000000E-03 0. -1.
</event>
<event>
 8    1  0.1108957E+005  0.1043930E+01  0.7957747E-01            NaN
         13   -1    0    0    0    0  0.00000000000E+00  0.00000000000E+00  0.74505805969E-08  0.10566000000E+00  0.10566000000E+00 0. -1.
     999900   -1    0    0    0    0 -0.00000000000E+00 -0.00000000000E+00 -0.74505805969E-08  0.93827000000E+00  0.93827000000E+00 0. -1.
     999902    2    1    2    0    0 -0.17722493881E-01 -0.13911277923E-02  0.16891198565E-01  0.10194078750E+01  0.10191128892E+01 0.  0.
     999903    2    3    3    0    0 -0.12696845520E+00  0.24688612637E-01  0.19657446008E-01  0.13226499752E+00  0.19419015815E-01 0.  0.
         14    1    1    2    0    0  0.17722493881E-01  0.13911277923E-02 -0.16891198565E-01  0.24522125007E-01  0.00000000000E+00 0.  1.
     999901    1    3    3    0    0  0.10924596132E+00 -0.26079740430E-01 -0.27662474431E-02  0.88714287747E+00  0.88000000000E+00 0.  1.
        -11    1    4    4    0    0 -0.30453588789E-01  0.14431125161E-01  0.37769556317E-02  0.33914671727E-01  0.51100000000E-03 0. -1.
         11    1    4    4    0    0 -0.96514866412E-01  0.10257487477E-01  0.15880490377E-01  0.98350325793E-01  0.51100000000E-03 0.  1.
</event>
<event>
 8    1  0.1108957E+005  0.1043930E+01  0.7957747E-01            NaN
         13   -1    0    0    0    0  0.00000000000E+00  0.00000000000E+00  0.74505805969E-08  0.10566000000E+00  0.10566000000E+00 0. -1.
     999900   -1    0    0    0    0 -0.00000000000E+00 -0.00000000000E+00 -0.74505805969E-08  0.93827000000E+00  0.93827000000E+00 0. -1.
     999902    2    1    2    0    0  0.13387672123E-01  0.14846598400E-01  0.13001708794E-01  0.10200826588E+01  0.10198038709E+01 0.  0.
     999903    2    3    3    0    0 -0.62257855496E-01  0.11063761039E+00 -0.24409554962E-01  0.13087077943E+00  0.20362051253E-01 0.  0.
         14    1    1    2    0    0 -0.13387672123E-01 -0.14846598400E-01 -0.13001708794E-01  0.23847341162E-01  0.00000000000E+00 0.  1.
     999901    1    3    3    0    0  0.75645527619E-01 -0.95791011989E-01  0.37411263756E-01  0.88921187941E+00  0.88000000000E+00 0. -1.
        -11    1    4    4    0    0 -0.41012237026E-01  0.72165076608E-01 -0.60124091102E-02  0.83223867082E-01  0.51100000000E-03 0.  1.
         11    1    4    4    0    0 -0.21245618471E-01  0.38472533781E-01 -0.18397145852E-01  0.47646912348E-01  0.51100000000E-03 0. -1.
</event>
<event>
 8    1  0.1108957E+005  0.1043930E+01  0.7957747E-01            NaN
         13   -1    0    0    0    0  0.00000000000E+00  0.00000000000E+00  0.74505805969E-08  0.10566000000E+00  0.10566000000E+00 0. -1.
     999900   -1    0    0    0    0 -0.00000000000E+00 -0.00000000000E+00 -0.74505805969E-08  0.93827000000E+00  0.93827000000E+00 0. -1.
     999902    2    1    2    0    0  0.20669951557E-02 -0.19016202335E-01 -0.66141579500E-02  0.10236905458E+01  0.10234904485E+01 0.  0.
     999903    2    3    3    0    0  0.99887369477E-01  0.66310518704E-01  0.52219735812E-01  0.13222495365E+00  0.19543952742E-01 0.  0.
         14    1    1    2    0    0 -0.20669951557E-02  0.19016202335E-01  0.66141579500E-02  0.20239454182E-01  0.00000000000E+00 0.  1.
     999901    1    3    3    0    0 -0.97820374322E-01 -0.85326721039E-01 -0.58833893762E-01  0.89146559216E+00  0.88000000000E+00 0. -1.
        -11    1    4    4    0    0  0.63061933166E-01  0.41151745719E-01  0.22367391080E-01  0.78554661829E-01  0.51100000000E-03 0. -1.
         11    1    4    4    0    0  0.36825436311E-01  0.25158772985E-01  0.29852344732E-01  0.53670291825E-01  0.51100000000E-03 0.  1.
</event>
<event>
 8    1  0.1108957E+005  0.1043930E+01  0.7957747E-01            NaN
         13   -1    0    0    0    0  0.00000000000E+00  0.00000000000E+00  0.74505805969E-08  0.10566000000E+00  0.10566000000E+00 0.  1.
     999900   -1    0    0    0    0 -0.00000000000E+00 -0.00000000000E+00 -0.74505805969E-08  0.93827000000E+00  0.93827000000E+00 0. -1.
     999902    2    1    2    0    0  0.65951933869E-02  0.14381140949E-01  0.18023125112E-01  0.10199477810E+01  0.10196657928E+01 0.  0.
     999903    2    3    3    0    0  0.40854079652E-01 -0.11906226430E+00  0.17917260028E-01  0.12922850707E+00  0.23110608541E-01 0.  0.
         14    1    1    2    0    0 -0.65951933869E-02 -0.14381140949E-01 -0.18023125112E-01  0.23982219030E-01  0.00000000000E+00 0. -1.
     999901    1    3    3    0    0 -0.34258886265E-01  0.13344340525E+00  0.10586508377E-03  0.89071927390E+00  0.88000000000E+00 0. -1.
        -11    1    4    4    0    0  0.36202790213E-02 -0.28317991230E-01  0.11971199421E-01  0.30961036548E-01  0.51100000000E-03 0. -1.
         11    1    4    4    0    0  0.37233800630E-01 -0.90744273072E-01  0.59460606065E-02  0.98267470520E-01  0.51100000000E-03 0.  1.
</event>
<event>
 8    1  0.1108957E+005  0.1043930E+01  0.7957747E-01            NaN
         13   -1    0    0    0    0  0.00000000000E+00  0.00000000000E+00  0.74505805969E-08  0.10566000000E+00  0.10566000000E+00 0. -1.
     999900   -1    0    0    0    0 -0.00000000000E+00 -0.00000000000E+00 -0.74505805969E-08  0.93827000000E+00  0.93827000000E+00 0. -1.
     999902    2    1    2    0    0 -0.22173659677E-02 -0.19977103388E-01 -0.12055156425E-01  0.10204922491E+01  0.10202230650E+01 0.  0.
     999903    2    3    3    0    0  0.95629102847E-01  0.28896166879E-01  0.79534599802E-01  0.12900404868E+00  0.18340617204E-01 0.  0.
         14    1    1    2    0    0  0.22173659677E-02  0.19977103388E-01  0.12055156425E-01  0.23437750917E-01  0.00000000000E+00 0. -1.
     999901    1    3    3    0    0 -0.97846468815E-01 -0.48873270268E-01 -0.91589756226E-01  0.89148820040E+00  0.88000000000E+00 0. -1.
        -11    1    4    4    0    0  0.89047188833E-02  0.83563512345E-02  0.12507086439E-01  0.17487451402E-01  0.51100000000E-03 0.  1.
         11    1    4    4    0    0  0.86724383964E-01  0.20539815645E-01  0.67027513362E-01  0.11151659728E+00  0.51100000000E-03 0. -1.
</event>
<event>
 7    1  0.1108957E+005  0.1043930E+01  0.7957747E-01            NaN
         13   -1    0    0    0    0  0.00000000000E+00  0.00000000000E+00  0.74505805969E-08  0.10566000000E+00  0.10566000000E+00 0. -1.
     999900   -1    0    0    0    0 -0.00000000000E+00 -0.00000000000E+00 -0.74505805969E-08  0.93827000000E+00  0.93827000000E+00 0.  1.
     999903    2    1    2    0    0 -0.25962792068E-01 -0.10553808697E+00 -0.13686091466E-01  0.11142394594E+00  0.20387060993E-01 0.  0.
         14    1    1    2    0    0  0.34889247825E-02  0.12806690511E-02  0.45349367930E-01  0.45501405264E-01  0.00000000000E+00 0. -1.
     999901    1    1    2    0    0  0.22473867286E-01  0.10425741792E+00 -0.31663276464E-01  0.88700464879E+00  0.88000000000E+00 0. -1.
        -11    1    3    3    0    0 -0.10257026196E-01 -0.51314152577E-01 -0.16578323933E-01  0.54894906744E-01  0.51100000000E-03 0.  1.
         11    1    3    3    0    0 -0.15705765872E-01 -0.54223934398E-01  0.28922324669E-02  0.56529039200E-01  0.51100000000E-03 0. -1.
</event>
<event>
 8    1  0.1108957E+005  0.1043930E+01  0.7957747E-01            NaN
         13   -1    0    0    0    0  0.00000000000E+00  0.00000000000E+00  0.74505805969E-08  0.10566000000E+00  0.10566000000E+00 0.  1.
     999900   -1    0    0    0    0 -0.00000000000E+00 -0.00000000000E+00 -0.74505805969E-08  0.93827000000E+00  0.93827000000E+00 0.  1.
     999902    2    1    2    0    0  0.17238173586E-01  0.10288920542E-01  0.72710038992E-02  0.10225785595E+01  0.10223556261E+01 0.  0.
     999903    2    3    3    0    0 -0.64410449489E-01 -0.10499510512E+00 -0.37179638464E-01  0.13020377060E+00  0.19950394958E-01 0.  0.
         14    1    1    2    0    0 -0.17238173586E-01 -0.10288920542E-01 -0.72710038992E-02  0.21351440518E-01  0.00000000000E+00 0.  1.
     999901    1    3    3    0    0  0.81648623075E-01  0.11528402567E+00  0.44450642364E-01  0.89237478888E+00  0.88000000000E+00 0.  1.
        -11    1    4    4    0    0 -0.17344439923E-01 -0.16804881071E-01 -0.12675438838E-01  0.27279323576E-01  0.51100000000E-03 0. -1.
         11    1    4    4    0    0 -0.47066009567E-01 -0.88190224053E-01 -0.24504199627E-01  0.10292444703E+00  0.51100000000E-03 0.  1.
</event>
<event>
 8    1  0.1108957E+005  0.1043930E+01  0.7957747E-01            NaN
         13   -1    0    0    0    0  0.00000000000E+00  0.00000000000E+00  0.74505805969E-08  0.10566000000E+00  0.10566000000E+00 0. -1.
     999900   -1    0    0    0    0 -0.00000000000E+00 -0.00000000000E+00 -0.74505805969E-08  0.93827000000E+00  0.93827000000E+00 0.  1.
     999902    2    1    2    0    0  0.22288348698E-01 -0.21266428556E-01 -0.19680604693E-02  0.10130608450E+01  0.10125904260E+01 0.  0.
     999903    2    3    3    0    0 -0.52347725627E-01 -0.69560409657E-01 -0.86916773749E-01  0.12451195148E+00  0.19229288425E-01 0.  0.
         14    1    1    2    0    0 -0.22288348698E-01  0.21266428556E-01  0.19680604693E-02  0.30869155045E-01  0.00000000000E+00 0.  1.
     999901    1    3    3    0    0  0.74636074324E-01  0.48293981101E-01  0.84948713280E-01  0.88854889347E+00  0.88000000000E+00 0. -1.
        -11    1    4    4    0    0 -0.26108822183E-01 -0.24779475517E-01 -0.25585862384E-01  0.44165489668E-01  0.51100000000E-03 0.  1.
         11    1    4    4    0    0 -0.26238903444E-01 -0.44780934140E-01 -0.61330911366E-01  0.80346461816E-01  0.51100000000E-03 0. -1.
</event>
<event>
 8    1  0.1108957E+005  0.1043930E+01  0.7957747E-01            NaN
         13   -1    0    0    0    0  0.00000000000E+00  0.00000000000E+00  0.74505805969E-08  0.10566000000E+00  0.10566000000E+00 0.  1.
     999900   -1    0    0    0    0 -0.00000000000E+00 -0.00000000000E+00 -0.74505805969E-08  0.93827000000E+00  0.93827000000E+00 0. -1.
     999902    2    1    2    0    0 -0.90963312314E-02  0.79796428714E-02  0.18752458243E-01  0.10216124591E+01  0.10213686621E+01 0.  0.
     999903    2    3    3    0    0  0.95200829667E-01 -0.43770552622E-01  0.76735163723E-01  0.13205190767E+00  0.23882246992E-01 0.  0.
         14    1    1    2    0    0  0.90963312314E-02 -0.79796428714E-02 -0.18752458243E-01  0.22317540912E-01  0.00000000000E+00 0. -1.
     999901    1    3    3    0    0 -0.10429716090E+00  0.51750195494E-01 -0.57982705480E-01  0.88956055142E+00  0.88000000000E+00 0. -1.
        -11    1    4    4    0    0  0.55552104964E-01 -0.21851734609E-01  0.57317651817E-01  0.82759343897E-01  0.51100000000E-03 0. -1.
         11    1    4    4    0    0  0.39648724703E-01 -0.21918818014E-01  0.19417511906E-01  0.49292563773E-01  0.51100000000E-03 0.  1.
</event>
<event>
 8    1  0.1108957E+005  0.1043930E+01  0.7957747E-01            NaN
         13   -1    0    0    0    0  0.00000000000E+00  0.00000000000E+00  0.74505805969E-08  0.10566000000E+00  0.10566000000E+00 0. -1.
     999900   -1    0    0    0    0 -0.00000000000E+00 -0.00000000000E+00 -0.74505805969E-08  0.93827000000E+00  0.93827000000E+00 0. -1.
     999902    2    1    2    0    0  0.22223494137E-01  0.79930206077E-02  0.10620611258E-02  0.10202889331E+01  0.10200150033E+01 0.  0.
     999903    2    3    3    0    0  0.12334378645E+00 -0.54036898999E-02  0.46018590143E-01  0.13325687344E+00  0.19919692790E-01 0.  0.
         14    1    1    2    0    0 -0.22223494137E-01 -0.79930206077E-02 -0.10620611258E-02  0.23641066895E-01  0.00000000000E+00 0.  1.
     999901    1    3    3    0    0 -0.10112029231E+00  0.13396710508E-01 -0.44956529018E-01  0.88703205966E+00  0.88000000000E+00 0. -1.
        -11    1    4    4    0    0  0.15612640291E-01  0.41997557288E-02  0.11031760768E-01  0.19579411423E-01  0.51100000000E-03 0.  1.
         11    1    4    4    0    0  0.10773114616E+00 -0.96034456287E-02  0.34986829376E-01  0.11367746202E+00  0.51100000000E-03 0. -1.
</event>
<event>
 8    1  0.1108957E+005  0.1043930E+01  0.7957747E-01            NaN
         13   -1    0    0    0    0  0.00000000000E+00  0.00000000000E+00  0.74505805969E-08  0.10566000000E+00  0.10566000000E+00 0.  1.
     999900   -1    0    0    0    0 -0.00000000000E+00 -0.00000000000E+00 -0.74505805969E-08  0.93827000000E+00  0.93827000000E+00 0. -1.
     999902    2    1    2    0    0 -0.11111926923E-02  0.23818311976E-01 -0.16891442677E-02  0.10200260266E+01  0.10197458973E+01 0.  0.
     999903    2    3    3    0    0  0.20891945771E-01 -0.82022335508E-01 -0.94764274516E-01  0.12853886428E+00  0.19437977920E-01 0.  0.
         14    1    1    2    0    0  0.11111926923E-02 -0.23818311976E-01  0.16891442677E-02  0.23903973371E-01  0.00000000000E+00 0.  1.
     999901    1    3    3    0    0 -0.22003138463E-01  0.10584064748E+00  0.93075130248E-01  0.89148716235E+00  0.88000000000E+00 0.  1.
        -11    1    4    4    0    0 -0.35836573412E-02 -0.65577160106E-02 -0.74585946332E-02  0.10570619382E-01  0.51100000000E-03 0. -1.
         11    1    4    4    0    0  0.24475603112E-01 -0.75464619498E-01 -0.87305679883E-01  0.11796824490E+00  0.51100000000E-03 0.  1.
</event>
<event>
 8    1  0.1108957E+005  0.1043930E+01  0.7957747E-01            NaN
         13   -1    0    0    0    0  0.00000000000E+00  0.00000000000E+00  0.74505805969E-08  0.10566000000E+00  0.10566000000E+00 0. -1.
     999900   -1    0    0    0    0 -0.00000000000E+00 -0.00000000000E+00 -0.74505805969E-08  0.93827000000E+00  0.93827000000E+00 0. -1.
     999902    2    1    2    0    0  0.21645794255E-02 -0.22293155219E-01 -0.69830462240E-02  0.10204686891E+01  0.10201989572E+01 0.  0.
     999903    2    3    3    0    0 -0.69957266392E-01 -0.61655710114E-01  0.90179796866E-01  0.13131651460E+00  0.20400625812E-01 0.  0.
         14    1    1    2    0    0 -0.21645794255E-02  0.22293155219E-01  0.69830462240E-02  0.23461310881E-01  0.00000000000E+00 0.  1.
     999901    1    3    3    0    0  0.72121845818E-01  0.39362554895E-01 -0.97162843090E-01  0.88915217452E+00  0.88000000000E+00 0. -1.
        -11    1    4    4    0    0 -0.42572050824E-01 -0.39934334185E-01  0.42550025393E-01  0.72235007719E-01  0.51100000000E-03 0.  1.
         11    1    4    4    0    0 -0.27385215568E-01 -0.21721375929E-01  0.47629771473E-01  0.59081506883E-01  0.51100000000E-03 0. -1.
</event>
<event>
 8    1  0.1108957E+005  0.1043930E+01  0.7957747E-01            NaN
         13   -1    0    0    0    0  0.00000000000E+00  0.00000000000E+00  0.74505805969E-08  0.10566000000E+00  0.10566000000E+00 0.  1.
     999900   -1    0    0    0    0 -0.00000000000E+00 -0.00000000000E+00 -0.74505805969E-08  0.93827000000E+00  0.93827000000E+00 0.  1.
     999902    2    1    2    0    0  0.19105902022E-01 -0.15106836288E-01  0.88245874639E-02  0.10180239131E+01  0.10176942381E+01 0.  0.
     999903    2    3    3    0    0  0.90508310984E-02 -0.88835436192E-01 -0.91128271272E-01  0.12924520900E+00  0.20647274788E-01 0.  0.
         14    1    1    2    0    0 -0.19105902022E-01  0.15106836288E-01 -0.88245874639E-02  0.25906086903E-01  0.00000000000E+00 0.  1.
     999901    1    3    3    0    0  0.10055070924E-01  0.73728599905E-01  0.99952858736E-01  0.88877870410E+00  0.88000000000E+00 0. -1.
        -11    1    4    4    0    0 -0.32180037243E-02 -0.26925479495E-01 -0.17548776305E-01  0.32304143152E-01  0.51100000000E-03 0. -1.
         11    1    4    4    0    0  0.12268834823E-01 -0.61909956697E-01 -0.73579494967E-01  0.96941065843E-01  0.51100000000E-03 0.  1.
</event>
<event>
 8    1  0.1108957E+005  0.1043930E+01  0.7957747E-01            NaN
         13   -1    0    0    0    0  0.00000000000E+00  0.00000000000E+00  0.74505805969E-08  0.10566000000E+00  0.10566000000E+00 0. -1.
     999900   -1    0    0    0    0 -0.00000000000E+00 -0.00000000000E+00 -0.74505805969E-08  0.93827000000E+00  0.93827000000E+00 0.  1.
     999902    2    1    2    0    0 -0.47551107928E-02  0.14557658404E-01  0.16031991466E-01  0.10217588194E+01  0.10215182445E+01 0.  0.
     999903    2    3    3    0    0  0.10424375662E+00 -0.63352396441E-01  0.44946442481E-01  0.13114848085E+00  0.17304751007E-01 0.  0.
         14    1    1    2    0    0  0.47551107928E-02 -0.14557658404E-01 -0.16031991466E-01  0.22171180555E-01  0.00000000000E+00 0.  1.
     999901    1    3    3    0    0 -0.10899886741E+00  0.77910054845E-01 -0.28914451015E-01  0.89061033860E+00  0.88000000000E+00 0. -1.
        -11    1    4    4    0    0  0.74754343196E-01 -0.41448621789E-01  0.23670805855E-01  0.88694803939E-01  0.51100000000E-03 0.  1.
         11    1    4    4    0    0  0.29489413423E-01 -0.21903774652E-01  0.21275636626E-01  0.42453676906E-01  0.51100000000E-03 0. -1.
</event>
<event>
 8    1  0.1108957E+005  0.1043930E+01  0.7957747E-01            NaN
         13   -1    0    0    0    0  0.00000000000E+00  0.00000000000E+00  0.74505805969E-08  0.10566000000E+00  0.10566000000E+00 0.  1.
     999900   -1    0    0    0    0 -0.00000000000E+00 -0.00000000000E+00 -0.74505805969E-08  0.93827000000E+00  0.93827000000E+00 0.  1.
     999902    2    1    2    0    0  0.18660496374E-01 -0.15625023861E-01  0.40819734030E-02  0.10192517099E+01  0.10189529087E+01 0.  0.
     999903    2    3    3    0    0 -0.28720102329E-02  0.92197209352E-01  0.86606037728E-01  0.12857808617E+00  0.22872354850E-01 0.  0.
         14    1    1    2    0    0 -0.18660496374E-01  0.15625023861E-01 -0.40819734030E-02  0.24678290103E-01  0.00000000000E+00 0. -1.
     999901    1    3    3    0    0  0.21532506606E-01 -0.10782223321E+00 -0.82524064325E-01  0.89067362373E+00  0.88000000000E+00 0.  1.
        -11    1    4    4    0    0  0.18343224206E-02  0.23008944968E-02  0.97971735121E-02  0.10242293886E-01  0.51100000000E-03 0.  1.
         11    1    4    4    0    0 -0.47063326535E-02  0.89896314855E-01  0.76808864216E-01  0.11833579228E+00  0.51100000000E-03 0. -1.
</event>
<event>
 8    1  0.1130465E+005  0.1043930E+01  0.7957747E-01            NaN
         13   -1    0    0    0    0  0.00000000000E+00  0.00000000000E+00  0.74505805969E-08  0.10566000000E+00  0.10566000000E+00 0.  1.
     999900   -1    0    0    0    0 -0.00000000000E+00 -0.00000000000E+00 -0.74505805969E-08  0.93827000000E+00  0.93827000000E+00 0. -1.
     999902    2    1    2    0    0 -0.10743759686E-01  0.33584042396E-01 -0.28029702734E-02  0.10085580773E+01  0.10079376083E+01 0.  0.
     999903    2    3    3    0    0  0.63639263649E-01  0.41697476272E-01  0.91038577483E-01  0.12041118735E+00  0.20547409680E-01 0.  0.
         14    1    1    2    0    0  0.10743759686E-01 -0.33584042396E-01  0.28029702734E-02  0.35371922738E-01  0.00000000000E+00 0.  1.
     999901    1    3    3    0    0 -0.74383023334E-01 -0.81134338760E-02 -0.93841547756E-01  0.88814688991E+00  0.88000000000E+00 0. -1.
        -11    1    4    4    0    0  0.27163694438E-01  0.61417130986E-02  0.33280617326E-01  0.43398704426E-01  0.51100000000E-03 0.  1.
         11    1    4    4    0    0  0.36475569211E-01  0.35555763173E-01  0.57757960157E-01  0.77012482927E-01  0.51100000000E-03 0. -1.
</event>
<event>
 8    1  0.1108957E+005  0.1043930E+01  0.7957747E-01            NaN
         13   -1    0    0    0    0  0.00000000000E+00  0.00000000000E+00  0.74505805969E-08  0.10566000000E+00  0.10566000000E+00 0.  1.
     999900   -1    0    0    0    0 -0.00000000000E+00 -0.00000000000E+00 -0.74505805969E-08  0.93827000000E+00  0.93827000000E+00 0.  1.
     999902    2    1    2    0    0  0.16982661512E-01 -0.14213013461E-01  0.86360003734E-02  0.10201602493E+01  0.10198832940E+01 0.  0.
     999903    2    3    3    0    0  0.60438904104E-01 -0.11682417323E+00 -0.66776293688E-03  0.13308412232E+00  0.20253126357E-01 0.  0.
         14    1    1    2    0    0 -0.16982661512E-01  0.14213013461E-01 -0.86360003734E-02  0.23769750653E-01  0.00000000000E+00 0. -1.
     999901    1    3    3    0    0 -0.43456242592E-01  0.10261115977E+00  0.93037633103E-02  0.88707612703E+00  0.88000000000E+00 0. -1.
        -11    1    4    4    0    0  0.52289520696E-01 -0.10535333663E+00  0.54250760041E-02  0.11774214235E+00  0.51100000000E-03 0. -1.
         11    1    4    4    0    0  0.81493834078E-02 -0.11470836592E-01 -0.60928389410E-02  0.15341979971E-01  0.51100000000E-03 0.  1.
</event>
<event>
 8    1  0.1108957E+005  0.1043930E+01  0.7957747E-01            NaN
         13   -1    0    0    0    0  0.00000000000E+00  0.00000000000E+00  0.74505805969E-08  0.10566000000E+00  0.10566000000E+00 0. -1.
     999900   -1    0    0    0    0 -0.00000000000E+00 -0.00000000000E+00 -0.74505805969E-08  0.93827000000E+00  0.93827000000E+00 0. -1.
     999902    2    1    2    0    0  0.73055600679E-02 -0.20275180732E-01  0.11175933422E-01  0.10196533518E+01  0.10193643128E+01 0.  0.
     999903    2    3    3    0    0 -0.26950752824E-01 -0.85613757502E-01  0.95494489983E-01  0.13255006377E+00  0.19856062997E-01 0.  0.
         14    1    1    2    0    0 -0.73055600679E-02  0.20275180732E-01 -0.11175933422E-01  0.24276648234E-01  0.00000000000E+00 0. -1.
     999901    1    3    3    0    0  0.34256312892E-01  0.65338576770E-01 -0.84318556561E-01  0.88710328799E+00  0.88000000000E+00 0.  1.
        -11    1    4    4    0    0 -0.21163776725E-02 -0.99736975668E-02  0.21763616044E-01  0.24038922645E-01  0.51100000000E-03 0. -1.
         11    1    4    4    0    0 -0.24834375151E-01 -0.75640059935E-01  0.73730873939E-01  0.10851114113E+00  0.51100000000E-03 0.  1.
</event>
<event>
 8    1  0.1108957E+005  0.1043930E+01  0.7957747E-01            NaN
         13   -1    0    0    0    0  0.00000000000E+00  0.00000000000E+00  0.74505805969E-08  0.10566000000E+00  0.10566000000E+00 0.  1.
     999900   -1    0    0    0    0 -0.00000000000E+00 -0.00000000000E+00 -0.74505805969E-08  0.93827000000E+00  0.93827000000E+00 0. -1.
     999902    2    1    2    0    0 -0.91761715560E-02  0.13968497282E-01 -0.17507126719E-01  0.10197262704E+01  0.10194389859E+01 0.  0.
     999903    2    3    3    0    0 -0.10899353878E+00 -0.49087259436E-01 -0.46104678179E-01  0.13138097987E+00  0.29089001109E-01 0.  0.
         14    1    1    2    0    0  0.91761715560E-02 -0.13968497282E-01  0.17507126719E-01  0.24203729603E-01  0.00000000000E+00 0.  1.
     999901    1    3    3    0    0  0.99817367228E-01  0.63055756718E-01  0.28597551460E-01  0.88834529053E+00  0.88000000000E+00 0.  1.
        -11    1    4    4    0    0 -0.26923856259E-01  0.86225340226E-03 -0.95224074104E-02  0.28575774367E-01  0.51100000000E-03 0. -1.
         11    1    4    4    0    0 -0.82069682525E-01 -0.49949512838E-01 -0.36582270769E-01  0.10280520550E+00  0.51100000000E-03 0.  1.
</event>
<event>
 8    1  0.1108957E+005  0.1043930E+01  0.7957747E-01            NaN
         13   -1    0    0    0    0  0.00000000000E+00  0.00000000000E+00  0.74505805969E-08  0.10566000000E+00  0.10566000000E+00 0. -1.
     999900   -1    0    0    0    0 -0.00000000000E+00 -0.00000000000E+00 -0.74505805969E-08  0.93827000000E+00  0.93827000000E+00 0. -1.
     999902    2    1    2    0    0  0.18439363764E-01  0.64630506939E-04  0.14301895940E-01  0.10205942219E+01  0.10203274020E+01 0.  0.
     999903    2    3    3    0    0 -0.68738395341E-01 -0.16228217756E-01  0.10872803089E+00  0.13111026275E+00  0.19488310642E-01 0.  0.
         14    1    1    2    0    0 -0.18439363764E-01 -0.64630506939E-04 -0.14301895940E-01  0.23335778122E-01  0.00000000000E+00 0.  1.
     999901    1    3    3    0    0  0.87177759104E-01  0.16292848263E-01 -0.94426134948E-01  0.88948395913E+00  0.88000000000E+00 0. -1.
        -11    1    4    4    0    0 -0.13357765896E-01 -0.63250615332E-02  0.37717937714E-01  0.40513457758E-01  0.51100000000E-03 0.  1.
         11    1    4    4    0    0 -0.55380629445E-01 -0.99031562229E-02  0.71010093174E-01  0.90596804990E-01  0.51100000000E-03 0. -1.
</event>
<event>
 8    1  0.1108957E+005  0.1043930E+01  0.7957747E-01            NaN
         13   -1    0    0    0    0  0.00000000000E+00  0.00000000000E+00  0.74505805969E-08  0.10566000000E+00  0.10566000000E+00 0.  1.
     999900   -1    0    0    0    0 -0.00000000000E+00 -0.00000000000E+00 -0.74505805969E-08  0.93827000000E+00  0.93827000000E+00 0.  1.
     999902    2    1    2    0    0 -0.19660348321E-01  0.39438105290E-03 -0.12866326722E-01  0.10204304852E+01  0.10201598639E+01 0.  0.
     999903    2    3    3    0    0 -0.11393609202E-01 -0.78553334167E-01  0.10079420514E+00  0.12957707570E+00  0.18174325801E-01 0.  0.
         14    1    1    2    0    0  0.19660348321E-01 -0.39438105290E-03  0.12866326722E-01  0.23499514799E-01  0.00000000000E+00 0.  1.
     999901    1    3    3    0    0 -0.82667391184E-02  0.78947715220E-01 -0.11366053186E+00  0.89085340950E+00  0.88000000000E+00 0. -1.
        -11    1    4    4    0    0 -0.63014520944E-02 -0.72451316530E-02  0.85108287978E-02  0.12841166574E-01  0.51100000000E-03 0. -1.
         11    1    4    4    0    0 -0.50921571078E-02 -0.71308202514E-01  0.92283376341E-01  0.11673590913E+00  0.51100000000E-03 0.  1.
</event>
<event>
 8    1  0.1108957E+005  0.1043930E+01  0.7957747E-01            NaN
         13   -1    0    0    0    0  0.00000000000E+00  0.00000000000E+00  0.74505805969E-08  0.10566000000E+00  0.10566000000E+00 0.  1.
     999900   -1    0    0    0    0 -0.00000000000E+00 -0.00000000000E+00 -0.74505805969E-08  0.93827000000E+00  0.93827000000E+00 0. -1.
     999902    2    1    2    0    0 -0.17927917515E-01 -0.92056976993E-02 -0.13026460648E-01  0.10199332549E+01  0.10196509210E+01 0.  0.
     999903    2    3    3    0    0 -0.91912276846E-01 -0.74590428006E-01 -0.57576873605E-01  0.13329150785E+00  0.20974534702E-01 0.  0.
         14    1    1    2    0    0  0.17927917515E-01  0.92056976993E-02  0.13026460648E-01  0.23996745062E-01  0.00000000000E+00 0. -1.
     999901    1    3    3    0    0  0.73984359331E-01  0.65384730307E-01  0.44550412958E-01  0.88664174709E+00  0.88000000000E+00 0. -1.
        -11    1    4    4    0    0 -0.39031237652E-01 -0.18743354301E-01 -0.20569786225E-01  0.47938795036E-01  0.51100000000E-03 0. -1.
         11    1    4    4    0    0 -0.52881039194E-01 -0.55847073705E-01 -0.37007087380E-01  0.85352712815E-01  0.51100000000E-03 0.  1.
</event>
<event>
 8    1  0.1108957E+005  0.1043930E+01  0.7957747E-01            NaN
         13   -1    0    0    0    0  0.00000000000E+00  0.00000000000E+00  0.74505805969E-08  0.10566000000E+00  0.10566000000E+00 0.  1.
     999900   -1    0    0    0    0 -0.00000000000E+00 -0.00000000000E+00 -0.74505805969E-08  0.93827000000E+00  0.93827000000E+00 0.  1.
     999902    2    1    2    0    0  0.19784887370E-01 -0.10781719269E-01 -0.80878943636E-02  0.10199904663E+01  0.10197094930E+01 0.  0.
     999903    2    3    3    0    0 -0.60047676386E-01  0.54907713861E-02  0.11144309310E+00  0.12818012259E+00  0.19357396931E-01 0.  0.
         14    1    1    2    0    0 -0.19784887370E-01  0.10781719269E-01  0.80878943636E-02  0.23939533702E-01  0.00000000000E+00 0. -1.
     999901    1    3    3    0    0  0.79832563756E-01 -0.16272490655E-01 -0.11953098747E+00  0.89181034371E+00  0.88000000000E+00 0.  1.
        -11    1    4    4    0    0 -0.30677182653E-01 -0.66214182926E-02  0.50727596969E-01  0.59653021139E-01  0.51100000000E-03 0.  1.
         11    1    4    4    0    0 -0.29370493733E-01  0.12112189679E-01  0.60715496133E-01  0.68527101446E-01  0.51100000000E-03 0. -1.
</event>
<event>
 8    1  0.1108957E+005  0.1043930E+01  0.7957747E-01            NaN
         13   -1    0    0    0    0  0.00000000000E+00  0.00000000000E+00  0.74505805969E-08  0.10566000000E+00  0.10566000000E+00 0.  1.
     999900   -1    0    0    0    0 -0.00000000000E+00 -0.00000000000E+00 -0.74505805969E-08  0.93827000000E+00  0.93827000000E+00 0. -1.
     999902    2    1    2    0    0 -0.98697436686E-04  0.22403601063E-01 -0.61956511352E-02  0.10206852764E+01  0.10204205585E+01 0.  0.
     999903    2    3    3    0    0 -0.13046448813E-01 -0.19617072906E-01 -0.12742702780E+00  0.13128636254E+00  0.21057592397E-01 0.  0.
         14    1    1    2    0    0  0.98697436686E-04 -0.22403601063E-01  0.61956511352E-02  0.23244723590E-01  0.00000000000E+00 0. -1.
     999901    1    3    3    0    0  0.12947751376E-01  0.42020673968E-01  0.12123137667E+00  0.88939891387E+00  0.88000000000E+00 0.  1.
        -11    1    4    4    0    0 -0.91939965744E-02 -0.17744245409E-01 -0.12444878160E+00  0.12604423105E+00  0.51100000000E-03 0. -1.
         11    1    4    4    0    0 -0.38524522383E-02 -0.18728274963E-02 -0.29782462008E-02  0.52421314855E-02  0.51100000000E-03 0.  1.
</event>
<event>
 8    1  0.1108957E+005  0.1043930E+01  0.7957747E-01            NaN
         13   -1    0    0    0    0  0.00000000000E+00  0.00000000000E+00  0.74505805969E-08  0.10566000000E+00  0.10566000000E+00 0. -1.
     999900   -1    0    0    0    0 -0.00000000000E+00 -0.00000000000E+00 -0.74505805969E-08  0.93827000000E+00  0.93827000000E+00 0.  1.
     999902    2    1    2    0    0 -0.15603210400E-01 -0.16799909235E-01 -0.81328865627E-02  0.10196022182E+01  0.10193119455E+01 0.  0.
     999903    2    3    3    0    0 -0.33612638989E-01  0.45024474031E-01 -0.11629636717E+00  0.13064443941E+00  0.19649726946E-01 0.  0.
         14    1    1    2    0    0  0.15603210400E-01  0.16799909235E-01  0.81328865627E-02  0.24327781833E-01  0.00000000000E+00 0. -1.
     999901    1    3    3    0    0  0.18009428589E-01 -0.61824383265E-01  0.10816348061E+00  0.88895777876E+00  0.88000000000E+00 0. -1.
        -11    1    4    4    0    0 -0.29728235892E-01  0.24214681388E-01 -0.74269279795E-01  0.83584124367E-01  0.51100000000E-03 0.  1.
         11    1    4    4    0    0 -0.38844030968E-02  0.20809792643E-01 -0.42027087375E-01  0.47060315038E-01  0.51100000000E-03 0. -1.
</event>
<event>
 8    1  0.1108957E+005  0.1043930E+01  0.7957747E-01            NaN
         13   -1    0    0    0    0  0.00000000000E+00  0.00000000000E+00  0.74505805969E-08  0.10566000000E+00  0.10566000000E+00 0. -1.
     999900   -1    0    0    0    0 -0.00000000000E+00 -0.00000000000E+00 -0.74505805969E-08  0.93827000000E+00  0.93827000000E+00 0.  1.
     999902    2    1    2    0    0 -0.21475130046E-01 -0.26107456157E-02  0.12175585165E-01  0.10191057764E+01  0.10188033870E+01 0.  0.
     999903    2    3    3    0    0  0.28672202590E-01  0.12181208198E+00  0.24868844889E-01  0.12884912024E+00  0.17982152901E-01 0.  0.
         14    1    1    2    0    0  0.21475130046E-01  0.26107456157E-02 -0.12175585165E-01  0.24824223599E-01  0.00000000000E+00 0.  1.
     999901    1    3    3    0    0 -0.50147332636E-01 -0.12442282760E+00 -0.12693259724E-01  0.89025665616E+00  0.88000000000E+00 0. -1.
        -11    1    4    4    0    0  0.12687877145E-01  0.60584010382E-01  0.21313892061E-01  0.65467149444E-01  0.51100000000E-03 0.  1.
         11    1    4    4    0    0  0.15984325445E-01  0.61228071597E-01  0.35549528276E-02  0.63381970796E-01  0.51100000000E-03 0. -1.
</event>
<event>
 8    1  0.1108957E+005  0.1043930E+01  0.7957747E-01            NaN
         13   -1    0    0    0    0  0.00000000000E+00  0.00000000000E+00  0.74505805969E-08  0.10566000000E+00  0.10566000000E+00 0.  1.
     999900   -1    0    0    0    0 -0.00000000000E+00 -0.00000000000E+00 -0.74505805969E-08  0.93827000000E+00  0.93827000000E+00 0.  1.
     999902    2    1    2    0    0 -0.14317877032E-01 -0.16236981249E-01 -0.80702342883E-02  0.10208265404E+01  0.10205650669E+01 0.  0.
     999903    2    3    3    0    0 -0.17308391931E-01  0.12308257926E+00  0.29218229433E-01  0.12908144644E+00  0.18958194418E-01 0.  0.
         14    1    1    2    0    0  0.14317877032E-01  0.16236981249E-01  0.80702342883E-02  0.23103459573E-01  0.00000000000E+00 0.  1.
     999901    1    3    3    0    0  0.29905148994E-02 -0.13931956051E+00 -0.37288463721E-01  0.89174509399E+00  0.88000000000E+00 0. -1.
        -11    1    4    4    0    0 -0.57634481168E-02  0.67956060489E-01  0.71038602210E-02  0.68570908135E-01  0.51100000000E-03 0. -1.
         11    1    4    4    0    0 -0.11544943815E-01  0.55126518772E-01  0.22114369212E-01  0.60510538307E-01  0.51100000000E-03 0.  1.
</event>
<event>
 8    1  0.1108957E+005  0.1043930E+01  0.7957747E-01            NaN
         13   -1    0    0    0    0  0.00000000000E+00  0.00000000000E+00  0.74505805969E-08  0.10566000000E+00  0.10566000000E+00 0. -1.
     999900   -1    0    0    0    0 -0.00000000000E+00 -0.00000000000E+00 -0.74505805969E-08  0.93827000000E+00  0.93827000000E+00 0. -1.
     999902    2    1    2    0    0  0.10653139113E-01  0.16631801604E-01  0.13036853629E-01  0.10202642917E+01  0.10199897838E+01 0.  0.
     999903    2    3    3    0    0  0.70779356677E-01  0.10527875985E+00  0.36435862573E-01  0.13346050343E+00  0.19768644021E-01 0.  0.
         14    1    1    2    0    0 -0.10653139113E-01 -0.16631801604E-01 -0.13036853629E-01  0.23665708316E-01  0.00000000000E+00 0.  1.
     999901    1    3    3    0    0 -0.60126217563E-01 -0.88646958248E-01 -0.23399008944E-01  0.88680378826E+00  0.88000000000E+00 0.  1.
        -11    1    4    4    0    0  0.44981461086E-01  0.61724925571E-01  0.31424354832E-01  0.82589645088E-01  0.51100000000E-03 0.  1.
         11    1    4    4    0    0  0.25797895591E-01  0.43553834280E-01  0.50115077416E-02  0.50870858340E-01  0.51100000000E-03 0. -1.
</event>
<event>
 8    1  0.1108957E+005  0.1043930E+01  0.7957747E-01            NaN
         13   -1    0    0    0    0  0.00000000000E+00  0.00000000000E+00  0.74505805969E-08  0.10566000000E+00  0.10566000000E+00 0.  1.
     999900   -1    0    0    0    0 -0.00000000000E+00 -0.00000000000E+00 -0.74505805969E-08  0.93827000000E+00  0.93827000000E+00 0. -1.
     999902    2    1    2    0    0 -0.21696203370E-01 -0.74840089915E-03 -0.10543524473E-01  0.10197959731E+01  0.10195103607E+01 0.  0.
     999903    2    3    3    0    0 -0.36404326051E-02  0.82382958426E-01 -0.99587898983E-01  0.13122085847E+00  0.22382124242E-01 0.  0.
         14    1    1    2    0    0  0.21696203370E-01  0.74840089915E-03  0.10543524473E-01  0.24134026869E-01  0.00000000000E+00 0.  1.
     999901    1    3    3    0    0 -0.18055770765E-01 -0.83131359325E-01  0.89044374510E-01  0.88857511466E+00  0.88000000000E+00 0.  1.
        -11    1    4    4    0    0 -0.22378980690E-02  0.18589574510E-01 -0.38827155800E-01  0.43109043329E-01  0.51100000000E-03 0. -1.
         11    1    4    4    0    0 -0.14025345361E-02  0.63793383916E-01 -0.60760743183E-01  0.88111815142E-01  0.51100000000E-03 0.  1.
</event>
<event>
 8    1  0.1108957E+005  0.1043930E+01  0.7957747E-01            NaN
         13   -1    0    0    0    0  0.00000000000E+00  0.00000000000E+00  0.74505805969E-08  0.10566000000E+00  0.10566000000E+00 0. -1.
     999900   -1    0    0    0    0 -0.00000000000E+00 -0.00000000000E+00 -0.74505805969E-08  0.93827000000E+00  0.93827000000E+00 0.  1.
     999902    2    1    2    0    0 -0.46648403385E-02 -0.23169362391E-01  0.56428175243E-02  0.10196314099E+01  0.10193418419E+01 0.  0.
     999903    2    3    3    0    0  0.94436230439E-01  0.76689729897E-01  0.34830038242E-01  0.12797858827E+00  0.19127759973E-01 0.  0.
         14    1    1    2    0    0  0.46648403385E-02  0.23169362391E-01 -0.56428175243E-02  0.24298590054E-01  0.00000000000E+00 0.  1.
     999901    1    3    3    0    0 -0.99101070777E-01 -0.99859092288E-01 -0.29187220717E-01  0.89165282167E+00  0.88000000000E+00 0.  1.
        -11    1    4    4    0    0  0.44945178672E-01  0.43705005769E-01  0.98261574310E-02  0.63458735458E-01  0.51100000000E-03 0. -1.
         11    1    4    4    0    0  0.49491051767E-01  0.32984724128E-01  0.25003880811E-01  0.64519852816E-01  0.51100000000E-03 0.  1.
</event>
<event>
 8    1  0.1108957E+005  0.1043930E+01  0.7957747E-01            NaN
         13   -1    0    0    0    0  0.00000000000E+00  0.00000000000E+00  0.74505805969E-08  0.10566000000E+00  0.10566000000E+00 0. -1.
     999900   -1    0    0    0    0 -0.00000000000E+00 -0.00000000000E+00 -0.74505805969E-08  0.93827000000E+00  0.93827000000E+00 0. -1.
     999902    2    1    2    0    0  0.61649697839E-02 -0.22210118286E-01  0.42087242890E-02  0.10204990468E+01  0.10202300206E+01 0.  0.
     999903    2    3    3    0    0 -0.17401497255E-01  0.12064220143E+00  0.30942978384E-01  0.12826763964E+00  0.25254041163E-01 0.  0.
         14    1    1    2    0    0 -0.61649697839E-02  0.22210118286E-01 -0.42087242890E-02  0.23430953178E-01  0.00000000000E+00 0.  1.
     999901    1    3    3    0    0  0.23566467039E-01 -0.14285231972E+00 -0.26734254095E-01  0.89223140718E+00  0.88000000000E+00 0.  1.
        -11    1    4    4    0    0 -0.99588735854E-02  0.10695538717E+00  0.33389523380E-01  0.11248891235E+00  0.51100000000E-03 0.  1.
         11    1    4    4    0    0 -0.74426236693E-02  0.13686814257E-01 -0.24465449961E-02  0.15778727293E-01  0.51100000000E-03 0. -1.
</event>
<event>
 7    1  0.1108957E+005  0.1043930E+01  0.7957747E-01            NaN
         13   -1    0    0    0    0  0.00000000000E+00  0.00000000000E+00  0.74505805969E-08  0.10566000000E+00  0.10566000000E+00 0. -1.
     999900   -1    0    0    0    0 -0.00000000000E+00 -0.00000000000E+00 -0.74505805969E-08  0.93827000000E+00  0.93827000000E+00 0. -1.
     999902    2    1    2    0    0  0.92752952296E-02 -0.60846949275E-02  0.20791623842E-01  0.10203642147E+01  0.10200920470E+01 0.  0.
         14    1    1    2    0    0 -0.92752952296E-02  0.60846949275E-02 -0.20791623842E-01  0.23565785282E-01  0.00000000000E+00 0.  1.
     999901    1    3    3    0    0 -0.72801795450E-01  0.81975386065E-01  0.53166111721E-01  0.88839557674E+00  0.88000000000E+00 0.  1.
        -11    1    3    3    0    0  0.11976228424E-01 -0.42886106748E-01 -0.10524863219E-01  0.45756770713E-01  0.51100000000E-03 0.  1.
         11    1    3    3    0    0  0.70100862256E-01 -0.45173974244E-01 -0.21849624661E-01  0.86211867262E-01  0.51100000000E-03 0. -1.
</event>
<event>
 8    1  0.1108957E+005  0.1043930E+01  0.7957747E-01            NaN
         13   -1    0    0    0    0  0.00000000000E+00  0.00000000000E+00  0.74505805969E-08  0.10566000000E+00  0.10566000000E+00 0.  1.
     999900   -1    0    0    0    0 -0.00000000000E+00 -0.00000000000E+00 -0.74505805969E-08  0.93827000000E+00  0.93827000000E+00 0. -1.
     999902    2    1    2    0    0  0.22483978708E-01 -0.10460185915E-02 -0.43884835430E-02  0.10209978775E+01  0.10207403116E+01 0.  0.
     999903    2    3    3    0    0  0.91590041112E-01 -0.75654831540E-01  0.56480026210E-01  0.13305244096E+00  0.20014232919E-01 0.  0.
         14    1    1    2    0    0 -0.22483978708E-01  0.10460185915E-02  0.43884835430E-02  0.22932122476E-01  0.00000000000E+00 0.  1.
     999901    1    3    3    0    0 -0.69106062404E-01  0.74608812948E-01 -0.60868509753E-01  0.88794543656E+00  0.88000000000E+00 0. -1.
        -11    1    4    4    0    0  0.67591750598E-01 -0.63731375886E-01  0.37370993190E-01  0.10013583412E+00  0.51100000000E-03 0.  1.
         11    1    4    4    0    0  0.23998290514E-01 -0.11923455654E-01  0.19109033020E-01  0.32916606847E-01  0.51100000000E-03 0. -1.
</event>
<event>
 8    1  0.1108957E+005  0.1043930E+01  0.7957747E-01            NaN
         13   -1    0    0    0    0  0.00000000000E+00  0.00000000000E+00  0.74505805969E-08  0.10566000000E+00  0.10566000000E+00 0.  1.
     999900   -1    0    0    0    0 -0.00000000000E+00 -0.00000000000E+00 -0.74505805969E-08  0.93827000000E+00  0.93827000000E+00 0.  1.
     999902    2    1    2    0    0 -0.22460597665E-02 -0.22275259256E-01  0.49005195194E-02  0.10210117311E+01  0.10207544797E+01 0.  0.
     999903    2    3    3    0    0 -0.11414202847E+00  0.45013922354E-01 -0.38979242525E-01  0.13029630216E+00  0.20077079931E-01 0.  0.
         14    1    1    2    0    0  0.22460597665E-02  0.22275259256E-01 -0.49005195194E-02  0.22918268935E-01  0.00000000000E+00 0. -1.
     999901    1    3    3    0    0  0.11189596871E+00 -0.67289181610E-01  0.43879762044E-01  0.89071542891E+00  0.88000000000E+00 0. -1.
        -11    1    4    4    0    0 -0.46070861022E-01  0.22149367835E-01 -0.66779604698E-02  0.51555552638E-01  0.51100000000E-03 0. -1.
         11    1    4    4    0    0 -0.68071167452E-01  0.22864554519E-01 -0.32301282055E-01  0.78740749521E-01  0.51100000000E-03 0.  1.
</event>
<event>
 8    1  0.1108957E+005  0.1043930E+01  0.7957747E-01            NaN
         13   -1    0    0    0    0  0.00000000000E+00  0.00000000000E+00  0.74505805969E-08  0.10566000000E+00  0.10566000000E+00 0.  1.
     999900   -1    0    0    0    0 -0.00000000000E+00 -0.00000000000E+00 -0.74505805969E-08  0.93827000000E+00  0.93827000000E+00 0.  1.
     999902    2    1    2    0    0  0.28620733997E-02  0.20640024578E-01  0.11353564039E-01  0.10202001560E+01  0.10199241407E+01 0.  0.
     999903    2    3    3    0    0 -0.12237684482E+00  0.35768939360E-01  0.23737369390E-01  0.13111802858E+00  0.19312315849E-01 0.  0.
         14    1    1    2    0    0 -0.28620733997E-02 -0.20640024578E-01 -0.11353564039E-01  0.23729843976E-01  0.00000000000E+00 0. -1.
     999901    1    3    3    0    0  0.12523891822E+00 -0.15128914782E-01 -0.12383805350E-01  0.88908212744E+00  0.88000000000E+00 0. -1.
        -11    1    4    4    0    0 -0.56884492427E-01  0.15693265876E-01  0.12694717921E-02  0.59025390741E-01  0.51100000000E-03 0. -1.
         11    1    4    4    0    0 -0.65492352391E-01  0.20075673484E-01  0.22467897598E-01  0.72092637842E-01  0.51100000000E-03 0.  1.
</event>
<event>
 8    1  0.1108957E+005  0.1043930E+01  0.7957747E-01            NaN
         13   -1    0    0    0    0  0.00000000000E+00  0.00000000000E+00  0.74505805969E-08  0.10566000000E+00  0.10566000000E+00 0. -1.
     999900   -1    0    0    0    0 -0.00000000000E+00 -0.00000000000E+00 -0.74505805969E-08  0.93827000000E+00  0.93827000000E+00 0. -1.
     999902    2    1    2    0    0 -0.60544925624E-02  0.18538439959E-01 -0.14478633112E-01  0.10196408779E+01  0.10193515382E+01 0.  0.
     999903    2    3    3    0    0  0.47111045142E-01 -0.38336141547E-01 -0.11395324543E+00  0.13062091696E+00  0.19681755028E-01 0.  0.
         14    1    1    2    0    0  0.60544925624E-02 -0.18538439959E-01  0.14478633112E-01  0.24289122114E-01  0.00000000000E+00 0. -1.
     999901    1    3    3    0    0 -0.53165537704E-01  0.56874581506E-01  0.99474612321E-01  0.88901996092E+00  0.88000000000E+00 0.  1.
        -11    1    4    4    0    0  0.17878062805E-01 -0.51478965929E-02 -0.23897996602E-01  0.30290284442E-01  0.51100000000E-03 0. -1.
         11    1    4    4    0    0  0.29232982337E-01 -0.33188244955E-01 -0.90055248831E-01  0.10033063252E+00  0.51100000000E-03 0.  1.
</event>
<event>
 8    1  0.1108957E+005  0.1043930E+01  0.7957747E-01            NaN
         13   -1    0    0    0    0  0.00000000000E+00  0.00000000000E+00  0.74505805969E-08  0.10566000000E+00  0.10566000000E+00 0.  1.
     999900   -1    0    0    0    0 -0.00000000000E+00 -0.00000000000E+00 -0.74505805969E-08  0.93827000000E+00  0.93827000000E+00 0.  1.
     999902    2    1    2    0    0 -0.35712215997E-02  0.69815399190E-02 -0.22711312194E-01  0.10199029481E+01  0.10196198920E+01 0.  0.
     999903    2    3    3    0    0  0.54195631337E-01  0.42603423584E-01  0.10590251146E+00  0.12796828480E+00  0.20206974632E-01 0.  0.
         14    1    1    2    0    0  0.35712215997E-02 -0.69815399190E-02  0.22711312194E-01  0.24027051940E-01  0.00000000000E+00 0.  1.
     999901    1    3    3    0    0 -0.57766852937E-01 -0.35621883665E-01 -0.12861382365E+00  0.89193466326E+00  0.88000000000E+00 0.  1.
        -11    1    4    4    0    0  0.26566684303E-01  0.12810019773E-01  0.58617789044E-01  0.65621579034E-01  0.51100000000E-03 0.  1.
         11    1    4    4    0    0  0.27628947034E-01  0.29793403810E-01  0.47284722414E-01  0.62346705764E-01  0.51100000000E-03 0. -1.
</event>
<event>
 8    1  0.1108957E+005  0.1043930E+01  0.7957747E-01            NaN
         13   -1    0    0    0    0  0.00000000000E+00  0.00000000000E+00  0.74505805969E-08  0.10566000000E+00  0.10566000000E+00 0. -1.
     999900   -1    0    0    0    0 -0.00000000000E+00 -0.00000000000E+00 -0.74505805969E-08  0.93827000000E+00  0.93827000000E+00 0.  1.
     999902    2    1    2    0    0 -0.14160157775E-01  0.19250071792E-01 -0.20340939378E-03  0.10200319518E+01  0.10197519630E+01 0.  0.
     999903    2    3    3    0    0  0.10317862070E+00 -0.36276077142E-01 -0.64044372420E-01  0.12822075502E+00  0.19419032838E-01 0.  0.
         14    1    1    2    0    0  0.14160157775E-01 -0.19250071792E-01  0.20340939378E-03  0.23898048196E-01  0.00000000000E+00 0.  1.
     999901    1    3    3    0    0 -0.11733877848E+00  0.55526148935E-01  0.63840963026E-01  0.89181119678E+00  0.88000000000E+00 0. -1.
        -11    1    4    4    0    0  0.17516593316E-01 -0.93338314025E-02 -0.41644531285E-02  0.20286824318E-01  0.51100000000E-03 0. -1.
         11    1    4    4    0    0  0.85662027385E-01 -0.26942245740E-01 -0.59879919292E-01  0.10793393070E+00  0.51100000000E-03 0.  1.
</event>
<event>
 8    1  0.1108957E+005  0.1043930E+01  0.7957747E-01            NaN
         13   -1    0    0    0    0  0.00000000000E+00  0.00000000000E+00  0.74505805969E-08  0.10566000000E+00  0.10566000000E+00 0. -1.
     999900   -1    0    0    0    0 -0.00000000000E+00 -0.00000000000E+00 -0.74505805969E-08  0.93827000000E+00  0.93827000000E+00 0.  1.
     999902    2    1    2    0    0 -0.17308005951E-01  0.15135584655E-01  0.27883178570E-02  0.10207690909E+01  0.10205063005E+01 0.  0.
     999903    2    3    3    0    0 -0.88328420351E-01  0.78820024525E-01 -0.58371226246E-01  0.13350357430E+00  0.20037419764E-01 0.  0.
         14    1    1    2    0    0  0.17308005951E-01 -0.15135584655E-01 -0.27883178570E-02  0.23160909078E-01  0.00000000000E+00 0.  1.
     999901    1    3    3    0    0  0.71020414400E-01 -0.63684439870E-01  0.61159544103E-01  0.88726551662E+00  0.88000000000E+00 0.  1.
        -11    1    4    4    0    0 -0.73421736786E-01  0.67839636506E-01 -0.40794077472E-01  0.10796937340E+00  0.51100000000E-03 0.  1.
         11    1    4    4    0    0 -0.14906683565E-01  0.10980388019E-01 -0.17577148775E-01  0.25534200908E-01  0.51100000000E-03 0. -1.
</event>
<event>
 8    1  0.1108957E+005  0.1043930E+01  0.7957747E-01            NaN
         13   -1    0    0    0    0  0.00000000000E+00  0.00000000000E+00  0.74505805969E-08  0.10566000000E+00  0.10566000000E+00 0. -1.
     999900   -1    0    0    0    0 -0.00000000000E+00 -0.00000000000E+00 -0.74505805969E-08  0.93827000000E+00  0.93827000000E+00 0. -1.
     999902    2    1    2    0    0  0.11031704071E-01 -0.10157224014E-01 -0.17771438362E-01  0.10206772213E+01  0.10204123179E+01 0.  0.
     999903    2    3    3    0    0  0.88728817110E-01 -0.96934262100E-04  0.93308117750E-01  0.13024096949E+00  0.19582975106E-01 0.  0.
         14    1    1    2    0    0 -0.11031704071E-01  0.10157224014E-01  0.17771438362E-01  0.23252778669E-01  0.00000000000E+00 0. -1.
     999901    1    3    3    0    0 -0.77697113039E-01 -0.10060289752E-01 -0.11107955611E+00  0.89043625184E+00  0.88000000000E+00 0. -1.
        -11    1    4    4    0    0  0.56373182688E-01 -0.89196950232E-02  0.63336376825E-01  0.85259922800E-01  0.51100000000E-03 0. -1.
         11    1    4    4    0    0  0.32355634422E-01  0.88227607611E-02  0.29971740925E-01  0.44981046691E-01  0.51100000000E-03 0.  1.
</event>
<event>
 8    1  0.1108957E+005  0.1043930E+01  0.7957747E-01            NaN
         13   -1    0    0    0    0  0.00000000000E+00  0.00000000000E+00  0.74505805969E-08  0.10566000000E+00  0.10566000000E+00 0. -1.
     999900   -1    0    0    0    0 -0.00000000000E+00 -0.00000000000E+00 -0.74505805969E-08  0.93827000000E+00  0.93827000000E+00 0.  1.
     999902    2    1    2    0    0 -0.21645137854E-01  0.10305907115E-01  0.67931827238E-02  0.10190127159E+01  0.10187080269E+01 0.  0.
     999903    2    3    3    0    0  0.11475213974E-02  0.12313605792E+00  0.39887542425E-01  0.13089933077E+00  0.19488796515E-01 0.  0.
         14    1    1    2    0    0  0.21645137854E-01 -0.10305907115E-01 -0.67931827238E-02  0.24917284076E-01  0.00000000000E+00 0.  1.
     999901    1    3    3    0    0 -0.22792659251E-01 -0.11283015081E+00 -0.33094359701E-01  0.88811338515E+00  0.88000000000E+00 0.  1.
        -11    1    4    4    0    0 -0.58326611999E-02  0.86771924843E-01  0.34113078719E-01  0.93420287616E-01  0.51100000000E-03 0.  1.
         11    1    4    4    0    0  0.69801825973E-02  0.36364133079E-01  0.57744637058E-02  0.37479043154E-01  0.51100000000E-03 0. -1.
</event>
<event>
 8    1  0.1108957E+005  0.1043930E+01  0.7957747E-01            NaN
         13   -1    0    0    0    0  0.00000000000E+00  0.00000000000E+00  0.74505805969E-08  0.10566000000E+00  0.10566000000E+00 0. -1.
     999900   -1    0    0    0    0 -0.00000000000E+00 -0.00000000000E+00 -0.74505805969E-08  0.93827000000E+00  0.93827000000E+00 0. -1.
     999902    2    1    2    0    0  0.20995808628E-01  0.12718720984E-01 -0.43780940636E-02  0.10189949333E+01  0.10186898039E+01 0.  0.
     999903    2    3    3    0    0 -0.10627046602E+00  0.21949666034E-01 -0.64524658686E-01  0.12776010216E+00  0.19596232739E-01 0.  0.
         14    1    1    2    0    0 -0.20995808628E-01 -0.12718720984E-01  0.43780940636E-02  0.24935066694E-01  0.00000000000E+00 0.  1.
     999901    1    3    3    0    0  0.12726627465E+00 -0.92309450499E-02  0.60146564623E-01  0.89123483115E+00  0.88000000000E+00 0.  1.
        -11    1    4    4    0    0 -0.58740433426E-01  0.21913974718E-01 -0.35015690118E-01  0.71812397833E-01  0.51100000000E-03 0.  1.
         11    1    4    4    0    0 -0.47530032598E-01  0.35691316493E-04 -0.29508968568E-01  0.55947704328E-01  0.51100000000E-03 0. -1.
</event>
<event>
 8    1  0.1141692E+005  0.1043930E+01  0.7957747E-01            NaN
         13   -1    0    0    0    0  0.00000000000E+00  0.00000000000E+00  0.74505805969E-08  0.10566000000E+00  0.10566000000E+00 0. -1.
     999900   -1    0    0    0    0 -0.00000000000E+00 -0.00000000000E+00 -0.74505805969E-08  0.93827000000E+00  0.93827000000E+00 0. -1.
     999902    2    1    2    0    0  0.12521458444E-01  0.19776858210E-01 -0.11118851772E-02  0.10204961072E+01  0.10202270127E+01 0.  0.
     999903    2    3    3    0    0 -0.21749131112E-01  0.12944054764E+00  0.69138410590E-02  0.13299117181E+00  0.20272407469E-01 0.  0.
         14    1    1    2    0    0 -0.12521458444E-01 -0.19776858210E-01  0.11118851772E-02  0.23433892781E-01  0.00000000000E+00 0.  1.
     999901    1    3    3    0    0  0.34270589555E-01 -0.10966368943E+00 -0.80257262362E-02  0.88750493541E+00  0.88000000000E+00 0. -1.
        -11    1    4    4    0    0  0.86499056556E-03  0.54224077005E-01  0.13486252104E-02  0.54250148817E-01  0.51100000000E-03 0. -1.
         11    1    4    4    0    0 -0.22614121678E-01  0.75216470635E-01  0.55652158486E-02  0.78741022997E-01  0.51100000000E-03 0.  1.
</event>
<event>
 8    1  0.1108957E+005  0.1043930E+01  0.7957747E-01            NaN
         13   -1    0    0    0    0  0.00000000000E+00  0.00000000000E+00  0.74505805969E-08  0.10566000000E+00  0.10566000000E+00 0.  1.
     999900   -1    0    0    0    0 -0.00000000000E+00 -0.00000000000E+00 -0.74505805969E-08  0.93827000000E+00  0.93827000000E+00 0.  1.
     999902    2    1    2    0    0  0.14325553004E-01  0.11852374900E-01 -0.14422522626E-01  0.10203989690E+01  0.10201276129E+01 0.  0.
     999903    2    3    3    0    0 -0.11990506132E+00  0.35555024290E-02  0.41977125208E-01  0.12839694202E+00  0.18271024915E-01 0.  0.
         14    1    1    2    0    0 -0.14325553004E-01 -0.11852374900E-01  0.14422522626E-01  0.23531030970E-01  0.00000000000E+00 0.  1.
     999901    1    3    3    0    0  0.13423061432E+00  0.82968724707E-02 -0.56399647834E-01  0.89200202701E+00  0.88000000000E+00 0.  1.
        -11    1    4    4    0    0 -0.43406637061E-01  0.84800975220E-03  0.24594975954E-01  0.49900192632E-01  0.51100000000E-03 0.  1.
         11    1    4    4    0    0 -0.76498424260E-01  0.27074926768E-02  0.17382149254E-01  0.78496749388E-01  0.51100000000E-03 0. -1.
</event>
<event>
 8    1  0.1108957E+005  0.1043930E+01  0.7957747E-01            NaN
         13   -1    0    0    0    0  0.00000000000E+00  0.00000000000E+00  0.74505805969E-08  0.10566000000E+00  0.10566000000E+00 0. -1.
     999900   -1    0    0    0    0 -0.00000000000E+00 -0.00000000000E+00 -0.74505805969E-08  0.93827000000E+00  0.93827000000E+00 0.  1.
     999902    2    1    2    0    0  0.20875640157E-01 -0.13072318398E-01 -0.14792814656E-01  0.10151983933E+01  0.10147917385E+01 0.  0.
     999903    2    3    3    0    0 -0.41876704603E-01  0.45746003524E-01  0.10451462656E+00  0.12299229751E+00  0.18906159204E-01 0.  0.
         14    1    1    2    0    0 -0.20875640157E-01  0.13072318398E-01  0.14792814656E-01  0.28731606738E-01  0.00000000000E+00 0. -1.
     999901    1    3    3    0    0  0.62752344760E-01 -0.58818321923E-01 -0.11930744121E+00  0.89220609575E+00  0.88000000000E+00 0.  1.
        -11    1    4    4    0    0 -0.20047619747E-01  0.15689991912E-01  0.27453740910E-01  0.37443983691E-01  0.51100000000E-03 0. -1.
         11    1    4    4    0    0 -0.21829084856E-01  0.30056011612E-01  0.77060885647E-01  0.85548313820E-01  0.51100000000E-03 0.  1.
</event>
<event>
 7    1  0.1108957E+005  0.1043930E+01  0.7957747E-01            NaN
         13   -1    0    0    0    0  0.00000000000E+00  0.00000000000E+00  0.74505805969E-08  0.10566000000E+00  0.10566000000E+00 0.  1.
     999900   -1    0    0    0    0 -0.00000000000E+00 -0.00000000000E+00 -0.74505805969E-08  0.93827000000E+00  0.93827000000E+00 0. -1.
     999902    2    1    2    0    0  0.14502460912E-01  0.13006579412E-01 -0.10218186771E-01  0.10219321860E+01  0.10216953993E+01 0.  0.
         14    1    1    2    0    0 -0.14502460912E-01 -0.13006579412E-01  0.10218186771E-01  0.21997814014E-01  0.00000000000E+00 0.  1.
     999901    1    3    3    0    0  0.82634307163E-01 -0.92346132697E-01 -0.20108885134E-01  0.88890978406E+00  0.88000000000E+00 0. -1.
        -11    1    3    3    0    0 -0.22914244350E-01  0.71713433565E-01 -0.24494270444E-02  0.75326887375E-01  0.51100000000E-03 0.  1.
         11    1    3    3    0    0 -0.45217601902E-01  0.33639278544E-01  0.12340125408E-01  0.57695514547E-01  0.51100000000E-03 0. -1.
</event>
<event>
 8    1  0.1108957E+005  0.1043930E+01  0.7957747E-01            NaN
         13   -1    0    0    0    0  0.00000000000E+00  0.00000000000E+00  0.74505805969E-08  0.10566000000E+00  0.10566000000E+00 0. -1.
     999900   -1    0    0    0    0 -0.00000000000E+00 -0.00000000000E+00 -0.74505805969E-08  0.93827000000E+00  0.93827000000E+00 0. -1.
     999902    2    1    2    0    0  0.14872503852E-01  0.93238274223E-02 -0.14957630851E-01  0.10208679999E+01  0.10206074747E+01 0.  0.
     999903    2    3    3    0    0 -0.44981795497E-01  0.17225787630E-01  0.11781024647E+00  0.12886335451E+00  0.20159867946E-01 0.  0.
         14    1    1    2    0    0 -0.14872503852E-01 -0.93238274223E-02  0.14957630851E-01  0.23062000115E-01  0.00000000000E+00 0. -1.
     999901    1    3    3    0    0  0.59854299349E-01 -0.79019602081E-02 -0.13276787732E+00  0.89200464538E+00  0.88000000000E+00 0. -1.
        -11    1    4    4    0    0 -0.13481877299E-01  0.10421789298E-02  0.56125818775E-01  0.57734009098E-01  0.51100000000E-03 0. -1.
         11    1    4    4    0    0 -0.31499918198E-01  0.16183608701E-01  0.61684427697E-01  0.71129345410E-01  0.51100000000E-03 0.  1.
</event>
<event>
 8    1  0.1108957E+005  0.1043930E+01  0.7957747E-01            NaN
         13   -1    0    0    0    0  0.00000000000E+00  0.00000000000E+00  0.74505805969E-08  0.10566000000E+00  0.10566000000E+00 0.  1.
     999900   -1    0    0    0    0 -0.00000000000E+00 -0.00000000000E+00 -0.74505805969E-08  0.93827000000E+00  0.93827000000E+00 0. -1.
     999902    2    1    2    0    0  0.14356702351E-01 -0.12632657819E-01  0.13675879119E-01  0.10204198189E+01  0.10201489490E+01 0.  0.
     999903    2    3    3    0    0 -0.84788956183E-01  0.28719836717E-01  0.92228860683E-01  0.13041394177E+00  0.22082512363E-01 0.  0.
         14    1    1    2    0    0 -0.14356702351E-01  0.12632657819E-01 -0.13675879119E-01  0.23510181106E-01  0.00000000000E+00 0. -1.
     999901    1    3    3    0    0  0.99145658534E-01 -0.41352494536E-01 -0.78552981564E-01  0.89000587713E+00  0.88000000000E+00 0. -1.
        -11    1    4    4    0    0 -0.12463684277E-01  0.12607339344E-01  0.22647705034E-01  0.28765745174E-01  0.51100000000E-03 0. -1.
         11    1    4    4    0    0 -0.72325271906E-01  0.16112497372E-01  0.69581155649E-01  0.10164819659E+00  0.51100000000E-03 0.  1.
</event>
<event>
 8    1  0.1108957E+005  0.1043930E+01  0.7957747E-01            NaN
         13   -1    0    0    0    0  0.00000000000E+00  0.00000000000E+00  0.74505805969E-08  0.10566000000E+00  0.10566000000E+00 0.  1.
     999900   -1    0    0    0    0 -0.00000000000E+00 -0.00000000000E+00 -0.74505805969E-08  0.93827000000E+00  0.93827000000E+00 0.  1.
     999902    2    1    2    0    0  0.17741668914E-01 -0.14119524148E-01 -0.52820935400E-02  0.10206484990E+01  0.10203829331E+01 0.  0.
     999903    2    3    3    0    0  0.62054905766E-01 -0.82321619301E-01 -0.82508010657E-01  0.13353011284E+00  0.19876088086E-01 0.  0.
         14    1    1    2    0    0 -0.17741668914E-01  0.14119524148E-01  0.52820935400E-02  0.23281501029E-01  0.00000000000E+00 0. -1.
     999901    1    3    3    0    0 -0.44313236851E-01  0.68202095153E-01  0.77225917117E-01  0.88711838613E+00  0.88000000000E+00 0.  1.
        -11    1    4    4    0    0  0.21514821984E-02 -0.13720691442E-01 -0.11717136925E-01  0.18177972055E-01  0.51100000000E-03 0.  1.
         11    1    4    4    0    0  0.59903423567E-01 -0.68600927859E-01 -0.70790873731E-01  0.11535214078E+00  0.51100000000E-03 0. -1.
</event>
<event>
 8    1  0.1108957E+005  0.1043930E+01  0.7957747E-01            NaN
         13   -1    0    0    0    0  0.00000000000E+00  0.00000000000E+00  0.74505805969E-08  0.10566000000E+00  0.10566000000E+00 0. -1.
     999900   -1    0    0    0    0 -0.00000000000E+00 -0.00000000000E+00 -0.74505805969E-08  0.93827000000E+00  0.93827000000E+00 0.  1.
     999902    2    1    2    0    0 -0.19281331495E-01  0.89325343625E-02  0.13188484548E-01  0.10189200812E+01  0.10186130943E+01 0.  0.
     999903    2    3    3    0    0 -0.86228631005E-01  0.65906922124E-01  0.73172057299E-01  0.13250818440E+00  0.20619645336E-01 0.  0.
         14    1    1    2    0    0  0.19281331495E-01 -0.89325343625E-02 -0.13188484548E-01  0.25009918813E-01  0.00000000000E+00 0.  1.
     999901    1    3    3    0    0  0.66947299511E-01 -0.56974387761E-01 -0.59983572750E-01  0.88641189679E+00  0.88000000000E+00 0.  1.
        -11    1    4    4    0    0 -0.29394865512E-01  0.10839153918E-01  0.21045008473E-01  0.37745183518E-01  0.51100000000E-03 0. -1.
         11    1    4    4    0    0 -0.56833765493E-01  0.55067768206E-01  0.52127048826E-01  0.94763000879E-01  0.51100000000E-03 0.  1.
</event>
<event>
 8    1  0.1108957E+005  0.1043930E+01  0.7957747E-01            NaN
         13   -1    0    0    0    0  0.00000000000E+00  0.00000000000E+00  0.74505805969E-08  0.10566000000E+00  0.10566000000E+00 0. -1.
     999900   -1    0    0    0    0 -0.00000000000E+00 -0.00000000000E+00 -0.74505805969E-08  0.93827000000E+00  0.93827000000E+00 0.  1.
     999902    2    1    2    0    0  0.19836748018E-01 -0.55979826742E-02 -0.12015695920E-01  0.10200718582E+01  0.10197928147E+01 0.  0.
     999903    2    3    3    0    0 -0.53692321875E-01 -0.75844570092E-01  0.86535508102E-01  0.12875067760E+00  0.21285642556E-01 0.  0.
         14    1    1    2    0    0 -0.19836748018E-01  0.55979826742E-02  0.12015695920E-01  0.23858141805E-01  0.00000000000E+00 0. -1.
     999901    1    3    3    0    0  0.73529069893E-01  0.70246587418E-01 -0.98551204023E-01  0.89132118060E+00  0.88000000000E+00 0. -1.
        -11    1    4    4    0    0 -0.42963697464E-01 -0.43603540051E-01  0.52344794048E-01  0.80544314447E-01  0.51100000000E-03 0.  1.
         11    1    4    4    0    0 -0.10728624411E-01 -0.32241030042E-01  0.34190714054E-01  0.48206363153E-01  0.51100000000E-03 0. -1.
</event>
<event>
 8    1  0.1108957E+005  0.1043930E+01  0.7957747E-01            NaN
         13   -1    0    0    0    0  0.00000000000E+00  0.00000000000E+00  0.74505805969E-08  0.10566000000E+00  0.10566000000E+00 0. -1.
     999900   -1    0    0    0    0 -0.00000000000E+00 -0.00000000000E+00 -0.74505805969E-08  0.93827000000E+00  0.93827000000E+00 0.  1.
     999902    2    1    2    0    0 -0.44791937700E-02  0.13514218467E-01  0.18354188393E-01  0.10207012784E+01  0.10204369290E+01 0.  0.
     999903    2    3    3    0    0 -0.56682209254E-01 -0.38512545016E-01 -0.10701884709E+00  0.12876499309E+00  0.20767783815E-01 0.  0.
         14    1    1    2    0    0  0.44791937700E-02 -0.13514218467E-01 -0.18354188393E-01  0.23228721643E-01  0.00000000000E+00 0.  1.
     999901    1    3    3    0    0  0.52203015484E-01  0.52026763483E-01  0.12537303548E+00  0.89193628526E+00  0.88000000000E+00 0. -1.
        -11    1    4    4    0    0 -0.15449367694E-01 -0.22115488155E-01 -0.35371732509E-01  0.44488182253E-01  0.51100000000E-03 0.  1.
         11    1    4    4    0    0 -0.41232841559E-01 -0.16397056861E-01 -0.71647114580E-01  0.84276810840E-01  0.51100000000E-03 0. -1.
</event>
<event>
 8    1  0.1108957E+005  0.1043930E+01  0.7957747E-01            NaN
         13   -1    0    0    0    0  0.00000000000E+00  0.00000000000E+00  0.74505805969E-08  0.10566000000E+00  0.10566000000E+00 0.  1.
     999900   -1    0    0    0    0 -0.00000000000E+00 -0.00000000000E+00 -0.74505805969E-08  0.93827000000E+00  0.93827000000E+00 0. -1.
     999902    2    1    2    0    0  0.83583282637E-02 -0.69644770630E-02 -0.20078775662E-01  0.10210931258E+01  0.10208377191E+01 0.  0.
     999903    2    3    3    0    0 -0.67769791564E-01  0.84685673431E-01 -0.71714837136E-01  0.13156430468E+00  0.20043464474E-01 0.  0.
         14    1    1    2    0    0 -0.83583282637E-02  0.69644770630E-02  0.20078775662E-01  0.22836874222E-01  0.00000000000E+00 0.  1.
     999901    1    3    3    0    0  0.76128119828E-01 -0.91650150494E-01  0.51636061474E-01  0.88952882110E+00  0.88000000000E+00 0. -1.
        -11    1    4    4    0    0 -0.27727557640E-01  0.40323574755E-01 -0.43491549319E-01  0.65472010179E-01  0.51100000000E-03 0. -1.
         11    1    4    4    0    0 -0.40042233925E-01  0.44362098676E-01 -0.28223287817E-01  0.66092294504E-01  0.51100000000E-03 0.  1.
</event>
<event>
 8    1  0.1108957E+005  0.1043930E+01  0.7957747E-01            NaN
         13   -1    0    0    0    0  0.00000000000E+00  0.00000000000E+00  0.74505805969E-08  0.10566000000E+00  0.10566000000E+00 0.  1.
     999900   -1    0    0    0    0 -0.00000000000E+00 -0.00000000000E+00 -0.74505805969E-08  0.93827000000E+00  0.93827000000E+00 0.  1.
     999902    2    1    2    0    0 -0.81504850248E-02 -0.11769857484E-01  0.68634877093E-02  0.10280533689E+01  0.10279307671E+01 0.  0.
     999903    2    3    3    0    0  0.66589136860E-01  0.10932287500E+00 -0.38295780789E-01  0.13547910282E+00  0.22414645431E-01 0.  0.
         14    1    1    2    0    0  0.81504850248E-02  0.11769857484E-01 -0.68634877093E-02  0.15876631093E-01  0.00000000000E+00 0. -1.
     999901    1    3    3    0    0 -0.74739621885E-01 -0.12109273249E+00  0.45159268498E-01  0.89257426608E+00  0.88000000000E+00 0. -1.
        -11    1    4    4    0    0  0.48610760707E-01  0.86830541566E-01 -0.20429634116E-01  0.10158828710E+00  0.51100000000E-03 0.  1.
         11    1    4    4    0    0  0.17978376153E-01  0.22492333434E-01 -0.17866146672E-01  0.33890815723E-01  0.51100000000E-03 0. -1.
</event>
<event>
 8    1  0.1108957E+005  0.1043930E+01  0.7957747E-01            NaN
         13   -1    0    0    0    0  0.00000000000E+00  0.00000000000E+00  0.74505805969E-08  0.10566000000E+00  0.10566000000E+00 0.  1.
     999900   -1    0    0    0    0 -0.00000000000E+00 -0.00000000000E+00 -0.74505805969E-08  0.93827000000E+00  0.93827000000E+00 0. -1.
     999902    2    1    2    0    0 -0.64370958799E-02 -0.59248738850E-02  0.22981114636E-01  0.10193399214E+01  0.10190432785E+01 0.  0.
     999903    2    3    3    0    0  0.10759230054E+00  0.67912418896E-01  0.27779970595E-03  0.12862667377E+00  0.18882379554E-01 0.  0.
         14    1    1    2    0    0  0.64370958799E-02  0.59248738850E-02 -0.22981114636E-01  0.24590078565E-01  0.00000000000E+00 0.  1.
     999901    1    3    3    0    0 -0.11402939642E+00 -0.73837292781E-01  0.22703314930E-01  0.89071324766E+00  0.88000000000E+00 0. -1.
        -11    1    4    4    0    0  0.50441701663E-01  0.31665513215E-01  0.95376054620E-02  0.60318297661E-01  0.51100000000E-03 0.  1.
         11    1    4    4    0    0  0.57150598876E-01  0.36246905681E-01 -0.92598057560E-02  0.68308376111E-01  0.51100000000E-03 0. -1.
</event>
<event>
 8    1  0.1108957E+005  0.1043930E+01  0.7957747E-01            NaN
         13   -1    0    0    0    0  0.00000000000E+00  0.00000000000E+00  0.74505805969E-08  0.10566000000E+00  0.10566000000E+00 0. -1.
     999900   -1    0    0    0    0 -0.00000000000E+00 -0.00000000000E+00 -0.74505805969E-08  0.93827000000E+00  0.93827000000E+00 0.  1.
     999902    2    1    2    0    0  0.11246649652E-01  0.93905508243E-02 -0.17953397121E-01  0.10207568681E+01  0.10204937970E+01 0.  0.
     999903    2    3    3    0    0 -0.12698910699E+00  0.11693933029E-02  0.14098595824E-01  0.12935121293E+00  0.20133680886E-01 0.  0.
         14    1    1    2    0    0 -0.11246649652E-01 -0.93905508243E-02  0.17953397121E-01  0.23173131885E-01  0.00000000000E+00 0. -1.
     999901    1    3    3    0    0  0.13823575665E+00  0.82211575214E-02 -0.32051992946E-01  0.89140565519E+00  0.88000000000E+00 0.  1.
        -11    1    4    4    0    0 -0.87340586264E-01  0.63732303305E-02  0.17169998817E-01  0.89241616156E-01  0.51100000000E-03 0.  1.
         11    1    4    4    0    0 -0.39648520730E-01 -0.52038370276E-02 -0.30714029928E-02  0.40109596772E-01  0.51100000000E-03 0. -1.
</event>
<event>
 8    1  0.1108957E+005  0.1043930E+01  0.7957747E-01            NaN
         13   -1    0    0    0    0  0.00000000000E+00  0.00000000000E+00  0.74505805969E-08  0.10566000000E+00  0.10566000000E+00 0. -1.
     999900   -1    0    0    0    0 -0.00000000000E+00 -0.00000000000E+00 -0.74505805969E-08  0.93827000000E+00  0.93827000000E+00 0. -1.
     999902    2    1    2    0    0  0.25191541707E-01  0.17411914703E-02  0.27469035098E-02  0.10185293898E+01  0.10182126138E+01 0.  0.
     999903    2    3    3    0    0  0.22473211355E-01  0.35014929113E-01 -0.12079033625E+00  0.12927353202E+00  0.19754752835E-01 0.  0.
         14    1    1    2    0    0 -0.25191541707E-01 -0.17411914703E-02 -0.27469035098E-02  0.25400610233E-01  0.00000000000E+00 0.  1.
     999901    1    3    3    0    0  0.27183303517E-02 -0.33273737643E-01  0.12353723976E+00  0.88925585775E+00  0.88000000000E+00 0.  1.
        -11    1    4    4    0    0  0.17337862866E-02  0.71941554087E-02 -0.66096407588E-02  0.99353086964E-02  0.51100000000E-03 0.  1.
         11    1    4    4    0    0  0.20739425069E-01  0.27820773705E-01 -0.11418069549E+00  0.11933822332E+00  0.51100000000E-03 0. -1.
</event>
<event>
 8    1  0.1108957E+005  0.1043930E+01  0.7957747E-01            NaN
         13   -1    0    0    0    0  0.00000000000E+00  0.00000000000E+00  0.74505805969E-08  0.10566000000E+00  0.10566000000E+00 0. -1.
     999900   -1    0    0    0    0 -0.00000000000E+00 -0.00000000000E+00 -0.74505805969E-08  0.93827000000E+00  0.93827000000E+00 0.  1.
     999902    2    1    2    0    0  0.10732537144E-01 -0.29144429645E-03  0.20797928348E-01  0.10205243144E+01  0.10202558749E+01 0.  0.
     999903    2    3    3    0    0 -0.11737095519E+00 -0.50356952103E-01  0.14240674929E-01  0.12981669832E+00  0.18379733253E-01 0.  0.
         14    1    1    2    0    0 -0.10732537144E-01  0.29144429645E-03 -0.20797928348E-01  0.23405685567E-01  0.00000000000E+00 0.  1.
     999901    1    3    3    0    0  0.12810349233E+00  0.50065507807E-01  0.65572534190E-02  0.89070761611E+00  0.88000000000E+00 0. -1.
        -11    1    4    4    0    0 -0.97191379579E-01 -0.36034873241E-01  0.16501121164E-01  0.10496296716E+00  0.51100000000E-03 0.  1.
         11    1    4    4    0    0 -0.20179575610E-01 -0.14322078862E-01 -0.22604462348E-02  0.24853731167E-01  0.51100000000E-03 0. -1.
</event>
<event>
 8    1  0.1108957E+005  0.1043930E+01  0.7957747E-01            NaN
         13   -1    0    0    0    0  0.00000000000E+00  0.00000000000E+00  0.74505805969E-08  0.10566000000E+00  0.10566000000E+00 0.  1.
     999900   -1    0    0    0    0 -0.00000000000E+00 -0.00000000000E+00 -0.74505805969E-08  0.93827000000E+00  0.93827000000E+00 0.  1.
     999902    2    1    2    0    0 -0.15529344758E-01 -0.11580002920E-01 -0.94276205810E-02  0.10223861599E+01  0.10221591475E+01 0.  0.
     999903    2    3    3    0    0 -0.80283371403E-02  0.65045293306E-01  0.11130853589E+00  0.13081175436E+00  0.20658667414E-01 0.  0.
         14    1    1    2    0    0  0.15529344758E-01  0.11580002920E-01  0.94276205810E-02  0.21543840096E-01  0.00000000000E+00 0. -1.
     999901    1    3    3    0    0 -0.75010076177E-02 -0.76625296226E-01 -0.12073615647E+00  0.89157440554E+00  0.88000000000E+00 0.  1.
        -11    1    4    4    0    0 -0.16680900352E-02  0.92837834510E-02  0.52225512123E-02  0.10793855738E-01  0.51100000000E-03 0.  1.
         11    1    4    4    0    0 -0.63602471051E-02  0.55761509855E-01  0.10608598468E+00  0.12001789862E+00  0.51100000000E-03 0. -1.
</event>
<event>
 8    1  0.1108957E+005  0.1043930E+01  0.7957747E-01            NaN
         13   -1    0    0    0    0  0.00000000000E+00  0.00000000000E+00  0.74505805969E-08  0.10566000000E+00  0.10566000000E+00 0. -1.
     999900   -1    0    0    0    0 -0.00000000000E+00 -0.00000000000E+00 -0.74505805969E-08  0.93827000000E+00  0.93827000000E+00 0. -1.
     999902    2    1    2    0    0 -0.22362372416E-01 -0.55684172901E-02  0.48903386066E-02  0.10203715963E+01  0.10200996011E+01 0.  0.
     999903    2    3    3    0    0  0.35778190220E-01  0.11157867039E+00 -0.50117892650E-01  0.12900765794E+00  0.20032325435E-01 0.  0.
         14    1    1    2    0    0  0.22362372416E-01  0.55684172901E-02 -0.48903386066E-02  0.23558403657E-01  0.00000000000E+00 0.  1.
     999901    1    3    3    0    0 -0.58140562636E-01 -0.11714708768E+00  0.55008231256E-01  0.89136393840E+00  0.88000000000E+00 0.  1.
        -11    1    4    4    0    0  0.25554429299E-01  0.10021533946E+00 -0.41387992561E-01  0.11139735261E+00  0.51100000000E-03 0.  1.
         11    1    4    4    0    0  0.10223760921E-01  0.11363330931E-01 -0.87299000890E-02  0.17610305329E-01  0.51100000000E-03 0. -1.
</event>
<event>
 8    1  0.1108957E+005  0.1043930E+01  0.7957747E-01            NaN
         13   -1    0    0    0    0  0.00000000000E+00  0.00000000000E+00  0.74505805969E-08  0.10566000000E+00  0.10566000000E+00 0. -1.
     999900   -1    0    0    0    0 -0.00000000000E+00 -0.00000000000E+00 -0.74505805969E-08  0.93827000000E+00  0.93827000000E+00 0. -1.
     999902    2    1    2    0    0 -0.12902592170E-01 -0.18166864358E-01  0.83183922256E-02  0.10201453937E+01  0.10198680880E+01 0.  0.
     999903    2    3    3    0    0  0.63573501538E-01  0.58132086551E-01 -0.90929450385E-01  0.12800176345E+00  0.26369621054E-01 0.  0.
         14    1    1    2    0    0  0.12902592170E-01  0.18166864358E-01 -0.83183922256E-02  0.23784606251E-01  0.00000000000E+00 0.  1.
     999901    1    3    3    0    0 -0.76476093708E-01 -0.76298950909E-01  0.99247842610E-01  0.89214363030E+00  0.88000000000E+00 0.  1.
        -11    1    4    4    0    0  0.43246049339E-01  0.26908074183E-01 -0.39322502855E-01  0.64348936211E-01  0.51100000000E-03 0.  1.
         11    1    4    4    0    0  0.20327452199E-01  0.31224012368E-01 -0.51606947529E-01  0.63652827239E-01  0.51100000000E-03 0. -1.
</event>
<event>
 8    1  0.1108957E+005  0.1043930E+01  0.7957747E-01            NaN
         13   -1    0    0    0    0  0.00000000000E+00  0.00000000000E+00  0.74505805969E-08  0.10566000000E+00  0.10566000000E+00 0. -1.
     999900   -1    0    0    0    0 -0.00000000000E+00 -0.00000000000E+00 -0.74505805969E-08  0.93827000000E+00  0.93827000000E+00 0.  1.
     999902    2    1    2    0    0 -0.24063061529E-01 -0.43474808589E-02 -0.10922060652E-01  0.10171489819E+01  0.10167963555E+01 0.  0.
     999903    2    3    3    0    0  0.45527915070E-01 -0.86207950382E-01 -0.80469339398E-01  0.12789037811E+00  0.19391556645E-01 0.  0.
         14    1    1    2    0    0  0.24063061529E-01  0.43474808589E-02  0.10922060652E-01  0.26781018070E-01  0.00000000000E+00 0. -1.
     999901    1    3    3    0    0 -0.69590976600E-01  0.81860469523E-01  0.69547278746E-01  0.88925860382E+00  0.88000000000E+00 0. -1.
        -11    1    4    4    0    0  0.21145321558E-01 -0.26744521975E-01 -0.19386175849E-01  0.39223449804E-01  0.51100000000E-03 0.  1.
         11    1    4    4    0    0  0.24382593512E-01 -0.59463428408E-01 -0.61083163549E-01  0.88666928302E-01  0.51100000000E-03 0. -1.
</event>
<event>
 8    1  0.1108957E+005  0.1043930E+01  0.7957747E-01            NaN
         13   -1    0    0    0    0  0.00000000000E+00  0.00000000000E+00  0.74505805969E-08  0.10566000000E+00  0.10566000000E+00 0. -1.
     999900   -1    0    0    0    0 -0.00000000000E+00 -0.00000000000E+00 -0.74505805969E-08  0.93827000000E+00  0.93827000000E+00 0.  1.
     999902    2    1    2    0    0 -0.86291050241E-02 -0.78916332479E-02  0.22220669308E-01  0.10188202913E+01  0.10185108190E+01 0.  0.
     999903    2    3    3    0    0 -0.30556877039E-01  0.63060061171E-01 -0.10354515475E+00  0.12678216840E+00  0.21019636097E-01 0.  0.
         14    1    1    2    0    0  0.86291050241E-02  0.78916332479E-02 -0.22220669308E-01  0.25109708746E-01  0.00000000000E+00 0.  1.
     999901    1    3    3    0    0  0.21927772015E-01 -0.70951694419E-01  0.12576582406E+00  0.89203812286E+00  0.88000000000E+00 0. -1.
        -11    1    4    4    0    0 -0.96527285361E-02  0.29064774609E-01 -0.62105859585E-01  0.69248358876E-01  0.51100000000E-03 0.  1.
         11    1    4    4    0    0 -0.20904148503E-01  0.33995286562E-01 -0.41439295167E-01  0.57533809522E-01  0.51100000000E-03 0. -1.
</event>
<event>
 8    1  0.1108957E+005  0.1043930E+01  0.7957747E-01            NaN
         13   -1    0    0    0    0  0.00000000000E+00  0.00000000000E+00  0.74505805969E-08  0.10566000000E+00  0.10566000000E+00 0.  1.
     999900   -1    0    0    0    0 -0.00000000000E+00 -0.00000000000E+00 -0.74505805969E-08  0.93827000000E+00  0.93827000000E+00 0. -1.
     999902    2    1    2    0    0 -0.43834029914E-02 -0.14151309052E-01  0.18886568464E-01  0.10199263287E+01  0.10196438298E+01 0.  0.
     999903    2    3    3    0    0 -0.68826388354E-01  0.10662380661E+00  0.15612770562E-01  0.12933649900E+00  0.19454138359E-01 0.  0.
         14    1    1    2    0    0  0.43834029914E-02  0.14151309052E-01 -0.18886568464E-01  0.24003671345E-01  0.00000000000E+00 0. -1.
     999901    1    3    3    0    0  0.64442985362E-01 -0.12077511567E+00  0.32737979022E-02  0.89058982965E+00  0.88000000000E+00 0.  1.
        -11    1    4    4    0    0 -0.34663077242E-01  0.48442103386E-01  0.16665610371E-01  0.61856042505E-01  0.51100000000E-03 0.  1.
         11    1    4    4    0    0 -0.34163311112E-01  0.58181703227E-01 -0.10528398090E-02  0.67480456498E-01  0.51100000000E-03 0. -1.
</event>
<event>
 8    1  0.1108957E+005  0.1043930E+01  0.7957747E-01            NaN
         13   -1    0    0    0    0  0.00000000000E+00  0.00000000000E+00  0.74505805969E-08  0.10566000000E+00  0.10566000000E+00 0.  1.
     999900   -1    0    0    0    0 -0.00000000000E+00 -0.00000000000E+00 -0.74505805969E-08  0.93827000000E+00  0.93827000000E+00 0.  1.
     999902    2    1    2    0    0 -0.18600630621E-02 -0.37297123313E-02 -0.22097230118E-01  0.10214431557E+01  0.10211956042E+01 0.  0.
     999903    2    3    3    0    0 -0.23100838951E-01 -0.22638607794E-01 -0.12902571534E+00  0.13451451264E+00  0.20009087161E-01 0.  0.
         14    1    1    2    0    0  0.18600630621E-02  0.37297123313E-02  0.22097230118E-01  0.22486844322E-01  0.00000000000E+00 0.  1.
     999901    1    3    3    0    0  0.21240775888E-01  0.18908895463E-01  0.10692848522E+00  0.88692864304E+00  0.88000000000E+00 0. -1.
        -11    1    4    4    0    0 -0.11463383569E-01 -0.37438870670E-02 -0.77163718550E-01  0.78102025804E-01  0.51100000000E-03 0. -1.
         11    1    4    4    0    0 -0.11637455382E-01 -0.18894720727E-01 -0.51861996789E-01  0.56412486837E-01  0.51100000000E-03 0.  1.
</event>
<event>
 8    1  0.1108957E+005  0.1043930E+01  0.7957747E-01            NaN
         13   -1    0    0    0    0  0.00000000000E+00  0.00000000000E+00  0.74505805969E-08  0.10566000000E+00  0.10566000000E+00 0. -1.
     999900   -1    0    0    0    0 -0.00000000000E+00 -0.00000000000E+00 -0.74505805969E-08  0.93827000000E+00  0.93827000000E+00 0. -1.
     999902    2    1    2    0    0  0.21782956905E-02 -0.14349054505E-01  0.15474877919E-01  0.10227141525E+01  0.10224940712E+01 0.  0.
     999903    2    3    3    0    0  0.13103245406E-02  0.12126782623E+00  0.47648651248E-01  0.13174398277E+00  0.19454572729E-01 0.  0.
         14    1    1    2    0    0 -0.21782956905E-02  0.14349054505E-01 -0.15474877919E-01  0.21215847471E-01  0.00000000000E+00 0.  1.
     999901    1    3    3    0    0  0.86797114995E-03 -0.13561688074E+00 -0.32173773329E-01  0.89097016976E+00  0.88000000000E+00 0. -1.
        -11    1    4    4    0    0 -0.42328638047E-02  0.77436080462E-01  0.38659738820E-01  0.86655064594E-01  0.51100000000E-03 0. -1.
         11    1    4    4    0    0  0.55431883452E-02  0.43831745771E-01  0.89889124284E-02  0.45088918173E-01  0.51100000000E-03 0.  1.
</event>
<event>
 8    1  0.1108957E+005  0.1043930E+01  0.7957747E-01            NaN
         13   -1    0    0    0    0  0.00000000000E+00  0.00000000000E+00  0.74505805969E-08  0.10566000000E+00  0.10566000000E+00 0. -1.
     999900   -1    0    0    0    0 -0.00000000000E+00 -0.00000000000E+00 -0.74505805969E-08  0.93827000000E+00  0.93827000000E+00 0. -1.
     999902    2    1    2    0    0 -0.18071151689E-01 -0.83517196877E-02  0.90538871332E-02  0.10220601436E+01  0.10218261333E+01 0.  0.
     999903    2    3    3    0    0  0.56050942400E-01  0.11529397773E+00  0.13109421511E-01  0.13032094932E+00  0.19423785767E-01 0.  0.
         14    1    1    2    0    0  0.18071151689E-01  0.83517196877E-02 -0.90538871332E-02  0.21869856362E-01  0.00000000000E+00 0. -1.
     999901    1    3    3    0    0 -0.74122094088E-01 -0.12364569742E+00 -0.40555343782E-02  0.89173919432E+00  0.88000000000E+00 0. -1.
        -11    1    4    4    0    0  0.21899887205E-01  0.66271450367E-01  0.43347316898E-02  0.69932547595E-01  0.51100000000E-03 0. -1.
         11    1    4    4    0    0  0.34151055194E-01  0.49022527368E-01  0.87746898216E-02  0.60388401725E-01  0.51100000000E-03 0.  1.
</event>
<event>
 8    1  0.1108957E+005  0.1043930E+01  0.7957747E-01            NaN
         13   -1    0    0    0    0  0.00000000000E+00  0.00000000000E+00  0.74505805969E-08  0.10566000000E+00  0.10566000000E+00 0. -1.
     999900   -1    0    0    0    0 -0.00000000000E+00 -0.00000000000E+00 -0.74505805969E-08  0.93827000000E+00  0.93827000000E+00 0.  1.
     999902    2    1    2    0    0 -0.15323719316E-01 -0.21048338877E-02 -0.18793564430E-01  0.10195898118E+01  0.10192992394E+01 0.  0.
     999903    2    3    3    0    0 -0.74922726393E-01  0.99275268427E-01 -0.38160413514E-01  0.13155544214E+00  0.19535182250E-01 0.  0.
         14    1    1    2    0    0  0.15323719316E-01  0.21048338877E-02  0.18793564430E-01  0.24340188236E-01  0.00000000000E+00 0. -1.
     999901    1    3    3    0    0  0.59599007077E-01 -0.10138010231E+00  0.19366849084E-01  0.88803436962E+00  0.88000000000E+00 0.  1.
        -11    1    4    4    0    0 -0.41223269232E-01  0.69732147022E-01 -0.22412812961E-01  0.84050732062E-01  0.51100000000E-03 0. -1.
         11    1    4    4    0    0 -0.33699457161E-01  0.29543121405E-01 -0.15747600553E-01  0.47504710077E-01  0.51100000000E-03 0.  1.
</event>
<event>
 8    1  0.1108957E+005  0.1043930E+01  0.7957747E-01            NaN
         13   -1    0    0    0    0  0.00000000000E+00  0.00000000000E+00  0.74505805969E-08  0.10566000000E+00  0.10566000000E+00 0.  1.
     999900   -1    0    0    0    0 -0.00000000000E+00 -0.00000000000E+00 -0.74505805969E-08  0.93827000000E+00  0.93827000000E+00 0. -1.
     999902    2    1    2    0    0  0.10018221787E-01  0.21402672691E-01 -0.14945253139E-04  0.10202986778E+01  0.10200249764E+01 0.  0.
     999903    2    3    3    0    0 -0.11757711459E+00 -0.39517027844E-01 -0.26170082129E-01  0.12862840747E+00  0.21781199355E-01 0.  0.
         14    1    1    2    0    0 -0.10018221787E-01 -0.21402672691E-01  0.14945253139E-04  0.23631322211E-01  0.00000000000E+00 0.  1.
     999901    1    3    3    0    0  0.12759533638E+00  0.60919700535E-01  0.26155136876E-01  0.89167027032E+00  0.88000000000E+00 0.  1.
        -11    1    4    4    0    0 -0.45244667692E-01 -0.26514655188E-01 -0.11081808372E-01  0.53602000822E-01  0.51100000000E-03 0.  1.
         11    1    4    4    0    0 -0.72332446899E-01 -0.13002372656E-01 -0.15088273757E-01  0.75026406652E-01  0.51100000000E-03 0. -1.
</event>
<event>
 8    1  0.1108957E+005  0.1043930E+01  0.7957747E-01            NaN
         13   -1    0    0    0    0  0.00000000000E+00  0.00000000000E+00  0.74505805969E-08  0.10566000000E+00  0.10566000000E+00 0.  1.
     999900   -1    0    0    0    0 -0.00000000000E+00 -0.00000000000E+00 -0.74505805969E-08  0.93827000000E+00  0.93827000000E+00 0.  1.
     999902    2    1    2    0    0  0.98326575991E-02 -0.73396852326E-03  0.21187397986E-01  0.10205606676E+01  0.10202930709E+01 0.  0.
     999903    2    3    3    0    0  0.84138132169E-01 -0.73060308581E-01 -0.64400862775E-01  0.13034847185E+00  0.20645072334E-01 0.  0.
         14    1    1    2    0    0 -0.98326575991E-02  0.73396852326E-03 -0.21187397986E-01  0.23369332440E-01  0.00000000000E+00 0. -1.
     999901    1    3    3    0    0 -0.74305474570E-01  0.72326340058E-01  0.85588260761E-01  0.89021219571E+00  0.88000000000E+00 0. -1.
        -11    1    4    4    0    0  0.43197212759E-01 -0.47510338852E-01 -0.28803341083E-01  0.70378441774E-01  0.51100000000E-03 0. -1.
         11    1    4    4    0    0  0.40940919410E-01 -0.25549969729E-01 -0.35597521692E-01  0.59970030072E-01  0.51100000000E-03 0.  1.
</event>
<event>
 8    1  0.1108957E+005  0.1043930E+01  0.7957747E-01            NaN
         13   -1    0    0    0    0  0.00000000000E+00  0.00000000000E+00  0.74505805969E-08  0.10566000000E+00  0.10566000000E+00 0.  1.
     999900   -1    0    0    0    0 -0.00000000000E+00 -0.00000000000E+00 -0.74505805969E-08  0.93827000000E+00  0.93827000000E+00 0. -1.
     999902    2    1    2    0    0  0.11316828252E-01  0.11184440715E-02 -0.20030083664E-01  0.10208968550E+01  0.10206369887E+01 0.  0.
     999903    2    3    3    0    0 -0.11100552630E+00  0.61203831097E-01 -0.23197826314E-01  0.13040089947E+00  0.19952935265E-01 0.  0.
         14    1    1    2    0    0 -0.11316828252E-01 -0.11184440715E-02  0.20030083664E-01  0.23033145040E-01  0.00000000000E+00 0.  1.
     999901    1    3    3    0    0  0.12232235455E+00 -0.60085387025E-01  0.31677426496E-02  0.89049595549E+00  0.88000000000E+00 0.  1.
        -11    1    4    4    0    0 -0.58474609295E-01  0.22630363205E-01 -0.59600802342E-02  0.62985688441E-01  0.51100000000E-03 0.  1.
         11    1    4    4    0    0 -0.52530917006E-01  0.38573467892E-01 -0.17237746079E-01  0.67415211025E-01  0.51100000000E-03 0. -1.
</event>
<event>
 8    1  0.1108957E+005  0.1043930E+01  0.7957747E-01            NaN
         13   -1    0    0    0    0  0.00000000000E+00  0.00000000000E+00  0.74505805969E-08  0.10566000000E+00  0.10566000000E+00 0.  1.
     999900   -1    0    0    0    0 -0.00000000000E+00 -0.00000000000E+00 -0.74505805969E-08  0.93827000000E+00  0.93827000000E+00 0.  1.
     999902    2    1    2    0    0  0.13038129171E-01  0.10462254924E-01  0.16160844615E-01  0.10206786669E+01  0.10204137968E+01 0.  0.
     999903    2    3    3    0    0  0.89782822327E-01  0.94659283412E-01  0.19224733213E-01  0.13332965164E+00  0.19643587233E-01 0.  0.
         14    1    1    2    0    0 -0.13038129171E-01 -0.10462254924E-01 -0.16160844615E-01  0.23251333060E-01  0.00000000000E+00 0. -1.
     999901    1    3    3    0    0 -0.76744693155E-01 -0.84197028489E-01 -0.30638885982E-02  0.88734901530E+00  0.88000000000E+00 0.  1.
        -11    1    4    4    0    0  0.29480417367E-01  0.18587020655E-01  0.44948328028E-02  0.35143093032E-01  0.51100000000E-03 0. -1.
         11    1    4    4    0    0  0.60302404960E-01  0.76072262757E-01  0.14729900410E-01  0.98186558612E-01  0.51100000000E-03 0.  1.
</event>
<event>
 8    1  0.1108957E+005  0.1043930E+01  0.7957747E-01            NaN
         13   -1    0    0    0    0  0.00000000000E+00  0.00000000000E+00  0.74505805969E-08  0.10566000000E+00  0.10566000000E+00 0. -1.
     999900   -1    0    0    0    0 -0.00000000000E+00 -0.00000000000E+00 -0.74505805969E-08  0.93827000000E+00  0.93827000000E+00 0.  1.
     999902    2    1    2    0    0 -0.16883979354E-01 -0.21848351570E-02 -0.79093847104E-02  0.10251576632E+01  0.10249857725E+01 0.  0.
     999903    2    3    3    0    0 -0.50608534410E-01 -0.11888766132E+00 -0.39194101523E-01  0.13626192758E+00  0.18320358711E-01 0.  0.
         14    1    1    2    0    0  0.16883979354E-01  0.21848351570E-02  0.79093847104E-02  0.18772336828E-01  0.00000000000E+00 0. -1.
     999901    1    3    3    0    0  0.33724555055E-01  0.11670282617E+00  0.31284716812E-01  0.88889573559E+00  0.88000000000E+00 0. -1.
        -11    1    4    4    0    0 -0.26957916428E-01 -0.48855302830E-01 -0.95182249168E-02  0.56607663786E-01  0.51100000000E-03 0. -1.
         11    1    4    4    0    0 -0.23650617982E-01 -0.70032358493E-01 -0.29675876606E-01  0.79654263793E-01  0.51100000000E-03 0.  1.
</event>
<event>
 8    1  0.1108957E+005  0.1043930E+01  0.7957747E-01            NaN
         13   -1    0    0    0    0  0.00000000000E+00  0.00000000000E+00  0.74505805969E-08  0.10566000000E+00  0.10566000000E+00 0. -1.
     999900   -1    0    0    0    0 -0.00000000000E+00 -0.00000000000E+00 -0.74505805969E-08  0.93827000000E+00  0.93827000000E+00 0.  1.
     999902    2    1    2    0    0 -0.20089607671E-02 -0.23543695129E-01  0.35746588441E-02  0.10200318894E+01  0.10197518991E+01 0.  0.
     999903    2    3    3    0    0  0.11978045730E+00 -0.46699239909E-01 -0.15481031699E-01  0.13113821695E+00  0.20721791496E-01 0.  0.
         14    1    1    2    0    0  0.20089607671E-02  0.23543695129E-01 -0.35746588441E-02  0.23898110585E-01  0.00000000000E+00 0. -1.
     999901    1    3    3    0    0 -0.12178941807E+00  0.23155544781E-01  0.19055690543E-01  0.88889367247E+00  0.88000000000E+00 0.  1.
        -11    1    4    4    0    0  0.11414952448E+00 -0.42246570438E-01 -0.18890376005E-01  0.12317464869E+00  0.51100000000E-03 0.  1.
         11    1    4    4    0    0  0.56309328213E-02 -0.44526694713E-02  0.34093443062E-02  0.79635682616E-02  0.51100000000E-03 0. -1.
</event>
<event>
 8    1  0.1108957E+005  0.1043930E+01  0.7957747E-01            NaN
         13   -1    0    0    0    0  0.00000000000E+00  0.00000000000E+00  0.74505805969E-08  0.10566000000E+00  0.10566000000E+00 0. -1.
     999900   -1    0    0    0    0 -0.00000000000E+00 -0.00000000000E+00 -0.74505805969E-08  0.93827000000E+00  0.93827000000E+00 0. -1.
     999902    2    1    2    0    0  0.16900056393E-01 -0.27080406544E-01 -0.26456905041E-02  0.10118993896E+01  0.10113923149E+01 0.  0.
     999903    2    3    3    0    0  0.94942405422E-01 -0.56119178553E-02  0.77776736313E-01  0.12453290894E+00  0.20338896951E-01 0.  0.
         14    1    1    2    0    0 -0.16900056393E-01  0.27080406544E-01  0.26456905041E-02  0.32030610405E-01  0.00000000000E+00 0. -1.
     999901    1    3    3    0    0 -0.78042349029E-01 -0.21468488689E-01 -0.80422426817E-01  0.88736648065E+00  0.88000000000E+00 0. -1.
        -11    1    4    4    0    0  0.78142649515E-01 -0.98535099859E-02  0.55720401065E-01  0.96479995586E-01  0.51100000000E-03 0.  1.
         11    1    4    4    0    0  0.16799755907E-01  0.42415921306E-02  0.22056335247E-01  0.28052913358E-01  0.51100000000E-03 0. -1.
</event>
<event>
 8    1  0.1108957E+005  0.1043930E+01  0.7957747E-01            NaN
         13   -1    0    0    0    0  0.00000000000E+00  0.00000000000E+00  0.74505805969E-08  0.10566000000E+00  0.10566000000E+00 0. -1.
     999900   -1    0    0    0    0 -0.00000000000E+00 -0.00000000000E+00 -0.74505805969E-08  0.93827000000E+00  0.93827000000E+00 0.  1.
     999902    2    1    2    0    0  0.10141796580E-01  0.13483995993E-01  0.16385355266E-01  0.10204107727E+01  0.10201396919E+01 0.  0.
     999903    2    3    3    0    0  0.20480027719E-01  0.10700146769E-01  0.13000155913E+00  0.13304203839E+00  0.16305027650E-01 0.  0.
         14    1    1    2    0    0 -0.10141796580E-01 -0.13483995993E-01 -0.16385355266E-01  0.23519227305E-01  0.00000000000E+00 0.  1.
     999901    1    3    3    0    0 -0.10338231139E-01  0.27838492241E-02 -0.11361620386E+00  0.88736873430E+00  0.88000000000E+00 0.  1.
        -11    1    4    4    0    0  0.21516737810E-01  0.11358003211E-01  0.96743725956E-01  0.99757625652E-01  0.51100000000E-03 0. -1.
         11    1    4    4    0    0 -0.10367100911E-02 -0.65785644192E-03  0.33257833175E-01  0.33284412739E-01  0.51100000000E-03 0.  1.
</event>
<event>
 8    1  0.1108957E+005  0.1043930E+01  0.7957747E-01            NaN
         13   -1    0    0    0    0  0.00000000000E+00  0.00000000000E+00  0.74505805969E-08  0.10566000000E+00  0.10566000000E+00 0. -1.
     999900   -1    0    0    0    0 -0.00000000000E+00 -0.00000000000E+00 -0.74505805969E-08  0.93827000000E+00  0.93827000000E+00 0. -1.
     999902    2    1    2    0    0 -0.21538252856E-01  0.57049805307E-02 -0.66774090586E-02  0.10206699284E+01  0.10204048568E+01 0.  0.
     999903    2    3    3    0    0  0.11338217584E+00  0.55923959097E-01 -0.16361505771E-01  0.12891926279E+00  0.19221614108E-01 0.  0.
         14    1    1    2    0    0  0.21538252856E-01 -0.57049805307E-02  0.66774090586E-02  0.23260071596E-01  0.00000000000E+00 0.  1.
     999901    1    3    3    0    0 -0.13492042869E+00 -0.50218978567E-01  0.96840967126E-02  0.89175066561E+00  0.88000000000E+00 0. -1.
        -11    1    4    4    0    0  0.10685050150E+00  0.47968264132E-01 -0.17946729054E-01  0.11849189947E+00  0.51100000000E-03 0. -1.
         11    1    4    4    0    0  0.65316743357E-02  0.79556949650E-02  0.15852232831E-02  0.10427363323E-01  0.51100000000E-03 0.  1.
</event>
<event>
 8    1  0.1108957E+005  0.1043930E+01  0.7957747E-01            NaN
         13   -1    0    0    0    0  0.00000000000E+00  0.00000000000E+00  0.74505805969E-08  0.10566000000E+00  0.10566000000E+00 0. -1.
     999900   -1    0    0    0    0 -0.00000000000E+00 -0.00000000000E+00 -0.74505805969E-08  0.93827000000E+00  0.93827000000E+00 0. -1.
     999902    2    1    2    0    0 -0.41206271296E-02  0.11387714940E-01  0.20823429414E-01  0.10198411056E+01  0.10195565732E+01 0.  0.
     999903    2    3    3    0    0  0.44123505734E-01  0.86149561360E-01  0.89147786430E-01  0.13271932831E+00  0.17276041217E-01 0.  0.
         14    1    1    2    0    0  0.41206271296E-02 -0.11387714940E-01 -0.20823429414E-01  0.24088894372E-01  0.00000000000E+00 0.  1.
     999901    1    3    3    0    0 -0.48244132863E-01 -0.74761846420E-01 -0.68324357016E-01  0.88712177732E+00  0.88000000000E+00 0. -1.
        -11    1    4    4    0    0  0.37035983792E-01  0.80800197824E-01  0.76593030610E-01  0.11733324134E+00  0.51100000000E-03 0. -1.
         11    1    4    4    0    0  0.70875219418E-02  0.53493635359E-02  0.12554755821E-01  0.15386086969E-01  0.51100000000E-03 0.  1.
</event>
<event>
 8    1  0.1108957E+005  0.1043930E+01  0.7957747E-01            NaN
         13   -1    0    0    0    0  0.00000000000E+00  0.00000000000E+00  0.74505805969E-08  0.10566000000E+00  0.10566000000E+00 0.  1.
     999900   -1    0    0    0    0 -0.00000000000E+00 -0.00000000000E+00 -0.74505805969E-08  0.93827000000E+00  0.93827000000E+00 0.  1.
     999902    2    1    2    0    0 -0.62350998632E-02  0.18652414841E-01  0.14055397647E-01  0.10197568071E+01  0.10194702558E+01 0.  0.
     999903    2    3    3    0    0  0.24349557860E-01  0.66703028125E-01 -0.10676146110E+00  0.12967759939E+00  0.19392660402E-01 0.  0.
         14    1    1    2    0    0  0.62350998632E-02 -0.18652414841E-01 -0.14055397647E-01  0.24173192853E-01  0.00000000000E+00 0.  1.
     999901    1    3    3    0    0 -0.30584657723E-01 -0.48050613284E-01  0.12081685875E+00  0.89007920776E+00  0.88000000000E+00 0. -1.
        -11    1    4    4    0    0  0.24815095803E-01  0.42651921972E-01 -0.67186095167E-01  0.83361909362E-01  0.51100000000E-03 0. -1.
         11    1    4    4    0    0 -0.46553794315E-03  0.24051106152E-01 -0.39575365935E-01  0.46315690027E-01  0.51100000000E-03 0.  1.
</event>
<event>
 8    1  0.1108957E+005  0.1043930E+01  0.7957747E-01            NaN
         13   -1    0    0    0    0  0.00000000000E+00  0.00000000000E+00  0.74505805969E-08  0.10566000000E+00  0.10566000000E+00 0. -1.
     999900   -1    0    0    0    0 -0.00000000000E+00 -0.00000000000E+00 -0.74505805969E-08  0.93827000000E+00  0.93827000000E+00 0.  1.
     999902    2    1    2    0    0  0.18557710640E-02  0.52677127867E-02  0.21002313044E-01  0.10221977696E+01  0.10219667266E+01 0.  0.
     999903    2    3    3    0    0 -0.30757792996E-01  0.11194340845E+00 -0.58613555851E-01  0.13159009214E+00  0.20075728978E-01 0.  0.
         14    1    1    2    0    0 -0.18557710640E-02 -0.52677127867E-02 -0.21002313044E-01  0.21732230384E-01  0.00000000000E+00 0.  1.
     999901    1    3    3    0    0  0.32613564060E-01 -0.10667569566E+00  0.79615868895E-01  0.89060767748E+00  0.88000000000E+00 0. -1.
        -11    1    4    4    0    0 -0.15228109319E-01  0.87660777310E-01 -0.45060624841E-01  0.99734789437E-01  0.51100000000E-03 0. -1.
         11    1    4    4    0    0 -0.15529683677E-01  0.24282631138E-01 -0.13552931010E-01  0.31855302699E-01  0.51100000000E-03 0.  1.
</event>
<event>
 8    1  0.1108957E+005  0.1043930E+01  0.7957747E-01            NaN
         13   -1    0    0    0    0  0.00000000000E+00  0.00000000000E+00  0.74505805969E-08  0.10566000000E+00  0.10566000000E+00 0.  1.
     999900   -1    0    0    0    0 -0.00000000000E+00 -0.00000000000E+00 -0.74505805969E-08  0.93827000000E+00  0.93827000000E+00 0. -1.
     999902    2    1    2    0    0  0.51769893664E-03 -0.23421904276E-01  0.78103853843E-02  0.10192347427E+01  0.10189355255E+01 0.  0.
     999903    2    3    3    0    0  0.12593865016E+00  0.44177548241E-02  0.23907403218E-01  0.12976041729E+00  0.19650491202E-01 0.  0.
         14    1    1    2    0    0 -0.51769893664E-03  0.23421904276E-01 -0.78103853843E-02  0.24695257277E-01  0.00000000000E+00 0. -1.
     999901    1    3    3    0    0 -0.12542095122E+00 -0.27839659100E-01 -0.16097017834E-01  0.88947432543E+00  0.88000000000E+00 0.  1.
        -11    1    4    4    0    0  0.15403417818E-01  0.22387841492E-02 -0.32652538041E-02  0.15912273199E-01  0.51100000000E-03 0. -1.
         11    1    4    4    0    0  0.11053523234E+00  0.21789706749E-02  0.27172657022E-01  0.11384814409E+00  0.51100000000E-03 0.  1.
</event>
<event>
 8    1  0.1108957E+005  0.1043930E+01  0.7957747E-01            NaN
         13   -1    0    0    0    0  0.00000000000E+00  0.00000000000E+00  0.74505805969E-08  0.10566000000E+00  0.10566000000E+00 0.  1.
     999900   -1    0    0    0    0 -0.00000000000E+00 -0.00000000000E+00 -0.74505805969E-08  0.93827000000E+00  0.93827000000E+00 0. -1.
     999902    2    1    2    0    0 -0.19191855896E-01 -0.91713890515E-02 -0.11418188006E-01  0.10197884026E+01  0.10195026088E+01 0.  0.
     999903    2    3    3    0    0  0.73711102210E-01 -0.31188685960E-01  0.97693512779E-01  0.12792457649E+00  0.20362075317E-01 0.  0.
         14    1    1    2    0    0  0.19191855896E-01  0.91713890515E-02  0.11418188006E-01  0.24141597445E-01  0.00000000000E+00 0.  1.
     999901    1    3    3    0    0 -0.92902958106E-01  0.22017296909E-01 -0.10911170078E+00  0.89186382606E+00  0.88000000000E+00 0. -1.
        -11    1    4    4    0    0  0.48765141787E-01 -0.19497701898E-01  0.48241423415E-01  0.71314062336E-01  0.51100000000E-03 0. -1.
         11    1    4    4    0    0  0.24945960423E-01 -0.11690984062E-01  0.49452089364E-01  0.56610514158E-01  0.51100000000E-03 0.  1.
</event>
<event>
 8    1  0.1108957E+005  0.1043930E+01  0.7957747E-01            NaN
         13   -1    0    0    0    0  0.00000000000E+00  0.00000000000E+00  0.74505805969E-08  0.10566000000E+00  0.10566000000E+00 0.  1.
     999900   -1    0    0    0    0 -0.00000000000E+00 -0.00000000000E+00 -0.74505805969E-08  0.93827000000E+00  0.93827000000E+00 0. -1.
     999902    2    1    2    0    0 -0.15363606060E-01 -0.16143839944E-01 -0.17353021404E-03  0.10216433656E+01  0.10214002509E+01 0.  0.
     999903    2    3    3    0    0  0.72722781401E-01 -0.54073174347E-01 -0.93076568593E-01  0.13157099744E+00  0.20860695735E-01 0.  0.
         14    1    1    2    0    0  0.15363606060E-01  0.16143839944E-01  0.17353021404E-03  0.22286634381E-01  0.00000000000E+00 0.  1.
     999901    1    3    3    0    0 -0.88086387461E-01  0.37929334403E-01  0.92903038379E-01  0.89007236818E+00  0.88000000000E+00 0.  1.
        -11    1    4    4    0    0  0.63443951783E-01 -0.44099627666E-01 -0.87790172574E-01  0.11694993672E+00  0.51100000000E-03 0.  1.
         11    1    4    4    0    0  0.92788296178E-02 -0.99735466807E-02 -0.52863960190E-02  0.14621060712E-01  0.51100000000E-03 0. -1.
</event>
<event>
 8    1  0.1108957E+005  0.1043930E+01  0.7957747E-01            NaN
         13   -1    0    0    0    0  0.00000000000E+00  0.00000000000E+00  0.74505805969E-08  0.10566000000E+00  0.10566000000E+00 0.  1.
     999900   -1    0    0    0    0 -0.00000000000E+00 -0.00000000000E+00 -0.74505805969E-08  0.93827000000E+00  0.93827000000E+00 0.  1.
     999902    2    1    2    0    0 -0.28931484435E-02  0.23829469713E-01 -0.34323706470E-02  0.10196813897E+01  0.10193930259E+01 0.  0.
     999903    2    3    3    0    0  0.92023668598E-01 -0.84840621940E-01  0.14975965068E-01  0.12774122475E+00  0.20670129579E-01 0.  0.
         14    1    1    2    0    0  0.28931484435E-02 -0.23829469713E-01  0.34323706470E-02  0.24248610331E-01  0.00000000000E+00 0.  1.
     999901    1    3    3    0    0 -0.94916817041E-01  0.10867009165E+00 -0.18408335715E-01  0.89194016492E+00  0.88000000000E+00 0.  1.
        -11    1    4    4    0    0  0.41995615447E-01 -0.42425196530E-01 -0.28689983255E-02  0.59766389299E-01  0.51100000000E-03 0. -1.
         11    1    4    4    0    0  0.50028053151E-01 -0.42415425410E-01  0.17844963393E-01  0.67974835448E-01  0.51100000000E-03 0.  1.
</event>
<event>
 8    1  0.1108957E+005  0.1043930E+01  0.7957747E-01            NaN
         13   -1    0    0    0    0  0.00000000000E+00  0.00000000000E+00  0.74505805969E-08  0.10566000000E+00  0.10566000000E+00 0.  1.
     999900   -1    0    0    0    0 -0.00000000000E+00 -0.00000000000E+00 -0.74505805969E-08  0.93827000000E+00  0.93827000000E+00 0.  1.
     999902    2    1    2    0    0  0.12232326943E-01 -0.87290134066E-02  0.17457986468E-01  0.10208950963E+01  0.10206351899E+01 0.  0.
     999903    2    3    3    0    0  0.58978370689E-01  0.10410404594E+00  0.45442716517E-01  0.13201960613E+00  0.32373373752E-01 0.  0.
         14    1    1    2    0    0 -0.12232326943E-01  0.87290134066E-02 -0.17457986468E-01  0.23034903712E-01  0.00000000000E+00 0. -1.
     999901    1    3    3    0    0 -0.46746043746E-01 -0.11283305935E+00 -0.27984730049E-01  0.88887549016E+00  0.88000000000E+00 0. -1.
        -11    1    4    4    0    0 -0.24495261668E-02  0.14114716688E-01  0.10747248288E-02  0.14375032525E-01  0.51100000000E-03 0.  1.
         11    1    4    4    0    0  0.61427896856E-01  0.89989329252E-01  0.44367991688E-01  0.11764457361E+00  0.51100000000E-03 0. -1.
</event>
<event>
 8    1  0.1108957E+005  0.1043930E+01  0.7957747E-01            NaN
         13   -1    0    0    0    0  0.00000000000E+00  0.00000000000E+00  0.74505805969E-08  0.10566000000E+00  0.10566000000E+00 0.  1.
     999900   -1    0    0    0    0 -0.00000000000E+00 -0.00000000000E+00 -0.74505805969E-08  0.93827000000E+00  0.93827000000E+00 0.  1.
     999902    2    1    2    0    0 -0.14112440561E-01 -0.14754736552E-01 -0.16504921675E-01  0.10176759400E+01  0.10173372317E+01 0.  0.
     999903    2    3    3    0    0  0.11060011398E+00  0.56076056012E-01  0.88989886573E-02  0.12570308101E+00  0.18578571127E-01 0.  0.
         14    1    1    2    0    0  0.14112440561E-01  0.14754736552E-01  0.16504921675E-01  0.26254060045E-01  0.00000000000E+00 0. -1.
     999901    1    3    3    0    0 -0.12471255454E+00 -0.70830792564E-01 -0.25403910333E-01  0.89197285895E+00  0.88000000000E+00 0.  1.
        -11    1    4    4    0    0  0.22885223940E-01  0.37634992374E-02  0.31390840105E-02  0.23409664045E-01  0.51100000000E-03 0.  1.
         11    1    4    4    0    0  0.87714890044E-01  0.52312556775E-01  0.57599046469E-02  0.10229341696E+00  0.51100000000E-03 0. -1.
</event>
<event>
 8    1  0.1108957E+005  0.1043930E+01  0.7957747E-01            NaN
         13   -1    0    0    0    0  0.00000000000E+00  0.00000000000E+00  0.74505805969E-08  0.10566000000E+00  0.10566000000E+00 0. -1.
     999900   -1    0    0    0    0 -0.00000000000E+00 -0.00000000000E+00 -0.74505805969E-08  0.93827000000E+00  0.93827000000E+00 0. -1.
     999902    2    1    2    0    0  0.13658416042E-01  0.14055593284E-01 -0.10746540960E-01  0.10215782624E+01  0.10213337094E+01 0.  0.
     999903    2    3    3    0    0  0.65312832421E-01 -0.10931572754E+00  0.22445628415E-01  0.13085362389E+00  0.20079100699E-01 0.  0.
         14    1    1    2    0    0 -0.13658416042E-01 -0.14055593284E-01  0.10746540960E-01  0.22351737604E-01  0.00000000000E+00 0. -1.
     999901    1    3    3    0    0 -0.51654416379E-01  0.12337132082E+00 -0.33192169375E-01  0.89072463851E+00  0.88000000000E+00 0.  1.
        -11    1    4    4    0    0  0.38016676977E-01 -0.44773872350E-01  0.77078322565E-02  0.59242207696E-01  0.51100000000E-03 0. -1.
         11    1    4    4    0    0  0.27296155444E-01 -0.64541855185E-01  0.14737796159E-01  0.71611416194E-01  0.51100000000E-03 0.  1.
</event>
<event>
 8    1  0.1108957E+005  0.1043930E+01  0.7957747E-01            NaN
         13   -1    0    0    0    0  0.00000000000E+00  0.00000000000E+00  0.74505805969E-08  0.10566000000E+00  0.10566000000E+00 0.  1.
     999900   -1    0    0    0    0 -0.00000000000E+00 -0.00000000000E+00 -0.74505805969E-08  0.93827000000E+00  0.93827000000E+00 0. -1.
     999902    2    1    2    0    0  0.87974608581E-02  0.23659921252E-01  0.46886641556E-02  0.10182556789E+01  0.10179319510E+01 0.  0.
     999903    2    3    3    0    0 -0.64733247500E-01  0.96759450055E-01 -0.54803382053E-01  0.13017369524E+00  0.19722974951E-01 0.  0.
         14    1    1    2    0    0 -0.87974608581E-02 -0.23659921252E-01 -0.46886641556E-02  0.25674321077E-01  0.00000000000E+00 0.  1.
     999901    1    3    3    0    0  0.73530708358E-01 -0.73099528803E-01  0.59492046208E-01  0.88808198368E+00  0.88000000000E+00 0.  1.
        -11    1    4    4    0    0 -0.28900956531E-01  0.49365937094E-01 -0.37070876153E-01  0.68167235629E-01  0.51100000000E-03 0. -1.
         11    1    4    4    0    0 -0.35832290968E-01  0.47393512961E-01 -0.17732505900E-01  0.62006459610E-01  0.51100000000E-03 0.  1.
</event>
<event>
 7    1  0.1108957E+005  0.1043930E+01  0.7957747E-01            NaN
         13   -1    0    0    0    0  0.00000000000E+00  0.00000000000E+00  0.74505805969E-08  0.10566000000E+00  0.10566000000E+00 0.  1.
     999900   -1    0    0    0    0 -0.00000000000E+00 -0.00000000000E+00 -0.74505805969E-08  0.93827000000E+00  0.93827000000E+00 0.  1.
     999903    2    1    2    0    0 -0.61293313259E-01  0.49467981532E-02 -0.71342169481E-01  0.95818942779E-01  0.17613165157E-01 0.  0.
         14    1    1    2    0    0  0.72711043714E-02  0.60793747913E-01  0.78812074635E-02  0.61732181034E-01  0.00000000000E+00 0. -1.
     999901    1    1    2    0    0  0.54022208888E-01 -0.65740546067E-01  0.63460962017E-01  0.88637887619E+00  0.88000000000E+00 0. -1.
        -11    1    3    3    0    0 -0.21760285915E-01 -0.14406892907E-02 -0.14159559631E-01  0.26006535307E-01  0.51100000000E-03 0. -1.
         11    1    3    3    0    0 -0.39533027344E-01  0.63874874439E-02 -0.57182609849E-01  0.69812407472E-01  0.51100000000E-03 0.  1.
</event>
<event>
 8    1  0.1108957E+005  0.1043930E+01  0.7957747E-01            NaN
         13   -1    0    0    0    0  0.00000000000E+00  0.00000000000E+00  0.74505805969E-08  0.10566000000E+00  0.10566000000E+00 0. -1.
     999900   -1    0    0    0    0 -0.00000000000E+00 -0.00000000000E+00 -0.74505805969E-08  0.93827000000E+00  0.93827000000E+00 0. -1.
     999902    2    1    2    0    0  0.42925347993E-02  0.16563514902E-02 -0.23327190536E-01  0.10201533902E+01  0.10198762731E+01 0.  0.
     999903    2    3    3    0    0 -0.56970804107E-01  0.36886970799E-01  0.10648205180E+00  0.12782787077E+00  0.19880041622E-01 0.  0.
         14    1    1    2    0    0 -0.42925347993E-02 -0.16563514902E-02  0.23327190536E-01  0.23776609800E-01  0.00000000000E+00 0. -1.
     999901    1    3    3    0    0  0.61263338906E-01 -0.35230619309E-01 -0.12980924234E+00  0.89232551943E+00  0.88000000000E+00 0. -1.
        -11    1    4    4    0    0 -0.52029376561E-01  0.38130920005E-01  0.91182091894E-01  0.11169359019E+00  0.51100000000E-03 0.  1.
         11    1    4    4    0    0 -0.49414275451E-02 -0.12439492057E-02  0.15299959905E-01  0.16134280582E-01  0.51100000000E-03 0. -1.
</event>
<event>
 8    1  0.1108957E+005  0.1043930E+01  0.7957747E-01            NaN
         13   -1    0    0    0    0  0.00000000000E+00  0.00000000000E+00  0.74505805969E-08  0.10566000000E+00  0.10566000000E+00 0. -1.
     999900   -1    0    0    0    0 -0.00000000000E+00 -0.00000000000E+00 -0.74505805969E-08  0.93827000000E+00  0.93827000000E+00 0. -1.
     999902    2    1    2    0    0 -0.11307810625E-01 -0.10399498787E-01 -0.16723342620E-01  0.10212212716E+01  0.10209687553E+01 0.  0.
     999903    2    3    3    0    0  0.36596330734E-01  0.11681857764E+00  0.36696378608E-01  0.12918264446E+00  0.18858948055E-01 0.  0.
         14    1    1    2    0    0  0.11307810625E-01  0.10399498787E-01  0.16723342620E-01  0.22708728378E-01  0.00000000000E+00 0. -1.
     999901    1    3    3    0    0 -0.47904141359E-01 -0.12721807643E+00 -0.53419721228E-01  0.89203862716E+00  0.88000000000E+00 0. -1.
        -11    1    4    4    0    0  0.26814270801E-01  0.87508983300E-01  0.35763255530E-01  0.98265450916E-01  0.51100000000E-03 0.  1.
         11    1    4    4    0    0  0.97820599339E-02  0.29309594342E-01  0.93312307833E-03  0.30917193546E-01  0.51100000000E-03 0. -1.
</event>
<event>
 8    1  0.1108957E+005  0.1043930E+01  0.7957747E-01            NaN
         13   -1    0    0    0    0  0.00000000000E+00  0.00000000000E+00  0.74505805969E-08  0.10566000000E+00  0.10566000000E+00 0.  1.
     999900   -1    0    0    0    0 -0.00000000000E+00 -0.00000000000E+00 -0.74505805969E-08  0.93827000000E+00  0.93827000000E+00 0.  1.
     999902    2    1    2    0    0  0.74941667151E-03 -0.15446274262E-01 -0.17645337253E-01  0.10204671157E+01  0.10201973472E+01 0.  0.
     999903    2    3    3    0    0 -0.34648168674E-01 -0.11146500997E+00 -0.61243428757E-01  0.13346464655E+00  0.20907182349E-01 0.  0.
         14    1    1    2    0    0 -0.74941667151E-03  0.15446274262E-01  0.17645337253E-01  0.23462884322E-01  0.00000000000E+00 0. -1.
     999901    1    3    3    0    0  0.35397585345E-01  0.96018735704E-01  0.43598091504E-01  0.88700246913E+00  0.88000000000E+00 0. -1.
        -11    1    4    4    0    0 -0.18994111786E-01 -0.86410010875E-01 -0.40137780969E-01  0.97153326469E-01  0.51100000000E-03 0. -1.
         11    1    4    4    0    0 -0.15654056888E-01 -0.25054999092E-01 -0.21105647788E-01  0.36311320082E-01  0.51100000000E-03 0.  1.
</event>
<event>
 8    1  0.1108957E+005  0.1043930E+01  0.7957747E-01            NaN
         13   -1    0    0    0    0  0.00000000000E+00  0.00000000000E+00  0.74505805969E-08  0.10566000000E+00  0.10566000000E+00 0.  1.
     999900   -1    0    0    0    0 -0.00000000000E+00 -0.00000000000E+00 -0.74505805969E-08  0.93827000000E+00  0.93827000000E+00 0. -1.
     999902    2    1    2    0    0  0.21691976715E-02 -0.22376545638E-01  0.38634134260E-03  0.10214452391E+01  0.10211977340E+01 0.  0.
     999903    2    3    3    0    0 -0.74255613395E-01 -0.98179183714E-01  0.47701763345E-01  0.13362456979E+00  0.20664442663E-01 0.  0.
         14    1    1    2    0    0 -0.21691976715E-02  0.22376545638E-01 -0.38634134260E-03  0.22484760903E-01  0.00000000000E+00 0.  1.
     999901    1    3    3    0    0  0.76424811067E-01  0.75802638076E-01 -0.47315422003E-01  0.88782066930E+00  0.88000000000E+00 0. -1.
        -11    1    4    4    0    0 -0.46169168765E-01 -0.60675825060E-01  0.40122703457E-01  0.86158228538E-01  0.51100000000E-03 0. -1.
         11    1    4    4    0    0 -0.28086444630E-01 -0.37503358653E-01  0.75790598887E-02  0.47466341254E-01  0.51100000000E-03 0.  1.
</event>
<event>
 8    1  0.1108957E+005  0.1043930E+01  0.7957747E-01            NaN
         13   -1    0    0    0    0  0.00000000000E+00  0.00000000000E+00  0.74505805969E-08  0.10566000000E+00  0.10566000000E+00 0. -1.
     999900   -1    0    0    0    0 -0.00000000000E+00 -0.00000000000E+00 -0.74505805969E-08  0.93827000000E+00  0.93827000000E+00 0.  1.
     999902    2    1    2    0    0  0.14401438686E-02 -0.14285626647E-01 -0.18492224482E-01  0.10205181332E+01  0.10202495501E+01 0.  0.
     999903    2    3    3    0    0 -0.10122653371E-01  0.58217998685E-01 -0.11639259400E+00  0.13205037554E+00  0.19956509229E-01 0.  0.
         14    1    1    2    0    0 -0.14401438686E-02  0.14285626647E-01  0.18492224482E-01  0.23411866850E-01  0.00000000000E+00 0. -1.
     999901    1    3    3    0    0  0.11562797240E-01 -0.72503625332E-01  0.97900369513E-01  0.88846775761E+00  0.88000000000E+00 0. -1.
        -11    1    4    4    0    0 -0.10156543114E-01  0.47467159305E-01 -0.75457124199E-01  0.89723604998E-01  0.51100000000E-03 0. -1.
         11    1    4    4    0    0  0.33889742451E-04  0.10750839380E-01 -0.40935469796E-01  0.42326770540E-01  0.51100000000E-03 0.  1.
</event>
<event>
 8    1  0.1108957E+005  0.1043930E+01  0.7957747E-01            NaN
         13   -1    0    0    0    0  0.00000000000E+00  0.00000000000E+00  0.74505805969E-08  0.10566000000E+00  0.10566000000E+00 0. -1.
     999900   -1    0    0    0    0 -0.00000000000E+00 -0.00000000000E+00 -0.74505805969E-08  0.93827000000E+00  0.93827000000E+00 0.  1.
     999902    2    1    2    0    0 -0.78031325434E-02  0.20270408404E-01 -0.66871924064E-02  0.10212034324E+01  0.10209505147E+01 0.  0.
     999903    2    3    3    0    0 -0.24107618492E-01 -0.23110626702E-01 -0.12612621508E+00  0.13192651789E+00  0.19532169794E-01 0.  0.
         14    1    1    2    0    0  0.78031325434E-02 -0.20270408404E-01  0.66871924064E-02  0.22726567639E-01  0.00000000000E+00 0.  1.
     999901    1    3    3    0    0  0.16304485949E-01  0.43381035106E-01  0.11943902267E+00  0.88927691447E+00  0.88000000000E+00 0. -1.
        -11    1    4    4    0    0 -0.71686513626E-02 -0.11531115753E-01 -0.83707003625E-01  0.84802592943E-01  0.51100000000E-03 0.  1.
         11    1    4    4    0    0 -0.16938967129E-01 -0.11579510949E-01 -0.42419211455E-01  0.47123924950E-01  0.51100000000E-03 0. -1.
</event>
<event>
 8    1  0.1108957E+005  0.1043930E+01  0.7957747E-01            NaN
         13   -1    0    0    0    0  0.00000000000E+00  0.00000000000E+00  0.74505805969E-08  0.10566000000E+00  0.10566000000E+00 0. -1.
     999900   -1    0    0    0    0 -0.00000000000E+00 -0.00000000000E+00 -0.74505805969E-08  0.93827000000E+00  0.93827000000E+00 0.  1.
     999902    2    1    2    0    0 -0.54375738628E-02 -0.17561535649E-01  0.14971745266E-01  0.10202207634E+01  0.10199452329E+01 0.  0.
     999903    2    3    3    0    0  0.10667710464E+00 -0.67099306635E-01 -0.28280611309E-01  0.13067343007E+00  0.19835088698E-01 0.  0.
         14    1    1    2    0    0  0.54375738628E-02  0.17561535649E-01 -0.14971745266E-01  0.23709236601E-01  0.00000000000E+00 0.  1.
     999901    1    3    3    0    0 -0.11211467850E+00  0.49537770985E-01  0.43252356575E-01  0.88954733333E+00  0.88000000000E+00 0.  1.
        -11    1    4    4    0    0  0.50570774139E-01 -0.34352655477E-01 -0.38234572885E-02  0.61256739074E-01  0.51100000000E-03 0. -1.
         11    1    4    4    0    0  0.56106330503E-01 -0.32746651158E-01 -0.24457154021E-01  0.69416690993E-01  0.51100000000E-03 0.  1.
</event>
<event>
 8    1  0.1108957E+005  0.1043930E+01  0.7957747E-01            NaN
         13   -1    0    0    0    0  0.00000000000E+00  0.00000000000E+00  0.74505805969E-08  0.10566000000E+00  0.10566000000E+00 0.  1.
     999900   -1    0    0    0    0 -0.00000000000E+00 -0.00000000000E+00 -0.74505805969E-08  0.93827000000E+00  0.93827000000E+00 0. -1.
     999902    2    1    2    0    0 -0.21488752771E-01 -0.69679154352E-02 -0.86066677155E-02  0.10197557767E+01  0.10194692007E+01 0.  0.
     999903    2    3    3    0    0 -0.82304012427E-01  0.97993280953E-01  0.20414966887E-01  0.13096018504E+00  0.18898825832E-01 0.  0.
         14    1    1    2    0    0  0.21488752771E-01  0.69679154352E-02  0.86066677155E-02  0.24174223263E-01  0.00000000000E+00 0.  1.
     999901    1    3    3    0    0  0.60815259656E-01 -0.10496119639E+00 -0.29021634603E-01  0.88879559170E+00  0.88000000000E+00 0. -1.
        -11    1    4    4    0    0 -0.25662719928E-01  0.44588310543E-01  0.10091177665E-01  0.52428862460E-01  0.51100000000E-03 0.  1.
         11    1    4    4    0    0 -0.56641292499E-01  0.53404970410E-01  0.10323789222E-01  0.78531322575E-01  0.51100000000E-03 0. -1.
</event>
<event>
 8    1  0.1108957E+005  0.1043930E+01  0.7957747E-01            NaN
         13   -1    0    0    0    0  0.00000000000E+00  0.00000000000E+00  0.74505805969E-08  0.10566000000E+00  0.10566000000E+00 0. -1.
     999900   -1    0    0    0    0 -0.00000000000E+00 -0.00000000000E+00 -0.74505805969E-08  0.93827000000E+00  0.93827000000E+00 0.  1.
     999902    2    1    2    0    0 -0.22364889156E-01 -0.49092098739E-02  0.34802697575E-02  0.10207696700E+01  0.10205068928E+01 0.  0.
     999903    2    3    3    0    0  0.21486276846E-01  0.50352283949E-01 -0.11649505975E+00  0.12983149192E+00  0.16973648831E-01 0.  0.
         14    1    1    2    0    0  0.22364889156E-01  0.49092098739E-02 -0.34802697575E-02  0.23160330009E-01  0.00000000000E+00 0. -1.
     999901    1    3    3    0    0 -0.43851166002E-01 -0.55261493823E-01  0.11997532951E+00  0.89093817807E+00  0.88000000000E+00 0. -1.
        -11    1    4    4    0    0  0.20988122797E-01  0.32588520019E-01 -0.69406288783E-01  0.79498471553E-01  0.51100000000E-03 0. -1.
         11    1    4    4    0    0  0.49815404918E-03  0.17763763930E-01 -0.47088770971E-01  0.50333020364E-01  0.51100000000E-03 0.  1.
</event>
<event>
 8    1  0.1108957E+005  0.1043930E+01  0.7957747E-01            NaN
         13   -1    0    0    0    0  0.00000000000E+00  0.00000000000E+00  0.74505805969E-08  0.10566000000E+00  0.10566000000E+00 0.  1.
     999900   -1    0    0    0    0 -0.00000000000E+00 -0.00000000000E+00 -0.74505805969E-08  0.93827000000E+00  0.93827000000E+00 0.  1.
     999902    2    1    2    0    0 -0.16822964497E-01  0.46295861486E-02 -0.17131061280E-01  0.10194776287E+01  0.10191843390E+01 0.  0.
     999903    2    3    3    0    0 -0.89920313657E-01 -0.92503356341E-01 -0.13361917839E-01  0.13111270512E+00  0.19221520599E-01 0.  0.
         14    1    1    2    0    0  0.16822964497E-01 -0.46295861486E-02  0.17131061280E-01  0.24452371315E-01  0.00000000000E+00 0.  1.
     999901    1    3    3    0    0  0.73097349159E-01  0.97132942489E-01 -0.37691434405E-02  0.88836492356E+00  0.88000000000E+00 0. -1.
        -11    1    4    4    0    0 -0.65057784622E-01 -0.59524807210E-01 -0.17143565789E-02  0.88198175450E-01  0.51100000000E-03 0.  1.
         11    1    4    4    0    0 -0.24862529035E-01 -0.32978549131E-01 -0.11647561260E-01  0.42914529674E-01  0.51100000000E-03 0. -1.
</event>
<event>
 8    1  0.1108957E+005  0.1043930E+01  0.7957747E-01            NaN
         13   -1    0    0    0    0  0.00000000000E+00  0.00000000000E+00  0.74505805969E-08  0.10566000000E+00  0.10566000000E+00 0.  1.
     999900   -1    0    0    0    0 -0.00000000000E+00 -0.00000000000E+00 -0.74505805969E-08  0.93827000000E+00  0.93827000000E+00 0. -1.
     999902    2    1    2    0    0 -0.16779916146E-01  0.16282310319E-01 -0.72847569560E-02  0.10194402695E+01  0.10191460721E+01 0.  0.
     999903    2    3    3    0    0 -0.11763746872E+00 -0.97135053589E-02 -0.53498875603E-01  0.13209379090E+00  0.25567824906E-01 0.  0.
         14    1    1    2    0    0  0.16779916146E-01 -0.16282310319E-01  0.72847569560E-02  0.24489730482E-01  0.00000000000E+00 0.  1.
     999901    1    3    3    0    0  0.10085755258E+00  0.25995815678E-01  0.46214118647E-01  0.88734647861E+00  0.88000000000E+00 0.  1.
        -11    1    4    4    0    0 -0.92579563352E-01  0.23911634969E-02 -0.45176586844E-01  0.10304308969E+00  0.51100000000E-03 0.  1.
         11    1    4    4    0    0 -0.25057905372E-01 -0.12104668856E-01 -0.83222887594E-02  0.29050701213E-01  0.51100000000E-03 0. -1.
</event>
<event>
 8    1  0.1108957E+005  0.1043930E+01  0.7957747E-01            NaN
         13   -1    0    0    0    0  0.00000000000E+00  0.00000000000E+00  0.74505805969E-08  0.10566000000E+00  0.10566000000E+00 0. -1.
     999900   -1    0    0    0    0 -0.00000000000E+00 -0.00000000000E+00 -0.74505805969E-08  0.93827000000E+00  0.93827000000E+00 0. -1.
     999902    2    1    2    0    0 -0.82622590224E-02 -0.13200251620E-01 -0.15207238330E-01  0.10221637035E+01  0.10219319278E+01 0.  0.
     999903    2    3    3    0    0  0.96239610139E-01 -0.87121364637E-01 -0.20296196270E-01  0.13288822922E+00  0.19878409057E-01 0.  0.
         14    1    1    2    0    0  0.82622590224E-02  0.13200251620E-01  0.15207238330E-01  0.21766296529E-01  0.00000000000E+00 0. -1.
     999901    1    3    3    0    0 -0.10450186916E+00  0.73921113017E-01  0.50889579409E-02  0.88927547425E+00  0.88000000000E+00 0.  1.
        -11    1    4    4    0    0  0.59953177861E-02 -0.63674317346E-02 -0.66943780592E-02  0.11025599342E-01  0.51100000000E-03 0. -1.
         11    1    4    4    0    0  0.90244292353E-01 -0.80753932903E-01 -0.13601818211E-01  0.12186262988E+00  0.51100000000E-03 0.  1.
</event>
<event>
 8    1  0.1108957E+005  0.1043930E+01  0.7957747E-01            NaN
         13   -1    0    0    0    0  0.00000000000E+00  0.00000000000E+00  0.74505805969E-08  0.10566000000E+00  0.10566000000E+00 0. -1.
     999900   -1    0    0    0    0 -0.00000000000E+00 -0.00000000000E+00 -0.74505805969E-08  0.93827000000E+00  0.93827000000E+00 0. -1.
     999902    2    1    2    0    0  0.65650976153E-02 -0.19966773400E-01  0.10724483980E-01  0.10203336633E+01  0.10200607813E+01 0.  0.
     999903    2    3    3    0    0 -0.10830391170E+00  0.56605509103E-01 -0.34220476942E-01  0.12843778755E+00  0.19781387188E-01 0.  0.
         14    1    1    2    0    0 -0.65650976153E-02  0.19966773400E-01 -0.10724483980E-01  0.23596336651E-01  0.00000000000E+00 0.  1.
     999901    1    3    3    0    0  0.11486900932E+00 -0.76572282503E-01  0.44944960922E-01  0.89189587580E+00  0.88000000000E+00 0. -1.
        -11    1    4    4    0    0 -0.23154918250E-01  0.16837653368E-01 -0.64663996434E-03  0.28641509638E-01  0.51100000000E-03 0.  1.
         11    1    4    4    0    0 -0.85148993450E-01  0.39767855735E-01 -0.33573836977E-01  0.99796277915E-01  0.51100000000E-03 0. -1.
</event>
<event>
 8    1  0.1108957E+005  0.1043930E+01  0.7957747E-01            NaN
         13   -1    0    0    0    0  0.00000000000E+00  0.00000000000E+00  0.74505805969E-08  0.10566000000E+00  0.10566000000E+00 0.  1.
     999900   -1    0    0    0    0 -0.00000000000E+00 -0.00000000000E+00 -0.74505805969E-08  0.93827000000E+00  0.93827000000E+00 0.  1.
     999902    2    1    2    0    0 -0.23762312635E-01 -0.63703505008E-03  0.58320227299E-02  0.10194541792E+01  0.10191603199E+01 0.  0.
     999903    2    3    3    0    0  0.10156338234E+00 -0.74441973925E-01  0.13301416336E-02  0.12750464824E+00  0.19973430666E-01 0.  0.
         14    1    1    2    0    0  0.23762312635E-01  0.63703505008E-03 -0.58320227299E-02  0.24475820814E-01  0.00000000000E+00 0. -1.
     999901    1    3    3    0    0 -0.12532569497E+00  0.73804938875E-01  0.45018810963E-02  0.89194953095E+00  0.88000000000E+00 0. -1.
        -11    1    4    4    0    0  0.59400366262E-01 -0.41389618757E-01 -0.89489861089E-02  0.72951007713E-01  0.51100000000E-03 0.  1.
         11    1    4    4    0    0  0.42163016073E-01 -0.33052355168E-01  0.10279127743E-01  0.54553640526E-01  0.51100000000E-03 0. -1.
</event>
<event>
 8    1  0.1108957E+005  0.1043930E+01  0.7957747E-01            NaN
         13   -1    0    0    0    0  0.00000000000E+00  0.00000000000E+00  0.74505805969E-08  0.10566000000E+00  0.10566000000E+00 0.  1.
     999900   -1    0    0    0    0 -0.00000000000E+00 -0.00000000000E+00 -0.74505805969E-08  0.93827000000E+00  0.93827000000E+00 0.  1.
     999902    2    1    2    0    0 -0.11699411952E-01  0.16344978175E-01 -0.13212620478E-01  0.10198757303E+01  0.10195920249E+01 0.  0.
     999903    2    3    3    0    0 -0.75661994201E-01 -0.93519441245E-01  0.42118208575E-01  0.12902057751E+00  0.20043519409E-01 0.  0.
         14    1    1    2    0    0  0.11699411952E-01 -0.16344978175E-01  0.13212620478E-01  0.24054269714E-01  0.00000000000E+00 0. -1.
     999901    1    3    3    0    0  0.63962582249E-01  0.10986441942E+00 -0.55330829053E-01  0.89085515278E+00  0.88000000000E+00 0.  1.
        -11    1    4    4    0    0 -0.11151969594E-01 -0.66417284204E-02  0.24938940233E-03  0.12992393864E-01  0.51100000000E-03 0. -1.
         11    1    4    4    0    0 -0.64510024608E-01 -0.86877712825E-01  0.41868819172E-01  0.11602818365E+00  0.51100000000E-03 0.  1.
</event>
<event>
 8    1  0.1108957E+005  0.1043930E+01  0.7957747E-01            NaN
         13   -1    0    0    0    0  0.00000000000E+00  0.00000000000E+00  0.74505805969E-08  0.10566000000E+00  0.10566000000E+00 0.  1.
     999900   -1    0    0    0    0 -0.00000000000E+00 -0.00000000000E+00 -0.74505805969E-08  0.93827000000E+00  0.93827000000E+00 0.  1.
     999902    2    1    2    0    0 -0.10822143682E-01  0.21074343818E-01  0.93111283533E-03  0.10202210622E+01  0.10199455387E+01 0.  0.
     999903    2    3    3    0    0 -0.12357213772E+00  0.30835450036E-01 -0.31221238860E-01  0.13239134086E+00  0.18215465339E-01 0.  0.
         14    1    1    2    0    0  0.10822143682E-01 -0.21074343818E-01 -0.93111283533E-03  0.23708937815E-01  0.00000000000E+00 0.  1.
     999901    1    3    3    0    0  0.11274999404E+00 -0.97611062181E-02  0.32152351695E-01  0.88782972133E+00  0.88000000000E+00 0. -1.
        -11    1    4    4    0    0 -0.53681626221E-01  0.17611376485E-01 -0.55606866432E-02  0.56771999545E-01  0.51100000000E-03 0. -1.
         11    1    4    4    0    0 -0.69890511504E-01  0.13224073551E-01 -0.25660552216E-01  0.75619341313E-01  0.51100000000E-03 0.  1.
</event>
<event>
 8    1  0.1108957E+005  0.1043930E+01  0.7957747E-01            NaN
         13   -1    0    0    0    0  0.00000000000E+00  0.00000000000E+00  0.74505805969E-08  0.10566000000E+00  0.10566000000E+00 0.  1.
     999900   -1    0    0    0    0 -0.00000000000E+00 -0.00000000000E+00 -0.74505805969E-08  0.93827000000E+00  0.93827000000E+00 0.  1.
     999902    2    1    2    0    0  0.16239891523E-01  0.15916936756E-01  0.77078859841E-02  0.10199197010E+01  0.10196370442E+01 0.  0.
     999903    2    3    3    0    0  0.96924051916E-01 -0.12662455612E-01  0.86761495334E-01  0.13223947221E+00  0.20127377281E-01 0.  0.
         14    1    1    2    0    0 -0.16239891523E-01 -0.15916936756E-01 -0.77078859841E-02  0.24010299013E-01  0.00000000000E+00 0. -1.
     999901    1    3    3    0    0 -0.80684160393E-01  0.28579392368E-01 -0.79053609350E-01  0.88768022877E+00  0.88000000000E+00 0.  1.
        -11    1    4    4    0    0  0.21424460692E-01 -0.99506466454E-02  0.27237632846E-01  0.36057906882E-01  0.51100000000E-03 0.  1.
         11    1    4    4    0    0  0.75499591224E-01 -0.27118089666E-02  0.59523862488E-01  0.96181565330E-01  0.51100000000E-03 0. -1.
</event>
<event>
 8    1  0.1108957E+005  0.1043930E+01  0.7957747E-01            NaN
         13   -1    0    0    0    0  0.00000000000E+00  0.00000000000E+00  0.74505805969E-08  0.10566000000E+00  0.10566000000E+00 0. -1.
     999900   -1    0    0    0    0 -0.00000000000E+00 -0.00000000000E+00 -0.74505805969E-08  0.93827000000E+00  0.93827000000E+00 0.  1.
     999902    2    1    2    0    0 -0.62130848990E-02 -0.12111699948E-01  0.20398551393E-01  0.10194066112E+01  0.10191115946E+01 0.  0.
     999903    2    3    3    0    0  0.11744934934E+00  0.44941184995E-01 -0.15647883705E-01  0.12820137400E+00  0.19408149347E-01 0.  0.
         14    1    1    2    0    0  0.62130848990E-02  0.12111699948E-01 -0.20398551393E-01  0.24523388806E-01  0.00000000000E+00 0.  1.
     999901    1    3    3    0    0 -0.12366243424E+00 -0.57052884942E-01  0.36046435098E-01  0.89120523720E+00  0.88000000000E+00 0.  1.
        -11    1    4    4    0    0  0.96867910120E-01  0.39880760688E-01 -0.19762301583E-01  0.10660523800E+00  0.51100000000E-03 0.  1.
         11    1    4    4    0    0  0.20581439221E-01  0.50604243069E-02  0.41144178783E-02  0.21596135998E-01  0.51100000000E-03 0. -1.
</event>
<event>
 8    1  0.1108957E+005  0.1043930E+01  0.7957747E-01            NaN
         13   -1    0    0    0    0  0.00000000000E+00  0.00000000000E+00  0.74505805969E-08  0.10566000000E+00  0.10566000000E+00 0. -1.
     999900   -1    0    0    0    0 -0.00000000000E+00 -0.00000000000E+00 -0.74505805969E-08  0.93827000000E+00  0.93827000000E+00 0.  1.
     999902    2    1    2    0    0  0.20434890534E-01 -0.88090593153E-02 -0.87038394206E-02  0.10200356262E+01  0.10197557245E+01 0.  0.
     999903    2    3    3    0    0 -0.77697297872E-02 -0.12490463919E+00 -0.35856658682E-01  0.13154760725E+00  0.18908606749E-01 0.  0.
         14    1    1    2    0    0 -0.20434890534E-01  0.88090593153E-02  0.87038394206E-02  0.23894373769E-01  0.00000000000E+00 0.  1.
     999901    1    3    3    0    0  0.28204620322E-01  0.11609557988E+00  0.27152819261E-01  0.88848801898E+00  0.88000000000E+00 0. -1.
        -11    1    4    4    0    0  0.58135658483E-02 -0.21739964740E-01 -0.65186957942E-02  0.23434549934E-01  0.51100000000E-03 0. -1.
         11    1    4    4    0    0 -0.13583295635E-01 -0.10316467445E+00 -0.29337962888E-01  0.10811305732E+00  0.51100000000E-03 0.  1.
</event>
<event>
 8    1  0.1108957E+005  0.1043930E+01  0.7957747E-01            NaN
         13   -1    0    0    0    0  0.00000000000E+00  0.00000000000E+00  0.74505805969E-08  0.10566000000E+00  0.10566000000E+00 0.  1.
     999900   -1    0    0    0    0 -0.00000000000E+00 -0.00000000000E+00 -0.74505805969E-08  0.93827000000E+00  0.93827000000E+00 0. -1.
     999902    2    1    2    0    0  0.35304734052E-02  0.22796452253E-01 -0.52483832692E-02  0.10202722739E+01  0.10199979534E+01 0.  0.
     999903    2    3    3    0    0  0.72838357915E-01 -0.53483770167E-02 -0.10731074648E+00  0.13122084666E+00  0.19216731462E-01 0.  0.
         14    1    1    2    0    0 -0.35304734052E-02 -0.22796452253E-01  0.52483832692E-02  0.23657726111E-01  0.00000000000E+00 0.  1.
     999901    1    3    3    0    0 -0.69307884509E-01  0.28144829270E-01  0.10206236321E+00  0.88905142723E+00  0.88000000000E+00 0.  1.
        -11    1    4    4    0    0  0.13314826370E-01 -0.15945532932E-02 -0.35008348988E-01  0.37492303495E-01  0.51100000000E-03 0. -1.
         11    1    4    4    0    0  0.59523531545E-01 -0.37538237235E-02 -0.72302397493E-01  0.93728543168E-01  0.51100000000E-03 0.  1.
</event>
<event>
 8    1  0.1108957E+005  0.1043930E+01  0.7957747E-01            NaN
         13   -1    0    0    0    0  0.00000000000E+00  0.00000000000E+00  0.74505805969E-08  0.10566000000E+00  0.10566000000E+00 0. -1.
     999900   -1    0    0    0    0 -0.00000000000E+00 -0.00000000000E+00 -0.74505805969E-08  0.93827000000E+00  0.93827000000E+00 0.  1.
     999902    2    1    2    0    0  0.77404925876E-02  0.13887117534E-01 -0.16729841997E-01  0.10208506830E+01  0.10205897619E+01 0.  0.
     999903    2    3    3    0    0  0.85983399003E-01  0.55369881053E-01  0.79452087395E-01  0.13119134619E+00  0.20965841063E-01 0.  0.
         14    1    1    2    0    0 -0.77404925876E-02 -0.13887117534E-01  0.16729841997E-01  0.23079316978E-01  0.00000000000E+00 0. -1.
     999901    1    3    3    0    0 -0.78242906416E-01 -0.41482763519E-01 -0.96181929392E-01  0.88965933683E+00  0.88000000000E+00 0. -1.
        -11    1    4    4    0    0  0.35874385826E-01  0.31301132406E-01  0.46575652318E-01  0.66605442406E-01  0.51100000000E-03 0. -1.
         11    1    4    4    0    0  0.50109013178E-01  0.24068748647E-01  0.32876435076E-01  0.64585903783E-01  0.51100000000E-03 0.  1.
</event>
<event>
 8    1  0.1108957E+005  0.1043930E+01  0.7957747E-01            NaN
         13   -1    0    0    0    0  0.00000000000E+00  0.00000000000E+00  0.74505805969E-08  0.10566000000E+00  0.10566000000E+00 0. -1.
     999900   -1    0    0    0    0 -0.00000000000E+00 -0.00000000000E+00 -0.74505805969E-08  0.93827000000E+00  0.93827000000E+00 0.  1.
     999902    2    1    2    0    0  0.21431252958E-01 -0.92947115499E-02  0.53539474926E-02  0.10199642949E+01  0.10196826996E+01 0.  0.
     999903    2    3    3    0    0 -0.10605828105E+00 -0.69983334176E-01  0.79255252317E-02  0.12870490327E+00  0.18870933565E-01 0.  0.
         14    1    1    2    0    0 -0.21431252958E-01  0.92947115499E-02 -0.53539474926E-02  0.23965705078E-01  0.00000000000E+00 0. -1.
     999901    1    3    3    0    0  0.12748953401E+00  0.60688622627E-01 -0.25715777391E-02  0.89125939165E+00  0.88000000000E+00 0.  1.
        -11    1    4    4    0    0 -0.58157625656E-01 -0.27269186813E-01  0.22790961969E-02  0.64275760375E-01  0.51100000000E-03 0.  1.
         11    1    4    4    0    0 -0.47900655394E-01 -0.42714147364E-01  0.56464290348E-02  0.64429142894E-01  0.51100000000E-03 0. -1.
</event>
<event>
 8    1  0.1108957E+005  0.1043930E+01  0.7957747E-01            NaN
         13   -1    0    0    0    0  0.00000000000E+00  0.00000000000E+00  0.74505805969E-08  0.10566000000E+00  0.10566000000E+00 0.  1.
     999900   -1    0    0    0    0 -0.00000000000E+00 -0.00000000000E+00 -0.74505805969E-08  0.93827000000E+00  0.93827000000E+00 0. -1.
     999902    2    1    2    0    0  0.11466905252E-01 -0.10053431921E-01 -0.20107458973E-01  0.10186936905E+01  0.10183810504E+01 0.  0.
     999903    2    3    3    0    0 -0.35207119275E-01  0.78176752667E-01  0.90314818642E-01  0.12619376928E+00  0.20419476801E-01 0.  0.
         14    1    1    2    0    0 -0.11466905252E-01  0.10053431921E-01  0.20107458973E-01  0.25236309473E-01  0.00000000000E+00 0.  1.
     999901    1    3    3    0    0  0.46674024527E-01 -0.88230184588E-01 -0.11042227762E+00  0.89249992125E+00  0.88000000000E+00 0. -1.
        -11    1    4    4    0    0 -0.22969055051E-01  0.63281694959E-01  0.79154487975E-01  0.10391267726E+00  0.51100000000E-03 0. -1.
         11    1    4    4    0    0 -0.12238064224E-01  0.14895057708E-01  0.11160330667E-01  0.22281092021E-01  0.51100000000E-03 0.  1.
</event>
<event>
 8    1  0.1108957E+005  0.1043930E+01  0.7957747E-01            NaN
         13   -1    0    0    0    0  0.00000000000E+00  0.00000000000E+00  0.74505805969E-08  0.10566000000E+00  0.10566000000E+00 0. -1.
     999900   -1    0    0    0    0 -0.00000000000E+00 -0.00000000000E+00 -0.74505805969E-08  0.93827000000E+00  0.93827000000E+00 0. -1.
     999902    2    1    2    0    0 -0.14454157159E-01 -0.20248460886E-01  0.20759660563E-02  0.10189653758E+01  0.10186595136E+01 0.  0.
     999903    2    3    3    0    0  0.15600757295E-01 -0.97949157949E-01  0.83861079132E-01  0.13125511847E+00  0.18915717303E-01 0.  0.
         14    1    1    2    0    0  0.14454157159E-01  0.20248460886E-01 -0.20759660563E-02  0.24964624221E-01  0.00000000000E+00 0. -1.
     999901    1    3    3    0    0 -0.30054914454E-01  0.77700697062E-01 -0.81785113075E-01  0.88771025731E+00  0.88000000000E+00 0. -1.
        -11    1    4    4    0    0 -0.30187156800E-02 -0.39627210694E-01  0.33410671721E-01  0.51922659577E-01  0.51100000000E-03 0. -1.
         11    1    4    4    0    0  0.18619472975E-01 -0.58321947255E-01  0.50450407411E-01  0.79332458895E-01  0.51100000000E-03 0.  1.
</event>
<event>
 8    1  0.1108957E+005  0.1043930E+01  0.7957747E-01            NaN
         13   -1    0    0    0    0  0.00000000000E+00  0.00000000000E+00  0.74505805969E-08  0.10566000000E+00  0.10566000000E+00 0. -1.
     999900   -1    0    0    0    0 -0.00000000000E+00 -0.00000000000E+00 -0.74505805969E-08  0.93827000000E+00  0.93827000000E+00 0.  1.
     999902    2    1    2    0    0 -0.22590217851E-01 -0.55111925656E-02 -0.24942853248E-02  0.10205438365E+01  0.10202758497E+01 0.  0.
     999903    2    3    3    0    0 -0.78188160725E-01  0.99548001689E-01 -0.31714454831E-01  0.13207189888E+00  0.20346663394E-01 0.  0.
         14    1    1    2    0    0  0.22590217851E-01  0.55111925656E-02  0.24942853248E-02  0.23386163545E-01  0.00000000000E+00 0.  1.
     999901    1    3    3    0    0  0.55597942874E-01 -0.10505919425E+00  0.29220169506E-01  0.88847193757E+00  0.88000000000E+00 0. -1.
        -11    1    4    4    0    0 -0.50625681291E-01  0.76410778550E-01 -0.17178860562E-01  0.93257391429E-01  0.51100000000E-03 0. -1.
         11    1    4    4    0    0 -0.27562479434E-01  0.23137223139E-01 -0.14535594269E-01  0.38814507454E-01  0.51100000000E-03 0.  1.
</event>
<event>
 8    1  0.1108957E+005  0.1043930E+01  0.7957747E-01            NaN
         13   -1    0    0    0    0  0.00000000000E+00  0.00000000000E+00  0.74505805969E-08  0.10566000000E+00  0.10566000000E+00 0.  1.
     999900   -1    0    0    0    0 -0.00000000000E+00 -0.00000000000E+00 -0.74505805969E-08  0.93827000000E+00  0.93827000000E+00 0.  1.
     999902    2    1    2    0    0  0.45034153300E-02 -0.18853333500E-01 -0.13435322095E-01  0.10203453267E+01  0.10200727175E+01 0.  0.
     999903    2    3    3    0    0  0.25909025562E-01  0.10845354199E+00  0.59367188777E-01  0.12795222596E+00  0.20343565342E-01 0.  0.
         14    1    1    2    0    0 -0.45034153300E-02  0.18853333500E-01  0.13435322095E-01  0.23584673275E-01  0.00000000000E+00 0.  1.
     999901    1    3    3    0    0 -0.21405610232E-01 -0.12730687549E+00 -0.72802510872E-01  0.89239310076E+00  0.88000000000E+00 0. -1.
        -11    1    4    4    0    0  0.10368854397E-01  0.76290464064E-01  0.34167100875E-01  0.84234197045E-01  0.51100000000E-03 0.  1.
         11    1    4    4    0    0  0.15540171164E-01  0.32163077923E-01  0.25200087902E-01  0.43718028919E-01  0.51100000000E-03 0. -1.
</event>
<event>
 8    1  0.1108957E+005  0.1043930E+01  0.7957747E-01            NaN
         13   -1    0    0    0    0  0.00000000000E+00  0.00000000000E+00  0.74505805969E-08  0.10566000000E+00  0.10566000000E+00 0.  1.
     999900   -1    0    0    0    0 -0.00000000000E+00 -0.00000000000E+00 -0.74505805969E-08  0.93827000000E+00  0.93827000000E+00 0.  1.
     999902    2    1    2    0    0 -0.87035041331E-02  0.23519774107E-01 -0.30483090144E-02  0.10186669252E+01  0.10183536133E+01 0.  0.
     999903    2    3    3    0    0  0.44138369427E-01  0.11383422625E+00 -0.44583000639E-01  0.13149496081E+00  0.19921196025E-01 0.  0.
         14    1    1    2    0    0  0.87035041331E-02 -0.23519774107E-01  0.30483090144E-02  0.25263074755E-01  0.00000000000E+00 0.  1.
     999901    1    3    3    0    0 -0.52841873560E-01 -0.90314452144E-01  0.41534691624E-01  0.88717196443E+00  0.88000000000E+00 0. -1.
        -11    1    4    4    0    0  0.17021296296E-01  0.27795407219E-01 -0.49911354205E-02  0.32976988096E-01  0.51100000000E-03 0. -1.
         11    1    4    4    0    0  0.27117073131E-01  0.86038819032E-01 -0.39591865218E-01  0.98517972716E-01  0.51100000000E-03 0.  1.
</event>
<event>
 8    1  0.1108957E+005  0.1043930E+01  0.7957747E-01            NaN
         13   -1    0    0    0    0  0.00000000000E+00  0.00000000000E+00  0.74505805969E-08  0.10566000000E+00  0.10566000000E+00 0. -1.
     999900   -1    0    0    0    0 -0.00000000000E+00 -0.00000000000E+00 -0.74505805969E-08  0.93827000000E+00  0.93827000000E+00 0.  1.
     999902    2    1    2    0    0  0.21131332739E-01  0.74232400742E-02 -0.10039694485E-02  0.10215102393E+01  0.10212641790E+01 0.  0.
     999903    2    3    3    0    0  0.99741972555E-01 -0.50796334878E-01  0.69576488621E-01  0.13328124140E+00  0.19856304123E-01 0.  0.
         14    1    1    2    0    0 -0.21131332739E-01 -0.74232400742E-02  0.10039694485E-02  0.22419760730E-01  0.00000000000E+00 0.  1.
     999901    1    3    3    0    0 -0.78610639816E-01  0.58219574952E-01 -0.70580458070E-01  0.88822899787E+00  0.88000000000E+00 0. -1.
        -11    1    4    4    0    0  0.41479799785E-01 -0.11314033126E-01  0.21738968008E-01  0.48181168384E-01  0.51100000000E-03 0. -1.
         11    1    4    4    0    0  0.58262172770E-01 -0.39482301753E-01  0.47837520613E-01  0.85100073014E-01  0.51100000000E-03 0.  1.
</event>
<event>
 8    1  0.1108957E+005  0.1043930E+01  0.7957747E-01            NaN
         13   -1    0    0    0    0  0.00000000000E+00  0.00000000000E+00  0.74505805969E-08  0.10566000000E+00  0.10566000000E+00 0. -1.
     999900   -1    0    0    0    0 -0.00000000000E+00 -0.00000000000E+00 -0.74505805969E-08  0.93827000000E+00  0.93827000000E+00 0. -1.
     999902    2    1    2    0    0 -0.16960915639E-01  0.10974527291E-01 -0.11660054628E-01  0.10206046965E+01  0.10203381188E+01 0.  0.
     999903    2    3    3    0    0 -0.12756188154E+00 -0.18456741849E-01 -0.26634934546E-01  0.13306708025E+00  0.19614871027E-01 0.  0.
         14    1    1    2    0    0  0.16960915639E-01 -0.10974527291E-01  0.11660054628E-01  0.23325303481E-01  0.00000000000E+00 0. -1.
     999901    1    3    3    0    0  0.11060096591E+00  0.29431269140E-01  0.14974879918E-01  0.88753761627E+00  0.88000000000E+00 0. -1.
        -11    1    4    4    0    0 -0.74281374542E-01 -0.13778696299E-02 -0.18073946475E-01  0.76462734654E-01  0.51100000000E-03 0.  1.
         11    1    4    4    0    0 -0.53280507003E-01 -0.17078872220E-01 -0.85609880703E-02  0.56604345597E-01  0.51100000000E-03 0. -1.
</event>
<event>
 8    1  0.1108957E+005  0.1043930E+01  0.7957747E-01            NaN
         13   -1    0    0    0    0  0.00000000000E+00  0.00000000000E+00  0.74505805969E-08  0.10566000000E+00  0.10566000000E+00 0. -1.
     999900   -1    0    0    0    0 -0.00000000000E+00 -0.00000000000E+00 -0.74505805969E-08  0.93827000000E+00  0.93827000000E+00 0. -1.
     999902    2    1    2    0    0 -0.90795309802E-03  0.31291117078E-03  0.23375746384E-01  0.10205345344E+01  0.10202663319E+01 0.  0.
     999903    2    3    3    0    0 -0.36662870155E-01 -0.69501646691E-01 -0.99526166473E-01  0.12853825257E+00  0.21023311383E-01 0.  0.
         14    1    1    2    0    0  0.90795309802E-03 -0.31291117078E-03 -0.23375746384E-01  0.23395465613E-01  0.00000000000E+00 0.  1.
     999901    1    3    3    0    0  0.35754917057E-01  0.69814557861E-01  0.12290191286E+00  0.89199628181E+00  0.88000000000E+00 0. -1.
        -11    1    4    4    0    0 -0.17801328177E-01 -0.47378192760E-01 -0.50248237225E-01  0.71321293450E-01  0.51100000000E-03 0. -1.
         11    1    4    4    0    0 -0.18861541978E-01 -0.22123453930E-01 -0.49277929248E-01  0.57216959125E-01  0.51100000000E-03 0.  1.
</event>
<event>
 8    1  0.1108957E+005  0.1043930E+01  0.7957747E-01            NaN
         13   -1    0    0    0    0  0.00000000000E+00  0.00000000000E+00  0.74505805969E-08  0.10566000000E+00  0.10566000000E+00 0. -1.
     999900   -1    0    0    0    0 -0.00000000000E+00 -0.00000000000E+00 -0.74505805969E-08  0.93827000000E+00  0.93827000000E+00 0. -1.
     999902    2    1    2    0    0  0.21521336810E-01  0.55529432803E-02  0.93675552437E-02  0.10198104186E+01  0.10195251520E+01 0.  0.
     999903    2    3    3    0    0  0.88366436978E-01 -0.31064686954E-01  0.91744873297E-01  0.13268295265E+00  0.20347043704E-01 0.  0.
         14    1    1    2    0    0 -0.21521336810E-01 -0.55529432803E-02 -0.93675552437E-02  0.24119581431E-01  0.00000000000E+00 0.  1.
     999901    1    3    3    0    0 -0.66845100167E-01  0.36617630234E-01 -0.82377318054E-01  0.88712746592E+00  0.88000000000E+00 0.  1.
        -11    1    4    4    0    0  0.63257443329E-01 -0.18270043886E-01  0.75390071250E-01  0.10009606688E+00  0.51100000000E-03 0. -1.
         11    1    4    4    0    0  0.25108993648E-01 -0.12794643068E-01  0.16354802047E-01  0.32586885771E-01  0.51100000000E-03 0.  1.
</event>
<event>
 8    1  0.1108957E+005  0.1043930E+01  0.7957747E-01            NaN
         13   -1    0    0    0    0  0.00000000000E+00  0.00000000000E+00  0.74505805969E-08  0.10566000000E+00  0.10566000000E+00 0. -1.
     999900   -1    0    0    0    0 -0.00000000000E+00 -0.00000000000E+00 -0.74505805969E-08  0.93827000000E+00  0.93827000000E+00 0.  1.
     999902    2    1    2    0    0 -0.45856769982E-02  0.17081938448E-01  0.15704600505E-01  0.10202771877E+01  0.10200029824E+01 0.  0.
     999903    2    3    3    0    0  0.76581701524E-01  0.66311917295E-02  0.10505921024E+00  0.13197453218E+00  0.21705063380E-01 0.  0.
         14    1    1    2    0    0  0.45856769982E-02 -0.17081938448E-01 -0.15704600505E-01  0.23652812342E-01  0.00000000000E+00 0.  1.
     999901    1    3    3    0    0 -0.81167378522E-01  0.10450746719E-01 -0.89354609736E-01  0.88830265548E+00  0.88000000000E+00 0.  1.
        -11    1    4    4    0    0  0.21112777612E-01  0.22910674150E-02  0.14611739884E-01  0.25782987256E-01  0.51100000000E-03 0. -1.
         11    1    4    4    0    0  0.55468923912E-01  0.43401243144E-02  0.90447470356E-01  0.10619154493E+00  0.51100000000E-03 0.  1.
</event>
<event>
 8    1  0.1108957E+005  0.1043930E+01  0.7957747E-01            NaN
         13   -1    0    0    0    0  0.00000000000E+00  0.00000000000E+00  0.74505805969E-08  0.10566000000E+00  0.10566000000E+00 0. -1.
     999900   -1    0    0    0    0 -0.00000000000E+00 -0.00000000000E+00 -0.74505805969E-08  0.93827000000E+00  0.93827000000E+00 0.  1.
     999902    2    1    2    0    0  0.15371565142E-01  0.15630162242E-01 -0.97238497193E-02  0.10199479184E+01  0.10196659335E+01 0.  0.
     999903    2    3    3    0    0  0.67100187752E-02  0.18103852961E-01  0.12671286360E+00  0.12938847718E+00  0.17676379185E-01 0.  0.
         14    1    1    2    0    0 -0.15371565142E-01 -0.15630162242E-01  0.97238497193E-02  0.23982081644E-01  0.00000000000E+00 0.  1.
     999901    1    3    3    0    0  0.86615463670E-02 -0.24736907197E-02 -0.13643671332E+00  0.89055944118E+00  0.88000000000E+00 0.  1.
        -11    1    4    4    0    0 -0.31158291886E-02  0.14665315382E-01  0.89285912322E-01  0.90537368678E-01  0.51100000000E-03 0. -1.
         11    1    4    4    0    0  0.98258479638E-02  0.34385375789E-02  0.37426951276E-01  0.38851108500E-01  0.51100000000E-03 0.  1.
</event>
<event>
 8    1  0.1108957E+005  0.1043930E+01  0.7957747E-01            NaN
         13   -1    0    0    0    0  0.00000000000E+00  0.00000000000E+00  0.74505805969E-08  0.10566000000E+00  0.10566000000E+00 0. -1.
     999900   -1    0    0    0    0 -0.00000000000E+00 -0.00000000000E+00 -0.74505805969E-08  0.93827000000E+00  0.93827000000E+00 0.  1.
     999902    2    1    2    0    0 -0.57401189939E-02  0.15435336865E-01  0.20263435528E-01  0.10178185962E+01  0.10174836064E+01 0.  0.
     999903    2    3    3    0    0  0.11087092813E+00 -0.55913739455E-01  0.18878959901E-01  0.12726217249E+00  0.20506985498E-01 0.  0.
         14    1    1    2    0    0  0.57401189939E-02 -0.15435336865E-01 -0.20263435528E-01  0.26111403822E-01  0.00000000000E+00 0.  1.
     999901    1    3    3    0    0 -0.11661104713E+00  0.71349076320E-01  0.13844756268E-02  0.89055642369E+00  0.88000000000E+00 0.  1.
        -11    1    4    4    0    0  0.78705075252E-01 -0.48256087338E-01  0.18678452774E-01  0.94192805217E-01  0.51100000000E-03 0.  1.
         11    1    4    4    0    0  0.32165852881E-01 -0.76576521167E-02  0.20050712639E-03  0.33069367270E-01  0.51100000000E-03 0. -1.
</event>
<event>
 8    1  0.1108957E+005  0.1043930E+01  0.7957747E-01            NaN
         13   -1    0    0    0    0  0.00000000000E+00  0.00000000000E+00  0.74505805969E-08  0.10566000000E+00  0.10566000000E+00 0.  1.
     999900   -1    0    0    0    0 -0.00000000000E+00 -0.00000000000E+00 -0.74505805969E-08  0.93827000000E+00  0.93827000000E+00 0.  1.
     999902    2    1    2    0    0  0.87723259129E-02  0.19667572101E-01 -0.10511662406E-01  0.10199662327E+01  0.10196846835E+01 0.  0.
     999903    2    3    3    0    0 -0.30300161915E-02  0.13000080318E+00 -0.19288250427E-01  0.13295453854E+00  0.19886751612E-01 0.  0.
         14    1    1    2    0    0 -0.87723259129E-02 -0.19667572101E-01  0.10511662406E-01  0.23963767250E-01  0.00000000000E+00 0. -1.
     999901    1    3    3    0    0  0.11802342104E-01 -0.11033323108E+00  0.87765880213E-02  0.88701169421E+00  0.88000000000E+00 0. -1.
        -11    1    4    4    0    0 -0.83600396294E-02  0.10443419143E+00 -0.10061378024E-01  0.10525152280E+00  0.51100000000E-03 0. -1.
         11    1    4    4    0    0  0.53300234379E-02  0.25566611748E-01 -0.92268724033E-02  0.27703015747E-01  0.51100000000E-03 0.  1.
</event>
<event>
 8    1  0.1108957E+005  0.1043930E+01  0.7957747E-01            NaN
         13   -1    0    0    0    0  0.00000000000E+00  0.00000000000E+00  0.74505805969E-08  0.10566000000E+00  0.10566000000E+00 0.  1.
     999900   -1    0    0    0    0 -0.00000000000E+00 -0.00000000000E+00 -0.74505805969E-08  0.93827000000E+00  0.93827000000E+00 0.  1.
     999902    2    1    2    0    0 -0.17102452627E-01 -0.11067396846E-01  0.94522545456E-02  0.10214727901E+01  0.10212258980E+01 0.  0.
     999903    2    3    3    0    0 -0.11274329311E+00 -0.27171489449E-01  0.64917800994E-01  0.13440856529E+00  0.20049976471E-01 0.  0.
         14    1    1    2    0    0  0.17102452627E-01  0.11067396846E-01 -0.94522545456E-02  0.22457209862E-01  0.00000000000E+00 0. -1.
     999901    1    3    3    0    0  0.95640840483E-01  0.16104092604E-01 -0.55465546449E-01  0.88706422485E+00  0.88000000000E+00 0. -1.
        -11    1    4    4    0    0 -0.22199341234E-01 -0.47176066447E-02  0.22387719267E-01  0.31883187711E-01  0.51100000000E-03 0.  1.
         11    1    4    4    0    0 -0.90543951876E-01 -0.22453882805E-01  0.42530081727E-01  0.10252537758E+00  0.51100000000E-03 0. -1.
</event>
<event>
 8    1  0.1108957E+005  0.1043930E+01  0.7957747E-01            NaN
         13   -1    0    0    0    0  0.00000000000E+00  0.00000000000E+00  0.74505805969E-08  0.10566000000E+00  0.10566000000E+00 0.  1.
     999900   -1    0    0    0    0 -0.00000000000E+00 -0.00000000000E+00 -0.74505805969E-08  0.93827000000E+00  0.93827000000E+00 0. -1.
     999902    2    1    2    0    0 -0.75037934727E-02 -0.71069161872E-02 -0.21751605956E-01  0.10198479001E+01  0.10195635300E+01 0.  0.
     999903    2    3    3    0    0 -0.57819700694E-01  0.27770426984E-01  0.10929608354E+00  0.12803983974E+00  0.18282567698E-01 0.  0.
         14    1    1    2    0    0  0.75037934727E-02  0.71069161872E-02  0.21751605956E-01  0.24082099905E-01  0.00000000000E+00 0.  1.
     999901    1    3    3    0    0  0.50315907221E-01 -0.34877343171E-01 -0.13104768949E+00  0.89180806035E+00  0.88000000000E+00 0. -1.
        -11    1    4    4    0    0 -0.12224538031E-01  0.14975731863E-01  0.31590748020E-01  0.37039821224E-01  0.51100000000E-03 0. -1.
         11    1    4    4    0    0 -0.45595162663E-01  0.12794695122E-01  0.77705335518E-01  0.91000018519E-01  0.51100000000E-03 0.  1.
</event>
<event>
 8    1  0.1108957E+005  0.1043930E+01  0.7957747E-01            NaN
         13   -1    0    0    0    0  0.00000000000E+00  0.00000000000E+00  0.74505805969E-08  0.10566000000E+00  0.10566000000E+00 0. -1.
     999900   -1    0    0    0    0 -0.00000000000E+00 -0.00000000000E+00 -0.74505805969E-08  0.93827000000E+00  0.93827000000E+00 0.  1.
     999902    2    1    2    0    0  0.49993430944E-02 -0.15799113861E-01 -0.14961614724E-01  0.10216038865E+01  0.10213599001E+01 0.  0.
     999903    2    3    3    0    0  0.22313609866E-01  0.10026382772E+00 -0.79412110539E-01  0.13147790850E+00  0.20722567173E-01 0.  0.
         14    1    1    2    0    0 -0.49993430944E-02  0.15799113861E-01  0.14961614724E-01  0.22326113529E-01  0.00000000000E+00 0.  1.
     999901    1    3    3    0    0 -0.17314266771E-01 -0.11606294158E+00  0.64450495815E-01  0.89012597797E+00  0.88000000000E+00 0. -1.
        -11    1    4    4    0    0  0.19339592164E-01  0.41605039989E-01 -0.38522884324E-01  0.59910540936E-01  0.51100000000E-03 0.  1.
         11    1    4    4    0    0  0.29740177023E-02  0.58658787729E-01 -0.40889226215E-01  0.71567367568E-01  0.51100000000E-03 0. -1.
</event>
<event>
 8    1  0.1108957E+005  0.1043930E+01  0.7957747E-01            NaN
         13   -1    0    0    0    0  0.00000000000E+00  0.00000000000E+00  0.74505805969E-08  0.10566000000E+00  0.10566000000E+00 0.  1.
     999900   -1    0    0    0    0 -0.00000000000E+00 -0.00000000000E+00 -0.74505805969E-08  0.93827000000E+00  0.93827000000E+00 0.  1.
     999902    2    1    2    0    0 -0.17491243719E-01  0.13683522412E-02 -0.16510916551E-01  0.10198379607E+01  0.10195533530E+01 0.  0.
     999903    2    3    3    0    0 -0.10756978386E+00  0.49338298187E-01  0.53476608614E-01  0.13117969518E+00  0.18515903713E-01 0.  0.
         14    1    1    2    0    0  0.17491243719E-01 -0.13683522412E-02  0.16510916551E-01  0.24092039350E-01  0.00000000000E+00 0. -1.
     999901    1    3    3    0    0  0.90078540145E-01 -0.47969945946E-01 -0.69987525165E-01  0.88865826547E+00  0.88000000000E+00 0.  1.
        -11    1    4    4    0    0 -0.73147751086E-01  0.38729979212E-01  0.29333018427E-01  0.87813961702E-01  0.51100000000E-03 0. -1.
         11    1    4    4    0    0 -0.34422032778E-01  0.10608318975E-01  0.24143590188E-01  0.43365733479E-01  0.51100000000E-03 0.  1.
</event>
<event>
 8    1  0.1108957E+005  0.1043930E+01  0.7957747E-01            NaN
         13   -1    0    0    0    0  0.00000000000E+00  0.00000000000E+00  0.74505805969E-08  0.10566000000E+00  0.10566000000E+00 0.  1.
     999900   -1    0    0    0    0 -0.00000000000E+00 -0.00000000000E+00 -0.74505805969E-08  0.93827000000E+00  0.93827000000E+00 0.  1.
     999902    2    1    2    0    0  0.85822693642E-02  0.21171187940E-01 -0.63753907643E-02  0.10202124927E+01  0.10199367677E+01 0.  0.
     999903    2    3    3    0    0  0.74908952839E-01  0.93055791448E-01  0.54449703688E-01  0.13270682099E+00  0.19380365529E-01 0.  0.
         14    1    1    2    0    0 -0.85822693642E-02 -0.21171187940E-01  0.63753907643E-02  0.23717507323E-01  0.00000000000E+00 0.  1.
     999901    1    3    3    0    0 -0.66326683475E-01 -0.71884603508E-01 -0.60825094452E-01  0.88750567169E+00  0.88000000000E+00 0. -1.
        -11    1    4    4    0    0  0.34143568804E-01  0.31936007696E-01  0.28677984839E-01  0.54848699289E-01  0.51100000000E-03 0.  1.
         11    1    4    4    0    0  0.40765384036E-01  0.61119783751E-01  0.25771718849E-01  0.77858121701E-01  0.51100000000E-03 0. -1.
</event>
<event>
 8    1  0.1108957E+005  0.1043930E+01  0.7957747E-01            NaN
         13   -1    0    0    0    0  0.00000000000E+00  0.00000000000E+00  0.74505805969E-08  0.10566000000E+00  0.10566000000E+00 0. -1.
     999900   -1    0    0    0    0 -0.00000000000E+00 -0.00000000000E+00 -0.74505805969E-08  0.93827000000E+00  0.93827000000E+00 0. -1.
     999902    2    1    2    0    0  0.12515531237E-01  0.13153141834E-01 -0.12677464172E-01  0.10217858866E+01  0.10215459051E+01 0.  0.
     999903    2    3    3    0    0  0.94202662862E-01 -0.20331340600E-01 -0.90083843833E-01  0.13398762927E+00  0.23453800894E-01 0.  0.
         14    1    1    2    0    0 -0.12515531237E-01 -0.13153141834E-01  0.12677464172E-01  0.22144113440E-01  0.00000000000E+00 0. -1.
     999901    1    3    3    0    0 -0.81687131626E-01  0.33484482434E-01  0.77406379661E-01  0.88779825729E+00  0.88000000000E+00 0.  1.
        -11    1    4    4    0    0  0.45438351563E-02 -0.27553072624E-02 -0.14359606918E-01  0.15319842945E-01  0.51100000000E-03 0. -1.
         11    1    4    4    0    0  0.89658827706E-01 -0.17576033338E-01 -0.75724236915E-01  0.11866778632E+00  0.51100000000E-03 0.  1.
</event>
<event>
 8    1  0.1108957E+005  0.1043930E+01  0.7957747E-01            NaN
         13   -1    0    0    0    0  0.00000000000E+00  0.00000000000E+00  0.74505805969E-08  0.10566000000E+00  0.10566000000E+00 0. -1.
     999900   -1    0    0    0    0 -0.00000000000E+00 -0.00000000000E+00 -0.74505805969E-08  0.93827000000E+00  0.93827000000E+00 0.  1.
     999902    2    1    2    0    0  0.63716196768E-02 -0.24494318210E-01  0.68469565113E-03  0.10186112723E+01  0.10182965610E+01 0.  0.
     999903    2    3    3    0    0 -0.46434210523E-01  0.10325889585E+00  0.51417207786E-01  0.12637636651E+00  0.22554850406E-01 0.  0.
         14    1    1    2    0    0 -0.63716196768E-02  0.24494318210E-01 -0.68469565113E-03  0.25318727654E-01  0.00000000000E+00 0. -1.
     999901    1    3    3    0    0  0.52805830200E-01 -0.12775321406E+00 -0.50732512134E-01  0.89223490584E+00  0.88000000000E+00 0.  1.
        -11    1    4    4    0    0 -0.44636057332E-02  0.42712462301E-02  0.86993670528E-02  0.10682107873E-01  0.51100000000E-03 0.  1.
         11    1    4    4    0    0 -0.41970604790E-01  0.98987649619E-01  0.42717840733E-01  0.11569425864E+00  0.51100000000E-03 0. -1.
</event>
<event>
 8    1  0.1108957E+005  0.1043930E+01  0.7957747E-01            NaN
         13   -1    0    0    0    0  0.00000000000E+00  0.00000000000E+00  0.74505805969E-08  0.10566000000E+00  0.10566000000E+00 0.  1.
     999900   -1    0    0    0    0 -0.00000000000E+00 -0.00000000000E+00 -0.74505805969E-08  0.93827000000E+00  0.93827000000E+00 0.  1.
     999902    2    1    2    0    0 -0.18099412386E-01  0.21947200429E-02  0.13167394136E-01  0.10214403181E+01  0.10211927035E+01 0.  0.
     999903    2    3    3    0    0  0.46167650509E-01  0.57299148330E-01  0.10751623053E+00  0.13235738813E+00  0.23325822879E-01 0.  0.
         14    1    1    2    0    0  0.18099412386E-01 -0.21947200429E-02 -0.13167394136E-01  0.22489681926E-01  0.00000000000E+00 0.  1.
     999901    1    3    3    0    0 -0.64267062895E-01 -0.55104428287E-01 -0.94348836390E-01  0.88908292994E+00  0.88000000000E+00 0.  1.
        -11    1    4    4    0    0  0.22279527533E-01  0.41985528480E-01  0.78500912661E-01  0.91770454714E-01  0.51100000000E-03 0.  1.
         11    1    4    4    0    0  0.23888122976E-01  0.15313619850E-01  0.29015317866E-01  0.40586933416E-01  0.51100000000E-03 0. -1.
</event>
<event>
 8    1  0.1108957E+005  0.1043930E+01  0.7957747E-01            NaN
         13   -1    0    0    0    0  0.00000000000E+00  0.00000000000E+00  0.74505805969E-08  0.10566000000E+00  0.10566000000E+00 0. -1.
     999900   -1    0    0    0    0 -0.00000000000E+00 -0.00000000000E+00 -0.74505805969E-08  0.93827000000E+00  0.93827000000E+00 0. -1.
     999902    2    1    2    0    0 -0.20181215277E-01  0.69132930434E-02  0.13058008219E-02  0.10225575835E+01  0.10223342073E+01 0.  0.
     999903    2    3    3    0    0  0.15275538508E-01  0.29866065291E-01 -0.12642477216E+00  0.13233339241E+00  0.20089295634E-01 0.  0.
         14    1    1    2    0    0  0.20181215277E-01 -0.69132930434E-02 -0.13058008219E-02  0.21372416488E-01  0.00000000000E+00 0.  1.
     999901    1    3    3    0    0 -0.35456753785E-01 -0.22952772248E-01  0.12773057298E+00  0.89022419110E+00  0.88000000000E+00 0.  1.
        -11    1    4    4    0    0  0.92549068006E-02  0.74932804669E-03 -0.33474944730E-01  0.34742594003E-01  0.51100000000E-03 0.  1.
         11    1    4    4    0    0  0.60206317078E-02  0.29116737245E-01 -0.92949827431E-01  0.97590798410E-01  0.51100000000E-03 0. -1.
</event>
<event>
 8    1  0.1108957E+005  0.1043930E+01  0.7957747E-01            NaN
         13   -1    0    0    0    0  0.00000000000E+00  0.00000000000E+00  0.74505805969E-08  0.10566000000E+00  0.10566000000E+00 0. -1.
     999900   -1    0    0    0    0 -0.00000000000E+00 -0.00000000000E+00 -0.74505805969E-08  0.93827000000E+00  0.93827000000E+00 0. -1.
     999902    2    1    2    0    0  0.93786740772E-02  0.20252647975E-01  0.72743219704E-02  0.10204556515E+01  0.10201856163E+01 0.  0.
     999903    2    3    3    0    0 -0.10835544094E+00  0.65056264448E-01 -0.26712127224E-01  0.13083564014E+00  0.20765545131E-01 0.  0.
         14    1    1    2    0    0 -0.93786740772E-02 -0.20252647975E-01 -0.72743219704E-02  0.23474348501E-01  0.00000000000E+00 0. -1.
     999901    1    3    3    0    0  0.11773411501E+00 -0.44803616474E-01  0.33986449195E-01  0.88962001136E+00  0.88000000000E+00 0.  1.
        -11    1    4    4    0    0 -0.57302319922E-01  0.22535571202E-01 -0.10846567969E-01  0.62524531151E-01  0.51100000000E-03 0.  1.
         11    1    4    4    0    0 -0.51053121014E-01  0.42520693246E-01 -0.15865559255E-01  0.68311108986E-01  0.51100000000E-03 0. -1.
</event>
<event>
 8    1  0.1108957E+005  0.1043930E+01  0.7957747E-01            NaN
         13   -1    0    0    0    0  0.00000000000E+00  0.00000000000E+00  0.74505805969E-08  0.10566000000E+00  0.10566000000E+00 0.  1.
     999900   -1    0    0    0    0 -0.00000000000E+00 -0.00000000000E+00 -0.74505805969E-08  0.93827000000E+00  0.93827000000E+00 0.  1.
     999902    2    1    2    0    0  0.28161169765E-02  0.11607702976E-01 -0.20553367984E-01  0.10201579530E+01  0.10198809435E+01 0.  0.
     999903    2    3    3    0    0 -0.14319614583E-01 -0.35984771225E-01 -0.12510034479E+00  0.13252697829E+00  0.20330976063E-01 0.  0.
         14    1    1    2    0    0 -0.28161169765E-02 -0.11607702976E-01  0.20553367984E-01  0.23772047003E-01  0.00000000000E+00 0.  1.
     999901    1    3    3    0    0  0.17135731559E-01  0.47592474202E-01  0.10454697680E+00  0.88763097470E+00  0.88000000000E+00 0. -1.
        -11    1    4    4    0    0 -0.16008599383E-01 -0.14155078022E-01 -0.52169336069E-01  0.56378561837E-01  0.51100000000E-03 0. -1.
         11    1    4    4    0    0  0.16889848001E-02 -0.21829693203E-01 -0.72931008718E-01  0.76148416455E-01  0.51100000000E-03 0.  1.
</event>
<event>
 8    1  0.1108957E+005  0.1043930E+01  0.7957747E-01            NaN
         13   -1    0    0    0    0  0.00000000000E+00  0.00000000000E+00  0.74505805969E-08  0.10566000000E+00  0.10566000000E+00 0. -1.
     999900   -1    0    0    0    0 -0.00000000000E+00 -0.00000000000E+00 -0.74505805969E-08  0.93827000000E+00  0.93827000000E+00 0. -1.
     999902    2    1    2    0    0  0.37228203486E-02 -0.22105709515E-01  0.57729654921E-02  0.10207815894E+01  0.10205190857E+01 0.  0.
     999903    2    3    3    0    0  0.18441993347E-01 -0.19734606299E-01  0.12809390933E+00  0.13219580876E+00  0.18388051622E-01 0.  0.
         14    1    1    2    0    0 -0.37228203486E-02  0.22105709515E-01 -0.57729654921E-02  0.23148410638E-01  0.00000000000E+00 0. -1.
     999901    1    3    3    0    0 -0.14719172999E-01 -0.23711032163E-02 -0.12232094384E+00  0.88858578060E+00  0.88000000000E+00 0. -1.
        -11    1    4    4    0    0  0.10623920027E-01 -0.33469074771E-03  0.28354769126E-01  0.30285867130E-01  0.51100000000E-03 0.  1.
         11    1    4    4    0    0  0.78180733206E-02 -0.19399915551E-01  0.99739140203E-01  0.10190994163E+00  0.51100000000E-03 0. -1.
</event>
<event>
 8    1  0.1108957E+005  0.1043930E+01  0.7957747E-01            NaN
         13   -1    0    0    0    0  0.00000000000E+00  0.00000000000E+00  0.74505805969E-08  0.10566000000E+00  0.10566000000E+00 0. -1.
     999900   -1    0    0    0    0 -0.00000000000E+00 -0.00000000000E+00 -0.74505805969E-08  0.93827000000E+00  0.93827000000E+00 0.  1.
     999902    2    1    2    0    0  0.41972312129E-02 -0.14809494675E-01 -0.17308759807E-01  0.10207668601E+01  0.10205040185E+01 0.  0.
     999903    2    3    3    0    0  0.10767131402E+00 -0.21277917104E-02  0.69994789346E-01  0.13032336328E+00  0.22074173117E-01 0.  0.
         14    1    1    2    0    0 -0.41972312129E-02  0.14809494675E-01  0.17308759807E-01  0.23163139866E-01  0.00000000000E+00 0.  1.
     999901    1    3    3    0    0 -0.10347408281E+00 -0.12681702965E-01 -0.87303549153E-01  0.89044349686E+00  0.88000000000E+00 0.  1.
        -11    1    4    4    0    0  0.55445148736E-01 -0.97424324198E-02  0.44208714283E-01  0.71580381721E-01  0.51100000000E-03 0.  1.
         11    1    4    4    0    0  0.52226165287E-01  0.76146407095E-02  0.25786075063E-01  0.58742981554E-01  0.51100000000E-03 0. -1.
</event>
<event>
 7    1  0.1108957E+005  0.1043930E+01  0.7957747E-01            NaN
         13   -1    0    0    0    0  0.00000000000E+00  0.00000000000E+00  0.74505805969E-08  0.10566000000E+00  0.10566000000E+00 0. -1.
     999900   -1    0    0    0    0 -0.00000000000E+00 -0.00000000000E+00 -0.74505805969E-08  0.93827000000E+00  0.93827000000E+00 0.  1.
     999902    2    1    2    0    0 -0.72813592965E-02 -0.22466978721E-01  0.11219838910E-02  0.10202859273E+01  0.10200119270E+01 0.  0.
         14    1    1    2    0    0  0.72813592965E-02  0.22466978721E-01 -0.11219838910E-02  0.23644072702E-01  0.00000000000E+00 0. -1.
     999901    1    3    3    0    0 -0.68380019466E-02  0.10664092348E+00 -0.31804329255E-01  0.88703470067E+00  0.88000000000E+00 0. -1.
        -11    1    3    3    0    0 -0.34258673602E-03 -0.63198068444E-01  0.15466555865E-01  0.65066033321E-01  0.51100000000E-03 0. -1.
         11    1    3    3    0    0 -0.10077061389E-03 -0.65909833762E-01  0.17459757281E-01  0.68185193308E-01  0.51100000000E-03 0.  1.
</event>
<event>
 8    1  0.1108957E+005  0.1043930E+01  0.7957747E-01            NaN
         13   -1    0    0    0    0  0.00000000000E+00  0.00000000000E+00  0.74505805969E-08  0.10566000000E+00  0.10566000000E+00 0.  1.
     999900   -1    0    0    0    0 -0.00000000000E+00 -0.00000000000E+00 -0.74505805969E-08  0.93827000000E+00  0.93827000000E+00 0.  1.
     999902    2    1    2    0    0  0.20577580162E-01 -0.10215940529E-01  0.31517602366E-02  0.10207408681E+01  0.10204774294E+01 0.  0.
     999903    2    3    3    0    0  0.75164514228E-01 -0.71432143421E-01  0.81633075085E-01  0.13344921725E+00  0.19811090935E-01 0.  0.
         14    1    1    2    0    0 -0.20577580162E-01  0.10215940529E-01 -0.31517602366E-02  0.23189131911E-01  0.00000000000E+00 0.  1.
     999901    1    3    3    0    0 -0.54586934066E-01  0.61216202892E-01 -0.78481314848E-01  0.88729165084E+00  0.88000000000E+00 0.  1.
        -11    1    4    4    0    0  0.33234358092E-01 -0.36601880942E-01  0.50499522015E-01  0.70673071894E-01  0.51100000000E-03 0. -1.
         11    1    4    4    0    0  0.41930156137E-01 -0.34830262479E-01  0.31133553070E-01  0.62776145356E-01  0.51100000000E-03 0.  1.
</event>
<event>
 8    1  0.1108957E+005  0.1043930E+01  0.7957747E-01            NaN
         13   -1    0    0    0    0  0.00000000000E+00  0.00000000000E+00  0.74505805969E-08  0.10566000000E+00  0.10566000000E+00 0. -1.
     999900   -1    0    0    0    0 -0.00000000000E+00 -0.00000000000E+00 -0.74505805969E-08  0.93827000000E+00  0.93827000000E+00 0. -1.
     999902    2    1    2    0    0  0.91505816864E-02 -0.31031722434E-01  0.72926839218E-02  0.10107654982E+01  0.10102212669E+01 0.  0.
     999903    2    3    3    0    0  0.81876406866E-01  0.82849685706E-01  0.23663875785E-01  0.12030155354E+00  0.18565245628E-01 0.  0.
         14    1    1    2    0    0 -0.91505816864E-02  0.31031722434E-01 -0.72926839218E-02  0.33164501823E-01  0.00000000000E+00 0. -1.
     999901    1    3    3    0    0 -0.72725825179E-01 -0.11388140814E+00 -0.16371191863E-01  0.89046394463E+00  0.88000000000E+00 0. -1.
        -11    1    4    4    0    0  0.17933704460E-01  0.18167902763E-01  0.13211269746E-01  0.28748725463E-01  0.51100000000E-03 0.  1.
         11    1    4    4    0    0  0.63942702406E-01  0.64681782943E-01  0.10452606038E-01  0.91552828081E-01  0.51100000000E-03 0. -1.
</event>
<event>
 8    1  0.1108957E+005  0.1043930E+01  0.7957747E-01            NaN
         13   -1    0    0    0    0  0.00000000000E+00  0.00000000000E+00  0.74505805969E-08  0.10566000000E+00  0.10566000000E+00 0.  1.
     999900   -1    0    0    0    0 -0.00000000000E+00 -0.00000000000E+00 -0.74505805969E-08  0.93827000000E+00  0.93827000000E+00 0.  1.
     999902    2    1    2    0    0  0.86728358626E-02  0.17172662147E-01  0.14715589589E-01  0.10197087906E+01  0.10194210860E+01 0.  0.
     999903    2    3    3    0    0 -0.30845017690E-01 -0.12228220741E+00  0.51434165009E-02  0.12780019222E+00  0.20051958300E-01 0.  0.
         14    1    1    2    0    0 -0.86728358626E-02 -0.17172662147E-01 -0.14715589589E-01  0.24221209385E-01  0.00000000000E+00 0. -1.
     999901    1    3    3    0    0  0.39517853553E-01  0.13945486956E+00  0.95721730879E-02  0.89190859840E+00  0.88000000000E+00 0.  1.
        -11    1    4    4    0    0 -0.25690297331E-01 -0.10851534576E+00 -0.18090237412E-02  0.11153073716E+00  0.51100000000E-03 0.  1.
         11    1    4    4    0    0 -0.51547203597E-02 -0.13766861653E-01  0.69524402421E-02  0.16269455064E-01  0.51100000000E-03 0. -1.
</event>
<event>
 8    1  0.1108957E+005  0.1043930E+01  0.7957747E-01            NaN
         13   -1    0    0    0    0  0.00000000000E+00  0.00000000000E+00  0.74505805969E-08  0.10566000000E+00  0.10566000000E+00 0.  1.
     999900   -1    0    0    0    0 -0.00000000000E+00 -0.00000000000E+00 -0.74505805969E-08  0.93827000000E+00  0.93827000000E+00 0.  1.
     999902    2    1    2    0    0  0.21952660004E-02 -0.36538107813E-02 -0.24930308686E-01  0.10186379100E+01  0.10183238688E+01 0.  0.
     999903    2    3    3    0    0 -0.79228247569E-01 -0.87551121652E-01  0.45432120527E-01  0.12812153239E+00  0.20217204794E-01 0.  0.
         14    1    1    2    0    0 -0.21952660004E-02  0.36538107813E-02  0.24930308686E-01  0.25292090013E-01  0.00000000000E+00 0.  1.
     999901    1    3    3    0    0  0.81423513570E-01  0.83897310871E-01 -0.70362429213E-01  0.89051637760E+00  0.88000000000E+00 0.  1.
        -11    1    4    4    0    0 -0.46641274395E-01 -0.36800832443E-01  0.20380539497E-01  0.62811919704E-01  0.51100000000E-03 0. -1.
         11    1    4    4    0    0 -0.32586973174E-01 -0.50750289209E-01  0.25051581030E-01  0.65309612681E-01  0.51100000000E-03 0.  1.
</event>
<event>
 8    1  0.1108957E+005  0.1043930E+01  0.7957747E-01            NaN
         13   -1    0    0    0    0  0.00000000000E+00  0.00000000000E+00  0.74505805969E-08  0.10566000000E+00  0.10566000000E+00 0. -1.
     999900   -1    0    0    0    0 -0.00000000000E+00 -0.00000000000E+00 -0.74505805969E-08  0.93827000000E+00  0.93827000000E+00 0.  1.
     999902    2    1    2    0    0 -0.22557200515E-02 -0.52201881651E-02 -0.22475717613E-01  0.10207460288E+01  0.10204827087E+01 0.  0.
     999903    2    3    3    0    0  0.11690993254E+00 -0.55081342626E-01  0.56779633530E-02  0.13087007273E+00  0.19820444899E-01 0.  0.
         14    1    1    2    0    0  0.22557200515E-02  0.52201881651E-02  0.22475717613E-01  0.23183971180E-01  0.00000000000E+00 0. -1.
     999901    1    3    3    0    0 -0.11916565259E+00  0.49861154460E-01 -0.28153680966E-01  0.88987595609E+00  0.88000000000E+00 0.  1.
        -11    1    4    4    0    0  0.26702617670E-01 -0.17607830711E-01 -0.58150433272E-02  0.32513710072E-01  0.51100000000E-03 0.  1.
         11    1    4    4    0    0  0.90207314869E-01 -0.37473511915E-01  0.11493006680E-01  0.98356362654E-01  0.51100000000E-03 0. -1.
</event>
<event>
 8    1  0.1108957E+005  0.1043930E+01  0.7957747E-01            NaN
         13   -1    0    0    0    0  0.00000000000E+00  0.00000000000E+00  0.74505805969E-08  0.10566000000E+00  0.10566000000E+00 0. -1.
     999900   -1    0    0    0    0 -0.00000000000E+00 -0.00000000000E+00 -0.74505805969E-08  0.93827000000E+00  0.93827000000E+00 0.  1.
     999902    2    1    2    0    0  0.72269736045E-02  0.18868130158E-01  0.12321576808E-01  0.10202644821E+01  0.10199899787E+01 0.  0.
     999903    2    3    3    0    0  0.10061682092E+00 -0.34742565787E-01 -0.71360132111E-01  0.12975990674E+00  0.20361100490E-01 0.  0.
         14    1    1    2    0    0 -0.72269736045E-02 -0.18868130158E-01 -0.12321576808E-01  0.23665517914E-01  0.00000000000E+00 0. -1.
     999901    1    3    3    0    0 -0.93389847315E-01  0.53610695945E-01  0.83681708919E-01  0.89050457534E+00  0.88000000000E+00 0. -1.
        -11    1    4    4    0    0  0.39458501838E-01 -0.13922377185E-01 -0.40216350120E-01  0.58038107238E-01  0.51100000000E-03 0. -1.
         11    1    4    4    0    0  0.61158319081E-01 -0.20820188603E-01 -0.31143781991E-01  0.71721799504E-01  0.51100000000E-03 0.  1.
</event>
<event>
 7    1  0.1630699E+005  0.1043930E+01  0.7957747E-01            NaN
         13   -1    0    0    0    0  0.00000000000E+00  0.00000000000E+00  0.74505805969E-08  0.10566000000E+00  0.10566000000E+00 0.  1.
     999900   -1    0    0    0    0 -0.00000000000E+00 -0.00000000000E+00 -0.74505805969E-08  0.93827000000E+00  0.93827000000E+00 0. -1.
     999903    2    1    2    0    0 -0.45881827733E-02  0.92255613234E-01  0.11091490413E-01  0.94512072499E-01  0.16654161463E-01 0.  0.
         14    1    1    2    0    0  0.32085098567E-01  0.48083702126E-01 -0.12633160987E-02  0.57819477063E-01  0.00000000000E+00 0.  1.
     999901    1    1    2    0    0 -0.27496915794E-01 -0.14033931536E+00 -0.98281743145E-02  0.89159845044E+00  0.88000000000E+00 0.  1.
        -11    1    3    3    0    0  0.53154162648E-02  0.52416757901E-01  0.85666642678E-02  0.53379949575E-01  0.51100000000E-03 0.  1.
         11    1    3    3    0    0 -0.99035990382E-02  0.39838855333E-01  0.25248261454E-02  0.41132122924E-01  0.51100000000E-03 0. -1.
</event>
<event>
 8    1  0.1108957E+005  0.1043930E+01  0.7957747E-01            NaN
         13   -1    0    0    0    0  0.00000000000E+00  0.00000000000E+00  0.74505805969E-08  0.10566000000E+00  0.10566000000E+00 0.  1.
     999900   -1    0    0    0    0 -0.00000000000E+00 -0.00000000000E+00 -0.74505805969E-08  0.93827000000E+00  0.93827000000E+00 0.  1.
     999902    2    1    2    0    0 -0.96806999119E-02 -0.76732334069E-02  0.21473934771E-01  0.10191565397E+01  0.10188554009E+01 0.  0.
     999903    2    3    3    0    0  0.50423968887E-01  0.32877704674E-01  0.11412938173E+00  0.13132661135E+00  0.24446737438E-01 0.  0.
         14    1    1    2    0    0  0.96806999119E-02  0.76732334069E-02 -0.21473934771E-01  0.24773460320E-01  0.00000000000E+00 0. -1.
     999901    1    3    3    0    0 -0.60104668799E-01 -0.40550938081E-01 -0.92655446959E-01  0.88782992833E+00  0.88000000000E+00 0.  1.
        -11    1    4    4    0    0  0.31243820349E-01  0.94176206349E-02  0.75310812251E-01  0.82078300734E-01  0.51100000000E-03 0.  1.
         11    1    4    4    0    0  0.19180148537E-01  0.23460084039E-01  0.38818569478E-01  0.49248310614E-01  0.51100000000E-03 0. -1.
</event>
<event>
 8    1  0.1108957E+005  0.1043930E+01  0.7957747E-01            NaN
         13   -1    0    0    0    0  0.00000000000E+00  0.00000000000E+00  0.74505805969E-08  0.10566000000E+00  0.10566000000E+00 0. -1.
     999900   -1    0    0    0    0 -0.00000000000E+00 -0.00000000000E+00 -0.74505805969E-08  0.93827000000E+00  0.93827000000E+00 0. -1.
     999902    2    1    2    0    0  0.23317342772E-01 -0.47346571125E-02 -0.10500778865E-02  0.10201136586E+01  0.10198356036E+01 0.  0.
     999903    2    3    3    0    0 -0.90407468334E-01  0.69589653142E-01  0.56596085043E-01  0.12782417879E+00  0.10939546923E-01 0.  0.
         14    1    1    2    0    0 -0.23317342772E-01  0.47346571125E-02  0.10500778865E-02  0.23816341354E-01  0.00000000000E+00 0.  1.
     999901    1    3    3    0    0  0.11372481111E+00 -0.74324310254E-01 -0.57646162930E-01  0.89228947985E+00  0.88000000000E+00 0.  1.
        -11    1    4    4    0    0 -0.64721102857E-01  0.55145895142E-01  0.44433173459E-01  0.95939871434E-01  0.51100000000E-03 0.  1.
         11    1    4    4    0    0 -0.25686365477E-01  0.14443757999E-01  0.12162911584E-01  0.31884307359E-01  0.51100000000E-03 0. -1.
</event>
<event>
 8    1  0.1108957E+005  0.1043930E+01  0.7957747E-01            NaN
         13   -1    0    0    0    0  0.00000000000E+00  0.00000000000E+00  0.74505805969E-08  0.10566000000E+00  0.10566000000E+00 0. -1.
     999900   -1    0    0    0    0 -0.00000000000E+00 -0.00000000000E+00 -0.74505805969E-08  0.93827000000E+00  0.93827000000E+00 0. -1.
     999902    2    1    2    0    0  0.30177853550E-02 -0.23459730319E-01 -0.28162065640E-02  0.10201099036E+01  0.10198317598E+01 0.  0.
     999903    2    3    3    0    0 -0.81210996021E-01  0.86432012251E-01 -0.45390497831E-01  0.12826728685E+00  0.18068784312E-01 0.  0.
         14    1    1    2    0    0 -0.30177853550E-02  0.23459730319E-01  0.28162065640E-02  0.23820096442E-01  0.00000000000E+00 0.  1.
     999901    1    3    3    0    0  0.84228781375E-01 -0.10989174257E+00  0.42574291267E-01  0.89184261671E+00  0.88000000000E+00 0. -1.
        -11    1    4    4    0    0 -0.43334559776E-01  0.34962066761E-01 -0.16062836601E-01  0.57952618783E-01  0.51100000000E-03 0. -1.
         11    1    4    4    0    0 -0.37876436245E-01  0.51469945490E-01 -0.29327661230E-01  0.70314668068E-01  0.51100000000E-03 0.  1.
</event>
<event>
 8    1  0.1108957E+005  0.1043930E+01  0.7957747E-01            NaN
         13   -1    0    0    0    0  0.00000000000E+00  0.00000000000E+00  0.74505805969E-08  0.10566000000E+00  0.10566000000E+00 0.  1.
     999900   -1    0    0    0    0 -0.00000000000E+00 -0.00000000000E+00 -0.74505805969E-08  0.93827000000E+00  0.93827000000E+00 0. -1.
     999902    2    1    2    0    0  0.50519306978E-02 -0.14231684488E-01 -0.17806349130E-01  0.10205820040E+01  0.10203149014E+01 0.  0.
     999903    2    3    3    0    0 -0.66227031669E-01 -0.77850016730E-01 -0.82833659780E-01  0.13302550790E+00  0.19690752396E-01 0.  0.
         14    1    1    2    0    0 -0.50519306978E-02  0.14231684488E-01  0.17806349130E-01  0.23347995984E-01  0.00000000000E+00 0.  1.
     999901    1    3    3    0    0  0.71278962367E-01  0.63618332243E-01  0.65027310650E-01  0.88755649612E+00  0.88000000000E+00 0.  1.
        -11    1    4    4    0    0 -0.62879157606E-01 -0.66249374380E-01 -0.67892058189E-01  0.11380843885E+00  0.51100000000E-03 0. -1.
         11    1    4    4    0    0 -0.33478740627E-02 -0.11600642351E-01 -0.14941601591E-01  0.19217069048E-01  0.51100000000E-03 0.  1.
</event>
<event>
 8    1  0.1108957E+005  0.1043930E+01  0.7957747E-01            NaN
         13   -1    0    0    0    0  0.00000000000E+00  0.00000000000E+00  0.74505805969E-08  0.10566000000E+00  0.10566000000E+00 0. -1.
     999900   -1    0    0    0    0 -0.00000000000E+00 -0.00000000000E+00 -0.74505805969E-08  0.93827000000E+00  0.93827000000E+00 0. -1.
     999902    2    1    2    0    0 -0.41399262930E-02 -0.21391702762E-01 -0.10330253343E-01  0.10198165583E+01  0.10195314387E+01 0.  0.
     999903    2    3    3    0    0 -0.33489660014E-01  0.11467120710E+00  0.40034333492E-01  0.12745390000E+00  0.19253719177E-01 0.  0.
         14    1    1    2    0    0  0.41399262930E-02  0.21391702762E-01  0.10330253343E-01  0.24113441706E-01  0.00000000000E+00 0.  1.
     999901    1    3    3    0    0  0.29349733721E-01 -0.13606290986E+00 -0.50364586836E-01  0.89236265829E+00  0.88000000000E+00 0.  1.
        -11    1    4    4    0    0 -0.60071278521E-02  0.54685167428E-01  0.17779023750E-01  0.57817885885E-01  0.51100000000E-03 0.  1.
         11    1    4    4    0    0 -0.27482532162E-01  0.59986039670E-01  0.22255309742E-01  0.69636014117E-01  0.51100000000E-03 0. -1.
</event>
<event>
 8    1  0.1108957E+005  0.1043930E+01  0.7957747E-01            NaN
         13   -1    0    0    0    0  0.00000000000E+00  0.00000000000E+00  0.74505805969E-08  0.10566000000E+00  0.10566000000E+00 0. -1.
     999900   -1    0    0    0    0 -0.00000000000E+00 -0.00000000000E+00 -0.74505805969E-08  0.93827000000E+00  0.93827000000E+00 0.  1.
     999902    2    1    2    0    0 -0.37201037809E-02  0.14777004388E-01 -0.17925548307E-01  0.10204029026E+01  0.10201316382E+01 0.  0.
     999903    2    3    3    0    0 -0.10129051698E+00  0.42086787286E-01  0.67378515264E-01  0.13049133785E+00  0.21378925151E-01 0.  0.
         14    1    1    2    0    0  0.37201037809E-02 -0.14777004388E-01  0.17925548307E-01  0.23527097419E-01  0.00000000000E+00 0. -1.
     999901    1    3    3    0    0  0.97570413204E-01 -0.27309782898E-01 -0.85304063571E-01  0.88991156473E+00  0.88000000000E+00 0.  1.
        -11    1    4    4    0    0 -0.91431387818E-01  0.40116048973E-01  0.53294605808E-01  0.11317938060E+00  0.51100000000E-03 0.  1.
         11    1    4    4    0    0 -0.98591291661E-02  0.19707383128E-02  0.14083909456E-01  0.17311957254E-01  0.51100000000E-03 0. -1.
</event>
<event>
 8    1  0.1108957E+005  0.1043930E+01  0.7957747E-01            NaN
         13   -1    0    0    0    0  0.00000000000E+00  0.00000000000E+00  0.74505805969E-08  0.10566000000E+00  0.10566000000E+00 0. -1.
     999900   -1    0    0    0    0 -0.00000000000E+00 -0.00000000000E+00 -0.74505805969E-08  0.93827000000E+00  0.93827000000E+00 0.  1.
     999902    2    1    2    0    0  0.63461924321E-02  0.21942716209E-01 -0.78955056795E-02  0.10197619226E+01  0.10194754940E+01 0.  0.
     999903    2    3    3    0    0  0.70501828345E-01 -0.87059299593E-01  0.59320944593E-01  0.12818161989E+00  0.19019036926E-01 0.  0.
         14    1    1    2    0    0 -0.63461924321E-02 -0.21942716209E-01  0.78955056795E-02  0.24168077353E-01  0.00000000000E+00 0. -1.
     999901    1    3    3    0    0 -0.64155635913E-01  0.10900201580E+00 -0.67216450273E-01  0.89158030275E+00  0.88000000000E+00 0.  1.
        -11    1    4    4    0    0  0.44073333460E-01 -0.54116639867E-01  0.26363985260E-01  0.74608245339E-01  0.51100000000E-03 0.  1.
         11    1    4    4    0    0  0.26428494885E-01 -0.32942659727E-01  0.32956959334E-01  0.53573374556E-01  0.51100000000E-03 0. -1.
</event>
<event>
 8    1  0.1108957E+005  0.1043930E+01  0.7957747E-01            NaN
         13   -1    0    0    0    0  0.00000000000E+00  0.00000000000E+00  0.74505805969E-08  0.10566000000E+00  0.10566000000E+00 0.  1.
     999900   -1    0    0    0    0 -0.00000000000E+00 -0.00000000000E+00 -0.74505805969E-08  0.93827000000E+00  0.93827000000E+00 0.  1.
     999902    2    1    2    0    0 -0.88812865056E-02  0.15775910495E-01 -0.52558540433E-03  0.10258183230E+01  0.10256584222E+01 0.  0.
     999903    2    3    3    0    0 -0.22498686932E-01  0.10639746989E+00  0.80970068285E-01  0.13731438823E+00  0.21736530192E-01 0.  0.
         14    1    1    2    0    0  0.88812865056E-02 -0.15775910495E-01  0.52558540433E-03  0.18111676951E-01  0.00000000000E+00 0. -1.
     999901    1    3    3    0    0  0.13617400427E-01 -0.90621559391E-01 -0.81495653690E-01  0.88850393482E+00  0.88000000000E+00 0. -1.
        -11    1    4    4    0    0 -0.64053520356E-02  0.30142245872E-01  0.35782631144E-01  0.47225431004E-01  0.51100000000E-03 0.  1.
         11    1    4    4    0    0 -0.16093334897E-01  0.76255224014E-01  0.45187437141E-01  0.90088957225E-01  0.51100000000E-03 0. -1.
</event>
<event>
 8    1  0.1108957E+005  0.1043930E+01  0.7957747E-01            NaN
         13   -1    0    0    0    0  0.00000000000E+00  0.00000000000E+00  0.74505805969E-08  0.10566000000E+00  0.10566000000E+00 0. -1.
     999900   -1    0    0    0    0 -0.00000000000E+00 -0.00000000000E+00 -0.74505805969E-08  0.93827000000E+00  0.93827000000E+00 0. -1.
     999902    2    1    2    0    0  0.20142228729E-01 -0.42063516479E-02  0.11466937438E-01  0.10203738240E+01  0.10201018809E+01 0.  0.
     999903    2    3    3    0    0 -0.10509201533E+00  0.49358283725E-01  0.50106041569E-01  0.12905695197E+00  0.25778083556E-01 0.  0.
         14    1    1    2    0    0 -0.20142228729E-01  0.42063516479E-02 -0.11466937438E-01  0.23556175975E-01  0.00000000000E+00 0. -1.
     999901    1    3    3    0    0  0.12523424405E+00 -0.53564635373E-01 -0.38639104131E-01  0.89131687206E+00  0.88000000000E+00 0.  1.
        -11    1    4    4    0    0 -0.32310107533E-01  0.27523845693E-01  0.23674802963E-01  0.48603112522E-01  0.51100000000E-03 0. -1.
         11    1    4    4    0    0 -0.72781907794E-01  0.21834438033E-01  0.26431238606E-01  0.80453839446E-01  0.51100000000E-03 0.  1.
</event>
<event>
 8    1  0.1108957E+005  0.1043930E+01  0.7957747E-01            NaN
         13   -1    0    0    0    0  0.00000000000E+00  0.00000000000E+00  0.74505805969E-08  0.10566000000E+00  0.10566000000E+00 0. -1.
     999900   -1    0    0    0    0 -0.00000000000E+00 -0.00000000000E+00 -0.74505805969E-08  0.93827000000E+00  0.93827000000E+00 0. -1.
     999902    2    1    2    0    0  0.20856252555E-01  0.20777621238E-02  0.97699562882E-02  0.10208052857E+01  0.10205433253E+01 0.  0.
     999903    2    3    3    0    0 -0.42302762269E-02 -0.57197994609E-01  0.11697250274E+00  0.13196596656E+00  0.21046237381E-01 0.  0.
         14    1    1    2    0    0 -0.20856252555E-01 -0.20777621238E-02 -0.97699562882E-02  0.23124714310E-01  0.00000000000E+00 0.  1.
     999901    1    3    3    0    0  0.25086528782E-01  0.59275756732E-01 -0.10720254646E+00  0.88883931913E+00  0.88000000000E+00 0. -1.
        -11    1    4    4    0    0  0.81375604008E-02 -0.17152407650E-01  0.41389787812E-01  0.45539001236E-01  0.51100000000E-03 0.  1.
         11    1    4    4    0    0 -0.12367836628E-01 -0.40045586959E-01  0.75582714932E-01  0.86426965325E-01  0.51100000000E-03 0. -1.
</event>
<event>
 8    1  0.1108957E+005  0.1043930E+01  0.7957747E-01            NaN
         13   -1    0    0    0    0  0.00000000000E+00  0.00000000000E+00  0.74505805969E-08  0.10566000000E+00  0.10566000000E+00 0. -1.
     999900   -1    0    0    0    0 -0.00000000000E+00 -0.00000000000E+00 -0.74505805969E-08  0.93827000000E+00  0.93827000000E+00 0. -1.
     999902    2    1    2    0    0  0.14337222866E-01 -0.90423494685E-02  0.16579896000E-01  0.10202189689E+01  0.10199433962E+01 0.  0.
     999903    2    3    3    0    0  0.33412203490E-01  0.73657452598E-01 -0.98282133593E-01  0.12870542556E+00  0.19076507040E-01 0.  0.
         14    1    1    2    0    0 -0.14337222866E-01  0.90423494685E-02 -0.16579896000E-01  0.23711031078E-01  0.00000000000E+00 0.  1.
     999901    1    3    3    0    0 -0.19074980624E-01 -0.82699802067E-01  0.11486202959E+00  0.89151354336E+00  0.88000000000E+00 0.  1.
        -11    1    4    4    0    0  0.18113593214E-01  0.33490317458E-01 -0.32173546127E-01  0.49850795519E-01  0.51100000000E-03 0.  1.
         11    1    4    4    0    0  0.15298610276E-01  0.40167135141E-01 -0.66108587466E-01  0.78854630045E-01  0.51100000000E-03 0. -1.
</event>
<event>
 8    1  0.1108957E+005  0.1043930E+01  0.7957747E-01            NaN
         13   -1    0    0    0    0  0.00000000000E+00  0.00000000000E+00  0.74505805969E-08  0.10566000000E+00  0.10566000000E+00 0. -1.
     999900   -1    0    0    0    0 -0.00000000000E+00 -0.00000000000E+00 -0.74505805969E-08  0.93827000000E+00  0.93827000000E+00 0.  1.
     999902    2    1    2    0    0  0.39567409110E-03 -0.48391168571E-02  0.22698331091E-01  0.10207181960E+01  0.10204542360E+01 0.  0.
     999903    2    3    3    0    0 -0.14599503829E-01  0.10811025111E+00 -0.66010093608E-01  0.12894939206E+00  0.19226059097E-01 0.  0.
         14    1    1    2    0    0 -0.39567409110E-03  0.48391168571E-02 -0.22698331091E-01  0.23211803986E-01  0.00000000000E+00 0.  1.
     999901    1    3    3    0    0  0.14995177920E-01 -0.11294936797E+00  0.88708424699E-01  0.89176880395E+00  0.88000000000E+00 0. -1.
        -11    1    4    4    0    0 -0.55273661990E-02  0.45874620545E-01 -0.39128024877E-01  0.60549946648E-01  0.51100000000E-03 0. -1.
         11    1    4    4    0    0 -0.90721376302E-02  0.62235630566E-01 -0.26882068731E-01  0.68399445417E-01  0.51100000000E-03 0.  1.
</event>
<event>
 8    1  0.1108957E+005  0.1043930E+01  0.7957747E-01            NaN
         13   -1    0    0    0    0  0.00000000000E+00  0.00000000000E+00  0.74505805969E-08  0.10566000000E+00  0.10566000000E+00 0. -1.
     999900   -1    0    0    0    0 -0.00000000000E+00 -0.00000000000E+00 -0.74505805969E-08  0.93827000000E+00  0.93827000000E+00 0. -1.
     999902    2    1    2    0    0  0.99209737699E-03 -0.18896035835E-01  0.14317482882E-01  0.10202016468E+01  0.10199256666E+01 0.  0.
     999903    2    3    3    0    0  0.75677139387E-01  0.29770177404E-02 -0.10253055163E+00  0.12907328957E+00  0.20285659990E-01 0.  0.
         14    1    1    2    0    0 -0.99209737699E-03  0.18896035835E-01 -0.14317482882E-01  0.23728353158E-01  0.00000000000E+00 0.  1.
     999901    1    3    3    0    0 -0.74685042010E-01 -0.21873053576E-01  0.11684803451E+00  0.89112835728E+00  0.88000000000E+00 0.  1.
        -11    1    4    4    0    0  0.33764713485E-01 -0.32339817517E-04 -0.29616311699E-01  0.44915965561E-01  0.51100000000E-03 0. -1.
         11    1    4    4    0    0  0.41912425902E-01  0.30093575579E-02 -0.72914239931E-01  0.84157324005E-01  0.51100000000E-03 0.  1.
</event>
<event>
 8    1  0.1108957E+005  0.1043930E+01  0.7957747E-01            NaN
         13   -1    0    0    0    0  0.00000000000E+00  0.00000000000E+00  0.74505805969E-08  0.10566000000E+00  0.10566000000E+00 0.  1.
     999900   -1    0    0    0    0 -0.00000000000E+00 -0.00000000000E+00 -0.74505805969E-08  0.93827000000E+00  0.93827000000E+00 0.  1.
     999902    2    1    2    0    0 -0.75953340285E-02 -0.21948552948E-01  0.49206293316E-02  0.10201888823E+01  0.10199126016E+01 0.  0.
     999903    2    3    3    0    0  0.79623667771E-01  0.94010505396E-01  0.28361658185E-01  0.12799880206E+00  0.20035121159E-01 0.  0.
         14    1    1    2    0    0  0.75953340285E-02  0.21948552948E-01 -0.49206293316E-02  0.23741117676E-01  0.00000000000E+00 0.  1.
     999901    1    3    3    0    0 -0.87219001799E-01 -0.11595905834E+00 -0.23441028853E-01  0.89219008026E+00  0.88000000000E+00 0. -1.
        -11    1    4    4    0    0  0.47705706832E-01  0.61238018049E-01  0.83932548185E-02  0.78080965455E-01  0.51100000000E-03 0. -1.
         11    1    4    4    0    0  0.31917960939E-01  0.32772487347E-01  0.19968403366E-01  0.49917836606E-01  0.51100000000E-03 0.  1.
</event>
<event>
 8    1  0.1108957E+005  0.1043930E+01  0.7957747E-01            NaN
         13   -1    0    0    0    0  0.00000000000E+00  0.00000000000E+00  0.74505805969E-08  0.10566000000E+00  0.10566000000E+00 0. -1.
     999900   -1    0    0    0    0 -0.00000000000E+00 -0.00000000000E+00 -0.74505805969E-08  0.93827000000E+00  0.93827000000E+00 0. -1.
     999902    2    1    2    0    0  0.25741169615E-02 -0.20985057346E-01 -0.15082760119E-02  0.10227339247E+01  0.10225142577E+01 0.  0.
     999903    2    3    3    0    0 -0.65135298310E-01 -0.11260179672E+00 -0.30587307350E-01  0.13491424602E+00  0.18560676144E-01 0.  0.
         14    1    1    2    0    0 -0.25741169615E-02  0.20985057346E-01  0.15082760119E-02  0.21196075261E-01  0.00000000000E+00 0.  1.
     999901    1    3    3    0    0  0.67709415272E-01  0.91616739373E-01  0.29079031338E-01  0.88781967871E+00  0.88000000000E+00 0. -1.
        -11    1    4    4    0    0 -0.22840118253E-01 -0.29080824665E-01 -0.15442600858E-01  0.40076182544E-01  0.51100000000E-03 0.  1.
         11    1    4    4    0    0 -0.42295180057E-01 -0.83520972054E-01 -0.15144706492E-01  0.94838063480E-01  0.51100000000E-03 0. -1.
</event>
<event>
 8    1  0.1108957E+005  0.1043930E+01  0.7957747E-01            NaN
         13   -1    0    0    0    0  0.00000000000E+00  0.00000000000E+00  0.74505805969E-08  0.10566000000E+00  0.10566000000E+00 0.  1.
     999900   -1    0    0    0    0 -0.00000000000E+00 -0.00000000000E+00 -0.74505805969E-08  0.93827000000E+00  0.93827000000E+00 0.  1.
     999902    2    1    2    0    0 -0.95460836592E-02  0.74179354142E-02  0.23234347603E-01  0.10177386200E+01  0.10174015482E+01 0.  0.
     999903    2    3    3    0    0 -0.57001443474E-01  0.71733128807E-01  0.92181865249E-01  0.13143042557E+00  0.19535970898E-01 0.  0.
         14    1    1    2    0    0  0.95460836592E-02 -0.74179354142E-02 -0.23234347603E-01  0.26191380024E-01  0.00000000000E+00 0. -1.
     999901    1    3    3    0    0  0.47455359815E-01 -0.64315193393E-01 -0.68947517646E-01  0.88630819440E+00  0.88000000000E+00 0.  1.
        -11    1    4    4    0    0 -0.40163138310E-01  0.51726053441E-01  0.52649346320E-01  0.84029025178E-01  0.51100000000E-03 0. -1.
         11    1    4    4    0    0 -0.16838305164E-01  0.20007075366E-01  0.39532518929E-01  0.47401400395E-01  0.51100000000E-03 0.  1.
</event>
<event>
 8    1  0.1108957E+005  0.1043930E+01  0.7957747E-01            NaN
         13   -1    0    0    0    0  0.00000000000E+00  0.00000000000E+00  0.74505805969E-08  0.10566000000E+00  0.10566000000E+00 0.  1.
     999900   -1    0    0    0    0 -0.00000000000E+00 -0.00000000000E+00 -0.74505805969E-08  0.93827000000E+00  0.93827000000E+00 0. -1.
     999902    2    1    2    0    0  0.15410478378E-01  0.59197931191E-02 -0.15550208969E-01  0.10212510275E+01  0.10209991799E+01 0.  0.
     999903    2    3    3    0    0  0.44352839783E-01 -0.12199185810E+00 -0.23821569487E-02  0.13143506429E+00  0.20501551508E-01 0.  0.
         14    1    1    2    0    0 -0.15410478378E-01 -0.59197931191E-02  0.15550208969E-01  0.22678972494E-01  0.00000000000E+00 0. -1.
     999901    1    3    3    0    0 -0.28942361404E-01  0.12791165122E+00 -0.13168052020E-01  0.88981596322E+00  0.88000000000E+00 0.  1.
        -11    1    4    4    0    0  0.14280690570E-01 -0.39363441585E-01 -0.10367274017E-01  0.43141165354E-01  0.51100000000E-03 0. -1.
         11    1    4    4    0    0  0.30072149213E-01 -0.82628416512E-01  0.79851170684E-02  0.88293898935E-01  0.51100000000E-03 0.  1.
</event>
<event>
 8    1  0.1108957E+005  0.1043930E+01  0.7957747E-01            NaN
         13   -1    0    0    0    0  0.00000000000E+00  0.00000000000E+00  0.74505805969E-08  0.10566000000E+00  0.10566000000E+00 0. -1.
     999900   -1    0    0    0    0 -0.00000000000E+00 -0.00000000000E+00 -0.74505805969E-08  0.93827000000E+00  0.93827000000E+00 0.  1.
     999902    2    1    2    0    0 -0.23509992210E-01 -0.22504999807E-02  0.23715123013E-02  0.10201937713E+01  0.10199176057E+01 0.  0.
     999903    2    3    3    0    0  0.90933570446E-01  0.51217403172E-01  0.72218880052E-01  0.12843438641E+00  0.19689803313E-01 0.  0.
         14    1    1    2    0    0  0.23509992210E-01  0.22504999807E-02 -0.23715123013E-02  0.23736228733E-01  0.00000000000E+00 0.  1.
     999901    1    3    3    0    0 -0.11444356266E+00 -0.53467903153E-01 -0.69847367750E-01  0.89175938486E+00  0.88000000000E+00 0.  1.
        -11    1    4    4    0    0  0.69622317966E-01  0.38051748619E-01  0.64392012433E-01  0.10218510223E+00  0.51100000000E-03 0.  1.
         11    1    4    4    0    0  0.21311252480E-01  0.13165654553E-01  0.78268676181E-02  0.26249284177E-01  0.51100000000E-03 0. -1.
</event>
<event>
 8    1  0.1108957E+005  0.1043930E+01  0.7957747E-01            NaN
         13   -1    0    0    0    0  0.00000000000E+00  0.00000000000E+00  0.74505805969E-08  0.10566000000E+00  0.10566000000E+00 0.  1.
     999900   -1    0    0    0    0 -0.00000000000E+00 -0.00000000000E+00 -0.74505805969E-08  0.93827000000E+00  0.93827000000E+00 0.  1.
     999902    2    1    2    0    0  0.13102007571E-01 -0.17456814894E-01 -0.80356495762E-02  0.10206711382E+01  0.10204060945E+01 0.  0.
     999903    2    3    3    0    0 -0.12343595116E+00 -0.34411576042E-01  0.62508262062E-02  0.12986578263E+00  0.20135989340E-01 0.  0.
         14    1    1    2    0    0 -0.13102007571E-01  0.17456814894E-01  0.80356495762E-02  0.23258861811E-01  0.00000000000E+00 0.  1.
     999901    1    3    3    0    0  0.13653795873E+00  0.16954761148E-01 -0.14286475782E-01  0.89080535556E+00  0.88000000000E+00 0. -1.
        -11    1    4    4    0    0 -0.44202755577E-01 -0.12148956081E-01 -0.74007428954E-02  0.46438269250E-01  0.51100000000E-03 0.  1.
         11    1    4    4    0    0 -0.79233195580E-01 -0.22262619960E-01  0.13651569102E-01  0.83427513383E-01  0.51100000000E-03 0. -1.
</event>
<event>
 8    1  0.1108957E+005  0.1043930E+01  0.7957747E-01            NaN
         13   -1    0    0    0    0  0.00000000000E+00  0.00000000000E+00  0.74505805969E-08  0.10566000000E+00  0.10566000000E+00 0.  1.
     999900   -1    0    0    0    0 -0.00000000000E+00 -0.00000000000E+00 -0.74505805969E-08  0.93827000000E+00  0.93827000000E+00 0.  1.
     999902    2    1    2    0    0  0.20979040817E-01  0.42936088074E-02  0.75750846776E-02  0.10212157503E+01  0.10209631098E+01 0.  0.
     999903    2    3    3    0    0 -0.13007289273E-01 -0.19562278683E-01 -0.12713539956E+00  0.12999687230E+00  0.13561145378E-01 0.  0.
         14    1    1    2    0    0 -0.20979040817E-01 -0.42936088074E-02 -0.75750846776E-02  0.22714249670E-01  0.00000000000E+00 0. -1.
     999901    1    3    3    0    0  0.33986330091E-01  0.23855887490E-01  0.13471048424E+00  0.89121887803E+00  0.88000000000E+00 0. -1.
        -11    1    4    4    0    0  0.70996188342E-03 -0.97560311778E-02 -0.58781329312E-01  0.59591861751E-01  0.51100000000E-03 0. -1.
         11    1    4    4    0    0 -0.13717251157E-01 -0.98062475049E-02 -0.68354070247E-01  0.70405010545E-01  0.51100000000E-03 0.  1.
</event>
<event>
 7    1  0.1108957E+005  0.1043930E+01  0.7957747E-01            NaN
         13   -1    0    0    0    0  0.00000000000E+00  0.00000000000E+00  0.74505805969E-08  0.10566000000E+00  0.10566000000E+00 0.  1.
     999900   -1    0    0    0    0 -0.00000000000E+00 -0.00000000000E+00 -0.74505805969E-08  0.93827000000E+00  0.93827000000E+00 0.  1.
     999903    2    1    2    0    0  0.56954012471E-01 -0.54843412789E-01  0.75767214190E-01  0.11127758432E+00  0.19760328019E-01 0.  0.
         14    1    1    2    0    0 -0.40907307191E-01 -0.19070279347E-01  0.64372406583E-02  0.45590803934E-01  0.00000000000E+00 0. -1.
     999901    1    1    2    0    0 -0.16046705279E-01  0.73913692136E-01 -0.82204454848E-01  0.88706161175E+00  0.88000000000E+00 0.  1.
        -11    1    3    3    0    0  0.17512167825E-02 -0.22730461459E-02  0.10582562075E-01  0.10976576883E-01  0.51100000000E-03 0.  1.
         11    1    3    3    0    0  0.55202795688E-01 -0.52570366643E-01  0.65184652115E-01  0.10030100744E+00  0.51100000000E-03 0. -1.
</event>
<event>
 8    1  0.1108957E+005  0.1043930E+01  0.7957747E-01            NaN
         13   -1    0    0    0    0  0.00000000000E+00  0.00000000000E+00  0.74505805969E-08  0.10566000000E+00  0.10566000000E+00 0. -1.
     999900   -1    0    0    0    0 -0.00000000000E+00 -0.00000000000E+00 -0.74505805969E-08  0.93827000000E+00  0.93827000000E+00 0.  1.
     999902    2    1    2    0    0 -0.18933968376E-01 -0.56115694358E-03  0.67942626740E-02  0.10238060824E+01  0.10236082855E+01 0.  0.
     999903    2    3    3    0    0  0.98048184855E-02  0.11863432129E+00 -0.55940164574E-01  0.13309339678E+00  0.20354694802E-01 0.  0.
         14    1    1    2    0    0  0.18933968376E-01  0.56115694358E-03 -0.67942626740E-02  0.20123917632E-01  0.00000000000E+00 0.  1.
     999901    1    3    3    0    0 -0.28738786861E-01 -0.11919547824E+00  0.62734427248E-01  0.89071268559E+00  0.88000000000E+00 0. -1.
        -11    1    4    4    0    0  0.10607975163E-01  0.44954457421E-01 -0.29495363235E-01  0.54805747439E-01  0.51100000000E-03 0.  1.
         11    1    4    4    0    0 -0.80315667763E-03  0.73679863871E-01 -0.26444801340E-01  0.78287649343E-01  0.51100000000E-03 0. -1.
</event>
<event>
 8    1  0.1108957E+005  0.1043930E+01  0.7957747E-01            NaN
         13   -1    0    0    0    0  0.00000000000E+00  0.00000000000E+00  0.74505805969E-08  0.10566000000E+00  0.10566000000E+00 0.  1.
     999900   -1    0    0    0    0 -0.00000000000E+00 -0.00000000000E+00 -0.74505805969E-08  0.93827000000E+00  0.93827000000E+00 0.  1.
     999902    2    1    2    0    0  0.60815025582E-02  0.19702887663E-01  0.11355957463E-01  0.10203896893E+01  0.10201181166E+01 0.  0.
     999903    2    3    3    0    0  0.50310127265E-01 -0.73437507645E-01  0.93423005281E-01  0.13057717830E+00  0.19959086717E-01 0.  0.
         14    1    1    2    0    0 -0.60815025582E-02 -0.19702887663E-01 -0.11355957463E-01  0.23540310651E-01  0.00000000000E+00 0. -1.
     999901    1    3    3    0    0 -0.44228624707E-01  0.93140395308E-01 -0.82067047818E-01  0.88981251105E+00  0.88000000000E+00 0. -1.
        -11    1    4    4    0    0  0.29094654364E-01 -0.37621622855E-01  0.63364719547E-01  0.79228998625E-01  0.51100000000E-03 0. -1.
         11    1    4    4    0    0  0.21215472901E-01 -0.35815884791E-01  0.30058285734E-01  0.51348179676E-01  0.51100000000E-03 0.  1.
</event>
<event>
 8    1  0.1108957E+005  0.1043930E+01  0.7957747E-01            NaN
         13   -1    0    0    0    0  0.00000000000E+00  0.00000000000E+00  0.74505805969E-08  0.10566000000E+00  0.10566000000E+00 0.  1.
     999900   -1    0    0    0    0 -0.00000000000E+00 -0.00000000000E+00 -0.74505805969E-08  0.93827000000E+00  0.93827000000E+00 0.  1.
     999902    2    1    2    0    0  0.16264529068E-01 -0.53024603589E-02  0.16509932814E-01  0.10201554575E+01  0.10198783891E+01 0.  0.
     999903    2    3    3    0    0  0.92780515575E-01  0.87737451228E-01  0.26252769506E-01  0.13189533553E+00  0.20027161785E-01 0.  0.
         14    1    1    2    0    0 -0.16264529068E-01  0.53024603589E-02 -0.16509932814E-01  0.23774542544E-01  0.00000000000E+00 0. -1.
     999901    1    3    3    0    0 -0.76515986508E-01 -0.93039911587E-01 -0.97428366928E-02  0.88826012193E+00  0.88000000000E+00 0.  1.
        -11    1    4    4    0    0  0.46375990191E-01  0.32182554603E-01  0.62573069381E-02  0.56796692668E-01  0.51100000000E-03 0. -1.
         11    1    4    4    0    0  0.46404525384E-01  0.55554896625E-01  0.19995462568E-01  0.75098642861E-01  0.51100000000E-03 0.  1.
</event>
<event>
 8    1  0.1108957E+005  0.1043930E+01  0.7957747E-01            NaN
         13   -1    0    0    0    0  0.00000000000E+00  0.00000000000E+00  0.74505805969E-08  0.10566000000E+00  0.10566000000E+00 0.  1.
     999900   -1    0    0    0    0 -0.00000000000E+00 -0.00000000000E+00 -0.74505805969E-08  0.93827000000E+00  0.93827000000E+00 0.  1.
     999902    2    1    2    0    0  0.11126780563E-01 -0.16319209290E-01 -0.12252203838E-01  0.10206869723E+01  0.10204222935E+01 0.  0.
     999903    2    3    3    0    0 -0.35650835883E-01  0.11334769075E+00 -0.46941715062E-01  0.12928077278E+00  0.19781620237E-01 0.  0.
         14    1    1    2    0    0 -0.11126780563E-01  0.16319209290E-01  0.12252203838E-01  0.23243027695E-01  0.00000000000E+00 0.  1.
     999901    1    3    3    0    0  0.46777616446E-01 -0.12966690004E+00  0.34689511224E-01  0.89140619953E+00  0.88000000000E+00 0. -1.
        -11    1    4    4    0    0 -0.87182165310E-02  0.48065883937E-01 -0.27371594370E-01  0.55998230306E-01  0.51100000000E-03 0.  1.
         11    1    4    4    0    0 -0.26932619352E-01  0.65281806815E-01 -0.19570120692E-01  0.73282542471E-01  0.51100000000E-03 0. -1.
</event>
<event>
 8    1  0.1108957E+005  0.1043930E+01  0.7957747E-01            NaN
         13   -1    0    0    0    0  0.00000000000E+00  0.00000000000E+00  0.74505805969E-08  0.10566000000E+00  0.10566000000E+00 0.  1.
     999900   -1    0    0    0    0 -0.00000000000E+00 -0.00000000000E+00 -0.74505805969E-08  0.93827000000E+00  0.93827000000E+00 0.  1.
     999902    2    1    2    0    0  0.73699703283E-02  0.21414023506E-01 -0.59096966590E-02  0.10205248429E+01  0.10202564156E+01 0.  0.
     999903    2    3    3    0    0 -0.88807302623E-01  0.44976374185E-01  0.82175359076E-01  0.13060112185E+00  0.19855783924E-01 0.  0.
         14    1    1    2    0    0 -0.73699703283E-02 -0.21414023506E-01  0.59096966590E-02  0.23405157123E-01  0.00000000000E+00 0.  1.
     999901    1    3    3    0    0  0.96177272951E-01 -0.23562350679E-01 -0.88085055735E-01  0.88992372103E+00  0.88000000000E+00 0.  1.
        -11    1    4    4    0    0 -0.60269955719E-01  0.39214856556E-01  0.64099933409E-01  0.96329305620E-01  0.51100000000E-03 0.  1.
         11    1    4    4    0    0 -0.28537346904E-01  0.57615176290E-02  0.18075425667E-01  0.34271816230E-01  0.51100000000E-03 0. -1.
</event>
<event>
 8    1  0.1108957E+005  0.1043930E+01  0.7957747E-01            NaN
         13   -1    0    0    0    0  0.00000000000E+00  0.00000000000E+00  0.74505805969E-08  0.10566000000E+00  0.10566000000E+00 0.  1.
     999900   -1    0    0    0    0 -0.00000000000E+00 -0.00000000000E+00 -0.74505805969E-08  0.93827000000E+00  0.93827000000E+00 0. -1.
     999902    2    1    2    0    0 -0.19140619519E-01 -0.67389386288E-02 -0.19214003499E-01  0.10159844361E+01  0.10156000295E+01 0.  0.
     999903    2    3    3    0    0  0.40176172614E-01  0.10860693445E+00 -0.45657313135E-01  0.12608421651E+00  0.20076064155E-01 0.  0.
         14    1    1    2    0    0  0.19140619519E-01  0.67389386288E-02  0.19214003499E-01  0.27945563867E-01  0.00000000000E+00 0.  1.
     999901    1    3    3    0    0 -0.59316792133E-01 -0.11534587308E+00  0.26443309636E-01  0.88990021963E+00  0.88000000000E+00 0.  1.
        -11    1    4    4    0    0  0.22908415725E-01  0.70152691291E-01 -0.19000287548E-01  0.76206742840E-01  0.51100000000E-03 0. -1.
         11    1    4    4    0    0  0.17267756888E-01  0.38454243163E-01 -0.26657025587E-01  0.49877473666E-01  0.51100000000E-03 0.  1.
</event>
<event>
 8    1  0.1108957E+005  0.1043930E+01  0.7957747E-01            NaN
         13   -1    0    0    0    0  0.00000000000E+00  0.00000000000E+00  0.74505805969E-08  0.10566000000E+00  0.10566000000E+00 0.  1.
     999900   -1    0    0    0    0 -0.00000000000E+00 -0.00000000000E+00 -0.74505805969E-08  0.93827000000E+00  0.93827000000E+00 0. -1.
     999902    2    1    2    0    0  0.11028853701E-01  0.13321300330E-02  0.21692277900E-01  0.10195586007E+01  0.10192672736E+01 0.  0.
     999903    2    3    3    0    0  0.12193528944E+00 -0.52536651707E-02  0.46807420706E-01  0.13221741456E+00  0.19866913957E-01 0.  0.
         14    1    1    2    0    0 -0.11028853701E-01 -0.13321300330E-02 -0.21692277900E-01  0.24371399321E-01  0.00000000000E+00 0. -1.
     999901    1    3    3    0    0 -0.11090643574E+00  0.65857952037E-02 -0.25115142806E-01  0.88734118612E+00  0.88000000000E+00 0.  1.
        -11    1    4    4    0    0  0.23120994560E-01 -0.86751280271E-02  0.74742413195E-02  0.25806271332E-01  0.51100000000E-03 0. -1.
         11    1    4    4    0    0  0.98814294882E-01  0.34214628565E-02  0.39333179386E-01  0.10641114323E+00  0.51100000000E-03 0.  1.
</event>
<event>
 8    1  0.1108957E+005  0.1043930E+01  0.7957747E-01            NaN
         13   -1    0    0    0    0  0.00000000000E+00  0.00000000000E+00  0.74505805969E-08  0.10566000000E+00  0.10566000000E+00 0. -1.
     999900   -1    0    0    0    0 -0.00000000000E+00 -0.00000000000E+00 -0.74505805969E-08  0.93827000000E+00  0.93827000000E+00 0. -1.
     999902    2    1    2    0    0 -0.12039185619E-01  0.56402996353E-02  0.17039324829E-01  0.10223176526E+01  0.10220891787E+01 0.  0.
     999903    2    3    3    0    0 -0.48312186054E-01 -0.75454343472E-01 -0.93523960004E-01  0.13096120780E+00  0.19408286457E-01 0.  0.
         14    1    1    2    0    0  0.12039185619E-01 -0.56402996353E-02 -0.17039324829E-01  0.21612347419E-01  0.00000000000E+00 0.  1.
     999901    1    3    3    0    0  0.36273000435E-01  0.81094643107E-01  0.11056328483E+00  0.89135644478E+00  0.88000000000E+00 0.  1.
        -11    1    4    4    0    0 -0.21013929238E-01 -0.36904291281E-01 -0.57843703649E-01  0.71761181079E-01  0.51100000000E-03 0.  1.
         11    1    4    4    0    0 -0.27298256816E-01 -0.38550052190E-01 -0.35680256355E-01  0.59200026720E-01  0.51100000000E-03 0. -1.
</event>
<event>
 8    1  0.1108957E+005  0.1043930E+01  0.7957747E-01            NaN
         13   -1    0    0    0    0  0.00000000000E+00  0.00000000000E+00  0.74505805969E-08  0.10566000000E+00  0.10566000000E+00 0. -1.
     999900   -1    0    0    0    0 -0.00000000000E+00 -0.00000000000E+00 -0.74505805969E-08  0.93827000000E+00  0.93827000000E+00 0.  1.
     999902    2    1    2    0    0 -0.19843100910E-01  0.10967678559E-01  0.66381904912E-02  0.10203057709E+01  0.10200322358E+01 0.  0.
     999903    2    3    3    0    0 -0.22008317703E-01 -0.12000762226E+00  0.38949803655E-01  0.13002308664E+00  0.22421427390E-01 0.  0.
         14    1    1    2    0    0  0.19843100910E-01 -0.10967678559E-01 -0.66381904912E-02  0.23624229082E-01  0.00000000000E+00 0. -1.
     999901    1    3    3    0    0  0.21652167928E-02  0.13097530081E+00 -0.32311613164E-01  0.89028268428E+00  0.88000000000E+00 0.  1.
        -11    1    4    4    0    0  0.43244573089E-02 -0.10964744321E-01  0.50604089724E-02  0.12837266415E-01  0.51100000000E-03 0. -1.
         11    1    4    4    0    0 -0.26332775012E-01 -0.10904287793E+00  0.33889394683E-01  0.11718582022E+00  0.51100000000E-03 0.  1.
</event>
<event>
 8    1  0.1108957E+005  0.1043930E+01  0.7957747E-01            NaN
         13   -1    0    0    0    0  0.00000000000E+00  0.00000000000E+00  0.74505805969E-08  0.10566000000E+00  0.10566000000E+00 0. -1.
     999900   -1    0    0    0    0 -0.00000000000E+00 -0.00000000000E+00 -0.74505805969E-08  0.93827000000E+00  0.93827000000E+00 0.  1.
     999902    2    1    2    0    0  0.11984623393E-01 -0.20607838597E-01  0.29842980332E-02  0.10199045917E+01  0.10196215749E+01 0.  0.
     999903    2    3    3    0    0  0.73867371382E-01  0.54250146880E-01 -0.89664065509E-01  0.12972656919E+00  0.19745154294E-01 0.  0.
         14    1    1    2    0    0 -0.11984623393E-01  0.20607838597E-01 -0.29842980332E-02  0.24025408306E-01  0.00000000000E+00 0. -1.
     999901    1    3    3    0    0 -0.61882747989E-01 -0.74857985476E-01  0.92648363543E-01  0.89017802251E+00  0.88000000000E+00 0. -1.
        -11    1    4    4    0    0  0.44829140061E-01  0.43138785498E-01 -0.65561575195E-01  0.90383559765E-01  0.51100000000E-03 0.  1.
         11    1    4    4    0    0  0.29038231321E-01  0.11111361382E-01 -0.24102490314E-01  0.39343009422E-01  0.51100000000E-03 0. -1.
</event>
<event>
 8    1  0.1108957E+005  0.1043930E+01  0.7957747E-01            NaN
         13   -1    0    0    0    0  0.00000000000E+00  0.00000000000E+00  0.74505805969E-08  0.10566000000E+00  0.10566000000E+00 0. -1.
     999900   -1    0    0    0    0 -0.00000000000E+00 -0.00000000000E+00 -0.74505805969E-08  0.93827000000E+00  0.93827000000E+00 0.  1.
     999902    2    1    2    0    0 -0.14248457121E-01 -0.20947675659E-01 -0.62275235400E-02  0.10178415793E+01  0.10175071866E+01 0.  0.
     999903    2    3    3    0    0 -0.52676424563E-01 -0.11875735001E+00 -0.52176822400E-02  0.13158853367E+00  0.20253495992E-01 0.  0.
         14    1    1    2    0    0  0.14248457121E-01  0.20947675659E-01  0.62275235400E-02  0.26088420713E-01  0.00000000000E+00 0. -1.
     999901    1    3    3    0    0  0.38427967441E-01  0.97809674353E-01 -0.10098412999E-02  0.88625304561E+00  0.88000000000E+00 0.  1.
        -11    1    4    4    0    0 -0.19906306991E-01 -0.32216725097E-01 -0.91596091391E-02  0.38965856780E-01  0.51100000000E-03 0.  1.
         11    1    4    4    0    0 -0.32770117571E-01 -0.86540624915E-01  0.39419268991E-02  0.92622676894E-01  0.51100000000E-03 0. -1.
</event>
<event>
 8    1  0.1108957E+005  0.1043930E+01  0.7957747E-01            NaN
         13   -1    0    0    0    0  0.00000000000E+00  0.00000000000E+00  0.74505805969E-08  0.10566000000E+00  0.10566000000E+00 0. -1.
     999900   -1    0    0    0    0 -0.00000000000E+00 -0.00000000000E+00 -0.74505805969E-08  0.93827000000E+00  0.93827000000E+00 0. -1.
     999902    2    1    2    0    0  0.20582663207E-02 -0.57188054845E-02 -0.23229389914E-01  0.10199186329E+01  0.10196359507E+01 0.  0.
     999903    2    3    3    0    0 -0.97474450086E-01  0.17822181053E-01  0.78581785450E-01  0.12816392717E+00  0.20784529489E-01 0.  0.
         14    1    1    2    0    0 -0.20582663207E-02  0.57188054845E-02  0.23229389914E-01  0.24011367145E-01  0.00000000000E+00 0. -1.
     999901    1    3    3    0    0  0.99532716406E-01 -0.23540986538E-01 -0.10181117536E+00  0.89175470569E+00  0.88000000000E+00 0. -1.
        -11    1    4    4    0    0 -0.28759270044E-01  0.69416341365E-02  0.35977275893E-01  0.46582264862E-01  0.51100000000E-03 0. -1.
         11    1    4    4    0    0 -0.68715180041E-01  0.10880546917E-01  0.42604509556E-01  0.81581662308E-01  0.51100000000E-03 0.  1.
</event>
<event>
 8    1  0.1108957E+005  0.1043930E+01  0.7957747E-01            NaN
         13   -1    0    0    0    0  0.00000000000E+00  0.00000000000E+00  0.74505805969E-08  0.10566000000E+00  0.10566000000E+00 0.  1.
     999900   -1    0    0    0    0 -0.00000000000E+00 -0.00000000000E+00 -0.74505805969E-08  0.93827000000E+00  0.93827000000E+00 0.  1.
     999902    2    1    2    0    0  0.22873544062E-01 -0.21122157259E-02 -0.44807239829E-02  0.10205262105E+01  0.10202578150E+01 0.  0.
     999903    2    3    3    0    0  0.12348223424E+00  0.12335068965E-02  0.44947120922E-01  0.13340929929E+00  0.22987251800E-01 0.  0.
         14    1    1    2    0    0 -0.22873544062E-01  0.21122157259E-02  0.44807239829E-02  0.23403789450E-01  0.00000000000E+00 0.  1.
     999901    1    3    3    0    0 -0.10060869018E+00 -0.33457226224E-02 -0.49427844904E-01  0.88711691126E+00  0.88000000000E+00 0.  1.
        -11    1    4    4    0    0  0.10702506129E+00  0.89675476887E-02  0.39212286371E-01  0.11433566888E+00  0.51100000000E-03 0. -1.
         11    1    4    4    0    0  0.16457172947E-01 -0.77340407922E-02  0.57348345509E-02  0.19073630402E-01  0.51100000000E-03 0.  1.
</event>
<event>
 8    1  0.1108957E+005  0.1043930E+01  0.7957747E-01            NaN
         13   -1    0    0    0    0  0.00000000000E+00  0.00000000000E+00  0.74505805969E-08  0.10566000000E+00  0.10566000000E+00 0.  1.
     999900   -1    0    0    0    0 -0.00000000000E+00 -0.00000000000E+00 -0.74505805969E-08  0.93827000000E+00  0.93827000000E+00 0. -1.
     999902    2    1    2    0    0 -0.70002650911E-02 -0.15927454735E-01  0.12967749823E-01  0.10222309203E+01  0.10220005892E+01 0.  0.
     999903    2    3    3    0    0  0.22155532442E-01 -0.73582558059E-01  0.10873941237E+00  0.13468014267E+00  0.20229200631E-01 0.  0.
         14    1    1    2    0    0  0.70002650911E-02  0.15927454735E-01 -0.12967749823E-01  0.21699079731E-01  0.00000000000E+00 0.  1.
     999901    1    3    3    0    0 -0.29155797533E-01  0.57655103324E-01 -0.95771662550E-01  0.88755077760E+00  0.88000000000E+00 0. -1.
        -11    1    4    4    0    0  0.77925995647E-02 -0.33394736314E-01  0.65436585084E-01  0.73879231249E-01  0.51100000000E-03 0.  1.
         11    1    4    4    0    0  0.14362932878E-01 -0.40187821746E-01  0.43302827289E-01  0.60800911422E-01  0.51100000000E-03 0. -1.
</event>
<event>
 8    1  0.1108957E+005  0.1043930E+01  0.7957747E-01            NaN
         13   -1    0    0    0    0  0.00000000000E+00  0.00000000000E+00  0.74505805969E-08  0.10566000000E+00  0.10566000000E+00 0.  1.
     999900   -1    0    0    0    0 -0.00000000000E+00 -0.00000000000E+00 -0.74505805969E-08  0.93827000000E+00  0.93827000000E+00 0. -1.
     999902    2    1    2    0    0  0.22171466432E-01 -0.20451334602E-02 -0.76508076141E-02  0.10203866070E+01  0.10201149624E+01 0.  0.
     999903    2    3    3    0    0 -0.71950846374E-01 -0.13977775039E-01 -0.10485964523E+00  0.12996482170E+00  0.22869350542E-01 0.  0.
         14    1    1    2    0    0 -0.22171466432E-01  0.20451334602E-02  0.76508076141E-02  0.23543392953E-01  0.00000000000E+00 0.  1.
     999901    1    3    3    0    0  0.94122312805E-01  0.11932641578E-01  0.97208837614E-01  0.89042178534E+00  0.88000000000E+00 0.  1.
        -11    1    4    4    0    0 -0.49140414367E-01  0.15508298380E-02 -0.68354816989E-01  0.84201113555E-01  0.51100000000E-03 0.  1.
         11    1    4    4    0    0 -0.22810432007E-01 -0.15528604877E-01 -0.36504828239E-01  0.45763708148E-01  0.51100000000E-03 0. -1.
</event>
<event>
 8    1  0.1108957E+005  0.1043930E+01  0.7957747E-01            NaN
         13   -1    0    0    0    0  0.00000000000E+00  0.00000000000E+00  0.74505805969E-08  0.10566000000E+00  0.10566000000E+00 0. -1.
     999900   -1    0    0    0    0 -0.00000000000E+00 -0.00000000000E+00 -0.74505805969E-08  0.93827000000E+00  0.93827000000E+00 0. -1.
     999902    2    1    2    0    0  0.12884261079E-01 -0.35835827567E-02 -0.13654687157E-01  0.10248172626E+01  0.10246390218E+01 0.  0.
     999903    2    3    3    0    0  0.10459479677E+00  0.79285957540E-01  0.28280194802E-01  0.13518997134E+00  0.15818481489E-01 0.  0.
         14    1    1    2    0    0 -0.12884261079E-01  0.35835827567E-02  0.13654687157E-01  0.19112737384E-01  0.00000000000E+00 0.  1.
     999901    1    3    3    0    0 -0.91710535694E-01 -0.82869540297E-01 -0.41934881960E-01  0.88962729128E+00  0.88000000000E+00 0. -1.
        -11    1    4    4    0    0  0.34817232862E-01  0.30048526001E-01  0.17052833993E-01  0.49053174079E-01  0.51100000000E-03 0.  1.
         11    1    4    4    0    0  0.69777563911E-01  0.49237431540E-01  0.11227360809E-01  0.86136797257E-01  0.51100000000E-03 0. -1.
</event>
<event>
 8    1  0.1108957E+005  0.1043930E+01  0.7957747E-01            NaN
         13   -1    0    0    0    0  0.00000000000E+00  0.00000000000E+00  0.74505805969E-08  0.10566000000E+00  0.10566000000E+00 0. -1.
     999900   -1    0    0    0    0 -0.00000000000E+00 -0.00000000000E+00 -0.74505805969E-08  0.93827000000E+00  0.93827000000E+00 0. -1.
     999902    2    1    2    0    0 -0.17556866962E-01  0.13266346449E-01 -0.79759289735E-02  0.10205236981E+01  0.10202552442E+01 0.  0.
     999903    2    3    3    0    0 -0.78191004146E-01  0.29415628853E-01 -0.10196401170E+00  0.13329708803E+00  0.19807615853E-01 0.  0.
         14    1    1    2    0    0  0.17556866962E-01 -0.13266346449E-01  0.79759289735E-02  0.23406301900E-01  0.00000000000E+00 0. -1.
     999901    1    3    3    0    0  0.60634137184E-01 -0.16149282404E-01  0.93988082729E-01  0.88722661007E+00  0.88000000000E+00 0.  1.
        -11    1    4    4    0    0 -0.17116749427E-01  0.11508683829E-01 -0.14902898003E-01  0.25451726942E-01  0.51100000000E-03 0. -1.
         11    1    4    4    0    0 -0.61074254719E-01  0.17906945024E-01 -0.87061113700E-01  0.10784536109E+00  0.51100000000E-03 0.  1.
</event>
<event>
 8    1  0.1108957E+005  0.1043930E+01  0.7957747E-01            NaN
         13   -1    0    0    0    0  0.00000000000E+00  0.00000000000E+00  0.74505805969E-08  0.10566000000E+00  0.10566000000E+00 0.  1.
     999900   -1    0    0    0    0 -0.00000000000E+00 -0.00000000000E+00 -0.74505805969E-08  0.93827000000E+00  0.93827000000E+00 0.  1.
     999902    2    1    2    0    0 -0.11983934649E-01 -0.37319146857E-02 -0.21290144670E-01  0.10192153862E+01  0.10189156939E+01 0.  0.
     999903    2    3    3    0    0 -0.84729480298E-01 -0.97859894688E-01 -0.36111771920E-03  0.13096428698E+00  0.19896488104E-01 0.  0.
         14    1    1    2    0    0  0.11983934649E-01  0.37319146857E-02  0.21290144670E-01  0.24714613834E-01  0.00000000000E+00 0.  1.
     999901    1    3    3    0    0  0.72745545649E-01  0.94127980002E-01 -0.20929026951E-01  0.88825109918E+00  0.88000000000E+00 0.  1.
        -11    1    4    4    0    0 -0.38447135271E-01 -0.55848837484E-01  0.63262787363E-02  0.68099616610E-01  0.51100000000E-03 0. -1.
         11    1    4    4    0    0 -0.46282345027E-01 -0.42011057204E-01 -0.66873964555E-02  0.62864670372E-01  0.51100000000E-03 0.  1.
</event>
<event>
 8    1  0.1108957E+005  0.1043930E+01  0.7957747E-01            NaN
         13   -1    0    0    0    0  0.00000000000E+00  0.00000000000E+00  0.74505805969E-08  0.10566000000E+00  0.10566000000E+00 0. -1.
     999900   -1    0    0    0    0 -0.00000000000E+00 -0.00000000000E+00 -0.74505805969E-08  0.93827000000E+00  0.93827000000E+00 0.  1.
     999902    2    1    2    0    0 -0.23051822371E-01  0.47463323570E-02 -0.13816844556E-01  0.10166386208E+01  0.10162722401E+01 0.  0.
     999903    2    3    3    0    0  0.43529070270E-01  0.10413504394E+00  0.52681999306E-01  0.12605834508E+00  0.19401700386E-01 0.  0.
         14    1    1    2    0    0  0.23051822371E-01 -0.47463323570E-02  0.13816844556E-01  0.27291379206E-01  0.00000000000E+00 0.  1.
     999901    1    3    3    0    0 -0.66580892641E-01 -0.99388711586E-01 -0.66498843862E-01  0.89058027571E+00  0.88000000000E+00 0. -1.
        -11    1    4    4    0    0  0.69663938860E-02  0.45960862842E-02  0.53875707411E-02  0.99469438722E-02  0.51100000000E-03 0. -1.
         11    1    4    4    0    0  0.36562676384E-01  0.99538957659E-01  0.47294428565E-01  0.11611140121E+00  0.51100000000E-03 0.  1.
</event>
<event>
 8    1  0.1108957E+005  0.1043930E+01  0.7957747E-01            NaN
         13   -1    0    0    0    0  0.00000000000E+00  0.00000000000E+00  0.74505805969E-08  0.10566000000E+00  0.10566000000E+00 0. -1.
     999900   -1    0    0    0    0 -0.00000000000E+00 -0.00000000000E+00 -0.74505805969E-08  0.93827000000E+00  0.93827000000E+00 0.  1.
     999902    2    1    2    0    0 -0.11208943190E-01 -0.13260166692E-01 -0.15827029978E-01  0.10204360155E+01  0.10201655231E+01 0.  0.
     999903    2    3    3    0    0  0.64679479343E-01  0.10887008456E+00 -0.10757731165E-01  0.12875190738E+00  0.20620245225E-01 0.  0.
         14    1    1    2    0    0  0.11208943190E-01  0.13260166692E-01  0.15827029978E-01  0.23493984466E-01  0.00000000000E+00 0. -1.
     999901    1    3    3    0    0 -0.75888422533E-01 -0.12213025125E+00 -0.50692988135E-02  0.89168410816E+00  0.88000000000E+00 0. -1.
        -11    1    4    4    0    0  0.43084494607E-01  0.63531975914E-01  0.25168803982E-02  0.76806128968E-01  0.51100000000E-03 0. -1.
         11    1    4    4    0    0  0.21594984736E-01  0.45338108649E-01 -0.13274611563E-01  0.51945778411E-01  0.51100000000E-03 0.  1.
</event>
<event>
 8    1  0.1108957E+005  0.1043930E+01  0.7957747E-01            NaN
         13   -1    0    0    0    0  0.00000000000E+00  0.00000000000E+00  0.74505805969E-08  0.10566000000E+00  0.10566000000E+00 0. -1.
     999900   -1    0    0    0    0 -0.00000000000E+00 -0.00000000000E+00 -0.74505805969E-08  0.93827000000E+00  0.93827000000E+00 0. -1.
     999902    2    1    2    0    0 -0.16673318349E-02  0.12546150178E-01 -0.19391655120E-01  0.10207735286E+01  0.10205108400E+01 0.  0.
     999903    2    3    3    0    0  0.10820629329E+00  0.53666137110E-01 -0.50552093972E-01  0.13244136112E+00  0.19913406305E-01 0.  0.
         14    1    1    2    0    0  0.16673318349E-02 -0.12546150178E-01  0.19391655120E-01  0.23156471407E-01  0.00000000000E+00 0. -1.
     999901    1    3    3    0    0 -0.10987362512E+00 -0.41119986931E-01  0.31160438852E-01  0.88833216748E+00  0.88000000000E+00 0. -1.
        -11    1    4    4    0    0  0.80113031024E-01  0.48852740560E-01 -0.40679344104E-01  0.10227295907E+00  0.51100000000E-03 0. -1.
         11    1    4    4    0    0  0.28093262262E-01  0.48133965495E-02 -0.98727498678E-02  0.30168402043E-01  0.51100000000E-03 0.  1.
</event>
<event>
 8    1  0.1108957E+005  0.1043930E+01  0.7957747E-01            NaN
         13   -1    0    0    0    0  0.00000000000E+00  0.00000000000E+00  0.74505805969E-08  0.10566000000E+00  0.10566000000E+00 0.  1.
     999900   -1    0    0    0    0 -0.00000000000E+00 -0.00000000000E+00 -0.74505805969E-08  0.93827000000E+00  0.93827000000E+00 0.  1.
     999902    2    1    2    0    0 -0.57157589975E-02 -0.18782696599E-01  0.17068497201E-01  0.10179147508E+01  0.10175822555E+01 0.  0.
     999903    2    3    3    0    0 -0.99581451742E-01  0.72253923532E-01  0.30044438758E-01  0.12815814954E+00  0.19614994207E-01 0.  0.
         14    1    1    2    0    0  0.57157589975E-02  0.18782696599E-01 -0.17068497201E-01  0.26015249165E-01  0.00000000000E+00 0. -1.
     999901    1    3    3    0    0  0.93865692744E-01 -0.91036620131E-01 -0.12975941557E-01  0.88975660129E+00  0.88000000000E+00 0. -1.
        -11    1    4    4    0    0 -0.64026714642E-01  0.52226501184E-01  0.11839745118E-01  0.83471362150E-01  0.51100000000E-03 0. -1.
         11    1    4    4    0    0 -0.35554737100E-01  0.20027422349E-01  0.18204693640E-01  0.44686787395E-01  0.51100000000E-03 0.  1.
</event>
<event>
 8    1  0.1108957E+005  0.1043930E+01  0.7957747E-01            NaN
         13   -1    0    0    0    0  0.00000000000E+00  0.00000000000E+00  0.74505805969E-08  0.10566000000E+00  0.10566000000E+00 0.  1.
     999900   -1    0    0    0    0 -0.00000000000E+00 -0.00000000000E+00 -0.74505805969E-08  0.93827000000E+00  0.93827000000E+00 0.  1.
     999902    2    1    2    0    0  0.74190462083E-02 -0.21255052935E-01 -0.69689720235E-02  0.10203633691E+01  0.10200911816E+01 0.  0.
     999903    2    3    3    0    0  0.57860314223E-01 -0.10833514762E+00 -0.47458144529E-01  0.13370298455E+00  0.23235585278E-01 0.  0.
         14    1    1    2    0    0 -0.74190462083E-02  0.21255052935E-01  0.69689720235E-02  0.23566630922E-01  0.00000000000E+00 0.  1.
     999901    1    3    3    0    0 -0.50441268015E-01  0.87080094682E-01  0.40489172505E-01  0.88666038453E+00  0.88000000000E+00 0.  1.
        -11    1    4    4    0    0  0.73251749756E-02 -0.15011679268E-01  0.15927748466E-02  0.16787100869E-01  0.51100000000E-03 0.  1.
         11    1    4    4    0    0  0.50535139247E-01 -0.93323468349E-01 -0.49050919375E-01  0.11691588368E+00  0.51100000000E-03 0. -1.
</event>
<event>
 8    1  0.1108957E+005  0.1043930E+01  0.7957747E-01            NaN
         13   -1    0    0    0    0  0.00000000000E+00  0.00000000000E+00  0.74505805969E-08  0.10566000000E+00  0.10566000000E+00 0. -1.
     999900   -1    0    0    0    0 -0.00000000000E+00 -0.00000000000E+00 -0.74505805969E-08  0.93827000000E+00  0.93827000000E+00 0.  1.
     999902    2    1    2    0    0  0.10644496673E-01  0.60563533134E-02 -0.20790088651E-01  0.10198009198E+01  0.10195154258E+01 0.  0.
     999903    2    3    3    0    0 -0.79910187983E-01 -0.96086642975E-01 -0.26274512557E-01  0.12925983625E+00  0.19986849542E-01 0.  0.
         14    1    1    2    0    0 -0.10644496673E-01 -0.60563533134E-02  0.20790088651E-01  0.24129080193E-01  0.00000000000E+00 0. -1.
     999901    1    3    3    0    0  0.90554684655E-01  0.10214299629E+00  0.54844239063E-02  0.89054108356E+00  0.88000000000E+00 0.  1.
        -11    1    4    4    0    0 -0.73784845212E-01 -0.79309228424E-01 -0.19055869482E-01  0.10998883752E+00  0.51100000000E-03 0. -1.
         11    1    4    4    0    0 -0.61253427704E-02 -0.16777414550E-01 -0.72186430747E-02  0.19270998726E-01  0.51100000000E-03 0.  1.
</event>
<event>
 8    1  0.1108957E+005  0.1043930E+01  0.7957747E-01            NaN
         13   -1    0    0    0    0  0.00000000000E+00  0.00000000000E+00  0.74505805969E-08  0.10566000000E+00  0.10566000000E+00 0.  1.
     999900   -1    0    0    0    0 -0.00000000000E+00 -0.00000000000E+00 -0.74505805969E-08  0.93827000000E+00  0.93827000000E+00 0. -1.
     999902    2    1    2    0    0  0.65799316485E-02  0.12825780698E-01  0.10917274597E-01  0.10258473278E+01  0.10256879432E+01 0.  0.
     999903    2    3    3    0    0 -0.69567284682E-01  0.43717870571E-01 -0.10462287463E+00  0.13449877311E+00  0.19827122019E-01 0.  0.
         14    1    1    2    0    0 -0.65799316485E-02 -0.12825780698E-01 -0.10917274597E-01  0.18082672248E-01  0.00000000000E+00 0.  1.
     999901    1    3    3    0    0  0.76147216331E-01 -0.30892089874E-01  0.11554014923E+00  0.89134855464E+00  0.88000000000E+00 0. -1.
        -11    1    4    4    0    0 -0.48532986285E-01  0.27216797762E-01 -0.83869684380E-01  0.10065083168E+00  0.51100000000E-03 0.  1.
         11    1    4    4    0    0 -0.21034298397E-01  0.16501072809E-01 -0.20753190252E-01  0.33847941437E-01  0.51100000000E-03 0. -1.
</event>
<event>
 8    1  0.1108957E+005  0.1043930E+01  0.7957747E-01            NaN
         13   -1    0    0    0    0  0.00000000000E+00  0.00000000000E+00  0.74505805969E-08  0.10566000000E+00  0.10566000000E+00 0.  1.
     999900   -1    0    0    0    0 -0.00000000000E+00 -0.00000000000E+00 -0.74505805969E-08  0.93827000000E+00  0.93827000000E+00 0.  1.
     999902    2    1    2    0    0  0.39329775305E-02  0.20506175717E-01  0.11968453625E-01  0.10198631050E+01  0.10195790982E+01 0.  0.
     999903    2    3    3    0    0 -0.69692538534E-01 -0.48204962545E-01 -0.93662582914E-01  0.12784300820E+00  0.19758212634E-01 0.  0.
         14    1    1    2    0    0 -0.39329775305E-02 -0.20506175717E-01 -0.11968453625E-01  0.24066895043E-01  0.00000000000E+00 0.  1.
     999901    1    3    3    0    0  0.73625516064E-01  0.68711138262E-01  0.10563103654E+00  0.89202009676E+00  0.88000000000E+00 0. -1.
        -11    1    4    4    0    0 -0.25427481839E-01 -0.21891332932E-01 -0.24199333683E-01  0.41372166512E-01  0.51100000000E-03 0.  1.
         11    1    4    4    0    0 -0.44265056694E-01 -0.26313629613E-01 -0.69463249232E-01  0.86470841689E-01  0.51100000000E-03 0. -1.
</event>
<event>
 8    1  0.1108957E+005  0.1043930E+01  0.7957747E-01            NaN
         13   -1    0    0    0    0  0.00000000000E+00  0.00000000000E+00  0.74505805969E-08  0.10566000000E+00  0.10566000000E+00 0.  1.
     999900   -1    0    0    0    0 -0.00000000000E+00 -0.00000000000E+00 -0.74505805969E-08  0.93827000000E+00  0.93827000000E+00 0. -1.
     999902    2    1    2    0    0 -0.14935806049E-01 -0.13899832500E-01 -0.12620756485E-01  0.10199390196E+01  0.10196568229E+01 0.  0.
     999903    2    3    3    0    0  0.88663928005E-01 -0.14188018229E-01  0.89198737536E-01  0.12803084199E+00  0.19310352952E-01 0.  0.
         14    1    1    2    0    0  0.14935806049E-01  0.13899832500E-01  0.12620756485E-01  0.23990980391E-01  0.00000000000E+00 0. -1.
     999901    1    3    3    0    0 -0.10359973405E+00  0.28818572854E-03 -0.10181949402E+00  0.89190817762E+00  0.88000000000E+00 0. -1.
        -11    1    4    4    0    0  0.34553085507E-01  0.34479683945E-02  0.37965430177E-01  0.51453272138E-01  0.51100000000E-03 0. -1.
         11    1    4    4    0    0  0.54110842498E-01 -0.17635986623E-01  0.51233307359E-01  0.76577569849E-01  0.51100000000E-03 0.  1.
</event>
<event>
 8    1  0.1108957E+005  0.1043930E+01  0.7957747E-01            NaN
         13   -1    0    0    0    0  0.00000000000E+00  0.00000000000E+00  0.74505805969E-08  0.10566000000E+00  0.10566000000E+00 0.  1.
     999900   -1    0    0    0    0 -0.00000000000E+00 -0.00000000000E+00 -0.74505805969E-08  0.93827000000E+00  0.93827000000E+00 0. -1.
     999902    2    1    2    0    0  0.64219280731E-02  0.62375086514E-02 -0.22992265061E-01  0.10192562908E+01  0.10189576018E+01 0.  0.
     999903    2    3    3    0    0 -0.91662438401E-01 -0.69593011021E-01 -0.56925998386E-01  0.12991816108E+00  0.19823458094E-01 0.  0.
         14    1    1    2    0    0 -0.64219280731E-02 -0.62375086514E-02  0.22992265061E-01  0.24673709227E-01  0.00000000000E+00 0.  1.
     999901    1    3    3    0    0  0.98084366474E-01  0.75830519672E-01  0.33933733324E-01  0.88933812969E+00  0.88000000000E+00 0. -1.
        -11    1    4    4    0    0 -0.30133781973E-01 -0.33581218791E-01 -0.27112708667E-01  0.52641268637E-01  0.51100000000E-03 0.  1.
         11    1    4    4    0    0 -0.61528656429E-01 -0.36011792230E-01 -0.29813289718E-01  0.77276892448E-01  0.51100000000E-03 0. -1.
</event>
<event>
 8    1  0.1108957E+005  0.1043930E+01  0.7957747E-01            NaN
         13   -1    0    0    0    0  0.00000000000E+00  0.00000000000E+00  0.74505805969E-08  0.10566000000E+00  0.10566000000E+00 0.  1.
     999900   -1    0    0    0    0 -0.00000000000E+00 -0.00000000000E+00 -0.74505805969E-08  0.93827000000E+00  0.93827000000E+00 0. -1.
     999902    2    1    2    0    0 -0.20361498140E-01 -0.61110346961E-02 -0.13432963697E-01  0.10187828358E+01  0.10184724281E+01 0.  0.
     999903    2    3    3    0    0 -0.19377522376E-01  0.37188563310E-01  0.11901354410E+00  0.12781824574E+00  0.20366704445E-01 0.  0.
         14    1    1    2    0    0  0.20361498140E-01  0.61110346961E-02  0.13432963697E-01  0.25147164159E-01  0.00000000000E+00 0.  1.
     999901    1    3    3    0    0 -0.98397576400E-03 -0.43299598006E-01 -0.13244650779E+00  0.89096459011E+00  0.88000000000E+00 0. -1.
        -11    1    4    4    0    0 -0.16116118044E-01  0.39256375292E-01  0.10444193816E+00  0.11273496276E+00  0.51100000000E-03 0.  1.
         11    1    4    4    0    0 -0.32614043313E-02 -0.20678119820E-02  0.14571605938E-01  0.15083282972E-01  0.51100000000E-03 0. -1.
</event>
<event>
 8    1  0.1108957E+005  0.1043930E+01  0.7957747E-01            NaN
         13   -1    0    0    0    0  0.00000000000E+00  0.00000000000E+00  0.74505805969E-08  0.10566000000E+00  0.10566000000E+00 0.  1.
     999900   -1    0    0    0    0 -0.00000000000E+00 -0.00000000000E+00 -0.74505805969E-08  0.93827000000E+00  0.93827000000E+00 0. -1.
     999902    2    1    2    0    0  0.72956533757E-02 -0.22303108874E-01 -0.15766535435E-02  0.10204110489E+01  0.10201399746E+01 0.  0.
     999903    2    3    3    0    0  0.75622627532E-01  0.11023491309E-01  0.10419232643E+00  0.13082332710E+00  0.20454898508E-01 0.  0.
         14    1    1    2    0    0 -0.72956533757E-02  0.22303108874E-01  0.15766535435E-02  0.23518951083E-01  0.00000000000E+00 0.  1.
     999901    1    3    3    0    0 -0.68326974157E-01 -0.33326600184E-01 -0.10576897997E+00  0.88958772181E+00  0.88000000000E+00 0. -1.
        -11    1    4    4    0    0  0.55554317703E-01  0.14204531424E-01  0.65038354136E-01  0.86708128558E-01  0.51100000000E-03 0.  1.
         11    1    4    4    0    0  0.20068309829E-01 -0.31810401146E-02  0.39153972290E-01  0.44115198545E-01  0.51100000000E-03 0. -1.
</event>
<event>
 8    1  0.1108957E+005  0.1043930E+01  0.7957747E-01            NaN
         13   -1    0    0    0    0  0.00000000000E+00  0.00000000000E+00  0.74505805969E-08  0.10566000000E+00  0.10566000000E+00 0. -1.
     999900   -1    0    0    0    0 -0.00000000000E+00 -0.00000000000E+00 -0.74505805969E-08  0.93827000000E+00  0.93827000000E+00 0. -1.
     999902    2    1    2    0    0  0.15458727183E-01 -0.17262544490E-01 -0.56155790575E-02  0.10200867113E+01  0.10198080193E+01 0.  0.
     999903    2    3    3    0    0  0.86883029995E-01  0.25633384301E-01 -0.93587850409E-01  0.13178461613E+00  0.20069081008E-01 0.  0.
         14    1    1    2    0    0 -0.15458727183E-01  0.17262544490E-01  0.56155790575E-02  0.23843288710E-01  0.00000000000E+00 0. -1.
     999901    1    3    3    0    0 -0.71424302812E-01 -0.42895928791E-01  0.87972271351E-01  0.88830209516E+00  0.88000000000E+00 0.  1.
        -11    1    4    4    0    0  0.37226003269E-01  0.21304335586E-01 -0.41363388575E-01  0.59588934120E-01  0.51100000000E-03 0.  1.
         11    1    4    4    0    0  0.49657026725E-01  0.43290487152E-02 -0.52224461834E-01  0.72195682010E-01  0.51100000000E-03 0. -1.
</event>
<event>
 8    1  0.1108957E+005  0.1043930E+01  0.7957747E-01            NaN
         13   -1    0    0    0    0  0.00000000000E+00  0.00000000000E+00  0.74505805969E-08  0.10566000000E+00  0.10566000000E+00 0.  1.
     999900   -1    0    0    0    0 -0.00000000000E+00 -0.00000000000E+00 -0.74505805969E-08  0.93827000000E+00  0.93827000000E+00 0. -1.
     999902    2    1    2    0    0 -0.23739212965E-01 -0.53012430044E-02 -0.48494043889E-02  0.10191273765E+01  0.10188255196E+01 0.  0.
     999903    2    3    3    0    0 -0.65994369292E-02 -0.53101227695E-01 -0.11709855996E+00  0.13054508803E+00  0.21602183073E-01 0.  0.
         14    1    1    2    0    0  0.23739212965E-01  0.53012430044E-02  0.48494043889E-02  0.24802623501E-01  0.00000000000E+00 0. -1.
     999901    1    3    3    0    0 -0.17139776036E-01  0.47799984690E-01  0.11224915557E+00  0.88858228847E+00  0.88000000000E+00 0.  1.
        -11    1    4    4    0    0 -0.11151756490E-01 -0.29732563243E-01 -0.48898002987E-01  0.58306627469E-01  0.51100000000E-03 0. -1.
         11    1    4    4    0    0  0.45523195605E-02 -0.23368664452E-01 -0.68200556971E-01  0.72238460558E-01  0.51100000000E-03 0.  1.
</event>
<event>
 8    1  0.1108957E+005  0.1043930E+01  0.7957747E-01            NaN
         13   -1    0    0    0    0  0.00000000000E+00  0.00000000000E+00  0.74505805969E-08  0.10566000000E+00  0.10566000000E+00 0. -1.
     999900   -1    0    0    0    0 -0.00000000000E+00 -0.00000000000E+00 -0.74505805969E-08  0.93827000000E+00  0.93827000000E+00 0. -1.
     999902    2    1    2    0    0  0.17390844318E-01  0.54122202469E-02 -0.15147200368E-01  0.10202409461E+01  0.10199658901E+01 0.  0.
     999903    2    3    3    0    0  0.35531385057E-01  0.22063427613E-02 -0.12698916396E+00  0.13297098626E+00  0.16961372317E-01 0.  0.
         14    1    1    2    0    0 -0.17390844318E-01 -0.54122202469E-02  0.15147200368E-01  0.23689053867E-01  0.00000000000E+00 0. -1.
     999901    1    3    3    0    0 -0.18140540739E-01  0.32058774856E-02  0.11184196360E+00  0.88726995987E+00  0.88000000000E+00 0.  1.
        -11    1    4    4    0    0  0.22282920135E-01 -0.49390425076E-02 -0.93570129236E-01  0.96314863219E-01  0.51100000000E-03 0. -1.
         11    1    4    4    0    0  0.13248464922E-01  0.71453852689E-02 -0.33419034728E-01  0.36656123043E-01  0.51100000000E-03 0.  1.
</event>
<event>
 8    1  0.1108957E+005  0.1043930E+01  0.7957747E-01            NaN
         13   -1    0    0    0    0  0.00000000000E+00  0.00000000000E+00  0.74505805969E-08  0.10566000000E+00  0.10566000000E+00 0. -1.
     999900   -1    0    0    0    0 -0.00000000000E+00 -0.00000000000E+00 -0.74505805969E-08  0.93827000000E+00  0.93827000000E+00 0. -1.
     999902    2    1    2    0    0  0.24464832172E-01 -0.27289262571E-02  0.36826088050E-02  0.10190395066E+01  0.10187354806E+01 0.  0.
     999903    2    3    3    0    0  0.10840883033E+00 -0.72062258327E-01 -0.11818373060E-01  0.13219454489E+00  0.19755510307E-01 0.  0.
         14    1    1    2    0    0 -0.24464832172E-01  0.27289262571E-02 -0.36826088050E-02  0.24890493352E-01  0.00000000000E+00 0.  1.
     999901    1    3    3    0    0 -0.83943998157E-01  0.69333332070E-01  0.15500981865E-01  0.88684496176E+00  0.88000000000E+00 0. -1.
        -11    1    4    4    0    0  0.80431371314E-01 -0.46775724175E-01 -0.15395628177E-01  0.94310446672E-01  0.51100000000E-03 0. -1.
         11    1    4    4    0    0  0.27977459015E-01 -0.25286534151E-01  0.35772551170E-02  0.37884098214E-01  0.51100000000E-03 0.  1.
</event>
<event>
 8    1  0.1108957E+005  0.1043930E+01  0.7957747E-01            NaN
         13   -1    0    0    0    0  0.00000000000E+00  0.00000000000E+00  0.74505805969E-08  0.10566000000E+00  0.10566000000E+00 0. -1.
     999900   -1    0    0    0    0 -0.00000000000E+00 -0.00000000000E+00 -0.74505805969E-08  0.93827000000E+00  0.93827000000E+00 0. -1.
     999902    2    1    2    0    0 -0.19324715048E-01  0.95629873034E-02 -0.10377017574E-01  0.10200014014E+01  0.10197206877E+01 0.  0.
     999903    2    3    3    0    0 -0.56209405455E-01  0.10639879477E+00  0.50379376319E-01  0.13184094663E+00  0.19072306131E-01 0.  0.
         14    1    1    2    0    0  0.19324715048E-01 -0.95629873034E-02  0.10377017574E-01  0.23928598613E-01  0.00000000000E+00 0. -1.
     999901    1    3    3    0    0  0.36884690407E-01 -0.96835807462E-01 -0.60756393892E-01  0.88816045476E+00  0.88000000000E+00 0.  1.
        -11    1    4    4    0    0 -0.65435026287E-02  0.29856710524E-01  0.13711602607E-01  0.33503876746E-01  0.51100000000E-03 0. -1.
         11    1    4    4    0    0 -0.49665902827E-01  0.76542084242E-01  0.36667773712E-01  0.98337069885E-01  0.51100000000E-03 0.  1.
</event>
<event>
 8    1  0.1108957E+005  0.1043930E+01  0.7957747E-01            NaN
         13   -1    0    0    0    0  0.00000000000E+00  0.00000000000E+00  0.74505805969E-08  0.10566000000E+00  0.10566000000E+00 0. -1.
     999900   -1    0    0    0    0 -0.00000000000E+00 -0.00000000000E+00 -0.74505805969E-08  0.93827000000E+00  0.93827000000E+00 0. -1.
     999902    2    1    2    0    0  0.14623490957E-01  0.48800972437E-02 -0.19254817222E-01  0.10192640351E+01  0.10189655360E+01 0.  0.
     999903    2    3    3    0    0  0.99756914135E-01 -0.45746329569E-01  0.65961695741E-01  0.12961658309E+00  0.20133174616E-01 0.  0.
         14    1    1    2    0    0 -0.14623490957E-01 -0.48800972437E-02  0.19254817222E-01  0.24665964873E-01  0.00000000000E+00 0. -1.
     999901    1    3    3    0    0 -0.85133423178E-01  0.50626426812E-01 -0.85216512963E-01  0.88964745204E+00  0.88000000000E+00 0. -1.
        -11    1    4    4    0    0  0.38302059004E-01 -0.23519268187E-01  0.36623097316E-01  0.57980307674E-01  0.51100000000E-03 0. -1.
         11    1    4    4    0    0  0.61454855132E-01 -0.22227061381E-01  0.29338598425E-01  0.71636275416E-01  0.51100000000E-03 0.  1.
</event>
<event>
 8    1  0.1108957E+005  0.1043930E+01  0.7957747E-01            NaN
         13   -1    0    0    0    0  0.00000000000E+00  0.00000000000E+00  0.74505805969E-08  0.10566000000E+00  0.10566000000E+00 0.  1.
     999900   -1    0    0    0    0 -0.00000000000E+00 -0.00000000000E+00 -0.74505805969E-08  0.93827000000E+00  0.93827000000E+00 0. -1.
     999902    2    1    2    0    0 -0.57958909289E-02 -0.89834550587E-02  0.19827908014E-01  0.10214035544E+01  0.10211551205E+01 0.  0.
     999903    2    3    3    0    0  0.11325319103E+00  0.19551664229E-01 -0.56481282469E-01  0.12965805845E+00  0.20310686788E-01 0.  0.
         14    1    1    2    0    0  0.57958909289E-02  0.89834550587E-02 -0.19827908014E-01  0.22526445629E-01  0.00000000000E+00 0. -1.
     999901    1    3    3    0    0 -0.11904908196E+00 -0.28535119288E-01  0.76309190483E-01  0.89174549592E+00  0.88000000000E+00 0. -1.
        -11    1    4    4    0    0  0.40865613497E-01  0.16807923776E-01 -0.23706949923E-01  0.50147634678E-01  0.51100000000E-03 0. -1.
         11    1    4    4    0    0  0.72387577536E-01  0.27437404537E-02 -0.32774332546E-01  0.79510423770E-01  0.51100000000E-03 0.  1.
</event>
<event>
 8    1  0.1108957E+005  0.1043930E+01  0.7957747E-01            NaN
         13   -1    0    0    0    0  0.00000000000E+00  0.00000000000E+00  0.74505805969E-08  0.10566000000E+00  0.10566000000E+00 0. -1.
     999900   -1    0    0    0    0 -0.00000000000E+00 -0.00000000000E+00 -0.74505805969E-08  0.93827000000E+00  0.93827000000E+00 0. -1.
     999902    2    1    2    0    0  0.41628934896E-02 -0.22940972558E-01  0.87879532713E-03  0.10205978294E+01  0.10203310929E+01 0.  0.
     999903    2    3    3    0    0 -0.12341217446E+00 -0.32734928863E-01 -0.21605509428E-01  0.13106038583E+00  0.20196195765E-01 0.  0.
         14    1    1    2    0    0 -0.41628934896E-02  0.22940972558E-01 -0.87879532713E-03  0.23332170609E-01  0.00000000000E+00 0. -1.
     999901    1    3    3    0    0  0.12757506795E+00  0.97939563048E-02  0.22484304755E-01  0.88953744356E+00  0.88000000000E+00 0. -1.
        -11    1    4    4    0    0 -0.50587890851E-01 -0.12102060331E-01 -0.18816573444E-01  0.55316535703E-01  0.51100000000E-03 0.  1.
         11    1    4    4    0    0 -0.72824283607E-01 -0.20632868531E-01 -0.27889359847E-02  0.75743850124E-01  0.51100000000E-03 0. -1.
</event>
<event>
 8    1  0.1108957E+005  0.1043930E+01  0.7957747E-01            NaN
         13   -1    0    0    0    0  0.00000000000E+00  0.00000000000E+00  0.74505805969E-08  0.10566000000E+00  0.10566000000E+00 0.  1.
     999900   -1    0    0    0    0 -0.00000000000E+00 -0.00000000000E+00 -0.74505805969E-08  0.93827000000E+00  0.93827000000E+00 0.  1.
     999902    2    1    2    0    0 -0.95951574127E-02 -0.10850238836E-02 -0.21796399953E-01  0.10200903823E+01  0.10198117771E+01 0.  0.
     999903    2    3    3    0    0  0.11421798791E+00 -0.22898344411E-01 -0.55265831968E-01  0.13052547807E+00  0.20310226534E-01 0.  0.
         14    1    1    2    0    0  0.95951574127E-02  0.10850238836E-02  0.21796399953E-01  0.23839617730E-01  0.00000000000E+00 0.  1.
     999901    1    3    3    0    0 -0.12381314533E+00  0.21813320527E-01  0.33469432015E-01  0.88956490420E+00  0.88000000000E+00 0.  1.
        -11    1    4    4    0    0  0.10627535711E+00 -0.16802693346E-01 -0.54102492606E-01  0.12043306382E+00  0.51100000000E-03 0. -1.
         11    1    4    4    0    0  0.79426308025E-02 -0.60956510647E-02 -0.11633393620E-02  0.10092414252E-01  0.51100000000E-03 0.  1.
</event>
<event>
 8    1  0.1108957E+005  0.1043930E+01  0.7957747E-01            NaN
         13   -1    0    0    0    0  0.00000000000E+00  0.00000000000E+00  0.74505805969E-08  0.10566000000E+00  0.10566000000E+00 0. -1.
     999900   -1    0    0    0    0 -0.00000000000E+00 -0.00000000000E+00 -0.74505805969E-08  0.93827000000E+00  0.93827000000E+00 0.  1.
     999902    2    1    2    0    0  0.28205050160E-02 -0.23283774277E-01 -0.34200177779E-02  0.10202279766E+01  0.10199526157E+01 0.  0.
     999903    2    3    3    0    0  0.59200833146E-01  0.40261411177E-01  0.10541823986E+00  0.12946285696E+00  0.22845265631E-01 0.  0.
         14    1    1    2    0    0 -0.28205050160E-02  0.23283774277E-01  0.34200177779E-02  0.23702023431E-01  0.00000000000E+00 0.  1.
     999901    1    3    3    0    0 -0.56380328130E-01 -0.63545185454E-01 -0.10883825763E+00  0.89076511961E+00  0.88000000000E+00 0.  1.
        -11    1    4    4    0    0  0.19816191323E-01  0.24020848573E-01  0.57120291665E-01  0.65058984358E-01  0.51100000000E-03 0. -1.
         11    1    4    4    0    0  0.39384641823E-01  0.16240562603E-01  0.48297948190E-01  0.64403872598E-01  0.51100000000E-03 0.  1.
</event>
<event>
 8    1  0.1108957E+005  0.1043930E+01  0.7957747E-01            NaN
         13   -1    0    0    0    0  0.00000000000E+00  0.00000000000E+00  0.74505805969E-08  0.10566000000E+00  0.10566000000E+00 0. -1.
     999900   -1    0    0    0    0 -0.00000000000E+00 -0.00000000000E+00 -0.74505805969E-08  0.93827000000E+00  0.93827000000E+00 0. -1.
     999902    2    1    2    0    0 -0.98428666282E-02 -0.12973093436E-01 -0.18587702551E-01  0.10192179409E+01  0.10189183114E+01 0.  0.
     999903    2    3    3    0    0 -0.61104737765E-01  0.17250786837E-01  0.10935721745E+00  0.12797657917E+00  0.19688199138E-01 0.  0.
         14    1    1    2    0    0  0.98428666282E-02  0.12973093436E-01  0.18587702551E-01  0.24712059058E-01  0.00000000000E+00 0. -1.
     999901    1    3    3    0    0  0.51261871137E-01 -0.30223880273E-01 -0.12794492000E+00  0.89124136177E+00  0.88000000000E+00 0. -1.
        -11    1    4    4    0    0 -0.89862963897E-02  0.24940918016E-02  0.33405406935E-01  0.34686544224E-01  0.51100000000E-03 0.  1.
         11    1    4    4    0    0 -0.52118441376E-01  0.14756695036E-01  0.75951810513E-01  0.93290034950E-01  0.51100000000E-03 0. -1.
</event>
<event>
 8    1  0.1108957E+005  0.1043930E+01  0.7957747E-01            NaN
         13   -1    0    0    0    0  0.00000000000E+00  0.00000000000E+00  0.74505805969E-08  0.10566000000E+00  0.10566000000E+00 0.  1.
     999900   -1    0    0    0    0 -0.00000000000E+00 -0.00000000000E+00 -0.74505805969E-08  0.93827000000E+00  0.93827000000E+00 0.  1.
     999902    2    1    2    0    0  0.22586801605E-01  0.78893975289E-02  0.89688862928E-03  0.10199881828E+01  0.10197071553E+01 0.  0.
     999903    2    3    3    0    0 -0.16224977179E-01  0.83259262784E-02  0.12732550257E+00  0.13010575287E+00  0.19574278838E-01 0.  0.
         14    1    1    2    0    0 -0.22586801605E-01 -0.78893975289E-02 -0.89688862928E-03  0.23941817168E-01  0.00000000000E+00 0. -1.
     999901    1    3    3    0    0  0.38811778784E-01 -0.43652874942E-03 -0.12642861394E+00  0.88988242996E+00  0.88000000000E+00 0.  1.
        -11    1    4    4    0    0 -0.68198993695E-02  0.11974581235E-01  0.42506567135E-01  0.44687481399E-01  0.51100000000E-03 0.  1.
         11    1    4    4    0    0 -0.94050778100E-02 -0.36486549570E-02  0.84818935437E-01  0.85418271472E-01  0.51100000000E-03 0. -1.
</event>
<event>
 8    1  0.1108957E+005  0.1043930E+01  0.7957747E-01            NaN
         13   -1    0    0    0    0  0.00000000000E+00  0.00000000000E+00  0.74505805969E-08  0.10566000000E+00  0.10566000000E+00 0.  1.
     999900   -1    0    0    0    0 -0.00000000000E+00 -0.00000000000E+00 -0.74505805969E-08  0.93827000000E+00  0.93827000000E+00 0. -1.
     999902    2    1    2    0    0  0.11380663255E-01  0.13157541768E-01 -0.11272061689E-01  0.10232007989E+01  0.10229907992E+01 0.  0.
     999903    2    3    3    0    0 -0.22382869646E-01 -0.11536483333E+00 -0.56757513646E-01  0.13206281671E+00  0.20227075362E-01 0.  0.
         14    1    1    2    0    0 -0.11380663255E-01 -0.13157541768E-01  0.11272061689E-01  0.20729201051E-01  0.00000000000E+00 0.  1.
     999901    1    3    3    0    0  0.33763532902E-01  0.12852237510E+00  0.45485451957E-01  0.89113798224E+00  0.88000000000E+00 0.  1.
        -11    1    4    4    0    0 -0.76783226101E-02 -0.77413681771E-01 -0.44157145110E-01  0.89453615627E-01  0.51100000000E-03 0. -1.
         11    1    4    4    0    0 -0.14704547036E-01 -0.37951151561E-01 -0.12600368536E-01  0.42609201079E-01  0.51100000000E-03 0.  1.
</event>
<event>
 8    1  0.1108957E+005  0.1043930E+01  0.7957747E-01            NaN
         13   -1    0    0    0    0  0.00000000000E+00  0.00000000000E+00  0.74505805969E-08  0.10566000000E+00  0.10566000000E+00 0. -1.
     999900   -1    0    0    0    0 -0.00000000000E+00 -0.00000000000E+00 -0.74505805969E-08  0.93827000000E+00  0.93827000000E+00 0.  1.
     999902    2    1    2    0    0  0.20594487030E-01  0.11287555011E-01  0.77398726651E-03  0.10204323224E+01  0.10201617440E+01 0.  0.
     999903    2    3    3    0    0 -0.10475208227E+00  0.72599459949E-01 -0.10461235934E-01  0.12936714954E+00  0.19563782845E-01 0.  0.
         14    1    1    2    0    0 -0.20594487030E-01 -0.11287555011E-01 -0.77398726651E-03  0.23497677554E-01  0.00000000000E+00 0. -1.
     999901    1    3    3    0    0  0.12534656930E+00 -0.61311904938E-01  0.11235223200E-01  0.89106517290E+00  0.88000000000E+00 0.  1.
        -11    1    4    4    0    0 -0.45372479460E-01  0.42670377548E-01 -0.82659388173E-02  0.62833190894E-01  0.51100000000E-03 0.  1.
         11    1    4    4    0    0 -0.59379602808E-01  0.29929082401E-01 -0.21952971162E-02  0.66533958649E-01  0.51100000000E-03 0. -1.
</event>
<event>
 8    1  0.1108957E+005  0.1043930E+01  0.7957747E-01            NaN
         13   -1    0    0    0    0  0.00000000000E+00  0.00000000000E+00  0.74505805969E-08  0.10566000000E+00  0.10566000000E+00 0. -1.
     999900   -1    0    0    0    0 -0.00000000000E+00 -0.00000000000E+00 -0.74505805969E-08  0.93827000000E+00  0.93827000000E+00 0. -1.
     999902    2    1    2    0    0  0.89452238475E-02 -0.20759801836E-01 -0.36820424517E-02  0.10210270779E+01  0.10207701749E+01 0.  0.
     999903    2    3    3    0    0 -0.76756438309E-01  0.88932229163E-01 -0.49265942321E-01  0.12892001683E+00  0.19817806686E-01 0.  0.
         14    1    1    2    0    0 -0.89452238475E-02  0.20759801836E-01  0.36820424517E-02  0.22902922053E-01  0.00000000000E+00 0.  1.
     999901    1    3    3    0    0  0.85701662156E-01 -0.10969203100E+00  0.45583899869E-01  0.89210706111E+00  0.88000000000E+00 0.  1.
        -11    1    4    4    0    0 -0.47892714654E-01  0.41148682830E-01 -0.22766098541E-01  0.67122891619E-01  0.51100000000E-03 0. -1.
         11    1    4    4    0    0 -0.28863723655E-01  0.47783546333E-01 -0.26499843780E-01  0.61797125214E-01  0.51100000000E-03 0.  1.
</event>
<event>
 8    1  0.1108957E+005  0.1043930E+01  0.7957747E-01            NaN
         13   -1    0    0    0    0  0.00000000000E+00  0.00000000000E+00  0.74505805969E-08  0.10566000000E+00  0.10566000000E+00 0. -1.
     999900   -1    0    0    0    0 -0.00000000000E+00 -0.00000000000E+00 -0.74505805969E-08  0.93827000000E+00  0.93827000000E+00 0.  1.
     999902    2    1    2    0    0 -0.18840107827E-02  0.16966468374E-01 -0.17222666235E-01  0.10196806541E+01  0.10193922726E+01 0.  0.
     999903    2    3    3    0    0 -0.25945629237E-01  0.12776162804E+00  0.49943797784E-02  0.13212889444E+00  0.20901953034E-01 0.  0.
         14    1    1    2    0    0  0.18840107827E-02 -0.16966468374E-01  0.17222666235E-01  0.24249345928E-01  0.00000000000E+00 0.  1.
     999901    1    3    3    0    0  0.24061618454E-01 -0.11079515967E+00 -0.22217046013E-01  0.88755175963E+00  0.88000000000E+00 0. -1.
        -11    1    4    4    0    0 -0.15074464468E-01  0.11086242882E+00  0.29217846640E-02  0.11192191720E+00  0.51100000000E-03 0. -1.
         11    1    4    4    0    0 -0.10871164769E-01  0.16899199220E-01  0.20725951143E-02  0.20206977241E-01  0.51100000000E-03 0.  1.
</event>
<event>
 8    1  0.1108957E+005  0.1043930E+01  0.7957747E-01            NaN
         13   -1    0    0    0    0  0.00000000000E+00  0.00000000000E+00  0.74505805969E-08  0.10566000000E+00  0.10566000000E+00 0.  1.
     999900   -1    0    0    0    0 -0.00000000000E+00 -0.00000000000E+00 -0.74505805969E-08  0.93827000000E+00  0.93827000000E+00 0.  1.
     999902    2    1    2    0    0 -0.15525335895E-02  0.70384848797E-02  0.22558752108E-01  0.10202477719E+01  0.10199728762E+01 0.  0.
     999903    2    3    3    0    0 -0.19199477826E-01  0.77054826750E-01 -0.99569521239E-01  0.12888419968E+00  0.19773241865E-01 0.  0.
         14    1    1    2    0    0  0.15525335895E-02 -0.70384848797E-02 -0.22558752108E-01  0.23682228075E-01  0.00000000000E+00 0. -1.
     999901    1    3    3    0    0  0.17646944236E-01 -0.70016341870E-01  0.12212827335E+00  0.89136357224E+00  0.88000000000E+00 0. -1.
        -11    1    4    4    0    0 -0.79374767041E-02  0.36260800770E-01 -0.31286206542E-01  0.48548296053E-01  0.51100000000E-03 0.  1.
         11    1    4    4    0    0 -0.11262001121E-01  0.40794025980E-01 -0.68283314697E-01  0.80335903629E-01  0.51100000000E-03 0. -1.
</event>
<event>
 8    1  0.1108957E+005  0.1043930E+01  0.7957747E-01            NaN
         13   -1    0    0    0    0  0.00000000000E+00  0.00000000000E+00  0.74505805969E-08  0.10566000000E+00  0.10566000000E+00 0. -1.
     999900   -1    0    0    0    0 -0.00000000000E+00 -0.00000000000E+00 -0.74505805969E-08  0.93827000000E+00  0.93827000000E+00 0. -1.
     999902    2    1    2    0    0 -0.53297586732E-02 -0.13755671433E-01  0.16230512600E-01  0.10219970485E+01  0.10217616712E+01 0.  0.
     999903    2    3    3    0    0  0.24358328485E-01 -0.46538816868E-01  0.12198880162E+00  0.13456201825E+00  0.21598134038E-01 0.  0.
         14    1    1    2    0    0  0.53297586732E-02  0.13755671433E-01 -0.16230512600E-01  0.21932951542E-01  0.00000000000E+00 0.  1.
     999901    1    3    3    0    0 -0.29688087158E-01  0.32783145435E-01 -0.10575828902E+00  0.88743503021E+00  0.88000000000E+00 0.  1.
        -11    1    4    4    0    0  0.19254999085E-03 -0.16089204547E-01  0.52790428713E-01  0.55190488883E-01  0.51100000000E-03 0.  1.
         11    1    4    4    0    0  0.24165778494E-01 -0.30449612322E-01  0.69198372902E-01  0.79371529367E-01  0.51100000000E-03 0. -1.
</event>
<event>
 8    1  0.1108957E+005  0.1043930E+01  0.7957747E-01            NaN
         13   -1    0    0    0    0  0.00000000000E+00  0.00000000000E+00  0.74505805969E-08  0.10566000000E+00  0.10566000000E+00 0. -1.
     999900   -1    0    0    0    0 -0.00000000000E+00 -0.00000000000E+00 -0.74505805969E-08  0.93827000000E+00  0.93827000000E+00 0.  1.
     999902    2    1    2    0    0 -0.95896509685E-02 -0.21835332274E-01 -0.47105584819E-02  0.10196208967E+01  0.10193310750E+01 0.  0.
     999903    2    3    3    0    0 -0.12243246767E+00 -0.29590322867E-01  0.32378600750E-01  0.13160668124E+00  0.20165525346E-01 0.  0.
         14    1    1    2    0    0  0.95896509685E-02  0.21835332274E-01  0.47105584819E-02  0.24309103283E-01  0.00000000000E+00 0. -1.
     999901    1    3    3    0    0  0.11284281670E+00  0.77549905933E-02 -0.37089159232E-01  0.88801421548E+00  0.88000000000E+00 0.  1.
        -11    1    4    4    0    0 -0.68239199647E-01 -0.16421796225E-01  0.28318170451E-01  0.75686482666E-01  0.51100000000E-03 0. -1.
         11    1    4    4    0    0 -0.54193268025E-01 -0.13168526642E-01  0.40604302991E-02  0.55920198572E-01  0.51100000000E-03 0.  1.
</event>
<event>
 8    1  0.1108957E+005  0.1043930E+01  0.7957747E-01            NaN
         13   -1    0    0    0    0  0.00000000000E+00  0.00000000000E+00  0.74505805969E-08  0.10566000000E+00  0.10566000000E+00 0. -1.
     999900   -1    0    0    0    0 -0.00000000000E+00 -0.00000000000E+00 -0.74505805969E-08  0.93827000000E+00  0.93827000000E+00 0.  1.
     999902    2    1    2    0    0 -0.95385893534E-02 -0.20920742543E-01  0.46268747585E-02  0.10204764262E+01  0.10202068742E+01 0.  0.
     999903    2    3    3    0    0  0.60430726057E-01  0.86557403033E-02  0.11362256417E+00  0.13050421663E+00  0.19861243103E-01 0.  0.
         14    1    1    2    0    0  0.95385893534E-02  0.20920742543E-01 -0.46268747585E-02  0.23453573831E-01  0.00000000000E+00 0.  1.
     999901    1    3    3    0    0 -0.69969315410E-01 -0.29576482846E-01 -0.10899568941E+00  0.88997220954E+00  0.88000000000E+00 0.  1.
        -11    1    4    4    0    0  0.16696407825E-01 -0.16695826308E-02  0.48967156950E-01  0.51764863770E-01  0.51100000000E-03 0.  1.
         11    1    4    4    0    0  0.43734318232E-01  0.10325322934E-01  0.64655407223E-01  0.78739352862E-01  0.51100000000E-03 0. -1.
</event>
<event>
 8    1  0.1108957E+005  0.1043930E+01  0.7957747E-01            NaN
         13   -1    0    0    0    0  0.00000000000E+00  0.00000000000E+00  0.74505805969E-08  0.10566000000E+00  0.10566000000E+00 0.  1.
     999900   -1    0    0    0    0 -0.00000000000E+00 -0.00000000000E+00 -0.74505805969E-08  0.93827000000E+00  0.93827000000E+00 0. -1.
     999902    2    1    2    0    0  0.14884103092E-01 -0.19057526785E-01  0.29486225536E-02  0.10195697819E+01  0.10192787253E+01 0.  0.
     999903    2    3    3    0    0 -0.28818516853E-02 -0.13054589616E+00 -0.84868040399E-02  0.13228400230E+00  0.19403488069E-01 0.  0.
         14    1    1    2    0    0 -0.14884103092E-01  0.19057526785E-01 -0.29486225536E-02  0.24360218123E-01  0.00000000000E+00 0. -1.
     999901    1    3    3    0    0  0.17765954777E-01  0.11148836937E+00  0.11435426594E-01  0.88728577958E+00  0.88000000000E+00 0. -1.
        -11    1    4    4    0    0 -0.34080844332E-02 -0.87755555556E-02 -0.44983996028E-02  0.10446154067E-01  0.51100000000E-03 0. -1.
         11    1    4    4    0    0  0.52623274787E-03 -0.12177034060E+00 -0.39884044371E-02  0.12183784824E+00  0.51100000000E-03 0.  1.
</event>
<event>
 8    1  0.1108957E+005  0.1043930E+01  0.7957747E-01            NaN
         13   -1    0    0    0    0  0.00000000000E+00  0.00000000000E+00  0.74505805969E-08  0.10566000000E+00  0.10566000000E+00 0.  1.
     999900   -1    0    0    0    0 -0.00000000000E+00 -0.00000000000E+00 -0.74505805969E-08  0.93827000000E+00  0.93827000000E+00 0.  1.
     999902    2    1    2    0    0  0.40216066930E-02  0.21152722799E-01 -0.32587602856E-02  0.10221531655E+01  0.10219211629E+01 0.  0.
     999903    2    3    3    0    0  0.11208202951E+00  0.37792875835E-01  0.58018759078E-01  0.13327247381E+00  0.20116984565E-01 0.  0.
         14    1    1    2    0    0 -0.40216066930E-02 -0.21152722799E-01  0.32587602856E-02  0.21776834500E-01  0.00000000000E+00 0.  1.
     999901    1    3    3    0    0 -0.10806042282E+00 -0.16640153035E-01 -0.61277519363E-01  0.88888069169E+00  0.88000000000E+00 0.  1.
        -11    1    4    4    0    0  0.91232749861E-01  0.25303926920E-01  0.38951352648E-01  0.10237759696E+00  0.51100000000E-03 0.  1.
         11    1    4    4    0    0  0.20849279652E-01  0.12488948915E-01  0.19067406429E-01  0.30894876856E-01  0.51100000000E-03 0. -1.
</event>
<event>
 8    1  0.1108957E+005  0.1043930E+01  0.7957747E-01            NaN
         13   -1    0    0    0    0  0.00000000000E+00  0.00000000000E+00  0.74505805969E-08  0.10566000000E+00  0.10566000000E+00 0.  1.
     999900   -1    0    0    0    0 -0.00000000000E+00 -0.00000000000E+00 -0.74505805969E-08  0.93827000000E+00  0.93827000000E+00 0. -1.
     999902    2    1    2    0    0 -0.18067136957E-01  0.49680910356E-02 -0.42689182715E-02  0.10247121169E+01  0.10245318909E+01 0.  0.
     999903    2    3    3    0    0 -0.25605438818E-02  0.67607966989E-01  0.11207914840E+00  0.13471150957E+00  0.31749987719E-01 0.  0.
         14    1    1    2    0    0  0.18067136957E-01 -0.49680910356E-02  0.42689182715E-02  0.19217883067E-01  0.00000000000E+00 0. -1.
     999901    1    3    3    0    0 -0.15506593075E-01 -0.62639875953E-01 -0.11634806667E+00  0.89000060736E+00  0.88000000000E+00 0.  1.
        -11    1    4    4    0    0  0.76557151522E-02  0.30363146420E-01  0.27289979790E-01  0.41539556485E-01  0.51100000000E-03 0.  1.
         11    1    4    4    0    0 -0.10216259034E-01  0.37244820569E-01  0.84789168607E-01  0.93171953086E-01  0.51100000000E-03 0. -1.
</event>
<event>
 8    1  0.1108957E+005  0.1043930E+01  0.7957747E-01            NaN
         13   -1    0    0    0    0  0.00000000000E+00  0.00000000000E+00  0.74505805969E-08  0.10566000000E+00  0.10566000000E+00 0.  1.
     999900   -1    0    0    0    0 -0.00000000000E+00 -0.00000000000E+00 -0.74505805969E-08  0.93827000000E+00  0.93827000000E+00 0. -1.
     999902    2    1    2    0    0 -0.10781326272E-02  0.31044925802E-02 -0.22002569282E-01  0.10216833531E+01  0.10214411195E+01 0.  0.
     999903    2    3    3    0    0  0.17346163101E-01  0.10409939815E-01 -0.13159439207E+00  0.13466407942E+00  0.20200842568E-01 0.  0.
         14    1    1    2    0    0  0.10781326272E-02 -0.31044925802E-02  0.22002569282E-01  0.22246646919E-01  0.00000000000E+00 0.  1.
     999901    1    3    3    0    0 -0.18424295729E-01 -0.73054472345E-02  0.10959182278E+00  0.88701927367E+00  0.88000000000E+00 0.  1.
        -11    1    4    4    0    0  0.15359146239E-01  0.11663298981E-01 -0.59916584765E-01  0.62945962279E-01  0.51100000000E-03 0. -1.
         11    1    4    4    0    0  0.19870168619E-02 -0.12533591663E-02 -0.71677807301E-01  0.71718117137E-01  0.51100000000E-03 0.  1.
</event>
<event>
 8    1  0.1108957E+005  0.1043930E+01  0.7957747E-01            NaN
         13   -1    0    0    0    0  0.00000000000E+00  0.00000000000E+00  0.74505805969E-08  0.10566000000E+00  0.10566000000E+00 0. -1.
     999900   -1    0    0    0    0 -0.00000000000E+00 -0.00000000000E+00 -0.74505805969E-08  0.93827000000E+00  0.93827000000E+00 0. -1.
     999902    2    1    2    0    0  0.84474902240E-02 -0.21545275495E-01 -0.44234841637E-02  0.10203688837E+01  0.10200968252E+01 0.  0.
     999903    2    3    3    0    0  0.12233355989E+00 -0.31816105725E-01 -0.33705157449E-01  0.13248772998E+00  0.20957015432E-01 0.  0.
         14    1    1    2    0    0 -0.84474902240E-02  0.21545275495E-01  0.44234841637E-02  0.23561116259E-01  0.00000000000E+00 0.  1.
     999901    1    3    3    0    0 -0.11388606967E+00  0.10270830230E-01  0.29281673286E-01  0.88788115376E+00  0.88000000000E+00 0. -1.
        -11    1    4    4    0    0  0.38057617020E-01 -0.19948022729E-01 -0.13023896303E-01  0.44901991269E-01  0.51100000000E-03 0.  1.
         11    1    4    4    0    0  0.84275942874E-01 -0.11868082996E-01 -0.20681261147E-01  0.87585738708E-01  0.51100000000E-03 0. -1.
</event>
<event>
 8    1  0.1108957E+005  0.1043930E+01  0.7957747E-01            NaN
         13   -1    0    0    0    0  0.00000000000E+00  0.00000000000E+00  0.74505805969E-08  0.10566000000E+00  0.10566000000E+00 0.  1.
     999900   -1    0    0    0    0 -0.00000000000E+00 -0.00000000000E+00 -0.74505805969E-08  0.93827000000E+00  0.93827000000E+00 0.  1.
     999902    2    1    2    0    0  0.30598317492E-02 -0.10774921621E-02  0.23126194889E-01  0.10205773888E+01  0.10203101794E+01 0.  0.
     999903    2    3    3    0    0 -0.93908289553E-01  0.37304998823E-01 -0.76882808979E-01  0.12879387639E+00  0.21597835404E-01 0.  0.
         14    1    1    2    0    0 -0.30598317492E-02  0.10774921621E-02 -0.23126194889E-01  0.23352611197E-01  0.00000000000E+00 0. -1.
     999901    1    3    3    0    0  0.96968121303E-01 -0.38382490985E-01  0.10000900387E+00  0.89178351242E+00  0.88000000000E+00 0. -1.
        -11    1    4    4    0    0 -0.77110104426E-01  0.38880849914E-01 -0.62278723851E-01  0.10647342044E+00  0.51100000000E-03 0. -1.
         11    1    4    4    0    0 -0.16798185127E-01 -0.15758510914E-02 -0.14604085128E-01  0.22320455947E-01  0.51100000000E-03 0.  1.
</event>
<event>
 8    1  0.1108957E+005  0.1043930E+01  0.7957747E-01            NaN
         13   -1    0    0    0    0  0.00000000000E+00  0.00000000000E+00  0.74505805969E-08  0.10566000000E+00  0.10566000000E+00 0. -1.
     999900   -1    0    0    0    0 -0.00000000000E+00 -0.00000000000E+00 -0.74505805969E-08  0.93827000000E+00  0.93827000000E+00 0. -1.
     999902    2    1    2    0    0  0.94678637321E-02  0.23828392612E-02  0.21833718489E-01  0.10200128591E+01  0.10197324174E+01 0.  0.
     999903    2    3    3    0    0  0.85337721341E-01  0.94621025562E-01 -0.23611615631E-01  0.13078319432E+00  0.17637186878E-01 0.  0.
         14    1    1    2    0    0 -0.94678637321E-02 -0.23828392612E-02 -0.21833718489E-01  0.23917140917E-01  0.00000000000E+00 0.  1.
     999901    1    3    3    0    0 -0.75869857609E-01 -0.92238186301E-01  0.45445334120E-01  0.88922966477E+00  0.88000000000E+00 0. -1.
        -11    1    4    4    0    0  0.66627983875E-01  0.64715921287E-01 -0.22063718934E-01  0.95469929912E-01  0.51100000000E-03 0.  1.
         11    1    4    4    0    0  0.18709737467E-01  0.29905104275E-01 -0.15478966975E-02  0.35313264405E-01  0.51100000000E-03 0. -1.
</event>
<event>
 8    1  0.1108957E+005  0.1043930E+01  0.7957747E-01            NaN
         13   -1    0    0    0    0  0.00000000000E+00  0.00000000000E+00  0.74505805969E-08  0.10566000000E+00  0.10566000000E+00 0. -1.
     999900   -1    0    0    0    0 -0.00000000000E+00 -0.00000000000E+00 -0.74505805969E-08  0.93827000000E+00  0.93827000000E+00 0. -1.
     999902    2    1    2    0    0 -0.51949821102E-03  0.21318583484E-01 -0.10320136000E-01  0.10202391349E+01  0.10199640363E+01 0.  0.
     999903    2    3    3    0    0 -0.86470866624E-01  0.44057332938E-01 -0.87776464622E-01  0.13237418389E+00  0.19998936454E-01 0.  0.
         14    1    1    2    0    0  0.51949821102E-03 -0.21318583484E-01  0.10320136000E-01  0.23690865059E-01  0.00000000000E+00 0.  1.
     999901    1    3    3    0    0  0.85951368413E-01 -0.22738749454E-01  0.77456328621E-01  0.88786495105E+00  0.88000000000E+00 0.  1.
        -11    1    4    4    0    0 -0.76563906530E-02  0.61298642139E-02 -0.17920235050E-01  0.20435055624E-01  0.51100000000E-03 0.  1.
         11    1    4    4    0    0 -0.78814475971E-01  0.37927468724E-01 -0.69856229571E-01  0.11193912827E+00  0.51100000000E-03 0. -1.
</event>
<event>
 8    1  0.1108957E+005  0.1043930E+01  0.7957747E-01            NaN
         13   -1    0    0    0    0  0.00000000000E+00  0.00000000000E+00  0.74505805969E-08  0.10566000000E+00  0.10566000000E+00 0. -1.
     999900   -1    0    0    0    0 -0.00000000000E+00 -0.00000000000E+00 -0.74505805969E-08  0.93827000000E+00  0.93827000000E+00 0.  1.
     999902    2    1    2    0    0 -0.85905847364E-02 -0.20528528042E-01  0.84376374198E-02  0.10201305812E+01  0.10198529259E+01 0.  0.
     999903    2    3    3    0    0 -0.49440937662E-01 -0.10110667947E+00  0.68874290197E-01  0.13344338787E+00  0.19912382231E-01 0.  0.
         14    1    1    2    0    0  0.85905847364E-02  0.20528528042E-01 -0.84376374198E-02  0.23799418793E-01  0.00000000000E+00 0.  1.
     999901    1    3    3    0    0  0.40850352925E-01  0.80578151431E-01 -0.60436652777E-01  0.88668719333E+00  0.88000000000E+00 0.  1.
        -11    1    4    4    0    0 -0.24842911012E-01 -0.46309296261E-01  0.43558665006E-01  0.68259355152E-01  0.51100000000E-03 0. -1.
         11    1    4    4    0    0 -0.24598026650E-01 -0.54797383212E-01  0.25315625190E-01  0.65184032721E-01  0.51100000000E-03 0.  1.
</event>
<event>
 8    1  0.1108957E+005  0.1043930E+01  0.7957747E-01            NaN
         13   -1    0    0    0    0  0.00000000000E+00  0.00000000000E+00  0.74505805969E-08  0.10566000000E+00  0.10566000000E+00 0.  1.
     999900   -1    0    0    0    0 -0.00000000000E+00 -0.00000000000E+00 -0.74505805969E-08  0.93827000000E+00  0.93827000000E+00 0.  1.
     999902    2    1    2    0    0  0.58826297882E-02  0.21981641978E-01 -0.14369169563E-02  0.10211295033E+01  0.10208749189E+01 0.  0.
     999903    2    3    3    0    0  0.12202233870E+00  0.33810907385E-01  0.35218794090E-01  0.13266340683E+00  0.18071730825E-01 0.  0.
         14    1    1    2    0    0 -0.58826297882E-02 -0.21981641978E-01  0.14369169563E-02  0.22800496653E-01  0.00000000000E+00 0.  1.
     999901    1    3    3    0    0 -0.11613970891E+00 -0.11829265406E-01 -0.36655711046E-01  0.88846609652E+00  0.88000000000E+00 0.  1.
        -11    1    4    4    0    0  0.67326729658E-01  0.21565603992E-01  0.28436072137E-01  0.76202592617E-01  0.51100000000E-03 0.  1.
         11    1    4    4    0    0  0.54695609042E-01  0.12245303393E-01  0.67827219523E-02  0.56460814214E-01  0.51100000000E-03 0. -1.
</event>
<event>
 8    1  0.1108957E+005  0.1043930E+01  0.7957747E-01            NaN
         13   -1    0    0    0    0  0.00000000000E+00  0.00000000000E+00  0.74505805969E-08  0.10566000000E+00  0.10566000000E+00 0.  1.
     999900   -1    0    0    0    0 -0.00000000000E+00 -0.00000000000E+00 -0.74505805969E-08  0.93827000000E+00  0.93827000000E+00 0.  1.
     999902    2    1    2    0    0  0.14673248173E-01 -0.11087474535E-01  0.14500391463E-01  0.10205099732E+01  0.10202412008E+01 0.  0.
     999903    2    3    3    0    0 -0.89963817972E-01 -0.38255972720E-01  0.84781766911E-01  0.13111325931E+00  0.21112337027E-01 0.  0.
         14    1    1    2    0    0 -0.14673248173E-01  0.11087474535E-01 -0.14500391463E-01  0.23420026817E-01  0.00000000000E+00 0. -1.
     999901    1    3    3    0    0  0.10463706615E+00  0.27168498184E-01 -0.70281375448E-01  0.88939671387E+00  0.88000000000E+00 0.  1.
        -11    1    4    4    0    0 -0.62259334601E-01 -0.20748487090E-01  0.45027403185E-01  0.79589274529E-01  0.51100000000E-03 0. -1.
         11    1    4    4    0    0 -0.27704483371E-01 -0.17507485630E-01  0.39754363726E-01  0.51523984786E-01  0.51100000000E-03 0.  1.
</event>
<event>
 8    1  0.1108957E+005  0.1043930E+01  0.7957747E-01            NaN
         13   -1    0    0    0    0  0.00000000000E+00  0.00000000000E+00  0.74505805969E-08  0.10566000000E+00  0.10566000000E+00 0. -1.
     999900   -1    0    0    0    0 -0.00000000000E+00 -0.00000000000E+00 -0.74505805969E-08  0.93827000000E+00  0.93827000000E+00 0. -1.
     999902    2    1    2    0    0 -0.15305257734E-02  0.68313587776E-02  0.22065300333E-01  0.10207807570E+01  0.10205182343E+01 0.  0.
     999903    2    3    3    0    0 -0.74176455425E-02 -0.39114600020E-01 -0.12042960944E+00  0.12811593267E+00  0.18039622343E-01 0.  0.
         14    1    1    2    0    0  0.15305257734E-02 -0.68313587776E-02 -0.22065300333E-01  0.23149242983E-01  0.00000000000E+00 0.  1.
     999901    1    3    3    0    0  0.58871197691E-02  0.45945958798E-01  0.14249490977E+00  0.89266482434E+00  0.88000000000E+00 0.  1.
        -11    1    4    4    0    0 -0.95559827811E-02 -0.12707241773E-01 -0.61113555694E-01  0.63149969208E-01  0.51100000000E-03 0. -1.
         11    1    4    4    0    0  0.21383372386E-02 -0.26407358248E-01 -0.59316053748E-01  0.64965963465E-01  0.51100000000E-03 0.  1.
</event>
<event>
 8    1  0.1108957E+005  0.1043930E+01  0.7957747E-01            NaN
         13   -1    0    0    0    0  0.00000000000E+00  0.00000000000E+00  0.74505805969E-08  0.10566000000E+00  0.10566000000E+00 0.  1.
     999900   -1    0    0    0    0 -0.00000000000E+00 -0.00000000000E+00 -0.74505805969E-08  0.93827000000E+00  0.93827000000E+00 0. -1.
     999902    2    1    2    0    0  0.21539873858E-01 -0.55320385228E-02  0.49897257778E-02  0.10211381817E+01  0.10208837932E+01 0.  0.
     999903    2    3    3    0    0 -0.11391621883E+00  0.48372462662E-01  0.29449193432E-01  0.12880847034E+00  0.20188288259E-01 0.  0.
         14    1    1    2    0    0 -0.21539873858E-01  0.55320385228E-02 -0.49897257778E-02  0.22791818255E-01  0.00000000000E+00 0. -1.
     999901    1    3    3    0    0  0.13545609268E+00 -0.53904501184E-01 -0.24459467655E-01  0.89232971140E+00  0.88000000000E+00 0. -1.
        -11    1    4    4    0    0 -0.82521868473E-01  0.25312323226E-01  0.17653091236E-01  0.88104853638E-01  0.51100000000E-03 0.  1.
         11    1    4    4    0    0 -0.31394350352E-01  0.23060139436E-01  0.11796102197E-01  0.40703616705E-01  0.51100000000E-03 0. -1.
</event>
<event>
 8    1  0.1108957E+005  0.1043930E+01  0.7957747E-01            NaN
         13   -1    0    0    0    0  0.00000000000E+00  0.00000000000E+00  0.74505805969E-08  0.10566000000E+00  0.10566000000E+00 0.  1.
     999900   -1    0    0    0    0 -0.00000000000E+00 -0.00000000000E+00 -0.74505805969E-08  0.93827000000E+00  0.93827000000E+00 0. -1.
     999902    2    1    2    0    0 -0.26957483815E-02  0.15713133443E-01 -0.16421427238E-01  0.10210426040E+01  0.10207860532E+01 0.  0.
     999903    2    3    3    0    0  0.44406765326E-01  0.12272293257E+00 -0.18515358861E-01  0.13330721076E+00  0.19877498364E-01 0.  0.
         14    1    1    2    0    0  0.26957483815E-02 -0.15713133443E-01  0.16421427238E-01  0.22887395974E-01  0.00000000000E+00 0.  1.
     999901    1    3    3    0    0 -0.47102513708E-01 -0.10700979913E+00  0.20939316233E-02  0.88773539327E+00  0.88000000000E+00 0. -1.
        -11    1    4    4    0    0  0.40731760537E-01  0.10173689908E+00 -0.21822653847E-01  0.11174060271E+00  0.51100000000E-03 0.  1.
         11    1    4    4    0    0  0.36750047894E-02  0.20986033488E-01  0.33072949859E-02  0.21566608052E-01  0.51100000000E-03 0. -1.
</event>
<event>
 8    1  0.1108957E+005  0.1043930E+01  0.7957747E-01            NaN
         13   -1    0    0    0    0  0.00000000000E+00  0.00000000000E+00  0.74505805969E-08  0.10566000000E+00  0.10566000000E+00 0.  1.
     999900   -1    0    0    0    0 -0.00000000000E+00 -0.00000000000E+00 -0.74505805969E-08  0.93827000000E+00  0.93827000000E+00 0.  1.
     999902    2    1    2    0    0 -0.17867405537E-01  0.51222350301E-02  0.14400967912E-01  0.10204168261E+01  0.10201458864E+01 0.  0.
     999903    2    3    3    0    0 -0.21371859278E-01  0.23529059513E-01 -0.12387447687E+00  0.12942233055E+00  0.19871603209E-01 0.  0.
         14    1    1    2    0    0  0.17867405537E-01 -0.51222350301E-02 -0.14400967912E-01  0.23513173949E-01  0.00000000000E+00 0. -1.
     999901    1    3    3    0    0  0.35044537410E-02 -0.18406824483E-01  0.13827544478E+00  0.89099449550E+00  0.88000000000E+00 0. -1.
        -11    1    4    4    0    0 -0.67371400419E-02  0.45215392988E-02 -0.69693854305E-01  0.70166429455E-01  0.51100000000E-03 0. -1.
         11    1    4    4    0    0 -0.14634719236E-01  0.19007520214E-01 -0.54180622567E-01  0.59255901095E-01  0.51100000000E-03 0.  1.
</event>
<event>
 8    1  0.1108957E+005  0.1043930E+01  0.7957747E-01            NaN
         13   -1    0    0    0    0  0.00000000000E+00  0.00000000000E+00  0.74505805969E-08  0.10566000000E+00  0.10566000000E+00 0.  1.
     999900   -1    0    0    0    0 -0.00000000000E+00 -0.00000000000E+00 -0.74505805969E-08  0.93827000000E+00  0.93827000000E+00 0.  1.
     999902    2    1    2    0    0  0.11623496258E-01 -0.51166621693E-02  0.20068141320E-01  0.10201809749E+01  0.10199045080E+01 0.  0.
     999903    2    3    3    0    0  0.11712062559E+00  0.55996289735E-01  0.11227327646E-01  0.13173142812E+00  0.19346598348E-01 0.  0.
         14    1    1    2    0    0 -0.11623496258E-01  0.51166621693E-02 -0.20068141320E-01  0.23749025097E-01  0.00000000000E+00 0. -1.
     999901    1    3    3    0    0 -0.10549712933E+00 -0.61112951905E-01  0.88408136742E-02  0.88844954678E+00  0.88000000000E+00 0. -1.
        -11    1    4    4    0    0  0.53489874085E-01  0.34768143435E-01  0.10436107607E-01  0.64646453039E-01  0.51100000000E-03 0. -1.
         11    1    4    4    0    0  0.63630751501E-01  0.21228146300E-01  0.79122003856E-03  0.67084975085E-01  0.51100000000E-03 0.  1.
</event>
<event>
 8    1  0.1108957E+005  0.1043930E+01  0.7957747E-01            NaN
         13   -1    0    0    0    0  0.00000000000E+00  0.00000000000E+00  0.74505805969E-08  0.10566000000E+00  0.10566000000E+00 0. -1.
     999900   -1    0    0    0    0 -0.00000000000E+00 -0.00000000000E+00 -0.74505805969E-08  0.93827000000E+00  0.93827000000E+00 0.  1.
     999902    2    1    2    0    0 -0.21669505637E-01 -0.68708562186E-02  0.18017947865E-02  0.10211259959E+01  0.10208713322E+01 0.  0.
     999903    2    3    3    0    0 -0.45546072627E-01 -0.82693932440E-01  0.91390272064E-01  0.13301264466E+00  0.20674878912E-01 0.  0.
         14    1    1    2    0    0  0.21669505637E-01  0.68708562186E-02 -0.18017947865E-02  0.22804004126E-01  0.00000000000E+00 0.  1.
     999901    1    3    3    0    0  0.23876566990E-01  0.75823076222E-01 -0.89588477277E-01  0.88811335121E+00  0.88000000000E+00 0.  1.
        -11    1    4    4    0    0 -0.12384450459E-01 -0.43845590341E-01  0.43368624292E-01  0.62903967279E-01  0.51100000000E-03 0. -1.
         11    1    4    4    0    0 -0.33161622168E-01 -0.38848342100E-01  0.48021647772E-01  0.70108677383E-01  0.51100000000E-03 0.  1.
</event>
<event>
 8    1  0.1108957E+005  0.1043930E+01  0.7957747E-01            NaN
         13   -1    0    0    0    0  0.00000000000E+00  0.00000000000E+00  0.74505805969E-08  0.10566000000E+00  0.10566000000E+00 0.  1.
     999900   -1    0    0    0    0 -0.00000000000E+00 -0.00000000000E+00 -0.74505805969E-08  0.93827000000E+00  0.93827000000E+00 0.  1.
     999902    2    1    2    0    0 -0.68901289143E-02  0.82686974042E-02  0.21605679669E-01  0.10197918429E+01  0.10195061315E+01 0.  0.
     999903    2    3    3    0    0 -0.10086581734E+00 -0.71146077819E-01 -0.33148528816E-01  0.12954684300E+00  0.21163224491E-01 0.  0.
         14    1    1    2    0    0  0.68901289143E-02 -0.82686974042E-02 -0.21605679669E-01  0.24138157079E-01  0.00000000000E+00 0. -1.
     999901    1    3    3    0    0  0.93975688430E-01  0.79414775223E-01  0.54754208484E-01  0.89024499992E+00  0.88000000000E+00 0. -1.
        -11    1    4    4    0    0 -0.37455670897E-01 -0.14630973276E-01 -0.85319253662E-02  0.41110187701E-01  0.51100000000E-03 0. -1.
         11    1    4    4    0    0 -0.63410146447E-01 -0.56515104543E-01 -0.24616603450E-01  0.88436655298E-01  0.51100000000E-03 0.  1.
</event>
<event>
 8    1  0.1108957E+005  0.1043930E+01  0.7957747E-01            NaN
         13   -1    0    0    0    0  0.00000000000E+00  0.00000000000E+00  0.74505805969E-08  0.10566000000E+00  0.10566000000E+00 0. -1.
     999900   -1    0    0    0    0 -0.00000000000E+00 -0.00000000000E+00 -0.74505805969E-08  0.93827000000E+00  0.93827000000E+00 0. -1.
     999902    2    1    2    0    0 -0.15573437085E-01 -0.17885772631E-01  0.37654994706E-02  0.10199172577E+01  0.10196345428E+01 0.  0.
     999903    2    3    3    0    0  0.10383757751E+00  0.37939218182E-01 -0.60947524897E-01  0.12774956299E+00  0.19588855889E-01 0.  0.
         14    1    1    2    0    0  0.15573437085E-01  0.17885772631E-01 -0.37654994706E-02  0.24012742274E-01  0.00000000000E+00 0.  1.
     999901    1    3    3    0    0 -0.11941101459E+00 -0.55824990813E-01  0.64713024368E-01  0.89216769473E+00  0.88000000000E+00 0.  1.
        -11    1    4    4    0    0  0.51051438143E-01  0.85456070305E-02 -0.30660247390E-01  0.60163017104E-01  0.51100000000E-03 0.  1.
         11    1    4    4    0    0  0.52786139362E-01  0.29393611151E-01 -0.30287277507E-01  0.67586545888E-01  0.51100000000E-03 0. -1.
</event>
<event>
 8    1  0.1108957E+005  0.1043930E+01  0.7957747E-01            NaN
         13   -1    0    0    0    0  0.00000000000E+00  0.00000000000E+00  0.74505805969E-08  0.10566000000E+00  0.10566000000E+00 0.  1.
     999900   -1    0    0    0    0 -0.00000000000E+00 -0.00000000000E+00 -0.74505805969E-08  0.93827000000E+00  0.93827000000E+00 0. -1.
     999902    2    1    2    0    0 -0.55457521499E-02 -0.21877936365E-01  0.60943489817E-02  0.10205517931E+01  0.10202839908E+01 0.  0.
     999903    2    3    3    0    0  0.95874917261E-01  0.83194995293E-01  0.23994864163E-02  0.12850912311E+00  0.19885426440E-01 0.  0.
         14    1    1    2    0    0  0.55457521499E-02  0.21877936365E-01 -0.60943489817E-02  0.23378206861E-01  0.00000000000E+00 0.  1.
     999901    1    3    3    0    0 -0.10142066941E+00 -0.10507293166E+00  0.36948625654E-02  0.89204267003E+00  0.88000000000E+00 0. -1.
        -11    1    4    4    0    0  0.74833022269E-01  0.53650867427E-01 -0.90315799130E-03  0.92084057322E-01  0.51100000000E-03 0. -1.
         11    1    4    4    0    0  0.21041894991E-01  0.29544127867E-01  0.33026444076E-02  0.36425065784E-01  0.51100000000E-03 0.  1.
</event>
<event>
 8    1  0.1108957E+005  0.1043930E+01  0.7957747E-01            NaN
         13   -1    0    0    0    0  0.00000000000E+00  0.00000000000E+00  0.74505805969E-08  0.10566000000E+00  0.10566000000E+00 0. -1.
     999900   -1    0    0    0    0 -0.00000000000E+00 -0.00000000000E+00 -0.74505805969E-08  0.93827000000E+00  0.93827000000E+00 0. -1.
     999902    2    1    2    0    0 -0.22543772711E-02 -0.23596982636E-01 -0.19982523036E-02  0.10201414982E+01  0.10198641005E+01 0.  0.
     999903    2    3    3    0    0 -0.73644789549E-01 -0.99005797238E-01 -0.39849262444E-01  0.13322787260E+00  0.30594107352E-01 0.  0.
         14    1    1    2    0    0  0.22543772711E-02  0.23596982636E-01  0.19982523036E-02  0.23788501816E-01  0.00000000000E+00 0.  1.
     999901    1    3    3    0    0  0.71390412278E-01  0.75408814602E-01  0.37851010140E-01  0.88691362559E+00  0.88000000000E+00 0.  1.
        -11    1    4    4    0    0 -0.49475868092E-01 -0.40948651233E-01 -0.19140075213E-01  0.67016842371E-01  0.51100000000E-03 0.  1.
         11    1    4    4    0    0 -0.24168921457E-01 -0.58057146005E-01 -0.20709187231E-01  0.66211030225E-01  0.51100000000E-03 0. -1.
</event>
<event>
 8    1  0.1108957E+005  0.1043930E+01  0.7957747E-01            NaN
         13   -1    0    0    0    0  0.00000000000E+00  0.00000000000E+00  0.74505805969E-08  0.10566000000E+00  0.10566000000E+00 0. -1.
     999900   -1    0    0    0    0 -0.00000000000E+00 -0.00000000000E+00 -0.74505805969E-08  0.93827000000E+00  0.93827000000E+00 0. -1.
     999902    2    1    2    0    0 -0.21126616204E-01  0.74468147242E-02 -0.74058229912E-02  0.10203368829E+01  0.10200640761E+01 0.  0.
     999903    2    3    3    0    0 -0.45744178559E-02  0.12986717222E+00 -0.81121424527E-02  0.13170804129E+00  0.19869412845E-01 0.  0.
         14    1    1    2    0    0  0.21126616204E-01 -0.74468147242E-02  0.74058229912E-02  0.23593117131E-01  0.00000000000E+00 0. -1.
     999901    1    3    3    0    0 -0.16552198348E-01 -0.12242035749E+00  0.70631946151E-03  0.88862884158E+00  0.88000000000E+00 0.  1.
        -11    1    4    4    0    0 -0.10971286229E-01  0.68364025450E-01 -0.92813660553E-02  0.69859959734E-01  0.51100000000E-03 0. -1.
         11    1    4    4    0    0  0.63968683729E-02  0.61503146768E-01  0.11692236025E-02  0.61848081556E-01  0.51100000000E-03 0.  1.
</event>
<event>
 8    1  0.1108957E+005  0.1043930E+01  0.7957747E-01            NaN
         13   -1    0    0    0    0  0.00000000000E+00  0.00000000000E+00  0.74505805969E-08  0.10566000000E+00  0.10566000000E+00 0. -1.
     999900   -1    0    0    0    0 -0.00000000000E+00 -0.00000000000E+00 -0.74505805969E-08  0.93827000000E+00  0.93827000000E+00 0. -1.
     999902    2    1    2    0    0 -0.24266056088E-02 -0.22818353882E-01 -0.46920314172E-02  0.10205081972E+01  0.10202393835E+01 0.  0.
     999903    2    3    3    0    0  0.12141200075E+00 -0.34988732173E-01  0.28850589852E-01  0.13112120268E+00  0.19882855795E-01 0.  0.
         14    1    1    2    0    0  0.24266056088E-02  0.22818353882E-01  0.46920314172E-02  0.23421802823E-01  0.00000000000E+00 0. -1.
     999901    1    3    3    0    0 -0.12383860635E+00  0.12170378291E-01 -0.33542621270E-01  0.88938699449E+00  0.88000000000E+00 0.  1.
        -11    1    4    4    0    0  0.72762402864E-01 -0.13686548032E-01  0.23794051395E-01  0.77769575480E-01  0.51100000000E-03 0.  1.
         11    1    4    4    0    0  0.48649597882E-01 -0.21302184141E-01  0.50565384572E-02  0.53351627204E-01  0.51100000000E-03 0. -1.
</event>
<event>
 8    1  0.1108957E+005  0.1043930E+01  0.7957747E-01            NaN
         13   -1    0    0    0    0  0.00000000000E+00  0.00000000000E+00  0.74505805969E-08  0.10566000000E+00  0.10566000000E+00 0.  1.
     999900   -1    0    0    0    0 -0.00000000000E+00 -0.00000000000E+00 -0.74505805969E-08  0.93827000000E+00  0.93827000000E+00 0.  1.
     999902    2    1    2    0    0  0.22988143411E-02 -0.18608708246E-01 -0.15836595791E-01  0.10193868475E+01  0.10190913494E+01 0.  0.
     999903    2    3    3    0    0 -0.20038583727E-03  0.34594856104E-01  0.12082725022E+00  0.12724679565E+00  0.19891666185E-01 0.  0.
         14    1    1    2    0    0 -0.22988143411E-02  0.18608708246E-01  0.15836595791E-01  0.24543152531E-01  0.00000000000E+00 0.  1.
     999901    1    3    3    0    0  0.24992001783E-02 -0.53203564350E-01 -0.13666384601E+00  0.89214005182E+00  0.88000000000E+00 0.  1.
        -11    1    4    4    0    0 -0.25796626896E-02  0.33981303117E-01  0.88717985098E-01  0.95039600283E-01  0.51100000000E-03 0.  1.
         11    1    4    4    0    0  0.23792768524E-02  0.61355298723E-03  0.32109265120E-01  0.32207195363E-01  0.51100000000E-03 0. -1.
</event>
<event>
 8    1  0.1108957E+005  0.1043930E+01  0.7957747E-01            NaN
         13   -1    0    0    0    0  0.00000000000E+00  0.00000000000E+00  0.74505805969E-08  0.10566000000E+00  0.10566000000E+00 0. -1.
     999900   -1    0    0    0    0 -0.00000000000E+00 -0.00000000000E+00 -0.74505805969E-08  0.93827000000E+00  0.93827000000E+00 0. -1.
     999902    2    1    2    0    0  0.23559712081E-01  0.52567268891E-02 -0.21470994912E-02  0.10196956598E+01  0.10194076394E+01 0.  0.
     999903    2    3    3    0    0  0.11401663920E-01 -0.55472558911E-01  0.11516841740E+00  0.12975251843E+00  0.19098401507E-01 0.  0.
         14    1    1    2    0    0 -0.23559712081E-01 -0.52567268891E-02  0.21470994912E-02  0.24234340246E-01  0.00000000000E+00 0.  1.
     999901    1    3    3    0    0  0.12158048161E-01  0.60729285800E-01 -0.11731551689E+00  0.88994314133E+00  0.88000000000E+00 0. -1.
        -11    1    4    4    0    0 -0.49503316981E-02 -0.10353904987E-01  0.17569998310E-01  0.20992262718E-01  0.51100000000E-03 0.  1.
         11    1    4    4    0    0  0.16351995618E-01 -0.45118653923E-01  0.97598419089E-01  0.10876025571E+00  0.51100000000E-03 0. -1.
</event>
<event>
 7    1  0.1136524E+005  0.1043930E+01  0.7957747E-01            NaN
         13   -1    0    0    0    0  0.00000000000E+00  0.00000000000E+00  0.74505805969E-08  0.10566000000E+00  0.10566000000E+00 0.  1.
     999900   -1    0    0    0    0 -0.00000000000E+00 -0.00000000000E+00 -0.74505805969E-08  0.93827000000E+00  0.93827000000E+00 0. -1.
     999903    2    1    2    0    0 -0.72694585648E-01 -0.13545744647E-01  0.64057034327E-01  0.99739057480E-01  0.19405822827E-01 0.  0.
         14    1    1    2    0    0 -0.48252576819E-01 -0.74229080949E-02 -0.24912185320E-01  0.54809011227E-01  0.00000000000E+00 0. -1.
     999901    1    1    2    0    0  0.12094716247E+00  0.20968652742E-01 -0.39144849007E-01  0.88938193129E+00  0.88000000000E+00 0. -1.
        -11    1    3    3    0    0 -0.37805228617E-01 -0.16708185036E-01  0.32423923218E-01  0.52535423057E-01  0.51100000000E-03 0. -1.
         11    1    3    3    0    0 -0.34889357031E-01  0.31624403888E-02  0.31633111110E-01  0.47203634423E-01  0.51100000000E-03 0.  1.
</event>
<event>
 8    1  0.1108957E+005  0.1043930E+01  0.7957747E-01            NaN
         13   -1    0    0    0    0  0.00000000000E+00  0.00000000000E+00  0.74505805969E-08  0.10566000000E+00  0.10566000000E+00 0. -1.
     999900   -1    0    0    0    0 -0.00000000000E+00 -0.00000000000E+00 -0.74505805969E-08  0.93827000000E+00  0.93827000000E+00 0. -1.
     999902    2    1    2    0    0  0.54103935033E-02 -0.18500426288E-01  0.13633311672E-01  0.10203205672E+01  0.10200473786E+01 0.  0.
     999903    2    3    3    0    0 -0.12087542404E-01  0.80308445636E-01  0.99324650646E-01  0.13048216809E+00  0.23762467071E-01 0.  0.
         14    1    1    2    0    0 -0.54103935033E-02  0.18500426288E-01 -0.13633311672E-01  0.23609432815E-01  0.00000000000E+00 0.  1.
     999901    1    3    3    0    0  0.17497935908E-01 -0.98808871924E-01 -0.85691338974E-01  0.88983839910E+00  0.88000000000E+00 0. -1.
        -11    1    4    4    0    0  0.69916087953E-02  0.20182216838E-01  0.28825477597E-01  0.35879990939E-01  0.51100000000E-03 0. -1.
         11    1    4    4    0    0 -0.19079151199E-01  0.60126228797E-01  0.70499173049E-01  0.94602177149E-01  0.51100000000E-03 0.  1.
</event>
<event>
 8    1  0.1108957E+005  0.1043930E+01  0.7957747E-01            NaN
         13   -1    0    0    0    0  0.00000000000E+00  0.00000000000E+00  0.74505805969E-08  0.10566000000E+00  0.10566000000E+00 0.  1.
     999900   -1    0    0    0    0 -0.00000000000E+00 -0.00000000000E+00 -0.74505805969E-08  0.93827000000E+00  0.93827000000E+00 0. -1.
     999902    2    1    2    0    0 -0.34669607978E-02 -0.20839428637E-01 -0.10480034198E-01  0.10203475336E+01  0.10200749760E+01 0.  0.
     999903    2    3    3    0    0 -0.47283118707E-01  0.10179419723E+00 -0.61073853307E-01  0.12932643601E+00  0.19938896330E-01 0.  0.
         14    1    1    2    0    0  0.34669607978E-02  0.20839428637E-01  0.10480034198E-01  0.23582466366E-01  0.00000000000E+00 0.  1.
     999901    1    3    3    0    0  0.43816157909E-01 -0.12263362587E+00  0.50593819110E-01  0.89102109763E+00  0.88000000000E+00 0.  1.
        -11    1    4    4    0    0 -0.11665720964E-01  0.44999743594E-01 -0.19308688030E-01  0.50340366741E-01  0.51100000000E-03 0.  1.
         11    1    4    4    0    0 -0.35617397743E-01  0.56794453639E-01 -0.41765165277E-01  0.78986069264E-01  0.51100000000E-03 0. -1.
</event>
<event>
 8    1  0.1108957E+005  0.1043930E+01  0.7957747E-01            NaN
         13   -1    0    0    0    0  0.00000000000E+00  0.00000000000E+00  0.74505805969E-08  0.10566000000E+00  0.10566000000E+00 0.  1.
     999900   -1    0    0    0    0 -0.00000000000E+00 -0.00000000000E+00 -0.74505805969E-08  0.93827000000E+00  0.93827000000E+00 0. -1.
     999902    2    1    2    0    0 -0.16573679745E-01  0.58374625743E-02  0.15640682380E-01  0.10204056770E+01  0.10201344773E+01 0.  0.
     999903    2    3    3    0    0  0.38563149945E-01  0.99213000054E-01  0.75087165293E-01  0.13175898376E+00  0.19799280200E-01 0.  0.
         14    1    1    2    0    0  0.16573679745E-01 -0.58374625743E-02 -0.15640682380E-01  0.23524323049E-01  0.00000000000E+00 0. -1.
     999901    1    3    3    0    0 -0.55136829690E-01 -0.93375537480E-01 -0.59446482913E-01  0.88864669319E+00  0.88000000000E+00 0. -1.
        -11    1    4    4    0    0  0.40774354984E-02  0.17830880386E-01  0.50401306836E-02  0.18979721123E-01  0.51100000000E-03 0. -1.
         11    1    4    4    0    0  0.34485714446E-01  0.81382119668E-01  0.70047034610E-01  0.11277926264E+00  0.51100000000E-03 0.  1.
</event>
<event>
 8    1  0.1108957E+005  0.1043930E+01  0.7957747E-01            NaN
         13   -1    0    0    0    0  0.00000000000E+00  0.00000000000E+00  0.74505805969E-08  0.10566000000E+00  0.10566000000E+00 0. -1.
     999900   -1    0    0    0    0 -0.00000000000E+00 -0.00000000000E+00 -0.74505805969E-08  0.93827000000E+00  0.93827000000E+00 0. -1.
     999902    2    1    2    0    0 -0.81012975632E-02 -0.21371792505E-01  0.19100314801E-02  0.10209945960E+01  0.10207369555E+01 0.  0.
     999903    2    3    3    0    0  0.10095249915E+00  0.76439959847E-01  0.11985570369E-01  0.12882791539E+00  0.20457354205E-01 0.  0.
         14    1    1    2    0    0  0.81012975632E-02  0.21371792505E-01 -0.19100314801E-02  0.22935404016E-01  0.00000000000E+00 0. -1.
     999901    1    3    3    0    0 -0.10905379671E+00 -0.97811752353E-01 -0.10075538889E-01  0.89216668059E+00  0.88000000000E+00 0. -1.
        -11    1    4    4    0    0  0.60645219556E-01  0.48527537880E-01  0.17094549230E-01  0.79531436062E-01  0.51100000000E-03 0. -1.
         11    1    4    4    0    0  0.40307279594E-01  0.27912421967E-01 -0.51089788602E-02  0.49296479330E-01  0.51100000000E-03 0.  1.
</event>
<event>
 8    1  0.1108957E+005  0.1043930E+01  0.7957747E-01            NaN
         13   -1    0    0    0    0  0.00000000000E+00  0.00000000000E+00  0.74505805969E-08  0.10566000000E+00  0.10566000000E+00 0. -1.
     999900   -1    0    0    0    0 -0.00000000000E+00 -0.00000000000E+00 -0.74505805969E-08  0.93827000000E+00  0.93827000000E+00 0. -1.
     999902    2    1    2    0    0 -0.27286314119E-02 -0.17897265749E-01  0.13991167097E-01  0.10210496524E+01  0.10207932613E+01 0.  0.
     999903    2    3    3    0    0 -0.40245149156E-01 -0.93883396103E-01 -0.81063284663E-01  0.13188334065E+00  0.19702673076E-01 0.  0.
         14    1    1    2    0    0  0.27286314119E-02  0.17897265749E-01 -0.13991167097E-01  0.22880347624E-01  0.00000000000E+00 0. -1.
     999901    1    3    3    0    0  0.37516517744E-01  0.75986130354E-01  0.95054451759E-01  0.88916631173E+00  0.88000000000E+00 0.  1.
        -11    1    4    4    0    0 -0.13532395872E-01 -0.44608548668E-01 -0.47479446960E-01  0.66540268687E-01  0.51100000000E-03 0. -1.
         11    1    4    4    0    0 -0.26712753284E-01 -0.49274847434E-01 -0.33583837703E-01  0.65343071963E-01  0.51100000000E-03 0.  1.
</event>
<event>
 8    1  0.1108957E+005  0.1043930E+01  0.7957747E-01            NaN
         13   -1    0    0    0    0  0.00000000000E+00  0.00000000000E+00  0.74505805969E-08  0.10566000000E+00  0.10566000000E+00 0. -1.
     999900   -1    0    0    0    0 -0.00000000000E+00 -0.00000000000E+00 -0.74505805969E-08  0.93827000000E+00  0.93827000000E+00 0. -1.
     999902    2    1    2    0    0  0.42145286274E-02 -0.22729066590E-01  0.66505939915E-02  0.10198758295E+01  0.10195921265E+01 0.  0.
     999903    2    3    3    0    0 -0.50998055553E-01  0.11400845340E+00 -0.14564813231E-01  0.12735374440E+00  0.20201814602E-01 0.  0.
         14    1    1    2    0    0 -0.42145286274E-02  0.22729066590E-01 -0.66505939915E-02  0.24054170533E-01  0.00000000000E+00 0.  1.
     999901    1    3    3    0    0  0.55212584180E-01 -0.13673751999E+00  0.21215407222E-01  0.89252208506E+00  0.88000000000E+00 0.  1.
        -11    1    4    4    0    0 -0.18245128174E-01  0.45412682235E-01 -0.15477996168E-01  0.51332503312E-01  0.51100000000E-03 0. -1.
         11    1    4    4    0    0 -0.32752927378E-01  0.68595771161E-01  0.91318293760E-03  0.76021241091E-01  0.51100000000E-03 0.  1.
</event>
<event>
 8    1  0.1108957E+005  0.1043930E+01  0.7957747E-01            NaN
         13   -1    0    0    0    0  0.00000000000E+00  0.00000000000E+00  0.74505805969E-08  0.10566000000E+00  0.10566000000E+00 0. -1.
     999900   -1    0    0    0    0 -0.00000000000E+00 -0.00000000000E+00 -0.74505805969E-08  0.93827000000E+00  0.93827000000E+00 0. -1.
     999902    2    1    2    0    0  0.76917181851E-02  0.15486820754E-01 -0.15768610872E-01  0.10205280079E+01  0.10202596540E+01 0.  0.
     999903    2    3    3    0    0  0.89084634634E-01  0.33876409715E-01  0.87010162187E-01  0.13062550760E+00  0.20213155369E-01 0.  0.
         14    1    1    2    0    0 -0.76917181851E-02 -0.15486820754E-01  0.15768610872E-01  0.23401992106E-01  0.00000000000E+00 0.  1.
     999901    1    3    3    0    0 -0.81392916449E-01 -0.18389588961E-01 -0.10277877306E+00  0.88990250029E+00  0.88000000000E+00 0. -1.
        -11    1    4    4    0    0  0.71337595808E-01  0.22455896917E-01  0.76713277992E-01  0.10713779923E+00  0.51100000000E-03 0. -1.
         11    1    4    4    0    0  0.17747038826E-01  0.11420512798E-01  0.10296884195E-01  0.23487708377E-01  0.51100000000E-03 0.  1.
</event>
<event>
 8    1  0.1108957E+005  0.1043930E+01  0.7957747E-01            NaN
         13   -1    0    0    0    0  0.00000000000E+00  0.00000000000E+00  0.74505805969E-08  0.10566000000E+00  0.10566000000E+00 0. -1.
     999900   -1    0    0    0    0 -0.00000000000E+00 -0.00000000000E+00 -0.74505805969E-08  0.93827000000E+00  0.93827000000E+00 0.  1.
     999902    2    1    2    0    0 -0.24797189354E-02  0.16258046587E-01  0.16569147041E-01  0.10205845568E+01  0.10203175133E+01 0.  0.
     999903    2    3    3    0    0 -0.10823262029E+00  0.72670858461E-01 -0.81970407239E-02  0.13211427280E+00  0.19789791207E-01 0.  0.
         14    1    1    2    0    0  0.24797189354E-02 -0.16258046587E-01 -0.16569147041E-01  0.23345443206E-01  0.00000000000E+00 0. -1.
     999901    1    3    3    0    0  0.10575290135E+00 -0.56412811874E-01  0.24766187765E-01  0.88847028400E+00  0.88000000000E+00 0. -1.
        -11    1    4    4    0    0 -0.70809569386E-01  0.56345297714E-01 -0.13341110012E-03  0.90493461701E-01  0.51100000000E-03 0. -1.
         11    1    4    4    0    0 -0.37423050904E-01  0.16325560747E-01 -0.80636296238E-02  0.41620811097E-01  0.51100000000E-03 0.  1.
</event>
<event>
 8    1  0.1108957E+005  0.1043930E+01  0.7957747E-01            NaN
         13   -1    0    0    0    0  0.00000000000E+00  0.00000000000E+00  0.74505805969E-08  0.10566000000E+00  0.10566000000E+00 0. -1.
     999900   -1    0    0    0    0 -0.00000000000E+00 -0.00000000000E+00 -0.74505805969E-08  0.93827000000E+00  0.93827000000E+00 0.  1.
     999902    2    1    2    0    0  0.70235388181E-02  0.97802234247E-02 -0.20482195534E-01  0.10201707239E+01  0.10198940154E+01 0.  0.
     999903    2    3    3    0    0  0.40904776582E-01  0.11442629607E+00 -0.49243004832E-01  0.13285684315E+00  0.21435700769E-01 0.  0.
         14    1    1    2    0    0 -0.70235388181E-02 -0.97802234247E-02  0.20482195534E-01  0.23759276118E-01  0.00000000000E+00 0. -1.
     999901    1    3    3    0    0 -0.33881237764E-01 -0.10464607264E+00  0.28760809297E-01  0.88731388073E+00  0.88000000000E+00 0. -1.
        -11    1    4    4    0    0  0.26679431405E-01  0.98332437020E-01 -0.39766094856E-01  0.10937396240E+00  0.51100000000E-03 0. -1.
         11    1    4    4    0    0  0.14225345177E-01  0.16093859047E-01 -0.94769099755E-02  0.23482880746E-01  0.51100000000E-03 0.  1.
</event>
<event>
 8    1  0.1108957E+005  0.1043930E+01  0.7957747E-01            NaN
         13   -1    0    0    0    0  0.00000000000E+00  0.00000000000E+00  0.74505805969E-08  0.10566000000E+00  0.10566000000E+00 0.  1.
     999900   -1    0    0    0    0 -0.00000000000E+00 -0.00000000000E+00 -0.74505805969E-08  0.93827000000E+00  0.93827000000E+00 0. -1.
     999902    2    1    2    0    0 -0.21795842286E-01  0.10080592534E-01 -0.34577178669E-02  0.10196682420E+01  0.10193795617E+01 0.  0.
     999903    2    3    3    0    0  0.12457543921E+00  0.10796816655E-01 -0.58139524414E-02  0.12757485182E+00  0.24615634620E-01 0.  0.
         14    1    1    2    0    0  0.21795842286E-01 -0.10080592534E-01  0.34577178669E-02  0.24261757967E-01  0.00000000000E+00 0. -1.
     999901    1    3    3    0    0 -0.14637128150E+00 -0.71622412097E-03  0.23562345745E-02  0.89209339022E+00  0.88000000000E+00 0. -1.
        -11    1    4    4    0    0  0.93181831685E-01  0.33596363507E-02 -0.13992759284E-01  0.94287853650E-01  0.51100000000E-03 0.  1.
         11    1    4    4    0    0  0.31393607530E-01  0.74371803043E-02  0.81788068422E-02  0.33286998167E-01  0.51100000000E-03 0. -1.
</event>
<event>
 8    1  0.1108957E+005  0.1043930E+01  0.7957747E-01            NaN
         13   -1    0    0    0    0  0.00000000000E+00  0.00000000000E+00  0.74505805969E-08  0.10566000000E+00  0.10566000000E+00 0.  1.
     999900   -1    0    0    0    0 -0.00000000000E+00 -0.00000000000E+00 -0.74505805969E-08  0.93827000000E+00  0.93827000000E+00 0.  1.
     999902    2    1    2    0    0 -0.19472757048E-01 -0.66250728732E-02 -0.12355315667E-01  0.10199355489E+01  0.10196532696E+01 0.  0.
     999903    2    3    3    0    0  0.11399509753E+00 -0.55505800103E-01 -0.76700926192E-02  0.12851816911E+00  0.19552835218E-01 0.  0.
         14    1    1    2    0    0  0.19472757048E-01  0.66250728732E-02  0.12355315667E-01  0.23994451085E-01  0.00000000000E+00 0.  1.
     999901    1    3    3    0    0 -0.13346785458E+00  0.48880727230E-01 -0.46852230476E-02  0.89141737980E+00  0.88000000000E+00 0.  1.
        -11    1    4    4    0    0  0.26441696727E-01 -0.18788202350E-01  0.46767310554E-02  0.32776406266E-01  0.51100000000E-03 0. -1.
         11    1    4    4    0    0  0.87553400803E-01 -0.36717597753E-01 -0.12346823675E-01  0.95741762846E-01  0.51100000000E-03 0.  1.
</event>
<event>
 8    1  0.1108957E+005  0.1043930E+01  0.7957747E-01            NaN
         13   -1    0    0    0    0  0.00000000000E+00  0.00000000000E+00  0.74505805969E-08  0.10566000000E+00  0.10566000000E+00 0.  1.
     999900   -1    0    0    0    0 -0.00000000000E+00 -0.00000000000E+00 -0.74505805969E-08  0.93827000000E+00  0.93827000000E+00 0.  1.
     999902    2    1    2    0    0 -0.48308685298E-02  0.22386839412E-01 -0.97941451444E-03  0.10210069303E+01  0.10207495700E+01 0.  0.
     999903    2    3    3    0    0  0.12772724402E+00 -0.14670700398E-01 -0.56952884963E-02  0.13029533060E+00  0.20370531405E-01 0.  0.
         14    1    1    2    0    0  0.48308685298E-02 -0.22386839412E-01  0.97941451444E-03  0.22923069655E-01  0.00000000000E+00 0. -1.
     999901    1    3    3    0    0 -0.13255811255E+00  0.37057539810E-01  0.47158739819E-02  0.89071159975E+00  0.88000000000E+00 0.  1.
        -11    1    4    4    0    0  0.63541167439E-01 -0.45708815368E-03 -0.10373869353E-01  0.64386079050E-01  0.51100000000E-03 0.  1.
         11    1    4    4    0    0  0.64186076579E-01 -0.14213612244E-01  0.46785808570E-02  0.65909251547E-01  0.51100000000E-03 0. -1.
</event>
<event>
 8    1  0.1108957E+005  0.1043930E+01  0.7957747E-01            NaN
         13   -1    0    0    0    0  0.00000000000E+00  0.00000000000E+00  0.74505805969E-08  0.10566000000E+00  0.10566000000E+00 0. -1.
     999900   -1    0    0    0    0 -0.00000000000E+00 -0.00000000000E+00 -0.74505805969E-08  0.93827000000E+00  0.93827000000E+00 0. -1.
     999902    2    1    2    0    0 -0.12654850712E-02  0.52661901519E-02  0.22655174463E-01  0.10206364142E+01  0.10203705693E+01 0.  0.
     999903    2    3    3    0    0  0.44991884457E-01  0.37729128572E-01  0.11841073910E+00  0.13363995714E+00  0.19768110695E-01 0.  0.
         14    1    1    2    0    0  0.12654850712E-02 -0.52661901519E-02 -0.22655174463E-01  0.23293585837E-01  0.00000000000E+00 0.  1.
     999901    1    3    3    0    0 -0.46257369528E-01 -0.32462938420E-01 -0.95755564640E-01  0.88699645702E+00  0.88000000000E+00 0. -1.
        -11    1    4    4    0    0  0.12063752516E-01  0.20630197641E-01  0.35420149710E-01  0.42731572706E-01  0.51100000000E-03 0.  1.
         11    1    4    4    0    0  0.32928131941E-01  0.17098930932E-01  0.82990589394E-01  0.90908384438E-01  0.51100000000E-03 0. -1.
</event>
<event>
 8    1  0.1108957E+005  0.1043930E+01  0.7957747E-01            NaN
         13   -1    0    0    0    0  0.00000000000E+00  0.00000000000E+00  0.74505805969E-08  0.10566000000E+00  0.10566000000E+00 0. -1.
     999900   -1    0    0    0    0 -0.00000000000E+00 -0.00000000000E+00 -0.74505805969E-08  0.93827000000E+00  0.93827000000E+00 0.  1.
     999902    2    1    2    0    0  0.13831122277E-01 -0.76630749151E-03 -0.18124792560E-01  0.10211178261E+01  0.10208629779E+01 0.  0.
     999903    2    3    3    0    0  0.56078077023E-01  0.51789513070E-01 -0.10827190810E+00  0.13394624077E+00  0.19796084129E-01 0.  0.
         14    1    1    2    0    0 -0.13831122277E-01  0.76630749151E-03  0.18124792560E-01  0.22812173855E-01  0.00000000000E+00 0. -1.
     999901    1    3    3    0    0 -0.42246954746E-01 -0.52555820561E-01  0.90147115535E-01  0.88717158538E+00  0.88000000000E+00 0.  1.
        -11    1    4    4    0    0  0.33398377100E-01  0.41996133319E-01 -0.80822486784E-01  0.97013722213E-01  0.51100000000E-03 0. -1.
         11    1    4    4    0    0  0.22679699923E-01  0.97933797509E-02 -0.27449421311E-01  0.36932518555E-01  0.51100000000E-03 0.  1.
</event>
<event>
 8    1  0.1108957E+005  0.1043930E+01  0.7957747E-01            NaN
         13   -1    0    0    0    0  0.00000000000E+00  0.00000000000E+00  0.74505805969E-08  0.10566000000E+00  0.10566000000E+00 0.  1.
     999900   -1    0    0    0    0 -0.00000000000E+00 -0.00000000000E+00 -0.74505805969E-08  0.93827000000E+00  0.93827000000E+00 0. -1.
     999902    2    1    2    0    0  0.13662590413E-01 -0.29211853941E-02  0.19180356999E-01  0.10202005711E+01  0.10199245656E+01 0.  0.
     999903    2    3    3    0    0 -0.77708064181E-01 -0.89152280497E-01 -0.47950216385E-01  0.12874619080E+00  0.17020165636E-01 0.  0.
         14    1    1    2    0    0 -0.13662590413E-01  0.29211853941E-02 -0.19180356999E-01  0.23729428892E-01  0.00000000000E+00 0. -1.
     999901    1    3    3    0    0  0.91370654593E-01  0.86231095103E-01  0.67130573384E-01  0.89145438031E+00  0.88000000000E+00 0. -1.
        -11    1    4    4    0    0 -0.14271801963E-01 -0.24021146230E-01 -0.16960313606E-01  0.32689649067E-01  0.51100000000E-03 0.  1.
         11    1    4    4    0    0 -0.63436262217E-01 -0.65131134267E-01 -0.30989902779E-01  0.96056541736E-01  0.51100000000E-03 0. -1.
</event>
<event>
 8    1  0.1108957E+005  0.1043930E+01  0.7957747E-01            NaN
         13   -1    0    0    0    0  0.00000000000E+00  0.00000000000E+00  0.74505805969E-08  0.10566000000E+00  0.10566000000E+00 0.  1.
     999900   -1    0    0    0    0 -0.00000000000E+00 -0.00000000000E+00 -0.74505805969E-08  0.93827000000E+00  0.93827000000E+00 0. -1.
     999902    2    1    2    0    0 -0.23039384263E-01 -0.24996070348E-02 -0.39160992103E-02  0.10204268705E+01  0.10201561650E+01 0.  0.
     999903    2    3    3    0    0 -0.66394593367E-02  0.46711918245E-01 -0.12080546660E+00  0.13118345279E+00  0.19724396053E-01 0.  0.
         14    1    1    2    0    0  0.23039384263E-01  0.24996070348E-02  0.39160992103E-02  0.23503129485E-01  0.00000000000E+00 0.  1.
     999901    1    3    3    0    0 -0.16399924926E-01 -0.49211525279E-01  0.11688936739E+00  0.88924341772E+00  0.88000000000E+00 0.  1.
        -11    1    4    4    0    0  0.19409411300E-02  0.38120508372E-01 -0.10067165057E+00  0.10766607061E+00  0.51100000000E-03 0. -1.
         11    1    4    4    0    0 -0.85804004668E-02  0.85914098726E-02 -0.20133816024E-01  0.23517382177E-01  0.51100000000E-03 0.  1.
</event>
<event>
 8    1  0.1108957E+005  0.1043930E+01  0.7957747E-01            NaN
         13   -1    0    0    0    0  0.00000000000E+00  0.00000000000E+00  0.74505805969E-08  0.10566000000E+00  0.10566000000E+00 0.  1.
     999900   -1    0    0    0    0 -0.00000000000E+00 -0.00000000000E+00 -0.74505805969E-08  0.93827000000E+00  0.93827000000E+00 0.  1.
     999902    2    1    2    0    0  0.12181452423E-01 -0.19371414640E-01  0.71661452251E-02  0.10199509857E+01  0.10196690738E+01 0.  0.
     999903    2    3    3    0    0  0.32352785810E-01  0.92879133000E-01  0.81454407595E-01  0.12948716610E+00  0.21421241122E-01 0.  0.
         14    1    1    2    0    0 -0.12181452423E-01  0.19371414640E-01 -0.71661452251E-02  0.23979014276E-01  0.00000000000E+00 0. -1.
     999901    1    3    3    0    0 -0.20171333387E-01 -0.11225054764E+00 -0.74288262369E-01  0.89046381963E+00  0.88000000000E+00 0.  1.
        -11    1    4    4    0    0  0.18999631477E-01  0.79291719648E-01  0.64194913472E-01  0.10377577192E+00  0.51100000000E-03 0. -1.
         11    1    4    4    0    0  0.13353154332E-01  0.13587413352E-01  0.17259494123E-01  0.25711394179E-01  0.51100000000E-03 0.  1.
</event>
<event>
 8    1  0.1108957E+005  0.1043930E+01  0.7957747E-01            NaN
         13   -1    0    0    0    0  0.00000000000E+00  0.00000000000E+00  0.74505805969E-08  0.10566000000E+00  0.10566000000E+00 0.  1.
     999900   -1    0    0    0    0 -0.00000000000E+00 -0.00000000000E+00 -0.74505805969E-08  0.93827000000E+00  0.93827000000E+00 0. -1.
     999902    2    1    2    0    0 -0.21079105963E-01 -0.39810037448E-02 -0.66918599418E-02  0.10214587275E+01  0.10212115226E+01 0.  0.
     999903    2    3    3    0    0  0.11187797656E+00 -0.61647056588E-01  0.80048375107E-02  0.12948397876E+00  0.19620960894E-01 0.  0.
         14    1    1    2    0    0  0.21079105963E-01  0.39810037448E-02  0.66918599418E-02  0.22471272516E-01  0.00000000000E+00 0.  1.
     999901    1    3    3    0    0 -0.13295708253E+00  0.57666052843E-01 -0.14696697453E-01  0.89197474872E+00  0.88000000000E+00 0.  1.
        -11    1    4    4    0    0  0.82093549063E-01 -0.54118159036E-01  0.31590773926E-02  0.98378690915E-01  0.51100000000E-03 0.  1.
         11    1    4    4    0    0  0.29784427500E-01 -0.75288975520E-02  0.48457601181E-02  0.31105287846E-01  0.51100000000E-03 0. -1.
</event>
<event>
 8    1  0.1108957E+005  0.1043930E+01  0.7957747E-01            NaN
         13   -1    0    0    0    0  0.00000000000E+00  0.00000000000E+00  0.74505805969E-08  0.10566000000E+00  0.10566000000E+00 0.  1.
     999900   -1    0    0    0    0 -0.00000000000E+00 -0.00000000000E+00 -0.74505805969E-08  0.93827000000E+00  0.93827000000E+00 0. -1.
     999902    2    1    2    0    0  0.21962464059E-01  0.31721859023E-02 -0.65508355043E-02  0.10207928862E+01  0.10205306416E+01 0.  0.
     999903    2    3    3    0    0  0.73051137150E-01 -0.94694227631E-01  0.52048862946E-01  0.13196117426E+00  0.20030027303E-01 0.  0.
         14    1    1    2    0    0 -0.21962464059E-01 -0.31721859023E-02  0.65508355043E-02  0.23137113838E-01  0.00000000000E+00 0.  1.
     999901    1    3    3    0    0 -0.51088673091E-01  0.97866413534E-01 -0.58599698451E-01  0.88883171190E+00  0.88000000000E+00 0. -1.
        -11    1    4    4    0    0  0.51247810276E-01 -0.51018285903E-01  0.34051130339E-01  0.79930871088E-01  0.51100000000E-03 0.  1.
         11    1    4    4    0    0  0.21803326874E-01 -0.43675941729E-01  0.17997732607E-01  0.52030303177E-01  0.51100000000E-03 0. -1.
</event>
<event>
 8    1  0.1108957E+005  0.1043930E+01  0.7957747E-01            NaN
         13   -1    0    0    0    0  0.00000000000E+00  0.00000000000E+00  0.74505805969E-08  0.10566000000E+00  0.10566000000E+00 0.  1.
     999900   -1    0    0    0    0 -0.00000000000E+00 -0.00000000000E+00 -0.74505805969E-08  0.93827000000E+00  0.93827000000E+00 0. -1.
     999902    2    1    2    0    0 -0.25110962948E-01  0.54234621724E-02 -0.52882300172E-02  0.10177013939E+01  0.10173633507E+01 0.  0.
     999903    2    3    3    0    0 -0.12297183647E+00 -0.31370925870E-01 -0.27606193066E-01  0.13123161491E+00  0.18799662273E-01 0.  0.
         14    1    1    2    0    0  0.25110962948E-01 -0.54234621724E-02  0.52882300172E-02  0.26228606117E-01  0.00000000000E+00 0.  1.
     999901    1    3    3    0    0  0.97860873521E-01  0.36794388043E-01  0.22317963049E-01  0.88646977897E+00  0.88000000000E+00 0. -1.
        -11    1    4    4    0    0 -0.68548421677E-01 -0.25552892817E-01 -0.10647665420E-01  0.73928819452E-01  0.51100000000E-03 0. -1.
         11    1    4    4    0    0 -0.54423414793E-01 -0.58180330531E-02 -0.16958527647E-01  0.57302795458E-01  0.51100000000E-03 0.  1.
</event>
<event>
 8    1  0.1108957E+005  0.1043930E+01  0.7957747E-01            NaN
         13   -1    0    0    0    0  0.00000000000E+00  0.00000000000E+00  0.74505805969E-08  0.10566000000E+00  0.10566000000E+00 0. -1.
     999900   -1    0    0    0    0 -0.00000000000E+00 -0.00000000000E+00 -0.74505805969E-08  0.93827000000E+00  0.93827000000E+00 0. -1.
     999902    2    1    2    0    0 -0.15223232924E-01  0.11562367528E-01  0.14083282035E-01  0.10201860745E+01  0.10199097277E+01 0.  0.
     999903    2    3    3    0    0  0.17789820404E-01  0.67075987169E-01  0.11110073752E+00  0.13250144004E+00  0.19939708356E-01 0.  0.
         14    1    1    2    0    0  0.15223232924E-01 -0.11562367528E-01 -0.14083282035E-01  0.23743925463E-01  0.00000000000E+00 0. -1.
     999901    1    3    3    0    0 -0.33013053328E-01 -0.55513619641E-01 -0.97017455488E-01  0.88768463450E+00  0.88000000000E+00 0. -1.
        -11    1    4    4    0    0  0.13520175385E-03  0.38484885195E-01  0.62912472102E-01  0.73751914788E-01  0.51100000000E-03 0. -1.
         11    1    4    4    0    0  0.17654618650E-01  0.28591101974E-01  0.48188265421E-01  0.58749525250E-01  0.51100000000E-03 0.  1.
</event>
<event>
 8    1  0.1108957E+005  0.1043930E+01  0.7957747E-01            NaN
         13   -1    0    0    0    0  0.00000000000E+00  0.00000000000E+00  0.74505805969E-08  0.10566000000E+00  0.10566000000E+00 0.  1.
     999900   -1    0    0    0    0 -0.00000000000E+00 -0.00000000000E+00 -0.74505805969E-08  0.93827000000E+00  0.93827000000E+00 0.  1.
     999902    2    1    2    0    0 -0.18110591085E-01  0.29540986166E-02  0.14435569013E-01  0.10205824978E+01  0.10203154066E+01 0.  0.
     999903    2    3    3    0    0 -0.80830802654E-01 -0.29051774901E-01 -0.96566976167E-01  0.13081861565E+00  0.20265858750E-01 0.  0.
         14    1    1    2    0    0  0.18110591085E-01 -0.29540986166E-02 -0.14435569013E-01  0.23347502240E-01  0.00000000000E+00 0. -1.
     999901    1    3    3    0    0  0.62720211568E-01  0.32005873518E-01  0.11100254518E+00  0.88976388211E+00  0.88000000000E+00 0. -1.
        -11    1    4    4    0    0 -0.35706166781E-01 -0.13375451913E-01 -0.28257315052E-01  0.47461247718E-01  0.51100000000E-03 0.  1.
         11    1    4    4    0    0 -0.45124635873E-01 -0.15676322988E-01 -0.68309661115E-01  0.83357367928E-01  0.51100000000E-03 0. -1.
</event>
<event>
 8    1  0.1108957E+005  0.1043930E+01  0.7957747E-01            NaN
         13   -1    0    0    0    0  0.00000000000E+00  0.00000000000E+00  0.74505805969E-08  0.10566000000E+00  0.10566000000E+00 0. -1.
     999900   -1    0    0    0    0 -0.00000000000E+00 -0.00000000000E+00 -0.74505805969E-08  0.93827000000E+00  0.93827000000E+00 0. -1.
     999902    2    1    2    0    0 -0.28510633078E-02 -0.16912395549E-01 -0.15876936755E-01  0.10205583333E+01  0.10202906825E+01 0.  0.
     999903    2    3    3    0    0 -0.46725038811E-01 -0.78002488594E-01 -0.95944225610E-01  0.13372819398E+00  0.20256306658E-01 0.  0.
         14    1    1    2    0    0  0.28510633078E-02  0.16912395549E-01  0.15876936755E-01  0.23371666734E-01  0.00000000000E+00 0. -1.
     999901    1    3    3    0    0  0.43873975504E-01  0.61090093045E-01  0.80067288855E-01  0.88683013928E+00  0.88000000000E+00 0.  1.
        -11    1    4    4    0    0 -0.20873840394E-01 -0.43844527268E-01 -0.63747061061E-01  0.80137436315E-01  0.51100000000E-03 0. -1.
         11    1    4    4    0    0 -0.25851198417E-01 -0.34157961326E-01 -0.32197164549E-01  0.53590757669E-01  0.51100000000E-03 0.  1.
</event>
<event>
 8    1  0.1108957E+005  0.1043930E+01  0.7957747E-01            NaN
         13   -1    0    0    0    0  0.00000000000E+00  0.00000000000E+00  0.74505805969E-08  0.10566000000E+00  0.10566000000E+00 0. -1.
     999900   -1    0    0    0    0 -0.00000000000E+00 -0.00000000000E+00 -0.74505805969E-08  0.93827000000E+00  0.93827000000E+00 0. -1.
     999902    2    1    2    0    0 -0.16839017538E-01  0.15717174200E-01  0.51296199722E-02  0.10203313755E+01  0.10200584399E+01 0.  0.
     999903    2    3    3    0    0  0.13569874774E-01  0.13009684126E+00  0.40442970620E-02  0.13240762491E+00  0.20151753957E-01 0.  0.
         14    1    1    2    0    0  0.16839017538E-01 -0.15717174200E-01 -0.51296199722E-02  0.23598624484E-01  0.00000000000E+00 0. -1.
     999901    1    3    3    0    0 -0.30408892313E-01 -0.11437966706E+00  0.10853229103E-02  0.88792375061E+00  0.88000000000E+00 0. -1.
        -11    1    4    4    0    0 -0.51321119482E-03  0.76383316253E-01 -0.29118694599E-02  0.76442229770E-01  0.51100000000E-03 0.  1.
         11    1    4    4    0    0  0.14083085969E-01  0.53713525008E-01  0.69561665219E-02  0.55965395137E-01  0.51100000000E-03 0. -1.
</event>
<event>
 8    1  0.1108957E+005  0.1043930E+01  0.7957747E-01            NaN
         13   -1    0    0    0    0  0.00000000000E+00  0.00000000000E+00  0.74505805969E-08  0.10566000000E+00  0.10566000000E+00 0.  1.
     999900   -1    0    0    0    0 -0.00000000000E+00 -0.00000000000E+00 -0.74505805969E-08  0.93827000000E+00  0.93827000000E+00 0.  1.
     999902    2    1    2    0    0 -0.77175433294E-02  0.21089664230E-01 -0.32810371135E-02  0.10212341938E+01  0.10209819680E+01 0.  0.
     999903    2    3    3    0    0 -0.35482000704E-01  0.12227907645E+00 -0.38197351618E-01  0.13431293959E+00  0.19229746738E-01 0.  0.
         14    1    1    2    0    0  0.77175433294E-02 -0.21089664230E-01  0.32810371135E-02  0.22695806153E-01  0.00000000000E+00 0. -1.
     999901    1    3    3    0    0  0.27764457374E-01 -0.10118941222E+00  0.34916314504E-01  0.88692125426E+00  0.88000000000E+00 0. -1.
        -11    1    4    4    0    0 -0.11401123257E-01  0.70901651601E-01 -0.17527589934E-01  0.73922306114E-01  0.51100000000E-03 0.  1.
         11    1    4    4    0    0 -0.24080877447E-01  0.51377424845E-01 -0.20669761683E-01  0.60390633474E-01  0.51100000000E-03 0. -1.
</event>
<event>
 8    1  0.1108957E+005  0.1043930E+01  0.7957747E-01            NaN
         13   -1    0    0    0    0  0.00000000000E+00  0.00000000000E+00  0.74505805969E-08  0.10566000000E+00  0.10566000000E+00 0. -1.
     999900   -1    0    0    0    0 -0.00000000000E+00 -0.00000000000E+00 -0.74505805969E-08  0.93827000000E+00  0.93827000000E+00 0. -1.
     999902    2    1    2    0    0  0.12925996716E-01  0.22676144916E-02 -0.21255563559E-01  0.10189495587E+01  0.10186433039E+01 0.  0.
     999903    2    3    3    0    0  0.38090179637E-01  0.28857964137E-01 -0.12202085626E+00  0.13244297268E+00  0.19193951435E-01 0.  0.
         14    1    1    2    0    0 -0.12925996716E-01 -0.22676144916E-02  0.21255563559E-01  0.24980441325E-01  0.00000000000E+00 0. -1.
     999901    1    3    3    0    0 -0.25164182921E-01 -0.26590349645E-01  0.10076529270E+00  0.88650658599E+00  0.88000000000E+00 0.  1.
        -11    1    4    4    0    0  0.30777535802E-01  0.12283366933E-01 -0.72708251690E-01  0.79905499173E-01  0.51100000000E-03 0. -1.
         11    1    4    4    0    0  0.73126438356E-02  0.16574597204E-01 -0.49312604569E-01  0.52537473509E-01  0.51100000000E-03 0.  1.
</event>
<event>
 8    1  0.1108957E+005  0.1043930E+01  0.7957747E-01            NaN
         13   -1    0    0    0    0  0.00000000000E+00  0.00000000000E+00  0.74505805969E-08  0.10566000000E+00  0.10566000000E+00 0.  1.
     999900   -1    0    0    0    0 -0.00000000000E+00 -0.00000000000E+00 -0.74505805969E-08  0.93827000000E+00  0.93827000000E+00 0.  1.
     999902    2    1    2    0    0  0.14508779851E-01 -0.14797686033E-01 -0.16875868122E-01  0.10172041487E+01  0.10168529928E+01 0.  0.
     999903    2    3    3    0    0 -0.27943115332E-01  0.20822663805E-01 -0.12283704682E+00  0.12911702224E+00  0.19179789881E-01 0.  0.
         14    1    1    2    0    0 -0.14508779851E-01  0.14797686033E-01  0.16875868122E-01  0.26725851335E-01  0.00000000000E+00 0. -1.
     999901    1    3    3    0    0  0.42451895183E-01 -0.35620349838E-01  0.10596117869E+00  0.88808712642E+00  0.88000000000E+00 0. -1.
        -11    1    4    4    0    0 -0.29556529664E-01  0.13937546304E-01 -0.10008671586E+00  0.10528748955E+00  0.51100000000E-03 0.  1.
         11    1    4    4    0    0  0.16134143320E-02  0.68851175010E-02 -0.22750330959E-01  0.23829532697E-01  0.51100000000E-03 0. -1.
</event>
<event>
 8    1  0.1108957E+005  0.1043930E+01  0.7957747E-01            NaN
         13   -1    0    0    0    0  0.00000000000E+00  0.00000000000E+00  0.74505805969E-08  0.10566000000E+00  0.10566000000E+00 0. -1.
     999900   -1    0    0    0    0 -0.00000000000E+00 -0.00000000000E+00 -0.74505805969E-08  0.93827000000E+00  0.93827000000E+00 0. -1.
     999902    2    1    2    0    0  0.51889835278E-02  0.20212410408E-01  0.14023785582E-01  0.10187877319E+01  0.10184774465E+01 0.  0.
     999903    2    3    3    0    0 -0.86534475795E-01 -0.84297570009E-01 -0.32679314370E-01  0.12664609035E+00  0.19416456990E-01 0.  0.
         14    1    1    2    0    0 -0.51889835278E-02 -0.20212410408E-01 -0.14023785582E-01  0.25142268128E-01  0.00000000000E+00 0. -1.
     999901    1    3    3    0    0  0.91723459323E-01  0.10450998042E+00  0.46703099952E-01  0.89214164152E+00  0.88000000000E+00 0.  1.
        -11    1    4    4    0    0 -0.22571369578E-01 -0.31453026296E-01 -0.42942833277E-02  0.38954609202E-01  0.51100000000E-03 0.  1.
         11    1    4    4    0    0 -0.63963106217E-01 -0.52844543713E-01 -0.28385031042E-01  0.87691481145E-01  0.51100000000E-03 0. -1.
</event>
<event>
 8    1  0.1108957E+005  0.1043930E+01  0.7957747E-01            NaN
         13   -1    0    0    0    0  0.00000000000E+00  0.00000000000E+00  0.74505805969E-08  0.10566000000E+00  0.10566000000E+00 0.  1.
     999900   -1    0    0    0    0 -0.00000000000E+00 -0.00000000000E+00 -0.74505805969E-08  0.93827000000E+00  0.93827000000E+00 0. -1.
     999902    2    1    2    0    0  0.16633547895E-01 -0.13013667983E-01  0.21254713405E-02  0.10227038817E+01  0.10224835850E+01 0.  0.
     999903    2    3    3    0    0  0.46583702870E-01  0.75579314756E-01 -0.95970100655E-01  0.13232841616E+00  0.20451780176E-01 0.  0.
         14    1    1    2    0    0 -0.16633547895E-01  0.13013667983E-01 -0.21254713405E-02  0.21226118307E-01  0.00000000000E+00 0.  1.
     999901    1    3    3    0    0 -0.29950154975E-01 -0.88592982739E-01  0.98095571995E-01  0.89037546553E+00  0.88000000000E+00 0. -1.
        -11    1    4    4    0    0  0.39065601661E-01  0.45404220609E-01 -0.60103242167E-01  0.84854730701E-01  0.51100000000E-03 0. -1.
         11    1    4    4    0    0  0.75181012084E-02  0.30175094147E-01 -0.35866858488E-01  0.47473685462E-01  0.51100000000E-03 0.  1.
</event>
<event>
 8    1  0.1108957E+005  0.1043930E+01  0.7957747E-01            NaN
         13   -1    0    0    0    0  0.00000000000E+00  0.00000000000E+00  0.74505805969E-08  0.10566000000E+00  0.10566000000E+00 0. -1.
     999900   -1    0    0    0    0 -0.00000000000E+00 -0.00000000000E+00 -0.74505805969E-08  0.93827000000E+00  0.93827000000E+00 0. -1.
     999902    2    1    2    0    0  0.62933409681E-02 -0.23158480386E-01  0.88317659327E-04  0.10199314760E+01  0.10196490997E+01 0.  0.
     999903    2    3    3    0    0  0.95076630976E-01 -0.92262784055E-02  0.87727005666E-01  0.13102365261E+00  0.18613974587E-01 0.  0.
         14    1    1    2    0    0 -0.62933409681E-02  0.23158480386E-01 -0.88317659327E-04  0.23998524004E-01  0.00000000000E+00 0. -1.
     999901    1    3    3    0    0 -0.88783290008E-01 -0.13932201981E-01 -0.87638688007E-01  0.88890782338E+00  0.88000000000E+00 0. -1.
        -11    1    4    4    0    0  0.76844842367E-01 -0.12516991189E-01  0.77499427689E-01  0.10985548361E+00  0.51100000000E-03 0. -1.
         11    1    4    4    0    0  0.18231788609E-01  0.32907127835E-02  0.10227577977E-01  0.21168168999E-01  0.51100000000E-03 0.  1.
</event>
<event>
 8    1  0.1108957E+005  0.1043930E+01  0.7957747E-01            NaN
         13   -1    0    0    0    0  0.00000000000E+00  0.00000000000E+00  0.74505805969E-08  0.10566000000E+00  0.10566000000E+00 0. -1.
     999900   -1    0    0    0    0 -0.00000000000E+00 -0.00000000000E+00 -0.74505805969E-08  0.93827000000E+00  0.93827000000E+00 0.  1.
     999902    2    1    2    0    0  0.36082551776E-02  0.14768755293E-01 -0.17995955584E-01  0.10203717731E+01  0.10200997820E+01 0.  0.
     999903    2    3    3    0    0  0.12116729182E+00 -0.31380085952E-01 -0.36624680300E-01  0.13116039662E+00  0.13980702092E-01 0.  0.
         14    1    1    2    0    0 -0.36082551776E-02 -0.14768755293E-01  0.17995955584E-01  0.23558226922E-01  0.00000000000E+00 0. -1.
     999901    1    3    3    0    0 -0.11755903665E+00  0.46148841245E-01  0.18628724716E-01  0.88921137646E+00  0.88000000000E+00 0.  1.
        -11    1    4    4    0    0  0.50091387929E-01 -0.67573517454E-02 -0.18105396229E-01  0.53692415114E-01  0.51100000000E-03 0. -1.
         11    1    4    4    0    0  0.71075903896E-01 -0.24622734207E-01 -0.18519284071E-01  0.77467981502E-01  0.51100000000E-03 0.  1.
</event>
<event>
 8    1  0.1108957E+005  0.1043930E+01  0.7957747E-01            NaN
         13   -1    0    0    0    0  0.00000000000E+00  0.00000000000E+00  0.74505805969E-08  0.10566000000E+00  0.10566000000E+00 0. -1.
     999900   -1    0    0    0    0 -0.00000000000E+00 -0.00000000000E+00 -0.74505805969E-08  0.93827000000E+00  0.93827000000E+00 0.  1.
     999902    2    1    2    0    0  0.17509958568E-02  0.20662160041E-01 -0.12071967518E-01  0.10199357664E+01  0.10196534923E+01 0.  0.
     999903    2    3    3    0    0  0.94564765686E-01 -0.41979461463E-01  0.73849821348E-01  0.12868893059E+00  0.20056785646E-01 0.  0.
         14    1    1    2    0    0 -0.17509958568E-02 -0.20662160041E-01  0.12071967518E-01  0.23994233553E-01  0.00000000000E+00 0.  1.
     999901    1    3    3    0    0 -0.92813769829E-01  0.62641621504E-01 -0.85921788866E-01  0.89124683585E+00  0.88000000000E+00 0.  1.
        -11    1    4    4    0    0  0.22951772827E-01 -0.18977131156E-01  0.16099530120E-01  0.33858106473E-01  0.51100000000E-03 0.  1.
         11    1    4    4    0    0  0.71612992859E-01 -0.23002330307E-01  0.57750291227E-01  0.94830824122E-01  0.51100000000E-03 0. -1.
</event>
<event>
 8    1  0.1108957E+005  0.1043930E+01  0.7957747E-01            NaN
         13   -1    0    0    0    0  0.00000000000E+00  0.00000000000E+00  0.74505805969E-08  0.10566000000E+00  0.10566000000E+00 0. -1.
     999900   -1    0    0    0    0 -0.00000000000E+00 -0.00000000000E+00 -0.74505805969E-08  0.93827000000E+00  0.93827000000E+00 0.  1.
     999902    2    1    2    0    0 -0.20480214293E-01  0.12072465988E-01  0.56879738526E-02  0.10194854370E+01  0.10191923369E+01 0.  0.
     999903    2    3    3    0    0  0.18665253665E-01  0.11117796212E+00 -0.62538093051E-01  0.13043590903E+00  0.19838909418E-01 0.  0.
         14    1    1    2    0    0  0.20480214293E-01 -0.12072465988E-01 -0.56879738526E-02  0.24444562976E-01  0.00000000000E+00 0. -1.
     999901    1    3    3    0    0 -0.39145467959E-01 -0.99105496128E-01  0.68226066904E-01  0.88904952800E+00  0.88000000000E+00 0.  1.
        -11    1    4    4    0    0  0.10109589600E-01  0.79826150954E-01 -0.34649133313E-01  0.87608457003E-01  0.51100000000E-03 0.  1.
         11    1    4    4    0    0  0.85556640651E-02  0.31351811162E-01 -0.27888959738E-01  0.42827452026E-01  0.51100000000E-03 0. -1.
</event>
<event>
 8    1  0.1108957E+005  0.1043930E+01  0.7957747E-01            NaN
         13   -1    0    0    0    0  0.00000000000E+00  0.00000000000E+00  0.74505805969E-08  0.10566000000E+00  0.10566000000E+00 0.  1.
     999900   -1    0    0    0    0 -0.00000000000E+00 -0.00000000000E+00 -0.74505805969E-08  0.93827000000E+00  0.93827000000E+00 0. -1.
     999902    2    1    2    0    0 -0.10559238585E-02  0.24371955000E-01  0.40723753398E-02  0.10191976041E+01  0.10188974751E+01 0.  0.
     999903    2    3    3    0    0 -0.19326964407E-01  0.10612698950E+00 -0.73156759568E-01  0.13185209312E+00  0.19914656315E-01 0.  0.
         14    1    1    2    0    0  0.10559238585E-02 -0.24371955000E-01 -0.40723753398E-02  0.24732395893E-01  0.00000000000E+00 0.  1.
     999901    1    3    3    0    0  0.18271040549E-01 -0.81755034500E-01  0.77229134908E-01  0.88734551099E+00  0.88000000000E+00 0.  1.
        -11    1    4    4    0    0  0.28896952385E-02  0.23022094240E-01 -0.10764273691E-01  0.25583155999E-01  0.51100000000E-03 0. -1.
         11    1    4    4    0    0 -0.22216659646E-01  0.83104895261E-01 -0.62392485877E-01  0.10626893712E+00  0.51100000000E-03 0.  1.
</event>
<event>
 8    1  0.1108957E+005  0.1043930E+01  0.7957747E-01            NaN
         13   -1    0    0    0    0  0.00000000000E+00  0.00000000000E+00  0.74505805969E-08  0.10566000000E+00  0.10566000000E+00 0.  1.
     999900   -1    0    0    0    0 -0.00000000000E+00 -0.00000000000E+00 -0.74505805969E-08  0.93827000000E+00  0.93827000000E+00 0. -1.
     999902    2    1    2    0    0  0.16775516856E-01  0.13690442522E-01  0.20307838076E-02  0.10221821204E+01  0.10219507410E+01 0.  0.
     999903    2    3    3    0    0 -0.30403848063E-01 -0.12425737741E+00  0.14849822189E-01  0.13009478098E+00  0.18434885402E-01 0.  0.
         14    1    1    2    0    0 -0.16775516856E-01 -0.13690442522E-01 -0.20307838076E-02  0.21747879554E-01  0.00000000000E+00 0.  1.
     999901    1    3    3    0    0  0.47179364919E-01  0.13794781993E+00 -0.12819038381E-01  0.89208733947E+00  0.88000000000E+00 0. -1.
        -11    1    4    4    0    0 -0.74187283832E-02 -0.68628151986E-01  0.67434930695E-02  0.69358464484E-01  0.51100000000E-03 0. -1.
         11    1    4    4    0    0 -0.22985119680E-01 -0.55629225426E-01  0.81063291191E-02  0.60736316491E-01  0.51100000000E-03 0.  1.
</event>
<event>
 8    1  0.1108957E+005  0.1043930E+01  0.7957747E-01            NaN
         13   -1    0    0    0    0  0.00000000000E+00  0.00000000000E+00  0.74505805969E-08  0.10566000000E+00  0.10566000000E+00 0.  1.
     999900   -1    0    0    0    0 -0.00000000000E+00 -0.00000000000E+00 -0.74505805969E-08  0.93827000000E+00  0.93827000000E+00 0. -1.
     999902    2    1    2    0    0  0.15825225821E-01 -0.56650659613E-02  0.14265198335E-01  0.10218839884E+01  0.10216461516E+01 0.  0.
     999903    2    3    3    0    0  0.91864739230E-01 -0.94675656332E-01 -0.75072523981E-02  0.13386431945E+00  0.21463619652E-01 0.  0.
         14    1    1    2    0    0 -0.15825225821E-01  0.56650659613E-02 -0.14265198335E-01  0.22046011616E-01  0.00000000000E+00 0. -1.
     999901    1    3    3    0    0 -0.76039513409E-01  0.89010590370E-01  0.21772450733E-01  0.88801966893E+00  0.88000000000E+00 0. -1.
        -11    1    4    4    0    0  0.25979996352E-01 -0.17266025108E-01  0.44362963680E-02  0.31512183040E-01  0.51100000000E-03 0. -1.
         11    1    4    4    0    0  0.65884742878E-01 -0.77409631224E-01 -0.11943548766E-01  0.10235213641E+00  0.51100000000E-03 0.  1.
</event>
<event>
 8    1  0.1108957E+005  0.1043930E+01  0.7957747E-01            NaN
         13   -1    0    0    0    0  0.00000000000E+00  0.00000000000E+00  0.74505805969E-08  0.10566000000E+00  0.10566000000E+00 0.  1.
     999900   -1    0    0    0    0 -0.00000000000E+00 -0.00000000000E+00 -0.74505805969E-08  0.93827000000E+00  0.93827000000E+00 0.  1.
     999902    2    1    2    0    0 -0.10099077198E-01 -0.14299330870E-01 -0.14601193283E-01  0.10211340120E+01  0.10208795293E+01 0.  0.
     999903    2    3    3    0    0 -0.44677253609E-01  0.37297401803E-01 -0.11779578109E+00  0.13292964584E+00  0.20181464992E-01 0.  0.
         14    1    1    2    0    0  0.10099077198E-01  0.14299330870E-01  0.14601193283E-01  0.22795988000E-01  0.00000000000E+00 0.  1.
     999901    1    3    3    0    0  0.34578176411E-01 -0.51596732673E-01  0.10319458781E+00  0.88820436616E+00  0.88000000000E+00 0. -1.
        -11    1    4    4    0    0 -0.22723821948E-01  0.19127736374E-01 -0.38244871079E-01  0.48426993171E-01  0.51100000000E-03 0. -1.
         11    1    4    4    0    0 -0.21953431661E-01  0.18169665429E-01 -0.79550910014E-01  0.84502652672E-01  0.51100000000E-03 0.  1.
</event>
<event>
 8    1  0.1108957E+005  0.1043930E+01  0.7957747E-01            NaN
         13   -1    0    0    0    0  0.00000000000E+00  0.00000000000E+00  0.74505805969E-08  0.10566000000E+00  0.10566000000E+00 0.  1.
     999900   -1    0    0    0    0 -0.00000000000E+00 -0.00000000000E+00 -0.74505805969E-08  0.93827000000E+00  0.93827000000E+00 0.  1.
     999902    2    1    2    0    0  0.18490701216E-01  0.66921330887E-02 -0.13022595203E-01  0.10203444395E+01  0.10200718095E+01 0.  0.
     999903    2    3    3    0    0 -0.74014279444E-01  0.82507998016E-01 -0.66471787750E-01  0.13064671951E+00  0.19088830632E-01 0.  0.
         14    1    1    2    0    0 -0.18490701216E-01 -0.66921330887E-02  0.13022595203E-01  0.23585560467E-01  0.00000000000E+00 0.  1.
     999901    1    3    3    0    0  0.92504980660E-01 -0.75815864928E-01  0.53449192547E-01  0.88969772002E+00  0.88000000000E+00 0. -1.
        -11    1    4    4    0    0 -0.39331685098E-01  0.31355967778E-01 -0.24613977455E-01  0.56002564005E-01  0.51100000000E-03 0. -1.
         11    1    4    4    0    0 -0.34682594347E-01  0.51152030239E-01 -0.41857810295E-01  0.74644155510E-01  0.51100000000E-03 0.  1.
</event>
<event>
 8    1  0.1108957E+005  0.1043930E+01  0.7957747E-01            NaN
         13   -1    0    0    0    0  0.00000000000E+00  0.00000000000E+00  0.74505805969E-08  0.10566000000E+00  0.10566000000E+00 0.  1.
     999900   -1    0    0    0    0 -0.00000000000E+00 -0.00000000000E+00 -0.74505805969E-08  0.93827000000E+00  0.93827000000E+00 0. -1.
     999902    2    1    2    0    0 -0.23667656154E-01  0.11568183711E-02 -0.63699798571E-03  0.10202255291E+01  0.10199501106E+01 0.  0.
     999903    2    3    3    0    0  0.73775960672E-01  0.61322802537E-01  0.83596912029E-01  0.12881622031E+00  0.20044860449E-01 0.  0.
         14    1    1    2    0    0  0.23667656154E-01 -0.11568183711E-02  0.63699798571E-03  0.23704470949E-01  0.00000000000E+00 0.  1.
     999901    1    3    3    0    0 -0.97443616826E-01 -0.60165984166E-01 -0.84233910015E-01  0.89140930874E+00  0.88000000000E+00 0.  1.
        -11    1    4    4    0    0  0.40766074104E-01  0.21548003666E-01  0.43547518755E-01  0.63425836775E-01  0.51100000000E-03 0. -1.
         11    1    4    4    0    0  0.33009886568E-01  0.39774798870E-01  0.40049393274E-01  0.65390383536E-01  0.51100000000E-03 0.  1.
</event>
<event>
 8    1  0.1108957E+005  0.1043930E+01  0.7957747E-01            NaN
         13   -1    0    0    0    0  0.00000000000E+00  0.00000000000E+00  0.74505805969E-08  0.10566000000E+00  0.10566000000E+00 0.  1.
     999900   -1    0    0    0    0 -0.00000000000E+00 -0.00000000000E+00 -0.74505805969E-08  0.93827000000E+00  0.93827000000E+00 0. -1.
     999902    2    1    2    0    0 -0.19667224578E-01 -0.83372388488E-02 -0.16211957475E-01  0.10171132731E+01  0.10167596931E+01 0.  0.
     999903    2    3    3    0    0  0.10201462916E+00  0.68056618155E-01 -0.17931340887E-01  0.12546006073E+00  0.19493742998E-01 0.  0.
         14    1    1    2    0    0  0.19667224578E-01  0.83372388488E-02  0.16211957475E-01  0.26816726858E-01  0.00000000000E+00 0.  1.
     999901    1    3    3    0    0 -0.12168185374E+00 -0.76393857003E-01  0.17193834120E-02  0.89165321241E+00  0.88000000000E+00 0.  1.
        -11    1    4    4    0    0  0.43855434500E-01  0.31913780871E-01 -0.17460523131E-01  0.56981747373E-01  0.51100000000E-03 0. -1.
         11    1    4    4    0    0  0.58159194661E-01  0.36142837283E-01 -0.47081775581E-03  0.68478313362E-01  0.51100000000E-03 0.  1.
</event>
<event>
 8    1  0.1108957E+005  0.1043930E+01  0.7957747E-01            NaN
         13   -1    0    0    0    0  0.00000000000E+00  0.00000000000E+00  0.74505805969E-08  0.10566000000E+00  0.10566000000E+00 0.  1.
     999900   -1    0    0    0    0 -0.00000000000E+00 -0.00000000000E+00 -0.74505805969E-08  0.93827000000E+00  0.93827000000E+00 0.  1.
     999902    2    1    2    0    0  0.22886634534E-01 -0.62664828731E-02  0.23834503286E-03  0.10201997734E+01  0.10199237491E+01 0.  0.
     999903    2    3    3    0    0 -0.24295104141E-01  0.58133280366E-01  0.11020485018E+00  0.12976949635E+00  0.26931075150E-01 0.  0.
         14    1    1    2    0    0 -0.22886634534E-01  0.62664828731E-02 -0.23834503286E-03  0.23730226637E-01  0.00000000000E+00 0. -1.
     999901    1    3    3    0    0  0.47181738675E-01 -0.64399763240E-01 -0.10996650514E+00  0.89043027701E+00  0.88000000000E+00 0.  1.
        -11    1    4    4    0    0 -0.28894084827E-01  0.45029053865E-01  0.76907161932E-01  0.93688080925E-01  0.51100000000E-03 0. -1.
         11    1    4    4    0    0  0.45989806858E-02  0.13104226502E-01  0.33297688245E-01  0.36081415424E-01  0.51100000000E-03 0.  1.
</event>
<event>
 8    1  0.1108957E+005  0.1043930E+01  0.7957747E-01            NaN
         13   -1    0    0    0    0  0.00000000000E+00  0.00000000000E+00  0.74505805969E-08  0.10566000000E+00  0.10566000000E+00 0. -1.
     999900   -1    0    0    0    0 -0.00000000000E+00 -0.00000000000E+00 -0.74505805969E-08  0.93827000000E+00  0.93827000000E+00 0. -1.
     999902    2    1    2    0    0  0.12078183364E-01  0.86943057229E-02 -0.18319865204E-01  0.10203272263E+01  0.10200541936E+01 0.  0.
     999903    2    3    3    0    0  0.12643374993E+00  0.18836218102E-01  0.25067293973E-01  0.13181020363E+00  0.20131177811E-01 0.  0.
         14    1    1    2    0    0 -0.12078183364E-01 -0.86943057229E-02  0.18319865204E-01  0.23602773703E-01  0.00000000000E+00 0. -1.
     999901    1    3    3    0    0 -0.11435556656E+00 -0.10141912379E-01 -0.43387159177E-01  0.88851702267E+00  0.88000000000E+00 0.  1.
        -11    1    4    4    0    0  0.10958658927E+00  0.19238378446E-01  0.15259207697E-01  0.11230512140E+00  0.51100000000E-03 0.  1.
         11    1    4    4    0    0  0.16847160662E-01 -0.40216034427E-03  0.98080862758E-02  0.19505082228E-01  0.51100000000E-03 0. -1.
</event>
<event>
 8    1  0.1108957E+005  0.1043930E+01  0.7957747E-01            NaN
         13   -1    0    0    0    0  0.00000000000E+00  0.00000000000E+00  0.74505805969E-08  0.10566000000E+00  0.10566000000E+00 0.  1.
     999900   -1    0    0    0    0 -0.00000000000E+00 -0.00000000000E+00 -0.74505805969E-08  0.93827000000E+00  0.93827000000E+00 0. -1.
     999902    2    1    2    0    0  0.10767972542E-01 -0.39952157766E-02 -0.18667231467E-01  0.10220125067E+01  0.10217774647E+01 0.  0.
     999903    2    3    3    0    0  0.12925242764E+00 -0.26359910516E-01  0.45605487342E-02  0.13348660644E+00  0.19920857438E-01 0.  0.
         14    1    1    2    0    0 -0.10767972542E-01  0.39952157766E-02  0.18667231467E-01  0.21917493296E-01  0.00000000000E+00 0.  1.
     999901    1    3    3    0    0 -0.11848445510E+00  0.22364694740E-01 -0.23227780201E-01  0.88852590027E+00  0.88000000000E+00 0.  1.
        -11    1    4    4    0    0  0.16712593986E-01 -0.78726416502E-02 -0.46771924671E-02  0.19063749229E-01  0.51100000000E-03 0.  1.
         11    1    4    4    0    0  0.11253983365E+00 -0.18487268866E-01  0.92377412013E-02  0.11442285721E+00  0.51100000000E-03 0. -1.
</event>
<event>
 8    1  0.1108957E+005  0.1043930E+01  0.7957747E-01            NaN
         13   -1    0    0    0    0  0.00000000000E+00  0.00000000000E+00  0.74505805969E-08  0.10566000000E+00  0.10566000000E+00 0. -1.
     999900   -1    0    0    0    0 -0.00000000000E+00 -0.00000000000E+00 -0.74505805969E-08  0.93827000000E+00  0.93827000000E+00 0.  1.
     999902    2    1    2    0    0  0.10898130245E-01 -0.48237500393E-02  0.18069155761E-01  0.10222843954E+01  0.10220552103E+01 0.  0.
     999903    2    3    3    0    0  0.96285414501E-01  0.54852900624E-01 -0.68717204325E-01  0.13190011702E+00  0.19896355105E-01 0.  0.
         14    1    1    2    0    0 -0.10898130245E-01  0.48237500393E-02 -0.18069155761E-01  0.21645604570E-01  0.00000000000E+00 0.  1.
     999901    1    3    3    0    0 -0.85387284256E-01 -0.59676650663E-01  0.86786360086E-01  0.89038427841E+00  0.88000000000E+00 0. -1.
        -11    1    4    4    0    0  0.14042298268E-01  0.15121883550E-01 -0.75873933711E-02  0.21992888894E-01  0.51100000000E-03 0. -1.
         11    1    4    4    0    0  0.82243116234E-01  0.39731017074E-01 -0.61129810954E-01  0.10990722812E+00  0.51100000000E-03 0.  1.
</event>
<event>
 8    1  0.1108957E+005  0.1043930E+01  0.7957747E-01            NaN
         13   -1    0    0    0    0  0.00000000000E+00  0.00000000000E+00  0.74505805969E-08  0.10566000000E+00  0.10566000000E+00 0.  1.
     999900   -1    0    0    0    0 -0.00000000000E+00 -0.00000000000E+00 -0.74505805969E-08  0.93827000000E+00  0.93827000000E+00 0.  1.
     999902    2    1    2    0    0  0.15558531134E-01 -0.22019866324E-01  0.10397017773E-01  0.10150329347E+01  0.10146215147E+01 0.  0.
     999903    2    3    3    0    0 -0.49691953898E-01  0.92000482794E-01 -0.60090404347E-01  0.12249344399E+00  0.21457120258E-01 0.  0.
         14    1    1    2    0    0 -0.15558531134E-01  0.22019866324E-01 -0.10397017773E-01  0.28897065293E-01  0.00000000000E+00 0.  1.
     999901    1    3    3    0    0  0.65250485032E-01 -0.11402034912E+00  0.70487422120E-01  0.89253949072E+00  0.88000000000E+00 0. -1.
        -11    1    4    4    0    0 -0.32900773336E-01  0.41727906980E-01 -0.36545622235E-01  0.64494362022E-01  0.51100000000E-03 0. -1.
         11    1    4    4    0    0 -0.16791180562E-01  0.50272575814E-01 -0.23544782112E-01  0.57999081969E-01  0.51100000000E-03 0.  1.
</event>
<event>
 8    1  0.1108957E+005  0.1043930E+01  0.7957747E-01            NaN
         13   -1    0    0    0    0  0.00000000000E+00  0.00000000000E+00  0.74505805969E-08  0.10566000000E+00  0.10566000000E+00 0.  1.
     999900   -1    0    0    0    0 -0.00000000000E+00 -0.00000000000E+00 -0.74505805969E-08  0.93827000000E+00  0.93827000000E+00 0. -1.
     999902    2    1    2    0    0  0.20963316343E-01 -0.39500491645E-02  0.27583527425E-02  0.10224201876E+01  0.10221938994E+01 0.  0.
     999903    2    3    3    0    0 -0.87065806525E-02 -0.11207203950E+00 -0.67192168843E-01  0.13255292610E+00  0.20482775181E-01 0.  0.
         14    1    1    2    0    0 -0.20963316343E-01  0.39500491645E-02 -0.27583527425E-02  0.21509812420E-01  0.00000000000E+00 0.  1.
     999901    1    3    3    0    0  0.29669896995E-01  0.10812199034E+00  0.69950521585E-01  0.88986726148E+00  0.88000000000E+00 0.  1.
        -11    1    4    4    0    0 -0.15204364255E-01 -0.66445140058E-01 -0.40758230555E-01  0.79420550292E-01  0.51100000000E-03 0. -1.
         11    1    4    4    0    0  0.64977836024E-02 -0.45626899444E-01 -0.26433938288E-01  0.53132375809E-01  0.51100000000E-03 0.  1.
</event>
<event>
 8    1  0.1108957E+005  0.1043930E+01  0.7957747E-01            NaN
         13   -1    0    0    0    0  0.00000000000E+00  0.00000000000E+00  0.74505805969E-08  0.10566000000E+00  0.10566000000E+00 0. -1.
     999900   -1    0    0    0    0 -0.00000000000E+00 -0.00000000000E+00 -0.74505805969E-08  0.93827000000E+00  0.93827000000E+00 0.  1.
     999902    2    1    2    0    0 -0.11698764996E-01 -0.18524052493E-01 -0.10940471807E-01  0.10194413180E+01  0.10191471460E+01 0.  0.
     999903    2    3    3    0    0  0.27113456043E-01 -0.73860355188E-01 -0.10418319614E+00  0.13193768389E+00  0.19050525099E-01 0.  0.
         14    1    1    2    0    0  0.11698764996E-01  0.18524052493E-01  0.10940471807E-01  0.24488682010E-01  0.00000000000E+00 0. -1.
     999901    1    3    3    0    0 -0.38812221039E-01  0.55336302695E-01  0.93242724329E-01  0.88750363410E+00  0.88000000000E+00 0. -1.
        -11    1    4    4    0    0  0.20897564924E-01 -0.65686191943E-01 -0.79646314756E-01  0.10533366322E+00  0.51100000000E-03 0. -1.
         11    1    4    4    0    0  0.62158911188E-02 -0.81741632450E-02 -0.24536881380E-01  0.26604020674E-01  0.51100000000E-03 0.  1.
</event>
<event>
 8    1  0.1108957E+005  0.1043930E+01  0.7957747E-01            NaN
         13   -1    0    0    0    0  0.00000000000E+00  0.00000000000E+00  0.74505805969E-08  0.10566000000E+00  0.10566000000E+00 0.  1.
     999900   -1    0    0    0    0 -0.00000000000E+00 -0.00000000000E+00 -0.74505805969E-08  0.93827000000E+00  0.93827000000E+00 0. -1.
     999902    2    1    2    0    0  0.12777440055E-01 -0.17229709442E-01 -0.10020477987E-01  0.10202543619E+01  0.10199796209E+01 0.  0.
     999903    2    3    3    0    0 -0.85620341480E-01  0.37985097642E-01  0.84915296951E-01  0.12798556846E+00  0.19899436149E-01 0.  0.
         14    1    1    2    0    0 -0.12777440055E-01  0.17229709442E-01  0.10020477987E-01  0.23675638131E-01  0.00000000000E+00 0.  1.
     999901    1    3    3    0    0  0.98397781535E-01 -0.55214807084E-01 -0.94935774939E-01  0.89226879341E+00  0.88000000000E+00 0. -1.
        -11    1    4    4    0    0 -0.48205600994E-01  0.31402148623E-01  0.46743774558E-01  0.74129052916E-01  0.51100000000E-03 0.  1.
         11    1    4    4    0    0 -0.37414740486E-01  0.65829490191E-02  0.38171522393E-01  0.53856515541E-01  0.51100000000E-03 0. -1.
</event>
<event>
 8    1  0.1108957E+005  0.1043930E+01  0.7957747E-01            NaN
         13   -1    0    0    0    0  0.00000000000E+00  0.00000000000E+00  0.74505805969E-08  0.10566000000E+00  0.10566000000E+00 0. -1.
     999900   -1    0    0    0    0 -0.00000000000E+00 -0.00000000000E+00 -0.74505805969E-08  0.93827000000E+00  0.93827000000E+00 0. -1.
     999902    2    1    2    0    0  0.48725674863E-02  0.82105234241E-02  0.21263989680E-01  0.10206209488E+01  0.10203547468E+01 0.  0.
     999903    2    3    3    0    0  0.41924288475E-01  0.11804539039E+00 -0.34624135887E-01  0.13126162292E+00  0.18396268902E-01 0.  0.
         14    1    1    2    0    0 -0.48725674863E-02 -0.82105234241E-02 -0.21263989680E-01  0.23309051159E-01  0.00000000000E+00 0.  1.
     999901    1    3    3    0    0 -0.37051720989E-01 -0.10983486696E+00  0.55888125567E-01  0.88935932592E+00  0.88000000000E+00 0.  1.
        -11    1    4    4    0    0  0.32624949045E-01  0.80960053845E-01 -0.31875992688E-01  0.92926087025E-01  0.51100000000E-03 0. -1.
         11    1    4    4    0    0  0.92993394299E-02  0.37085336540E-01 -0.27481431985E-02  0.38335535892E-01  0.51100000000E-03 0.  1.
</event>
<event>
 8    1  0.1108957E+005  0.1043930E+01  0.7957747E-01            NaN
         13   -1    0    0    0    0  0.00000000000E+00  0.00000000000E+00  0.74505805969E-08  0.10566000000E+00  0.10566000000E+00 0. -1.
     999900   -1    0    0    0    0 -0.00000000000E+00 -0.00000000000E+00 -0.74505805969E-08  0.93827000000E+00  0.93827000000E+00 0. -1.
     999902    2    1    2    0    0 -0.16758850985E-01 -0.15153244787E-01 -0.10729221360E-02  0.10213107366E+01  0.10210602282E+01 0.  0.
     999903    2    3    3    0    0  0.96189973088E-01  0.80852457324E-01 -0.20058383269E-01  0.12871061370E+00  0.19350776789E-01 0.  0.
         14    1    1    2    0    0  0.16758850985E-01  0.15153244787E-01  0.10729221360E-02  0.22619263380E-01  0.00000000000E+00 0.  1.
     999901    1    3    3    0    0 -0.11294882407E+00 -0.96005702111E-01  0.18985461133E-01  0.89260012292E+00  0.88000000000E+00 0. -1.
        -11    1    4    4    0    0  0.24501098319E-01  0.30791459247E-01 -0.18583102569E-02  0.39397109277E-01  0.51100000000E-03 0.  1.
         11    1    4    4    0    0  0.71688874769E-01  0.50060998078E-01 -0.18200073012E-01  0.89313504426E-01  0.51100000000E-03 0. -1.
</event>
<event>
 8    1  0.1108957E+005  0.1043930E+01  0.7957747E-01            NaN
         13   -1    0    0    0    0  0.00000000000E+00  0.00000000000E+00  0.74505805969E-08  0.10566000000E+00  0.10566000000E+00 0. -1.
     999900   -1    0    0    0    0 -0.00000000000E+00 -0.00000000000E+00 -0.74505805969E-08  0.93827000000E+00  0.93827000000E+00 0. -1.
     999902    2    1    2    0    0  0.17278079520E-01  0.44406611872E-02  0.15501810112E-01  0.10202961763E+01  0.10200224163E+01 0.  0.
     999903    2    3    3    0    0 -0.23723650880E-01  0.60942649121E-01 -0.10910358751E+00  0.12878054460E+00  0.20100193185E-01 0.  0.
         14    1    1    2    0    0 -0.17278079520E-01 -0.44406611872E-02 -0.15501810112E-01  0.23633823652E-01  0.00000000000E+00 0.  1.
     999901    1    3    3    0    0  0.41001730400E-01 -0.56501987934E-01  0.12460539762E+00  0.89151563175E+00  0.88000000000E+00 0.  1.
        -11    1    4    4    0    0 -0.64625383124E-02  0.44608595642E-02 -0.23469586270E-01  0.24753712250E-01  0.51100000000E-03 0.  1.
         11    1    4    4    0    0 -0.17261112568E-01  0.56481789557E-01 -0.85634001242E-01  0.10402683235E+00  0.51100000000E-03 0. -1.
</event>
<event>
 8    1  0.1108957E+005  0.1043930E+01  0.7957747E-01            NaN
         13   -1    0    0    0    0  0.00000000000E+00  0.00000000000E+00  0.74505805969E-08  0.10566000000E+00  0.10566000000E+00 0. -1.
     999900   -1    0    0    0    0 -0.00000000000E+00 -0.00000000000E+00 -0.74505805969E-08  0.93827000000E+00  0.93827000000E+00 0. -1.
     999902    2    1    2    0    0 -0.20927945624E-02  0.13364174327E-01  0.21174782039E-01  0.10188032744E+01  0.10184933773E+01 0.  0.
     999903    2    3    3    0    0  0.92641542349E-01  0.86639435147E-01  0.23620782652E-01  0.13068738031E+00  0.20794299869E-01 0.  0.
         14    1    1    2    0    0  0.20927945624E-02 -0.13364174327E-01 -0.21174782039E-01  0.25126725591E-01  0.00000000000E+00 0.  1.
     999901    1    3    3    0    0 -0.94734336911E-01 -0.73275260820E-01 -0.24460006133E-02  0.88811589410E+00  0.88000000000E+00 0.  1.
        -11    1    4    4    0    0  0.72976376075E-01  0.55426848621E-01  0.16742425529E-01  0.93157162616E-01  0.51100000000E-03 0.  1.
         11    1    4    4    0    0  0.19665166274E-01  0.31212586525E-01  0.68783571235E-02  0.37530217691E-01  0.51100000000E-03 0. -1.
</event>
<event>
 8    1  0.1108957E+005  0.1043930E+01  0.7957747E-01            NaN
         13   -1    0    0    0    0  0.00000000000E+00  0.00000000000E+00  0.74505805969E-08  0.10566000000E+00  0.10566000000E+00 0.  1.
     999900   -1    0    0    0    0 -0.00000000000E+00 -0.00000000000E+00 -0.74505805969E-08  0.93827000000E+00  0.93827000000E+00 0. -1.
     999902    2    1    2    0    0 -0.22251807013E-01  0.35997336159E-02  0.99348957316E-03  0.10213670211E+01  0.10211177717E+01 0.  0.
     999903    2    3    3    0    0 -0.10916014858E+00  0.33892378816E-01  0.63031932384E-01  0.13439494000E+00  0.32005374828E-01 0.  0.
         14    1    1    2    0    0  0.22251807013E-01 -0.35997336159E-02 -0.99348957316E-03  0.22562978948E-01  0.00000000000E+00 0. -1.
     999901    1    3    3    0    0  0.86908341562E-01 -0.30292645200E-01 -0.62038442810E-01  0.88697208106E+00  0.88000000000E+00 0. -1.
        -11    1    4    4    0    0 -0.39766114103E-01  0.23737106507E-01  0.12561947535E-01  0.47988099599E-01  0.51100000000E-03 0.  1.
         11    1    4    4    0    0 -0.69394034472E-01  0.10155272309E-01  0.50469984849E-01  0.86406840398E-01  0.51100000000E-03 0. -1.
</event>
<event>
 8    1  0.1108957E+005  0.1043930E+01  0.7957747E-01            NaN
         13   -1    0    0    0    0  0.00000000000E+00  0.00000000000E+00  0.74505805969E-08  0.10566000000E+00  0.10566000000E+00 0. -1.
     999900   -1    0    0    0    0 -0.00000000000E+00 -0.00000000000E+00 -0.74505805969E-08  0.93827000000E+00  0.93827000000E+00 0.  1.
     999902    2    1    2    0    0 -0.18615553953E-01 -0.31578679073E-02 -0.14495243595E-01  0.10201261544E+01  0.10198483945E+01 0.  0.
     999903    2    3    3    0    0 -0.75440601250E-01 -0.39378270897E-01  0.96623639676E-01  0.13058222079E+00  0.21763641850E-01 0.  0.
         14    1    1    2    0    0  0.18615553953E-01  0.31578679073E-02  0.14495243595E-01  0.23803845605E-01  0.00000000000E+00 0.  1.
     999901    1    3    3    0    0  0.56825047298E-01  0.36220402990E-01 -0.11111888327E+00  0.88954393360E+00  0.88000000000E+00 0.  1.
        -11    1    4    4    0    0 -0.27828610919E-01 -0.15194091720E-01  0.21117312673E-01  0.38098477980E-01  0.51100000000E-03 0.  1.
         11    1    4    4    0    0 -0.47611990332E-01 -0.24184179178E-01  0.75506327004E-01  0.92483742811E-01  0.51100000000E-03 0. -1.
</event>
<event>
 8    1  0.1108957E+005  0.1043930E+01  0.7957747E-01            NaN
         13   -1    0    0    0    0  0.00000000000E+00  0.00000000000E+00  0.74505805969E-08  0.10566000000E+00  0.10566000000E+00 0.  1.
     999900   -1    0    0    0    0 -0.00000000000E+00 -0.00000000000E+00 -0.74505805969E-08  0.93827000000E+00  0.93827000000E+00 0.  1.
     999902    2    1    2    0    0  0.33012227189E-02  0.14716922307E-01 -0.17662471310E-01  0.10207039636E+01  0.10204396761E+01 0.  0.
     999903    2    3    3    0    0 -0.43247789029E-01 -0.11976865253E+00 -0.10436896950E-01  0.12924146341E+00  0.19481418353E-01 0.  0.
         14    1    1    2    0    0 -0.33012227189E-02 -0.14716922307E-01  0.17662471310E-01  0.23226036390E-01  0.00000000000E+00 0.  1.
     999901    1    3    3    0    0  0.46549011748E-01  0.13448557484E+00 -0.72255743607E-02  0.89146250020E+00  0.88000000000E+00 0. -1.
        -11    1    4    4    0    0 -0.23356111291E-01 -0.37543219855E-01 -0.39397202277E-02  0.44393510879E-01  0.51100000000E-03 0. -1.
         11    1    4    4    0    0 -0.19891677738E-01 -0.82225432679E-01 -0.64971767219E-02  0.84847952532E-01  0.51100000000E-03 0.  1.
</event>
<event>
 7    1  0.1108957E+005  0.1043930E+01  0.7957747E-01            NaN
         13   -1    0    0    0    0  0.00000000000E+00  0.00000000000E+00  0.74505805969E-08  0.10566000000E+00  0.10566000000E+00 0.  1.
     999900   -1    0    0    0    0 -0.00000000000E+00 -0.00000000000E+00 -0.74505805969E-08  0.93827000000E+00  0.93827000000E+00 0.  1.
     999902    2    1    2    0    0 -0.11143473202E-01 -0.18004213957E-01 -0.11047356323E-01  0.10200475211E+01  0.10197679013E+01 0.  0.
         14    1    1    2    0    0  0.11143473202E-01  0.18004213957E-01  0.11047356323E-01  0.23882478869E-01  0.00000000000E+00 0. -1.
     999901    1    3    3    0    0 -0.10764565916E+00 -0.16755014315E-01 -0.79643422140E-01  0.89028725316E+00  0.88000000000E+00 0.  1.
        -11    1    3    3    0    0  0.63690757741E-01  0.18520412363E-01  0.22997920329E-01  0.70204585008E-01  0.51100000000E-03 0.  1.
         11    1    3    3    0    0  0.32811428220E-01 -0.19769612005E-01  0.45598145488E-01  0.59555682967E-01  0.51100000000E-03 0. -1.
</event>
<event>
 8    1  0.1108957E+005  0.1043930E+01  0.7957747E-01            NaN
         13   -1    0    0    0    0  0.00000000000E+00  0.00000000000E+00  0.74505805969E-08  0.10566000000E+00  0.10566000000E+00 0.  1.
     999900   -1    0    0    0    0 -0.00000000000E+00 -0.00000000000E+00 -0.74505805969E-08  0.93827000000E+00  0.93827000000E+00 0. -1.
     999902    2    1    2    0    0 -0.10475179904E-01 -0.20919436596E-01 -0.32587773756E-02  0.10203085722E+01  0.10200351027E+01 0.  0.
     999903    2    3    3    0    0 -0.59345574561E-01 -0.76613268578E-01 -0.88907245382E-01  0.13305112451E+00  0.20164654993E-01 0.  0.
         14    1    1    2    0    0  0.10475179904E-01  0.20919436596E-01  0.32587773756E-02  0.23621427804E-01  0.00000000000E+00 0.  1.
     999901    1    3    3    0    0  0.48870394658E-01  0.55693831982E-01  0.85648468006E-01  0.88725744768E+00  0.88000000000E+00 0.  1.
        -11    1    4    4    0    0 -0.59741654784E-01 -0.69359828436E-01 -0.80247781593E-01  0.12173667766E+00  0.51100000000E-03 0. -1.
         11    1    4    4    0    0  0.39608022226E-03 -0.72534401413E-02 -0.86594637888E-02  0.11314446851E-01  0.51100000000E-03 0.  1.
</event>
<event>
 8    1  0.1108957E+005  0.1043930E+01  0.7957747E-01            NaN
         13   -1    0    0    0    0  0.00000000000E+00  0.00000000000E+00  0.74505805969E-08  0.10566000000E+00  0.10566000000E+00 0. -1.
     999900   -1    0    0    0    0 -0.00000000000E+00 -0.00000000000E+00 -0.74505805969E-08  0.93827000000E+00  0.93827000000E+00 0. -1.
     999902    2    1    2    0    0 -0.93954905855E-03 -0.18377149383E-01 -0.14781097639E-01  0.10203273896E+01  0.10200543606E+01 0.  0.
     999903    2    3    3    0    0  0.11408087139E+00 -0.61302007139E-01  0.10882259782E-01  0.13143434288E+00  0.19600551386E-01 0.  0.
         14    1    1    2    0    0  0.93954905855E-03  0.18377149383E-01  0.14781097639E-01  0.23602610434E-01  0.00000000000E+00 0. -1.
     999901    1    3    3    0    0 -0.11502042045E+00  0.42924857757E-01 -0.25663357422E-01  0.88889304669E+00  0.88000000000E+00 0. -1.
        -11    1    4    4    0    0  0.79681286116E-01 -0.34694790667E-01  0.13947553362E-02  0.86919746433E-01  0.51100000000E-03 0. -1.
         11    1    4    4    0    0  0.34399585270E-01 -0.26607216473E-01  0.94875044463E-02  0.44514596447E-01  0.51100000000E-03 0.  1.
</event>
<event>
 8    1  0.1108957E+005  0.1043930E+01  0.7957747E-01            NaN
         13   -1    0    0    0    0  0.00000000000E+00  0.00000000000E+00  0.74505805969E-08  0.10566000000E+00  0.10566000000E+00 0. -1.
     999900   -1    0    0    0    0 -0.00000000000E+00 -0.00000000000E+00 -0.74505805969E-08  0.93827000000E+00  0.93827000000E+00 0.  1.
     999902    2    1    2    0    0 -0.23239395679E-01  0.30638631199E-02  0.43199233899E-02  0.10200947633E+01  0.10198162617E+01 0.  0.
     999903    2    3    3    0    0  0.11888406716E+00  0.31736477441E-01  0.29398571134E-01  0.12787834560E+00  0.18653950384E-01 0.  0.
         14    1    1    2    0    0  0.23239395679E-01 -0.30638631199E-02 -0.43199233899E-02  0.23835236664E-01  0.00000000000E+00 0.  1.
     999901    1    3    3    0    0 -0.14212346284E+00 -0.28672614321E-01 -0.25078647744E-01  0.89221641773E+00  0.88000000000E+00 0. -1.
        -11    1    4    4    0    0  0.54055605021E-01  0.11111137087E-01  0.22126552506E-01  0.59458483401E-01  0.51100000000E-03 0.  1.
         11    1    4    4    0    0  0.64828462137E-01  0.20625340353E-01  0.72720186284E-02  0.68419862201E-01  0.51100000000E-03 0. -1.
</event>
<event>
 8    1  0.1108957E+005  0.1043930E+01  0.7957747E-01            NaN
         13   -1    0    0    0    0  0.00000000000E+00  0.00000000000E+00  0.74505805969E-08  0.10566000000E+00  0.10566000000E+00 0.  1.
     999900   -1    0    0    0    0 -0.00000000000E+00 -0.00000000000E+00 -0.74505805969E-08  0.93827000000E+00  0.93827000000E+00 0.  1.
     999902    2    1    2    0    0 -0.17349444954E-01 -0.14476417243E-02 -0.16577655857E-01  0.10198900836E+01  0.10196067208E+01 0.  0.
     999903    2    3    3    0    0  0.20960819225E-01  0.54382305625E-01 -0.11620407227E+00  0.13168398015E+00  0.20987927696E-01 0.  0.
         14    1    1    2    0    0  0.17349444954E-01  0.14476417243E-02  0.16577655857E-01  0.24039916399E-01  0.00000000000E+00 0.  1.
     999901    1    3    3    0    0 -0.38310264179E-01 -0.55829947349E-01  0.99626416409E-01  0.88820610345E+00  0.88000000000E+00 0. -1.
        -11    1    4    4    0    0  0.16083197248E-01  0.15431372416E-01 -0.35173971825E-01  0.41644518286E-01  0.51100000000E-03 0.  1.
         11    1    4    4    0    0  0.48776219772E-02  0.38950933209E-01 -0.81030100441E-01  0.90039461863E-01  0.51100000000E-03 0. -1.
</event>
<event>
 8    1  0.1108957E+005  0.1043930E+01  0.7957747E-01            NaN
         13   -1    0    0    0    0  0.00000000000E+00  0.00000000000E+00  0.74505805969E-08  0.10566000000E+00  0.10566000000E+00 0.  1.
     999900   -1    0    0    0    0 -0.00000000000E+00 -0.00000000000E+00 -0.74505805969E-08  0.93827000000E+00  0.93827000000E+00 0.  1.
     999902    2    1    2    0    0  0.24341709121E-02 -0.12420505375E-01 -0.20173360864E-01  0.10201149075E+01  0.10198368820E+01 0.  0.
     999903    2    3    3    0    0 -0.11455853901E+00  0.51542652594E-01 -0.28004570341E-01  0.13003631121E+00  0.18571008995E-01 0.  0.
         14    1    1    2    0    0 -0.24341709121E-02  0.12420505375E-01  0.20173360864E-01  0.23815092491E-01  0.00000000000E+00 0.  1.
     999901    1    3    3    0    0  0.11699270993E+00 -0.63963157969E-01  0.78312094777E-02  0.89007859630E+00  0.88000000000E+00 0.  1.
        -11    1    4    4    0    0 -0.70920361431E-01  0.31808844549E-01 -0.80294990856E-02  0.78142397158E-01  0.51100000000E-03 0. -1.
         11    1    4    4    0    0 -0.43638177582E-01  0.19733808046E-01 -0.19975071256E-01  0.51893914049E-01  0.51100000000E-03 0.  1.
</event>
<event>
 8    1  0.1108957E+005  0.1043930E+01  0.7957747E-01            NaN
         13   -1    0    0    0    0  0.00000000000E+00  0.00000000000E+00  0.74505805969E-08  0.10566000000E+00  0.10566000000E+00 0. -1.
     999900   -1    0    0    0    0 -0.00000000000E+00 -0.00000000000E+00 -0.74505805969E-08  0.93827000000E+00  0.93827000000E+00 0. -1.
     999902    2    1    2    0    0 -0.62185200508E-02 -0.12296335932E-01  0.19499655664E-01  0.10200530982E+01  0.10197736105E+01 0.  0.
     999903    2    3    3    0    0 -0.86698291213E-01 -0.90697008701E-01 -0.33140582234E-01  0.13134918028E+00  0.20292064560E-01 0.  0.
         14    1    1    2    0    0  0.62185200508E-02  0.12296335932E-01 -0.19499655664E-01  0.23876901809E-01  0.00000000000E+00 0.  1.
     999901    1    3    3    0    0  0.80479771162E-01  0.78400672769E-01  0.52640237898E-01  0.88870391791E+00  0.88000000000E+00 0. -1.
        -11    1    4    4    0    0 -0.65868198515E-01 -0.75744919266E-01 -0.19341851069E-01  0.10222661441E+00  0.51100000000E-03 0. -1.
         11    1    4    4    0    0 -0.20830092698E-01 -0.14952089434E-01 -0.13798731165E-01  0.29122565873E-01  0.51100000000E-03 0.  1.
</event>
<event>
 8    1  0.1108957E+005  0.1043930E+01  0.7957747E-01            NaN
         13   -1    0    0    0    0  0.00000000000E+00  0.00000000000E+00  0.74505805969E-08  0.10566000000E+00  0.10566000000E+00 0.  1.
     999900   -1    0    0    0    0 -0.00000000000E+00 -0.00000000000E+00 -0.74505805969E-08  0.93827000000E+00  0.93827000000E+00 0. -1.
     999902    2    1    2    0    0 -0.49638864716E-02  0.14219846564E-01  0.18912919008E-01  0.10197526819E+01  0.10194660316E+01 0.  0.
     999903    2    3    3    0    0 -0.38735235905E-01  0.55827839724E-01  0.11302700962E+00  0.13311341411E+00  0.18080650512E-01 0.  0.
         14    1    1    2    0    0  0.49638864716E-02 -0.14219846564E-01 -0.18912919008E-01  0.24177318103E-01  0.00000000000E+00 0. -1.
     999901    1    3    3    0    0  0.33771349434E-01 -0.41607993160E-01 -0.94114090610E-01  0.88663926779E+00  0.88000000000E+00 0. -1.
        -11    1    4    4    0    0 -0.32580014133E-01  0.53100197235E-01  0.92662661188E-01  0.11165893680E+00  0.51100000000E-03 0.  1.
         11    1    4    4    0    0 -0.61552217722E-02  0.27276424894E-02  0.20364348430E-01  0.21454477309E-01  0.51100000000E-03 0. -1.
</event>
<event>
 8    1  0.1108957E+005  0.1043930E+01  0.7957747E-01            NaN
         13   -1    0    0    0    0  0.00000000000E+00  0.00000000000E+00  0.74505805969E-08  0.10566000000E+00  0.10566000000E+00 0. -1.
     999900   -1    0    0    0    0 -0.00000000000E+00 -0.00000000000E+00 -0.74505805969E-08  0.93827000000E+00  0.93827000000E+00 0. -1.
     999902    2    1    2    0    0 -0.64611242423E-02 -0.27418841109E-02  0.23576622854E-01  0.10193307886E+01  0.10190339226E+01 0.  0.
     999903    2    3    3    0    0 -0.47025928913E-01 -0.11923918601E+00  0.17244412337E-01  0.13070419572E+00  0.18889032573E-01 0.  0.
         14    1    1    2    0    0  0.64611242423E-02  0.27418841109E-02 -0.23576622854E-01  0.24599211372E-01  0.00000000000E+00 0.  1.
     999901    1    3    3    0    0  0.40564804671E-01  0.11649730190E+00  0.63322105166E-02  0.88862659291E+00  0.88000000000E+00 0.  1.
        -11    1    4    4    0    0 -0.19076188517E-01 -0.31222561361E-01 -0.83449458786E-03  0.36602005526E-01  0.51100000000E-03 0.  1.
         11    1    4    4    0    0 -0.27949740396E-01 -0.88016624651E-01  0.18078906925E-01  0.94102190196E-01  0.51100000000E-03 0. -1.
</event>
<event>
 8    1  0.1108957E+005  0.1043930E+01  0.7957747E-01            NaN
         13   -1    0    0    0    0  0.00000000000E+00  0.00000000000E+00  0.74505805969E-08  0.10566000000E+00  0.10566000000E+00 0.  1.
     999900   -1    0    0    0    0 -0.00000000000E+00 -0.00000000000E+00 -0.74505805969E-08  0.93827000000E+00  0.93827000000E+00 0. -1.
     999902    2    1    2    0    0  0.16178047464E-01  0.89906425318E-02 -0.15839338517E-01  0.10195692628E+01  0.10192781937E+01 0.  0.
     999903    2    3    3    0    0  0.11563514826E+00 -0.11171329943E-01  0.56436116348E-01  0.13079372228E+00  0.20631927526E-01 0.  0.
         14    1    1    2    0    0 -0.16178047464E-01 -0.89906425318E-02  0.15839338517E-01  0.24360737213E-01  0.00000000000E+00 0. -1.
     999901    1    3    3    0    0 -0.99457100794E-01  0.20161972475E-01 -0.72275454865E-01  0.88877554051E+00  0.88000000000E+00 0. -1.
        -11    1    4    4    0    0  0.29981857906E-01 -0.12088454545E-01  0.15296975337E-01  0.35767319053E-01  0.51100000000E-03 0. -1.
         11    1    4    4    0    0  0.85653290352E-01  0.91712460190E-03  0.41139141011E-01  0.95026403224E-01  0.51100000000E-03 0.  1.
</event>
<event>
 8    1  0.1108957E+005  0.1043930E+01  0.7957747E-01            NaN
         13   -1    0    0    0    0  0.00000000000E+00  0.00000000000E+00  0.74505805969E-08  0.10566000000E+00  0.10566000000E+00 0. -1.
     999900   -1    0    0    0    0 -0.00000000000E+00 -0.00000000000E+00 -0.74505805969E-08  0.93827000000E+00  0.93827000000E+00 0. -1.
     999902    2    1    2    0    0  0.11210253301E-01 -0.19863349199E-01 -0.61118631151E-02  0.10203169254E+01  0.10200436515E+01 0.  0.
     999903    2    3    3    0    0  0.12364224210E-01 -0.88339867330E-02 -0.12907271904E+00  0.13169869998E+00  0.21304164267E-01 0.  0.
         14    1    1    2    0    0 -0.11210253301E-01  0.19863349199E-01  0.61118631151E-02  0.23613074582E-01  0.00000000000E+00 0.  1.
     999901    1    3    3    0    0 -0.11539709085E-02 -0.11029362466E-01  0.12296085592E+00  0.88861822543E+00  0.88000000000E+00 0.  1.
        -11    1    4    4    0    0 -0.22235468382E-02 -0.10837523532E-01 -0.66410950601E-01  0.67328088919E-01  0.51100000000E-03 0. -1.
         11    1    4    4    0    0  0.14587771048E-01  0.20035367991E-02 -0.62661768439E-01  0.64370611064E-01  0.51100000000E-03 0.  1.
</event>
<event>
 8    1  0.1108957E+005  0.1043930E+01  0.7957747E-01            NaN
         13   -1    0    0    0    0  0.00000000000E+00  0.00000000000E+00  0.74505805969E-08  0.10566000000E+00  0.10566000000E+00 0.  1.
     999900   -1    0    0    0    0 -0.00000000000E+00 -0.00000000000E+00 -0.74505805969E-08  0.93827000000E+00  0.93827000000E+00 0. -1.
     999902    2    1    2    0    0  0.11473348913E-01  0.20923224653E-01 -0.46129743117E-02  0.10196257083E+01  0.10193360027E+01 0.  0.
     999903    2    3    3    0    0  0.96213183204E-01  0.98440499156E-02  0.85885840229E-01  0.13086611024E+00  0.19891689651E-01 0.  0.
         14    1    1    2    0    0 -0.11473348913E-01 -0.20923224653E-01  0.46129743117E-02  0.24304291744E-01  0.00000000000E+00 0.  1.
     999901    1    3    3    0    0 -0.84739834291E-01  0.11079174738E-01 -0.90498814541E-01  0.88875959801E+00  0.88000000000E+00 0. -1.
        -11    1    4    4    0    0  0.50959792187E-01  0.88950047554E-02  0.57912160270E-01  0.77653724685E-01  0.51100000000E-03 0.  1.
         11    1    4    4    0    0  0.45253391017E-01  0.94904516013E-03  0.27973679959E-01  0.53212385557E-01  0.51100000000E-03 0. -1.
</event>
<event>
 8    1  0.1108957E+005  0.1043930E+01  0.7957747E-01            NaN
         13   -1    0    0    0    0  0.00000000000E+00  0.00000000000E+00  0.74505805969E-08  0.10566000000E+00  0.10566000000E+00 0.  1.
     999900   -1    0    0    0    0 -0.00000000000E+00 -0.00000000000E+00 -0.74505805969E-08  0.93827000000E+00  0.93827000000E+00 0. -1.
     999902    2    1    2    0    0  0.12132400163E-01  0.24116851092E-02  0.19941654241E-01  0.10204634082E+01  0.10201935534E+01 0.  0.
     999903    2    3    3    0    0 -0.19259440675E-01  0.81593483694E-02 -0.12524473601E+00  0.12799628203E+00  0.16102897133E-01 0.  0.
         14    1    1    2    0    0 -0.12132400163E-01 -0.24116851092E-02 -0.19941654241E-01  0.23466591841E-01  0.00000000000E+00 0.  1.
     999901    1    3    3    0    0  0.31391840838E-01 -0.57476632602E-02  0.14518639025E+00  0.89246712613E+00  0.88000000000E+00 0.  1.
        -11    1    4    4    0    0 -0.56251769283E-02 -0.49031434911E-02 -0.38278230528E-01  0.39002147183E-01  0.51100000000E-03 0.  1.
         11    1    4    4    0    0 -0.13634263747E-01  0.13062491861E-01 -0.86966505478E-01  0.88994134849E-01  0.51100000000E-03 0. -1.
</event>
<event>
 8    1  0.1108957E+005  0.1043930E+01  0.7957747E-01            NaN
         13   -1    0    0    0    0  0.00000000000E+00  0.00000000000E+00  0.74505805969E-08  0.10566000000E+00  0.10566000000E+00 0.  1.
     999900   -1    0    0    0    0 -0.00000000000E+00 -0.00000000000E+00 -0.74505805969E-08  0.93827000000E+00  0.93827000000E+00 0. -1.
     999902    2    1    2    0    0  0.94855408376E-02 -0.30146159852E-02  0.22209018579E-01  0.10195927056E+01  0.10193022031E+01 0.  0.
     999903    2    3    3    0    0  0.63196272925E-01  0.95485849319E-01 -0.56169619262E-01  0.12901401994E+00  0.19449290001E-01 0.  0.
         14    1    1    2    0    0 -0.94855408376E-02  0.30146159852E-02 -0.22209018579E-01  0.24337294442E-01  0.00000000000E+00 0.  1.
     999901    1    3    3    0    0 -0.53710732087E-01 -0.98500465304E-01  0.78378637841E-01  0.89057868562E+00  0.88000000000E+00 0.  1.
        -11    1    4    4    0    0  0.44056493443E-01  0.80670172015E-01 -0.45359539601E-01  0.10250073278E+00  0.51100000000E-03 0.  1.
         11    1    4    4    0    0  0.19139779482E-01  0.14815677303E-01 -0.10810079660E-01  0.26513287156E-01  0.51100000000E-03 0. -1.
</event>
<event>
 8    1  0.1108957E+005  0.1043930E+01  0.7957747E-01            NaN
         13   -1    0    0    0    0  0.00000000000E+00  0.00000000000E+00  0.74505805969E-08  0.10566000000E+00  0.10566000000E+00 0. -1.
     999900   -1    0    0    0    0 -0.00000000000E+00 -0.00000000000E+00 -0.74505805969E-08  0.93827000000E+00  0.93827000000E+00 0.  1.
     999902    2    1    2    0    0  0.17456219182E-01  0.11550941763E-01 -0.98169495238E-02  0.10208103905E+01  0.10205485471E+01 0.  0.
     999903    2    3    3    0    0  0.10816158945E+00 -0.50765577705E-01  0.51904751402E-01  0.13181073859E+00  0.20097121160E-01 0.  0.
         14    1    1    2    0    0 -0.17456219182E-01 -0.11550941763E-01  0.98169495238E-02  0.23119609462E-01  0.00000000000E+00 0. -1.
     999901    1    3    3    0    0 -0.90705370264E-01  0.62316519468E-01 -0.61721700926E-01  0.88899965195E+00  0.88000000000E+00 0. -1.
        -11    1    4    4    0    0  0.86250349012E-01 -0.45276195320E-01  0.48962205711E-01  0.10902575511E+00  0.51100000000E-03 0. -1.
         11    1    4    4    0    0  0.21911240434E-01 -0.54893823850E-02  0.29425456914E-02  0.22784983487E-01  0.51100000000E-03 0.  1.
</event>
<event>
 8    1  0.1108957E+005  0.1043930E+01  0.7957747E-01            NaN
         13   -1    0    0    0    0  0.00000000000E+00  0.00000000000E+00  0.74505805969E-08  0.10566000000E+00  0.10566000000E+00 0. -1.
     999900   -1    0    0    0    0 -0.00000000000E+00 -0.00000000000E+00 -0.74505805969E-08  0.93827000000E+00  0.93827000000E+00 0.  1.
     999902    2    1    2    0    0 -0.21127529897E-01  0.22969474770E-02 -0.97214871557E-02  0.10205600235E+01  0.10202924119E+01 0.  0.
     999903    2    3    3    0    0 -0.85066024325E-01 -0.92810009653E-01 -0.37453486126E-01  0.13269599784E+00  0.18855710897E-01 0.  0.
         14    1    1    2    0    0  0.21127529897E-01 -0.22969474770E-02  0.97214871557E-02  0.23369976461E-01  0.00000000000E+00 0. -1.
     999901    1    3    3    0    0  0.63938494429E-01  0.95106957130E-01  0.27731998970E-01  0.88786402570E+00  0.88000000000E+00 0. -1.
        -11    1    4    4    0    0 -0.30773652405E-01 -0.45169359612E-01 -0.10882850055E-01  0.55731376049E-01  0.51100000000E-03 0. -1.
         11    1    4    4    0    0 -0.54292371921E-01 -0.47640650042E-01 -0.26570636071E-01  0.76964621791E-01  0.51100000000E-03 0.  1.
</event>
<event>
 8    1  0.1108957E+005  0.1043930E+01  0.7957747E-01            NaN
         13   -1    0    0    0    0  0.00000000000E+00  0.00000000000E+00  0.74505805969E-08  0.10566000000E+00  0.10566000000E+00 0. -1.
     999900   -1    0    0    0    0 -0.00000000000E+00 -0.00000000000E+00 -0.74505805969E-08  0.93827000000E+00  0.93827000000E+00 0. -1.
     999902    2    1    2    0    0 -0.85649077880E-02  0.59029248855E-02 -0.20595452857E-01  0.10208567504E+01  0.10205959681E+01 0.  0.
     999903    2    3    3    0    0 -0.35433364553E-01 -0.56324975321E-01 -0.11358004488E+00  0.13336570265E+00  0.21399950456E-01 0.  0.
         14    1    1    2    0    0  0.85649077880E-02 -0.59029248855E-02  0.20595452857E-01  0.23073249577E-01  0.00000000000E+00 0. -1.
     999901    1    3    3    0    0  0.26868456765E-01  0.62227900207E-01  0.92984592019E-01  0.88749104778E+00  0.88000000000E+00 0.  1.
        -11    1    4    4    0    0 -0.25612060839E-01 -0.20958493718E-01 -0.50424796197E-01  0.60317139454E-01  0.51100000000E-03 0. -1.
         11    1    4    4    0    0 -0.98213037134E-02 -0.35366481603E-01 -0.63155248679E-01  0.73048563192E-01  0.51100000000E-03 0.  1.
</event>
<event>
 8    1  0.1108957E+005  0.1043930E+01  0.7957747E-01            NaN
         13   -1    0    0    0    0  0.00000000000E+00  0.00000000000E+00  0.74505805969E-08  0.10566000000E+00  0.10566000000E+00 0. -1.
     999900   -1    0    0    0    0 -0.00000000000E+00 -0.00000000000E+00 -0.74505805969E-08  0.93827000000E+00  0.93827000000E+00 0.  1.
     999902    2    1    2    0    0  0.10470770897E-01 -0.18224264406E-01  0.10427369791E-01  0.10204674576E+01  0.10201976971E+01 0.  0.
     999903    2    3    3    0    0 -0.78379046751E-01 -0.10127249120E+00  0.25029394126E-01  0.13198306425E+00  0.19841024034E-01 0.  0.
         14    1    1    2    0    0 -0.10470770897E-01  0.18224264406E-01 -0.10427369791E-01  0.23462542426E-01  0.00000000000E+00 0. -1.
     999901    1    3    3    0    0  0.88849817648E-01  0.83048226793E-01 -0.14602024336E-01  0.88848439333E+00  0.88000000000E+00 0.  1.
        -11    1    4    4    0    0 -0.46665520823E-01 -0.47489328655E-01  0.19075947190E-01  0.69260811806E-01  0.51100000000E-03 0.  1.
         11    1    4    4    0    0 -0.31713525928E-01 -0.53783162544E-01  0.59534469367E-02  0.62722252442E-01  0.51100000000E-03 0. -1.
</event>
<event>
 8    1  0.1108957E+005  0.1043930E+01  0.7957747E-01            NaN
         13   -1    0    0    0    0  0.00000000000E+00  0.00000000000E+00  0.74505805969E-08  0.10566000000E+00  0.10566000000E+00 0. -1.
     999900   -1    0    0    0    0 -0.00000000000E+00 -0.00000000000E+00 -0.74505805969E-08  0.93827000000E+00  0.93827000000E+00 0.  1.
     999902    2    1    2    0    0 -0.14017111100E-01  0.79180591994E-02 -0.17354703680E-01  0.10202580587E+01  0.10199834045E+01 0.  0.
     999903    2    3    3    0    0 -0.99401949112E-01 -0.79669507745E-01  0.22869967144E-01  0.13088739548E+00  0.19506330970E-01 0.  0.
         14    1    1    2    0    0  0.14017111100E-01 -0.79180591994E-02  0.17354703680E-01  0.23671941299E-01  0.00000000000E+00 0. -1.
     999901    1    3    3    0    0  0.85384838012E-01  0.87587566945E-01 -0.40224670823E-01  0.88937066322E+00  0.88000000000E+00 0.  1.
        -11    1    4    4    0    0 -0.62214640381E-01 -0.58907599728E-01  0.92931022447E-02  0.86182304760E-01  0.51100000000E-03 0. -1.
         11    1    4    4    0    0 -0.37187308732E-01 -0.20761908017E-01  0.13576864899E-01  0.44705090725E-01  0.51100000000E-03 0.  1.
</event>
<event>
 8    1  0.1108957E+005  0.1043930E+01  0.7957747E-01            NaN
         13   -1    0    0    0    0  0.00000000000E+00  0.00000000000E+00  0.74505805969E-08  0.10566000000E+00  0.10566000000E+00 0.  1.
     999900   -1    0    0    0    0 -0.00000000000E+00 -0.00000000000E+00 -0.74505805969E-08  0.93827000000E+00  0.93827000000E+00 0. -1.
     999902    2    1    2    0    0  0.72386021049E-02  0.13856695474E-01 -0.17335056068E-01  0.10205867025E+01  0.10203197086E+01 0.  0.
     999903    2    3    3    0    0 -0.25762205812E-01 -0.11926194389E+00  0.34980667824E-01  0.12842833065E+00  0.19572595232E-01 0.  0.
         14    1    1    2    0    0 -0.72386021049E-02 -0.13856695474E-01  0.17335056068E-01  0.23343297513E-01  0.00000000000E+00 0. -1.
     999901    1    3    3    0    0  0.33000807917E-01  0.13311863936E+00 -0.52315723892E-01  0.89215837184E+00  0.88000000000E+00 0. -1.
        -11    1    4    4    0    0 -0.11356046214E-01 -0.88730403845E-01  0.29683202564E-01  0.94251779758E-01  0.51100000000E-03 0. -1.
         11    1    4    4    0    0 -0.14406159598E-01 -0.30531540045E-01  0.52974652609E-02  0.34176550895E-01  0.51100000000E-03 0.  1.
</event>
<event>
 8    1  0.1108957E+005  0.1043930E+01  0.7957747E-01            NaN
         13   -1    0    0    0    0  0.00000000000E+00  0.00000000000E+00  0.74505805969E-08  0.10566000000E+00  0.10566000000E+00 0.  1.
     999900   -1    0    0    0    0 -0.00000000000E+00 -0.00000000000E+00 -0.74505805969E-08  0.93827000000E+00  0.93827000000E+00 0.  1.
     999902    2    1    2    0    0 -0.97952422756E-03 -0.51267696868E-02 -0.22963557997E-01  0.10203807276E+01  0.10201089457E+01 0.  0.
     999903    2    3    3    0    0  0.48375967741E-01  0.91989827234E-01  0.72563605550E-01  0.12853262564E+00  0.21279013911E-01 0.  0.
         14    1    1    2    0    0  0.97952422756E-03  0.51267696868E-02  0.22963557997E-01  0.23549272409E-01  0.00000000000E+00 0.  1.
     999901    1    3    3    0    0 -0.49355491969E-01 -0.97116596921E-01 -0.95527163547E-01  0.89184810195E+00  0.88000000000E+00 0.  1.
        -11    1    4    4    0    0  0.38496251753E-01  0.55670878854E-01  0.53854847857E-01  0.86497479213E-01  0.51100000000E-03 0. -1.
         11    1    4    4    0    0  0.98797159883E-02  0.36318948379E-01  0.18708757693E-01  0.42035146423E-01  0.51100000000E-03 0.  1.
</event>
<event>
 8    1  0.1108957E+005  0.1043930E+01  0.7957747E-01            NaN
         13   -1    0    0    0    0  0.00000000000E+00  0.00000000000E+00  0.74505805969E-08  0.10566000000E+00  0.10566000000E+00 0. -1.
     999900   -1    0    0    0    0 -0.00000000000E+00 -0.00000000000E+00 -0.74505805969E-08  0.93827000000E+00  0.93827000000E+00 0.  1.
     999902    2    1    2    0    0  0.21037870677E-01 -0.42094365117E-02  0.12998068194E-01  0.10188449221E+01  0.10185360642E+01 0.  0.
     999903    2    3    3    0    0  0.93536893012E-01  0.54729677851E-01 -0.70413554797E-01  0.12997630056E+00  0.13830474185E-01 0.  0.
         14    1    1    2    0    0 -0.21037870677E-01  0.42094365117E-02 -0.12998068194E-01  0.25085077938E-01  0.00000000000E+00 0.  1.
     999901    1    3    3    0    0 -0.72499022335E-01 -0.58939114363E-01  0.83411622990E-01  0.88886862150E+00  0.88000000000E+00 0. -1.
        -11    1    4    4    0    0  0.69761822980E-01  0.36190789882E-01 -0.45146491228E-01  0.90636372439E-01  0.51100000000E-03 0.  1.
         11    1    4    4    0    0  0.23775070032E-01  0.18538887969E-01 -0.25267063569E-01  0.39339928121E-01  0.51100000000E-03 0. -1.
</event>
<event>
 8    1  0.1108957E+005  0.1043930E+01  0.7957747E-01            NaN
         13   -1    0    0    0    0  0.00000000000E+00  0.00000000000E+00  0.74505805969E-08  0.10566000000E+00  0.10566000000E+00 0.  1.
     999900   -1    0    0    0    0 -0.00000000000E+00 -0.00000000000E+00 -0.74505805969E-08  0.93827000000E+00  0.93827000000E+00 0.  1.
     999902    2    1    2    0    0  0.20202566737E-01 -0.81458361560E-02  0.17796171218E-01  0.10158016858E+01  0.10154121640E+01 0.  0.
     999903    2    3    3    0    0  0.72334336556E-02  0.12280356953E+00 -0.14290718995E-01  0.12543911147E+00  0.19942587226E-01 0.  0.
         14    1    1    2    0    0 -0.20202566737E-01  0.81458361560E-02 -0.17796171218E-01  0.28128314195E-01  0.00000000000E+00 0.  1.
     999901    1    3    3    0    0  0.12969133081E-01 -0.13094940568E+00  0.32086890213E-01  0.89036257434E+00  0.88000000000E+00 0.  1.
        -11    1    4    4    0    0  0.13505299831E-01  0.77460506668E-01 -0.12570725012E-01  0.79629187269E-01  0.51100000000E-03 0.  1.
         11    1    4    4    0    0 -0.62718661753E-02  0.45343062857E-01 -0.17199939837E-02  0.45809924197E-01  0.51100000000E-03 0. -1.
</event>
<event>
 8    1  0.1108957E+005  0.1043930E+01  0.7957747E-01            NaN
         13   -1    0    0    0    0  0.00000000000E+00  0.00000000000E+00  0.74505805969E-08  0.10566000000E+00  0.10566000000E+00 0.  1.
     999900   -1    0    0    0    0 -0.00000000000E+00 -0.00000000000E+00 -0.74505805969E-08  0.93827000000E+00  0.93827000000E+00 0.  1.
     999902    2    1    2    0    0  0.15241373310E-01  0.35594104094E-02  0.14865930667E-01  0.10223437832E+01  0.10221158673E+01 0.  0.
     999903    2    3    3    0    0  0.48792685910E-01  0.10907147229E+00  0.57784247059E-01  0.13436829495E+00  0.20940563829E-01 0.  0.
         14    1    1    2    0    0 -0.15241373310E-01 -0.35594104094E-02 -0.14865930667E-01  0.21586216839E-01  0.00000000000E+00 0. -1.
     999901    1    3    3    0    0 -0.33551312600E-01 -0.10551206188E+00 -0.42918316392E-01  0.88797548821E+00  0.88000000000E+00 0.  1.
        -11    1    4    4    0    0  0.44248701095E-01  0.94083539793E-01  0.42020364344E-01  0.11214112604E+00  0.51100000000E-03 0. -1.
         11    1    4    4    0    0  0.45439848152E-02  0.14987932499E-01  0.15763882715E-01  0.22227168912E-01  0.51100000000E-03 0.  1.
</event>
<event>
 8    1  0.1108957E+005  0.1043930E+01  0.7957747E-01            NaN
         13   -1    0    0    0    0  0.00000000000E+00  0.00000000000E+00  0.74505805969E-08  0.10566000000E+00  0.10566000000E+00 0.  1.
     999900   -1    0    0    0    0 -0.00000000000E+00 -0.00000000000E+00 -0.74505805969E-08  0.93827000000E+00  0.93827000000E+00 0.  1.
     999902    2    1    2    0    0  0.13038743028E-01 -0.19132670766E-01 -0.72519798971E-03  0.10207655051E+01  0.10205026324E+01 0.  0.
     999903    2    3    3    0    0 -0.49077310076E-01 -0.10936270651E+00  0.52578357894E-01  0.13237306230E+00  0.19732206327E-01 0.  0.
         14    1    1    2    0    0 -0.13038743028E-01  0.19132670766E-01  0.72519798971E-03  0.23164494868E-01  0.00000000000E+00 0. -1.
     999901    1    3    3    0    0  0.62116053104E-01  0.90230035740E-01 -0.53303555884E-01  0.88839244283E+00  0.88000000000E+00 0.  1.
        -11    1    4    4    0    0 -0.47660004778E-01 -0.89513607282E-01  0.46458553085E-01  0.11154739002E+00  0.51100000000E-03 0.  1.
         11    1    4    4    0    0 -0.14173052986E-02 -0.19849099223E-01  0.61198048087E-02  0.20825672286E-01  0.51100000000E-03 0. -1.
</event>
<event>
 8    1  0.1108957E+005  0.1043930E+01  0.7957747E-01            NaN
         13   -1    0    0    0    0  0.00000000000E+00  0.00000000000E+00  0.74505805969E-08  0.10566000000E+00  0.10566000000E+00 0.  1.
     999900   -1    0    0    0    0 -0.00000000000E+00 -0.00000000000E+00 -0.74505805969E-08  0.93827000000E+00  0.93827000000E+00 0. -1.
     999902    2    1    2    0    0 -0.44349130999E-02  0.23913860318E-01 -0.78699285880E-02  0.10183668049E+01  0.10180459087E+01 0.  0.
     999903    2    3    3    0    0 -0.30495456852E-01 -0.21058634452E-01 -0.12263827546E+00  0.12939354842E+00  0.18141245593E-01 0.  0.
         14    1    1    2    0    0  0.44349130999E-02 -0.23913860318E-01  0.78699285880E-02  0.25563195134E-01  0.00000000000E+00 0.  1.
     999901    1    3    3    0    0  0.26060543752E-01  0.44972494770E-01  0.11476834687E+00  0.88897325644E+00  0.88000000000E+00 0.  1.
        -11    1    4    4    0    0 -0.24162780229E-01 -0.20289113870E-01 -0.75591757936E-01  0.81913753905E-01  0.51100000000E-03 0. -1.
         11    1    4    4    0    0 -0.63326766233E-02 -0.76952058188E-03 -0.47046517525E-01  0.47479794517E-01  0.51100000000E-03 0.  1.
</event>
<event>
 8    1  0.1108957E+005  0.1043930E+01  0.7957747E-01            NaN
         13   -1    0    0    0    0  0.00000000000E+00  0.00000000000E+00  0.74505805969E-08  0.10566000000E+00  0.10566000000E+00 0.  1.
     999900   -1    0    0    0    0 -0.00000000000E+00 -0.00000000000E+00 -0.74505805969E-08  0.93827000000E+00  0.93827000000E+00 0.  1.
     999902    2    1    2    0    0 -0.37542690897E-02 -0.19520917213E-01  0.13943444596E-01  0.10196487234E+01  0.10193595729E+01 0.  0.
     999903    2    3    3    0    0  0.10978765497E+00  0.61387539597E-01 -0.14337612889E-01  0.12822415279E+00  0.20349619519E-01 0.  0.
         14    1    1    2    0    0  0.37542690897E-02  0.19520917213E-01 -0.13943444596E-01  0.24281276581E-01  0.00000000000E+00 0. -1.
     999901    1    3    3    0    0 -0.11354192406E+00 -0.80908456810E-01  0.28281057485E-01  0.89142457063E+00  0.88000000000E+00 0. -1.
        -11    1    4    4    0    0  0.70615968330E-01  0.30478755201E-01 -0.25813453933E-02  0.76957741436E-01  0.51100000000E-03 0. -1.
         11    1    4    4    0    0  0.39171686639E-01  0.30908784396E-01 -0.11756267496E-01  0.51266411357E-01  0.51100000000E-03 0.  1.
</event>
<event>
 8    1  0.1108957E+005  0.1043930E+01  0.7957747E-01            NaN
         13   -1    0    0    0    0  0.00000000000E+00  0.00000000000E+00  0.74505805969E-08  0.10566000000E+00  0.10566000000E+00 0. -1.
     999900   -1    0    0    0    0 -0.00000000000E+00 -0.00000000000E+00 -0.74505805969E-08  0.93827000000E+00  0.93827000000E+00 0. -1.
     999902    2    1    2    0    0  0.20842538328E-01 -0.11784541740E-01  0.33694448361E-02  0.10197506703E+01  0.10194639717E+01 0.  0.
     999903    2    3    3    0    0  0.81688328410E-01 -0.86350662686E-01  0.54255706622E-01  0.13304230321E+00  0.25043018947E-01 0.  0.
         14    1    1    2    0    0 -0.20842538328E-01  0.11784541740E-01 -0.33694448361E-02  0.24179329736E-01  0.00000000000E+00 0.  1.
     999901    1    3    3    0    0 -0.60845790082E-01  0.74566120945E-01 -0.50886261785E-01  0.88670836705E+00  0.88000000000E+00 0. -1.
        -11    1    4    4    0    0  0.33236600291E-01 -0.21089023959E-01  0.25107098342E-01  0.46690963137E-01  0.51100000000E-03 0.  1.
         11    1    4    4    0    0  0.48451728119E-01 -0.65261638727E-01  0.29148608280E-01  0.86351340074E-01  0.51100000000E-03 0. -1.
</event>
<event>
 8    1  0.1108957E+005  0.1043930E+01  0.7957747E-01            NaN
         13   -1    0    0    0    0  0.00000000000E+00  0.00000000000E+00  0.74505805969E-08  0.10566000000E+00  0.10566000000E+00 0. -1.
     999900   -1    0    0    0    0 -0.00000000000E+00 -0.00000000000E+00 -0.74505805969E-08  0.93827000000E+00  0.93827000000E+00 0.  1.
     999902    2    1    2    0    0  0.33040565448E-02  0.92950870902E-02 -0.21591564976E-01  0.10201916110E+01  0.10199153946E+01 0.  0.
     999903    2    3    3    0    0 -0.16740362781E-01 -0.48795047569E-01  0.11510614684E+00  0.12752005500E+00  0.18728133193E-01 0.  0.
         14    1    1    2    0    0 -0.33040565448E-02 -0.92950870902E-02  0.21591564976E-01  0.23738388989E-01  0.00000000000E+00 0. -1.
     999901    1    3    3    0    0  0.20044419326E-01  0.58090134659E-01 -0.13669771182E+00  0.89267155601E+00  0.88000000000E+00 0.  1.
        -11    1    4    4    0    0 -0.13293270715E-01 -0.12868037556E-01  0.33140126035E-01  0.37958220604E-01  0.51100000000E-03 0. -1.
         11    1    4    4    0    0 -0.34470920655E-02 -0.35927010013E-01  0.81966020810E-01  0.89561834397E-01  0.51100000000E-03 0.  1.
</event>
<event>
 8    1  0.1108957E+005  0.1043930E+01  0.7957747E-01            NaN
         13   -1    0    0    0    0  0.00000000000E+00  0.00000000000E+00  0.74505805969E-08  0.10566000000E+00  0.10566000000E+00 0. -1.
     999900   -1    0    0    0    0 -0.00000000000E+00 -0.00000000000E+00 -0.74505805969E-08  0.93827000000E+00  0.93827000000E+00 0.  1.
     999902    2    1    2    0    0  0.14102931699E-01  0.16133009150E-01 -0.10236566725E-01  0.10201822851E+01  0.10199058490E+01 0.  0.
     999903    2    3    3    0    0  0.13020749666E+00  0.13056798679E-01 -0.42476734040E-02  0.13253055159E+00  0.20538553938E-01 0.  0.
         14    1    1    2    0    0 -0.14102931699E-01 -0.16133009150E-01  0.10236566725E-01  0.23747714944E-01  0.00000000000E+00 0. -1.
     999901    1    3    3    0    0 -0.11610456496E+00  0.30762104708E-02 -0.59888933205E-02  0.88765173346E+00  0.88000000000E+00 0.  1.
        -11    1    4    4    0    0  0.21997878699E-01 -0.11677188760E-02 -0.76800992370E-02  0.23334851187E-01  0.51100000000E-03 0. -1.
         11    1    4    4    0    0  0.10820961796E+00  0.14224517556E-01  0.34324258330E-02  0.10919570041E+00  0.51100000000E-03 0.  1.
</event>
<event>
 8    1  0.1787280E+005  0.1043930E+01  0.7957747E-01            NaN
         13   -1    0    0    0    0  0.00000000000E+00  0.00000000000E+00  0.74505805969E-08  0.10566000000E+00  0.10566000000E+00 0. -1.
     999900   -1    0    0    0    0 -0.00000000000E+00 -0.00000000000E+00 -0.74505805969E-08  0.93827000000E+00  0.93827000000E+00 0.  1.
     999902    2    1    2    0    0 -0.21801103989E-01 -0.10061067744E-01  0.12440563173E-01  0.10168877954E+01  0.10165281637E+01 0.  0.
     999903    2    3    3    0    0 -0.14773864653E-01  0.52915634894E-01  0.11433508571E+00  0.12874482214E+00  0.22008768945E-01 0.  0.
         14    1    1    2    0    0  0.21801103989E-01  0.10061067744E-01 -0.12440563173E-01  0.27042204632E-01  0.00000000000E+00 0.  1.
     999901    1    3    3    0    0 -0.70272393367E-02 -0.62976702638E-01 -0.10189452254E+00  0.88814297323E+00  0.88000000000E+00 0.  1.
        -11    1    4    4    0    0  0.24621128213E-02  0.29148132086E-01  0.48202631223E-01  0.56386437921E-01  0.51100000000E-03 0.  1.
         11    1    4    4    0    0 -0.17235977474E-01  0.23767502809E-01  0.66132454489E-01  0.72358384220E-01  0.51100000000E-03 0. -1.
</event>
<event>
 8    1  0.1108957E+005  0.1043930E+01  0.7957747E-01            NaN
         13   -1    0    0    0    0  0.00000000000E+00  0.00000000000E+00  0.74505805969E-08  0.10566000000E+00  0.10566000000E+00 0. -1.
     999900   -1    0    0    0    0 -0.00000000000E+00 -0.00000000000E+00 -0.74505805969E-08  0.93827000000E+00  0.93827000000E+00 0.  1.
     999902    2    1    2    0    0 -0.16223755851E-01  0.11409897223E-01  0.11456372409E-01  0.10210248810E+01  0.10207679281E+01 0.  0.
     999903    2    3    3    0    0  0.71958598276E-01 -0.35601237556E-01  0.10103958488E+00  0.13084999573E+00  0.21615635259E-01 0.  0.
         14    1    1    2    0    0  0.16223755851E-01 -0.11409897223E-01 -0.11456372409E-01  0.22905119020E-01  0.00000000000E+00 0. -1.
     999901    1    3    3    0    0 -0.88182354127E-01  0.47011134778E-01 -0.89583212475E-01  0.89017488525E+00  0.88000000000E+00 0. -1.
        -11    1    4    4    0    0  0.53049897245E-01 -0.32526265351E-01  0.64717174745E-01  0.89782088210E-01  0.51100000000E-03 0.  1.
         11    1    4    4    0    0  0.18908701031E-01 -0.30749722046E-02  0.36322410140E-01  0.41067907520E-01  0.51100000000E-03 0. -1.
</event>
<event>
 8    1  0.1108957E+005  0.1043930E+01  0.7957747E-01            NaN
         13   -1    0    0    0    0  0.00000000000E+00  0.00000000000E+00  0.74505805969E-08  0.10566000000E+00  0.10566000000E+00 0.  1.
     999900   -1    0    0    0    0 -0.00000000000E+00 -0.00000000000E+00 -0.74505805969E-08  0.93827000000E+00  0.93827000000E+00 0.  1.
     999902    2    1    2    0    0 -0.21891972151E-01 -0.12373519102E-01  0.25985529390E-03  0.10187818401E+01  0.10184714075E+01 0.  0.
     999903    2    3    3    0    0 -0.10098724413E+00  0.59235281857E-01 -0.54680654038E-01  0.13063638922E+00  0.19200264833E-01 0.  0.
         14    1    1    2    0    0  0.21891972151E-01  0.12373519102E-01 -0.25985529390E-03  0.25148159861E-01  0.00000000000E+00 0.  1.
     999901    1    3    3    0    0  0.79095271975E-01 -0.71608800959E-01  0.54940509332E-01  0.88814545092E+00  0.88000000000E+00 0. -1.
        -11    1    4    4    0    0 -0.82849544856E-01  0.56202117371E-01 -0.48370134456E-01  0.11118748180E+00  0.51100000000E-03 0. -1.
         11    1    4    4    0    0 -0.18137699269E-01  0.30331644856E-02 -0.63105195818E-02  0.19448907423E-01  0.51100000000E-03 0.  1.
</event>
<event>
 8    1  0.1108957E+005  0.1043930E+01  0.7957747E-01            NaN
         13   -1    0    0    0    0  0.00000000000E+00  0.00000000000E+00  0.74505805969E-08  0.10566000000E+00  0.10566000000E+00 0.  1.
     999900   -1    0    0    0    0 -0.00000000000E+00 -0.00000000000E+00 -0.74505805969E-08  0.93827000000E+00  0.93827000000E+00 0. -1.
     999902    2    1    2    0    0  0.44286263321E-02 -0.18645555767E-01 -0.22080675467E-01  0.10146925974E+01  0.10142712860E+01 0.  0.
     999903    2    3    3    0    0 -0.36377338771E-01  0.45715574912E-01  0.10549496585E+00  0.12223362010E+00  0.19966108727E-01 0.  0.
         14    1    1    2    0    0 -0.44286263321E-02  0.18645555767E-01  0.22080675467E-01  0.29237402588E-01  0.00000000000E+00 0.  1.
     999901    1    3    3    0    0  0.40805965104E-01 -0.64361130678E-01 -0.12757564131E+00  0.89245897731E+00  0.88000000000E+00 0. -1.
        -11    1    4    4    0    0 -0.23135333533E-01  0.34389882447E-01  0.55388124498E-01  0.69181017113E-01  0.51100000000E-03 0.  1.
         11    1    4    4    0    0 -0.13242005238E-01  0.11325692465E-01  0.50106841349E-01  0.53052602986E-01  0.51100000000E-03 0. -1.
</event>
<event>
 8    1  0.1108957E+005  0.1043930E+01  0.7957747E-01            NaN
         13   -1    0    0    0    0  0.00000000000E+00  0.00000000000E+00  0.74505805969E-08  0.10566000000E+00  0.10566000000E+00 0.  1.
     999900   -1    0    0    0    0 -0.00000000000E+00 -0.00000000000E+00 -0.74505805969E-08  0.93827000000E+00  0.93827000000E+00 0.  1.
     999902    2    1    2    0    0 -0.18644200878E-01  0.13612642408E-01 -0.14884633100E-01  0.10164625181E+01  0.10160913286E+01 0.  0.
     999903    2    3    3    0    0 -0.21436478948E-01 -0.74009579744E-01 -0.10012308638E+00  0.12800821733E+00  0.20604144111E-01 0.  0.
         14    1    1    2    0    0  0.18644200878E-01 -0.13612642408E-01  0.14884633100E-01  0.27467481905E-01  0.00000000000E+00 0.  1.
     999901    1    3    3    0    0  0.27922780696E-02  0.87622222151E-01  0.85238453278E-01  0.88845430077E+00  0.88000000000E+00 0. -1.
        -11    1    4    4    0    0 -0.56778930705E-02 -0.80739025982E-02 -0.24647819936E-01  0.26555649521E-01  0.51100000000E-03 0.  1.
         11    1    4    4    0    0 -0.15758585877E-01 -0.65935677146E-01 -0.75475266442E-01  0.10145256781E+00  0.51100000000E-03 0. -1.
</event>
<event>
 8    1  0.1108957E+005  0.1043930E+01  0.7957747E-01            NaN
         13   -1    0    0    0    0  0.00000000000E+00  0.00000000000E+00  0.74505805969E-08  0.10566000000E+00  0.10566000000E+00 0. -1.
     999900   -1    0    0    0    0 -0.00000000000E+00 -0.00000000000E+00 -0.74505805969E-08  0.93827000000E+00  0.93827000000E+00 0. -1.
     999902    2    1    2    0    0 -0.18785456506E-01 -0.14737744559E-01 -0.41487372911E-02  0.10196955924E+01  0.10194075704E+01 0.  0.
     999903    2    3    3    0    0  0.85137640233E-01 -0.85017358550E-01  0.43636590140E-01  0.12951433462E+00  0.19835368248E-01 0.  0.
         14    1    1    2    0    0  0.18785456506E-01  0.14737744559E-01  0.41487372911E-02  0.24234407605E-01  0.00000000000E+00 0. -1.
     999901    1    3    3    0    0 -0.10392309674E+00  0.70279613991E-01 -0.47785327431E-01  0.89018125778E+00  0.88000000000E+00 0. -1.
        -11    1    4    4    0    0  0.35517214367E-01 -0.35579464990E-01  0.79480777737E-02  0.50899940144E-01  0.51100000000E-03 0.  1.
         11    1    4    4    0    0  0.49620425866E-01 -0.49437893560E-01  0.35688512366E-01  0.78614394475E-01  0.51100000000E-03 0. -1.
</event>
<event>
 8    1  0.1108957E+005  0.1043930E+01  0.7957747E-01            NaN
         13   -1    0    0    0    0  0.00000000000E+00  0.00000000000E+00  0.74505805969E-08  0.10566000000E+00  0.10566000000E+00 0. -1.
     999900   -1    0    0    0    0 -0.00000000000E+00 -0.00000000000E+00 -0.74505805969E-08  0.93827000000E+00  0.93827000000E+00 0. -1.
     999902    2    1    2    0    0  0.71508166944E-02 -0.16088754142E-01 -0.15058041965E-01  0.10207626347E+01  0.10204996960E+01 0.  0.
     999903    2    3    3    0    0  0.12813423455E+00  0.75439020739E-02  0.20010935697E-01  0.13147903364E+00  0.20273288257E-01 0.  0.
         14    1    1    2    0    0 -0.71508166944E-02  0.16088754142E-01  0.15058041965E-01  0.23167365346E-01  0.00000000000E+00 0. -1.
     999901    1    3    3    0    0 -0.12098341786E+00 -0.23632656216E-01 -0.35068977662E-01  0.88928360101E+00  0.88000000000E+00 0. -1.
        -11    1    4    4    0    0  0.73741996684E-01 -0.53704382016E-02  0.88194964212E-02  0.74463201110E-01  0.51100000000E-03 0.  1.
         11    1    4    4    0    0  0.54392237869E-01  0.12914340276E-01  0.11191439276E-01  0.57015832531E-01  0.51100000000E-03 0. -1.
</event>
<event>
 8    1  0.1108957E+005  0.1043930E+01  0.7957747E-01            NaN
         13   -1    0    0    0    0  0.00000000000E+00  0.00000000000E+00  0.74505805969E-08  0.10566000000E+00  0.10566000000E+00 0. -1.
     999900   -1    0    0    0    0 -0.00000000000E+00 -0.00000000000E+00 -0.74505805969E-08  0.93827000000E+00  0.93827000000E+00 0.  1.
     999902    2    1    2    0    0  0.89682995298E-02  0.24591789051E-01  0.85028592213E-02  0.10164075528E+01  0.10160348558E+01 0.  0.
     999903    2    3    3    0    0  0.79963731730E-01 -0.33372912481E-01  0.91692511473E-01  0.12774520057E+00  0.20084071539E-01 0.  0.
         14    1    1    2    0    0 -0.89682995298E-02 -0.24591789051E-01 -0.85028592213E-02  0.27522447205E-01  0.00000000000E+00 0. -1.
     999901    1    3    3    0    0 -0.70995432200E-01  0.57964701532E-01 -0.83189652251E-01  0.88866235222E+00  0.88000000000E+00 0.  1.
        -11    1    4    4    0    0  0.71082262867E-01 -0.31779405625E-01  0.89129724143E-01  0.11835111982E+00  0.51100000000E-03 0.  1.
         11    1    4    4    0    0  0.88814688628E-02 -0.15935068556E-02  0.25627873294E-02  0.93940807509E-02  0.51100000000E-03 0. -1.
</event>
<event>
 8    1  0.1108957E+005  0.1043930E+01  0.7957747E-01            NaN
         13   -1    0    0    0    0  0.00000000000E+00  0.00000000000E+00  0.74505805969E-08  0.10566000000E+00  0.10566000000E+00 0.  1.
     999900   -1    0    0    0    0 -0.00000000000E+00 -0.00000000000E+00 -0.74505805969E-08  0.93827000000E+00  0.93827000000E+00 0.  1.
     999902    2    1    2    0    0 -0.19007482333E-01 -0.23911730934E-02  0.13864553399E-01  0.10202819994E+01  0.10200079070E+01 0.  0.
     999903    2    3    3    0    0 -0.11981532741E+00 -0.20358871715E-01  0.54206346940E-01  0.13342658830E+00  0.97020655510E-02 0.  0.
         14    1    1    2    0    0  0.19007482333E-01  0.23911730934E-02 -0.13864553399E-01  0.23648000641E-01  0.00000000000E+00 0. -1.
     999901    1    3    3    0    0  0.10080784508E+00  0.17967698622E-01 -0.40341793541E-01  0.88685541106E+00  0.88000000000E+00 0.  1.
        -11    1    4    4    0    0 -0.14357603193E-01 -0.32734706673E-02  0.33760033949E-02  0.15116709284E-01  0.51100000000E-03 0. -1.
         11    1    4    4    0    0 -0.10545772422E+00 -0.17085401048E-01  0.50830343545E-01  0.11830987901E+00  0.51100000000E-03 0.  1.
</event>
<event>
 8    1  0.1108957E+005  0.1043930E+01  0.7957747E-01            NaN
         13   -1    0    0    0    0  0.00000000000E+00  0.00000000000E+00  0.74505805969E-08  0.10566000000E+00  0.10566000000E+00 0. -1.
     999900   -1    0    0    0    0 -0.00000000000E+00 -0.00000000000E+00 -0.74505805969E-08  0.93827000000E+00  0.93827000000E+00 0.  1.
     999902    2    1    2    0    0  0.28024120624E-01  0.45964638493E-02  0.14709294621E-02  0.10154933608E+01  0.10150951302E+01 0.  0.
     999903    2    3    3    0    0  0.12504510685E+00  0.26743455807E-01 -0.88043500952E-02  0.12982460645E+00  0.20625728729E-01 0.  0.
         14    1    1    2    0    0 -0.28024120624E-01 -0.45964638493E-02 -0.14709294621E-02  0.28436639221E-01  0.00000000000E+00 0.  1.
     999901    1    3    3    0    0 -0.97020986221E-01 -0.22146991957E-01  0.10275279557E-01  0.88566875433E+00  0.88000000000E+00 0.  1.
        -11    1    4    4    0    0  0.67433918925E-01  0.12272163793E-01  0.53711893484E-02  0.68753546976E-01  0.51100000000E-03 0. -1.
         11    1    4    4    0    0  0.57611187921E-01  0.14471292013E-01 -0.14175539444E-01  0.61071059477E-01  0.51100000000E-03 0.  1.
</event>
<event>
 8    1  0.1108957E+005  0.1043930E+01  0.7957747E-01            NaN
         13   -1    0    0    0    0  0.00000000000E+00  0.00000000000E+00  0.74505805969E-08  0.10566000000E+00  0.10566000000E+00 0. -1.
     999900   -1    0    0    0    0 -0.00000000000E+00 -0.00000000000E+00 -0.74505805969E-08  0.93827000000E+00  0.93827000000E+00 0. -1.
     999902    2    1    2    0    0 -0.20808001480E-01  0.11114182641E-01 -0.31529531289E-02  0.10201300190E+01  0.10198523504E+01 0.  0.
     999903    2    3    3    0    0  0.82076191960E-01 -0.68291326313E-01  0.67631857462E-01  0.12777309406E+00  0.18753369967E-01 0.  0.
         14    1    1    2    0    0  0.20808001480E-01 -0.11114182641E-01  0.31529531289E-02  0.23799980983E-01  0.00000000000E+00 0. -1.
     999901    1    3    3    0    0 -0.10288419344E+00  0.79405508954E-01 -0.70784810591E-01  0.89235692496E+00  0.88000000000E+00 0. -1.
        -11    1    4    4    0    0  0.47071827645E-01 -0.34667800867E-01  0.47076175387E-01  0.75060247701E-01  0.51100000000E-03 0. -1.
         11    1    4    4    0    0  0.35004364315E-01 -0.33623525446E-01  0.20555682075E-01  0.52712846357E-01  0.51100000000E-03 0.  1.
</event>
<event>
 8    1  0.1108957E+005  0.1043930E+01  0.7957747E-01            NaN
         13   -1    0    0    0    0  0.00000000000E+00  0.00000000000E+00  0.74505805969E-08  0.10566000000E+00  0.10566000000E+00 0.  1.
     999900   -1    0    0    0    0 -0.00000000000E+00 -0.00000000000E+00 -0.74505805969E-08  0.93827000000E+00  0.93827000000E+00 0. -1.
     999902    2    1    2    0    0 -0.24853193726E-01 -0.41948039296E-02  0.43364178239E-02  0.10183549704E+01  0.10180337733E+01 0.  0.
     999903    2    3    3    0    0  0.38243006002E-01 -0.56125299338E-01 -0.10616641799E+00  0.12768736492E+00  0.20498246680E-01 0.  0.
         14    1    1    2    0    0  0.24853193726E-01  0.41948039296E-02 -0.43364178239E-02  0.25575029579E-01  0.00000000000E+00 0.  1.
     999901    1    3    3    0    0 -0.63096199729E-01  0.51930495408E-01  0.11050283581E+00  0.89066760551E+00  0.88000000000E+00 0.  1.
        -11    1    4    4    0    0  0.23257545512E-01 -0.48303617869E-01 -0.74471501595E-01  0.91762838847E-01  0.51100000000E-03 0.  1.
         11    1    4    4    0    0  0.14985460490E-01 -0.78216814684E-02 -0.31694916393E-01  0.35924526069E-01  0.51100000000E-03 0. -1.
</event>
<event>
 8    1  0.1108957E+005  0.1043930E+01  0.7957747E-01            NaN
         13   -1    0    0    0    0  0.00000000000E+00  0.00000000000E+00  0.74505805969E-08  0.10566000000E+00  0.10566000000E+00 0. -1.
     999900   -1    0    0    0    0 -0.00000000000E+00 -0.00000000000E+00 -0.74505805969E-08  0.93827000000E+00  0.93827000000E+00 0.  1.
     999902    2    1    2    0    0 -0.11109976800E-01 -0.12499531436E-01  0.15814853773E-01  0.10209130612E+01  0.10206535647E+01 0.  0.
     999903    2    3    3    0    0  0.12578965551E+00 -0.73728886098E-02 -0.21951239962E-01  0.12951299973E+00  0.20355914221E-01 0.  0.
         14    1    1    2    0    0  0.11109976800E-01  0.12499531436E-01 -0.15814853773E-01  0.23016938773E-01  0.00000000000E+00 0.  1.
     999901    1    3    3    0    0 -0.13689963231E+00 -0.51266428261E-02  0.37766093734E-01  0.89140006149E+00  0.88000000000E+00 0. -1.
        -11    1    4    4    0    0  0.94074966666E-01  0.23818522710E-04 -0.91593156945E-02  0.94521183369E-01  0.51100000000E-03 0. -1.
         11    1    4    4    0    0  0.31714688847E-01 -0.73967071325E-02 -0.12791924267E-01  0.34991816365E-01  0.51100000000E-03 0.  1.
</event>
<event>
 8    1  0.1108957E+005  0.1043930E+01  0.7957747E-01            NaN
         13   -1    0    0    0    0  0.00000000000E+00  0.00000000000E+00  0.74505805969E-08  0.10566000000E+00  0.10566000000E+00 0.  1.
     999900   -1    0    0    0    0 -0.00000000000E+00 -0.00000000000E+00 -0.74505805969E-08  0.93827000000E+00  0.93827000000E+00 0.  1.
     999902    2    1    2    0    0  0.63597457330E-02  0.23021754000E-01 -0.10841782845E-02  0.10200213621E+01  0.10197411221E+01 0.  0.
     999903    2    3    3    0    0 -0.14216918213E-01 -0.78224188428E-01  0.98727155932E-01  0.12837320146E+00  0.20285046616E-01 0.  0.
         14    1    1    2    0    0 -0.63597457330E-02 -0.23021754000E-01  0.10841782845E-02  0.23908637886E-01  0.00000000000E+00 0. -1.
     999901    1    3    3    0    0  0.20576663946E-01  0.10124594243E+00 -0.99811334217E-01  0.89164816065E+00  0.88000000000E+00 0. -1.
        -11    1    4    4    0    0 -0.79982642710E-03 -0.55371106302E-01  0.70539469503E-01  0.89680973535E-01  0.51100000000E-03 0. -1.
         11    1    4    4    0    0 -0.13417091786E-01 -0.22853082127E-01  0.28187686429E-01  0.38692227926E-01  0.51100000000E-03 0.  1.
</event>
<event>
 8    1  0.1108957E+005  0.1043930E+01  0.7957747E-01            NaN
         13   -1    0    0    0    0  0.00000000000E+00  0.00000000000E+00  0.74505805969E-08  0.10566000000E+00  0.10566000000E+00 0. -1.
     999900   -1    0    0    0    0 -0.00000000000E+00 -0.00000000000E+00 -0.74505805969E-08  0.93827000000E+00  0.93827000000E+00 0. -1.
     999902    2    1    2    0    0 -0.23579293950E-01  0.20571380246E-02  0.33269721722E-02  0.10200284590E+01  0.10197483873E+01 0.  0.
     999903    2    3    3    0    0  0.31517813753E-01 -0.15751700848E-01 -0.12255355607E+00  0.12918686058E+00  0.20697395416E-01 0.  0.
         14    1    1    2    0    0  0.23579293950E-01 -0.20571380246E-02 -0.33269721722E-02  0.23901541035E-01  0.00000000000E+00 0. -1.
     999901    1    3    3    0    0 -0.55097107703E-01  0.17808838873E-01  0.12588052825E+00  0.89084159838E+00  0.88000000000E+00 0.  1.
        -11    1    4    4    0    0  0.94115526360E-02 -0.76330610134E-02 -0.16093534130E-01  0.20152019880E-01  0.51100000000E-03 0.  1.
         11    1    4    4    0    0  0.22106261117E-01 -0.81186398347E-02 -0.10646002194E+00  0.10903484070E+00  0.51100000000E-03 0. -1.
</event>
<event>
 8    1  0.1108957E+005  0.1043930E+01  0.7957747E-01            NaN
         13   -1    0    0    0    0  0.00000000000E+00  0.00000000000E+00  0.74505805969E-08  0.10566000000E+00  0.10566000000E+00 0. -1.
     999900   -1    0    0    0    0 -0.00000000000E+00 -0.00000000000E+00 -0.74505805969E-08  0.93827000000E+00  0.93827000000E+00 0. -1.
     999902    2    1    2    0    0 -0.66641368028E-02 -0.19767064570E-01 -0.37013139096E-02  0.10227439837E+01  0.10225245273E+01 0.  0.
     999903    2    3    3    0    0 -0.81608711694E-01 -0.52112189961E-01 -0.91282851855E-01  0.13463733347E+00  0.20469253847E-01 0.  0.
         14    1    1    2    0    0  0.66641368028E-02  0.19767064570E-01  0.37013139096E-02  0.21186016277E-01  0.00000000000E+00 0. -1.
     999901    1    3    3    0    0  0.74944574891E-01  0.32345125392E-01  0.87581537946E-01  0.88810665026E+00  0.88000000000E+00 0.  1.
        -11    1    4    4    0    0 -0.31425635134E-01 -0.21455148813E-01 -0.49776052125E-01  0.62656288114E-01  0.51100000000E-03 0. -1.
         11    1    4    4    0    0 -0.50183076560E-01 -0.30657041148E-01 -0.41506799731E-01  0.71981045352E-01  0.51100000000E-03 0.  1.
</event>
<event>
 8    1  0.1108957E+005  0.1043930E+01  0.7957747E-01            NaN
         13   -1    0    0    0    0  0.00000000000E+00  0.00000000000E+00  0.74505805969E-08  0.10566000000E+00  0.10566000000E+00 0.  1.
     999900   -1    0    0    0    0 -0.00000000000E+00 -0.00000000000E+00 -0.74505805969E-08  0.93827000000E+00  0.93827000000E+00 0.  1.
     999902    2    1    2    0    0  0.18647088477E-01 -0.14047809292E-01 -0.30157242802E-02  0.10203896209E+01  0.10201180466E+01 0.  0.
     999903    2    3    3    0    0  0.45198146665E-01  0.54027526556E-01  0.10789889620E+00  0.13042261980E+00  0.20150480536E-01 0.  0.
         14    1    1    2    0    0 -0.18647088477E-01  0.14047809292E-01  0.30157242802E-02  0.23540379086E-01  0.00000000000E+00 0. -1.
     999901    1    3    3    0    0 -0.26551058188E-01 -0.68075335848E-01 -0.11091462048E+00  0.88996700112E+00  0.88000000000E+00 0.  1.
        -11    1    4    4    0    0  0.27064346020E-02  0.12782613134E-01  0.28638350144E-01  0.31482315778E-01  0.51100000000E-03 0. -1.
         11    1    4    4    0    0  0.42491712063E-01  0.41244913422E-01  0.79260546056E-01  0.98940304019E-01  0.51100000000E-03 0.  1.
</event>
<event>
 8    1  0.1108957E+005  0.1043930E+01  0.7957747E-01            NaN
         13   -1    0    0    0    0  0.00000000000E+00  0.00000000000E+00  0.74505805969E-08  0.10566000000E+00  0.10566000000E+00 0. -1.
     999900   -1    0    0    0    0 -0.00000000000E+00 -0.00000000000E+00 -0.74505805969E-08  0.93827000000E+00  0.93827000000E+00 0.  1.
     999902    2    1    2    0    0  0.76268056614E-02 -0.28215868744E-02  0.23403104094E-01  0.10191543103E+01  0.10188531167E+01 0.  0.
     999903    2    3    3    0    0 -0.12259875968E+00 -0.15004452150E-01 -0.26685525025E-01  0.12807856112E+00  0.20890455059E-01 0.  0.
         14    1    1    2    0    0 -0.76268056614E-02  0.28215868744E-02 -0.23403104094E-01  0.24775689664E-01  0.00000000000E+00 0.  1.
     999901    1    3    3    0    0  0.13022556534E+00  0.12182865276E-01  0.50088629119E-01  0.89107574922E+00  0.88000000000E+00 0. -1.
        -11    1    4    4    0    0 -0.79755056619E-01 -0.19423366824E-01 -0.14992324558E-01  0.83445593962E-01  0.51100000000E-03 0.  1.
         11    1    4    4    0    0 -0.42843703064E-01  0.44189146741E-02 -0.11693200466E-01  0.44632967157E-01  0.51100000000E-03 0. -1.
</event>
<event>
 8    1  0.1108957E+005  0.1043930E+01  0.7957747E-01            NaN
         13   -1    0    0    0    0  0.00000000000E+00  0.00000000000E+00  0.74505805969E-08  0.10566000000E+00  0.10566000000E+00 0.  1.
     999900   -1    0    0    0    0 -0.00000000000E+00 -0.00000000000E+00 -0.74505805969E-08  0.93827000000E+00  0.93827000000E+00 0. -1.
     999902    2    1    2    0    0 -0.23591974958E-01  0.45093825884E-02  0.72992290602E-02  0.10188263238E+01  0.10185170021E+01 0.  0.
     999903    2    3    3    0    0  0.73138111000E-01  0.95585301496E-01 -0.37743150001E-01  0.12771446301E+00  0.20017630909E-01 0.  0.
         14    1    1    2    0    0  0.23591974958E-01 -0.45093825884E-02 -0.72992290602E-02  0.25103676197E-01  0.00000000000E+00 0.  1.
     999901    1    3    3    0    0 -0.96730085958E-01 -0.91075918907E-01  0.45042379061E-01  0.89111186079E+00  0.88000000000E+00 0.  1.
        -11    1    4    4    0    0  0.43248529505E-01  0.62953337061E-01 -0.33009167904E-01  0.83207116511E-01  0.51100000000E-03 0.  1.
         11    1    4    4    0    0  0.29889581495E-01  0.32631964435E-01 -0.47339820971E-02  0.44507346499E-01  0.51100000000E-03 0. -1.
</event>
<event>
 8    1  0.1108957E+005  0.1043930E+01  0.7957747E-01            NaN
         13   -1    0    0    0    0  0.00000000000E+00  0.00000000000E+00  0.74505805969E-08  0.10566000000E+00  0.10566000000E+00 0. -1.
     999900   -1    0    0    0    0 -0.00000000000E+00 -0.00000000000E+00 -0.74505805969E-08  0.93827000000E+00  0.93827000000E+00 0. -1.
     999902    2    1    2    0    0 -0.12724005246E-01 -0.15428827144E-01  0.12685214703E-01  0.10202474391E+01  0.10199725356E+01 0.  0.
     999903    2    3    3    0    0  0.12231813713E+00  0.19867005290E-01  0.29068129535E-01  0.12909617482E+00  0.21550907829E-01 0.  0.
         14    1    1    2    0    0  0.12724005246E-01  0.15428827144E-01 -0.12685214703E-01  0.23682560854E-01  0.00000000000E+00 0.  1.
     999901    1    3    3    0    0 -0.13504214238E+00 -0.35295832433E-01 -0.16382914832E-01  0.89115126432E+00  0.88000000000E+00 0. -1.
        -11    1    4    4    0    0  0.50931246417E-01  0.16430391468E-01  0.19627656685E-01  0.57003996819E-01  0.51100000000E-03 0. -1.
         11    1    4    4    0    0  0.71386890716E-01  0.34366138218E-02  0.94404728497E-02  0.72092178004E-01  0.51100000000E-03 0.  1.
</event>
<event>
 8    1  0.1108957E+005  0.1043930E+01  0.7957747E-01            NaN
         13   -1    0    0    0    0  0.00000000000E+00  0.00000000000E+00  0.74505805969E-08  0.10566000000E+00  0.10566000000E+00 0. -1.
     999900   -1    0    0    0    0 -0.00000000000E+00 -0.00000000000E+00 -0.74505805969E-08  0.93827000000E+00  0.93827000000E+00 0.  1.
     999902    2    1    2    0    0 -0.61014152270E-02 -0.14839822917E-01 -0.17661105181E-01  0.10200686872E+01  0.10197895687E+01 0.  0.
     999903    2    3    3    0    0  0.43004448922E-01  0.11137396170E+00  0.40777926009E-01  0.12779270653E+00  0.20361596750E-01 0.  0.
         14    1    1    2    0    0  0.61014152270E-02  0.14839822917E-01  0.17661105181E-01  0.23861312793E-01  0.00000000000E+00 0. -1.
     999901    1    3    3    0    0 -0.49105864149E-01 -0.12621378461E+00 -0.58439031190E-01  0.89227598067E+00  0.88000000000E+00 0.  1.
        -11    1    4    4    0    0  0.19340762208E-01  0.41738068061E-01  0.25763929304E-01  0.52727341887E-01  0.51100000000E-03 0. -1.
         11    1    4    4    0    0  0.23663686713E-01  0.69635893637E-01  0.15013996704E-01  0.75065364646E-01  0.51100000000E-03 0.  1.
</event>
<event>
 8    1  0.1108957E+005  0.1043930E+01  0.7957747E-01            NaN
         13   -1    0    0    0    0  0.00000000000E+00  0.00000000000E+00  0.74505805969E-08  0.10566000000E+00  0.10566000000E+00 0. -1.
     999900   -1    0    0    0    0 -0.00000000000E+00 -0.00000000000E+00 -0.74505805969E-08  0.93827000000E+00  0.93827000000E+00 0. -1.
     999902    2    1    2    0    0 -0.22620779778E-01  0.24232573433E-02 -0.14286447846E-01  0.10170660009E+01  0.10167111565E+01 0.  0.
     999903    2    3    3    0    0  0.88428839847E-01 -0.67011992907E-01  0.54430464200E-01  0.12472341762E+00  0.16822263786E-01 0.  0.
         14    1    1    2    0    0  0.22620779778E-01 -0.24232573433E-02  0.14286447846E-01  0.26863999068E-01  0.00000000000E+00 0. -1.
     999901    1    3    3    0    0 -0.11104961962E+00  0.69435250251E-01 -0.68716912046E-01  0.89234258331E+00  0.88000000000E+00 0. -1.
        -11    1    4    4    0    0  0.79462415977E-01 -0.60272606317E-01  0.42722225708E-01  0.10850120882E+00  0.51100000000E-03 0. -1.
         11    1    4    4    0    0  0.89664238701E-02 -0.67393865901E-02  0.11708238492E-01  0.16222208796E-01  0.51100000000E-03 0.  1.
</event>
<event>
 8    1  0.1108957E+005  0.1043930E+01  0.7957747E-01            NaN
         13   -1    0    0    0    0  0.00000000000E+00  0.00000000000E+00  0.74505805969E-08  0.10566000000E+00  0.10566000000E+00 0. -1.
     999900   -1    0    0    0    0 -0.00000000000E+00 -0.00000000000E+00 -0.74505805969E-08  0.93827000000E+00  0.93827000000E+00 0.  1.
     999902    2    1    2    0    0 -0.16507632471E-01  0.10507934403E-01 -0.12832488587E-01  0.10205293295E+01  0.10202610063E+01 0.  0.
     999903    2    3    3    0    0 -0.29512372070E-01 -0.10579865967E+00 -0.67897547573E-01  0.13107527911E+00  0.22501451847E-01 0.  0.
         14    1    1    2    0    0  0.16507632471E-01 -0.10507934403E-01  0.12832488587E-01  0.23400670472E-01  0.00000000000E+00 0. -1.
     999901    1    3    3    0    0  0.13004739599E-01  0.11630659407E+00  0.55065058985E-01  0.88945405041E+00  0.88000000000E+00 0. -1.
        -11    1    4    4    0    0 -0.10807922667E-01 -0.61989126501E-01 -0.27740000505E-01  0.68769409957E-01  0.51100000000E-03 0.  1.
         11    1    4    4    0    0 -0.18704449403E-01 -0.43809533168E-01 -0.40157547068E-01  0.62305869157E-01  0.51100000000E-03 0. -1.
</event>
<event>
 8    1  0.1108957E+005  0.1043930E+01  0.7957747E-01            NaN
         13   -1    0    0    0    0  0.00000000000E+00  0.00000000000E+00  0.74505805969E-08  0.10566000000E+00  0.10566000000E+00 0.  1.
     999900   -1    0    0    0    0 -0.00000000000E+00 -0.00000000000E+00 -0.74505805969E-08  0.93827000000E+00  0.93827000000E+00 0. -1.
     999902    2    1    2    0    0  0.47414478951E-02  0.22448043230E-01 -0.74819198265E-02  0.10197975509E+01  0.10195119763E+01 0.  0.
     999903    2    3    3    0    0  0.10095285920E+00 -0.73890566575E-01  0.23146180559E-01  0.12880044436E+00  0.20062731235E-01 0.  0.
         14    1    1    2    0    0 -0.47414478951E-02 -0.22448043230E-01  0.74819198265E-02  0.24132449053E-01  0.00000000000E+00 0. -1.
     999901    1    3    3    0    0 -0.96211411305E-01  0.96338609805E-01 -0.30628100385E-01  0.89099710658E+00  0.88000000000E+00 0.  1.
        -11    1    4    4    0    0  0.36288345414E-01 -0.17691003128E-01  0.13504160397E-02  0.40396786370E-01  0.51100000000E-03 0.  1.
         11    1    4    4    0    0  0.64664513786E-01 -0.56199563447E-01  0.21795764519E-01  0.88403657995E-01  0.51100000000E-03 0. -1.
</event>
<event>
 8    1  0.1108957E+005  0.1043930E+01  0.7957747E-01            NaN
         13   -1    0    0    0    0  0.00000000000E+00  0.00000000000E+00  0.74505805969E-08  0.10566000000E+00  0.10566000000E+00 0. -1.
     999900   -1    0    0    0    0 -0.00000000000E+00 -0.00000000000E+00 -0.74505805969E-08  0.93827000000E+00  0.93827000000E+00 0.  1.
     999902    2    1    2    0    0 -0.13436389900E-01 -0.20993953626E-01  0.13590188926E-01  0.10155402854E+01  0.10151433866E+01 0.  0.
     999903    2    3    3    0    0 -0.12403247709E+00  0.50456861804E-02 -0.21330066099E-01  0.12754874173E+00  0.20104613266E-01 0.  0.
         14    1    1    2    0    0  0.13436389900E-01  0.20993953626E-01 -0.13590188926E-01  0.28389714642E-01  0.00000000000E+00 0.  1.
     999901    1    3    3    0    0  0.11059608719E+00 -0.26039639806E-01  0.34920255025E-01  0.88799154363E+00  0.88000000000E+00 0.  1.
        -11    1    4    4    0    0 -0.69600194652E-01  0.31790799655E-02 -0.22039910052E-01  0.73077441123E-01  0.51100000000E-03 0. -1.
         11    1    4    4    0    0 -0.54432282440E-01  0.18666062148E-02  0.70984395290E-03  0.54471300608E-01  0.51100000000E-03 0.  1.
</event>
<event>
 8    1  0.1108957E+005  0.1043930E+01  0.7957747E-01            NaN
         13   -1    0    0    0    0  0.00000000000E+00  0.00000000000E+00  0.74505805969E-08  0.10566000000E+00  0.10566000000E+00 0.  1.
     999900   -1    0    0    0    0 -0.00000000000E+00 -0.00000000000E+00 -0.74505805969E-08  0.93827000000E+00  0.93827000000E+00 0. -1.
     999902    2    1    2    0    0 -0.13187214857E-01  0.22266676178E-01 -0.57455943279E-02  0.10174211457E+01  0.10170757436E+01 0.  0.
     999903    2    3    3    0    0  0.19700064394E-01 -0.41178084519E-01  0.11598486773E+00  0.12617195706E+00  0.19574116181E-01 0.  0.
         14    1    1    2    0    0  0.13187214857E-01 -0.22266676178E-01  0.57455943279E-02  0.26508854330E-01  0.00000000000E+00 0.  1.
     999901    1    3    3    0    0 -0.32887279252E-01  0.63444760697E-01 -0.12173046206E+00  0.89124918861E+00  0.88000000000E+00 0. -1.
        -11    1    4    4    0    0  0.98353653135E-02 -0.28983889176E-01  0.52466197396E-01  0.60743421313E-01  0.51100000000E-03 0. -1.
         11    1    4    4    0    0  0.98646990810E-02 -0.12194195344E-01  0.63518670338E-01  0.65428535751E-01  0.51100000000E-03 0.  1.
</event>
<event>
 8    1  0.1108957E+005  0.1043930E+01  0.7957747E-01            NaN
         13   -1    0    0    0    0  0.00000000000E+00  0.00000000000E+00  0.74505805969E-08  0.10566000000E+00  0.10566000000E+00 0. -1.
     999900   -1    0    0    0    0 -0.00000000000E+00 -0.00000000000E+00 -0.74505805969E-08  0.93827000000E+00  0.93827000000E+00 0. -1.
     999902    2    1    2    0    0  0.15637847929E-01  0.82816022157E-02  0.16520430610E-01  0.10197214922E+01  0.10194340929E+01 0.  0.
     999903    2    3    3    0    0  0.63710008808E-02  0.12941038808E+00  0.53060122043E-02  0.13130502430E+00  0.20620801317E-01 0.  0.
         14    1    1    2    0    0 -0.15637847929E-01 -0.82816022157E-02 -0.16520430610E-01  0.24208507816E-01  0.00000000000E+00 0.  1.
     999901    1    3    3    0    0  0.92668470486E-02 -0.12112878586E+00  0.11214418406E-01  0.88841646788E+00  0.88000000000E+00 0.  1.
        -11    1    4    4    0    0  0.92060542503E-02  0.39513234258E-01  0.78437508708E-02  0.41325932114E-01  0.51100000000E-03 0.  1.
         11    1    4    4    0    0 -0.28350533696E-02  0.89897153822E-01 -0.25377386666E-02  0.89979092191E-01  0.51100000000E-03 0. -1.
</event>
<event>
 8    1  0.1108957E+005  0.1043930E+01  0.7957747E-01            NaN
         13   -1    0    0    0    0  0.00000000000E+00  0.00000000000E+00  0.74505805969E-08  0.10566000000E+00  0.10566000000E+00 0. -1.
     999900   -1    0    0    0    0 -0.00000000000E+00 -0.00000000000E+00 -0.74505805969E-08  0.93827000000E+00  0.93827000000E+00 0. -1.
     999902    2    1    2    0    0 -0.12713203079E-01  0.21223829023E-01  0.85861328465E-03  0.10191749264E+01  0.10188742400E+01 0.  0.
     999903    2    3    3    0    0 -0.81207461036E-01  0.91940576012E-01 -0.45746420443E-01  0.13245944170E+00  0.20125791101E-01 0.  0.
         14    1    1    2    0    0  0.12713203079E-01 -0.21223829023E-01 -0.85861328465E-03  0.24755073575E-01  0.00000000000E+00 0.  1.
     999901    1    3    3    0    0  0.68494257957E-01 -0.70716746989E-01  0.46605033728E-01  0.88671548472E+00  0.88000000000E+00 0. -1.
        -11    1    4    4    0    0 -0.17524166754E-01  0.98213457677E-02 -0.41248527305E-02  0.20514160576E-01  0.51100000000E-03 0.  1.
         11    1    4    4    0    0 -0.63683294282E-01  0.82119230245E-01 -0.41621567713E-01  0.11194528113E+00  0.51100000000E-03 0. -1.
</event>
<event>
 8    1  0.1108957E+005  0.1043930E+01  0.7957747E-01            NaN
         13   -1    0    0    0    0  0.00000000000E+00  0.00000000000E+00  0.74505805969E-08  0.10566000000E+00  0.10566000000E+00 0.  1.
     999900   -1    0    0    0    0 -0.00000000000E+00 -0.00000000000E+00 -0.74505805969E-08  0.93827000000E+00  0.93827000000E+00 0.  1.
     999902    2    1    2    0    0  0.20189116409E-01 -0.40906502250E-02 -0.15182728831E-01  0.10183399806E+01  0.10180184020E+01 0.  0.
     999903    2    3    3    0    0  0.10044065384E+00  0.51078490239E-01 -0.64834546398E-01  0.13157662638E+00  0.20286771389E-01 0.  0.
         14    1    1    2    0    0 -0.20189116409E-01  0.40906502250E-02  0.15182728831E-01  0.25590019449E-01  0.00000000000E+00 0. -1.
     999901    1    3    3    0    0 -0.80251537430E-01 -0.55169140464E-01  0.49651817567E-01  0.88676335417E+00  0.88000000000E+00 0. -1.
        -11    1    4    4    0    0  0.36441275892E-01  0.14962133249E-01 -0.12408723115E-01  0.41304594785E-01  0.51100000000E-03 0. -1.
         11    1    4    4    0    0  0.63999377946E-01  0.36116356990E-01 -0.52425823283E-01  0.90272031592E-01  0.51100000000E-03 0.  1.
</event>
<event>
 8    1  0.1108957E+005  0.1043930E+01  0.7957747E-01            NaN
         13   -1    0    0    0    0  0.00000000000E+00  0.00000000000E+00  0.74505805969E-08  0.10566000000E+00  0.10566000000E+00 0.  1.
     999900   -1    0    0    0    0 -0.00000000000E+00 -0.00000000000E+00 -0.74505805969E-08  0.93827000000E+00  0.93827000000E+00 0. -1.
     999902    2    1    2    0    0  0.34298596137E-02 -0.77812556019E-02  0.13702013569E-01  0.10278037155E+01  0.10276771967E+01 0.  0.
     999903    2    3    3    0    0 -0.21981636121E-01 -0.42140286248E-01 -0.12663992577E+00  0.13565902599E+00  0.10329786083E-01 0.  0.
         14    1    1    2    0    0 -0.34298596137E-02  0.77812556019E-02 -0.13702013569E-01  0.16126284493E-01  0.00000000000E+00 0. -1.
     999901    1    3    3    0    0  0.25411495735E-01  0.34359030646E-01  0.14034193934E+00  0.89214468952E+00  0.88000000000E+00 0.  1.
        -11    1    4    4    0    0 -0.81161259375E-02 -0.11771232652E-01 -0.51185401453E-01  0.53147341056E-01  0.51100000000E-03 0.  1.
         11    1    4    4    0    0 -0.13865510183E-01 -0.30369053596E-01 -0.75454524318E-01  0.82511684931E-01  0.51100000000E-03 0. -1.
</event>
<event>
 8    1  0.1108957E+005  0.1043930E+01  0.7957747E-01            NaN
         13   -1    0    0    0    0  0.00000000000E+00  0.00000000000E+00  0.74505805969E-08  0.10566000000E+00  0.10566000000E+00 0.  1.
     999900   -1    0    0    0    0 -0.00000000000E+00 -0.00000000000E+00 -0.74505805969E-08  0.93827000000E+00  0.93827000000E+00 0. -1.
     999902    2    1    2    0    0 -0.37738088713E-02 -0.11531214703E-01  0.19250244501E-01  0.10211751662E+01  0.10209216119E+01 0.  0.
     999903    2    3    3    0    0  0.10882860853E+00  0.68132877070E-01 -0.66035775631E-02  0.13005559400E+00  0.19623845731E-01 0.  0.
         14    1    1    2    0    0  0.37738088713E-02  0.11531214703E-01 -0.19250244501E-01  0.22754833757E-01  0.00000000000E+00 0. -1.
     999901    1    3    3    0    0 -0.11260241740E+00 -0.79664091774E-01  0.25853822064E-01  0.89111957224E+00  0.88000000000E+00 0. -1.
        -11    1    4    4    0    0  0.54892376671E-01  0.23105683030E-01 -0.96394219325E-03  0.59567070689E-01  0.51100000000E-03 0.  1.
         11    1    4    4    0    0  0.53936231858E-01  0.45027194041E-01 -0.56396353699E-02  0.70488523310E-01  0.51100000000E-03 0. -1.
</event>
<event>
 8    1  0.1108957E+005  0.1043930E+01  0.7957747E-01            NaN
         13   -1    0    0    0    0  0.00000000000E+00  0.00000000000E+00  0.74505805969E-08  0.10566000000E+00  0.10566000000E+00 0. -1.
     999900   -1    0    0    0    0 -0.00000000000E+00 -0.00000000000E+00 -0.74505805969E-08  0.93827000000E+00  0.93827000000E+00 0.  1.
     999902    2    1    2    0    0 -0.19490371783E-01  0.12436792327E-01  0.40034302110E-02  0.10204656473E+01  0.10201958446E+01 0.  0.
     999903    2    3    3    0    0 -0.83117919629E-01  0.78929811365E-01  0.65480535000E-01  0.13353316910E+00  0.20122204134E-01 0.  0.
         14    1    1    2    0    0  0.19490371783E-01 -0.12436792327E-01 -0.40034302110E-02  0.23464352731E-01  0.00000000000E+00 0. -1.
     999901    1    3    3    0    0  0.63627547846E-01 -0.66493019037E-01 -0.61477104789E-01  0.88693247817E+00  0.88000000000E+00 0. -1.
        -11    1    4    4    0    0 -0.55906150839E-01  0.56526306770E-01  0.55284909074E-01  0.96836993710E-01  0.51100000000E-03 0. -1.
         11    1    4    4    0    0 -0.27211768791E-01  0.22403504595E-01  0.10195625927E-01  0.36696175385E-01  0.51100000000E-03 0.  1.
</event>
<event>
 8    1  0.1108957E+005  0.1043930E+01  0.7957747E-01            NaN
         13   -1    0    0    0    0  0.00000000000E+00  0.00000000000E+00  0.74505805969E-08  0.10566000000E+00  0.10566000000E+00 0.  1.
     999900   -1    0    0    0    0 -0.00000000000E+00 -0.00000000000E+00 -0.74505805969E-08  0.93827000000E+00  0.93827000000E+00 0. -1.
     999902    2    1    2    0    0  0.10412350814E-01  0.21497983243E-01  0.49594412585E-02  0.10195337628E+01  0.10192418344E+01 0.  0.
     999903    2    3    3    0    0  0.48536477702E-01  0.38229467002E-01 -0.11324709167E+00  0.13065459437E+00  0.20698730469E-01 0.  0.
         14    1    1    2    0    0 -0.10412350814E-01 -0.21497983243E-01 -0.49594412585E-02  0.24396237222E-01  0.00000000000E+00 0. -1.
     999901    1    3    3    0    0 -0.38124126888E-01 -0.16731483760E-01  0.11820653293E+00  0.88887916841E+00  0.88000000000E+00 0.  1.
        -11    1    4    4    0    0  0.15675421879E-01  0.90964132042E-02 -0.53596040609E-01  0.56579680754E-01  0.51100000000E-03 0. -1.
         11    1    4    4    0    0  0.32861055823E-01  0.29133053798E-01 -0.59651051064E-01  0.74074913618E-01  0.51100000000E-03 0.  1.
</event>
<event>
 8    1  0.1108957E+005  0.1043930E+01  0.7957747E-01            NaN
         13   -1    0    0    0    0  0.00000000000E+00  0.00000000000E+00  0.74505805969E-08  0.10566000000E+00  0.10566000000E+00 0. -1.
     999900   -1    0    0    0    0 -0.00000000000E+00 -0.00000000000E+00 -0.74505805969E-08  0.93827000000E+00  0.93827000000E+00 0. -1.
     999902    2    1    2    0    0  0.15556368923E-02 -0.18453576339E-01  0.14288267986E-01  0.10205396369E+01  0.10202715527E+01 0.  0.
     999903    2    3    3    0    0 -0.10097529735E+00 -0.27360917123E-01 -0.74555037384E-01  0.13009869771E+00  0.20556923073E-01 0.  0.
         14    1    1    2    0    0 -0.15556368923E-02  0.18453576339E-01 -0.14288267986E-01  0.23390363141E-01  0.00000000000E+00 0.  1.
     999901    1    3    3    0    0  0.10253093424E+00  0.89073407841E-02  0.88843305370E-01  0.89044093915E+00  0.88000000000E+00 0.  1.
        -11    1    4    4    0    0 -0.68487900561E-01 -0.84426099472E-02 -0.47359332077E-01  0.83696102907E-01  0.51100000000E-03 0. -1.
         11    1    4    4    0    0 -0.32487396791E-01 -0.18918307176E-01 -0.27195705307E-01  0.46402594807E-01  0.51100000000E-03 0.  1.
</event>
<event>
 7    1  0.1108957E+005  0.1043930E+01  0.7957747E-01            NaN
         13   -1    0    0    0    0  0.00000000000E+00  0.00000000000E+00  0.74505805969E-08  0.10566000000E+00  0.10566000000E+00 0. -1.
     999900   -1    0    0    0    0 -0.00000000000E+00 -0.00000000000E+00 -0.74505805969E-08  0.93827000000E+00  0.93827000000E+00 0.  1.
     999902    2    1    2    0    0 -0.91596661716E-02  0.15688664219E-01 -0.15275069126E-01  0.10201947645E+01  0.10199186223E+01 0.  0.
         14    1    1    2    0    0  0.91596661716E-02 -0.15688664219E-01  0.15275069126E-01  0.23735235541E-01  0.00000000000E+00 0. -1.
     999901    1    3    3    0    0  0.63259770581E-01  0.43469085968E-01 -0.10660432087E+00  0.88975043762E+00  0.88000000000E+00 0.  1.
        -11    1    3    3    0    0 -0.79682479629E-01 -0.25426609864E-01  0.74718558598E-01  0.11215584768E+00  0.51100000000E-03 0. -1.
         11    1    3    3    0    0  0.72630428764E-02 -0.23538118851E-02  0.16610693148E-01  0.18288479163E-01  0.51100000000E-03 0.  1.
</event>
<event>
 8    1  0.1108957E+005  0.1043930E+01  0.7957747E-01            NaN
         13   -1    0    0    0    0  0.00000000000E+00  0.00000000000E+00  0.74505805969E-08  0.10566000000E+00  0.10566000000E+00 0. -1.
     999900   -1    0    0    0    0 -0.00000000000E+00 -0.00000000000E+00 -0.74505805969E-08  0.93827000000E+00  0.93827000000E+00 0. -1.
     999902    2    1    2    0    0  0.46673455398E-03 -0.22555682367E-01 -0.26896080868E-03  0.10213678860E+01  0.10211186560E+01 0.  0.
     999903    2    3    3    0    0 -0.64701608172E-01  0.84870741545E-01 -0.70755388350E-01  0.12965286094E+00  0.20351867225E-01 0.  0.
         14    1    1    2    0    0 -0.46673455398E-03  0.22555682367E-01  0.26896080868E-03  0.22562113999E-01  0.00000000000E+00 0. -1.
     999901    1    3    3    0    0  0.65168342726E-01 -0.10742642391E+00  0.70486427541E-01  0.89171502506E+00  0.88000000000E+00 0.  1.
        -11    1    4    4    0    0 -0.39886218028E-01  0.42190194831E-01 -0.28561515741E-01  0.64706601138E-01  0.51100000000E-03 0. -1.
         11    1    4    4    0    0 -0.24815390144E-01  0.42680546714E-01 -0.42193872609E-01  0.64946259804E-01  0.51100000000E-03 0.  1.
</event>
<event>
 7    1  0.1108957E+005  0.1043930E+01  0.7957747E-01            NaN
         13   -1    0    0    0    0  0.00000000000E+00  0.00000000000E+00  0.74505805969E-08  0.10566000000E+00  0.10566000000E+00 0. -1.
     999900   -1    0    0    0    0 -0.00000000000E+00 -0.00000000000E+00 -0.74505805969E-08  0.93827000000E+00  0.93827000000E+00 0.  1.
     999903    2    1    2    0    0  0.82526426942E-02 -0.28523902670E-01  0.10445708730E+00  0.11054184106E+00  0.20651789321E-01 0.  0.
         14    1    1    2    0    0  0.39699891486E-01  0.23559438593E-01 -0.71144357128E-02  0.46709139644E-01  0.00000000000E+00 0. -1.
     999901    1    1    2    0    0 -0.47952534180E-01  0.49644640769E-02 -0.97342651591E-01  0.88667901929E+00  0.88000000000E+00 0.  1.
        -11    1    3    3    0    0  0.52241136793E-02 -0.17967660328E-01  0.30602225300E-01  0.35873186306E-01  0.51100000000E-03 0. -1.
         11    1    3    3    0    0  0.30285290149E-02 -0.10556242342E-01  0.73854862004E-01  0.74668654756E-01  0.51100000000E-03 0.  1.
</event>
<event>
 8    1  0.1108957E+005  0.1043930E+01  0.7957747E-01            NaN
         13   -1    0    0    0    0  0.00000000000E+00  0.00000000000E+00  0.74505805969E-08  0.10566000000E+00  0.10566000000E+00 0.  1.
     999900   -1    0    0    0    0 -0.00000000000E+00 -0.00000000000E+00 -0.74505805969E-08  0.93827000000E+00  0.93827000000E+00 0.  1.
     999902    2    1    2    0    0 -0.51766579726E-02 -0.12443019172E-01 -0.18917975695E-01  0.10207025094E+01  0.10204381884E+01 0.  0.
     999903    2    3    3    0    0  0.55216425054E-02 -0.67991297384E-01  0.10836153222E+00  0.12974788770E+00  0.20952031889E-01 0.  0.
         14    1    1    2    0    0  0.51766579726E-02  0.12443019172E-01  0.18917975695E-01  0.23227490572E-01  0.00000000000E+00 0.  1.
     999901    1    3    3    0    0 -0.10698300478E-01  0.55548278212E-01 -0.12727950792E+00  0.89095462173E+00  0.88000000000E+00 0.  1.
        -11    1    4    4    0    0  0.12392184670E-01 -0.31526508939E-01  0.45131778893E-01  0.56432487042E-01  0.51100000000E-03 0. -1.
         11    1    4    4    0    0 -0.68705421647E-02 -0.36464788445E-01  0.63229753332E-01  0.73315400656E-01  0.51100000000E-03 0.  1.
</event>
<event>
 8    1  0.1108957E+005  0.1043930E+01  0.7957747E-01            NaN
         13   -1    0    0    0    0  0.00000000000E+00  0.00000000000E+00  0.74505805969E-08  0.10566000000E+00  0.10566000000E+00 0. -1.
     999900   -1    0    0    0    0 -0.00000000000E+00 -0.00000000000E+00 -0.74505805969E-08  0.93827000000E+00  0.93827000000E+00 0.  1.
     999902    2    1    2    0    0  0.18780093402E-01  0.12054527296E-02 -0.10579950164E-01  0.10223411054E+01  0.10221131324E+01 0.  0.
     999903    2    3    3    0    0  0.11244584795E+00 -0.69588384554E-01 -0.15008207675E-01  0.13453220117E+00  0.19673710092E-01 0.  0.
         14    1    1    2    0    0 -0.18780093402E-01 -0.12054527296E-02  0.10579950164E-01  0.21588894597E-01  0.00000000000E+00 0.  1.
     999901    1    3    3    0    0 -0.93665754544E-01  0.70793837284E-01  0.44282575112E-02  0.88780890423E+00  0.88000000000E+00 0. -1.
        -11    1    4    4    0    0  0.22845074087E-01 -0.15415586136E-01  0.47725556501E-02  0.27974561916E-01  0.51100000000E-03 0. -1.
         11    1    4    4    0    0  0.89600773858E-01 -0.54172798418E-01 -0.19780763325E-01  0.10655763925E+00  0.51100000000E-03 0.  1.
</event>
<event>
 8    1  0.1108957E+005  0.1043930E+01  0.7957747E-01            NaN
         13   -1    0    0    0    0  0.00000000000E+00  0.00000000000E+00  0.74505805969E-08  0.10566000000E+00  0.10566000000E+00 0.  1.
     999900   -1    0    0    0    0 -0.00000000000E+00 -0.00000000000E+00 -0.74505805969E-08  0.93827000000E+00  0.93827000000E+00 0.  1.
     999902    2    1    2    0    0  0.17292739028E-01  0.43232956742E-03 -0.16615019473E-01  0.10199449087E+01  0.10196628522E+01 0.  0.
     999903    2    3    3    0    0  0.33446982931E-01  0.10677501224E+00 -0.66963039320E-01  0.13196706616E+00  0.20289258493E-01 0.  0.
         14    1    1    2    0    0 -0.17292739028E-01 -0.43232956742E-03  0.16615019473E-01  0.23985091287E-01  0.00000000000E+00 0.  1.
     999901    1    3    3    0    0 -0.16154243903E-01 -0.10634268268E+00  0.50348019847E-01  0.88797784255E+00  0.88000000000E+00 0. -1.
        -11    1    4    4    0    0  0.90768392761E-02  0.59460376796E-01 -0.40603344911E-01  0.72572847257E-01  0.51100000000E-03 0.  1.
         11    1    4    4    0    0  0.24370143655E-01  0.47314635447E-01 -0.26359694410E-01  0.59394218908E-01  0.51100000000E-03 0. -1.
</event>
<event>
 8    1  0.1108957E+005  0.1043930E+01  0.7957747E-01            NaN
         13   -1    0    0    0    0  0.00000000000E+00  0.00000000000E+00  0.74505805969E-08  0.10566000000E+00  0.10566000000E+00 0.  1.
     999900   -1    0    0    0    0 -0.00000000000E+00 -0.00000000000E+00 -0.74505805969E-08  0.93827000000E+00  0.93827000000E+00 0. -1.
     999902    2    1    2    0    0 -0.15366049447E-01  0.46159517807E-02 -0.17441813543E-01  0.10202310687E+01  0.10199557805E+01 0.  0.
     999903    2    3    3    0    0 -0.12729070729E+00 -0.28203019787E-01  0.82294379829E-02  0.13216393884E+00  0.20031190508E-01 0.  0.
         14    1    1    2    0    0  0.15366049447E-01 -0.46159517807E-02  0.17441813543E-01  0.23698931329E-01  0.00000000000E+00 0.  1.
     999901    1    3    3    0    0  0.11192465784E+00  0.32818971568E-01 -0.25671251526E-01  0.88806712983E+00  0.88000000000E+00 0. -1.
        -11    1    4    4    0    0 -0.47919380499E-01 -0.21318260490E-02  0.79161978432E-02  0.48618299219E-01  0.51100000000E-03 0. -1.
         11    1    4    4    0    0 -0.79371326792E-01 -0.26071193738E-01  0.31324013975E-03  0.83545639623E-01  0.51100000000E-03 0.  1.
</event>
<event>
 8    1  0.1108957E+005  0.1043930E+01  0.7957747E-01            NaN
         13   -1    0    0    0    0  0.00000000000E+00  0.00000000000E+00  0.74505805969E-08  0.10566000000E+00  0.10566000000E+00 0. -1.
     999900   -1    0    0    0    0 -0.00000000000E+00 -0.00000000000E+00 -0.74505805969E-08  0.93827000000E+00  0.93827000000E+00 0.  1.
     999902    2    1    2    0    0 -0.26624136195E-02  0.54057823524E-03 -0.23531177746E-01  0.10202425139E+01  0.10199674947E+01 0.  0.
     999903    2    3    3    0    0  0.46872492845E-01  0.26700771298E-01  0.11349483460E+00  0.12787813166E+00  0.23701841749E-01 0.  0.
         14    1    1    2    0    0  0.26624136195E-02 -0.54057823524E-03  0.23531177746E-01  0.23687486089E-01  0.00000000000E+00 0. -1.
     999901    1    3    3    0    0 -0.49534906464E-01 -0.26160193062E-01 -0.13702601234E+00  0.89236438226E+00  0.88000000000E+00 0.  1.
        -11    1    4    4    0    0  0.17482456597E-01  0.16475401199E-01  0.72696164921E-01  0.76564147279E-01  0.51100000000E-03 0.  1.
         11    1    4    4    0    0  0.29390036248E-01  0.10225370098E-01  0.40798669674E-01  0.51313984376E-01  0.51100000000E-03 0. -1.
</event>
<event>
 8    1  0.1108957E+005  0.1043930E+01  0.7957747E-01            NaN
         13   -1    0    0    0    0  0.00000000000E+00  0.00000000000E+00  0.74505805969E-08  0.10566000000E+00  0.10566000000E+00 0.  1.
     999900   -1    0    0    0    0 -0.00000000000E+00 -0.00000000000E+00 -0.74505805969E-08  0.93827000000E+00  0.93827000000E+00 0. -1.
     999902    2    1    2    0    0 -0.18335865870E-01 -0.11261029286E-01  0.12216672647E-01  0.10191860745E+01  0.10188856622E+01 0.  0.
     999903    2    3    3    0    0  0.26733338414E-01 -0.12381646029E+00 -0.22458468759E-01  0.13019657871E+00  0.20039437804E-01 0.  0.
         14    1    1    2    0    0  0.18335865870E-01  0.11261029286E-01 -0.12216672647E-01  0.24743925484E-01  0.00000000000E+00 0.  1.
     999901    1    3    3    0    0 -0.45069204284E-01  0.11255543100E+00  0.34675141406E-01  0.88898949581E+00  0.88000000000E+00 0.  1.
        -11    1    4    4    0    0  0.97503169592E-02 -0.14075784879E-01 -0.15862979286E-02  0.17203890922E-01  0.51100000000E-03 0. -1.
         11    1    4    4    0    0  0.16983021455E-01 -0.10974067541E+00 -0.20872170831E-01  0.11299268779E+00  0.51100000000E-03 0.  1.
</event>
<event>
 8    1  0.1108957E+005  0.1043930E+01  0.7957747E-01            NaN
         13   -1    0    0    0    0  0.00000000000E+00  0.00000000000E+00  0.74505805969E-08  0.10566000000E+00  0.10566000000E+00 0.  1.
     999900   -1    0    0    0    0 -0.00000000000E+00 -0.00000000000E+00 -0.74505805969E-08  0.93827000000E+00  0.93827000000E+00 0.  1.
     999902    2    1    2    0    0  0.16174864217E-01 -0.20666548870E-02  0.38651676433E-02  0.10271718135E+01  0.10270351005E+01 0.  0.
     999903    2    3    3    0    0 -0.19945372088E-01 -0.13153908009E+00 -0.23485421135E-01  0.13654516045E+00  0.19815861782E-01 0.  0.
         14    1    1    2    0    0 -0.16174864217E-01  0.20666548870E-02 -0.38651676433E-02  0.16758186530E-01  0.00000000000E+00 0.  1.
     999901    1    3    3    0    0  0.36120236305E-01  0.12947242520E+00  0.27350588778E-01  0.89062665302E+00  0.88000000000E+00 0. -1.
        -11    1    4    4    0    0 -0.18139659950E-01 -0.58355336792E-01 -0.70690895726E-02  0.61519311957E-01  0.51100000000E-03 0. -1.
         11    1    4    4    0    0 -0.18057121381E-02 -0.73183743299E-01 -0.16416331562E-01  0.75025848496E-01  0.51100000000E-03 0.  1.
</event>
<event>
 8    1  0.1108957E+005  0.1043930E+01  0.7957747E-01            NaN
         13   -1    0    0    0    0  0.00000000000E+00  0.00000000000E+00  0.74505805969E-08  0.10566000000E+00  0.10566000000E+00 0.  1.
     999900   -1    0    0    0    0 -0.00000000000E+00 -0.00000000000E+00 -0.74505805969E-08  0.93827000000E+00  0.93827000000E+00 0. -1.
     999902    2    1    2    0    0 -0.84220332500E-02 -0.20844683219E-01 -0.52806134064E-02  0.10208363571E+01  0.10205751083E+01 0.  0.
     999903    2    3    3    0    0  0.11725700035E+00 -0.58813224840E-02 -0.53351975844E-01  0.13048250752E+00  0.19886109661E-01 0.  0.
         14    1    1    2    0    0  0.84220332500E-02  0.20844683219E-01  0.52806134064E-02  0.23093642860E-01  0.00000000000E+00 0.  1.
     999901    1    3    3    0    0 -0.12567903360E+00 -0.14963360735E-01  0.48071362437E-01  0.89035384962E+00  0.88000000000E+00 0.  1.
        -11    1    4    4    0    0  0.24099527940E-01 -0.60439472706E-02 -0.43741208927E-02  0.25233125057E-01  0.51100000000E-03 0.  1.
         11    1    4    4    0    0  0.93157472406E-01  0.16262478659E-03 -0.48977854951E-01  0.10524938246E+00  0.51100000000E-03 0. -1.
</event>
<event>
 8    1  0.1108957E+005  0.1043930E+01  0.7957747E-01            NaN
         13   -1    0    0    0    0  0.00000000000E+00  0.00000000000E+00  0.74505805969E-08  0.10566000000E+00  0.10566000000E+00 0. -1.
     999900   -1    0    0    0    0 -0.00000000000E+00 -0.00000000000E+00 -0.74505805969E-08  0.93827000000E+00  0.93827000000E+00 0.  1.
     999902    2    1    2    0    0 -0.90103838061E-02  0.11376816053E-01  0.18814167495E-01  0.10201688582E+01  0.10198921058E+01 0.  0.
     999903    2    3    3    0    0  0.26096558238E-01 -0.77027010778E-01 -0.96051109330E-01  0.12762095150E+00  0.21144760995E-01 0.  0.
         14    1    1    2    0    0  0.90103838061E-02 -0.11376816053E-01 -0.18814167495E-01  0.23761141773E-01  0.00000000000E+00 0.  1.
     999901    1    3    3    0    0 -0.35106942045E-01  0.88403826831E-01  0.11486527683E+00  0.89254790672E+00  0.88000000000E+00 0. -1.
        -11    1    4    4    0    0 -0.15374022349E-02 -0.21802889467E-01 -0.19770320522E-01  0.29476368319E-01  0.51100000000E-03 0.  1.
         11    1    4    4    0    0  0.27633960473E-01 -0.55224121312E-01 -0.76280788808E-01  0.98144583184E-01  0.51100000000E-03 0. -1.
</event>
<event>
 8    1  0.1108957E+005  0.1043930E+01  0.7957747E-01            NaN
         13   -1    0    0    0    0  0.00000000000E+00  0.00000000000E+00  0.74505805969E-08  0.10566000000E+00  0.10566000000E+00 0. -1.
     999900   -1    0    0    0    0 -0.00000000000E+00 -0.00000000000E+00 -0.74505805969E-08  0.93827000000E+00  0.93827000000E+00 0. -1.
     999902    2    1    2    0    0  0.36079972126E-02  0.11488228219E-01 -0.21107752297E-01  0.10196290898E+01  0.10193394658E+01 0.  0.
     999903    2    3    3    0    0  0.67429068495E-01 -0.76353261115E-01  0.74708069188E-01  0.12779394354E+00  0.19326061220E-01 0.  0.
         14    1    1    2    0    0 -0.36079972126E-02 -0.11488228219E-01  0.21107752297E-01  0.24300910241E-01  0.00000000000E+00 0. -1.
     999901    1    3    3    0    0 -0.63821071282E-01  0.87841489334E-01 -0.95815821485E-01  0.89183514622E+00  0.88000000000E+00 0. -1.
        -11    1    4    4    0    0  0.58125926585E-01 -0.64819181480E-01  0.54451465778E-01  0.10269066596E+00  0.51100000000E-03 0. -1.
         11    1    4    4    0    0  0.93031419103E-02 -0.11534079635E-01  0.20256603410E-01  0.25103277578E-01  0.51100000000E-03 0.  1.
</event>
<event>
 8    1  0.1108957E+005  0.1043930E+01  0.7957747E-01            NaN
         13   -1    0    0    0    0  0.00000000000E+00  0.00000000000E+00  0.74505805969E-08  0.10566000000E+00  0.10566000000E+00 0.  1.
     999900   -1    0    0    0    0 -0.00000000000E+00 -0.00000000000E+00 -0.74505805969E-08  0.93827000000E+00  0.93827000000E+00 0. -1.
     999902    2    1    2    0    0  0.11576388727E-01 -0.12731616641E-01 -0.15926889320E-01  0.10204827690E+01  0.10202133645E+01 0.  0.
     999903    2    3    3    0    0  0.75509690533E-01 -0.83087190114E-01 -0.69847205915E-01  0.13372193634E+00  0.19943158186E-01 0.  0.
         14    1    1    2    0    0 -0.11576388727E-01  0.12731616641E-01  0.15926889320E-01  0.23447231002E-01  0.00000000000E+00 0.  1.
     999901    1    3    3    0    0 -0.63933301806E-01  0.70355573473E-01  0.53920316595E-01  0.88676083266E+00  0.88000000000E+00 0. -1.
        -11    1    4    4    0    0  0.30108840285E-01 -0.20957155774E-01 -0.17463584901E-01  0.40632284701E-01  0.51100000000E-03 0. -1.
         11    1    4    4    0    0  0.45400850248E-01 -0.62130034340E-01 -0.52383621015E-01  0.93089651637E-01  0.51100000000E-03 0.  1.
</event>
<event>
 8    1  0.1108957E+005  0.1043930E+01  0.7957747E-01            NaN
         13   -1    0    0    0    0  0.00000000000E+00  0.00000000000E+00  0.74505805969E-08  0.10566000000E+00  0.10566000000E+00 0. -1.
     999900   -1    0    0    0    0 -0.00000000000E+00 -0.00000000000E+00 -0.74505805969E-08  0.93827000000E+00  0.93827000000E+00 0. -1.
     999902    2    1    2    0    0  0.68869057987E-02  0.49017049594E-02  0.22309216489E-01  0.10200729817E+01  0.10197939648E+01 0.  0.
     999903    2    3    3    0    0 -0.11726949036E+00 -0.25841869358E-01 -0.41151853079E-01  0.12856454906E+00  0.20382165770E-01 0.  0.
         14    1    1    2    0    0 -0.68869057987E-02 -0.49017049594E-02 -0.22309216489E-01  0.23857018325E-01  0.00000000000E+00 0.  1.
     999901    1    3    3    0    0  0.12415639616E+00  0.30743574317E-01  0.63461069568E-01  0.89150843261E+00  0.88000000000E+00 0.  1.
        -11    1    4    4    0    0 -0.99245835959E-01 -0.29179529966E-01 -0.35686546815E-01  0.10943021369E+00  0.51100000000E-03 0. -1.
         11    1    4    4    0    0 -0.18023654405E-01  0.33376606087E-02 -0.54653062639E-02  0.19134335369E-01  0.51100000000E-03 0.  1.
</event>
<event>
 8    1  0.1108957E+005  0.1043930E+01  0.7957747E-01            NaN
         13   -1    0    0    0    0  0.00000000000E+00  0.00000000000E+00  0.74505805969E-08  0.10566000000E+00  0.10566000000E+00 0.  1.
     999900   -1    0    0    0    0 -0.00000000000E+00 -0.00000000000E+00 -0.74505805969E-08  0.93827000000E+00  0.93827000000E+00 0.  1.
     999902    2    1    2    0    0 -0.13521092570E-01  0.22884727589E-01  0.11245376131E-01  0.10150684480E+01  0.10146580532E+01 0.  0.
     999903    2    3    3    0    0 -0.23052216966E-01  0.65274261248E-01 -0.10242304780E+00  0.12669452586E+00  0.27728834678E-01 0.  0.
         14    1    1    2    0    0  0.13521092570E-01 -0.22884727589E-01 -0.11245376131E-01  0.28861552027E-01  0.00000000000E+00 0. -1.
     999901    1    3    3    0    0  0.95311243962E-02 -0.42389533660E-01  0.11366842393E+00  0.88837392212E+00  0.88000000000E+00 0. -1.
        -11    1    4    4    0    0 -0.19855710332E-01  0.24161840445E-01 -0.29923328646E-01  0.43286377589E-01  0.51100000000E-03 0. -1.
         11    1    4    4    0    0 -0.31965066342E-02  0.41112420803E-01 -0.72499719155E-01  0.83408148269E-01  0.51100000000E-03 0.  1.
</event>
<event>
 8    1  0.1108957E+005  0.1043930E+01  0.7957747E-01            NaN
         13   -1    0    0    0    0  0.00000000000E+00  0.00000000000E+00  0.74505805969E-08  0.10566000000E+00  0.10566000000E+00 0. -1.
     999900   -1    0    0    0    0 -0.00000000000E+00 -0.00000000000E+00 -0.74505805969E-08  0.93827000000E+00  0.93827000000E+00 0. -1.
     999902    2    1    2    0    0 -0.21670550817E-01 -0.10227995684E-01 -0.68190000500E-02  0.10190156782E+01  0.10187110626E+01 0.  0.
     999903    2    3    3    0    0  0.25496343547E-01  0.28476932154E-01 -0.12202299906E+00  0.12941197501E+00  0.19921038589E-01 0.  0.
         14    1    1    2    0    0  0.21670550817E-01  0.10227995684E-01  0.68190000500E-02  0.24914321787E-01  0.00000000000E+00 0. -1.
     999901    1    3    3    0    0 -0.47166894364E-01 -0.38704927838E-01  0.11520399901E+00  0.88960370320E+00  0.88000000000E+00 0.  1.
        -11    1    4    4    0    0  0.11449544463E-01  0.23194618765E-01 -0.55771409226E-01  0.61480026156E-01  0.51100000000E-03 0.  1.
         11    1    4    4    0    0  0.14046799084E-01  0.52823133885E-02 -0.66251589831E-01  0.67931948856E-01  0.51100000000E-03 0. -1.
</event>
<event>
 8    1  0.1108957E+005  0.1043930E+01  0.7957747E-01            NaN
         13   -1    0    0    0    0  0.00000000000E+00  0.00000000000E+00  0.74505805969E-08  0.10566000000E+00  0.10566000000E+00 0.  1.
     999900   -1    0    0    0    0 -0.00000000000E+00 -0.00000000000E+00 -0.74505805969E-08  0.93827000000E+00  0.93827000000E+00 0.  1.
     999902    2    1    2    0    0 -0.27862208554E-02  0.23369956498E-01  0.10188904125E-01  0.10182837203E+01  0.10179607082E+01 0.  0.
     999903    2    3    3    0    0  0.32020424063E-01 -0.93172504810E-01 -0.75573898211E-01  0.12578783458E+00  0.20118201430E-01 0.  0.
         14    1    1    2    0    0  0.27862208554E-02 -0.23369956498E-01 -0.10188904125E-01  0.25646279665E-01  0.00000000000E+00 0.  1.
     999901    1    3    3    0    0 -0.34806644918E-01  0.11654246131E+00  0.85762802336E-01  0.89249588575E+00  0.88000000000E+00 0. -1.
        -11    1    4    4    0    0  0.74182398533E-02 -0.52447306899E-01 -0.39673992000E-01  0.66181848309E-01  0.51100000000E-03 0.  1.
         11    1    4    4    0    0  0.24602184210E-01 -0.40725197911E-01 -0.35899906211E-01  0.59605986274E-01  0.51100000000E-03 0. -1.
</event>
<event>
 8    1  0.1108957E+005  0.1043930E+01  0.7957747E-01            NaN
         13   -1    0    0    0    0  0.00000000000E+00  0.00000000000E+00  0.74505805969E-08  0.10566000000E+00  0.10566000000E+00 0. -1.
     999900   -1    0    0    0    0 -0.00000000000E+00 -0.00000000000E+00 -0.74505805969E-08  0.93827000000E+00  0.93827000000E+00 0. -1.
     999902    2    1    2    0    0  0.23189871080E-01 -0.36532234080E-02 -0.96726605195E-02  0.10185395190E+01  0.10182229988E+01 0.  0.
     999903    2    3    3    0    0  0.74331849261E-01 -0.94924067153E-01  0.46015840299E-01  0.13059409393E+00  0.20038898947E-01 0.  0.
         14    1    1    2    0    0 -0.23189871080E-01  0.36532234080E-02  0.96726605195E-02  0.25390480962E-01  0.00000000000E+00 0.  1.
     999901    1    3    3    0    0 -0.51141978181E-01  0.91270843745E-01 -0.55688500819E-01  0.88794542511E+00  0.88000000000E+00 0.  1.
        -11    1    4    4    0    0  0.60302210348E-01 -0.70543979486E-01  0.43048848317E-01  0.10230480965E+00  0.51100000000E-03 0. -1.
         11    1    4    4    0    0  0.14029638912E-01 -0.24380087667E-01  0.29669919822E-02  0.28289284280E-01  0.51100000000E-03 0.  1.
</event>
<event>
 8    1  0.1108957E+005  0.1043930E+01  0.7957747E-01            NaN
         13   -1    0    0    0    0  0.00000000000E+00  0.00000000000E+00  0.74505805969E-08  0.10566000000E+00  0.10566000000E+00 0. -1.
     999900   -1    0    0    0    0 -0.00000000000E+00 -0.00000000000E+00 -0.74505805969E-08  0.93827000000E+00  0.93827000000E+00 0.  1.
     999902    2    1    2    0    0 -0.77309431604E-02 -0.15497587288E-01 -0.18668988497E-01  0.10184648508E+01  0.10181464425E+01 0.  0.
     999903    2    3    3    0    0 -0.11431769709E+00 -0.58562072611E-01 -0.16264717135E-01  0.13098467266E+00  0.19859285835E-01 0.  0.
         14    1    1    2    0    0  0.77309431604E-02  0.15497587288E-01  0.18668988497E-01  0.25465149232E-01  0.00000000000E+00 0. -1.
     999901    1    3    3    0    0  0.10658675392E+00  0.43064485323E-01 -0.24042713622E-02  0.88748017810E+00  0.88000000000E+00 0.  1.
        -11    1    4    4    0    0 -0.47630537391E-01 -0.31521499507E-01 -0.14809526412E-01  0.59007255629E-01  0.51100000000E-03 0.  1.
         11    1    4    4    0    0 -0.66687159694E-01 -0.27040573104E-01 -0.14551907223E-02  0.71977417034E-01  0.51100000000E-03 0. -1.
</event>
<event>
 8    1  0.1108957E+005  0.1043930E+01  0.7957747E-01            NaN
         13   -1    0    0    0    0  0.00000000000E+00  0.00000000000E+00  0.74505805969E-08  0.10566000000E+00  0.10566000000E+00 0. -1.
     999900   -1    0    0    0    0 -0.00000000000E+00 -0.00000000000E+00 -0.74505805969E-08  0.93827000000E+00  0.93827000000E+00 0.  1.
     999902    2    1    2    0    0  0.18908438911E-02 -0.20231419049E-01  0.13794700243E-01  0.10193702899E+01  0.10190743881E+01 0.  0.
     999903    2    3    3    0    0 -0.41578121473E-02 -0.11731137336E+00 -0.53555515740E-01  0.13145297650E+00  0.25148479918E-01 0.  0.
         14    1    1    2    0    0 -0.18908438911E-02  0.20231419049E-01 -0.13794700243E-01  0.24559710140E-01  0.00000000000E+00 0.  1.
     999901    1    3    3    0    0  0.60486560384E-02  0.97079954315E-01  0.67350215983E-01  0.88791731336E+00  0.88000000000E+00 0. -1.
        -11    1    4    4    0    0 -0.68570197127E-02 -0.49856644002E-01 -0.10592868094E-01  0.51431251647E-01  0.51100000000E-03 0. -1.
         11    1    4    4    0    0  0.26992075654E-02 -0.67454729362E-01 -0.42962647646E-01  0.80021724854E-01  0.51100000000E-03 0.  1.
</event>
<event>
 8    1  0.1108957E+005  0.1043930E+01  0.7957747E-01            NaN
         13   -1    0    0    0    0  0.00000000000E+00  0.00000000000E+00  0.74505805969E-08  0.10566000000E+00  0.10566000000E+00 0.  1.
     999900   -1    0    0    0    0 -0.00000000000E+00 -0.00000000000E+00 -0.74505805969E-08  0.93827000000E+00  0.93827000000E+00 0. -1.
     999902    2    1    2    0    0 -0.16787011713E-01  0.68546551550E-02 -0.14273967944E-01  0.10208532537E+01  0.10205923914E+01 0.  0.
     999903    2    3    3    0    0 -0.11284257587E+00 -0.39333232374E-01  0.52151517461E-01  0.13193686984E+00  0.20174408353E-01 0.  0.
         14    1    1    2    0    0  0.16787011713E-01 -0.68546551550E-02  0.14273967944E-01  0.23076746313E-01  0.00000000000E+00 0.  1.
     999901    1    3    3    0    0  0.96055564154E-01  0.46187887529E-01 -0.66425485405E-01  0.88891638385E+00  0.88000000000E+00 0. -1.
        -11    1    4    4    0    0 -0.52024260455E-01 -0.27995898418E-01  0.29653246988E-01  0.66104993624E-01  0.51100000000E-03 0.  1.
         11    1    4    4    0    0 -0.60818315412E-01 -0.11337333955E-01  0.22498270473E-01  0.65831876216E-01  0.51100000000E-03 0. -1.
</event>
<event>
 8    1  0.1108957E+005  0.1043930E+01  0.7957747E-01            NaN
         13   -1    0    0    0    0  0.00000000000E+00  0.00000000000E+00  0.74505805969E-08  0.10566000000E+00  0.10566000000E+00 0.  1.
     999900   -1    0    0    0    0 -0.00000000000E+00 -0.00000000000E+00 -0.74505805969E-08  0.93827000000E+00  0.93827000000E+00 0. -1.
     999902    2    1    2    0    0 -0.17378464947E-01 -0.15801251274E-01 -0.11863868552E-02  0.10204119623E+01  0.10201409092E+01 0.  0.
     999903    2    3    3    0    0 -0.11985540782E-01 -0.86818413923E-01  0.96722138104E-01  0.13212225710E+00  0.20494600199E-01 0.  0.
         14    1    1    2    0    0  0.17378464947E-01  0.15801251274E-01  0.11863868552E-02  0.23518037748E-01  0.00000000000E+00 0.  1.
     999901    1    3    3    0    0 -0.53929241644E-02  0.71017162649E-01 -0.97908524960E-01  0.88828970515E+00  0.88000000000E+00 0. -1.
        -11    1    4    4    0    0 -0.40390781064E-02 -0.14700635375E-01  0.71384729035E-02  0.16841667043E-01  0.51100000000E-03 0.  1.
         11    1    4    4    0    0 -0.79464626760E-02 -0.72117778548E-01  0.89583665201E-01  0.11528059006E+00  0.51100000000E-03 0. -1.
</event>
<event>
 8    1  0.1108957E+005  0.1043930E+01  0.7957747E-01            NaN
         13   -1    0    0    0    0  0.00000000000E+00  0.00000000000E+00  0.74505805969E-08  0.10566000000E+00  0.10566000000E+00 0.  1.
     999900   -1    0    0    0    0 -0.00000000000E+00 -0.00000000000E+00 -0.74505805969E-08  0.93827000000E+00  0.93827000000E+00 0.  1.
     999902    2    1    2    0    0 -0.21475147824E-01 -0.99194799254E-02 -0.44712704214E-02  0.10198557333E+01  0.10195715505E+01 0.  0.
     999903    2    3    3    0    0  0.68114452924E-01  0.10164507000E+00 -0.31537358430E-01  0.12788851506E+00  0.19737486028E-01 0.  0.
         14    1    1    2    0    0  0.21475147824E-01  0.99194799254E-02  0.44712704214E-02  0.24074266660E-01  0.00000000000E+00 0.  1.
     999901    1    3    3    0    0 -0.89589600748E-01 -0.11156454993E+00  0.27066088009E-01  0.89196721828E+00  0.88000000000E+00 0. -1.
        -11    1    4    4    0    0  0.63678617841E-01  0.84440326393E-01 -0.30556405690E-01  0.11008673917E+00  0.51100000000E-03 0.  1.
         11    1    4    4    0    0  0.44358350825E-02  0.17204743611E-01 -0.98095274081E-03  0.17801775891E-01  0.51100000000E-03 0. -1.
</event>
<event>
 7    1  0.1108957E+005  0.1043930E+01  0.7957747E-01            NaN
         13   -1    0    0    0    0  0.00000000000E+00  0.00000000000E+00  0.74505805969E-08  0.10566000000E+00  0.10566000000E+00 0.  1.
     999900   -1    0    0    0    0 -0.00000000000E+00 -0.00000000000E+00 -0.74505805969E-08  0.93827000000E+00  0.93827000000E+00 0. -1.
     999903    2    1    2    0    0  0.25788565083E-01  0.36901241114E-01 -0.63335680643E-01  0.79747547327E-01  0.17930732761E-01 0.  0.
         14    1    1    2    0    0  0.20975768952E-01 -0.58145459688E-01 -0.44426565863E-01  0.76122251148E-01  0.00000000000E+00 0. -1.
     999901    1    1    2    0    0 -0.46764334035E-01  0.21244218574E-01  0.10776224651E+00  0.88806020152E+00  0.88000000000E+00 0.  1.
        -11    1    3    3    0    0  0.18239029802E-01  0.12492129142E-01 -0.36611955010E-01  0.42771624581E-01  0.51100000000E-03 0.  1.
         11    1    3    3    0    0  0.75495352814E-02  0.24409111972E-01 -0.26723725633E-01  0.36975922747E-01  0.51100000000E-03 0. -1.
</event>
<event>
 8    1  0.1108957E+005  0.1043930E+01  0.7957747E-01            NaN
         13   -1    0    0    0    0  0.00000000000E+00  0.00000000000E+00  0.74505805969E-08  0.10566000000E+00  0.10566000000E+00 0.  1.
     999900   -1    0    0    0    0 -0.00000000000E+00 -0.00000000000E+00 -0.74505805969E-08  0.93827000000E+00  0.93827000000E+00 0. -1.
     999902    2    1    2    0    0 -0.12727093897E-01  0.17712563917E-01  0.91439128539E-02  0.10202799475E+01  0.10200058070E+01 0.  0.
     999903    2    3    3    0    0 -0.51740818571E-01  0.32100656862E-01 -0.11399310119E+00  0.13073410152E+00  0.19733567929E-01 0.  0.
         14    1    1    2    0    0  0.12727093897E-01 -0.17712563917E-01 -0.91439128539E-02  0.23650052470E-01  0.00000000000E+00 0. -1.
     999901    1    3    3    0    0  0.39013724674E-01 -0.14388092946E-01  0.12313701404E+00  0.88954584601E+00  0.88000000000E+00 0.  1.
        -11    1    4    4    0    0 -0.19246608672E-01  0.16264161621E-01 -0.29303074475E-01  0.38650823966E-01  0.51100000000E-03 0. -1.
         11    1    4    4    0    0 -0.32494209899E-01  0.15836495242E-01 -0.84690026715E-01  0.92083277550E-01  0.51100000000E-03 0.  1.
</event>
<event>
 8    1  0.1108957E+005  0.1043930E+01  0.7957747E-01            NaN
         13   -1    0    0    0    0  0.00000000000E+00  0.00000000000E+00  0.74505805969E-08  0.10566000000E+00  0.10566000000E+00 0.  1.
     999900   -1    0    0    0    0 -0.00000000000E+00 -0.00000000000E+00 -0.74505805969E-08  0.93827000000E+00  0.93827000000E+00 0.  1.
     999902    2    1    2    0    0 -0.22594453094E-01 -0.30718473834E-04 -0.88276831488E-02  0.10196722539E+01  0.10193836703E+01 0.  0.
     999903    2    3    3    0    0 -0.85872945240E-01 -0.61637552844E-02 -0.99026841244E-01  0.13278011290E+00  0.20299962866E-01 0.  0.
         14    1    1    2    0    0  0.22594453094E-01  0.30718473834E-04  0.88276831488E-02  0.24257746062E-01  0.00000000000E+00 0. -1.
     999901    1    3    3    0    0  0.63278492146E-01  0.61330368106E-02  0.90199158095E-01  0.88689214104E+00  0.88000000000E+00 0. -1.
        -11    1    4    4    0    0 -0.40245776043E-01 -0.11989131098E-01 -0.40545970727E-01  0.58375496717E-01  0.51100000000E-03 0. -1.
         11    1    4    4    0    0 -0.45627169197E-01  0.58253758138E-02 -0.58480870517E-01  0.74404616185E-01  0.51100000000E-03 0.  1.
</event>
<event>
 8    1  0.1108957E+005  0.1043930E+01  0.7957747E-01            NaN
         13   -1    0    0    0    0  0.00000000000E+00  0.00000000000E+00  0.74505805969E-08  0.10566000000E+00  0.10566000000E+00 0. -1.
     999900   -1    0    0    0    0 -0.00000000000E+00 -0.00000000000E+00 -0.74505805969E-08  0.93827000000E+00  0.93827000000E+00 0. -1.
     999902    2    1    2    0    0 -0.24256149312E-01  0.14324895662E-01  0.83402171367E-02  0.10145510511E+01  0.10141255902E+01 0.  0.
     999903    2    3    3    0    0  0.61438188594E-01  0.10261685527E+00  0.32428647130E-01  0.12566453298E+00  0.20858755739E-01 0.  0.
         14    1    1    2    0    0  0.24256149312E-01 -0.14324895662E-01 -0.83402171367E-02  0.29378948876E-01  0.00000000000E+00 0. -1.
     999901    1    3    3    0    0 -0.85694337906E-01 -0.88291959608E-01 -0.24088429993E-01  0.88888651815E+00  0.88000000000E+00 0. -1.
        -11    1    4    4    0    0  0.51485864801E-01  0.94804422053E-01  0.24205336685E-01  0.11056596294E+00  0.51100000000E-03 0. -1.
         11    1    4    4    0    0  0.99523237933E-02  0.78124332173E-02  0.82233104450E-02  0.15098570043E-01  0.51100000000E-03 0.  1.
</event>
<event>
 8    1  0.1108957E+005  0.1043930E+01  0.7957747E-01            NaN
         13   -1    0    0    0    0  0.00000000000E+00  0.00000000000E+00  0.74505805969E-08  0.10566000000E+00  0.10566000000E+00 0.  1.
     999900   -1    0    0    0    0 -0.00000000000E+00 -0.00000000000E+00 -0.74505805969E-08  0.93827000000E+00  0.93827000000E+00 0.  1.
     999902    2    1    2    0    0 -0.21414110621E-01 -0.33633731905E-02 -0.10334158395E-01  0.10199160198E+01  0.10196332754E+01 0.  0.
     999903    2    3    3    0    0  0.19254786920E-01 -0.90571539174E-01  0.87710249133E-01  0.12925787595E+00  0.20989525133E-01 0.  0.
         14    1    1    2    0    0  0.21414110621E-01  0.33633731905E-02  0.10334158395E-01  0.24013980150E-01  0.00000000000E+00 0.  1.
     999901    1    3    3    0    0 -0.40668897541E-01  0.87208165983E-01 -0.98044407529E-01  0.89065814390E+00  0.88000000000E+00 0.  1.
        -11    1    4    4    0    0  0.88880111673E-02 -0.23603916476E-01  0.36261000855E-01  0.44173101765E-01  0.51100000000E-03 0.  1.
         11    1    4    4    0    0  0.10366775752E-01 -0.66967622698E-01  0.51449248278E-01  0.85084774188E-01  0.51100000000E-03 0. -1.
</event>
<event>
 8    1  0.1108957E+005  0.1043930E+01  0.7957747E-01            NaN
         13   -1    0    0    0    0  0.00000000000E+00  0.00000000000E+00  0.74505805969E-08  0.10566000000E+00  0.10566000000E+00 0. -1.
     999900   -1    0    0    0    0 -0.00000000000E+00 -0.00000000000E+00 -0.74505805969E-08  0.93827000000E+00  0.93827000000E+00 0. -1.
     999902    2    1    2    0    0  0.11631796766E-01  0.18288910330E-01  0.10418229507E-01  0.10198816644E+01  0.10195981007E+01 0.  0.
     999903    2    3    3    0    0 -0.25118346032E-01 -0.12200265808E+00 -0.16621364794E-01  0.12760175498E+00  0.22144033544E-01 0.  0.
         14    1    1    2    0    0 -0.11631796766E-01 -0.18288910330E-01 -0.10418229507E-01  0.24048335559E-01  0.00000000000E+00 0.  1.
     999901    1    3    3    0    0  0.36750142798E-01  0.14029156841E+00  0.27039594301E-01  0.89227990946E+00  0.88000000000E+00 0.  1.
        -11    1    4    4    0    0 -0.73280153840E-02 -0.51587290155E-01  0.35335556836E-02  0.52227343909E-01  0.51100000000E-03 0.  1.
         11    1    4    4    0    0 -0.17790330648E-01 -0.70415367924E-01 -0.20154920478E-01  0.75374411075E-01  0.51100000000E-03 0. -1.
</event>
<event>
 8    1  0.1108957E+005  0.1043930E+01  0.7957747E-01            NaN
         13   -1    0    0    0    0  0.00000000000E+00  0.00000000000E+00  0.74505805969E-08  0.10566000000E+00  0.10566000000E+00 0. -1.
     999900   -1    0    0    0    0 -0.00000000000E+00 -0.00000000000E+00 -0.74505805969E-08  0.93827000000E+00  0.93827000000E+00 0. -1.
     999902    2    1    2    0    0 -0.19081253958E-01  0.13948234772E-01 -0.85282749081E-03  0.10202788939E+01  0.10200047287E+01 0.  0.
     999903    2    3    3    0    0 -0.20572009461E-01 -0.12407266224E+00  0.21901060240E-01  0.12922910303E+00  0.20081622000E-01 0.  0.
         14    1    1    2    0    0  0.19081253958E-01 -0.13948234772E-01  0.85282749081E-03  0.23651106118E-01  0.00000000000E+00 0. -1.
     999901    1    3    3    0    0  0.14907555033E-02  0.13802089701E+00 -0.22753887731E-01  0.89104979085E+00  0.88000000000E+00 0. -1.
        -11    1    4    4    0    0  0.19571457633E-02 -0.19944094741E-01  0.87807171181E-02  0.21885142190E-01  0.51100000000E-03 0.  1.
         11    1    4    4    0    0 -0.22529155224E-01 -0.10412856750E+00  0.13120343122E-01  0.10734396084E+00  0.51100000000E-03 0. -1.
</event>
<event>
 8    1  0.1108957E+005  0.1043930E+01  0.7957747E-01            NaN
         13   -1    0    0    0    0  0.00000000000E+00  0.00000000000E+00  0.74505805969E-08  0.10566000000E+00  0.10566000000E+00 0. -1.
     999900   -1    0    0    0    0 -0.00000000000E+00 -0.00000000000E+00 -0.74505805969E-08  0.93827000000E+00  0.93827000000E+00 0.  1.
     999902    2    1    2    0    0 -0.89519603885E-02  0.19563869177E-02 -0.18635678996E-01  0.10231633542E+01  0.10229525873E+01 0.  0.
     999903    2    3    3    0    0 -0.11995698340E+00  0.53866025089E-01  0.16620332534E-01  0.13397287295E+00  0.19526103191E-01 0.  0.
         14    1    1    2    0    0  0.89519603885E-02 -0.19563869177E-02  0.18635678996E-01  0.20766645762E-01  0.00000000000E+00 0. -1.
     999901    1    3    3    0    0  0.11100502302E+00 -0.51909638172E-01 -0.35256011530E-01  0.88919048129E+00  0.88000000000E+00 0.  1.
        -11    1    4    4    0    0 -0.86316860782E-01  0.29524848073E-01  0.14678150345E-01  0.92401441155E-01  0.51100000000E-03 0.  1.
         11    1    4    4    0    0 -0.33640122622E-01  0.24341177017E-01  0.19421821889E-02  0.41571431792E-01  0.51100000000E-03 0. -1.
</event>
<event>
 8    1  0.1108957E+005  0.1043930E+01  0.7957747E-01            NaN
         13   -1    0    0    0    0  0.00000000000E+00  0.00000000000E+00  0.74505805969E-08  0.10566000000E+00  0.10566000000E+00 0. -1.
     999900   -1    0    0    0    0 -0.00000000000E+00 -0.00000000000E+00 -0.74505805969E-08  0.93827000000E+00  0.93827000000E+00 0. -1.
     999902    2    1    2    0    0  0.19237867145E-02  0.25406991159E-01 -0.10961273386E-01  0.10161925583E+01  0.10158139347E+01 0.  0.
     999903    2    3    3    0    0  0.49355237236E-01 -0.10592693814E+00  0.31152234433E-01  0.12418813514E+00  0.28209493667E-01 0.  0.
         14    1    1    2    0    0 -0.19237867145E-02 -0.25406991159E-01  0.10961273386E-01  0.27737441650E-01  0.00000000000E+00 0. -1.
     999901    1    3    3    0    0 -0.47431450522E-01  0.13133392930E+00 -0.42113507819E-01  0.89200442321E+00  0.88000000000E+00 0. -1.
        -11    1    4    4    0    0  0.22415720910E-01 -0.24933633167E-01  0.17239117284E-01  0.37704096496E-01  0.51100000000E-03 0.  1.
         11    1    4    4    0    0  0.26939516326E-01 -0.80993304974E-01  0.13913117149E-01  0.86484038645E-01  0.51100000000E-03 0. -1.
</event>
<event>
 8    1  0.1108957E+005  0.1043930E+01  0.7957747E-01            NaN
         13   -1    0    0    0    0  0.00000000000E+00  0.00000000000E+00  0.74505805969E-08  0.10566000000E+00  0.10566000000E+00 0. -1.
     999900   -1    0    0    0    0 -0.00000000000E+00 -0.00000000000E+00 -0.74505805969E-08  0.93827000000E+00  0.93827000000E+00 0.  1.
     999902    2    1    2    0    0 -0.15035655351E-01 -0.61439775296E-02  0.17039570735E-01  0.10203892616E+01  0.10201176790E+01 0.  0.
     999903    2    3    3    0    0 -0.39711311123E-01  0.13683794254E-01 -0.12036968997E+00  0.12916351389E+00  0.20739252666E-01 0.  0.
         14    1    1    2    0    0  0.15035655351E-01  0.61439775296E-02 -0.17039570735E-01  0.23540738361E-01  0.00000000000E+00 0. -1.
     999901    1    3    3    0    0  0.24675655773E-01 -0.19827771783E-01  0.13740926070E+00  0.89122574775E+00  0.88000000000E+00 0. -1.
        -11    1    4    4    0    0 -0.34190174981E-01  0.33899548817E-02 -0.78483050366E-01  0.85675610153E-01  0.51100000000E-03 0.  1.
         11    1    4    4    0    0 -0.55211361428E-02  0.10293839372E-01 -0.41886639603E-01  0.43487903739E-01  0.51100000000E-03 0. -1.
</event>
<event>
 8    1  0.1108957E+005  0.1043930E+01  0.7957747E-01            NaN
         13   -1    0    0    0    0  0.00000000000E+00  0.00000000000E+00  0.74505805969E-08  0.10566000000E+00  0.10566000000E+00 0.  1.
     999900   -1    0    0    0    0 -0.00000000000E+00 -0.00000000000E+00 -0.74505805969E-08  0.93827000000E+00  0.93827000000E+00 0. -1.
     999902    2    1    2    0    0 -0.13604103296E-01  0.14008908209E-01  0.12784313228E-01  0.10205899100E+01  0.10203229903E+01 0.  0.
     999903    2    3    3    0    0  0.19394490747E-01 -0.11862709059E+00 -0.40087084361E-01  0.12847074753E+00  0.21194946227E-01 0.  0.
         14    1    1    2    0    0  0.13604103296E-01 -0.14008908209E-01 -0.12784313228E-01  0.23340089983E-01  0.00000000000E+00 0.  1.
     999901    1    3    3    0    0 -0.32998594043E-01  0.13263599880E+00  0.52871397589E-01  0.89211916248E+00  0.88000000000E+00 0.  1.
        -11    1    4    4    0    0  0.14950808241E-01 -0.10301786351E+00 -0.41728543806E-01  0.11215052099E+00  0.51100000000E-03 0.  1.
         11    1    4    4    0    0  0.44436825060E-02 -0.15609227079E-01  0.16414594450E-02  0.16320226541E-01  0.51100000000E-03 0. -1.
</event>
<event>
 8    1  0.1108957E+005  0.1043930E+01  0.7957747E-01            NaN
         13   -1    0    0    0    0  0.00000000000E+00  0.00000000000E+00  0.74505805969E-08  0.10566000000E+00  0.10566000000E+00 0.  1.
     999900   -1    0    0    0    0 -0.00000000000E+00 -0.00000000000E+00 -0.74505805969E-08  0.93827000000E+00  0.93827000000E+00 0. -1.
     999902    2    1    2    0    0  0.96483442009E-02 -0.17114747138E-01  0.12942644199E-01  0.10204030547E+01  0.10201317939E+01 0.  0.
     999903    2    3    3    0    0  0.76705341946E-01 -0.98682777181E-01  0.36734723771E-01  0.13377119903E+00  0.30385749361E-01 0.  0.
         14    1    1    2    0    0 -0.96483442009E-02  0.17114747138E-01 -0.12942644199E-01  0.23526945281E-01  0.00000000000E+00 0. -1.
     999901    1    3    3    0    0 -0.67056997745E-01  0.81568030043E-01 -0.23792079572E-01  0.88663185569E+00  0.88000000000E+00 0.  1.
        -11    1    4    4    0    0  0.36145236487E-01 -0.24612359888E-01  0.17853575843E-01  0.47236190271E-01  0.51100000000E-03 0. -1.
         11    1    4    4    0    0  0.40560105459E-01 -0.74070417293E-01  0.18881147928E-01  0.86535008759E-01  0.51100000000E-03 0.  1.
</event>
<event>
 7    1  0.1108957E+005  0.1043930E+01  0.7957747E-01            NaN
         13   -1    0    0    0    0  0.00000000000E+00  0.00000000000E+00  0.74505805969E-08  0.10566000000E+00  0.10566000000E+00 0.  1.
     999900   -1    0    0    0    0 -0.00000000000E+00 -0.00000000000E+00 -0.74505805969E-08  0.93827000000E+00  0.93827000000E+00 0.  1.
     999903    2    1    2    0    0  0.72414171376E-01 -0.79694294774E-01 -0.15457927182E-01  0.11065748262E+00  0.20276540902E-01 0.  0.
         14    1    1    2    0    0 -0.26397769540E-02 -0.38074928857E-01 -0.17703504772E-01  0.42072350909E-01  0.00000000000E+00 0.  1.
     999901    1    1    2    0    0 -0.69774394422E-01  0.11776922363E+00  0.33161431954E-01  0.89120016647E+00  0.88000000000E+00 0. -1.
        -11    1    3    3    0    0  0.44320924799E-01 -0.62531988462E-01 -0.10905212113E-01  0.77419498372E-01  0.51100000000E-03 0.  1.
         11    1    3    3    0    0  0.28093246578E-01 -0.17162306313E-01 -0.45527150681E-02  0.33237984246E-01  0.51100000000E-03 0. -1.
</event>
<event>
 8    1  0.1108957E+005  0.1043930E+01  0.7957747E-01            NaN
         13   -1    0    0    0    0  0.00000000000E+00  0.00000000000E+00  0.74505805969E-08  0.10566000000E+00  0.10566000000E+00 0. -1.
     999900   -1    0    0    0    0 -0.00000000000E+00 -0.00000000000E+00 -0.74505805969E-08  0.93827000000E+00  0.93827000000E+00 0. -1.
     999902    2    1    2    0    0  0.23626324707E-01  0.92452735148E-02  0.10442961734E-03  0.10185589691E+01  0.10182429398E+01 0.  0.
     999903    2    3    3    0    0 -0.80418695860E-01  0.22483585883E-01  0.94171032878E-01  0.12735240213E+00  0.19436373586E-01 0.  0.
         14    1    1    2    0    0 -0.23626324707E-01 -0.92452735148E-02 -0.10442961734E-03  0.25371030863E-01  0.00000000000E+00 0. -1.
     999901    1    3    3    0    0  0.10404502057E+00 -0.13238312369E-01 -0.94066603260E-01  0.89120656700E+00  0.88000000000E+00 0. -1.
        -11    1    4    4    0    0 -0.31473237259E-01  0.18763291872E-01  0.40317112956E-01  0.54482625704E-01  0.51100000000E-03 0. -1.
         11    1    4    4    0    0 -0.48945458601E-01  0.37202940116E-02  0.53853919922E-01  0.72869776431E-01  0.51100000000E-03 0.  1.
</event>
<event>
 8    1  0.1108957E+005  0.1043930E+01  0.7957747E-01            NaN
         13   -1    0    0    0    0  0.00000000000E+00  0.00000000000E+00  0.74505805969E-08  0.10566000000E+00  0.10566000000E+00 0. -1.
     999900   -1    0    0    0    0 -0.00000000000E+00 -0.00000000000E+00 -0.74505805969E-08  0.93827000000E+00  0.93827000000E+00 0. -1.
     999902    2    1    2    0    0 -0.23242096490E-01  0.23527024305E-02  0.57991961258E-02  0.10198600824E+01  0.10195760034E+01 0.  0.
     999903    2    3    3    0    0  0.12268791684E-01  0.12731710320E+00  0.16754420308E-01  0.13025503431E+00  0.18041489568E-01 0.  0.
         14    1    1    2    0    0  0.23242096490E-01 -0.23527024305E-02 -0.57991961258E-02  0.24069917608E-01  0.00000000000E+00 0. -1.
     999901    1    3    3    0    0 -0.35510888174E-01 -0.12496440077E+00 -0.10955224182E-01  0.88960504808E+00  0.88000000000E+00 0. -1.
        -11    1    4    4    0    0 -0.13799152264E-02  0.46080239769E-01  0.12499899422E-01  0.47768203543E-01  0.51100000000E-03 0.  1.
         11    1    4    4    0    0  0.13648706911E-01  0.81236863433E-01  0.42545208858E-02  0.82486830765E-01  0.51100000000E-03 0. -1.
</event>
<event>
 8    1  0.1108957E+005  0.1043930E+01  0.7957747E-01            NaN
         13   -1    0    0    0    0  0.00000000000E+00  0.00000000000E+00  0.74505805969E-08  0.10566000000E+00  0.10566000000E+00 0. -1.
     999900   -1    0    0    0    0 -0.00000000000E+00 -0.00000000000E+00 -0.74505805969E-08  0.93827000000E+00  0.93827000000E+00 0. -1.
     999902    2    1    2    0    0  0.33923674053E-02  0.22019880010E-01 -0.92799886554E-02  0.10197949329E+01  0.10195092956E+01 0.  0.
     999903    2    3    3    0    0  0.36140763081E-01  0.12600927531E+00 -0.10939933125E-01  0.13306554516E+00  0.20056543808E-01 0.  0.
         14    1    1    2    0    0 -0.33923674053E-02 -0.22019880010E-01  0.92799886554E-02  0.24135067054E-01  0.00000000000E+00 0.  1.
     999901    1    3    3    0    0 -0.32748395676E-01 -0.10398939530E+00  0.16599444694E-02  0.88672938779E+00  0.88000000000E+00 0.  1.
        -11    1    4    4    0    0  0.16484485871E-01  0.28353901616E-01  0.42295171387E-03  0.32804298810E-01  0.51100000000E-03 0. -1.
         11    1    4    4    0    0  0.19656277210E-01  0.97655373699E-01 -0.11362884839E-01  0.10026124635E+00  0.51100000000E-03 0.  1.
</event>
<event>
 8    1  0.1108957E+005  0.1043930E+01  0.7957747E-01            NaN
         13   -1    0    0    0    0  0.00000000000E+00  0.00000000000E+00  0.74505805969E-08  0.10566000000E+00  0.10566000000E+00 0.  1.
     999900   -1    0    0    0    0 -0.00000000000E+00 -0.00000000000E+00 -0.74505805969E-08  0.93827000000E+00  0.93827000000E+00 0.  1.
     999902    2    1    2    0    0  0.68362470653E-02  0.10989396846E-01 -0.20181354561E-01  0.10199552594E+01  0.10196734491E+01 0.  0.
     999903    2    3    3    0    0 -0.11283882206E+00  0.40994780621E-01  0.43114366305E-01  0.12909680062E+00  0.19848514933E-01 0.  0.
         14    1    1    2    0    0 -0.68362470653E-02 -0.10989396846E-01  0.20181354561E-01  0.23974740643E-01  0.00000000000E+00 0.  1.
     999901    1    3    3    0    0  0.11967506913E+00 -0.30005383775E-01 -0.63295720867E-01  0.89085845874E+00  0.88000000000E+00 0.  1.
        -11    1    4    4    0    0 -0.43855797528E-01  0.14215399791E-01  0.65900085413E-02  0.46573575143E-01  0.51100000000E-03 0. -1.
         11    1    4    4    0    0 -0.68983024536E-01  0.26779380830E-01  0.36524357764E-01  0.82523225475E-01  0.51100000000E-03 0.  1.
</event>
<event>
 8    1  0.1108957E+005  0.1043930E+01  0.7957747E-01            NaN
         13   -1    0    0    0    0  0.00000000000E+00  0.00000000000E+00  0.74505805969E-08  0.10566000000E+00  0.10566000000E+00 0.  1.
     999900   -1    0    0    0    0 -0.00000000000E+00 -0.00000000000E+00 -0.74505805969E-08  0.93827000000E+00  0.93827000000E+00 0. -1.
     999902    2    1    2    0    0 -0.14965175026E-01 -0.10863737200E-01  0.14973014167E-01  0.10201357065E+01  0.10198581721E+01 0.  0.
     999903    2    3    3    0    0  0.50469698374E-01 -0.43188269839E-01  0.11208878306E+00  0.13179001330E+00  0.19806443705E-01 0.  0.
         14    1    1    2    0    0  0.14965175026E-01  0.10863737200E-01 -0.14973014167E-01  0.23794293491E-01  0.00000000000E+00 0.  1.
     999901    1    3    3    0    0 -0.65434873400E-01  0.32324532639E-01 -0.97115768898E-01  0.88834569320E+00  0.88000000000E+00 0. -1.
        -11    1    4    4    0    0  0.21132953311E-01 -0.16335892276E-01  0.64209032538E-01  0.69545122565E-01  0.51100000000E-03 0.  1.
         11    1    4    4    0    0  0.29336745063E-01 -0.26852377564E-01  0.47879750526E-01  0.62244890740E-01  0.51100000000E-03 0. -1.
</event>
<event>
 8    1  0.1108957E+005  0.1043930E+01  0.7957747E-01            NaN
         13   -1    0    0    0    0  0.00000000000E+00  0.00000000000E+00  0.74505805969E-08  0.10566000000E+00  0.10566000000E+00 0. -1.
     999900   -1    0    0    0    0 -0.00000000000E+00 -0.00000000000E+00 -0.74505805969E-08  0.93827000000E+00  0.93827000000E+00 0.  1.
     999902    2    1    2    0    0  0.15578498735E-01 -0.13728931350E-01  0.12502245522E-01  0.10196920273E+01  0.10194039195E+01 0.  0.
     999903    2    3    3    0    0  0.11206638652E-01 -0.25629133084E-01 -0.12429954402E+00  0.12903190265E+00  0.20406225648E-01 0.  0.
         14    1    1    2    0    0 -0.15578498735E-01  0.13728931350E-01 -0.12502245522E-01  0.24237972728E-01  0.00000000000E+00 0.  1.
     999901    1    3    3    0    0  0.43718600834E-02  0.11900201734E-01  0.13680178955E+00  0.89066012462E+00  0.88000000000E+00 0. -1.
        -11    1    4    4    0    0 -0.29140468689E-02  0.20106300018E-02 -0.13547859585E-01  0.14012134830E-01  0.51100000000E-03 0.  1.
         11    1    4    4    0    0  0.14120685521E-01 -0.27639763086E-01 -0.11075168444E+00  0.11501976782E+00  0.51100000000E-03 0. -1.
</event>
<event>
 8    1  0.1108957E+005  0.1043930E+01  0.7957747E-01            NaN
         13   -1    0    0    0    0  0.00000000000E+00  0.00000000000E+00  0.74505805969E-08  0.10566000000E+00  0.10566000000E+00 0.  1.
     999900   -1    0    0    0    0 -0.00000000000E+00 -0.00000000000E+00 -0.74505805969E-08  0.93827000000E+00  0.93827000000E+00 0. -1.
     999902    2    1    2    0    0 -0.35591567141E-02  0.20857489034E-01 -0.12078230662E-01  0.10195663775E+01  0.10192752386E+01 0.  0.
     999903    2    3    3    0    0 -0.11993001583E+00 -0.48105144785E-02  0.45060987101E-01  0.12969789651E+00  0.19613823053E-01 0.  0.
         14    1    1    2    0    0  0.35591567141E-02 -0.20857489034E-01  0.12078230662E-01  0.24363622498E-01  0.00000000000E+00 0. -1.
     999901    1    3    3    0    0  0.11637085911E+00  0.25668003512E-01 -0.57139217763E-01  0.88986848099E+00  0.88000000000E+00 0. -1.
        -11    1    4    4    0    0 -0.65050509879E-01  0.98766325221E-03  0.14660633794E-01  0.66691375893E-01  0.51100000000E-03 0.  1.
         11    1    4    4    0    0 -0.54879505948E-01 -0.57981777307E-02  0.30400353307E-01  0.63006520618E-01  0.51100000000E-03 0. -1.
</event>
<event>
 8    1  0.1108957E+005  0.1043930E+01  0.7957747E-01            NaN
         13   -1    0    0    0    0  0.00000000000E+00  0.00000000000E+00  0.74505805969E-08  0.10566000000E+00  0.10566000000E+00 0.  1.
     999900   -1    0    0    0    0 -0.00000000000E+00 -0.00000000000E+00 -0.74505805969E-08  0.93827000000E+00  0.93827000000E+00 0. -1.
     999902    2    1    2    0    0  0.23206216707E-01 -0.41492554384E-02  0.58053599182E-03  0.10203486125E+01  0.10200760801E+01 0.  0.
     999903    2    3    3    0    0 -0.71828312821E-01  0.93259396404E-01  0.46471069828E-01  0.12870633650E+00  0.23433718931E-01 0.  0.
         14    1    1    2    0    0 -0.23206216707E-01  0.41492554384E-02 -0.58053599182E-03  0.23581387503E-01  0.00000000000E+00 0. -1.
     999901    1    3    3    0    0  0.95034529528E-01 -0.97408651842E-01 -0.45890533836E-01  0.89164227600E+00  0.88000000000E+00 0. -1.
        -11    1    4    4    0    0 -0.41367108907E-01  0.34805560110E-01  0.19221454480E-01  0.57379352969E-01  0.51100000000E-03 0.  1.
         11    1    4    4    0    0 -0.30461203915E-01  0.58453836294E-01  0.27249615348E-01  0.71326983527E-01  0.51100000000E-03 0. -1.
</event>
<event>
 8    1  0.1108957E+005  0.1043930E+01  0.7957747E-01            NaN
         13   -1    0    0    0    0  0.00000000000E+00  0.00000000000E+00  0.74505805969E-08  0.10566000000E+00  0.10566000000E+00 0. -1.
     999900   -1    0    0    0    0 -0.00000000000E+00 -0.00000000000E+00 -0.74505805969E-08  0.93827000000E+00  0.93827000000E+00 0.  1.
     999902    2    1    2    0    0 -0.11999077324E-01 -0.23538616830E-02 -0.20035232029E-01  0.10204581223E+01  0.10201881445E+01 0.  0.
     999903    2    3    3    0    0  0.19353878018E-01 -0.12394653956E+00 -0.33828407174E-01  0.13143729080E+00  0.19851524273E-01 0.  0.
         14    1    1    2    0    0  0.11999077324E-01  0.23538616830E-02  0.20035232029E-01  0.23471877725E-01  0.00000000000E+00 0. -1.
     999901    1    3    3    0    0 -0.31352955342E-01  0.12159267788E+00  0.13793175145E-01  0.88902083148E+00  0.88000000000E+00 0. -1.
        -11    1    4    4    0    0  0.10305393241E-01 -0.58884543106E-01 -0.26320784962E-01  0.65319487052E-01  0.51100000000E-03 0.  1.
         11    1    4    4    0    0  0.90484847769E-02 -0.65061996457E-01 -0.75076222112E-02  0.66117803745E-01  0.51100000000E-03 0. -1.
</event>
<event>
 8    1  0.1108957E+005  0.1043930E+01  0.7957747E-01            NaN
         13   -1    0    0    0    0  0.00000000000E+00  0.00000000000E+00  0.74505805969E-08  0.10566000000E+00  0.10566000000E+00 0. -1.
     999900   -1    0    0    0    0 -0.00000000000E+00 -0.00000000000E+00 -0.74505805969E-08  0.93827000000E+00  0.93827000000E+00 0.  1.
     999902    2    1    2    0    0 -0.42252114018E-02  0.17440413040E-01  0.13183509408E-01  0.10216628642E+01  0.10214201793E+01 0.  0.
     999903    2    3    3    0    0 -0.42478013212E-01  0.99977676704E-01  0.77181995301E-01  0.13466146453E+00  0.19409590034E-01 0.  0.
         14    1    1    2    0    0  0.42252114018E-02 -0.17440413040E-01 -0.13183509408E-01  0.22267135845E-01  0.00000000000E+00 0. -1.
     999901    1    3    3    0    0  0.38252801811E-01 -0.82537263664E-01 -0.63998485893E-01  0.88700139962E+00  0.88000000000E+00 0. -1.
        -11    1    4    4    0    0 -0.34091494314E-01  0.62870390507E-01  0.57833298135E-01  0.91977537917E-01  0.51100000000E-03 0. -1.
         11    1    4    4    0    0 -0.83865188982E-02  0.37107286197E-01  0.19348697165E-01  0.42683926614E-01  0.51100000000E-03 0.  1.
</event>
<event>
 8    1  0.1108957E+005  0.1043930E+01  0.7957747E-01            NaN
         13   -1    0    0    0    0  0.00000000000E+00  0.00000000000E+00  0.74505805969E-08  0.10566000000E+00  0.10566000000E+00 0. -1.
     999900   -1    0    0    0    0 -0.00000000000E+00 -0.00000000000E+00 -0.74505805969E-08  0.93827000000E+00  0.93827000000E+00 0. -1.
     999902    2    1    2    0    0  0.13492908370E-01  0.47944310705E-02 -0.18829407994E-01  0.10202743083E+01  0.10200000355E+01 0.  0.
     999903    2    3    3    0    0 -0.93355944467E-01  0.66527591577E-01  0.54820166580E-01  0.12861746829E+00  0.19898484287E-01 0.  0.
         14    1    1    2    0    0 -0.13492908370E-01 -0.47944310705E-02  0.18829407994E-01  0.23655691725E-01  0.00000000000E+00 0. -1.
     999901    1    3    3    0    0  0.10684885284E+00 -0.61733160506E-01 -0.73649574574E-01  0.89165683999E+00  0.88000000000E+00 0. -1.
        -11    1    4    4    0    0 -0.87890918998E-01  0.55853398980E-01  0.46724066012E-01  0.11413945543E+00  0.51100000000E-03 0.  1.
         11    1    4    4    0    0 -0.54650254691E-02  0.10674192597E-01  0.80961005676E-02  0.14478012860E-01  0.51100000000E-03 0. -1.
</event>
<event>
 8    1  0.1108957E+005  0.1043930E+01  0.7957747E-01            NaN
         13   -1    0    0    0    0  0.00000000000E+00  0.00000000000E+00  0.74505805969E-08  0.10566000000E+00  0.10566000000E+00 0.  1.
     999900   -1    0    0    0    0 -0.00000000000E+00 -0.00000000000E+00 -0.74505805969E-08  0.93827000000E+00  0.93827000000E+00 0. -1.
     999902    2    1    2    0    0  0.11269465229E-01 -0.93751281237E-02 -0.24240376332E-01  0.10156017505E+01  0.10152065927E+01 0.  0.
     999903    2    3    3    0    0  0.52273441283E-01  0.97430836490E-01  0.54195861909E-01  0.12473639392E+00  0.19917227626E-01 0.  0.
         14    1    1    2    0    0 -0.11269465229E-01  0.93751281237E-02  0.24240376332E-01  0.28328249480E-01  0.00000000000E+00 0.  1.
     999901    1    3    3    0    0 -0.41003976053E-01 -0.10680596461E+00 -0.78436238241E-01  0.89086535660E+00  0.88000000000E+00 0.  1.
        -11    1    4    4    0    0  0.41085305011E-01  0.60155444737E-01  0.29219733801E-01  0.78490341978E-01  0.51100000000E-03 0. -1.
         11    1    4    4    0    0  0.11188136271E-01  0.37275391752E-01  0.24976128108E-01  0.46246051937E-01  0.51100000000E-03 0.  1.
</event>
<event>
 8    1  0.1108957E+005  0.1043930E+01  0.7957747E-01            NaN
         13   -1    0    0    0    0  0.00000000000E+00  0.00000000000E+00  0.74505805969E-08  0.10566000000E+00  0.10566000000E+00 0. -1.
     999900   -1    0    0    0    0 -0.00000000000E+00 -0.00000000000E+00 -0.74505805969E-08  0.93827000000E+00  0.93827000000E+00 0. -1.
     999902    2    1    2    0    0 -0.79354051778E-02 -0.14449726924E-01 -0.13433776728E-01  0.10226642618E+01  0.10224431333E+01 0.  0.
     999903    2    3    3    0    0 -0.11814518482E+00  0.52530240125E-01 -0.24190927796E-01  0.13319912601E+00  0.20954602327E-01 0.  0.
         14    1    1    2    0    0  0.79354051778E-02  0.14449726924E-01  0.13433776728E-01  0.21265738188E-01  0.00000000000E+00 0. -1.
     999901    1    3    3    0    0  0.11020977964E+00 -0.66979967048E-01  0.10757151067E-01  0.88946513581E+00  0.88000000000E+00 0.  1.
        -11    1    4    4    0    0 -0.54540432824E-01  0.14829471499E-01 -0.46130830519E-02  0.56710789924E-01  0.51100000000E-03 0.  1.
         11    1    4    4    0    0 -0.63604751991E-01  0.37700768626E-01 -0.19577844744E-01  0.76488336083E-01  0.51100000000E-03 0. -1.
</event>
<event>
 8    1  0.1108957E+005  0.1043930E+01  0.7957747E-01            NaN
         13   -1    0    0    0    0  0.00000000000E+00  0.00000000000E+00  0.74505805969E-08  0.10566000000E+00  0.10566000000E+00 0. -1.
     999900   -1    0    0    0    0 -0.00000000000E+00 -0.00000000000E+00 -0.74505805969E-08  0.93827000000E+00  0.93827000000E+00 0.  1.
     999902    2    1    2    0    0  0.23301539144E-01 -0.91688898034E-03 -0.38810363116E-02  0.10202896774E+01  0.10200157650E+01 0.  0.
     999903    2    3    3    0    0  0.74801888831E-01 -0.10066103627E+00  0.37390554690E-01  0.13219929617E+00  0.18725211133E-01 0.  0.
         14    1    1    2    0    0 -0.23301539144E-01  0.91688898034E-03  0.38810363116E-02  0.23640322645E-01  0.00000000000E+00 0. -1.
     999901    1    3    3    0    0 -0.51500349687E-01  0.99744147287E-01 -0.41271591002E-01  0.88809038119E+00  0.88000000000E+00 0.  1.
        -11    1    4    4    0    0  0.42915059923E-01 -0.65090971465E-01  0.31400158751E-01  0.84052174422E-01  0.51100000000E-03 0.  1.
         11    1    4    4    0    0  0.31886828908E-01 -0.35570064802E-01  0.59903959389E-02  0.48147121745E-01  0.51100000000E-03 0. -1.
</event>
<event>
 8    1  0.1108957E+005  0.1043930E+01  0.7957747E-01            NaN
         13   -1    0    0    0    0  0.00000000000E+00  0.00000000000E+00  0.74505805969E-08  0.10566000000E+00  0.10566000000E+00 0.  1.
     999900   -1    0    0    0    0 -0.00000000000E+00 -0.00000000000E+00 -0.74505805969E-08  0.93827000000E+00  0.93827000000E+00 0.  1.
     999902    2    1    2    0    0  0.10845401288E-01  0.17026303588E-01  0.12222782077E-01  0.10203309715E+01  0.10200580264E+01 0.  0.
     999903    2    3    3    0    0 -0.45013410055E-01  0.11688917333E+00 -0.35200531696E-01  0.13165680726E+00  0.20128376453E-01 0.  0.
         14    1    1    2    0    0 -0.10845401288E-01 -0.17026303588E-01 -0.12222782077E-01  0.23599028469E-01  0.00000000000E+00 0.  1.
     999901    1    3    3    0    0  0.55858811343E-01 -0.99862869743E-01  0.47423313773E-01  0.88867416427E+00  0.88000000000E+00 0. -1.
        -11    1    4    4    0    0 -0.10528757268E-01  0.54671280668E-01 -0.17259295928E-01  0.58291921194E-01  0.51100000000E-03 0. -1.
         11    1    4    4    0    0 -0.34484652786E-01  0.62217892663E-01 -0.17941235768E-01  0.73364886064E-01  0.51100000000E-03 0.  1.
</event>
<event>
 8    1  0.1108957E+005  0.1043930E+01  0.7957747E-01            NaN
         13   -1    0    0    0    0  0.00000000000E+00  0.00000000000E+00  0.74505805969E-08  0.10566000000E+00  0.10566000000E+00 0. -1.
     999900   -1    0    0    0    0 -0.00000000000E+00 -0.00000000000E+00 -0.74505805969E-08  0.93827000000E+00  0.93827000000E+00 0. -1.
     999902    2    1    2    0    0 -0.86270268876E-02  0.23959076529E-01  0.24754798971E-02  0.10183450251E+01  0.10180235750E+01 0.  0.
     999903    2    3    3    0    0 -0.18735854218E-01 -0.12295668551E+00  0.22998923170E-02  0.12610825137E+00  0.20703207804E-01 0.  0.
         14    1    1    2    0    0  0.86270268876E-02 -0.23959076529E-01 -0.24754798971E-02  0.25584974922E-01  0.00000000000E+00 0. -1.
     999901    1    3    3    0    0  0.10108827331E-01  0.14691576204E+00  0.17558758009E-03  0.89223677371E+00  0.88000000000E+00 0. -1.
        -11    1    4    4    0    0 -0.47919337099E-02 -0.23833199709E-01  0.86449893071E-02  0.25806607645E-01  0.51100000000E-03 0.  1.
         11    1    4    4    0    0 -0.13943920509E-01 -0.99123485804E-01 -0.63450969902E-02  0.10030164372E+00  0.51100000000E-03 0. -1.
</event>
<event>
 8    1  0.1108957E+005  0.1043930E+01  0.7957747E-01            NaN
         13   -1    0    0    0    0  0.00000000000E+00  0.00000000000E+00  0.74505805969E-08  0.10566000000E+00  0.10566000000E+00 0.  1.
     999900   -1    0    0    0    0 -0.00000000000E+00 -0.00000000000E+00 -0.74505805969E-08  0.93827000000E+00  0.93827000000E+00 0. -1.
     999902    2    1    2    0    0  0.15419944764E-01  0.17093708496E-01  0.16940800859E-02  0.10208466841E+01  0.10205856715E+01 0.  0.
     999903    2    3    3    0    0  0.12476570747E+00 -0.33958597883E-01  0.20167749282E-01  0.13241879715E+00  0.20207216488E-01 0.  0.
         14    1    1    2    0    0 -0.15419944764E-01 -0.17093708496E-01 -0.16940800859E-02  0.23083315923E-01  0.00000000000E+00 0. -1.
     999901    1    3    3    0    0 -0.10934576271E+00  0.51052306379E-01 -0.18473669196E-01  0.88842788692E+00  0.88000000000E+00 0.  1.
        -11    1    4    4    0    0  0.87556501875E-01 -0.22019164108E-01  0.47587036702E-02  0.90409573554E-01  0.51100000000E-03 0.  1.
         11    1    4    4    0    0  0.37209205595E-01 -0.11939433775E-01  0.15409045612E-01  0.42009223601E-01  0.51100000000E-03 0. -1.
</event>
<event>
 8    1  0.1108957E+005  0.1043930E+01  0.7957747E-01            NaN
         13   -1    0    0    0    0  0.00000000000E+00  0.00000000000E+00  0.74505805969E-08  0.10566000000E+00  0.10566000000E+00 0.  1.
     999900   -1    0    0    0    0 -0.00000000000E+00 -0.00000000000E+00 -0.74505805969E-08  0.93827000000E+00  0.93827000000E+00 0. -1.
     999902    2    1    2    0    0 -0.21300631057E-01 -0.11488404286E-01  0.13085545930E-01  0.10164176059E+01  0.10160451849E+01 0.  0.
     999903    2    3    3    0    0 -0.93190254341E-01  0.30607552075E-02  0.88660678632E-01  0.13013808078E+00  0.19529782560E-01 0.  0.
         14    1    1    2    0    0  0.21300631057E-01  0.11488404286E-01 -0.13085545930E-01  0.27512394094E-01  0.00000000000E+00 0.  1.
     999901    1    3    3    0    0  0.71889623283E-01 -0.14549159493E-01 -0.75575132702E-01  0.88627952513E+00  0.88000000000E+00 0. -1.
        -11    1    4    4    0    0 -0.84899974211E-01  0.66786704276E-02  0.73589698907E-01  0.11255361019E+00  0.51100000000E-03 0.  1.
         11    1    4    4    0    0 -0.82902801299E-02 -0.36179152201E-02  0.15070979724E-01  0.17584470592E-01  0.51100000000E-03 0. -1.
</event>
<event>
 8    1  0.1108957E+005  0.1043930E+01  0.7957747E-01            NaN
         13   -1    0    0    0    0  0.00000000000E+00  0.00000000000E+00  0.74505805969E-08  0.10566000000E+00  0.10566000000E+00 0. -1.
     999900   -1    0    0    0    0 -0.00000000000E+00 -0.00000000000E+00 -0.74505805969E-08  0.93827000000E+00  0.93827000000E+00 0. -1.
     999902    2    1    2    0    0 -0.18897387415E-01  0.14483879005E-01 -0.23972672732E-02  0.10200000837E+01  0.10197193388E+01 0.  0.
     999903    2    3    3    0    0 -0.77945913464E-01  0.10617631815E+00  0.37365426400E-02  0.13324653542E+00  0.19791449871E-01 0.  0.
         14    1    1    2    0    0  0.18897387415E-01 -0.14483879005E-01  0.23972672732E-02  0.23929916267E-01  0.00000000000E+00 0. -1.
     999901    1    3    3    0    0  0.59048526049E-01 -0.91692439147E-01 -0.61338099132E-02  0.88675354832E+00  0.88000000000E+00 0. -1.
        -11    1    4    4    0    0 -0.29573411508E-01  0.56250686423E-01 -0.10781699413E-02  0.63562173993E-01  0.51100000000E-03 0.  1.
         11    1    4    4    0    0 -0.48372501956E-01  0.49925631730E-01  0.48147125813E-02  0.69684361426E-01  0.51100000000E-03 0. -1.
</event>
<event>
 8    1  0.1108957E+005  0.1043930E+01  0.7957747E-01            NaN
         13   -1    0    0    0    0  0.00000000000E+00  0.00000000000E+00  0.74505805969E-08  0.10566000000E+00  0.10566000000E+00 0.  1.
     999900   -1    0    0    0    0 -0.00000000000E+00 -0.00000000000E+00 -0.74505805969E-08  0.93827000000E+00  0.93827000000E+00 0.  1.
     999902    2    1    2    0    0  0.63021867066E-02  0.14754088390E-01  0.77761217084E-02  0.10261011259E+01  0.10259462227E+01 0.  0.
     999903    2    3    3    0    0  0.17602302466E-01 -0.74901927379E-01 -0.10778614778E+00  0.13395734161E+00  0.20163728393E-01 0.  0.
         14    1    1    2    0    0 -0.63021867066E-02 -0.14754088390E-01 -0.77761217084E-02  0.17828874062E-01  0.00000000000E+00 0. -1.
     999901    1    3    3    0    0 -0.11300115760E-01  0.89656015769E-01  0.11556226948E+00  0.89214378432E+00  0.88000000000E+00 0. -1.
        -11    1    4    4    0    0  0.21865679911E-02 -0.20516243416E-01 -0.44785456994E-01  0.49312225691E-01  0.51100000000E-03 0. -1.
         11    1    4    4    0    0  0.15415734475E-01 -0.54385683963E-01 -0.63000690782E-01  0.84645115922E-01  0.51100000000E-03 0.  1.
</event>
<event>
 8    1  0.1108957E+005  0.1043930E+01  0.7957747E-01            NaN
         13   -1    0    0    0    0  0.00000000000E+00  0.00000000000E+00  0.74505805969E-08  0.10566000000E+00  0.10566000000E+00 0. -1.
     999900   -1    0    0    0    0 -0.00000000000E+00 -0.00000000000E+00 -0.74505805969E-08  0.93827000000E+00  0.93827000000E+00 0.  1.
     999902    2    1    2    0    0 -0.12585856072E-01  0.14472076044E-01 -0.12399089260E-01  0.10210918264E+01  0.10208363903E+01 0.  0.
     999903    2    3    3    0    0 -0.95354855580E-01  0.88577679093E-01 -0.24794630445E-01  0.13402024130E+00  0.20201427250E-01 0.  0.
         14    1    1    2    0    0  0.12585856072E-01 -0.14472076044E-01  0.12399089260E-01  0.22838173582E-01  0.00000000000E+00 0.  1.
     999901    1    3    3    0    0  0.82768999508E-01 -0.74105603049E-01  0.12395541185E-01  0.88707158512E+00  0.88000000000E+00 0.  1.
        -11    1    4    4    0    0 -0.81939008154E-01  0.83869251862E-01 -0.24523951770E-01  0.11979039109E+00  0.51100000000E-03 0. -1.
         11    1    4    4    0    0 -0.13415847426E-01  0.47084272308E-02 -0.27067867456E-03  0.14229850214E-01  0.51100000000E-03 0.  1.
</event>
<event>
 8    1  0.1108957E+005  0.1043930E+01  0.7957747E-01            NaN
         13   -1    0    0    0    0  0.00000000000E+00  0.00000000000E+00  0.74505805969E-08  0.10566000000E+00  0.10566000000E+00 0. -1.
     999900   -1    0    0    0    0 -0.00000000000E+00 -0.00000000000E+00 -0.74505805969E-08  0.93827000000E+00  0.93827000000E+00 0.  1.
     999902    2    1    2    0    0 -0.26915256779E-02 -0.24056042422E-01 -0.75527394903E-03  0.10197120743E+01  0.10194244486E+01 0.  0.
     999903    2    3    3    0    0 -0.77290679374E-01  0.84182319780E-01  0.54855528817E-01  0.12821157615E+00  0.19198102373E-01 0.  0.
         14    1    1    2    0    0  0.26915256779E-02  0.24056042422E-01  0.75527394903E-03  0.24217925721E-01  0.00000000000E+00 0. -1.
     999901    1    3    3    0    0  0.74599153697E-01 -0.10823836220E+00 -0.55610802766E-01  0.89150049813E+00  0.88000000000E+00 0.  1.
        -11    1    4    4    0    0 -0.83494410423E-02  0.14254471655E-01  0.18796144243E-02  0.16634217723E-01  0.51100000000E-03 0. -1.
         11    1    4    4    0    0 -0.68941238332E-01  0.69927848125E-01  0.52975914393E-01  0.11157735842E+00  0.51100000000E-03 0.  1.
</event>
<event>
 8    1  0.1108957E+005  0.1043930E+01  0.7957747E-01            NaN
         13   -1    0    0    0    0  0.00000000000E+00  0.00000000000E+00  0.74505805969E-08  0.10566000000E+00  0.10566000000E+00 0.  1.
     999900   -1    0    0    0    0 -0.00000000000E+00 -0.00000000000E+00 -0.74505805969E-08  0.93827000000E+00  0.93827000000E+00 0. -1.
     999902    2    1    2    0    0  0.20796346865E-01 -0.10949660420E-01 -0.28614656876E-02  0.10202536174E+01  0.10199788590E+01 0.  0.
     999903    2    3    3    0    0 -0.90860500473E-01 -0.83426660956E-01 -0.35735606615E-01  0.12963536233E+00  0.17682060988E-01 0.  0.
         14    1    1    2    0    0 -0.20796346865E-01  0.10949660420E-01  0.28614656876E-02  0.23676382581E-01  0.00000000000E+00 0. -1.
     999901    1    3    3    0    0  0.11165684734E+00  0.72477000536E-01  0.32874140927E-01  0.89061825509E+00  0.88000000000E+00 0.  1.
        -11    1    4    4    0    0 -0.54787138212E-01 -0.44581655293E-01 -0.28335990650E-01  0.76107450287E-01  0.51100000000E-03 0. -1.
         11    1    4    4    0    0 -0.36073362261E-01 -0.38845005663E-01 -0.73996159647E-02  0.53527912039E-01  0.51100000000E-03 0.  1.
</event>
<event>
 8    1  0.1108957E+005  0.1043930E+01  0.7957747E-01            NaN
         13   -1    0    0    0    0  0.00000000000E+00  0.00000000000E+00  0.74505805969E-08  0.10566000000E+00  0.10566000000E+00 0. -1.
     999900   -1    0    0    0    0 -0.00000000000E+00 -0.00000000000E+00 -0.74505805969E-08  0.93827000000E+00  0.93827000000E+00 0.  1.
     999902    2    1    2    0    0  0.22130850241E-01 -0.56282228378E-02  0.62797306555E-04  0.10210946027E+01  0.10208392294E+01 0.  0.
     999903    2    3    3    0    0 -0.97442172964E-02 -0.12474792635E+00  0.35549214030E-01  0.13178880074E+00  0.21155294456E-01 0.  0.
         14    1    1    2    0    0 -0.22130850241E-01  0.56282228378E-02 -0.62797306555E-04  0.22835397264E-01  0.00000000000E+00 0. -1.
     999901    1    3    3    0    0  0.31875067537E-01  0.11911970351E+00 -0.35486416723E-01  0.88930580200E+00  0.88000000000E+00 0.  1.
        -11    1    4    4    0    0 -0.60223905978E-02 -0.51608426397E-01  0.25452754617E-01  0.57860199639E-01  0.51100000000E-03 0. -1.
         11    1    4    4    0    0 -0.37218266986E-02 -0.73139499950E-01  0.10096459412E-01  0.73928601100E-01  0.51100000000E-03 0.  1.
</event>
<event>
 8    1  0.1108957E+005  0.1043930E+01  0.7957747E-01            NaN
         13   -1    0    0    0    0  0.00000000000E+00  0.00000000000E+00  0.74505805969E-08  0.10566000000E+00  0.10566000000E+00 0.  1.
     999900   -1    0    0    0    0 -0.00000000000E+00 -0.00000000000E+00 -0.74505805969E-08  0.93827000000E+00  0.93827000000E+00 0.  1.
     999902    2    1    2    0    0  0.20726682419E-01 -0.16236644553E-02  0.10871184298E-01  0.10204690900E+01  0.10201993674E+01 0.  0.
     999903    2    3    3    0    0 -0.35938336003E-01 -0.94080894565E-01 -0.78257956763E-01  0.12934436949E+00  0.21514632326E-01 0.  0.
         14    1    1    2    0    0 -0.20726682419E-01  0.16236644553E-02 -0.10871184298E-01  0.23460910007E-01  0.00000000000E+00 0. -1.
     999901    1    3    3    0    0  0.56665018421E-01  0.92457230109E-01  0.89129141061E-01  0.89112472051E+00  0.88000000000E+00 0.  1.
        -11    1    4    4    0    0 -0.13389341342E-01 -0.12676340133E-01 -0.12266243428E-01  0.22151431321E-01  0.51100000000E-03 0. -1.
         11    1    4    4    0    0 -0.22548994661E-01 -0.81404554432E-01 -0.65991713336E-01  0.10719293817E+00  0.51100000000E-03 0.  1.
</event>
<event>
 8    1  0.1108957E+005  0.1043930E+01  0.7957747E-01            NaN
         13   -1    0    0    0    0  0.00000000000E+00  0.00000000000E+00  0.74505805969E-08  0.10566000000E+00  0.10566000000E+00 0. -1.
     999900   -1    0    0    0    0 -0.00000000000E+00 -0.00000000000E+00 -0.74505805969E-08  0.93827000000E+00  0.93827000000E+00 0.  1.
     999902    2    1    2    0    0  0.23770296087E-01 -0.14456470011E-02  0.58866529534E-02  0.10193990083E+01  0.10191038066E+01 0.  0.
     999903    2    3    3    0    0  0.91262810398E-01 -0.76093492262E-01  0.54570006483E-01  0.13232651452E+00  0.20329798600E-01 0.  0.
         14    1    1    2    0    0 -0.23770296087E-01  0.14456470011E-02 -0.58866529534E-02  0.24530991711E-01  0.00000000000E+00 0. -1.
     999901    1    3    3    0    0 -0.67492514311E-01  0.74647845261E-01 -0.48683353530E-01  0.88707249377E+00  0.88000000000E+00 0.  1.
        -11    1    4    4    0    0  0.26738820685E-01 -0.13319772649E-01  0.19693244212E-01  0.35783597690E-01  0.51100000000E-03 0. -1.
         11    1    4    4    0    0  0.64523989713E-01 -0.62773719614E-01  0.34876762272E-01  0.96542916831E-01  0.51100000000E-03 0.  1.
</event>
<event>
 8    1  0.1108957E+005  0.1043930E+01  0.7957747E-01            NaN
         13   -1    0    0    0    0  0.00000000000E+00  0.00000000000E+00  0.74505805969E-08  0.10566000000E+00  0.10566000000E+00 0. -1.
     999900   -1    0    0    0    0 -0.00000000000E+00 -0.00000000000E+00 -0.74505805969E-08  0.93827000000E+00  0.93827000000E+00 0. -1.
     999902    2    1    2    0    0 -0.69289283658E-02 -0.16093612133E-01 -0.15571341399E-01  0.10204889874E+01  0.10202197275E+01 0.  0.
     999903    2    3    3    0    0 -0.30685415627E-01  0.44196923703E-01 -0.11900850136E+00  0.13206422103E+00  0.19569677628E-01 0.  0.
         14    1    1    2    0    0  0.69289283658E-02  0.16093612133E-01  0.15571341399E-01  0.23441012622E-01  0.00000000000E+00 0. -1.
     999901    1    3    3    0    0  0.23756487261E-01 -0.60290535836E-01  0.10343715996E+00  0.88842476635E+00  0.88000000000E+00 0.  1.
        -11    1    4    4    0    0 -0.42697091948E-02  0.20715155576E-01 -0.34634771897E-01  0.40585423892E-01  0.51100000000E-03 0.  1.
         11    1    4    4    0    0 -0.26415706432E-01  0.23481768127E-01 -0.84373729467E-01  0.91478797138E-01  0.51100000000E-03 0. -1.
</event>
<event>
 8    1  0.1108957E+005  0.1043930E+01  0.7957747E-01            NaN
         13   -1    0    0    0    0  0.00000000000E+00  0.00000000000E+00  0.74505805969E-08  0.10566000000E+00  0.10566000000E+00 0.  1.
     999900   -1    0    0    0    0 -0.00000000000E+00 -0.00000000000E+00 -0.74505805969E-08  0.93827000000E+00  0.93827000000E+00 0.  1.
     999902    2    1    2    0    0 -0.65582574061E-02 -0.15697173157E-01  0.17441769780E-01  0.10195655316E+01  0.10192743723E+01 0.  0.
     999903    2    3    3    0    0  0.19685232186E-01 -0.10228005647E+00  0.79797325929E-01  0.13273210207E+00  0.20036950254E-01 0.  0.
         14    1    1    2    0    0  0.65582574061E-02  0.15697173157E-01 -0.17441769780E-01  0.24364468358E-01  0.00000000000E+00 0. -1.
     999901    1    3    3    0    0 -0.26243489592E-01  0.86582883315E-01 -0.62355556149E-01  0.88683342957E+00  0.88000000000E+00 0.  1.
        -11    1    4    4    0    0  0.14943145215E-01 -0.30432095211E-01  0.28924801460E-01  0.44568096979E-01  0.51100000000E-03 0. -1.
         11    1    4    4    0    0  0.47420869710E-02 -0.71847961262E-01  0.50872524469E-01  0.88164005088E-01  0.51100000000E-03 0.  1.
</event>
<event>
 8    1  0.1108957E+005  0.1043930E+01  0.7957747E-01            NaN
         13   -1    0    0    0    0  0.00000000000E+00  0.00000000000E+00  0.74505805969E-08  0.10566000000E+00  0.10566000000E+00 0. -1.
     999900   -1    0    0    0    0 -0.00000000000E+00 -0.00000000000E+00 -0.74505805969E-08  0.93827000000E+00  0.93827000000E+00 0. -1.
     999902    2    1    2    0    0 -0.14910694010E-01  0.15646698721E-01  0.56529185784E-02  0.10215893763E+01  0.10213450692E+01 0.  0.
     999903    2    3    3    0    0 -0.48631960837E-01  0.10054923009E+00  0.72121730045E-01  0.13436693154E+00  0.19434841403E-01 0.  0.
         14    1    1    2    0    0  0.14910694010E-01 -0.15646698721E-01 -0.56529185784E-02  0.22340623652E-01  0.00000000000E+00 0.  1.
     999901    1    3    3    0    0  0.33721266827E-01 -0.84902531371E-01 -0.66468811466E-01  0.88722244481E+00  0.88000000000E+00 0. -1.
        -11    1    4    4    0    0 -0.30497377111E-01  0.44321022190E-01  0.40595044458E-01  0.67399271318E-01  0.51100000000E-03 0.  1.
         11    1    4    4    0    0 -0.18134583726E-01  0.56228207902E-01  0.31526685587E-01  0.66967660224E-01  0.51100000000E-03 0. -1.
</event>
<event>
 8    1  0.1108957E+005  0.1043930E+01  0.7957747E-01            NaN
         13   -1    0    0    0    0  0.00000000000E+00  0.00000000000E+00  0.74505805969E-08  0.10566000000E+00  0.10566000000E+00 0. -1.
     999900   -1    0    0    0    0 -0.00000000000E+00 -0.00000000000E+00 -0.74505805969E-08  0.93827000000E+00  0.93827000000E+00 0.  1.
     999902    2    1    2    0    0  0.26458462549E-02  0.36522026266E-02  0.22686362244E-01  0.10207997143E+01  0.10205376262E+01 0.  0.
     999903    2    3    3    0    0  0.75816542621E-01  0.63187423939E-01 -0.81572950208E-01  0.12963845073E+00  0.20277648375E-01 0.  0.
         14    1    1    2    0    0 -0.26458462549E-02 -0.36522026266E-02 -0.22686362244E-01  0.23130285737E-01  0.00000000000E+00 0.  1.
     999901    1    3    3    0    0 -0.73170696366E-01 -0.59535221313E-01  0.10425931245E+00  0.89116126353E+00  0.88000000000E+00 0. -1.
        -11    1    4    4    0    0  0.11301214496E-01  0.17701959657E-01 -0.10814477751E-01  0.23628179676E-01  0.51100000000E-03 0. -1.
         11    1    4    4    0    0  0.64515328125E-01  0.45485464283E-01 -0.70758472457E-01  0.10601027106E+00  0.51100000000E-03 0.  1.
</event>
<event>
 8    1  0.1108957E+005  0.1043930E+01  0.7957747E-01            NaN
         13   -1    0    0    0    0  0.00000000000E+00  0.00000000000E+00  0.74505805969E-08  0.10566000000E+00  0.10566000000E+00 0.  1.
     999900   -1    0    0    0    0 -0.00000000000E+00 -0.00000000000E+00 -0.74505805969E-08  0.93827000000E+00  0.93827000000E+00 0. -1.
     999902    2    1    2    0    0  0.71418043250E-02 -0.19174682762E-02 -0.20641486782E-01  0.10220039190E+01  0.10217686907E+01 0.  0.
     999903    2    3    3    0    0 -0.85277295934E-01 -0.78390077156E-02 -0.10062329762E+00  0.13353701198E+00  0.19324034268E-01 0.  0.
         14    1    1    2    0    0 -0.71418043250E-02  0.19174682762E-02  0.20641486782E-01  0.21926081049E-01  0.00000000000E+00 0.  1.
     999901    1    3    3    0    0  0.92419100259E-01  0.59215394394E-02  0.79981810838E-01  0.88846690697E+00  0.88000000000E+00 0.  1.
        -11    1    4    4    0    0 -0.44444206342E-01 -0.11373349866E-01 -0.62720339327E-01  0.77709347255E-01  0.51100000000E-03 0.  1.
         11    1    4    4    0    0 -0.40833089592E-01  0.35343421504E-02 -0.37902958293E-01  0.55827664723E-01  0.51100000000E-03 0. -1.
</event>
<event>
 8    1  0.1108957E+005  0.1043930E+01  0.7957747E-01            NaN
         13   -1    0    0    0    0  0.00000000000E+00  0.00000000000E+00  0.74505805969E-08  0.10566000000E+00  0.10566000000E+00 0.  1.
     999900   -1    0    0    0    0 -0.00000000000E+00 -0.00000000000E+00 -0.74505805969E-08  0.93827000000E+00  0.93827000000E+00 0.  1.
     999902    2    1    2    0    0 -0.13764434961E-01  0.10099605472E-01  0.15949070390E-01  0.10205668977E+01  0.10202994454E+01 0.  0.
     999903    2    3    3    0    0  0.94876344876E-02  0.10088038053E+00  0.83610171799E-01  0.13300854333E+00  0.20826554848E-01 0.  0.
         14    1    1    2    0    0  0.13764434961E-01 -0.10099605472E-01 -0.15949070390E-01  0.23363102251E-01  0.00000000000E+00 0. -1.
     999901    1    3    3    0    0 -0.23252069449E-01 -0.90780775058E-01 -0.67661101409E-01  0.88755835442E+00  0.88000000000E+00 0.  1.
        -11    1    4    4    0    0 -0.26400076872E-03  0.83003101919E-01  0.65178412470E-01  0.10553706078E+00  0.51100000000E-03 0.  1.
         11    1    4    4    0    0  0.97516352563E-02  0.17877278610E-01  0.18431759329E-01  0.27471482553E-01  0.51100000000E-03 0. -1.
</event>
<event>
 8    1  0.1108957E+005  0.1043930E+01  0.7957747E-01            NaN
         13   -1    0    0    0    0  0.00000000000E+00  0.00000000000E+00  0.74505805969E-08  0.10566000000E+00  0.10566000000E+00 0.  1.
     999900   -1    0    0    0    0 -0.00000000000E+00 -0.00000000000E+00 -0.74505805969E-08  0.93827000000E+00  0.93827000000E+00 0.  1.
     999902    2    1    2    0    0  0.74558561264E-02  0.60068511507E-02  0.22721588944E-01  0.10192735068E+01  0.10189752397E+01 0.  0.
     999903    2    3    3    0    0  0.38903206539E-02 -0.11942528427E+00  0.47508440835E-01  0.13002645361E+00  0.19294910463E-01 0.  0.
         14    1    1    2    0    0 -0.74558561264E-02 -0.60068511507E-02 -0.22721588944E-01  0.24656493171E-01  0.00000000000E+00 0. -1.
     999901    1    3    3    0    0  0.35655354725E-02  0.12543213542E+00 -0.24786851891E-01  0.88924705322E+00  0.88000000000E+00 0. -1.
        -11    1    4    4    0    0  0.28971877959E-02 -0.18662504276E-01  0.15063516014E-01  0.24163058554E-01  0.51100000000E-03 0. -1.
         11    1    4    4    0    0  0.99313285802E-03 -0.10076277999E+00  0.32444924822E-01  0.10586339505E+00  0.51100000000E-03 0.  1.
</event>
<event>
 8    1  0.1108957E+005  0.1043930E+01  0.7957747E-01            NaN
         13   -1    0    0    0    0  0.00000000000E+00  0.00000000000E+00  0.74505805969E-08  0.10566000000E+00  0.10566000000E+00 0.  1.
     999900   -1    0    0    0    0 -0.00000000000E+00 -0.00000000000E+00 -0.74505805969E-08  0.93827000000E+00  0.93827000000E+00 0. -1.
     999902    2    1    2    0    0  0.29921820389E-02 -0.13948012055E-01 -0.30268518892E-02  0.10293470639E+01  0.10292437592E+01 0.  0.
     999903    2    3    3    0    0  0.11752147346E+00 -0.38758679496E-01 -0.61476395123E-01  0.13965673746E+00  0.20276222540E-01 0.  0.
         14    1    1    2    0    0 -0.29921820389E-02  0.13948012055E-01  0.30268518892E-02  0.14582936124E-01  0.00000000000E+00 0. -1.
     999901    1    3    3    0    0 -0.11452929142E+00  0.24810667441E-01  0.58449543234E-01  0.88969032642E+00  0.88000000000E+00 0.  1.
        -11    1    4    4    0    0  0.10703869594E+00 -0.29683760998E-01 -0.58189613698E-01  0.12539816729E+00  0.51100000000E-03 0.  1.
         11    1    4    4    0    0  0.10482777517E-01 -0.90749184979E-02 -0.32867814253E-02  0.14258570172E-01  0.51100000000E-03 0. -1.
</event>
<event>
 8    1  0.1108957E+005  0.1043930E+01  0.7957747E-01            NaN
         13   -1    0    0    0    0  0.00000000000E+00  0.00000000000E+00  0.74505805969E-08  0.10566000000E+00  0.10566000000E+00 0.  1.
     999900   -1    0    0    0    0 -0.00000000000E+00 -0.00000000000E+00 -0.74505805969E-08  0.93827000000E+00  0.93827000000E+00 0. -1.
     999902    2    1    2    0    0  0.29025298068E-02 -0.21051471543E-01  0.88453081126E-02  0.10209119938E+01  0.10206524729E+01 0.  0.
     999903    2    3    3    0    0  0.50551026858E-01  0.11286623983E+00  0.32781299804E-01  0.12918486941E+00  0.17886376304E-01 0.  0.
         14    1    1    2    0    0 -0.29025298068E-02  0.21051471543E-01 -0.88453081126E-02  0.23018006191E-01  0.00000000000E+00 0.  1.
     999901    1    3    3    0    0 -0.47648497051E-01 -0.13391771138E+00 -0.23935991691E-01  0.89172712440E+00  0.88000000000E+00 0. -1.
        -11    1    4    4    0    0  0.43140274698E-01  0.77538580324E-01  0.20688080934E-01  0.91112965891E-01  0.51100000000E-03 0.  1.
         11    1    4    4    0    0  0.74107521597E-02  0.35327659509E-01  0.12093218870E-01  0.38071903519E-01  0.51100000000E-03 0. -1.
</event>
<event>
 8    1  0.1108957E+005  0.1043930E+01  0.7957747E-01            NaN
         13   -1    0    0    0    0  0.00000000000E+00  0.00000000000E+00  0.74505805969E-08  0.10566000000E+00  0.10566000000E+00 0.  1.
     999900   -1    0    0    0    0 -0.00000000000E+00 -0.00000000000E+00 -0.74505805969E-08  0.93827000000E+00  0.93827000000E+00 0. -1.
     999902    2    1    2    0    0  0.54192040483E-02 -0.11546142931E-01 -0.20543074217E-01  0.10197494482E+01  0.10194627202E+01 0.  0.
     999903    2    3    3    0    0 -0.91179240437E-01 -0.78697263668E-01 -0.48657709814E-01  0.13147529834E+00  0.20279747404E-01 0.  0.
         14    1    1    2    0    0 -0.54192040483E-02  0.11546142931E-01  0.20543074217E-01  0.24180551842E-01  0.00000000000E+00 0.  1.
     999901    1    3    3    0    0  0.96598444485E-01  0.67151120737E-01  0.28114635596E-01  0.88827414981E+00  0.88000000000E+00 0.  1.
        -11    1    4    4    0    0 -0.62821188259E-01 -0.57334338071E-01 -0.24439028409E-01  0.88494379747E-01  0.51100000000E-03 0.  1.
         11    1    4    4    0    0 -0.28358052178E-01 -0.21362925597E-01 -0.24218681405E-01  0.42980918596E-01  0.51100000000E-03 0. -1.
</event>
<event>
 8    1  0.1108957E+005  0.1043930E+01  0.7957747E-01            NaN
         13   -1    0    0    0    0  0.00000000000E+00  0.00000000000E+00  0.74505805969E-08  0.10566000000E+00  0.10566000000E+00 0. -1.
     999900   -1    0    0    0    0 -0.00000000000E+00 -0.00000000000E+00 -0.74505805969E-08  0.93827000000E+00  0.93827000000E+00 0. -1.
     999902    2    1    2    0    0  0.14253400721E-01  0.19357503961E-01  0.38625109344E-03  0.10198879206E+01  0.10196045062E+01 0.  0.
     999903    2    3    3    0    0 -0.69542640789E-01  0.10956521647E+00  0.12222232736E-01  0.13123765282E+00  0.15271640303E-01 0.  0.
         14    1    1    2    0    0 -0.14253400721E-01 -0.19357503961E-01 -0.38625109344E-03  0.24042079395E-01  0.00000000000E+00 0. -1.
     999901    1    3    3    0    0  0.83796041510E-01 -0.90207712508E-01 -0.11835981643E-01  0.88865026778E+00  0.88000000000E+00 0.  1.
        -11    1    4    4    0    0 -0.14273041482E-01  0.28476272782E-01 -0.27152973685E-02  0.31972672480E-01  0.51100000000E-03 0.  1.
         11    1    4    4    0    0 -0.55269599307E-01  0.81088943687E-01  0.14937530105E-01  0.99264980343E-01  0.51100000000E-03 0. -1.
</event>
<event>
 8    1  0.1108957E+005  0.1043930E+01  0.7957747E-01            NaN
         13   -1    0    0    0    0  0.00000000000E+00  0.00000000000E+00  0.74505805969E-08  0.10566000000E+00  0.10566000000E+00 0. -1.
     999900   -1    0    0    0    0 -0.00000000000E+00 -0.00000000000E+00 -0.74505805969E-08  0.93827000000E+00  0.93827000000E+00 0.  1.
     999902    2    1    2    0    0 -0.47188207673E-02  0.11991298190E-01 -0.15676282035E-01  0.10236370377E+01  0.10234358703E+01 0.  0.
     999903    2    3    3    0    0  0.17576076912E-02  0.68301421332E-01  0.11229404680E+00  0.13257633314E+00  0.17273037405E-01 0.  0.
         14    1    1    2    0    0  0.47188207673E-02 -0.11991298190E-01  0.15676282035E-01  0.20292962331E-01  0.00000000000E+00 0. -1.
     999901    1    3    3    0    0 -0.64764284586E-02 -0.56310123142E-01 -0.12797032884E+00  0.89106070453E+00  0.88000000000E+00 0.  1.
        -11    1    4    4    0    0  0.73415787794E-02  0.37322545244E-01  0.72103543229E-01  0.81523329359E-01  0.51100000000E-03 0. -1.
         11    1    4    4    0    0 -0.55839710882E-02  0.30978876088E-01  0.40190503571E-01  0.51053003781E-01  0.51100000000E-03 0.  1.
</event>
<event>
 8    1  0.1108957E+005  0.1043930E+01  0.7957747E-01            NaN
         13   -1    0    0    0    0  0.00000000000E+00  0.00000000000E+00  0.74505805969E-08  0.10566000000E+00  0.10566000000E+00 0.  1.
     999900   -1    0    0    0    0 -0.00000000000E+00 -0.00000000000E+00 -0.74505805969E-08  0.93827000000E+00  0.93827000000E+00 0. -1.
     999902    2    1    2    0    0 -0.69381864992E-02  0.16115503407E-01 -0.15114010413E-01  0.10207722542E+01  0.10205095363E+01 0.  0.
     999903    2    3    3    0    0 -0.10684766720E+00 -0.69614691222E-01 -0.21612340003E-01  0.13095553207E+00  0.20484846096E-01 0.  0.
         14    1    1    2    0    0  0.69381864992E-02 -0.16115503407E-01  0.15114010413E-01  0.23157745847E-01  0.00000000000E+00 0.  1.
     999901    1    3    3    0    0  0.99909480703E-01  0.85730194629E-01  0.64983295899E-02  0.88981672208E+00  0.88000000000E+00 0. -1.
        -11    1    4    4    0    0 -0.54140142082E-01 -0.26767425655E-01 -0.27651124767E-02  0.60461202674E-01  0.51100000000E-03 0.  1.
         11    1    4    4    0    0 -0.52707525121E-01 -0.42847265567E-01 -0.18847227526E-01  0.70494329399E-01  0.51100000000E-03 0. -1.
</event>
<event>
 8    1  0.1108957E+005  0.1043930E+01  0.7957747E-01            NaN
         13   -1    0    0    0    0  0.00000000000E+00  0.00000000000E+00  0.74505805969E-08  0.10566000000E+00  0.10566000000E+00 0. -1.
     999900   -1    0    0    0    0 -0.00000000000E+00 -0.00000000000E+00 -0.74505805969E-08  0.93827000000E+00  0.93827000000E+00 0. -1.
     999902    2    1    2    0    0 -0.15167290913E-01  0.69974018914E-02  0.17442696665E-01  0.10197792647E+01  0.10194932519E+01 0.  0.
     999903    2    3    3    0    0 -0.12004260043E+00 -0.49706009536E-01 -0.25178195696E-03  0.13156352406E+00  0.20687778219E-01 0.  0.
         14    1    1    2    0    0  0.15167290913E-01 -0.69974018914E-02 -0.17442696665E-01  0.24150735265E-01  0.00000000000E+00 0.  1.
     999901    1    3    3    0    0  0.10487530951E+00  0.56703411428E-01  0.17694478622E-01  0.88821574068E+00  0.88000000000E+00 0. -1.
        -11    1    4    4    0    0 -0.10705897200E+00 -0.38770330268E-01  0.44193013609E-02  0.11394978430E+00  0.51100000000E-03 0. -1.
         11    1    4    4    0    0 -0.12983628421E-01 -0.10935679269E-01 -0.46710833179E-02  0.17613739762E-01  0.51100000000E-03 0.  1.
</event>
<event>
 8    1  0.1108957E+005  0.1043930E+01  0.7957747E-01            NaN
         13   -1    0    0    0    0  0.00000000000E+00  0.00000000000E+00  0.74505805969E-08  0.10566000000E+00  0.10566000000E+00 0.  1.
     999900   -1    0    0    0    0 -0.00000000000E+00 -0.00000000000E+00 -0.74505805969E-08  0.93827000000E+00  0.93827000000E+00 0. -1.
     999902    2    1    2    0    0  0.22805120113E-01 -0.47928281855E-02 -0.56724601164E-02  0.10199462240E+01  0.10196641989E+01 0.  0.
     999903    2    3    3    0    0 -0.68129186548E-01  0.37177338181E-01  0.99801683749E-01  0.12800713531E+00  0.20042706312E-01 0.  0.
         14    1    1    2    0    0 -0.22805120113E-01  0.47928281855E-02  0.56724601164E-02  0.23983775957E-01  0.00000000000E+00 0.  1.
     999901    1    3    3    0    0  0.90934306661E-01 -0.41970166366E-01 -0.10547414387E+00  0.89193908874E+00  0.88000000000E+00 0. -1.
        -11    1    4    4    0    0 -0.30252022509E-01  0.24952825690E-01  0.38803748474E-01  0.55170829180E-01  0.51100000000E-03 0. -1.
         11    1    4    4    0    0 -0.37877164039E-01  0.12224512491E-01  0.60997935276E-01  0.72836306126E-01  0.51100000000E-03 0.  1.
</event>
<event>
 8    1  0.1108957E+005  0.1043930E+01  0.7957747E-01            NaN
         13   -1    0    0    0    0  0.00000000000E+00  0.00000000000E+00  0.74505805969E-08  0.10566000000E+00  0.10566000000E+00 0. -1.
     999900   -1    0    0    0    0 -0.00000000000E+00 -0.00000000000E+00 -0.74505805969E-08  0.93827000000E+00  0.93827000000E+00 0.  1.
     999902    2    1    2    0    0 -0.87964564783E-02  0.18589422233E-03 -0.25187664718E-01  0.10172498453E+01  0.10168999051E+01 0.  0.
     999903    2    3    3    0    0  0.62243519968E-02  0.60837961813E-03  0.12313541699E+00  0.12471102831E+00  0.18745585707E-01 0.  0.
         14    1    1    2    0    0  0.87964564783E-02 -0.18589422233E-03  0.25187664718E-01  0.26680154744E-01  0.00000000000E+00 0. -1.
     999901    1    3    3    0    0 -0.15020808475E-01 -0.42248539581E-03 -0.14832308170E+00  0.89253881694E+00  0.88000000000E+00 0.  1.
        -11    1    4    4    0    0  0.25009284685E-02  0.87304235673E-02  0.36569967246E-01  0.37684195152E-01  0.51100000000E-03 0. -1.
         11    1    4    4    0    0  0.37234235283E-02 -0.81220439492E-02  0.86565449740E-01  0.87026833163E-01  0.51100000000E-03 0.  1.
</event>
<event>
 8    1  0.1108957E+005  0.1043930E+01  0.7957747E-01            NaN
         13   -1    0    0    0    0  0.00000000000E+00  0.00000000000E+00  0.74505805969E-08  0.10566000000E+00  0.10566000000E+00 0. -1.
     999900   -1    0    0    0    0 -0.00000000000E+00 -0.00000000000E+00 -0.74505805969E-08  0.93827000000E+00  0.93827000000E+00 0. -1.
     999902    2    1    2    0    0  0.10599861841E-01  0.75947323745E-02 -0.19925046567E-01  0.10201173036E+01  0.10198393347E+01 0.  0.
     999903    2    3    3    0    0  0.78113071016E-01 -0.18419582902E-01  0.99256915340E-01  0.12914080665E+00  0.19608156492E-01 0.  0.
         14    1    1    2    0    0 -0.10599861841E-01 -0.75947323745E-02  0.19925046567E-01  0.23812696437E-01  0.00000000000E+00 0. -1.
     999901    1    3    3    0    0 -0.67513209175E-01  0.26014315277E-01 -0.11918196191E+00  0.89097649692E+00  0.88000000000E+00 0. -1.
        -11    1    4    4    0    0  0.60095890578E-01 -0.59620329724E-02  0.67693158526E-01  0.90717620855E-01  0.51100000000E-03 0.  1.
         11    1    4    4    0    0  0.18017180438E-01 -0.12457549930E-01  0.31563756814E-01  0.38423185792E-01  0.51100000000E-03 0. -1.
</event>
<event>
 8    1  0.1108957E+005  0.1043930E+01  0.7957747E-01            NaN
         13   -1    0    0    0    0  0.00000000000E+00  0.00000000000E+00  0.74505805969E-08  0.10566000000E+00  0.10566000000E+00 0. -1.
     999900   -1    0    0    0    0 -0.00000000000E+00 -0.00000000000E+00 -0.74505805969E-08  0.93827000000E+00  0.93827000000E+00 0.  1.
     999902    2    1    2    0    0 -0.39014178043E-02 -0.20984738121E-01 -0.51549303255E-02  0.10219720037E+01  0.10217360827E+01 0.  0.
     999903    2    3    3    0    0 -0.11990972871E+00 -0.53027821718E-01  0.15635013707E-01  0.13353691368E+00  0.19933909439E-01 0.  0.
         14    1    1    2    0    0  0.39014178043E-02  0.20984738121E-01  0.51549303255E-02  0.21957996301E-01  0.00000000000E+00 0. -1.
     999901    1    3    3    0    0  0.11600831091E+00  0.32043083597E-01 -0.20789944032E-01  0.88843509002E+00  0.88000000000E+00 0.  1.
        -11    1    4    4    0    0 -0.80133535257E-01 -0.32231410017E-01  0.19285648222E-01  0.88501099501E-01  0.51100000000E-03 0.  1.
         11    1    4    4    0    0 -0.39776193454E-01 -0.20796411701E-01 -0.36506345148E-02  0.45035814178E-01  0.51100000000E-03 0. -1.
</event>
<event>
 8    1  0.1108957E+005  0.1043930E+01  0.7957747E-01            NaN
         13   -1    0    0    0    0  0.00000000000E+00  0.00000000000E+00  0.74505805969E-08  0.10566000000E+00  0.10566000000E+00 0.  1.
     999900   -1    0    0    0    0 -0.00000000000E+00 -0.00000000000E+00 -0.74505805969E-08  0.93827000000E+00  0.93827000000E+00 0.  1.
     999902    2    1    2    0    0 -0.43289235933E-02 -0.29015085991E-02  0.23090450138E-01  0.10202587681E+01  0.10199841306E+01 0.  0.
     999903    2    3    3    0    0  0.10901655928E+00  0.52316015690E-01  0.46200179643E-01  0.13097240643E+00  0.19943393706E-01 0.  0.
         14    1    1    2    0    0  0.43289235933E-02  0.29015085991E-02 -0.23090450138E-01  0.23671231890E-01  0.00000000000E+00 0. -1.
     999901    1    3    3    0    0 -0.11334548287E+00 -0.55217524289E-01 -0.23109729505E-01  0.88928636168E+00  0.88000000000E+00 0.  1.
        -11    1    4    4    0    0  0.87623613005E-01  0.33194228639E-01  0.38117770575E-01  0.10115819258E+00  0.51100000000E-03 0.  1.
         11    1    4    4    0    0  0.21392946270E-01  0.19121787051E-01  0.80824090679E-02  0.29814213850E-01  0.51100000000E-03 0. -1.
</event>
<event>
 8    1  0.1108957E+005  0.1043930E+01  0.7957747E-01            NaN
         13   -1    0    0    0    0  0.00000000000E+00  0.00000000000E+00  0.74505805969E-08  0.10566000000E+00  0.10566000000E+00 0. -1.
     999900   -1    0    0    0    0 -0.00000000000E+00 -0.00000000000E+00 -0.74505805969E-08  0.93827000000E+00  0.93827000000E+00 0.  1.
     999902    2    1    2    0    0  0.34622430978E-02 -0.22737785997E-01 -0.53050943619E-02  0.10203262277E+01  0.10200531716E+01 0.  0.
     999903    2    3    3    0    0  0.19897083183E-01 -0.60074868127E-01 -0.11494143364E+00  0.13258511200E+00  0.19036676592E-01 0.  0.
         14    1    1    2    0    0 -0.34622430978E-02  0.22737785997E-01  0.53050943619E-02  0.23603772273E-01  0.00000000000E+00 0. -1.
     999901    1    3    3    0    0 -0.16434840085E-01  0.37337082130E-01  0.10963633928E+00  0.88774111573E+00  0.88000000000E+00 0. -1.
        -11    1    4    4    0    0  0.21862388994E-02 -0.17927257760E-01 -0.49997051307E-01  0.53161381394E-01  0.51100000000E-03 0. -1.
         11    1    4    4    0    0  0.17710844284E-01 -0.42147610367E-01 -0.64944382333E-01  0.79423730601E-01  0.51100000000E-03 0.  1.
</event>
<event>
 8    1  0.1108957E+005  0.1043930E+01  0.7957747E-01            NaN
         13   -1    0    0    0    0  0.00000000000E+00  0.00000000000E+00  0.74505805969E-08  0.10566000000E+00  0.10566000000E+00 0. -1.
     999900   -1    0    0    0    0 -0.00000000000E+00 -0.00000000000E+00 -0.74505805969E-08  0.93827000000E+00  0.93827000000E+00 0.  1.
     999902    2    1    2    0    0 -0.77476838685E-03 -0.55072392946E-02 -0.22858639638E-01  0.10204045381E+01  0.10201333119E+01 0.  0.
     999903    2    3    3    0    0 -0.78857085588E-01  0.46243662031E-02  0.99218665288E-01  0.12849514470E+00  0.20659960300E-01 0.  0.
         14    1    1    2    0    0  0.77476838685E-03  0.55072392946E-02  0.22858639638E-01  0.23525461883E-01  0.00000000000E+00 0. -1.
     999901    1    3    3    0    0  0.78082317201E-01 -0.10131605498E-01 -0.12207730493E+00  0.89190939342E+00  0.88000000000E+00 0.  1.
        -11    1    4    4    0    0 -0.49684450202E-01 -0.70864802462E-02  0.59610114566E-01  0.77925539290E-01  0.51100000000E-03 0. -1.
         11    1    4    4    0    0 -0.29172635386E-01  0.11710846449E-01  0.39608550722E-01  0.50569605409E-01  0.51100000000E-03 0.  1.
</event>
<event>
 8    1  0.1108957E+005  0.1043930E+01  0.7957747E-01            NaN
         13   -1    0    0    0    0  0.00000000000E+00  0.00000000000E+00  0.74505805969E-08  0.10566000000E+00  0.10566000000E+00 0.  1.
     999900   -1    0    0    0    0 -0.00000000000E+00 -0.00000000000E+00 -0.74505805969E-08  0.93827000000E+00  0.93827000000E+00 0.  1.
     999902    2    1    2    0    0  0.13795150600E-01  0.18312581029E-01  0.77617755745E-02  0.10197245881E+01  0.10194372632E+01 0.  0.
     999903    2    3    3    0    0  0.92178897764E-01 -0.44570209181E-01 -0.76818793151E-01  0.12997623621E+00  0.22566396680E-01 0.  0.
         14    1    1    2    0    0 -0.13795150600E-01 -0.18312581029E-01 -0.77617755745E-02  0.24205411876E-01  0.00000000000E+00 0. -1.
     999901    1    3    3    0    0 -0.78383747164E-01  0.62882790210E-01  0.84580568726E-01  0.88974835191E+00  0.88000000000E+00 0. -1.
        -11    1    4    4    0    0  0.36395718904E-01 -0.93183500691E-02 -0.37881278676E-01  0.53354778583E-01  0.51100000000E-03 0. -1.
         11    1    4    4    0    0  0.55783178860E-01 -0.35251859112E-01 -0.38937514475E-01  0.76621457628E-01  0.51100000000E-03 0.  1.
</event>
<event>
 8    1  0.1108957E+005  0.1043930E+01  0.7957747E-01            NaN
         13   -1    0    0    0    0  0.00000000000E+00  0.00000000000E+00  0.74505805969E-08  0.10566000000E+00  0.10566000000E+00 0. -1.
     999900   -1    0    0    0    0 -0.00000000000E+00 -0.00000000000E+00 -0.74505805969E-08  0.93827000000E+00  0.93827000000E+00 0.  1.
     999902    2    1    2    0    0 -0.68602171347E-02 -0.19356568795E-01  0.12725326721E-01  0.10197706690E+01  0.10194844501E+01 0.  0.
     999903    2    3    3    0    0  0.88803522665E-01  0.68198312708E-01  0.60753347959E-01  0.12897097253E+00  0.20136210509E-01 0.  0.
         14    1    1    2    0    0  0.68602171347E-02  0.19356568795E-01 -0.12725326721E-01  0.24159331009E-01  0.00000000000E+00 0. -1.
     999901    1    3    3    0    0 -0.95663739800E-01 -0.87554881503E-01 -0.48028021237E-01  0.89079969646E+00  0.88000000000E+00 0.  1.
        -11    1    4    4    0    0  0.71986498340E-01  0.61810280282E-01  0.44828305030E-01  0.10494000545E+00  0.51100000000E-03 0.  1.
         11    1    4    4    0    0  0.16817024324E-01  0.63880324264E-02  0.15925042929E-01  0.24030967078E-01  0.51100000000E-03 0. -1.
</event>
<event>
 8    1  0.1108957E+005  0.1043930E+01  0.7957747E-01            NaN
         13   -1    0    0    0    0  0.00000000000E+00  0.00000000000E+00  0.74505805969E-08  0.10566000000E+00  0.10566000000E+00 0.  1.
     999900   -1    0    0    0    0 -0.00000000000E+00 -0.00000000000E+00 -0.74505805969E-08  0.93827000000E+00  0.93827000000E+00 0. -1.
     999902    2    1    2    0    0  0.72127334252E-02  0.17869922361E-03  0.23400789907E-01  0.10194421984E+01  0.10191480479E+01 0.  0.
     999903    2    3    3    0    0  0.66526994790E-01 -0.33602224999E-01  0.10809143329E+00  0.13274504748E+00  0.19558607316E-01 0.  0.
         14    1    1    2    0    0 -0.72127334252E-02 -0.17869922361E-03 -0.23400789907E-01  0.24487801558E-01  0.00000000000E+00 0. -1.
     999901    1    3    3    0    0 -0.59314261365E-01  0.33780924222E-01 -0.84690643383E-01  0.88669715096E+00  0.88000000000E+00 0. -1.
        -11    1    4    4    0    0  0.23211563405E-01 -0.42619894084E-02  0.23689841294E-01  0.33442651375E-01  0.51100000000E-03 0.  1.
         11    1    4    4    0    0  0.43315431385E-01 -0.29340235590E-01  0.84401591995E-01  0.99302396108E-01  0.51100000000E-03 0. -1.
</event>
<event>
 8    1  0.1108957E+005  0.1043930E+01  0.7957747E-01            NaN
         13   -1    0    0    0    0  0.00000000000E+00  0.00000000000E+00  0.74505805969E-08  0.10566000000E+00  0.10566000000E+00 0. -1.
     999900   -1    0    0    0    0 -0.00000000000E+00 -0.00000000000E+00 -0.74505805969E-08  0.93827000000E+00  0.93827000000E+00 0. -1.
     999902    2    1    2    0    0 -0.12279392178E-01 -0.19322752596E-01 -0.69919339808E-02  0.10199917590E+01  0.10197108164E+01 0.  0.
     999903    2    3    3    0    0  0.71843202300E-01 -0.85063979868E-01  0.65169826833E-01  0.13060666831E+00  0.20338856651E-01 0.  0.
         14    1    1    2    0    0  0.12279392178E-01  0.19322752596E-01  0.69919339808E-02  0.23938240974E-01  0.00000000000E+00 0.  1.
     999901    1    3    3    0    0 -0.84122594478E-01  0.65741227272E-01 -0.72161760814E-01  0.88938509072E+00  0.88000000000E+00 0.  1.
        -11    1    4    4    0    0  0.32406659815E-01 -0.37482665234E-01  0.17483310834E-01  0.52545875880E-01  0.51100000000E-03 0. -1.
         11    1    4    4    0    0  0.39436542485E-01 -0.47581314634E-01  0.47686516000E-01  0.78060792429E-01  0.51100000000E-03 0.  1.
</event>
<event>
 8    1  0.1108957E+005  0.1043930E+01  0.7957747E-01            NaN
         13   -1    0    0    0    0  0.00000000000E+00  0.00000000000E+00  0.74505805969E-08  0.10566000000E+00  0.10566000000E+00 0. -1.
     999900   -1    0    0    0    0 -0.00000000000E+00 -0.00000000000E+00 -0.74505805969E-08  0.93827000000E+00  0.93827000000E+00 0.  1.
     999902    2    1    2    0    0  0.84809836017E-02  0.10094418814E-01  0.19716082550E-01  0.10202118996E+01  0.10199361607E+01 0.  0.
     999903    2    3    3    0    0  0.93541355284E-01 -0.84826727480E-01 -0.23605451692E-01  0.12997482661E+00  0.19765610545E-01 0.  0.
         14    1    1    2    0    0 -0.84809836017E-02 -0.10094418814E-01 -0.19716082550E-01  0.23718100370E-01  0.00000000000E+00 0.  1.
     999901    1    3    3    0    0 -0.85060371683E-01  0.94921146294E-01  0.43321534242E-01  0.89023707302E+00  0.88000000000E+00 0. -1.
        -11    1    4    4    0    0  0.57597723430E-01 -0.40500437959E-01 -0.83933739270E-02  0.70911868302E-01  0.51100000000E-03 0. -1.
         11    1    4    4    0    0  0.35943631854E-01 -0.44326289521E-01 -0.15212077765E-01  0.59062958311E-01  0.51100000000E-03 0.  1.
</event>
<event>
 7    1  0.1108957E+005  0.1043930E+01  0.7957747E-01            NaN
         13   -1    0    0    0    0  0.00000000000E+00  0.00000000000E+00  0.74505805969E-08  0.10566000000E+00  0.10566000000E+00 0. -1.
     999900   -1    0    0    0    0 -0.00000000000E+00 -0.00000000000E+00 -0.74505805969E-08  0.93827000000E+00  0.93827000000E+00 0. -1.
     999902    2    1    2    0    0 -0.42866970461E-02 -0.23296371721E-01  0.27025254719E-02  0.10200888517E+01  0.10198102103E+01 0.  0.
         14    1    1    2    0    0  0.42866970461E-02  0.23296371721E-01 -0.27025254719E-02  0.23841148271E-01  0.00000000000E+00 0.  1.
     999901    1    3    3    0    0  0.97254023264E-01  0.51505353252E-01 -0.37583704839E-01  0.88765065275E+00  0.88000000000E+00 0. -1.
        -11    1    3    3    0    0 -0.84028599560E-01 -0.60829905439E-01  0.33948542039E-01  0.10915057291E+00  0.51100000000E-03 0.  1.
         11    1    3    3    0    0 -0.17512120750E-01 -0.13971819534E-01  0.63376882725E-02  0.23287626068E-01  0.51100000000E-03 0. -1.
</event>
<event>
 8    1  0.1108957E+005  0.1043930E+01  0.7957747E-01            NaN
         13   -1    0    0    0    0  0.00000000000E+00  0.00000000000E+00  0.74505805969E-08  0.10566000000E+00  0.10566000000E+00 0.  1.
     999900   -1    0    0    0    0 -0.00000000000E+00 -0.00000000000E+00 -0.74505805969E-08  0.93827000000E+00  0.93827000000E+00 0.  1.
     999902    2    1    2    0    0  0.14582110210E-01  0.13833102558E-01 -0.14979967593E-01  0.10188622499E+01  0.10185538239E+01 0.  0.
     999903    2    3    3    0    0  0.66676819757E-01 -0.92769977728E-01  0.53937678344E-01  0.12822892616E+00  0.21938944781E-01 0.  0.
         14    1    1    2    0    0 -0.14582110210E-01 -0.13833102558E-01  0.14979967593E-01  0.25067750071E-01  0.00000000000E+00 0.  1.
     999901    1    3    3    0    0 -0.52094709547E-01  0.10660308029E+00 -0.68917645936E-01  0.89063332377E+00  0.88000000000E+00 0.  1.
        -11    1    4    4    0    0  0.30576871172E-01 -0.50306756773E-01  0.16692916496E-01  0.61193377173E-01  0.51100000000E-03 0. -1.
         11    1    4    4    0    0  0.36099948585E-01 -0.42463220954E-01  0.37244761847E-01  0.67035548985E-01  0.51100000000E-03 0.  1.
</event>
<event>
 8    1  0.1108957E+005  0.1043930E+01  0.7957747E-01            NaN
         13   -1    0    0    0    0  0.00000000000E+00  0.00000000000E+00  0.74505805969E-08  0.10566000000E+00  0.10566000000E+00 0.  1.
     999900   -1    0    0    0    0 -0.00000000000E+00 -0.00000000000E+00 -0.74505805969E-08  0.93827000000E+00  0.93827000000E+00 0.  1.
     999902    2    1    2    0    0 -0.17226054301E-01 -0.29298961254E-02  0.17741280386E-01  0.10190287095E+01  0.10187244164E+01 0.  0.
     999903    2    3    3    0    0  0.57356409128E-02 -0.50127692127E-01  0.11792588852E+00  0.13179039480E+00  0.30273914252E-01 0.  0.
         14    1    1    2    0    0  0.17226054301E-01  0.29298961254E-02 -0.17741280386E-01  0.24901290485E-01  0.00000000000E+00 0. -1.
     999901    1    3    3    0    0 -0.22961695214E-01  0.47197796002E-01 -0.10018460813E+00  0.88723831472E+00  0.88000000000E+00 0.  1.
        -11    1    4    4    0    0  0.12198352349E-01 -0.46940236911E-01  0.11321262409E+00  0.12316470686E+00  0.51100000000E-03 0. -1.
         11    1    4    4    0    0 -0.64627114361E-02 -0.31874552167E-02  0.47132644228E-02  0.86256879368E-02  0.51100000000E-03 0.  1.
</event>
<event>
 8    1  0.1108957E+005  0.1043930E+01  0.7957747E-01            NaN
         13   -1    0    0    0    0  0.00000000000E+00  0.00000000000E+00  0.74505805969E-08  0.10566000000E+00  0.10566000000E+00 0.  1.
     999900   -1    0    0    0    0 -0.00000000000E+00 -0.00000000000E+00 -0.74505805969E-08  0.93827000000E+00  0.93827000000E+00 0. -1.
     999902    2    1    2    0    0  0.19883150251E-01  0.48812880803E-02 -0.12543769435E-01  0.10199193193E+01  0.10196366534E+01 0.  0.
     999903    2    3    3    0    0  0.31857157707E-01 -0.67591818749E-01  0.10420014233E+00  0.12917532182E+00  0.15654444973E-01 0.  0.
         14    1    1    2    0    0 -0.19883150251E-01 -0.48812880803E-02  0.12543769435E-01  0.24010680725E-01  0.00000000000E+00 0.  1.
     999901    1    3    3    0    0 -0.11974007456E-01  0.72473106829E-01 -0.11674391176E+00  0.89074399745E+00  0.88000000000E+00 0. -1.
        -11    1    4    4    0    0  0.27263970994E-02 -0.82853642131E-02  0.52571191338E-02  0.10197005633E-01  0.51100000000E-03 0. -1.
         11    1    4    4    0    0  0.29130760608E-01 -0.59306454536E-01  0.98943023193E-01  0.11897831619E+00  0.51100000000E-03 0.  1.
</event>
<event>
 8    1  0.1108957E+005  0.1043930E+01  0.7957747E-01            NaN
         13   -1    0    0    0    0  0.00000000000E+00  0.00000000000E+00  0.74505805969E-08  0.10566000000E+00  0.10566000000E+00 0. -1.
     999900   -1    0    0    0    0 -0.00000000000E+00 -0.00000000000E+00 -0.74505805969E-08  0.93827000000E+00  0.93827000000E+00 0. -1.
     999902    2    1    2    0    0 -0.13529962160E-01  0.45462119215E-02  0.19560766478E-01  0.10197153040E+01  0.10194277560E+01 0.  0.
     999903    2    3    3    0    0  0.94317082524E-01 -0.79394197148E-01  0.32530324150E-01  0.12907217299E+00  0.20056252259E-01 0.  0.
         14    1    1    2    0    0  0.13529962160E-01 -0.45462119215E-02 -0.19560766478E-01  0.24214696036E-01  0.00000000000E+00 0. -1.
     999901    1    3    3    0    0 -0.10784704468E+00  0.83940409070E-01 -0.12969557672E-01  0.89064313097E+00  0.88000000000E+00 0.  1.
        -11    1    4    4    0    0  0.50117020854E-01 -0.47847056802E-01  0.27444588043E-01  0.74528673393E-01  0.51100000000E-03 0. -1.
         11    1    4    4    0    0  0.44200061670E-01 -0.31547140346E-01  0.50857361078E-02  0.54543499598E-01  0.51100000000E-03 0.  1.
</event>
<event>
 8    1  0.1108957E+005  0.1043930E+01  0.7957747E-01            NaN
         13   -1    0    0    0    0  0.00000000000E+00  0.00000000000E+00  0.74505805969E-08  0.10566000000E+00  0.10566000000E+00 0. -1.
     999900   -1    0    0    0    0 -0.00000000000E+00 -0.00000000000E+00 -0.74505805969E-08  0.93827000000E+00  0.93827000000E+00 0.  1.
     999902    2    1    2    0    0 -0.12457951551E-01 -0.10052441524E-02 -0.19738007667E-01  0.10205676367E+01  0.10203002014E+01 0.  0.
     999903    2    3    3    0    0 -0.88614781756E-01  0.93889960285E-01  0.14981480015E-01  0.13151735384E+00  0.20111325917E-01 0.  0.
         14    1    1    2    0    0  0.12457951551E-01  0.10052441524E-02  0.19738007667E-01  0.23362363307E-01  0.00000000000E+00 0. -1.
     999901    1    3    3    0    0  0.76156830205E-01 -0.94895204437E-01 -0.34719487682E-01  0.88905028285E+00  0.88000000000E+00 0.  1.
        -11    1    4    4    0    0 -0.68039898403E-02  0.96103744349E-02 -0.41829496016E-02  0.12506468842E-01  0.51100000000E-03 0.  1.
         11    1    4    4    0    0 -0.81810791916E-01  0.84279585850E-01  0.19164429616E-01  0.11901088500E+00  0.51100000000E-03 0. -1.
</event>
<event>
 8    1  0.1108957E+005  0.1043930E+01  0.7957747E-01            NaN
         13   -1    0    0    0    0  0.00000000000E+00  0.00000000000E+00  0.74505805969E-08  0.10566000000E+00  0.10566000000E+00 0. -1.
     999900   -1    0    0    0    0 -0.00000000000E+00 -0.00000000000E+00 -0.74505805969E-08  0.93827000000E+00  0.93827000000E+00 0.  1.
     999902    2    1    2    0    0  0.16239732125E-02 -0.23363657187E-01 -0.69709655113E-02  0.10194945314E+01  0.10192016520E+01 0.  0.
     999903    2    3    3    0    0 -0.64732790505E-01 -0.11142111719E+00  0.19027497440E-01  0.13223286963E+00  0.22770301456E-01 0.  0.
         14    1    1    2    0    0 -0.16239732125E-02  0.23363657187E-01  0.69709655113E-02  0.24435468612E-01  0.00000000000E+00 0. -1.
     999901    1    3    3    0    0  0.66356763717E-01  0.88057460005E-01 -0.25998462951E-01  0.88726166176E+00  0.88000000000E+00 0. -1.
        -11    1    4    4    0    0 -0.24428922963E-02 -0.20277841200E-01  0.39917078094E-02  0.20817142425E-01  0.51100000000E-03 0. -1.
         11    1    4    4    0    0 -0.62289898209E-01 -0.91143275992E-01  0.15035789630E-01  0.11141572720E+00  0.51100000000E-03 0.  1.
</event>
<event>
 8    1  0.1108957E+005  0.1043930E+01  0.7957747E-01            NaN
         13   -1    0    0    0    0  0.00000000000E+00  0.00000000000E+00  0.74505805969E-08  0.10566000000E+00  0.10566000000E+00 0.  1.
     999900   -1    0    0    0    0 -0.00000000000E+00 -0.00000000000E+00 -0.74505805969E-08  0.93827000000E+00  0.93827000000E+00 0. -1.
     999902    2    1    2    0    0  0.13868537051E-01  0.16097285433E-01 -0.10656287355E-01  0.10201599479E+01  0.10198829854E+01 0.  0.
     999903    2    3    3    0    0  0.31989901275E-01  0.44679110838E-01  0.11645473288E+00  0.13038328148E+00  0.20457725897E-01 0.  0.
         14    1    1    2    0    0 -0.13868537051E-01 -0.16097285433E-01  0.10656287355E-01  0.23770052134E-01  0.00000000000E+00 0.  1.
     999901    1    3    3    0    0 -0.18121364225E-01 -0.28581825404E-01 -0.12711102024E+00  0.88977666639E+00  0.88000000000E+00 0. -1.
        -11    1    4    4    0    0  0.30618091487E-01  0.26930863004E-01  0.83418188226E-01  0.92852539849E-01  0.51100000000E-03 0. -1.
         11    1    4    4    0    0  0.13718097883E-02  0.17748247833E-01  0.33036544657E-01  0.37530741628E-01  0.51100000000E-03 0.  1.
</event>
<event>
 8    1  0.1108957E+005  0.1043930E+01  0.7957747E-01            NaN
         13   -1    0    0    0    0  0.00000000000E+00  0.00000000000E+00  0.74505805969E-08  0.10566000000E+00  0.10566000000E+00 0.  1.
     999900   -1    0    0    0    0 -0.00000000000E+00 -0.00000000000E+00 -0.74505805969E-08  0.93827000000E+00  0.93827000000E+00 0.  1.
     999902    2    1    2    0    0  0.14420697606E-01  0.32119360836E-02  0.20424609991E-01  0.10187221094E+01  0.10184101819E+01 0.  0.
     999903    2    3    3    0    0  0.59551834654E-01  0.35874016569E-01 -0.10587234326E+00  0.12796145055E+00  0.18215753771E-01 0.  0.
         14    1    1    2    0    0 -0.14420697606E-01 -0.32119360836E-02 -0.20424609991E-01  0.25207890553E-01  0.00000000000E+00 0. -1.
     999901    1    3    3    0    0 -0.45131137048E-01 -0.32662080485E-01  0.12629695325E+00  0.89076065889E+00  0.88000000000E+00 0. -1.
        -11    1    4    4    0    0  0.48549823438E-01  0.36586081973E-01 -0.88054606282E-01  0.10700234370E+00  0.51100000000E-03 0. -1.
         11    1    4    4    0    0  0.11002011216E-01 -0.71206540382E-03 -0.17817736976E-01  0.20959106849E-01  0.51100000000E-03 0.  1.
</event>
<event>
 8    1  0.1108957E+005  0.1043930E+01  0.7957747E-01            NaN
         13   -1    0    0    0    0  0.00000000000E+00  0.00000000000E+00  0.74505805969E-08  0.10566000000E+00  0.10566000000E+00 0.  1.
     999900   -1    0    0    0    0 -0.00000000000E+00 -0.00000000000E+00 -0.74505805969E-08  0.93827000000E+00  0.93827000000E+00 0. -1.
     999902    2    1    2    0    0  0.18169405791E-01  0.15018466522E-01  0.13740068349E-01  0.10166450019E+01  0.10162787948E+01 0.  0.
     999903    2    3    3    0    0 -0.12218781450E+00 -0.15845576881E-01  0.42462171889E-02  0.12493716203E+00  0.20256351543E-01 0.  0.
         14    1    1    2    0    0 -0.18169405791E-01 -0.15018466522E-01 -0.13740068349E-01  0.27284998107E-01  0.00000000000E+00 0. -1.
     999901    1    3    3    0    0  0.14035722029E+00  0.30864043403E-01  0.94938511598E-02  0.89170783986E+00  0.88000000000E+00 0. -1.
        -11    1    4    4    0    0 -0.18513785147E-01  0.66734923686E-03 -0.59413240804E-02  0.19461912761E-01  0.51100000000E-03 0. -1.
         11    1    4    4    0    0 -0.10367402935E+00 -0.16512926118E-01  0.10187541269E-01  0.10547524927E+00  0.51100000000E-03 0.  1.
</event>
<event>
 8    1  0.1108957E+005  0.1043930E+01  0.7957747E-01            NaN
         13   -1    0    0    0    0  0.00000000000E+00  0.00000000000E+00  0.74505805969E-08  0.10566000000E+00  0.10566000000E+00 0. -1.
     999900   -1    0    0    0    0 -0.00000000000E+00 -0.00000000000E+00 -0.74505805969E-08  0.93827000000E+00  0.93827000000E+00 0. -1.
     999902    2    1    2    0    0 -0.12273210113E-02 -0.12489997383E-01  0.19984186330E-01  0.10203318209E+01  0.10200588957E+01 0.  0.
     999903    2    3    3    0    0  0.97236349542E-01 -0.34972215052E-01  0.80454822545E-01  0.13249329825E+00  0.20088108755E-01 0.  0.
         14    1    1    2    0    0  0.12273210113E-02  0.12489997383E-01 -0.19984186330E-01  0.23598179056E-01  0.00000000000E+00 0.  1.
     999901    1    3    3    0    0 -0.98463670553E-01  0.22482217668E-01 -0.60470636215E-01  0.88783852269E+00  0.88000000000E+00 0.  1.
        -11    1    4    4    0    0  0.51867771120E-01 -0.99228204305E-02  0.47842057994E-01  0.71259046306E-01  0.51100000000E-03 0. -1.
         11    1    4    4    0    0  0.45368578422E-01 -0.25049394621E-01  0.32612764550E-01  0.61234251947E-01  0.51100000000E-03 0.  1.
</event>
<event>
 8    1  0.1108957E+005  0.1043930E+01  0.7957747E-01            NaN
         13   -1    0    0    0    0  0.00000000000E+00  0.00000000000E+00  0.74505805969E-08  0.10566000000E+00  0.10566000000E+00 0. -1.
     999900   -1    0    0    0    0 -0.00000000000E+00 -0.00000000000E+00 -0.74505805969E-08  0.93827000000E+00  0.93827000000E+00 0.  1.
     999902    2    1    2    0    0 -0.14233912680E-01  0.14188060202E-01  0.10883449255E-01  0.10210749176E+01  0.10208190989E+01 0.  0.
     999903    2    3    3    0    0 -0.47814982924E-01 -0.89270546595E-01 -0.78776061484E-01  0.12985653841E+00  0.20038703118E-01 0.  0.
         14    1    1    2    0    0  0.14233912680E-01 -0.14188060202E-01 -0.10883449255E-01  0.22855082371E-01  0.00000000000E+00 0.  1.
     999901    1    3    3    0    0  0.33581070244E-01  0.10345860680E+00  0.89659510739E-01  0.89121837922E+00  0.88000000000E+00 0.  1.
        -11    1    4    4    0    0 -0.86827186922E-02 -0.46272586478E-02 -0.95128112477E-02  0.13695102238E-01  0.51100000000E-03 0. -1.
         11    1    4    4    0    0 -0.39132264232E-01 -0.84643287947E-01 -0.69263250236E-01  0.11616143617E+00  0.51100000000E-03 0.  1.
</event>
<event>
 8    1  0.1108957E+005  0.1043930E+01  0.7957747E-01            NaN
         13   -1    0    0    0    0  0.00000000000E+00  0.00000000000E+00  0.74505805969E-08  0.10566000000E+00  0.10566000000E+00 0. -1.
     999900   -1    0    0    0    0 -0.00000000000E+00 -0.00000000000E+00 -0.74505805969E-08  0.93827000000E+00  0.93827000000E+00 0. -1.
     999902    2    1    2    0    0 -0.21768631123E-02 -0.15698288277E-01 -0.19016825748E-01  0.10191749066E+01  0.10188742197E+01 0.  0.
     999903    2    3    3    0    0 -0.80993858279E-01  0.34480167805E-02 -0.10170781511E+00  0.13158462981E+00  0.19953477145E-01 0.  0.
         14    1    1    2    0    0  0.21768631123E-02  0.15698288277E-01  0.19016825748E-01  0.24755093403E-01  0.00000000000E+00 0. -1.
     999901    1    3    3    0    0  0.78816995167E-01 -0.19146305058E-01  0.82690989358E-01  0.88759027679E+00  0.88000000000E+00 0.  1.
        -11    1    4    4    0    0 -0.29756587769E-01  0.10927849099E-01 -0.38659193598E-01  0.49996667611E-01  0.51100000000E-03 0.  1.
         11    1    4    4    0    0 -0.51237270510E-01 -0.74798323183E-02 -0.63048621508E-01  0.81587962199E-01  0.51100000000E-03 0. -1.
</event>
<event>
 8    1  0.1108957E+005  0.1043930E+01  0.7957747E-01            NaN
         13   -1    0    0    0    0  0.00000000000E+00  0.00000000000E+00  0.74505805969E-08  0.10566000000E+00  0.10566000000E+00 0.  1.
     999900   -1    0    0    0    0 -0.00000000000E+00 -0.00000000000E+00 -0.74505805969E-08  0.93827000000E+00  0.93827000000E+00 0. -1.
     999902    2    1    2    0    0  0.80768223831E-02  0.16522746708E-01  0.13024274662E-01  0.10213940743E+01  0.10211454289E+01 0.  0.
     999903    2    3    3    0    0  0.29643266290E-01 -0.96880544774E-01  0.81055271647E-01  0.13125159433E+00  0.19810622412E-01 0.  0.
         14    1    1    2    0    0 -0.80768223831E-02 -0.16522746708E-01 -0.13024274662E-01  0.22535925742E-01  0.00000000000E+00 0. -1.
     999901    1    3    3    0    0 -0.21566443907E-01  0.11340329148E+00 -0.68030996985E-01  0.89014247993E+00  0.88000000000E+00 0. -1.
        -11    1    4    4    0    0  0.22941983101E-01 -0.47710854221E-01  0.49244909374E-01  0.72304788357E-01  0.51100000000E-03 0.  1.
         11    1    4    4    0    0  0.67012831884E-02 -0.49169690553E-01  0.31810362273E-01  0.58946805973E-01  0.51100000000E-03 0. -1.
</event>
<event>
 8    1  0.1108957E+005  0.1043930E+01  0.7957747E-01            NaN
         13   -1    0    0    0    0  0.00000000000E+00  0.00000000000E+00  0.74505805969E-08  0.10566000000E+00  0.10566000000E+00 0. -1.
     999900   -1    0    0    0    0 -0.00000000000E+00 -0.00000000000E+00 -0.74505805969E-08  0.93827000000E+00  0.93827000000E+00 0.  1.
     999902    2    1    2    0    0 -0.18558656638E-01 -0.96709774763E-02  0.11520304656E-01  0.10200413215E+01  0.10197615548E+01 0.  0.
     999903    2    3    3    0    0  0.85267909929E-01  0.45464167374E-01 -0.80675586272E-01  0.12744963296E+00  0.19931175167E-01 0.  0.
         14    1    1    2    0    0  0.18558656638E-01  0.96709774763E-02 -0.11520304656E-01  0.23888678509E-01  0.00000000000E+00 0. -1.
     999901    1    3    3    0    0 -0.10382656657E+00 -0.55135144851E-01  0.92195890928E-01  0.89259168853E+00  0.88000000000E+00 0. -1.
        -11    1    4    4    0    0  0.39634880605E-01  0.10719903637E-01 -0.29253090847E-01  0.50416708934E-01  0.51100000000E-03 0. -1.
         11    1    4    4    0    0  0.45633029324E-01  0.34744263737E-01 -0.51422495425E-01  0.77032924030E-01  0.51100000000E-03 0.  1.
</event>
<event>
 8    1  0.1108957E+005  0.1043930E+01  0.7957747E-01            NaN
         13   -1    0    0    0    0  0.00000000000E+00  0.00000000000E+00  0.74505805969E-08  0.10566000000E+00  0.10566000000E+00 0.  1.
     999900   -1    0    0    0    0 -0.00000000000E+00 -0.00000000000E+00 -0.74505805969E-08  0.93827000000E+00  0.93827000000E+00 0.  1.
     999902    2    1    2    0    0  0.12177852656E-01  0.19781906438E-01 -0.76055922047E-02  0.10194868220E+01  0.10191937555E+01 0.  0.
     999903    2    3    3    0    0 -0.79730722944E-01 -0.95418310939E-01 -0.18904983450E-01  0.12716067502E+00  0.18729565635E-01 0.  0.
         14    1    1    2    0    0 -0.12177852656E-01 -0.19781906438E-01  0.76055922047E-02  0.24443177993E-01  0.00000000000E+00 0.  1.
     999901    1    3    3    0    0  0.91908575600E-01  0.11520021738E+00  0.11299391245E-01  0.89232614699E+00  0.88000000000E+00 0. -1.
        -11    1    4    4    0    0 -0.57499123934E-01 -0.79467426142E-01 -0.18335001887E-01  0.99788047812E-01  0.51100000000E-03 0. -1.
         11    1    4    4    0    0 -0.22231599010E-01 -0.15950884797E-01 -0.56998156266E-03  0.27372627209E-01  0.51100000000E-03 0.  1.
</event>
<event>
 8    1  0.1108957E+005  0.1043930E+01  0.7957747E-01            NaN
         13   -1    0    0    0    0  0.00000000000E+00  0.00000000000E+00  0.74505805969E-08  0.10566000000E+00  0.10566000000E+00 0. -1.
     999900   -1    0    0    0    0 -0.00000000000E+00 -0.00000000000E+00 -0.74505805969E-08  0.93827000000E+00  0.93827000000E+00 0. -1.
     999902    2    1    2    0    0 -0.50232861153E-02 -0.78187955077E-02 -0.19436168227E-01  0.10223862863E+01  0.10221592766E+01 0.  0.
     999903    2    3    3    0    0 -0.10282156407E+00 -0.24228160399E-01  0.76153084573E-01  0.13167248504E+00  0.19469803097E-01 0.  0.
         14    1    1    2    0    0  0.50232861153E-02  0.78187955077E-02  0.19436168227E-01  0.21543713745E-01  0.00000000000E+00 0. -1.
     999901    1    3    3    0    0  0.97798277952E-01  0.16409364891E-01 -0.95589252800E-01  0.89071380122E+00  0.88000000000E+00 0. -1.
        -11    1    4    4    0    0 -0.90138188411E-01 -0.14243754712E-01  0.64096477730E-01  0.11151859547E+00  0.51100000000E-03 0.  1.
         11    1    4    4    0    0 -0.12683375656E-01 -0.99844056875E-02  0.12056606843E-01  0.20153889564E-01  0.51100000000E-03 0. -1.
</event>
<event>
 8    1  0.1108957E+005  0.1043930E+01  0.7957747E-01            NaN
         13   -1    0    0    0    0  0.00000000000E+00  0.00000000000E+00  0.74505805969E-08  0.10566000000E+00  0.10566000000E+00 0.  1.
     999900   -1    0    0    0    0 -0.00000000000E+00 -0.00000000000E+00 -0.74505805969E-08  0.93827000000E+00  0.93827000000E+00 0.  1.
     999902    2    1    2    0    0  0.18042004570E-01  0.11746890895E-01  0.95143361547E-02  0.10203922438E+01  0.10201207307E+01 0.  0.
     999903    2    3    3    0    0  0.75252644347E-02 -0.11733626503E+00 -0.49255180216E-01  0.12897375677E+00  0.19588988250E-01 0.  0.
         14    1    1    2    0    0 -0.18042004570E-01 -0.11746890895E-01 -0.95143361547E-02  0.23537756203E-01  0.00000000000E+00 0.  1.
     999901    1    3    3    0    0  0.10516740136E-01  0.12908315592E+00  0.58769516371E-01  0.89141848703E+00  0.88000000000E+00 0.  1.
        -11    1    4    4    0    0 -0.15990173361E-02 -0.79046077001E-01 -0.25883456330E-01  0.83192869757E-01  0.51100000000E-03 0. -1.
         11    1    4    4    0    0  0.91242817708E-02 -0.38290188027E-01 -0.23371723887E-01  0.45780887010E-01  0.51100000000E-03 0.  1.
</event>
<event>
 7    1  0.1108957E+005  0.1043930E+01  0.7957747E-01            NaN
         13   -1    0    0    0    0  0.00000000000E+00  0.00000000000E+00  0.74505805969E-08  0.10566000000E+00  0.10566000000E+00 0.  1.
     999900   -1    0    0    0    0 -0.00000000000E+00 -0.00000000000E+00 -0.74505805969E-08  0.93827000000E+00  0.93827000000E+00 0. -1.
     999903    2    1    2    0    0  0.79473597602E-01 -0.70011699784E-01  0.40583927071E-01  0.11508634099E+00  0.19496664445E-01 0.  0.
         14    1    1    2    0    0  0.84025638917E-02  0.89924885445E-02  0.36983213951E-01  0.38977250343E-01  0.00000000000E+00 0.  1.
     999901    1    1    2    0    0 -0.87876161494E-01  0.61019211240E-01 -0.77567141022E-01  0.88986640866E+00  0.88000000000E+00 0.  1.
        -11    1    3    3    0    0  0.65096101741E-01 -0.58254698859E-01  0.25076965869E-01  0.90885795036E-01  0.51100000000E-03 0.  1.
         11    1    3    3    0    0  0.14377495861E-01 -0.11757000925E-01  0.15506961202E-01  0.24200545959E-01  0.51100000000E-03 0. -1.
</event>
<event>
 8    1  0.1108957E+005  0.1043930E+01  0.7957747E-01            NaN
         13   -1    0    0    0    0  0.00000000000E+00  0.00000000000E+00  0.74505805969E-08  0.10566000000E+00  0.10566000000E+00 0. -1.
     999900   -1    0    0    0    0 -0.00000000000E+00 -0.00000000000E+00 -0.74505805969E-08  0.93827000000E+00  0.93827000000E+00 0.  1.
     999902    2    1    2    0    0  0.13961373033E-01  0.29897082910E-02 -0.19227427658E-01  0.10199810487E+01  0.10196998517E+01 0.  0.
     999903    2    3    3    0    0 -0.17532129089E-01 -0.44402520256E-01 -0.12185701568E+00  0.13219126711E+00  0.18612884631E-01 0.  0.
         14    1    1    2    0    0 -0.13961373033E-01 -0.29897082910E-02  0.19227427658E-01  0.23948951271E-01  0.00000000000E+00 0.  1.
     999901    1    3    3    0    0  0.31493502122E-01  0.47392228547E-01  0.10262958803E+00  0.88778978162E+00  0.88000000000E+00 0. -1.
        -11    1    4    4    0    0 -0.15314497286E-01 -0.25314448377E-01 -0.52997632643E-01  0.60698972895E-01  0.51100000000E-03 0.  1.
         11    1    4    4    0    0 -0.22176318032E-02 -0.19088071878E-01 -0.68859383041E-01  0.71492294219E-01  0.51100000000E-03 0. -1.
</event>
<event>
 8    1  0.1108957E+005  0.1043930E+01  0.7957747E-01            NaN
         13   -1    0    0    0    0  0.00000000000E+00  0.00000000000E+00  0.74505805969E-08  0.10566000000E+00  0.10566000000E+00 0. -1.
     999900   -1    0    0    0    0 -0.00000000000E+00 -0.00000000000E+00 -0.74505805969E-08  0.93827000000E+00  0.93827000000E+00 0. -1.
     999902    2    1    2    0    0 -0.89397802944E-03  0.72890470035E-04 -0.23180469488E-01  0.10207321838E+01  0.10204685455E+01 0.  0.
     999903    2    3    3    0    0  0.91398083593E-01 -0.63583675116E-01 -0.69173846304E-01  0.13242740859E+00  0.18854816599E-01 0.  0.
         14    1    1    2    0    0  0.89397802944E-03 -0.72890470035E-04  0.23180469488E-01  0.23197816178E-01  0.00000000000E+00 0. -1.
     999901    1    3    3    0    0 -0.92292061622E-01  0.63656565586E-01  0.45993376816E-01  0.88830477523E+00  0.88000000000E+00 0.  1.
        -11    1    4    4    0    0  0.84457223238E-01 -0.63832765027E-01 -0.63555955282E-01  0.12347981625E+00  0.51100000000E-03 0.  1.
         11    1    4    4    0    0  0.69408603544E-02  0.24908991157E-03 -0.56178910220E-02  0.89475923453E-02  0.51100000000E-03 0. -1.
</event>
<event>
 8    1  0.1108957E+005  0.1043930E+01  0.7957747E-01            NaN
         13   -1    0    0    0    0  0.00000000000E+00  0.00000000000E+00  0.74505805969E-08  0.10566000000E+00  0.10566000000E+00 0. -1.
     999900   -1    0    0    0    0 -0.00000000000E+00 -0.00000000000E+00 -0.74505805969E-08  0.93827000000E+00  0.93827000000E+00 0. -1.
     999902    2    1    2    0    0  0.11769146995E-01  0.19264745871E-01  0.63215804504E-02  0.10204863306E+01  0.10202170090E+01 0.  0.
     999903    2    3    3    0    0 -0.10283549038E+00 -0.81034703306E-02  0.76397353226E-01  0.12987201674E+00  0.19732735211E-01 0.  0.
         14    1    1    2    0    0 -0.11769146995E-01 -0.19264745871E-01 -0.63215804504E-02  0.23443669377E-01  0.00000000000E+00 0. -1.
     999901    1    3    3    0    0  0.11460463737E+00  0.27368216202E-01 -0.70075772776E-01  0.89061431388E+00  0.88000000000E+00 0. -1.
        -11    1    4    4    0    0 -0.74255140655E-01  0.22716874129E-02  0.49483058449E-01  0.89262649927E-01  0.51100000000E-03 0. -1.
         11    1    4    4    0    0 -0.28580349724E-01 -0.10375157743E-01  0.26914294777E-01  0.40609366812E-01  0.51100000000E-03 0.  1.
</event>
<event>
 8    1  0.1108957E+005  0.1043930E+01  0.7957747E-01            NaN
         13   -1    0    0    0    0  0.00000000000E+00  0.00000000000E+00  0.74505805969E-08  0.10566000000E+00  0.10566000000E+00 0. -1.
     999900   -1    0    0    0    0 -0.00000000000E+00 -0.00000000000E+00 -0.74505805969E-08  0.93827000000E+00  0.93827000000E+00 0. -1.
     999902    2    1    2    0    0 -0.96964779872E-02 -0.14053469997E-01 -0.16078793074E-01  0.10204768703E+01  0.10202073287E+01 0.  0.
     999903    2    3    3    0    0 -0.10163827827E+00  0.29235149946E-01 -0.77147584210E-01  0.13252608538E+00  0.20648969816E-01 0.  0.
         14    1    1    2    0    0  0.96964779872E-02  0.14053469997E-01  0.16078793074E-01  0.23453129664E-01  0.00000000000E+00 0. -1.
     999901    1    3    3    0    0  0.91941800282E-01 -0.43288619943E-01  0.61068791136E-01  0.88795078496E+00  0.88000000000E+00 0.  1.
        -11    1    4    4    0    0 -0.75433022604E-01  0.30404915089E-01 -0.54898296000E-01  0.98125856865E-01  0.51100000000E-03 0.  1.
         11    1    4    4    0    0 -0.26205255665E-01 -0.11697651425E-02 -0.22249288210E-01  0.34400228514E-01  0.51100000000E-03 0. -1.
</event>
<event>
 8    1  0.1108957E+005  0.1043930E+01  0.7957747E-01            NaN
         13   -1    0    0    0    0  0.00000000000E+00  0.00000000000E+00  0.74505805969E-08  0.10566000000E+00  0.10566000000E+00 0. -1.
     999900   -1    0    0    0    0 -0.00000000000E+00 -0.00000000000E+00 -0.74505805969E-08  0.93827000000E+00  0.93827000000E+00 0.  1.
     999902    2    1    2    0    0  0.13608787715E-01 -0.16071425599E-01 -0.10266185209E-01  0.10205017183E+01  0.10202327542E+01 0.  0.
     999903    2    3    3    0    0 -0.48215411397E-01  0.10915065893E+00  0.42705470553E-01  0.12791626114E+00  0.17326869535E-01 0.  0.
         14    1    1    2    0    0 -0.13608787715E-01  0.16071425599E-01  0.10266185209E-01  0.23428281682E-01  0.00000000000E+00 0. -1.
     999901    1    3    3    0    0  0.61824199111E-01 -0.12522208453E+00 -0.52971655762E-01  0.89258545718E+00  0.88000000000E+00 0. -1.
        -11    1    4    4    0    0 -0.32994135745E-01  0.65730014058E-01  0.18125726251E-01  0.75748602725E-01  0.51100000000E-03 0.  1.
         11    1    4    4    0    0 -0.15221275651E-01  0.43420644873E-01  0.24579744303E-01  0.52167658416E-01  0.51100000000E-03 0. -1.
</event>
<event>
 8    1  0.1108957E+005  0.1043930E+01  0.7957747E-01            NaN
         13   -1    0    0    0    0  0.00000000000E+00  0.00000000000E+00  0.74505805969E-08  0.10566000000E+00  0.10566000000E+00 0.  1.
     999900   -1    0    0    0    0 -0.00000000000E+00 -0.00000000000E+00 -0.74505805969E-08  0.93827000000E+00  0.93827000000E+00 0.  1.
     999902    2    1    2    0    0 -0.15222718884E-01  0.17977822522E-01  0.34218737421E-02  0.10201257463E+01  0.10198479768E+01 0.  0.
     999903    2    3    3    0    0 -0.11953294828E+00 -0.49715289594E-01 -0.76275313936E-02  0.13131470300E+00  0.20630953577E-01 0.  0.
         14    1    1    2    0    0  0.15222718884E-01 -0.17977822522E-01 -0.34218737421E-02  0.23804253669E-01  0.00000000000E+00 0.  1.
     999901    1    3    3    0    0  0.10431022940E+00  0.67693112116E-01  0.11049405136E-01  0.88881104333E+00  0.88000000000E+00 0. -1.
        -11    1    4    4    0    0 -0.73128393458E-01 -0.40145596534E-01 -0.90162406853E-02  0.83910574828E-01  0.51100000000E-03 0.  1.
         11    1    4    4    0    0 -0.46404554824E-01 -0.95696930605E-02  0.13887092916E-02  0.47404128177E-01  0.51100000000E-03 0. -1.
</event>
<event>
 8    1  0.1108957E+005  0.1043930E+01  0.7957747E-01            NaN
         13   -1    0    0    0    0  0.00000000000E+00  0.00000000000E+00  0.74505805969E-08  0.10566000000E+00  0.10566000000E+00 0.  1.
     999900   -1    0    0    0    0 -0.00000000000E+00 -0.00000000000E+00 -0.74505805969E-08  0.93827000000E+00  0.93827000000E+00 0.  1.
     999902    2    1    2    0    0  0.90849545280E-02 -0.60504344312E-02  0.16576760697E-01  0.10240822507E+01  0.10238898980E+01 0.  0.
     999903    2    3    3    0    0 -0.11478571298E+00  0.24406983715E-03  0.65728288373E-01  0.13402638972E+00  0.21611241848E-01 0.  0.
         14    1    1    2    0    0 -0.90849545280E-02  0.60504344312E-02 -0.16576760697E-01  0.19847749263E-01  0.00000000000E+00 0. -1.
     999901    1    3    3    0    0  0.12387066751E+00 -0.62945042683E-02 -0.49151527676E-01  0.89005586101E+00  0.88000000000E+00 0. -1.
        -11    1    4    4    0    0 -0.64065475157E-01 -0.25592197480E-02  0.48459946664E-01  0.80371402032E-01  0.51100000000E-03 0.  1.
         11    1    4    4    0    0 -0.50720237827E-01  0.28032895851E-02  0.17268341709E-01  0.53654987691E-01  0.51100000000E-03 0. -1.
</event>
<event>
 8    1  0.1108957E+005  0.1043930E+01  0.7957747E-01            NaN
         13   -1    0    0    0    0  0.00000000000E+00  0.00000000000E+00  0.74505805969E-08  0.10566000000E+00  0.10566000000E+00 0.  1.
     999900   -1    0    0    0    0 -0.00000000000E+00 -0.00000000000E+00 -0.74505805969E-08  0.93827000000E+00  0.93827000000E+00 0.  1.
     999902    2    1    2    0    0  0.14386906288E-01 -0.86153840422E-02 -0.17535351185E-01  0.10196669323E+01  0.10193782204E+01 0.  0.
     999903    2    3    3    0    0 -0.35250335903E-01  0.50794277749E-01 -0.11379916869E+00  0.13103872751E+00  0.19956264145E-01 0.  0.
         14    1    1    2    0    0 -0.14386906288E-01  0.86153840422E-02  0.17535351185E-01  0.24263067735E-01  0.00000000000E+00 0.  1.
     999901    1    3    3    0    0  0.49637242192E-01 -0.59409661791E-01  0.96263817508E-01  0.88862820476E+00  0.88000000000E+00 0. -1.
        -11    1    4    4    0    0 -0.14974174836E-01  0.15678144667E-01 -0.59052125246E-01  0.62908224814E-01  0.51100000000E-03 0.  1.
         11    1    4    4    0    0 -0.20276161067E-01  0.35116133082E-01 -0.54747043447E-01  0.68130502695E-01  0.51100000000E-03 0. -1.
</event>
<event>
 8    1  0.1108957E+005  0.1043930E+01  0.7957747E-01            NaN
         13   -1    0    0    0    0  0.00000000000E+00  0.00000000000E+00  0.74505805969E-08  0.10566000000E+00  0.10566000000E+00 0.  1.
     999900   -1    0    0    0    0 -0.00000000000E+00 -0.00000000000E+00 -0.74505805969E-08  0.93827000000E+00  0.93827000000E+00 0. -1.
     999902    2    1    2    0    0  0.34638292570E-02  0.29637030477E-01 -0.27328673725E-02  0.10139663511E+01  0.10135235276E+01 0.  0.
     999903    2    3    3    0    0  0.81356948392E-01  0.25795753946E-01  0.90111143107E-01  0.12565215915E+00  0.19597780849E-01 0.  0.
         14    1    1    2    0    0 -0.34638292570E-02 -0.29637030477E-01  0.27328673725E-02  0.29963648855E-01  0.00000000000E+00 0.  1.
     999901    1    3    3    0    0 -0.77893119135E-01  0.38412765320E-02 -0.92844010479E-01  0.88831419199E+00  0.88000000000E+00 0.  1.
        -11    1    4    4    0    0  0.44950703371E-01  0.76778591879E-02  0.36803765011E-01  0.58602845453E-01  0.51100000000E-03 0.  1.
         11    1    4    4    0    0  0.36406245022E-01  0.18117894758E-01  0.53307378096E-01  0.67049313699E-01  0.51100000000E-03 0. -1.
</event>
<event>
 8    1  0.1108957E+005  0.1043930E+01  0.7957747E-01            NaN
         13   -1    0    0    0    0  0.00000000000E+00  0.00000000000E+00  0.74505805969E-08  0.10566000000E+00  0.10566000000E+00 0.  1.
     999900   -1    0    0    0    0 -0.00000000000E+00 -0.00000000000E+00 -0.74505805969E-08  0.93827000000E+00  0.93827000000E+00 0. -1.
     999902    2    1    2    0    0  0.11463636214E-01  0.12052440171E-01 -0.16255292052E-01  0.10206725111E+01  0.10204074991E+01 0.  0.
     999903    2    3    3    0    0  0.80587731927E-01  0.42445626529E-01  0.92001678313E-01  0.13082900914E+00  0.18865499496E-01 0.  0.
         14    1    1    2    0    0 -0.11463636214E-01 -0.12052440171E-01  0.16255292052E-01  0.23257488881E-01  0.00000000000E+00 0.  1.
     999901    1    3    3    0    0 -0.69124095713E-01 -0.30393186358E-01 -0.10825697036E+00  0.88984350198E+00  0.88000000000E+00 0. -1.
        -11    1    4    4    0    0  0.45819388517E-01  0.16887362130E-01  0.39107966781E-01  0.62564315313E-01  0.51100000000E-03 0. -1.
         11    1    4    4    0    0  0.34768343410E-01  0.25558264398E-01  0.52893711531E-01  0.68264693825E-01  0.51100000000E-03 0.  1.
</event>
<event>
 8    1  0.1108957E+005  0.1043930E+01  0.7957747E-01            NaN
         13   -1    0    0    0    0  0.00000000000E+00  0.00000000000E+00  0.74505805969E-08  0.10566000000E+00  0.10566000000E+00 0.  1.
     999900   -1    0    0    0    0 -0.00000000000E+00 -0.00000000000E+00 -0.74505805969E-08  0.93827000000E+00  0.93827000000E+00 0. -1.
     999902    2    1    2    0    0 -0.21166403406E-01 -0.15462829631E-02 -0.11891620109E-01  0.10196026850E+01  0.10193124237E+01 0.  0.
     999903    2    3    3    0    0 -0.48308984002E-01 -0.25696958621E-02 -0.12162509680E+00  0.13237148464E+00  0.19727759690E-01 0.  0.
         14    1    1    2    0    0  0.21166403406E-01  0.15462829631E-02  0.11891620109E-01  0.24327314956E-01  0.00000000000E+00 0.  1.
     999901    1    3    3    0    0  0.27142580596E-01  0.10234128990E-02  0.10973347669E+00  0.88723120040E+00  0.88000000000E+00 0.  1.
        -11    1    4    4    0    0 -0.20482717284E-01  0.42351862823E-02 -0.72942231064E-01  0.75883520634E-01  0.51100000000E-03 0.  1.
         11    1    4    4    0    0 -0.27826266718E-01 -0.68048821445E-02 -0.48682865739E-01  0.56487964010E-01  0.51100000000E-03 0. -1.
</event>
<event>
 8    1  0.1108957E+005  0.1043930E+01  0.7957747E-01            NaN
         13   -1    0    0    0    0  0.00000000000E+00  0.00000000000E+00  0.74505805969E-08  0.10566000000E+00  0.10566000000E+00 0.  1.
     999900   -1    0    0    0    0 -0.00000000000E+00 -0.00000000000E+00 -0.74505805969E-08  0.93827000000E+00  0.93827000000E+00 0.  1.
     999902    2    1    2    0    0  0.11742946085E-01  0.31593880960E-04 -0.20814353598E-01  0.10200315671E+01  0.10197515691E+01 0.  0.
     999903    2    3    3    0    0 -0.10562476811E+00  0.99307075014E-02 -0.72447339915E-01  0.13068397582E+00  0.23968184855E-01 0.  0.
         14    1    1    2    0    0 -0.11742946085E-01 -0.31593880960E-04  0.20814353598E-01  0.23898432933E-01  0.00000000000E+00 0.  1.
     999901    1    3    3    0    0  0.11736771419E+00 -0.98991136205E-02  0.51632986317E-01  0.88934759125E+00  0.88000000000E+00 0.  1.
        -11    1    4    4    0    0 -0.57347913044E-01  0.16191502876E-01 -0.33685385246E-01  0.68453737633E-01  0.51100000000E-03 0.  1.
         11    1    4    4    0    0 -0.48276855065E-01 -0.62607953741E-02 -0.38761954669E-01  0.62230238184E-01  0.51100000000E-03 0. -1.
</event>
<event>
 8    1  0.1108957E+005  0.1043930E+01  0.7957747E-01            NaN
         13   -1    0    0    0    0  0.00000000000E+00  0.00000000000E+00  0.74505805969E-08  0.10566000000E+00  0.10566000000E+00 0.  1.
     999900   -1    0    0    0    0 -0.00000000000E+00 -0.00000000000E+00 -0.74505805969E-08  0.93827000000E+00  0.93827000000E+00 0. -1.
     999902    2    1    2    0    0 -0.21923588629E-01 -0.36474477993E-02  0.62950444214E-02  0.10208307533E+01  0.10205693762E+01 0.  0.
     999903    2    3    3    0    0  0.75667895611E-01 -0.10075613321E+00 -0.22988188974E-01  0.12964519331E+00  0.20049700980E-01 0.  0.
         14    1    1    2    0    0  0.21923588629E-01  0.36474477993E-02 -0.62950444214E-02  0.23099246699E-01  0.00000000000E+00 0. -1.
     999901    1    3    3    0    0 -0.97591484240E-01  0.97108685415E-01  0.29283233396E-01  0.89118555999E+00  0.88000000000E+00 0.  1.
        -11    1    4    4    0    0  0.58687411966E-01 -0.71779968388E-01 -0.24892052651E-01  0.96002352009E-01  0.51100000000E-03 0.  1.
         11    1    4    4    0    0  0.16980483645E-01 -0.28976164826E-01  0.19038636773E-02  0.33642841300E-01  0.51100000000E-03 0. -1.
</event>
<event>
 8    1  0.1108957E+005  0.1043930E+01  0.7957747E-01            NaN
         13   -1    0    0    0    0  0.00000000000E+00  0.00000000000E+00  0.74505805969E-08  0.10566000000E+00  0.10566000000E+00 0. -1.
     999900   -1    0    0    0    0 -0.00000000000E+00 -0.00000000000E+00 -0.74505805969E-08  0.93827000000E+00  0.93827000000E+00 0.  1.
     999902    2    1    2    0    0 -0.46973718613E-02  0.94818656247E-02  0.22476266786E-01  0.10190874227E+01  0.10187845805E+01 0.  0.
     999903    2    3    3    0    0  0.49321541051E-01  0.75161821179E-01 -0.88974659344E-01  0.12799079021E+00  0.19576480720E-01 0.  0.
         14    1    1    2    0    0  0.46973718613E-02 -0.94818656247E-02 -0.22476266786E-01  0.24842577297E-01  0.00000000000E+00 0.  1.
     999901    1    3    3    0    0 -0.54018912912E-01 -0.65679955554E-01  0.11145092613E+00  0.89109663250E+00  0.88000000000E+00 0. -1.
        -11    1    4    4    0    0  0.22503064167E-01  0.21618270964E-01 -0.39292724467E-01  0.50178848666E-01  0.51100000000E-03 0. -1.
         11    1    4    4    0    0  0.26818476883E-01  0.53543550215E-01 -0.49681934877E-01  0.77811941540E-01  0.51100000000E-03 0.  1.
</event>
<event>
 8    1  0.1108957E+005  0.1043930E+01  0.7957747E-01            NaN
         13   -1    0    0    0    0  0.00000000000E+00  0.00000000000E+00  0.74505805969E-08  0.10566000000E+00  0.10566000000E+00 0. -1.
     999900   -1    0    0    0    0 -0.00000000000E+00 -0.00000000000E+00 -0.74505805969E-08  0.93827000000E+00  0.93827000000E+00 0.  1.
     999902    2    1    2    0    0 -0.41844719769E-02 -0.12467285080E-01  0.19888136110E-01  0.10200871612E+01  0.10198084798E+01 0.  0.
     999903    2    3    3    0    0 -0.35058486414E-01  0.11574839826E+00  0.43058554580E-01  0.12995833093E+00  0.20207411660E-01 0.  0.
         14    1    1    2    0    0  0.41844719769E-02  0.12467285080E-01 -0.19888136110E-01  0.23842838776E-01  0.00000000000E+00 0.  1.
     999901    1    3    3    0    0  0.30874014437E-01 -0.12821568334E+00 -0.23170418470E-01  0.89012883029E+00  0.88000000000E+00 0.  1.
        -11    1    4    4    0    0 -0.36619097260E-01  0.10108428228E+00  0.34569700191E-01  0.11293500653E+00  0.51100000000E-03 0. -1.
         11    1    4    4    0    0  0.15606108462E-02  0.14664115988E-01  0.84888543887E-02  0.17023324404E-01  0.51100000000E-03 0.  1.
</event>
<event>
 8    1  0.1108957E+005  0.1043930E+01  0.7957747E-01            NaN
         13   -1    0    0    0    0  0.00000000000E+00  0.00000000000E+00  0.74505805969E-08  0.10566000000E+00  0.10566000000E+00 0. -1.
     999900   -1    0    0    0    0 -0.00000000000E+00 -0.00000000000E+00 -0.74505805969E-08  0.93827000000E+00  0.93827000000E+00 0.  1.
     999902    2    1    2    0    0  0.67869389632E-02 -0.21735250009E-01 -0.57521572391E-02  0.10204444524E+01  0.10201741564E+01 0.  0.
     999903    2    3    3    0    0 -0.10389866857E+00  0.59444856868E-01 -0.43687226592E-01  0.12899586557E+00  0.20068264194E-01 0.  0.
         14    1    1    2    0    0 -0.67869389632E-02  0.21735250009E-01  0.57521572391E-02  0.23485547606E-01  0.00000000000E+00 0.  1.
     999901    1    3    3    0    0  0.11068560753E+00 -0.81180106877E-01  0.37935069353E-01  0.89144858683E+00  0.88000000000E+00 0. -1.
        -11    1    4    4    0    0 -0.36103864215E-01  0.10088856424E-01 -0.14657169532E-01  0.40253792056E-01  0.51100000000E-03 0.  1.
         11    1    4    4    0    0 -0.67794804355E-01  0.49356000444E-01 -0.29030057060E-01  0.88742073512E-01  0.51100000000E-03 0. -1.
</event>
<event>
 8    1  0.1108957E+005  0.1043930E+01  0.7957747E-01            NaN
         13   -1    0    0    0    0  0.00000000000E+00  0.00000000000E+00  0.74505805969E-08  0.10566000000E+00  0.10566000000E+00 0. -1.
     999900   -1    0    0    0    0 -0.00000000000E+00 -0.00000000000E+00 -0.74505805969E-08  0.93827000000E+00  0.93827000000E+00 0.  1.
     999902    2    1    2    0    0  0.24869215402E-02  0.17816073428E-01 -0.15528451949E-01  0.10201659500E+01  0.10198891290E+01 0.  0.
     999903    2    3    3    0    0  0.35123219516E-01 -0.27007998921E-01  0.11878948391E+00  0.12824911910E+00  0.19334490103E-01 0.  0.
         14    1    1    2    0    0 -0.24869215402E-02 -0.17816073428E-01  0.15528451949E-01  0.23764049972E-01  0.00000000000E+00 0.  1.
     999901    1    3    3    0    0 -0.32636297975E-01  0.44824072348E-01 -0.13431793585E+00  0.89191683093E+00  0.88000000000E+00 0.  1.
        -11    1    4    4    0    0  0.37561116594E-01 -0.24822532210E-01  0.11030078353E+00  0.11913655843E+00  0.51100000000E-03 0.  1.
         11    1    4    4    0    0 -0.24378970788E-02 -0.21854667109E-02  0.84887003709E-02  0.91125606664E-02  0.51100000000E-03 0. -1.
</event>
<event>
 8    1  0.1108957E+005  0.1043930E+01  0.7957747E-01            NaN
         13   -1    0    0    0    0  0.00000000000E+00  0.00000000000E+00  0.74505805969E-08  0.10566000000E+00  0.10566000000E+00 0. -1.
     999900   -1    0    0    0    0 -0.00000000000E+00 -0.00000000000E+00 -0.74505805969E-08  0.93827000000E+00  0.93827000000E+00 0. -1.
     999902    2    1    2    0    0  0.15379885189E-01  0.77849042407E-02  0.16100173688E-01  0.10203426900E+01  0.10200700190E+01 0.  0.
     999903    2    3    3    0    0 -0.12518112882E+00 -0.10043495696E-01 -0.16396352668E-01  0.12841709063E+00  0.21234923265E-01 0.  0.
         14    1    1    2    0    0 -0.15379885189E-01 -0.77849042407E-02 -0.16100173688E-01  0.23587310047E-01  0.00000000000E+00 0.  1.
     999901    1    3    3    0    0  0.14056101401E+00  0.17828399936E-01  0.32496526356E-01  0.89192559932E+00  0.88000000000E+00 0.  1.
        -11    1    4    4    0    0 -0.83129409107E-01 -0.14187043181E-01 -0.42156920679E-02  0.84438166923E-01  0.51100000000E-03 0.  1.
         11    1    4    4    0    0 -0.42051719715E-01  0.41435474856E-02 -0.12180660600E-01  0.43978923707E-01  0.51100000000E-03 0. -1.
</event>
<event>
 8    1  0.1108957E+005  0.1043930E+01  0.7957747E-01            NaN
         13   -1    0    0    0    0  0.00000000000E+00  0.00000000000E+00  0.74505805969E-08  0.10566000000E+00  0.10566000000E+00 0.  1.
     999900   -1    0    0    0    0 -0.00000000000E+00 -0.00000000000E+00 -0.74505805969E-08  0.93827000000E+00  0.93827000000E+00 0.  1.
     999902    2    1    2    0    0  0.23415178556E-01  0.50307831147E-02  0.14054626231E-02  0.10199392791E+01  0.10196570886E+01 0.  0.
     999903    2    3    3    0    0 -0.71985357841E-01  0.63920956918E-01  0.83711055574E-01  0.12901642857E+00  0.19233240448E-01 0.  0.
         14    1    1    2    0    0 -0.23415178556E-01 -0.50307831147E-02 -0.14054626231E-02  0.23990720930E-01  0.00000000000E+00 0.  1.
     999901    1    3    3    0    0  0.95400536398E-01 -0.58890173804E-01 -0.82305592951E-01  0.89092285050E+00  0.88000000000E+00 0.  1.
        -11    1    4    4    0    0 -0.24284830639E-01  0.10275371993E-01  0.23314365584E-01  0.35201662352E-01  0.51100000000E-03 0. -1.
         11    1    4    4    0    0 -0.47700527202E-01  0.53645584925E-01  0.60396689990E-01  0.93814766216E-01  0.51100000000E-03 0.  1.
</event>
<event>
 8    1  0.1108957E+005  0.1043930E+01  0.7957747E-01            NaN
         13   -1    0    0    0    0  0.00000000000E+00  0.00000000000E+00  0.74505805969E-08  0.10566000000E+00  0.10566000000E+00 0. -1.
     999900   -1    0    0    0    0 -0.00000000000E+00 -0.00000000000E+00 -0.74505805969E-08  0.93827000000E+00  0.93827000000E+00 0. -1.
     999902    2    1    2    0    0 -0.39916813841E-02 -0.23290993984E-01  0.13278228825E-02  0.10202621519E+01  0.10199875938E+01 0.  0.
     999903    2    3    3    0    0  0.12442579559E+00 -0.34439098086E-01  0.87795411555E-02  0.13084051018E+00  0.19347575453E-01 0.  0.
         14    1    1    2    0    0  0.39916813841E-02  0.23290993984E-01 -0.13278228825E-02  0.23667848121E-01  0.00000000000E+00 0.  1.
     999901    1    3    3    0    0 -0.12841747698E+00  0.11148104102E-01 -0.74517182730E-02  0.88942164170E+00  0.88000000000E+00 0.  1.
        -11    1    4    4    0    0  0.11698629150E+00 -0.30669271140E-01  0.35692538373E-02  0.12099337703E+00  0.51100000000E-03 0.  1.
         11    1    4    4    0    0  0.74395040867E-02 -0.37698269457E-02  0.52102873182E-02  0.98471331460E-02  0.51100000000E-03 0. -1.
</event>
<event>
 8    1  0.1108957E+005  0.1043930E+01  0.7957747E-01            NaN
         13   -1    0    0    0    0  0.00000000000E+00  0.00000000000E+00  0.74505805969E-08  0.10566000000E+00  0.10566000000E+00 0.  1.
     999900   -1    0    0    0    0 -0.00000000000E+00 -0.00000000000E+00 -0.74505805969E-08  0.93827000000E+00  0.93827000000E+00 0. -1.
     999902    2    1    2    0    0 -0.98393669719E-03  0.20090773078E-01 -0.11727874644E-01  0.10206458780E+01  0.10203802516E+01 0.  0.
     999903    2    3    3    0    0 -0.29545380574E-01 -0.77058633356E-01 -0.99098129351E-01  0.13054064564E+00  0.20235079308E-01 0.  0.
         14    1    1    2    0    0  0.98393669719E-03 -0.20090773078E-01  0.11727874644E-01  0.23284122014E-01  0.00000000000E+00 0.  1.
     999901    1    3    3    0    0  0.28561443877E-01  0.97149406434E-01  0.87370254707E-01  0.89010523235E+00  0.88000000000E+00 0.  1.
        -11    1    4    4    0    0 -0.22081393005E-01 -0.40747514563E-01 -0.42521283057E-01  0.62898875141E-01  0.51100000000E-03 0. -1.
         11    1    4    4    0    0 -0.74639875695E-02 -0.36311118793E-01 -0.56576846294E-01  0.67641770497E-01  0.51100000000E-03 0.  1.
</event>
<event>
 8    1  0.1108957E+005  0.1043930E+01  0.7957747E-01            NaN
         13   -1    0    0    0    0  0.00000000000E+00  0.00000000000E+00  0.74505805969E-08  0.10566000000E+00  0.10566000000E+00 0. -1.
     999900   -1    0    0    0    0 -0.00000000000E+00 -0.00000000000E+00 -0.74505805969E-08  0.93827000000E+00  0.93827000000E+00 0. -1.
     999902    2    1    2    0    0 -0.90304603513E-02 -0.21028758614E-01  0.14409945250E-01  0.10168855103E+01  0.10165258170E+01 0.  0.
     999903    2    3    3    0    0  0.10914488896E+00 -0.38826642000E-01 -0.47463992442E-01  0.12665488733E+00  0.19196744324E-01 0.  0.
         14    1    1    2    0    0  0.90304603513E-02  0.21028758614E-01 -0.14409945250E-01  0.27044489736E-01  0.00000000000E+00 0.  1.
     999901    1    3    3    0    0 -0.11817534931E+00  0.17797883386E-01  0.61873937692E-01  0.89023062293E+00  0.88000000000E+00 0.  1.
        -11    1    4    4    0    0  0.66712230735E-01 -0.17598547212E-01 -0.20026507922E-01  0.71843947095E-01  0.51100000000E-03 0. -1.
         11    1    4    4    0    0  0.42432658221E-01 -0.21228094788E-01 -0.27437484521E-01  0.54810940239E-01  0.51100000000E-03 0.  1.
</event>
<event>
 8    1  0.1108957E+005  0.1043930E+01  0.7957747E-01            NaN
         13   -1    0    0    0    0  0.00000000000E+00  0.00000000000E+00  0.74505805969E-08  0.10566000000E+00  0.10566000000E+00 0. -1.
     999900   -1    0    0    0    0 -0.00000000000E+00 -0.00000000000E+00 -0.74505805969E-08  0.93827000000E+00  0.93827000000E+00 0. -1.
     999902    2    1    2    0    0  0.17967373386E-02 -0.20620744628E-01  0.84885053443E-02  0.10215581852E+01  0.10213131878E+01 0.  0.
     999903    2    3    3    0    0  0.41776060379E-01 -0.12594564398E+00  0.65868805044E-02  0.13437427143E+00  0.20137362512E-01 0.  0.
         14    1    1    2    0    0 -0.17967373386E-02  0.20620744628E-01 -0.84885053443E-02  0.22371814792E-01  0.00000000000E+00 0. -1.
     999901    1    3    3    0    0 -0.39979323040E-01  0.10532489935E+00  0.19016248400E-02  0.88718391378E+00  0.88000000000E+00 0.  1.
        -11    1    4    4    0    0  0.13480925777E-01 -0.58053865639E-01 -0.54207599508E-02  0.59846741222E-01  0.51100000000E-03 0. -1.
         11    1    4    4    0    0  0.28295134602E-01 -0.67891778340E-01  0.12007640455E-01  0.74527530206E-01  0.51100000000E-03 0.  1.
</event>
<event>
 8    1  0.1108957E+005  0.1043930E+01  0.7957747E-01            NaN
         13   -1    0    0    0    0  0.00000000000E+00  0.00000000000E+00  0.74505805969E-08  0.10566000000E+00  0.10566000000E+00 0.  1.
     999900   -1    0    0    0    0 -0.00000000000E+00 -0.00000000000E+00 -0.74505805969E-08  0.93827000000E+00  0.93827000000E+00 0. -1.
     999902    2    1    2    0    0  0.15885854746E-01 -0.15410555368E-01  0.30144508408E-02  0.10215932027E+01  0.10213489802E+01 0.  0.
     999903    2    3    3    0    0  0.12208989059E+00 -0.52141312560E-01  0.42128618409E-02  0.13444615634E+00  0.20817369919E-01 0.  0.
         14    1    1    2    0    0 -0.15885854746E-01  0.15410555368E-01 -0.30144508408E-02  0.22336797255E-01  0.00000000000E+00 0. -1.
     999901    1    3    3    0    0 -0.10620403584E+00  0.36730757192E-01 -0.11984110000E-02  0.88714704640E+00  0.88000000000E+00 0.  1.
        -11    1    4    4    0    0  0.81955411393E-01 -0.26551768614E-01 -0.35123456769E-02  0.86222291586E-01  0.51100000000E-03 0. -1.
         11    1    4    4    0    0  0.40134479197E-01 -0.25589543946E-01  0.77252075178E-02  0.48223864756E-01  0.51100000000E-03 0.  1.
</event>
<event>
 8    1  0.1108957E+005  0.1043930E+01  0.7957747E-01            NaN
         13   -1    0    0    0    0  0.00000000000E+00  0.00000000000E+00  0.74505805969E-08  0.10566000000E+00  0.10566000000E+00 0.  1.
     999900   -1    0    0    0    0 -0.00000000000E+00 -0.00000000000E+00 -0.74505805969E-08  0.93827000000E+00  0.93827000000E+00 0.  1.
     999902    2    1    2    0    0 -0.17185648591E-01 -0.15765171221E-01  0.54265263973E-02  0.10199855992E+01  0.10197045103E+01 0.  0.
     999903    2    3    3    0    0  0.10830611048E+00  0.62862723515E-01  0.14305446077E-01  0.12756789283E+00  0.19671957669E-01 0.  0.
         14    1    1    2    0    0  0.17185648591E-01  0.15765171221E-01 -0.54265263973E-02  0.23944400804E-01  0.00000000000E+00 0.  1.
     999901    1    3    3    0    0 -0.12549175907E+00 -0.78627894736E-01 -0.88789196793E-02  0.89241770637E+00  0.88000000000E+00 0. -1.
        -11    1    4    4    0    0  0.86229536815E-01  0.41910659758E-01  0.15411847380E-01  0.97107273576E-01  0.51100000000E-03 0. -1.
         11    1    4    4    0    0  0.22076573663E-01  0.20952063757E-01 -0.11064013035E-02  0.30460619252E-01  0.51100000000E-03 0.  1.
</event>
<event>
 7    1  0.1498484E+005  0.1043930E+01  0.7957747E-01            NaN
         13   -1    0    0    0    0  0.00000000000E+00  0.00000000000E+00  0.74505805969E-08  0.10566000000E+00  0.10566000000E+00 0.  1.
     999900   -1    0    0    0    0 -0.00000000000E+00 -0.00000000000E+00 -0.74505805969E-08  0.93827000000E+00  0.93827000000E+00 0. -1.
     999903    2    1    2    0    0 -0.70764538791E-01  0.32817108939E-01 -0.82595938294E-01  0.11521845150E+00  0.19199477979E-01 0.  0.
         14    1    1    2    0    0 -0.13839173515E-01  0.30232568001E-01  0.22955736546E-01  0.40404167259E-01  0.00000000000E+00 0.  1.
     999901    1    1    2    0    0  0.84603712306E-01 -0.63049676940E-01  0.59640201748E-01  0.88830738124E+00  0.88000000000E+00 0.  1.
        -11    1    3    3    0    0 -0.47308233943E-01  0.11657869240E-01 -0.51069814155E-01  0.70585848106E-01  0.51100000000E-03 0. -1.
         11    1    3    3    0    0 -0.23456304848E-01  0.21159239699E-01 -0.31526124139E-01  0.44632603397E-01  0.51100000000E-03 0.  1.
</event>
<event>
 8    1  0.1108957E+005  0.1043930E+01  0.7957747E-01            NaN
         13   -1    0    0    0    0  0.00000000000E+00  0.00000000000E+00  0.74505805969E-08  0.10566000000E+00  0.10566000000E+00 0. -1.
     999900   -1    0    0    0    0 -0.00000000000E+00 -0.00000000000E+00 -0.74505805969E-08  0.93827000000E+00  0.93827000000E+00 0. -1.
     999902    2    1    2    0    0 -0.37461084632E-02  0.10620719482E-01 -0.20733857971E-01  0.10203349607E+01  0.10200621090E+01 0.  0.
     999903    2    3    3    0    0 -0.75697867508E-01  0.97030287947E-01 -0.45257386370E-01  0.13284125790E+00  0.21296122996E-01 0.  0.
         14    1    1    2    0    0  0.37461084632E-02 -0.10620719482E-01  0.20733857971E-01  0.23595039252E-01  0.00000000000E+00 0. -1.
     999901    1    3    3    0    0  0.71951759045E-01 -0.86409568466E-01  0.24523528399E-01  0.88749370285E+00  0.88000000000E+00 0.  1.
        -11    1    4    4    0    0 -0.23982921040E-01  0.16843278396E-01 -0.77723583967E-02  0.30324036749E-01  0.51100000000E-03 0.  1.
         11    1    4    4    0    0 -0.51714946468E-01  0.80187009552E-01 -0.37485027974E-01  0.10251722115E+00  0.51100000000E-03 0. -1.
</event>
<event>
 8    1  0.1108957E+005  0.1043930E+01  0.7957747E-01            NaN
         13   -1    0    0    0    0  0.00000000000E+00  0.00000000000E+00  0.74505805969E-08  0.10566000000E+00  0.10566000000E+00 0.  1.
     999900   -1    0    0    0    0 -0.00000000000E+00 -0.00000000000E+00 -0.74505805969E-08  0.93827000000E+00  0.93827000000E+00 0. -1.
     999902    2    1    2    0    0  0.90354169917E-02  0.22699920826E-01 -0.26620602705E-04  0.10194979335E+01  0.10192051366E+01 0.  0.
     999903    2    3    3    0    0 -0.39138976422E-01  0.24122097745E-01 -0.12000668792E+00  0.13004978360E+00  0.19940060051E-01 0.  0.
         14    1    1    2    0    0 -0.90354169917E-02 -0.22699920826E-01  0.26620602705E-04  0.24432066519E-01  0.00000000000E+00 0.  1.
     999901    1    3    3    0    0  0.48174393413E-01 -0.14221769187E-02  0.11998006732E+00  0.88944814988E+00  0.88000000000E+00 0.  1.
        -11    1    4    4    0    0 -0.24426747074E-01  0.66661980192E-02 -0.44913104500E-01  0.51561150544E-01  0.51100000000E-03 0. -1.
         11    1    4    4    0    0 -0.14712229348E-01  0.17455899725E-01 -0.75093583420E-01  0.78488633059E-01  0.51100000000E-03 0.  1.
</event>
<event>
 8    1  0.1108957E+005  0.1043930E+01  0.7957747E-01            NaN
         13   -1    0    0    0    0  0.00000000000E+00  0.00000000000E+00  0.74505805969E-08  0.10566000000E+00  0.10566000000E+00 0. -1.
     999900   -1    0    0    0    0 -0.00000000000E+00 -0.00000000000E+00 -0.74505805969E-08  0.93827000000E+00  0.93827000000E+00 0.  1.
     999902    2    1    2    0    0 -0.19789880496E-02 -0.17371489797E-01  0.16410181109E-01  0.10199512783E+01  0.10196693734E+01 0.  0.
     999903    2    3    3    0    0  0.58139811095E-02  0.12641322998E+00  0.34546751664E-02  0.12815386790E+00  0.19934191403E-01 0.  0.
         14    1    1    2    0    0  0.19789880496E-02  0.17371489797E-01 -0.16410181109E-01  0.23978721724E-01  0.00000000000E+00 0. -1.
     999901    1    3    3    0    0 -0.77929691592E-02 -0.14378471978E+00  0.12955505943E-01  0.89179741037E+00  0.88000000000E+00 0.  1.
        -11    1    4    4    0    0 -0.64018321682E-02  0.63472587283E-01  0.52431877102E-02  0.64011756185E-01  0.51100000000E-03 0.  1.
         11    1    4    4    0    0  0.12215813278E-01  0.62940642701E-01 -0.17885125438E-02  0.64142111719E-01  0.51100000000E-03 0. -1.
</event>
<event>
 8    1  0.1108957E+005  0.1043930E+01  0.7957747E-01            NaN
         13   -1    0    0    0    0  0.00000000000E+00  0.00000000000E+00  0.74505805969E-08  0.10566000000E+00  0.10566000000E+00 0. -1.
     999900   -1    0    0    0    0 -0.00000000000E+00 -0.00000000000E+00 -0.74505805969E-08  0.93827000000E+00  0.93827000000E+00 0. -1.
     999902    2    1    2    0    0 -0.74800176157E-02  0.20727906207E-01  0.10977080200E-01  0.10193110429E+01  0.10190136943E+01 0.  0.
     999903    2    3    3    0    0 -0.40402541279E-02  0.84431811400E-01 -0.97125035782E-01  0.13040379971E+00  0.20659718604E-01 0.  0.
         14    1    1    2    0    0  0.74800176157E-02 -0.20727906207E-01 -0.10977080200E-01  0.24618957106E-01  0.00000000000E+00 0.  1.
     999901    1    3    3    0    0 -0.34397634878E-02 -0.63703905193E-01  0.10810211598E+00  0.88890724319E+00  0.88000000000E+00 0.  1.
        -11    1    4    4    0    0 -0.12214284979E-01  0.56446482862E-01 -0.67487664405E-01  0.88827023776E-01  0.51100000000E-03 0.  1.
         11    1    4    4    0    0  0.81740308513E-02  0.27985328537E-01 -0.29637371378E-01  0.41576775932E-01  0.51100000000E-03 0. -1.
</event>
<event>
 8    1  0.1108957E+005  0.1043930E+01  0.7957747E-01            NaN
         13   -1    0    0    0    0  0.00000000000E+00  0.00000000000E+00  0.74505805969E-08  0.10566000000E+00  0.10566000000E+00 0. -1.
     999900   -1    0    0    0    0 -0.00000000000E+00 -0.00000000000E+00 -0.74505805969E-08  0.93827000000E+00  0.93827000000E+00 0.  1.
     999902    2    1    2    0    0  0.99511851951E-02 -0.14514144528E-01  0.16117299160E-01  0.10200667687E+01  0.10197876047E+01 0.  0.
     999903    2    3    3    0    0  0.53958411255E-01 -0.16747754111E-01  0.11877606437E+00  0.13300394842E+00  0.19755996967E-01 0.  0.
         14    1    1    2    0    0 -0.99511851951E-02  0.14514144528E-01 -0.16117299160E-01  0.23863231348E-01  0.00000000000E+00 0. -1.
     999901    1    3    3    0    0 -0.44007226060E-01  0.22336095828E-02 -0.10265876521E+00  0.88706282023E+00  0.88000000000E+00 0.  1.
        -11    1    4    4    0    0  0.36490545381E-01 -0.15945968601E-02  0.67436981971E-01  0.76694917039E-01  0.51100000000E-03 0. -1.
         11    1    4    4    0    0  0.17467865874E-01 -0.15153157251E-01  0.51339082399E-01  0.56309031384E-01  0.51100000000E-03 0.  1.
</event>
<event>
 8    1  0.1108957E+005  0.1043930E+01  0.7957747E-01            NaN
         13   -1    0    0    0    0  0.00000000000E+00  0.00000000000E+00  0.74505805969E-08  0.10566000000E+00  0.10566000000E+00 0. -1.
     999900   -1    0    0    0    0 -0.00000000000E+00 -0.00000000000E+00 -0.74505805969E-08  0.93827000000E+00  0.93827000000E+00 0. -1.
     999902    2    1    2    0    0 -0.21292975824E-01 -0.12092660420E-01  0.34205645158E-02  0.10192050426E+01  0.10189050964E+01 0.  0.
     999903    2    3    3    0    0  0.65746409846E-01  0.12656958295E-01 -0.10723432380E+00  0.12767102612E+00  0.17829798311E-01 0.  0.
         14    1    1    2    0    0  0.21292975824E-01  0.12092660420E-01 -0.34205645158E-02  0.24724957373E-01  0.00000000000E+00 0. -1.
     999901    1    3    3    0    0 -0.87039385669E-01 -0.24749618715E-01  0.11065488832E+00  0.89153401651E+00  0.88000000000E+00 0. -1.
        -11    1    4    4    0    0  0.43736328548E-01  0.15144610224E-01 -0.81374128260E-01  0.93617495826E-01  0.51100000000E-03 0. -1.
         11    1    4    4    0    0  0.22010081298E-01 -0.24876519290E-02 -0.25860195543E-01  0.34053530292E-01  0.51100000000E-03 0.  1.
</event>
<event>
 8    1  0.1108957E+005  0.1043930E+01  0.7957747E-01            NaN
         13   -1    0    0    0    0  0.00000000000E+00  0.00000000000E+00  0.74505805969E-08  0.10566000000E+00  0.10566000000E+00 0. -1.
     999900   -1    0    0    0    0 -0.00000000000E+00 -0.00000000000E+00 -0.74505805969E-08  0.93827000000E+00  0.93827000000E+00 0. -1.
     999902    2    1    2    0    0 -0.15899756842E-01  0.45626276633E-03  0.16935531146E-01  0.10206959160E+01  0.10204314432E+01 0.  0.
     999903    2    3    3    0    0  0.97718318528E-01 -0.13017512078E-01  0.83547495231E-01  0.13079268340E+00  0.20204372678E-01 0.  0.
         14    1    1    2    0    0  0.15899756842E-01 -0.45626276633E-03 -0.16935531146E-01  0.23234083983E-01  0.00000000000E+00 0.  1.
     999901    1    3    3    0    0 -0.11361807537E+00  0.13473774845E-01 -0.66611964086E-01  0.88990323262E+00  0.88000000000E+00 0. -1.
        -11    1    4    4    0    0  0.94025299516E-01 -0.89909054365E-02  0.82020037983E-01  0.12509652706E+00  0.51100000000E-03 0. -1.
         11    1    4    4    0    0  0.36930190127E-02 -0.40266066420E-02  0.15274572480E-02  0.56961563464E-02  0.51100000000E-03 0.  1.
</event>
<event>
 8    1  0.1108957E+005  0.1043930E+01  0.7957747E-01            NaN
         13   -1    0    0    0    0  0.00000000000E+00  0.00000000000E+00  0.74505805969E-08  0.10566000000E+00  0.10566000000E+00 0. -1.
     999900   -1    0    0    0    0 -0.00000000000E+00 -0.00000000000E+00 -0.74505805969E-08  0.93827000000E+00  0.93827000000E+00 0. -1.
     999902    2    1    2    0    0  0.13022172897E-01 -0.12972075143E-01  0.15420206116E-01  0.10199376163E+01  0.10196553862E+01 0.  0.
     999903    2    3    3    0    0 -0.75618153441E-01  0.42487000381E-01 -0.90430926996E-01  0.12744824440E+00  0.23282012645E-01 0.  0.
         14    1    1    2    0    0 -0.13022172897E-01  0.12972075143E-01 -0.15420206116E-01  0.23992383732E-01  0.00000000000E+00 0.  1.
     999901    1    3    3    0    0  0.88640326338E-01 -0.55459075524E-01  0.10585113311E+00  0.89248937187E+00  0.88000000000E+00 0.  1.
        -11    1    4    4    0    0 -0.55875103819E-01  0.41372554645E-01 -0.64536009751E-01  0.94862390758E-01  0.51100000000E-03 0. -1.
         11    1    4    4    0    0 -0.19743049622E-01  0.11144457360E-02 -0.25894917245E-01  0.32585853646E-01  0.51100000000E-03 0.  1.
</event>
<event>
 8    1  0.1108957E+005  0.1043930E+01  0.7957747E-01            NaN
         13   -1    0    0    0    0  0.00000000000E+00  0.00000000000E+00  0.74505805969E-08  0.10566000000E+00  0.10566000000E+00 0. -1.
     999900   -1    0    0    0    0 -0.00000000000E+00 -0.00000000000E+00 -0.74505805969E-08  0.93827000000E+00  0.93827000000E+00 0. -1.
     999902    2    1    2    0    0 -0.18420858783E-01 -0.11349363466E-01  0.10118505792E-01  0.10200444343E+01  0.10197647413E+01 0.  0.
     999903    2    3    3    0    0 -0.73350262107E-01 -0.60574986587E-01  0.90859953595E-01  0.13327525198E+00  0.21381573171E-01 0.  0.
         14    1    1    2    0    0  0.18420858783E-01  0.11349363466E-01 -0.10118505792E-01  0.23885565701E-01  0.00000000000E+00 0. -1.
     999901    1    3    3    0    0  0.54929403323E-01  0.49225623120E-01 -0.80741447803E-01  0.88676918232E+00  0.88000000000E+00 0. -1.
        -11    1    4    4    0    0 -0.54713137014E-01 -0.36229700482E-01  0.71306808554E-01  0.96907381690E-01  0.51100000000E-03 0. -1.
         11    1    4    4    0    0 -0.18637125093E-01 -0.24345286104E-01  0.19553145041E-01  0.36367870288E-01  0.51100000000E-03 0.  1.
</event>
<event>
 7    1  0.1108957E+005  0.1043930E+01  0.7957747E-01            NaN
         13   -1    0    0    0    0  0.00000000000E+00  0.00000000000E+00  0.74505805969E-08  0.10566000000E+00  0.10566000000E+00 0.  1.
     999900   -1    0    0    0    0 -0.00000000000E+00 -0.00000000000E+00 -0.74505805969E-08  0.93827000000E+00  0.93827000000E+00 0. -1.
     999903    2    1    2    0    0  0.91305297879E-01 -0.68214876161E-01 -0.17615469644E-01  0.11711515413E+00  0.20389404223E-01 0.  0.
         14    1    1    2    0    0 -0.23107853542E-01 -0.21411588311E-01 -0.22528967370E-01  0.38729618900E-01  0.00000000000E+00 0. -1.
     999901    1    1    2    0    0 -0.68197444337E-01  0.89626464473E-01  0.40144437014E-01  0.88808522697E+00  0.88000000000E+00 0.  1.
        -11    1    3    3    0    0  0.74047736799E-01 -0.45943800176E-01 -0.17757315511E-01  0.88935276886E-01  0.51100000000E-03 0.  1.
         11    1    3    3    0    0  0.17257561080E-01 -0.22271075985E-01  0.14184586732E-03  0.28179877239E-01  0.51100000000E-03 0. -1.
</event>
<event>
 8    1  0.1108957E+005  0.1043930E+01  0.7957747E-01            NaN
         13   -1    0    0    0    0  0.00000000000E+00  0.00000000000E+00  0.74505805969E-08  0.10566000000E+00  0.10566000000E+00 0.  1.
     999900   -1    0    0    0    0 -0.00000000000E+00 -0.00000000000E+00 -0.74505805969E-08  0.93827000000E+00  0.93827000000E+00 0.  1.
     999902    2    1    2    0    0 -0.14027413037E-01  0.16278856934E-01 -0.47326332136E-02  0.10219261977E+01  0.10216892806E+01 0.  0.
     999903    2    3    3    0    0  0.62848944213E-01 -0.10898788050E+00 -0.23282254015E-01  0.12954409440E+00  0.20279574866E-01 0.  0.
         14    1    1    2    0    0  0.14027413037E-01 -0.16278856934E-01  0.47326332136E-02  0.22003802324E-01  0.00000000000E+00 0.  1.
     999901    1    3    3    0    0 -0.76876357250E-01  0.12526673744E+00  0.18549620801E-01  0.89238210327E+00  0.88000000000E+00 0.  1.
        -11    1    4    4    0    0  0.53620520868E-01 -0.10037579598E+00 -0.15884623168E-01  0.11490449535E+00  0.51100000000E-03 0.  1.
         11    1    4    4    0    0  0.92284233452E-02 -0.86120845198E-02 -0.73976308465E-02  0.14639599050E-01  0.51100000000E-03 0. -1.
</event>
<event>
 8    1  0.1108957E+005  0.1043930E+01  0.7957747E-01            NaN
         13   -1    0    0    0    0  0.00000000000E+00  0.00000000000E+00  0.74505805969E-08  0.10566000000E+00  0.10566000000E+00 0.  1.
     999900   -1    0    0    0    0 -0.00000000000E+00 -0.00000000000E+00 -0.74505805969E-08  0.93827000000E+00  0.93827000000E+00 0. -1.
     999902    2    1    2    0    0  0.16157774783E-02 -0.15728437849E-01  0.18387691793E-01  0.10196791917E+01  0.10193907751E+01 0.  0.
     999903    2    3    3    0    0 -0.29272926482E-01 -0.35113825714E-01  0.12388283109E+00  0.13262838722E+00  0.12387424177E-01 0.  0.
         14    1    1    2    0    0 -0.16157774783E-02  0.15728437849E-01 -0.18387691793E-01  0.24250808306E-01  0.00000000000E+00 0. -1.
     999901    1    3    3    0    0  0.30888703961E-01  0.19385387865E-01 -0.10549513930E+00  0.88705080447E+00  0.88000000000E+00 0. -1.
        -11    1    4    4    0    0 -0.15463058915E-01 -0.24232465949E-01  0.62890905719E-01  0.69150891101E-01  0.51100000000E-03 0.  1.
         11    1    4    4    0    0 -0.13809867567E-01 -0.10881359765E-01  0.60991925371E-01  0.63477496123E-01  0.51100000000E-03 0. -1.
</event>
<event>
 8    1  0.1108957E+005  0.1043930E+01  0.7957747E-01            NaN
         13   -1    0    0    0    0  0.00000000000E+00  0.00000000000E+00  0.74505805969E-08  0.10566000000E+00  0.10566000000E+00 0.  1.
     999900   -1    0    0    0    0 -0.00000000000E+00 -0.00000000000E+00 -0.74505805969E-08  0.93827000000E+00  0.93827000000E+00 0. -1.
     999902    2    1    2    0    0 -0.82780110494E-02  0.46752555434E-02  0.21472996665E-01  0.10204465363E+01  0.10201762889E+01 0.  0.
     999903    2    3    3    0    0  0.96564980842E-01 -0.40899984002E-01  0.76370331300E-01  0.13135549892E+00  0.20596974958E-01 0.  0.
         14    1    1    2    0    0  0.82780110494E-02 -0.46752555434E-02 -0.21472996665E-01  0.23483463695E-01  0.00000000000E+00 0. -1.
     999901    1    3    3    0    0 -0.10484299189E+00  0.45575239546E-01 -0.54897334635E-01  0.88909103738E+00  0.88000000000E+00 0.  1.
        -11    1    4    4    0    0  0.57348876506E-01 -0.25507714773E-01  0.57748810444E-01  0.85291988944E-01  0.51100000000E-03 0. -1.
         11    1    4    4    0    0  0.39216104336E-01 -0.15392269229E-01  0.18621520856E-01  0.46063509976E-01  0.51100000000E-03 0.  1.
</event>
<event>
 8    1  0.1108957E+005  0.1043930E+01  0.7957747E-01            NaN
         13   -1    0    0    0    0  0.00000000000E+00  0.00000000000E+00  0.74505805969E-08  0.10566000000E+00  0.10566000000E+00 0. -1.
     999900   -1    0    0    0    0 -0.00000000000E+00 -0.00000000000E+00 -0.74505805969E-08  0.93827000000E+00  0.93827000000E+00 0. -1.
     999902    2    1    2    0    0  0.68518223355E-02  0.23060191680E-01 -0.15050214150E-02  0.10198263696E+01  0.10195414847E+01 0.  0.
     999903    2    3    3    0    0  0.42321963105E-01 -0.11507378790E+00  0.32470834290E-01  0.12769774323E+00  0.14806529713E-01 0.  0.
         14    1    1    2    0    0 -0.68518223355E-02 -0.23060191680E-01  0.15050214150E-02  0.24103630413E-01  0.00000000000E+00 0. -1.
     999901    1    3    3    0    0 -0.35470140770E-01  0.13813397958E+00 -0.33975855705E-01  0.89212862636E+00  0.88000000000E+00 0.  1.
        -11    1    4    4    0    0  0.15507659438E-01 -0.41298734890E-01  0.44213185525E-02  0.44338269966E-01  0.51100000000E-03 0. -1.
         11    1    4    4    0    0  0.26814303667E-01 -0.73775053012E-01  0.28049515738E-01  0.83359473260E-01  0.51100000000E-03 0.  1.
</event>
<event>
 8    1  0.1108957E+005  0.1043930E+01  0.7957747E-01            NaN
         13   -1    0    0    0    0  0.00000000000E+00  0.00000000000E+00  0.74505805969E-08  0.10566000000E+00  0.10566000000E+00 0.  1.
     999900   -1    0    0    0    0 -0.00000000000E+00 -0.00000000000E+00 -0.74505805969E-08  0.93827000000E+00  0.93827000000E+00 0. -1.
     999902    2    1    2    0    0  0.18747719696E-01  0.12434461231E-01  0.82972629444E-02  0.10199521479E+01  0.10196702637E+01 0.  0.
     999903    2    3    3    0    0  0.12646064277E+00  0.28660646037E-02  0.35812866324E-01  0.13290607442E+00  0.19518061600E-01 0.  0.
         14    1    1    2    0    0 -0.18747719696E-01 -0.12434461231E-01 -0.82972629444E-02  0.23977852120E-01  0.00000000000E+00 0.  1.
     999901    1    3    3    0    0 -0.10771292307E+00  0.95683966274E-02 -0.27515603379E-01  0.88704607346E+00  0.88000000000E+00 0. -1.
        -11    1    4    4    0    0  0.45712564372E-01  0.10158860244E-01  0.10837933388E-01  0.48068314970E-01  0.51100000000E-03 0.  1.
         11    1    4    4    0    0  0.80748078393E-01 -0.72927956401E-02  0.24974932936E-01  0.84837759451E-01  0.51100000000E-03 0. -1.
</event>
<event>
 8    1  0.1108957E+005  0.1043930E+01  0.7957747E-01            NaN
         13   -1    0    0    0    0  0.00000000000E+00  0.00000000000E+00  0.74505805969E-08  0.10566000000E+00  0.10566000000E+00 0.  1.
     999900   -1    0    0    0    0 -0.00000000000E+00 -0.00000000000E+00 -0.74505805969E-08  0.93827000000E+00  0.93827000000E+00 0. -1.
     999902    2    1    2    0    0 -0.93935220827E-03  0.19071846074E-01  0.13596031881E-01  0.10204892283E+01  0.10202199740E+01 0.  0.
     999903    2    3    3    0    0 -0.65026535551E-01  0.10190289937E+00 -0.49410169218E-01  0.13204230707E+00  0.19523186418E-01 0.  0.
         14    1    1    2    0    0  0.93935220827E-03 -0.19071846074E-01 -0.13596031881E-01  0.23440771705E-01  0.00000000000E+00 0. -1.
     999901    1    3    3    0    0  0.64087183343E-01 -0.82831053297E-01  0.63006201099E-01  0.88844692123E+00  0.88000000000E+00 0.  1.
        -11    1    4    4    0    0 -0.33575173164E-01  0.45950599911E-01 -0.13498283656E-01  0.58491150338E-01  0.51100000000E-03 0.  1.
         11    1    4    4    0    0 -0.31451362387E-01  0.55952299460E-01 -0.35911885562E-01  0.73551156731E-01  0.51100000000E-03 0. -1.
</event>
<event>
 8    1  0.1108957E+005  0.1043930E+01  0.7957747E-01            NaN
         13   -1    0    0    0    0  0.00000000000E+00  0.00000000000E+00  0.74505805969E-08  0.10566000000E+00  0.10566000000E+00 0. -1.
     999900   -1    0    0    0    0 -0.00000000000E+00 -0.00000000000E+00 -0.74505805969E-08  0.93827000000E+00  0.93827000000E+00 0.  1.
     999902    2    1    2    0    0 -0.16646069061E-01 -0.67586433836E-02 -0.14446280477E-01  0.10208764559E+01  0.10206161239E+01 0.  0.
     999903    2    3    3    0    0 -0.35335767609E-01  0.39951526510E-01 -0.12075227397E+00  0.13305208755E+00  0.16643478843E-01 0.  0.
         14    1    1    2    0    0  0.16646069061E-01  0.67586433836E-02  0.14446280477E-01  0.23053544092E-01  0.00000000000E+00 0. -1.
     999901    1    3    3    0    0  0.18689698548E-01 -0.46710169894E-01  0.10630599350E+00  0.88782436836E+00  0.88000000000E+00 0. -1.
        -11    1    4    4    0    0 -0.25030981178E-01  0.17604054645E-01 -0.76854727360E-01  0.82724621469E-01  0.51100000000E-03 0. -1.
         11    1    4    4    0    0 -0.10304786431E-01  0.22347471866E-01 -0.43897546613E-01  0.50327466078E-01  0.51100000000E-03 0.  1.
</event>
<event>
 8    1  0.1108957E+005  0.1043930E+01  0.7957747E-01            NaN
         13   -1    0    0    0    0  0.00000000000E+00  0.00000000000E+00  0.74505805969E-08  0.10566000000E+00  0.10566000000E+00 0.  1.
     999900   -1    0    0    0    0 -0.00000000000E+00 -0.00000000000E+00 -0.74505805969E-08  0.93827000000E+00  0.93827000000E+00 0. -1.
     999902    2    1    2    0    0 -0.23829001917E-01  0.36076217912E-03 -0.56985304855E-02  0.10194264343E+01  0.10191319003E+01 0.  0.
     999903    2    3    3    0    0  0.35517230291E-01  0.80985922319E-01 -0.92397637635E-01  0.12951681704E+00  0.20422761702E-01 0.  0.
         14    1    1    2    0    0  0.23829001917E-01 -0.36076217912E-03  0.56985304855E-02  0.24503565687E-01  0.00000000000E+00 0.  1.
     999901    1    3    3    0    0 -0.59346232208E-01 -0.80625160140E-01  0.86699107150E-01  0.88990961727E+00  0.88000000000E+00 0.  1.
        -11    1    4    4    0    0  0.20356204033E-01  0.55865480781E-01 -0.73803972899E-01  0.94776655998E-01  0.51100000000E-03 0. -1.
         11    1    4    4    0    0  0.15161026257E-01  0.25120441537E-01 -0.18593664736E-01  0.34740161047E-01  0.51100000000E-03 0.  1.
</event>
<event>
 8    1  0.1108957E+005  0.1043930E+01  0.7957747E-01            NaN
         13   -1    0    0    0    0  0.00000000000E+00  0.00000000000E+00  0.74505805969E-08  0.10566000000E+00  0.10566000000E+00 0.  1.
     999900   -1    0    0    0    0 -0.00000000000E+00 -0.00000000000E+00 -0.74505805969E-08  0.93827000000E+00  0.93827000000E+00 0. -1.
     999902    2    1    2    0    0 -0.31903573930E-03 -0.85743123026E-02 -0.22379304253E-01  0.10199622326E+01  0.10196805883E+01 0.  0.
     999903    2    3    3    0    0 -0.12614129492E+00 -0.13567669163E-01 -0.25484297441E-01  0.13099327054E+00  0.20348945462E-01 0.  0.
         14    1    1    2    0    0  0.31903573930E-03  0.85743123026E-02  0.22379304253E-01  0.23967767400E-01  0.00000000000E+00 0.  1.
     999901    1    3    3    0    0  0.12582225918E+00  0.49933568606E-02  0.31049931878E-02  0.88896896206E+00  0.88000000000E+00 0.  1.
        -11    1    4    4    0    0 -0.63632550843E-01 -0.16314318165E-01 -0.16938594045E-01  0.67841252886E-01  0.51100000000E-03 0. -1.
         11    1    4    4    0    0 -0.62508744076E-01  0.27466490018E-02 -0.85457033956E-02  0.63152017658E-01  0.51100000000E-03 0.  1.
</event>
<event>
 8    1  0.1212158E+005  0.1043930E+01  0.7957747E-01            NaN
         13   -1    0    0    0    0  0.00000000000E+00  0.00000000000E+00  0.74505805969E-08  0.10566000000E+00  0.10566000000E+00 0. -1.
     999900   -1    0    0    0    0 -0.00000000000E+00 -0.00000000000E+00 -0.74505805969E-08  0.93827000000E+00  0.93827000000E+00 0. -1.
     999902    2    1    2    0    0 -0.29452409871E-02  0.10751519590E-01 -0.29516150488E-01  0.10123788866E+01  0.10118871169E+01 0.  0.
     999903    2    3    3    0    0 -0.84908080374E-01 -0.41777947059E-01  0.72877334066E-01  0.12110918690E+00  0.20038721442E-01 0.  0.
         14    1    1    2    0    0  0.29452409871E-02 -0.10751519590E-01  0.29516150488E-01  0.31551113413E-01  0.00000000000E+00 0. -1.
     999901    1    3    3    0    0  0.81962839387E-01  0.52529466649E-01 -0.10239348455E+00  0.89126969969E+00  0.88000000000E+00 0. -1.
        -11    1    4    4    0    0 -0.52034222025E-01 -0.23217296915E-01  0.55513476305E-01  0.79552563191E-01  0.51100000000E-03 0. -1.
         11    1    4    4    0    0 -0.32873858349E-01 -0.18560650144E-01  0.17363857762E-01  0.41556623706E-01  0.51100000000E-03 0.  1.
</event>
<event>
 8    1  0.1108957E+005  0.1043930E+01  0.7957747E-01            NaN
         13   -1    0    0    0    0  0.00000000000E+00  0.00000000000E+00  0.74505805969E-08  0.10566000000E+00  0.10566000000E+00 0.  1.
     999900   -1    0    0    0    0 -0.00000000000E+00 -0.00000000000E+00 -0.74505805969E-08  0.93827000000E+00  0.93827000000E+00 0. -1.
     999902    2    1    2    0    0 -0.15690018935E-01 -0.15374933108E-01  0.10161642020E-01  0.10197261939E+01  0.10194389076E+01 0.  0.
     999903    2    3    3    0    0  0.27000427006E-01 -0.11148245512E+00  0.62051471879E-01  0.13194711978E+00  0.20057327763E-01 0.  0.
         14    1    1    2    0    0  0.15690018935E-01  0.15374933108E-01 -0.10161642020E-01  0.24203806122E-01  0.00000000000E+00 0. -1.
     999901    1    3    3    0    0 -0.42690445941E-01  0.96107522016E-01 -0.51889829859E-01  0.88777907410E+00  0.88000000000E+00 0. -1.
        -11    1    4    4    0    0  0.22062156160E-01 -0.93739113208E-01  0.59866487896E-01  0.11339319897E+00  0.51100000000E-03 0.  1.
         11    1    4    4    0    0  0.49382708462E-02 -0.17743341916E-01  0.21849839829E-02  0.18553920807E-01  0.51100000000E-03 0. -1.
</event>
<event>
 8    1  0.1108957E+005  0.1043930E+01  0.7957747E-01            NaN
         13   -1    0    0    0    0  0.00000000000E+00  0.00000000000E+00  0.74505805969E-08  0.10566000000E+00  0.10566000000E+00 0.  1.
     999900   -1    0    0    0    0 -0.00000000000E+00 -0.00000000000E+00 -0.74505805969E-08  0.93827000000E+00  0.93827000000E+00 0.  1.
     999902    2    1    2    0    0  0.46588710546E-02  0.97825644092E-02  0.20790139174E-01  0.10204857356E+01  0.10202164001E+01 0.  0.
     999903    2    3    3    0    0 -0.11451890758E+00 -0.70497988199E-02 -0.54794063223E-01  0.12908254792E+00  0.22262860473E-01 0.  0.
         14    1    1    2    0    0 -0.46588710546E-02 -0.97825644092E-02 -0.20790139174E-01  0.23444264390E-01  0.00000000000E+00 0. -1.
     999901    1    3    3    0    0  0.11917777863E+00  0.16832363229E-01  0.75584202397E-01  0.89140318769E+00  0.88000000000E+00 0. -1.
        -11    1    4    4    0    0 -0.61459272800E-01  0.65577168694E-02 -0.33547627008E-01  0.70327450277E-01  0.51100000000E-03 0.  1.
         11    1    4    4    0    0 -0.53059634779E-01 -0.13607515689E-01 -0.21246436215E-01  0.58755097643E-01  0.51100000000E-03 0. -1.
</event>
<event>
 8    1  0.1108957E+005  0.1043930E+01  0.7957747E-01            NaN
         13   -1    0    0    0    0  0.00000000000E+00  0.00000000000E+00  0.74505805969E-08  0.10566000000E+00  0.10566000000E+00 0.  1.
     999900   -1    0    0    0    0 -0.00000000000E+00 -0.00000000000E+00 -0.74505805969E-08  0.93827000000E+00  0.93827000000E+00 0.  1.
     999902    2    1    2    0    0 -0.97291458674E-02  0.21204569753E-01  0.72196300614E-02  0.10195084293E+01  0.10192158870E+01 0.  0.
     999903    2    3    3    0    0  0.11968381157E+00  0.20404844259E-01 -0.38603732254E-01  0.12886364395E+00  0.19365385840E-01 0.  0.
         14    1    1    2    0    0  0.97291458674E-02 -0.21204569753E-01 -0.72196300614E-02  0.24421570710E-01  0.00000000000E+00 0.  1.
     999901    1    3    3    0    0 -0.12941295743E+00  0.79972549411E-03  0.45823362315E-01  0.89064478534E+00  0.88000000000E+00 0. -1.
        -11    1    4    4    0    0  0.87093643011E-01  0.85566095033E-02 -0.21128677757E-01  0.90028886275E-01  0.51100000000E-03 0. -1.
         11    1    4    4    0    0  0.32590168556E-01  0.11848234756E-01 -0.17475054497E-01  0.38834757679E-01  0.51100000000E-03 0.  1.
</event>
<event>
 8    1  0.1108957E+005  0.1043930E+01  0.7957747E-01            NaN
         13   -1    0    0    0    0  0.00000000000E+00  0.00000000000E+00  0.74505805969E-08  0.10566000000E+00  0.10566000000E+00 0.  1.
     999900   -1    0    0    0    0 -0.00000000000E+00 -0.00000000000E+00 -0.74505805969E-08  0.93827000000E+00  0.93827000000E+00 0. -1.
     999902    2    1    2    0    0 -0.13737674792E-01  0.76898135976E-02  0.18208563294E-01  0.10198590898E+01  0.10195749871E+01 0.  0.
     999903    2    3    3    0    0 -0.99738769498E-01 -0.15303995352E-01  0.83967521417E-01  0.13292665485E+00  0.20902547766E-01 0.  0.
         14    1    1    2    0    0  0.13737674792E-01 -0.76898135976E-02 -0.18208563294E-01  0.24070910225E-01  0.00000000000E+00 0. -1.
     999901    1    3    3    0    0  0.86001094706E-01  0.22993808949E-01 -0.65758958123E-01  0.88693243492E+00  0.88000000000E+00 0. -1.
        -11    1    4    4    0    0 -0.30178916319E-01 -0.13646095828E-01  0.22118409782E-01  0.39830492011E-01  0.51100000000E-03 0.  1.
         11    1    4    4    0    0 -0.69559853179E-01 -0.16578995233E-02  0.61849111635E-01  0.93096162843E-01  0.51100000000E-03 0. -1.
</event>
<event>
 8    1  0.1108957E+005  0.1043930E+01  0.7957747E-01            NaN
         13   -1    0    0    0    0  0.00000000000E+00  0.00000000000E+00  0.74505805969E-08  0.10566000000E+00  0.10566000000E+00 0. -1.
     999900   -1    0    0    0    0 -0.00000000000E+00 -0.00000000000E+00 -0.74505805969E-08  0.93827000000E+00  0.93827000000E+00 0. -1.
     999902    2    1    2    0    0  0.21700591594E-01  0.48423311611E-02  0.68506545829E-02  0.10206642459E+01  0.10203990433E+01 0.  0.
     999903    2    3    3    0    0 -0.10886366458E+00 -0.52700776277E-01 -0.36768823965E-01  0.12810562421E+00  0.20746933573E-01 0.  0.
         14    1    1    2    0    0 -0.21700591594E-01 -0.48423311611E-02 -0.68506545829E-02  0.23265754121E-01  0.00000000000E+00 0.  1.
     999901    1    3    3    0    0  0.13056425618E+00  0.57543107438E-01  0.43619478548E-01  0.89255862167E+00  0.88000000000E+00 0.  1.
        -11    1    4    4    0    0 -0.51073868853E-01 -0.33048961667E-01 -0.25824327440E-01  0.66090324221E-01  0.51100000000E-03 0.  1.
         11    1    4    4    0    0 -0.57789795729E-01 -0.19651814609E-01 -0.10944496525E-01  0.62015299991E-01  0.51100000000E-03 0. -1.
</event>
<event>
 8    1  0.1108957E+005  0.1043930E+01  0.7957747E-01            NaN
         13   -1    0    0    0    0  0.00000000000E+00  0.00000000000E+00  0.74505805969E-08  0.10566000000E+00  0.10566000000E+00 0.  1.
     999900   -1    0    0    0    0 -0.00000000000E+00 -0.00000000000E+00 -0.74505805969E-08  0.93827000000E+00  0.93827000000E+00 0. -1.
     999902    2    1    2    0    0  0.11901733106E-01 -0.18227736449E-01  0.94653301753E-02  0.10201919693E+01  0.10199157613E+01 0.  0.
     999903    2    3    3    0    0  0.31495040744E-01  0.89718265888E-01 -0.84122572991E-01  0.12845493812E+00  0.19564227968E-01 0.  0.
         14    1    1    2    0    0 -0.11901733106E-01  0.18227736449E-01 -0.94653301753E-02  0.23738030717E-01  0.00000000000E+00 0. -1.
     999901    1    3    3    0    0 -0.19593307638E-01 -0.10794600234E+00  0.93587903166E-01  0.89173703116E+00  0.88000000000E+00 0. -1.
        -11    1    4    4    0    0  0.20479269081E-01  0.43435487669E-01 -0.53405809441E-01  0.71822584569E-01  0.51100000000E-03 0. -1.
         11    1    4    4    0    0  0.11015771662E-01  0.46282778219E-01 -0.30716763550E-01  0.56632353553E-01  0.51100000000E-03 0.  1.
</event>
<event>
 8    1  0.1108957E+005  0.1043930E+01  0.7957747E-01            NaN
         13   -1    0    0    0    0  0.00000000000E+00  0.00000000000E+00  0.74505805969E-08  0.10566000000E+00  0.10566000000E+00 0.  1.
     999900   -1    0    0    0    0 -0.00000000000E+00 -0.00000000000E+00 -0.74505805969E-08  0.93827000000E+00  0.93827000000E+00 0. -1.
     999902    2    1    2    0    0  0.94806369244E-02 -0.21930569047E-01  0.62634837160E-02  0.10192305352E+01  0.10189312147E+01 0.  0.
     999903    2    3    3    0    0  0.44980425332E-01 -0.11201989456E+00  0.51720475711E-01  0.13275286501E+00  0.19406703003E-01 0.  0.
         14    1    1    2    0    0 -0.94806369244E-02  0.21930569047E-01 -0.62634837160E-02  0.24699464842E-01  0.00000000000E+00 0. -1.
     999901    1    3    3    0    0 -0.35499788407E-01  0.90089325509E-01 -0.45456991995E-01  0.88647767015E+00  0.88000000000E+00 0.  1.
        -11    1    4    4    0    0  0.94698615042E-02 -0.88552414237E-02  0.77929251960E-02  0.15135533743E-01  0.51100000000E-03 0. -1.
         11    1    4    4    0    0  0.35510563827E-01 -0.10316465313E+00  0.43927550515E-01  0.11761733127E+00  0.51100000000E-03 0.  1.
</event>
<event>
 8    1  0.1108957E+005  0.1043930E+01  0.7957747E-01            NaN
         13   -1    0    0    0    0  0.00000000000E+00  0.00000000000E+00  0.74505805969E-08  0.10566000000E+00  0.10566000000E+00 0.  1.
     999900   -1    0    0    0    0 -0.00000000000E+00 -0.00000000000E+00 -0.74505805969E-08  0.93827000000E+00  0.93827000000E+00 0. -1.
     999902    2    1    2    0    0  0.86213336149E-02 -0.10839537530E-02 -0.25928888012E-01  0.10165838927E+01  0.10162160210E+01 0.  0.
     999903    2    3    3    0    0 -0.84500079931E-01  0.48340134383E-01 -0.81488785410E-01  0.12855166339E+00  0.20200888921E-01 0.  0.
         14    1    1    2    0    0 -0.86213336149E-02  0.10839537530E-02  0.25928888012E-01  0.27346107266E-01  0.00000000000E+00 0.  1.
     999901    1    3    3    0    0  0.93121413546E-01 -0.49424088136E-01  0.55559897398E-01  0.88803222934E+00  0.88000000000E+00 0. -1.
        -11    1    4    4    0    0 -0.54338466687E-01  0.19805303690E-01 -0.49675510621E-01  0.76241960183E-01  0.51100000000E-03 0. -1.
         11    1    4    4    0    0 -0.30161613245E-01  0.28534830693E-01 -0.31813274789E-01  0.52309703211E-01  0.51100000000E-03 0.  1.
</event>
<event>
 8    1  0.1108957E+005  0.1043930E+01  0.7957747E-01            NaN
         13   -1    0    0    0    0  0.00000000000E+00  0.00000000000E+00  0.74505805969E-08  0.10566000000E+00  0.10566000000E+00 0.  1.
     999900   -1    0    0    0    0 -0.00000000000E+00 -0.00000000000E+00 -0.74505805969E-08  0.93827000000E+00  0.93827000000E+00 0.  1.
     999902    2    1    2    0    0  0.18107115369E-01 -0.18899763161E-02 -0.16165900077E-01  0.10195830092E+01  0.10192922724E+01 0.  0.
     999903    2    3    3    0    0  0.97207196613E-01  0.72900287206E-01  0.43702696190E-01  0.13085658602E+00  0.21209184402E-01 0.  0.
         14    1    1    2    0    0 -0.18107115369E-01  0.18899763161E-02  0.16165900077E-01  0.24346990836E-01  0.00000000000E+00 0.  1.
     999901    1    3    3    0    0 -0.79100081244E-01 -0.74790263523E-01 -0.59868596267E-01  0.88872642314E+00  0.88000000000E+00 0.  1.
        -11    1    4    4    0    0  0.52513729259E-01  0.29556437157E-01  0.29029051640E-01  0.66889623247E-01  0.51100000000E-03 0. -1.
         11    1    4    4    0    0  0.44693467355E-01  0.43343850050E-01  0.14673644550E-01  0.63966962775E-01  0.51100000000E-03 0.  1.
</event>
<event>
 8    1  0.1108957E+005  0.1043930E+01  0.7957747E-01            NaN
         13   -1    0    0    0    0  0.00000000000E+00  0.00000000000E+00  0.74505805969E-08  0.10566000000E+00  0.10566000000E+00 0.  1.
     999900   -1    0    0    0    0 -0.00000000000E+00 -0.00000000000E+00 -0.74505805969E-08  0.93827000000E+00  0.93827000000E+00 0.  1.
     999902    2    1    2    0    0  0.23145734152E-01  0.44836781994E-02 -0.27891217562E-02  0.10201895792E+01  0.10199133149E+01 0.  0.
     999903    2    3    3    0    0 -0.91574108706E-01  0.87972410088E-01 -0.79594139654E-02  0.12880989432E+00  0.20091647055E-01 0.  0.
         14    1    1    2    0    0 -0.23145734152E-01 -0.44836781994E-02  0.27891217562E-02  0.23740420801E-01  0.00000000000E+00 0.  1.
     999901    1    3    3    0    0  0.11471984286E+00 -0.83488731889E-01  0.51702922092E-02  0.89137968488E+00  0.88000000000E+00 0.  1.
        -11    1    4    4    0    0 -0.37019037315E-01  0.36871431773E-01 -0.13142824458E-01  0.53878628049E-01  0.51100000000E-03 0.  1.
         11    1    4    4    0    0 -0.54555071391E-01  0.51100978315E-01  0.51834104925E-02  0.74931266268E-01  0.51100000000E-03 0. -1.
</event>
<event>
 8    1  0.1108957E+005  0.1043930E+01  0.7957747E-01            NaN
         13   -1    0    0    0    0  0.00000000000E+00  0.00000000000E+00  0.74505805969E-08  0.10566000000E+00  0.10566000000E+00 0. -1.
     999900   -1    0    0    0    0 -0.00000000000E+00 -0.00000000000E+00 -0.74505805969E-08  0.93827000000E+00  0.93827000000E+00 0. -1.
     999902    2    1    2    0    0  0.60207023886E-02 -0.19888121810E-01  0.10299031645E-01  0.10207382709E+01  0.10204747725E+01 0.  0.
     999903    2    3    3    0    0 -0.18345426360E-01 -0.13075695817E+00  0.41209087397E-02  0.13342559978E+00  0.18747586784E-01 0.  0.
         14    1    1    2    0    0 -0.60207023886E-02  0.19888121810E-01 -0.10299031645E-01  0.23191729112E-01  0.00000000000E+00 0.  1.
     999901    1    3    3    0    0  0.24366128749E-01  0.11086883636E+00  0.61781229049E-02  0.88731267111E+00  0.88000000000E+00 0.  1.
        -11    1    4    4    0    0 -0.46003915093E-02 -0.47446551628E-01  0.10263995767E-01  0.48764224525E-01  0.51100000000E-03 0. -1.
         11    1    4    4    0    0 -0.13745034851E-01 -0.83310406540E-01 -0.61430870268E-02  0.84661375255E-01  0.51100000000E-03 0.  1.
</event>
<event>
 8    1  0.1108957E+005  0.1043930E+01  0.7957747E-01            NaN
         13   -1    0    0    0    0  0.00000000000E+00  0.00000000000E+00  0.74505805969E-08  0.10566000000E+00  0.10566000000E+00 0.  1.
     999900   -1    0    0    0    0 -0.00000000000E+00 -0.00000000000E+00 -0.74505805969E-08  0.93827000000E+00  0.93827000000E+00 0.  1.
     999902    2    1    2    0    0 -0.17212099621E-01 -0.18513371525E-02 -0.14160454952E-01  0.10215647970E+01  0.10213199460E+01 0.  0.
     999903    2    3    3    0    0 -0.98497414604E-01  0.46307372107E-01 -0.76104983399E-01  0.13434233990E+00  0.20243082668E-01 0.  0.
         14    1    1    2    0    0  0.17212099621E-01  0.18513371525E-02  0.14160454952E-01  0.22365203042E-01  0.00000000000E+00 0.  1.
     999901    1    3    3    0    0  0.81285314982E-01 -0.48158709259E-01  0.61944528447E-01  0.88722245706E+00  0.88000000000E+00 0. -1.
        -11    1    4    4    0    0 -0.49844631028E-01  0.12793094336E-01 -0.39069014632E-01  0.64612688617E-01  0.51100000000E-03 0. -1.
         11    1    4    4    0    0 -0.48652783575E-01  0.33514277771E-01 -0.37035968767E-01  0.69729651280E-01  0.51100000000E-03 0.  1.
</event>
<event>
 8    1  0.1108957E+005  0.1043930E+01  0.7957747E-01            NaN
         13   -1    0    0    0    0  0.00000000000E+00  0.00000000000E+00  0.74505805969E-08  0.10566000000E+00  0.10566000000E+00 0. -1.
     999900   -1    0    0    0    0 -0.00000000000E+00 -0.00000000000E+00 -0.74505805969E-08  0.93827000000E+00  0.93827000000E+00 0. -1.
     999902    2    1    2    0    0 -0.14454206304E-01 -0.86315166123E-02  0.16456736107E-01  0.10203874572E+01  0.10201158324E+01 0.  0.
     999903    2    3    3    0    0 -0.13270812603E-01 -0.12968065952E+00  0.56693439027E-02  0.13203467633E+00  0.20194711526E-01 0.  0.
         14    1    1    2    0    0  0.14454206304E-01  0.86315166123E-02 -0.16456736107E-01  0.23542542815E-01  0.00000000000E+00 0.  1.
     999901    1    3    3    0    0 -0.11833937005E-02  0.12104914291E+00  0.10787392204E-01  0.88835278085E+00  0.88000000000E+00 0. -1.
        -11    1    4    4    0    0 -0.21345906187E-02 -0.91208907923E-01 -0.19782890075E-02  0.91256759256E-01  0.51100000000E-03 0.  1.
         11    1    4    4    0    0 -0.11136221985E-01 -0.38471751595E-01  0.76476329103E-02  0.40777917076E-01  0.51100000000E-03 0. -1.
</event>
<event>
 8    1  0.1108957E+005  0.1043930E+01  0.7957747E-01            NaN
         13   -1    0    0    0    0  0.00000000000E+00  0.00000000000E+00  0.74505805969E-08  0.10566000000E+00  0.10566000000E+00 0.  1.
     999900   -1    0    0    0    0 -0.00000000000E+00 -0.00000000000E+00 -0.74505805969E-08  0.93827000000E+00  0.93827000000E+00 0.  1.
     999902    2    1    2    0    0 -0.43772009282E-02  0.22861030466E-01 -0.42927030164E-02  0.10202611618E+01  0.10199865805E+01 0.  0.
     999903    2    3    3    0    0 -0.11251673909E+00  0.63857039336E-01 -0.18936390885E-01  0.13257356471E+00  0.21895778374E-01 0.  0.
         14    1    1    2    0    0  0.43772009282E-02 -0.22861030466E-01  0.42927030164E-02  0.23668838187E-01  0.00000000000E+00 0. -1.
     999901    1    3    3    0    0  0.10813953817E+00 -0.40996008870E-01  0.14643687868E-01  0.88768759710E+00  0.88000000000E+00 0. -1.
        -11    1    4    4    0    0 -0.64386410905E-01  0.24091495601E-01 -0.11377469431E-01  0.69682982149E-01  0.51100000000E-03 0.  1.
         11    1    4    4    0    0 -0.48130328190E-01  0.39765543735E-01 -0.75589214542E-02  0.62890582560E-01  0.51100000000E-03 0. -1.
</event>
<event>
 8    1  0.1108957E+005  0.1043930E+01  0.7957747E-01            NaN
         13   -1    0    0    0    0  0.00000000000E+00  0.00000000000E+00  0.74505805969E-08  0.10566000000E+00  0.10566000000E+00 0.  1.
     999900   -1    0    0    0    0 -0.00000000000E+00 -0.00000000000E+00 -0.74505805969E-08  0.93827000000E+00  0.93827000000E+00 0.  1.
     999902    2    1    2    0    0 -0.67285731810E-02 -0.11694612436E-01 -0.20544580058E-01  0.10193511996E+01  0.10190548321E+01 0.  0.
     999903    2    3    3    0    0 -0.70661122968E-01 -0.15831367032E-01  0.10407471409E+00  0.12826509150E+00  0.19410334918E-01 0.  0.
         14    1    1    2    0    0  0.67285731810E-02  0.11694612436E-01  0.20544580058E-01  0.24578800354E-01  0.00000000000E+00 0.  1.
     999901    1    3    3    0    0  0.63932549787E-01  0.41367545959E-02 -0.12461929415E+00  0.89108610815E+00  0.88000000000E+00 0.  1.
        -11    1    4    4    0    0 -0.22386898122E-01 -0.13878770326E-01  0.42400974306E-01  0.49918906402E-01  0.51100000000E-03 0. -1.
         11    1    4    4    0    0 -0.48274224847E-01 -0.19525967060E-02  0.61673739789E-01  0.78346185095E-01  0.51100000000E-03 0.  1.
</event>
<event>
 8    1  0.1108957E+005  0.1043930E+01  0.7957747E-01            NaN
         13   -1    0    0    0    0  0.00000000000E+00  0.00000000000E+00  0.74505805969E-08  0.10566000000E+00  0.10566000000E+00 0.  1.
     999900   -1    0    0    0    0 -0.00000000000E+00 -0.00000000000E+00 -0.74505805969E-08  0.93827000000E+00  0.93827000000E+00 0.  1.
     999902    2    1    2    0    0  0.25285950048E-01  0.53402107372E-03  0.15101673005E-02  0.10185933654E+01  0.10182782031E+01 0.  0.
     999903    2    3    3    0    0 -0.11089807787E+00  0.50371484374E-01  0.27412169956E-01  0.12634856941E+00  0.19412980580E-01 0.  0.
         14    1    1    2    0    0 -0.25285950048E-01 -0.53402107372E-03 -0.15101673005E-02  0.25336634615E-01  0.00000000000E+00 0.  1.
     999901    1    3    3    0    0  0.13618402792E+00 -0.49837463300E-01 -0.25902002655E-01  0.89224479598E+00  0.88000000000E+00 0.  1.
        -11    1    4    4    0    0 -0.65632997445E-01  0.28992906616E-01  0.63422829188E-02  0.72033080327E-01  0.51100000000E-03 0. -1.
         11    1    4    4    0    0 -0.45265080429E-01  0.21378577758E-01  0.21069887037E-01  0.54315489079E-01  0.51100000000E-03 0.  1.
</event>
<event>
 8    1  0.1108957E+005  0.1043930E+01  0.7957747E-01            NaN
         13   -1    0    0    0    0  0.00000000000E+00  0.00000000000E+00  0.74505805969E-08  0.10566000000E+00  0.10566000000E+00 0.  1.
     999900   -1    0    0    0    0 -0.00000000000E+00 -0.00000000000E+00 -0.74505805969E-08  0.93827000000E+00  0.93827000000E+00 0.  1.
     999902    2    1    2    0    0  0.59666704093E-02  0.11685120922E-01  0.19438225289E-01  0.10204781811E+01  0.10202086700E+01 0.  0.
     999903    2    3    3    0    0 -0.12301452929E+00  0.19173004583E-01  0.34869612534E-01  0.13091067609E+00  0.20531359314E-01 0.  0.
         14    1    1    2    0    0 -0.59666704093E-02 -0.11685120922E-01 -0.19438225289E-01  0.23451818887E-01  0.00000000000E+00 0. -1.
     999901    1    3    3    0    0  0.12898119970E+00 -0.74878836607E-02 -0.15431387245E-01  0.88956750502E+00  0.88000000000E+00 0.  1.
        -11    1    4    4    0    0 -0.85097807352E-01  0.40910783511E-02  0.20340157222E-01  0.87591990815E-01  0.51100000000E-03 0.  1.
         11    1    4    4    0    0 -0.37916721938E-01  0.15081926231E-01  0.14529455312E-01  0.43318685276E-01  0.51100000000E-03 0. -1.
</event>
<event>
 8    1  0.1108957E+005  0.1043930E+01  0.7957747E-01            NaN
         13   -1    0    0    0    0  0.00000000000E+00  0.00000000000E+00  0.74505805969E-08  0.10566000000E+00  0.10566000000E+00 0. -1.
     999900   -1    0    0    0    0 -0.00000000000E+00 -0.00000000000E+00 -0.74505805969E-08  0.93827000000E+00  0.93827000000E+00 0. -1.
     999902    2    1    2    0    0 -0.16796847176E-01 -0.77063676276E-02 -0.66750559054E-02  0.10242811184E+01  0.10240926379E+01 0.  0.
     999903    2    3    3    0    0  0.22472200382E-01 -0.13152604805E+00 -0.40253681421E-02  0.13474169139E+00  0.18303516153E-01 0.  0.
         14    1    1    2    0    0  0.16796847176E-01  0.77063676276E-02  0.66750559054E-02  0.19648881607E-01  0.00000000000E+00 0.  1.
     999901    1    3    3    0    0 -0.39269047558E-01  0.12381968042E+00 -0.26496877633E-02  0.88953942701E+00  0.88000000000E+00 0.  1.
        -11    1    4    4    0    0  0.45370945172E-02 -0.21116282764E-01 -0.73892452194E-02  0.22832973751E-01  0.51100000000E-03 0.  1.
         11    1    4    4    0    0  0.17935105865E-01 -0.11040976528E+00  0.33638770773E-02  0.11190871763E+00  0.51100000000E-03 0. -1.
</event>
<event>
 8    1  0.1108957E+005  0.1043930E+01  0.7957747E-01            NaN
         13   -1    0    0    0    0  0.00000000000E+00  0.00000000000E+00  0.74505805969E-08  0.10566000000E+00  0.10566000000E+00 0.  1.
     999900   -1    0    0    0    0 -0.00000000000E+00 -0.00000000000E+00 -0.74505805969E-08  0.93827000000E+00  0.93827000000E+00 0.  1.
     999902    2    1    2    0    0 -0.11930479088E-01  0.18742423955E-01  0.57136320605E-03  0.10217052111E+01  0.10214634585E+01 0.  0.
     999903    2    3    3    0    0  0.11800614596E+00  0.50359464006E-01 -0.20592430084E-01  0.13135074801E+00  0.19168847839E-01 0.  0.
         14    1    1    2    0    0  0.11930479088E-01 -0.18742423955E-01 -0.57136320605E-03  0.22224788928E-01  0.00000000000E+00 0.  1.
     999901    1    3    3    0    0 -0.12993662504E+00 -0.31617040052E-01  0.21163793290E-01  0.89035446306E+00  0.88000000000E+00 0.  1.
        -11    1    4    4    0    0  0.72094447859E-01  0.37730596790E-01 -0.62217339412E-02  0.81609916313E-01  0.51100000000E-03 0. -1.
         11    1    4    4    0    0  0.45911698097E-01  0.12628867216E-01 -0.14370696143E-01  0.49740831697E-01  0.51100000000E-03 0.  1.
</event>
<event>
 8    1  0.1108957E+005  0.1043930E+01  0.7957747E-01            NaN
         13   -1    0    0    0    0  0.00000000000E+00  0.00000000000E+00  0.74505805969E-08  0.10566000000E+00  0.10566000000E+00 0. -1.
     999900   -1    0    0    0    0 -0.00000000000E+00 -0.00000000000E+00 -0.74505805969E-08  0.93827000000E+00  0.93827000000E+00 0.  1.
     999902    2    1    2    0    0 -0.18089074261E-01 -0.14040411515E-01 -0.55906593413E-02  0.10203587625E+01  0.10200864674E+01 0.  0.
     999903    2    3    3    0    0  0.24141225239E-01  0.12409889432E+00 -0.11930151771E-01  0.12855942684E+00  0.20046530392E-01 0.  0.
         14    1    1    2    0    0  0.18089074261E-01  0.14040411515E-01  0.55906593413E-02  0.23571237452E-01  0.00000000000E+00 0.  1.
     999901    1    3    3    0    0 -0.42230299501E-01 -0.13813930583E+00  0.63394924298E-02  0.89179933571E+00  0.88000000000E+00 0.  1.
        -11    1    4    4    0    0  0.18719119477E-01  0.53401186509E-01  0.38561877213E-03  0.56590652739E-01  0.51100000000E-03 0. -1.
         11    1    4    4    0    0  0.54221057621E-02  0.70697707807E-01 -0.12315770543E-01  0.71968774098E-01  0.51100000000E-03 0.  1.
</event>
<event>
 8    1  0.1108957E+005  0.1043930E+01  0.7957747E-01            NaN
         13   -1    0    0    0    0  0.00000000000E+00  0.00000000000E+00  0.74505805969E-08  0.10566000000E+00  0.10566000000E+00 0. -1.
     999900   -1    0    0    0    0 -0.00000000000E+00 -0.00000000000E+00 -0.74505805969E-08  0.93827000000E+00  0.93827000000E+00 0.  1.
     999902    2    1    2    0    0 -0.20561700924E-01  0.57034460001E-03 -0.93234363668E-02  0.10213460388E+01  0.10210963205E+01 0.  0.
     999903    2    3    3    0    0  0.98481501227E-01 -0.67457903168E-01 -0.47254003173E-01  0.12992141811E+00  0.19936380912E-01 0.  0.
         14    1    1    2    0    0  0.20561700924E-01 -0.57034460001E-03  0.93234363668E-02  0.22583961201E-01  0.00000000000E+00 0.  1.
     999901    1    3    3    0    0 -0.11904320215E+00  0.68028247768E-01  0.37930566806E-01  0.89142462069E+00  0.88000000000E+00 0. -1.
        -11    1    4    4    0    0  0.20600769714E-01 -0.21430165876E-01 -0.18404269448E-01  0.34966011742E-01  0.51100000000E-03 0. -1.
         11    1    4    4    0    0  0.77880731513E-01 -0.46027737292E-01 -0.28849733725E-01  0.94955406367E-01  0.51100000000E-03 0.  1.
</event>
<event>
 8    1  0.1108957E+005  0.1043930E+01  0.7957747E-01            NaN
         13   -1    0    0    0    0  0.00000000000E+00  0.00000000000E+00  0.74505805969E-08  0.10566000000E+00  0.10566000000E+00 0. -1.
     999900   -1    0    0    0    0 -0.00000000000E+00 -0.00000000000E+00 -0.74505805969E-08  0.93827000000E+00  0.93827000000E+00 0. -1.
     999902    2    1    2    0    0 -0.77957362874E-02  0.19639428380E-01 -0.11118019839E-01  0.10200534212E+01  0.10197739411E+01 0.  0.
     999903    2    3    3    0    0 -0.11231503179E+00 -0.56004066314E-01 -0.29691322989E-01  0.13045171872E+00  0.19620256021E-01 0.  0.
         14    1    1    2    0    0  0.77957362874E-02 -0.19639428380E-01  0.11118019839E-01  0.23876578828E-01  0.00000000000E+00 0.  1.
     999901    1    3    3    0    0  0.10451929550E+00  0.75643494694E-01  0.18573303151E-01  0.88960170246E+00  0.88000000000E+00 0. -1.
        -11    1    4    4    0    0 -0.27396103838E-01 -0.12217118476E-01 -0.15785066544E-01  0.33900353038E-01  0.51100000000E-03 0. -1.
         11    1    4    4    0    0 -0.84918927950E-01 -0.43786947837E-01 -0.13906256445E-01  0.96551365679E-01  0.51100000000E-03 0.  1.
</event>
<event>
 8    1  0.1108957E+005  0.1043930E+01  0.7957747E-01            NaN
         13   -1    0    0    0    0  0.00000000000E+00  0.00000000000E+00  0.74505805969E-08  0.10566000000E+00  0.10566000000E+00 0. -1.
     999900   -1    0    0    0    0 -0.00000000000E+00 -0.00000000000E+00 -0.74505805969E-08  0.93827000000E+00  0.93827000000E+00 0.  1.
     999902    2    1    2    0    0 -0.13470876512E-01 -0.33874882086E-02 -0.21228067221E-01  0.10185613101E+01  0.10182453398E+01 0.  0.
     999903    2    3    3    0    0 -0.96558085984E-01  0.37260568813E-01 -0.79146095148E-01  0.13181994594E+00  0.20014490082E-01 0.  0.
         14    1    1    2    0    0  0.13470876512E-01  0.33874882086E-02  0.21228067221E-01  0.25368689920E-01  0.00000000000E+00 0. -1.
     999901    1    3    3    0    0  0.83087209472E-01 -0.40648057021E-01  0.57918027927E-01  0.88674136414E+00  0.88000000000E+00 0.  1.
        -11    1    4    4    0    0 -0.52194352815E-01  0.29392087418E-01 -0.39078645978E-01  0.71523051955E-01  0.51100000000E-03 0.  1.
         11    1    4    4    0    0 -0.44363733169E-01  0.78684813947E-02 -0.40067449170E-01  0.60296893984E-01  0.51100000000E-03 0. -1.
</event>
<event>
 8    1  0.1108957E+005  0.1043930E+01  0.7957747E-01            NaN
         13   -1    0    0    0    0  0.00000000000E+00  0.00000000000E+00  0.74505805969E-08  0.10566000000E+00  0.10566000000E+00 0.  1.
     999900   -1    0    0    0    0 -0.00000000000E+00 -0.00000000000E+00 -0.74505805969E-08  0.93827000000E+00  0.93827000000E+00 0.  1.
     999902    2    1    2    0    0 -0.15516192657E-01  0.16384508592E-01 -0.12662543379E-03  0.10213640879E+01  0.10211147730E+01 0.  0.
     999903    2    3    3    0    0  0.84726882206E-01 -0.64228531280E-01 -0.70623692176E-01  0.12922229831E+00  0.20167986647E-01 0.  0.
         14    1    1    2    0    0  0.15516192657E-01 -0.16384508592E-01  0.12662543379E-03  0.22565912132E-01  0.00000000000E+00 0. -1.
     999901    1    3    3    0    0 -0.10024307486E+00  0.80613039871E-01  0.70497066742E-01  0.89214178956E+00  0.88000000000E+00 0. -1.
        -11    1    4    4    0    0  0.76933304766E-01 -0.49364783253E-01 -0.60427798833E-01  0.10957826062E+00  0.51100000000E-03 0.  1.
         11    1    4    4    0    0  0.77935774409E-02 -0.14863748027E-01 -0.10195893343E-01  0.19644037691E-01  0.51100000000E-03 0. -1.
</event>
<event>
 8    1  0.1108957E+005  0.1043930E+01  0.7957747E-01            NaN
         13   -1    0    0    0    0  0.00000000000E+00  0.00000000000E+00  0.74505805969E-08  0.10566000000E+00  0.10566000000E+00 0.  1.
     999900   -1    0    0    0    0 -0.00000000000E+00 -0.00000000000E+00 -0.74505805969E-08  0.93827000000E+00  0.93827000000E+00 0. -1.
     999902    2    1    2    0    0  0.23348759041E-01  0.27468339450E-02  0.37813485130E-02  0.10201180651E+01  0.10198401142E+01 0.  0.
     999903    2    3    3    0    0  0.85284161357E-02 -0.11501814552E+00 -0.55965284480E-01  0.13014172101E+00  0.22424245765E-01 0.  0.
         14    1    1    2    0    0 -0.23348759041E-01 -0.27468339450E-02 -0.37813485130E-02  0.23811934866E-01  0.00000000000E+00 0. -1.
     999901    1    3    3    0    0  0.14820342905E-01  0.11776497947E+00  0.59746632993E-01  0.88997634413E+00  0.88000000000E+00 0.  1.
        -11    1    4    4    0    0 -0.17899248371E-02 -0.48314076269E-01 -0.12782366613E-01  0.50011036921E-01  0.51100000000E-03 0. -1.
         11    1    4    4    0    0  0.10318340973E-01 -0.66704069254E-01 -0.43182917867E-01  0.80130684086E-01  0.51100000000E-03 0.  1.
</event>
<event>
 8    1  0.1108957E+005  0.1043930E+01  0.7957747E-01            NaN
         13   -1    0    0    0    0  0.00000000000E+00  0.00000000000E+00  0.74505805969E-08  0.10566000000E+00  0.10566000000E+00 0. -1.
     999900   -1    0    0    0    0 -0.00000000000E+00 -0.00000000000E+00 -0.74505805969E-08  0.93827000000E+00  0.93827000000E+00 0.  1.
     999902    2    1    2    0    0  0.10435820925E-02 -0.86961953655E-02 -0.21974255989E-01  0.10202745397E+01  0.10200002723E+01 0.  0.
     999903    2    3    3    0    0  0.32366086201E-01  0.46978668512E-01 -0.11587243323E+00  0.13297658665E+00  0.31651113466E-01 0.  0.
         14    1    1    2    0    0 -0.10435820925E-02  0.86961953655E-02  0.21974255989E-01  0.23655460335E-01  0.00000000000E+00 0. -1.
     999901    1    3    3    0    0 -0.31322504109E-01 -0.55674863878E-01  0.93898177241E-01  0.88729795301E+00  0.88000000000E+00 0. -1.
        -11    1    4    4    0    0  0.61389223935E-02  0.21265683782E-01 -0.74167676299E-01  0.77401686050E-01  0.51100000000E-03 0. -1.
         11    1    4    4    0    0  0.26227163808E-01  0.25712984730E-01 -0.41704756931E-01  0.55574900601E-01  0.51100000000E-03 0.  1.
</event>
<event>
 8    1  0.1108957E+005  0.1043930E+01  0.7957747E-01            NaN
         13   -1    0    0    0    0  0.00000000000E+00  0.00000000000E+00  0.74505805969E-08  0.10566000000E+00  0.10566000000E+00 0. -1.
     999900   -1    0    0    0    0 -0.00000000000E+00 -0.00000000000E+00 -0.74505805969E-08  0.93827000000E+00  0.93827000000E+00 0. -1.
     999902    2    1    2    0    0  0.50909809286E-02  0.20385817044E-01  0.10667164195E-01  0.10203654500E+01  0.10200933112E+01 0.  0.
     999903    2    3    3    0    0  0.76847353292E-01  0.10553919211E+00  0.19441301769E-01  0.13330453907E+00  0.18657415247E-01 0.  0.
         14    1    1    2    0    0 -0.50909809286E-02 -0.20385817044E-01 -0.10667164195E-01  0.23564549970E-01  0.00000000000E+00 0. -1.
     999901    1    3    3    0    0 -0.71756372363E-01 -0.85153375065E-01 -0.87741375741E-02  0.88706091096E+00  0.88000000000E+00 0. -1.
        -11    1    4    4    0    0  0.30694249966E-01  0.55997083075E-01  0.48838932137E-02  0.64046263184E-01  0.51100000000E-03 0.  1.
         11    1    4    4    0    0  0.46153103326E-01  0.49542109034E-01  0.14557408555E-01  0.69258275888E-01  0.51100000000E-03 0. -1.
</event>
<event>
 8    1  0.1108957E+005  0.1043930E+01  0.7957747E-01            NaN
         13   -1    0    0    0    0  0.00000000000E+00  0.00000000000E+00  0.74505805969E-08  0.10566000000E+00  0.10566000000E+00 0.  1.
     999900   -1    0    0    0    0 -0.00000000000E+00 -0.00000000000E+00 -0.74505805969E-08  0.93827000000E+00  0.93827000000E+00 0. -1.
     999902    2    1    2    0    0 -0.95131836214E-02 -0.26039775434E-01 -0.76703368845E-02  0.10151653579E+01  0.10147577540E+01 0.  0.
     999903    2    3    3    0    0  0.77791139872E-01 -0.92222232123E-01 -0.37471786710E-01  0.12787155713E+00  0.19763572119E-01 0.  0.
         14    1    1    2    0    0  0.95131836214E-02  0.26039775434E-01  0.76703368845E-02  0.28764642101E-01  0.00000000000E+00 0.  1.
     999901    1    3    3    0    0 -0.87304323494E-01  0.66182456689E-01  0.29801449825E-01  0.88729380077E+00  0.88000000000E+00 0.  1.
        -11    1    4    4    0    0  0.38302614583E-01 -0.50859017509E-01 -0.29347277791E-01  0.70108870913E-01  0.51100000000E-03 0.  1.
         11    1    4    4    0    0  0.39488525289E-01 -0.41363214614E-01 -0.81245089183E-02  0.57762686216E-01  0.51100000000E-03 0. -1.
</event>
<event>
 8    1  0.1108957E+005  0.1043930E+01  0.7957747E-01            NaN
         13   -1    0    0    0    0  0.00000000000E+00  0.00000000000E+00  0.74505805969E-08  0.10566000000E+00  0.10566000000E+00 0.  1.
     999900   -1    0    0    0    0 -0.00000000000E+00 -0.00000000000E+00 -0.74505805969E-08  0.93827000000E+00  0.93827000000E+00 0.  1.
     999902    2    1    2    0    0 -0.12350091220E-01  0.12062180541E-01 -0.10864813307E-01  0.10235323256E+01  0.10233290558E+01 0.  0.
     999903    2    3    3    0    0  0.22184591725E-01 -0.10959568748E+00 -0.68437758832E-01  0.13262945479E+00  0.20086677629E-01 0.  0.
         14    1    1    2    0    0  0.12350091220E-01 -0.12062180541E-01  0.10864813307E-01  0.20397674395E-01  0.00000000000E+00 0.  1.
     999901    1    3    3    0    0 -0.34534682945E-01  0.12165786802E+00  0.57572945525E-01  0.89090287082E+00  0.88000000000E+00 0.  1.
        -11    1    4    4    0    0 -0.25263706857E-02 -0.32542323086E-01 -0.21347386098E-01  0.39004581204E-01  0.51100000000E-03 0.  1.
         11    1    4    4    0    0  0.24710962411E-01 -0.77053364396E-01 -0.47090372734E-01  0.93624873582E-01  0.51100000000E-03 0. -1.
</event>
<event>
 8    1  0.1108957E+005  0.1043930E+01  0.7957747E-01            NaN
         13   -1    0    0    0    0  0.00000000000E+00  0.00000000000E+00  0.74505805969E-08  0.10566000000E+00  0.10566000000E+00 0. -1.
     999900   -1    0    0    0    0 -0.00000000000E+00 -0.00000000000E+00 -0.74505805969E-08  0.93827000000E+00  0.93827000000E+00 0.  1.
     999902    2    1    2    0    0  0.19401108882E-01  0.11598539540E-01  0.79138720438E-02  0.10199809183E+01  0.10196997181E+01 0.  0.
     999903    2    3    3    0    0  0.38306253743E-01 -0.16325568461E-01 -0.12142933058E+00  0.12988720164E+00  0.19791653839E-01 0.  0.
         14    1    1    2    0    0 -0.19401108882E-01 -0.11598539540E-01 -0.79138720438E-02  0.23949081736E-01  0.00000000000E+00 0. -1.
     999901    1    3    3    0    0 -0.18905144861E-01  0.27924108001E-01  0.12934320263E+00  0.89009371663E+00  0.88000000000E+00 0. -1.
        -11    1    4    4    0    0  0.23501102431E-01 -0.58078634331E-02 -0.42687808379E-01  0.49076911052E-01  0.51100000000E-03 0.  1.
         11    1    4    4    0    0  0.14805151312E-01 -0.10517705028E-01 -0.78741522206E-01  0.80810290587E-01  0.51100000000E-03 0. -1.
</event>
<event>
 8    1  0.1108957E+005  0.1043930E+01  0.7957747E-01            NaN
         13   -1    0    0    0    0  0.00000000000E+00  0.00000000000E+00  0.74505805969E-08  0.10566000000E+00  0.10566000000E+00 0. -1.
     999900   -1    0    0    0    0 -0.00000000000E+00 -0.00000000000E+00 -0.74505805969E-08  0.93827000000E+00  0.93827000000E+00 0.  1.
     999902    2    1    2    0    0 -0.33626095084E-02  0.19417256752E-01  0.13578204075E-01  0.10199987521E+01  0.10197179755E+01 0.  0.
     999903    2    3    3    0    0  0.36940044511E-01 -0.10368284556E+00  0.64658527047E-01  0.12905142560E+00  0.18943230412E-01 0.  0.
         14    1    1    2    0    0  0.33626095084E-02 -0.19417256752E-01 -0.13578204075E-01  0.23931247948E-01  0.00000000000E+00 0. -1.
     999901    1    3    3    0    0 -0.40302654019E-01  0.12310010231E+00 -0.51080322972E-01  0.89094732645E+00  0.88000000000E+00 0.  1.
        -11    1    4    4    0    0  0.19465657161E-01 -0.44492252669E-01  0.38683881135E-01  0.62090064720E-01  0.51100000000E-03 0. -1.
         11    1    4    4    0    0  0.17474387350E-01 -0.59190592892E-01  0.25974645912E-01  0.66961360884E-01  0.51100000000E-03 0.  1.
</event>
<event>
 8    1  0.1108957E+005  0.1043930E+01  0.7957747E-01            NaN
         13   -1    0    0    0    0  0.00000000000E+00  0.00000000000E+00  0.74505805969E-08  0.10566000000E+00  0.10566000000E+00 0. -1.
     999900   -1    0    0    0    0 -0.00000000000E+00 -0.00000000000E+00 -0.74505805969E-08  0.93827000000E+00  0.93827000000E+00 0.  1.
     999902    2    1    2    0    0 -0.14823014446E-01 -0.81613952256E-02 -0.16181450812E-01  0.10205169806E+01  0.10202483708E+01 0.  0.
     999903    2    3    3    0    0  0.10382647012E+00 -0.74740589257E-01 -0.13354044587E-01  0.13005727709E+00  0.19247681313E-01 0.  0.
         14    1    1    2    0    0  0.14823014446E-01  0.81613952256E-02  0.16181450812E-01  0.23413019448E-01  0.00000000000E+00 0.  1.
     999901    1    3    3    0    0 -0.11864948457E+00  0.66579194031E-01 -0.28274062246E-02  0.89045970346E+00  0.88000000000E+00 0.  1.
        -11    1    4    4    0    0  0.54135932487E-01 -0.27903173287E-01 -0.29061357471E-02  0.60975347574E-01  0.51100000000E-03 0.  1.
         11    1    4    4    0    0  0.49690537637E-01 -0.46837415970E-01 -0.10447908840E-01  0.69081929515E-01  0.51100000000E-03 0. -1.
</event>
<event>
 8    1  0.1108957E+005  0.1043930E+01  0.7957747E-01            NaN
         13   -1    0    0    0    0  0.00000000000E+00  0.00000000000E+00  0.74505805969E-08  0.10566000000E+00  0.10566000000E+00 0.  1.
     999900   -1    0    0    0    0 -0.00000000000E+00 -0.00000000000E+00 -0.74505805969E-08  0.93827000000E+00  0.93827000000E+00 0.  1.
     999902    2    1    2    0    0 -0.11681267814E-01  0.22035624247E-02 -0.19718995790E-01  0.10209050896E+01  0.10206454112E+01 0.  0.
     999903    2    3    3    0    0  0.10985594360E-01 -0.10907585454E+00  0.65951525669E-01  0.12948132193E+00  0.19939500055E-01 0.  0.
         14    1    1    2    0    0  0.11681267814E-01 -0.22035624247E-02  0.19718995790E-01  0.23024910425E-01  0.00000000000E+00 0.  1.
     999901    1    3    3    0    0 -0.22666862174E-01  0.11127941697E+00 -0.85670521459E-01  0.89142376765E+00  0.88000000000E+00 0. -1.
        -11    1    4    4    0    0  0.92421958084E-02 -0.33831474962E-01  0.12791095613E-01  0.37334436241E-01  0.51100000000E-03 0. -1.
         11    1    4    4    0    0  0.17433985519E-02 -0.75244379579E-01  0.53160430057E-01  0.92146885686E-01  0.51100000000E-03 0.  1.
</event>
<event>
 8    1  0.1108957E+005  0.1043930E+01  0.7957747E-01            NaN
         13   -1    0    0    0    0  0.00000000000E+00  0.00000000000E+00  0.74505805969E-08  0.10566000000E+00  0.10566000000E+00 0.  1.
     999900   -1    0    0    0    0 -0.00000000000E+00 -0.00000000000E+00 -0.74505805969E-08  0.93827000000E+00  0.93827000000E+00 0. -1.
     999902    2    1    2    0    0  0.62544761328E-02  0.37487545375E-02  0.18311667928E-01  0.10242198804E+01  0.10240302118E+01 0.  0.
     999903    2    3    3    0    0  0.94921752336E-01 -0.91654263843E-01 -0.13785473989E-01  0.13405481239E+00  0.19235651408E-01 0.  0.
         14    1    1    2    0    0 -0.62544761328E-02 -0.37487545375E-02 -0.18311667928E-01  0.19710119599E-01  0.00000000000E+00 0. -1.
     999901    1    3    3    0    0 -0.88667276203E-01  0.95403018380E-01  0.32097141917E-01  0.89016506801E+00  0.88000000000E+00 0.  1.
        -11    1    4    4    0    0  0.36170227490E-01 -0.35969011050E-01 -0.14739151599E-01  0.53099518109E-01  0.51100000000E-03 0. -1.
         11    1    4    4    0    0  0.58751524846E-01 -0.55685252793E-01  0.95367760960E-03  0.80955294282E-01  0.51100000000E-03 0.  1.
</event>
<event>
 8    1  0.1108957E+005  0.1043930E+01  0.7957747E-01            NaN
         13   -1    0    0    0    0  0.00000000000E+00  0.00000000000E+00  0.74505805969E-08  0.10566000000E+00  0.10566000000E+00 0. -1.
     999900   -1    0    0    0    0 -0.00000000000E+00 -0.00000000000E+00 -0.74505805969E-08  0.93827000000E+00  0.93827000000E+00 0. -1.
     999902    2    1    2    0    0  0.15439577873E-01  0.16474928980E-01 -0.82702219973E-02  0.10198842016E+01  0.10196006984E+01 0.  0.
     999903    2    3    3    0    0  0.32650136070E-01 -0.30278614080E-01 -0.12179176459E+00  0.13119458325E+00  0.19898715897E-01 0.  0.
         14    1    1    2    0    0 -0.15439577873E-01 -0.16474928980E-01  0.82702219973E-02  0.24045798420E-01  0.00000000000E+00 0.  1.
     999901    1    3    3    0    0 -0.17210558197E-01  0.46753543060E-01  0.11352154260E+00  0.88868961833E+00  0.88000000000E+00 0.  1.
        -11    1    4    4    0    0  0.47567749898E-02 -0.38272795455E-03 -0.34118165093E-01  0.34454081025E-01  0.51100000000E-03 0. -1.
         11    1    4    4    0    0  0.27893361080E-01 -0.29895886125E-01 -0.87673599500E-01  0.96740502220E-01  0.51100000000E-03 0.  1.
</event>
<event>
 8    1  0.1108957E+005  0.1043930E+01  0.7957747E-01            NaN
         13   -1    0    0    0    0  0.00000000000E+00  0.00000000000E+00  0.74505805969E-08  0.10566000000E+00  0.10566000000E+00 0. -1.
     999900   -1    0    0    0    0 -0.00000000000E+00 -0.00000000000E+00 -0.74505805969E-08  0.93827000000E+00  0.93827000000E+00 0.  1.
     999902    2    1    2    0    0  0.23542049362E-01 -0.21703339937E-04 -0.30087198806E-02  0.10201964593E+01  0.10199203570E+01 0.  0.
     999903    2    3    3    0    0 -0.58781672514E-01  0.72636909433E-01 -0.87373980035E-01  0.12936877320E+00  0.19252570112E-01 0.  0.
         14    1    1    2    0    0 -0.23542049362E-01  0.21703339937E-04  0.30087198806E-02  0.23733540707E-01  0.00000000000E+00 0. -1.
     999901    1    3    3    0    0  0.82323721876E-01 -0.72658612773E-01  0.84365260154E-01  0.89082768610E+00  0.88000000000E+00 0. -1.
        -11    1    4    4    0    0 -0.19108681137E-01  0.38005360525E-01 -0.43206907599E-01  0.60635361867E-01  0.51100000000E-03 0.  1.
         11    1    4    4    0    0 -0.39672991377E-01  0.34631548907E-01 -0.44167072435E-01  0.68733411330E-01  0.51100000000E-03 0. -1.
</event>
<event>
 8    1  0.1108957E+005  0.1043930E+01  0.7957747E-01            NaN
         13   -1    0    0    0    0  0.00000000000E+00  0.00000000000E+00  0.74505805969E-08  0.10566000000E+00  0.10566000000E+00 0. -1.
     999900   -1    0    0    0    0 -0.00000000000E+00 -0.00000000000E+00 -0.74505805969E-08  0.93827000000E+00  0.93827000000E+00 0. -1.
     999902    2    1    2    0    0 -0.16550356490E-01 -0.14900774457E-03  0.16595343230E-01  0.10204919557E+01  0.10202227648E+01 0.  0.
     999903    2    3    3    0    0 -0.66770258717E-01  0.40324698932E-01 -0.10204187768E+00  0.13019147290E+00  0.21282058669E-01 0.  0.
         14    1    1    2    0    0  0.16550356490E-01  0.14900774457E-03 -0.16595343230E-01  0.23438044290E-01  0.00000000000E+00 0.  1.
     999901    1    3    3    0    0  0.50219902227E-01 -0.40473706677E-01  0.11863722091E+00  0.89030048281E+00  0.88000000000E+00 0.  1.
        -11    1    4    4    0    0 -0.53704305046E-01  0.40779789384E-01 -0.89558968517E-01  0.11210804416E+00  0.51100000000E-03 0.  1.
         11    1    4    4    0    0 -0.13065953670E-01 -0.45509045213E-03 -0.12482909164E-01  0.18083428736E-01  0.51100000000E-03 0. -1.
</event>
<event>
 8    1  0.1108957E+005  0.1043930E+01  0.7957747E-01            NaN
         13   -1    0    0    0    0  0.00000000000E+00  0.00000000000E+00  0.74505805969E-08  0.10566000000E+00  0.10566000000E+00 0.  1.
     999900   -1    0    0    0    0 -0.00000000000E+00 -0.00000000000E+00 -0.74505805969E-08  0.93827000000E+00  0.93827000000E+00 0.  1.
     999902    2    1    2    0    0  0.86439243840E-02  0.56946186869E-03  0.21620908356E-01  0.10206382548E+01  0.10203724525E+01 0.  0.
     999903    2    3    3    0    0 -0.71158316215E-01  0.34767344898E-01 -0.98802958145E-01  0.12820349505E+00  0.20045881578E-01 0.  0.
         14    1    1    2    0    0 -0.86439243840E-02 -0.56946186869E-03 -0.21620908356E-01  0.23291745184E-01  0.00000000000E+00 0. -1.
     999901    1    3    3    0    0  0.79802240599E-01 -0.34197883029E-01  0.12042386650E+00  0.89243475976E+00  0.88000000000E+00 0.  1.
        -11    1    4    4    0    0 -0.53235465886E-01  0.16253499316E-01 -0.62678161328E-01  0.83827227656E-01  0.51100000000E-03 0.  1.
         11    1    4    4    0    0 -0.17922850329E-01  0.18513845582E-01 -0.36124796817E-01  0.44376267398E-01  0.51100000000E-03 0. -1.
</event>
<event>
 8    1  0.1108957E+005  0.1043930E+01  0.7957747E-01            NaN
         13   -1    0    0    0    0  0.00000000000E+00  0.00000000000E+00  0.74505805969E-08  0.10566000000E+00  0.10566000000E+00 0. -1.
     999900   -1    0    0    0    0 -0.00000000000E+00 -0.00000000000E+00 -0.74505805969E-08  0.93827000000E+00  0.93827000000E+00 0. -1.
     999902    2    1    2    0    0 -0.14444381503E-01 -0.12439250064E-01  0.14419892619E-01  0.10200279415E+01  0.10197478575E+01 0.  0.
     999903    2    3    3    0    0  0.14659549246E-01 -0.95418671251E-01 -0.84771692802E-01  0.13010008273E+00  0.20497961341E-01 0.  0.
         14    1    1    2    0    0  0.14444381503E-01  0.12439250064E-01 -0.14419892619E-01  0.23902058537E-01  0.00000000000E+00 0. -1.
     999901    1    3    3    0    0 -0.29103930749E-01  0.82979421187E-01  0.99191585421E-01  0.88992785873E+00  0.88000000000E+00 0.  1.
        -11    1    4    4    0    0  0.44173948230E-02 -0.76953652631E-01 -0.71616754256E-01  0.10521691234E+00  0.51100000000E-03 0. -1.
         11    1    4    4    0    0  0.10242154423E-01 -0.18465018620E-01 -0.13154938546E-01  0.24883170397E-01  0.51100000000E-03 0.  1.
</event>
<event>
 8    1  0.1108957E+005  0.1043930E+01  0.7957747E-01            NaN
         13   -1    0    0    0    0  0.00000000000E+00  0.00000000000E+00  0.74505805969E-08  0.10566000000E+00  0.10566000000E+00 0.  1.
     999900   -1    0    0    0    0 -0.00000000000E+00 -0.00000000000E+00 -0.74505805969E-08  0.93827000000E+00  0.93827000000E+00 0. -1.
     999902    2    1    2    0    0  0.16992736586E-01 -0.21036918825E-02  0.15611343920E-01  0.10207590554E+01  0.10204960345E+01 0.  0.
     999903    2    3    3    0    0 -0.96149305458E-01  0.14351059923E-01  0.84751417242E-01  0.13067353685E+00  0.21026855380E-01 0.  0.
         14    1    1    2    0    0 -0.16992736586E-01  0.21036918825E-02 -0.15611343920E-01  0.23170944634E-01  0.00000000000E+00 0. -1.
     999901    1    3    3    0    0  0.11314204204E+00 -0.16454751805E-01 -0.69140073322E-01  0.89008551852E+00  0.88000000000E+00 0.  1.
        -11    1    4    4    0    0 -0.60406888935E-01  0.18909053862E-01  0.50794980873E-01  0.81159939328E-01  0.51100000000E-03 0. -1.
         11    1    4    4    0    0 -0.35742416523E-01 -0.45579939391E-02  0.33956436369E-01  0.49513597521E-01  0.51100000000E-03 0.  1.
</event>
<event>
 8    1  0.1108957E+005  0.1043930E+01  0.7957747E-01            NaN
         13   -1    0    0    0    0  0.00000000000E+00  0.00000000000E+00  0.74505805969E-08  0.10566000000E+00  0.10566000000E+00 0.  1.
     999900   -1    0    0    0    0 -0.00000000000E+00 -0.00000000000E+00 -0.74505805969E-08  0.93827000000E+00  0.93827000000E+00 0. -1.
     999902    2    1    2    0    0 -0.86606460475E-02  0.22077231882E-01 -0.22033311190E-02  0.10201126612E+01  0.10198345827E+01 0.  0.
     999903    2    3    3    0    0 -0.25261936596E-02  0.94124249507E-01 -0.91114170072E-01  0.13268179546E+00  0.20902412767E-01 0.  0.
         14    1    1    2    0    0  0.86606460475E-02 -0.22077231882E-01  0.22033311190E-02  0.23817338759E-01  0.00000000000E+00 0.  1.
     999901    1    3    3    0    0 -0.61344523879E-02 -0.72047017625E-01  0.88910838953E-01  0.88743086578E+00  0.88000000000E+00 0.  1.
        -11    1    4    4    0    0  0.31204478872E-02  0.16368286753E-02 -0.18230768231E-02  0.40001416515E-02  0.51100000000E-03 0. -1.
         11    1    4    4    0    0 -0.56466415469E-02  0.92487420832E-01 -0.89291093249E-01  0.12868165381E+00  0.51100000000E-03 0.  1.
</event>
<event>
 7    1  0.1108957E+005  0.1043930E+01  0.7957747E-01            NaN
         13   -1    0    0    0    0  0.00000000000E+00  0.00000000000E+00  0.74505805969E-08  0.10566000000E+00  0.10566000000E+00 0. -1.
     999900   -1    0    0    0    0 -0.00000000000E+00 -0.00000000000E+00 -0.74505805969E-08  0.93827000000E+00  0.93827000000E+00 0. -1.
     999903    2    1    2    0    0 -0.58497444398E-02 -0.91192170328E-01  0.11083478717E-01  0.94099943108E-01  0.19537767356E-01 0.  0.
         14    1    1    2    0    0 -0.48376003401E-02  0.26385273026E-01  0.58789402509E-01  0.64620266612E-01  0.00000000000E+00 0. -1.
     999901    1    1    2    0    0  0.10687344780E-01  0.64806897302E-01 -0.69872881225E-01  0.88520979028E+00  0.88000000000E+00 0. -1.
        -11    1    3    3    0    0 -0.33913082174E-02 -0.62824177300E-02 -0.34052351271E-02  0.79263163721E-02  0.51100000000E-03 0. -1.
         11    1    3    3    0    0 -0.24584362224E-02 -0.84909752598E-01  0.14488713844E-01  0.86173626736E-01  0.51100000000E-03 0.  1.
</event>
<event>
 8    1  0.1108957E+005  0.1043930E+01  0.7957747E-01            NaN
         13   -1    0    0    0    0  0.00000000000E+00  0.00000000000E+00  0.74505805969E-08  0.10566000000E+00  0.10566000000E+00 0. -1.
     999900   -1    0    0    0    0 -0.00000000000E+00 -0.00000000000E+00 -0.74505805969E-08  0.93827000000E+00  0.93827000000E+00 0. -1.
     999902    2    1    2    0    0 -0.21392834611E-01 -0.92024499088E-02  0.92917718520E-03  0.10206233094E+01  0.10203571619E+01 0.  0.
     999903    2    3    3    0    0 -0.11058433420E+00 -0.48987159108E-03 -0.71636039100E-01  0.13310049659E+00  0.18838395638E-01 0.  0.
         14    1    1    2    0    0  0.21392834611E-01  0.92024499088E-02 -0.92917718520E-03  0.23306690612E-01  0.00000000000E+00 0.  1.
     999901    1    3    3    0    0  0.89191499590E-01 -0.87125783177E-02  0.72565216285E-01  0.88752281280E+00  0.88000000000E+00 0.  1.
        -11    1    4    4    0    0 -0.34323775443E-01 -0.88501340554E-02 -0.21845371967E-01  0.41640459061E-01  0.51100000000E-03 0. -1.
         11    1    4    4    0    0 -0.76260558758E-01  0.83602624643E-02 -0.49790667133E-01  0.91460037531E-01  0.51100000000E-03 0.  1.
</event>
<event>
 8    1  0.1108957E+005  0.1043930E+01  0.7957747E-01            NaN
         13   -1    0    0    0    0  0.00000000000E+00  0.00000000000E+00  0.74505805969E-08  0.10566000000E+00  0.10566000000E+00 0. -1.
     999900   -1    0    0    0    0 -0.00000000000E+00 -0.00000000000E+00 -0.74505805969E-08  0.93827000000E+00  0.93827000000E+00 0. -1.
     999902    2    1    2    0    0 -0.45839646199E-02  0.90904927726E-02 -0.20452602180E-01  0.10210835839E+01  0.10208279614E+01 0.  0.
     999903    2    3    3    0    0 -0.12354088669E+00  0.20229676096E-01 -0.39806479430E-01  0.13279905561E+00  0.19479293853E-01 0.  0.
         14    1    1    2    0    0  0.45839646199E-02 -0.90904927726E-02  0.20452602180E-01  0.22846416052E-01  0.00000000000E+00 0. -1.
     999901    1    3    3    0    0  0.11895692207E+00 -0.11139183323E-01  0.19353877250E-01  0.88828452833E+00  0.88000000000E+00 0.  1.
        -11    1    4    4    0    0 -0.10447999967E+00  0.97959416992E-02 -0.33804606230E-01  0.11024991305E+00  0.51100000000E-03 0.  1.
         11    1    4    4    0    0 -0.19060887017E-01  0.10433734396E-01 -0.60018732004E-02  0.22549142561E-01  0.51100000000E-03 0. -1.
</event>
<event>
 8    1  0.1108957E+005  0.1043930E+01  0.7957747E-01            NaN
         13   -1    0    0    0    0  0.00000000000E+00  0.00000000000E+00  0.74505805969E-08  0.10566000000E+00  0.10566000000E+00 0.  1.
     999900   -1    0    0    0    0 -0.00000000000E+00 -0.00000000000E+00 -0.74505805969E-08  0.93827000000E+00  0.93827000000E+00 0. -1.
     999902    2    1    2    0    0  0.19089607700E-02  0.11864399916E-01 -0.21069858906E-01  0.10196741333E+01  0.10193855948E+01 0.  0.
     999903    2    3    3    0    0  0.32059739684E-02  0.11434009730E-01  0.12537893575E+00  0.12757037421E+00  0.20329977820E-01 0.  0.
         14    1    1    2    0    0 -0.19089607700E-02 -0.11864399916E-01  0.21069858906E-01  0.24255866731E-01  0.00000000000E+00 0.  1.
     999901    1    3    3    0    0 -0.12970131984E-02  0.43039018664E-03 -0.14644879465E+00  0.89210375906E+00  0.88000000000E+00 0. -1.
        -11    1    4    4    0    0  0.34157284018E-02  0.92328296585E-02  0.21341066864E-01  0.23507756165E-01  0.51100000000E-03 0. -1.
         11    1    4    4    0    0 -0.20975443343E-03  0.22011800710E-02  0.10403786888E+00  0.10406261804E+00  0.51100000000E-03 0.  1.
</event>
<event>
 8    1  0.1108957E+005  0.1043930E+01  0.7957747E-01            NaN
         13   -1    0    0    0    0  0.00000000000E+00  0.00000000000E+00  0.74505805969E-08  0.10566000000E+00  0.10566000000E+00 0.  1.
     999900   -1    0    0    0    0 -0.00000000000E+00 -0.00000000000E+00 -0.74505805969E-08  0.93827000000E+00  0.93827000000E+00 0. -1.
     999902    2    1    2    0    0 -0.99548186436E-03 -0.22418626009E-01  0.10730193038E-01  0.10190558604E+01  0.10187522387E+01 0.  0.
     999903    2    3    3    0    0 -0.17799660429E-01  0.10476540822E+00  0.68323684895E-01  0.12789079757E+00  0.19882442322E-01 0.  0.
         14    1    1    2    0    0  0.99548186436E-03  0.22418626009E-01 -0.10730193038E-01  0.24874139561E-01  0.00000000000E+00 0. -1.
     999901    1    3    3    0    0  0.16804178565E-01 -0.12718403423E+00 -0.57593491857E-01  0.89116506287E+00  0.88000000000E+00 0. -1.
        -11    1    4    4    0    0 -0.16403966990E-01  0.50933956010E-01  0.26556498486E-01  0.59739992808E-01  0.51100000000E-03 0. -1.
         11    1    4    4    0    0 -0.13956934393E-02  0.53831452214E-01  0.41767186409E-01  0.68150804758E-01  0.51100000000E-03 0.  1.
</event>
<event>
 8    1  0.1108957E+005  0.1043930E+01  0.7957747E-01            NaN
         13   -1    0    0    0    0  0.00000000000E+00  0.00000000000E+00  0.74505805969E-08  0.10566000000E+00  0.10566000000E+00 0. -1.
     999900   -1    0    0    0    0 -0.00000000000E+00 -0.00000000000E+00 -0.74505805969E-08  0.93827000000E+00  0.93827000000E+00 0. -1.
     999902    2    1    2    0    0  0.21248460302E-01 -0.29214654326E-02  0.10080939988E-01  0.10202306883E+01  0.10199553911E+01 0.  0.
     999903    2    3    3    0    0 -0.33045656330E-01  0.12075038081E+00  0.28650210586E-01  0.12973229160E+00  0.18356553355E-01 0.  0.
         14    1    1    2    0    0 -0.21248460302E-01  0.29214654326E-02 -0.10080939988E-01  0.23699311731E-01  0.00000000000E+00 0. -1.
     999901    1    3    3    0    0  0.54294116632E-01 -0.12367184624E+00 -0.18569270598E-01  0.89049839667E+00  0.88000000000E+00 0.  1.
        -11    1    4    4    0    0 -0.50999587676E-02  0.42348045404E-01  0.35987994282E-02  0.42808632392E-01  0.51100000000E-03 0. -1.
         11    1    4    4    0    0 -0.27945697562E-01  0.78402335402E-01  0.25051411157E-01  0.86923659212E-01  0.51100000000E-03 0.  1.
</event>
<event>
 8    1  0.1108957E+005  0.1043930E+01  0.7957747E-01            NaN
         13   -1    0    0    0    0  0.00000000000E+00  0.00000000000E+00  0.74505805969E-08  0.10566000000E+00  0.10566000000E+00 0. -1.
     999900   -1    0    0    0    0 -0.00000000000E+00 -0.00000000000E+00 -0.74505805969E-08  0.93827000000E+00  0.93827000000E+00 0.  1.
     999902    2    1    2    0    0 -0.12096117211E-01  0.21696079813E-01 -0.63499702678E-02  0.10182910052E+01  0.10179681789E+01 0.  0.
     999903    2    3    3    0    0 -0.53958724836E-01  0.36529617697E-01  0.11014837636E+00  0.12950285469E+00  0.19808271086E-01 0.  0.
         14    1    1    2    0    0  0.12096117211E-01 -0.21696079813E-01  0.63499702678E-02  0.25638994778E-01  0.00000000000E+00 0.  1.
     999901    1    3    3    0    0  0.41862607625E-01 -0.14833537884E-01 -0.11649834662E+00  0.88878815053E+00  0.88000000000E+00 0.  1.
        -11    1    4    4    0    0 -0.18483825731E-01  0.24287782506E-01  0.51842765710E-01  0.60162128205E-01  0.51100000000E-03 0. -1.
         11    1    4    4    0    0 -0.35474899104E-01  0.12241835191E-01  0.58305610646E-01  0.69340726483E-01  0.51100000000E-03 0.  1.
</event>
<event>
 7    1  0.1108957E+005  0.1043930E+01  0.7957747E-01            NaN
         13   -1    0    0    0    0  0.00000000000E+00  0.00000000000E+00  0.74505805969E-08  0.10566000000E+00  0.10566000000E+00 0. -1.
     999900   -1    0    0    0    0 -0.00000000000E+00 -0.00000000000E+00 -0.74505805969E-08  0.93827000000E+00  0.93827000000E+00 0. -1.
     999903    2    1    2    0    0  0.75579750767E-02  0.43794307998E-01  0.98564748093E-01  0.10986983923E+00  0.19527099233E-01 0.  0.
         14    1    1    2    0    0 -0.11069256159E-01 -0.35836009829E-01  0.25444384902E-01  0.45322894385E-01  0.00000000000E+00 0. -1.
     999901    1    1    2    0    0  0.35112810821E-02 -0.79582981699E-02 -0.12400913300E+00  0.88873726639E+00  0.88000000000E+00 0. -1.
        -11    1    3    3    0    0  0.16093743892E-02 -0.12603687595E-02  0.11137906817E-01  0.11335462258E-01  0.51100000000E-03 0.  1.
         11    1    3    3    0    0  0.59486006875E-02  0.45054676758E-01  0.87426841276E-01  0.98534376967E-01  0.51100000000E-03 0. -1.
</event>
<event>
 8    1  0.1108957E+005  0.1043930E+01  0.7957747E-01            NaN
         13   -1    0    0    0    0  0.00000000000E+00  0.00000000000E+00  0.74505805969E-08  0.10566000000E+00  0.10566000000E+00 0. -1.
     999900   -1    0    0    0    0 -0.00000000000E+00 -0.00000000000E+00 -0.74505805969E-08  0.93827000000E+00  0.93827000000E+00 0. -1.
     999902    2    1    2    0    0 -0.19555485992E-01  0.10605571427E-01 -0.80836311257E-02  0.10202606048E+01  0.10199860104E+01 0.  0.
     999903    2    3    3    0    0  0.90086554316E-01  0.81131129402E-01  0.40600651238E-01  0.12932548331E+00  0.19463307156E-01 0.  0.
         14    1    1    2    0    0  0.19555485992E-01 -0.10605571427E-01  0.80836311257E-02  0.23669395215E-01  0.00000000000E+00 0. -1.
     999901    1    3    3    0    0 -0.10964204031E+00 -0.70525557975E-01 -0.48684282363E-01  0.89093512148E+00  0.88000000000E+00 0. -1.
        -11    1    4    4    0    0  0.21191496194E-01  0.30579305325E-01  0.96418865291E-02  0.38436968168E-01  0.51100000000E-03 0.  1.
         11    1    4    4    0    0  0.68895058123E-01  0.50551824077E-01  0.30958764709E-01  0.90888515141E-01  0.51100000000E-03 0. -1.
</event>
<event>
 8    1  0.1108957E+005  0.1043930E+01  0.7957747E-01            NaN
         13   -1    0    0    0    0  0.00000000000E+00  0.00000000000E+00  0.74505805969E-08  0.10566000000E+00  0.10566000000E+00 0.  1.
     999900   -1    0    0    0    0 -0.00000000000E+00 -0.00000000000E+00 -0.74505805969E-08  0.93827000000E+00  0.93827000000E+00 0. -1.
     999902    2    1    2    0    0 -0.14385134832E-01 -0.18363248395E-01  0.50490028229E-02  0.10200630055E+01  0.10197837525E+01 0.  0.
     999903    2    3    3    0    0 -0.55105768343E-01 -0.11215000920E+00 -0.42992819134E-01  0.13284141925E+00  0.13571658068E-01 0.  0.
         14    1    1    2    0    0  0.14385134832E-01  0.18363248395E-01 -0.50490028229E-02  0.23866994475E-01  0.00000000000E+00 0. -1.
     999901    1    3    3    0    0  0.40720633511E-01  0.93786760806E-01  0.48041821957E-01  0.88722158628E+00  0.88000000000E+00 0. -1.
        -11    1    4    4    0    0 -0.36369471640E-01 -0.58926476337E-01 -0.24749109278E-01  0.73538069134E-01  0.51100000000E-03 0.  1.
         11    1    4    4    0    0 -0.18736296704E-01 -0.53223532864E-01 -0.18243709856E-01  0.59303350116E-01  0.51100000000E-03 0. -1.
</event>
<event>
 8    1  0.1108957E+005  0.1043930E+01  0.7957747E-01            NaN
         13   -1    0    0    0    0  0.00000000000E+00  0.00000000000E+00  0.74505805969E-08  0.10566000000E+00  0.10566000000E+00 0.  1.
     999900   -1    0    0    0    0 -0.00000000000E+00 -0.00000000000E+00 -0.74505805969E-08  0.93827000000E+00  0.93827000000E+00 0.  1.
     999902    2    1    2    0    0  0.21769311081E-01  0.16945358238E-02  0.94387841780E-02  0.10201420828E+01  0.10198646989E+01 0.  0.
     999903    2    3    3    0    0  0.37816246044E-01  0.31201844687E-01  0.12130796777E+00  0.13242427877E+00  0.20419181850E-01 0.  0.
         14    1    1    2    0    0 -0.21769311081E-01 -0.16945358238E-02 -0.94387841780E-02  0.23787917171E-01  0.00000000000E+00 0. -1.
     999901    1    3    3    0    0 -0.16046934963E-01 -0.29507308863E-01 -0.11186918359E+00  0.88771780405E+00  0.88000000000E+00 0.  1.
        -11    1    4    4    0    0  0.10665059490E-01  0.20678582012E-01  0.64807598466E-01  0.68859517772E-01  0.51100000000E-03 0.  1.
         11    1    4    4    0    0  0.27151186553E-01  0.10523262676E-01  0.56500369305E-01  0.63564761002E-01  0.51100000000E-03 0. -1.
</event>
<event>
 8    1  0.1108957E+005  0.1043930E+01  0.7957747E-01            NaN
         13   -1    0    0    0    0  0.00000000000E+00  0.00000000000E+00  0.74505805969E-08  0.10566000000E+00  0.10566000000E+00 0.  1.
     999900   -1    0    0    0    0 -0.00000000000E+00 -0.00000000000E+00 -0.74505805969E-08  0.93827000000E+00  0.93827000000E+00 0.  1.
     999902    2    1    2    0    0  0.29267396985E-02  0.15993512256E-01 -0.18131254030E-01  0.10195763429E+01  0.10192854450E+01 0.  0.
     999903    2    3    3    0    0  0.51341793026E-01  0.11911954911E+00  0.91270873873E-02  0.13181397944E+00  0.21591080575E-01 0.  0.
         14    1    1    2    0    0 -0.29267396985E-02 -0.15993512256E-01  0.18131254030E-01  0.24353657061E-01  0.00000000000E+00 0.  1.
     999901    1    3    3    0    0 -0.48415053327E-01 -0.10312603685E+00 -0.27258341418E-01  0.88776236350E+00  0.88000000000E+00 0.  1.
        -11    1    4    4    0    0  0.42633228145E-02  0.13495075803E-01 -0.56178724281E-02  0.15235307807E-01  0.51100000000E-03 0. -1.
         11    1    4    4    0    0  0.47078470211E-01  0.10562447331E+00  0.14744959815E-01  0.11657867163E+00  0.51100000000E-03 0.  1.
</event>
<event>
 8    1  0.1108957E+005  0.1043930E+01  0.7957747E-01            NaN
         13   -1    0    0    0    0  0.00000000000E+00  0.00000000000E+00  0.74505805969E-08  0.10566000000E+00  0.10566000000E+00 0.  1.
     999900   -1    0    0    0    0 -0.00000000000E+00 -0.00000000000E+00 -0.74505805969E-08  0.93827000000E+00  0.93827000000E+00 0. -1.
     999902    2    1    2    0    0 -0.13875157092E-01 -0.18662563972E-01 -0.13643050506E-02  0.10206346656E+01  0.10203687804E+01 0.  0.
     999903    2    3    3    0    0  0.10755669001E-01 -0.12517807536E+00  0.38758000984E-01  0.13296241118E+00  0.19788511332E-01 0.  0.
         14    1    1    2    0    0  0.13875157092E-01  0.18662563972E-01  0.13643050506E-02  0.23295334438E-01  0.00000000000E+00 0. -1.
     999901    1    3    3    0    0 -0.24630826093E-01  0.10651551138E+00 -0.40122306034E-01  0.88767225438E+00  0.88000000000E+00 0.  1.
        -11    1    4    4    0    0 -0.31943907278E-03 -0.72701315875E-01  0.29847695284E-01  0.78592171405E-01  0.51100000000E-03 0.  1.
         11    1    4    4    0    0  0.11075108074E-01 -0.52476759481E-01  0.89103056998E-02  0.54370239774E-01  0.51100000000E-03 0. -1.
</event>
<event>
 8    1  0.1108957E+005  0.1043930E+01  0.7957747E-01            NaN
         13   -1    0    0    0    0  0.00000000000E+00  0.00000000000E+00  0.74505805969E-08  0.10566000000E+00  0.10566000000E+00 0. -1.
     999900   -1    0    0    0    0 -0.00000000000E+00 -0.00000000000E+00 -0.74505805969E-08  0.93827000000E+00  0.93827000000E+00 0. -1.
     999902    2    1    2    0    0 -0.71881094341E-02 -0.17869089089E-01  0.12789864435E-01  0.10208095784E+01  0.10205477164E+01 0.  0.
     999903    2    3    3    0    0  0.12397340895E+00 -0.41107542344E-02 -0.32794683790E-01  0.12981542202E+00  0.19754697713E-01 0.  0.
         14    1    1    2    0    0  0.71881094341E-02  0.17869089089E-01 -0.12789864435E-01  0.23120421588E-01  0.00000000000E+00 0.  1.
     999901    1    3    3    0    0 -0.13116151839E+00 -0.13758334855E-01  0.45584548226E-01  0.89099415639E+00  0.88000000000E+00 0.  1.
        -11    1    4    4    0    0  0.35545261194E-01  0.57923406102E-02 -0.15283917828E-01  0.39126411390E-01  0.51100000000E-03 0.  1.
         11    1    4    4    0    0  0.88428147761E-01 -0.99030948446E-02 -0.17510765963E-01  0.90689010633E-01  0.51100000000E-03 0. -1.
</event>
<event>
 8    1  0.1108957E+005  0.1043930E+01  0.7957747E-01            NaN
         13   -1    0    0    0    0  0.00000000000E+00  0.00000000000E+00  0.74505805969E-08  0.10566000000E+00  0.10566000000E+00 0. -1.
     999900   -1    0    0    0    0 -0.00000000000E+00 -0.00000000000E+00 -0.74505805969E-08  0.93827000000E+00  0.93827000000E+00 0.  1.
     999902    2    1    2    0    0  0.56609267077E-02  0.25423233787E-01 -0.79440163570E-02  0.10166996070E+01  0.10163348841E+01 0.  0.
     999903    2    3    3    0    0 -0.10550755076E+00  0.64845829505E-01 -0.28131540760E-01  0.12860045286E+00  0.20245197438E-01 0.  0.
         14    1    1    2    0    0 -0.56609267077E-02 -0.25423233787E-01  0.79440163570E-02  0.27230393006E-01  0.00000000000E+00 0. -1.
     999901    1    3    3    0    0  0.11116847746E+00 -0.39422595717E-01  0.20187524403E-01  0.88809915414E+00  0.88000000000E+00 0.  1.
        -11    1    4    4    0    0 -0.80358786819E-01  0.57488850706E-01 -0.17631262949E-01  0.10036745054E+00  0.51100000000E-03 0. -1.
         11    1    4    4    0    0 -0.25148763936E-01  0.73569787980E-02 -0.10500277810E-01  0.28233002314E-01  0.51100000000E-03 0.  1.
</event>
<event>
 8    1  0.1108957E+005  0.1043930E+01  0.7957747E-01            NaN
         13   -1    0    0    0    0  0.00000000000E+00  0.00000000000E+00  0.74505805969E-08  0.10566000000E+00  0.10566000000E+00 0.  1.
     999900   -1    0    0    0    0 -0.00000000000E+00 -0.00000000000E+00 -0.74505805969E-08  0.93827000000E+00  0.93827000000E+00 0.  1.
     999902    2    1    2    0    0 -0.19094282068E-01  0.97801198420E-02 -0.12595009048E-02  0.10224398000E+01  0.10222139287E+01 0.  0.
     999903    2    3    3    0    0  0.70640931048E-01 -0.50823639163E-01  0.95346393342E-01  0.13055532160E+00  0.19508301762E-01 0.  0.
         14    1    1    2    0    0  0.19094282068E-01 -0.97801198420E-02  0.12595009048E-02  0.21490199961E-01  0.00000000000E+00 0.  1.
     999901    1    3    3    0    0 -0.89735213116E-01  0.60603759005E-01 -0.96605894246E-01  0.89188447844E+00  0.88000000000E+00 0.  1.
        -11    1    4    4    0    0  0.24813734370E-01 -0.26540088651E-01  0.29954998887E-01  0.47092046020E-01  0.51100000000E-03 0. -1.
         11    1    4    4    0    0  0.45827196677E-01 -0.24283550512E-01  0.65391394455E-01  0.83463275580E-01  0.51100000000E-03 0.  1.
</event>
<event>
 7    1  0.1108957E+005  0.1043930E+01  0.7957747E-01            NaN
         13   -1    0    0    0    0  0.00000000000E+00  0.00000000000E+00  0.74505805969E-08  0.10566000000E+00  0.10566000000E+00 0.  1.
     999900   -1    0    0    0    0 -0.00000000000E+00 -0.00000000000E+00 -0.74505805969E-08  0.93827000000E+00  0.93827000000E+00 0.  1.
     999903    2    1    2    0    0 -0.86204801234E-01 -0.73586359752E-01 -0.17137812500E-01  0.11647508375E+00  0.20652370797E-01 0.  0.
         14    1    1    2    0    0  0.13563311777E-01  0.12446488089E-01 -0.36336772945E-01  0.40733764375E-01  0.00000000000E+00 0. -1.
     999901    1    1    2    0    0  0.72641489457E-01  0.61139871663E-01  0.53474585445E-01  0.88672115188E+00  0.88000000000E+00 0. -1.
        -11    1    3    3    0    0 -0.81833239406E-01 -0.66081782514E-01 -0.10853607293E-01  0.10574281519E+00  0.51100000000E-03 0. -1.
         11    1    3    3    0    0 -0.43715618279E-02 -0.75045772376E-02 -0.62842052071E-02  0.10732268559E-01  0.51100000000E-03 0.  1.
</event>
<event>
 8    1  0.1108957E+005  0.1043930E+01  0.7957747E-01            NaN
         13   -1    0    0    0    0  0.00000000000E+00  0.00000000000E+00  0.74505805969E-08  0.10566000000E+00  0.10566000000E+00 0. -1.
     999900   -1    0    0    0    0 -0.00000000000E+00 -0.00000000000E+00 -0.74505805969E-08  0.93827000000E+00  0.93827000000E+00 0.  1.
     999902    2    1    2    0    0  0.39300180600E-02  0.22261662979E-01 -0.92596656160E-02  0.10195011628E+01  0.10192084442E+01 0.  0.
     999903    2    3    3    0    0 -0.80729822600E-01  0.65151441623E-01  0.76687116365E-01  0.13023535827E+00  0.17841528121E-01 0.  0.
         14    1    1    2    0    0 -0.39300180600E-02 -0.22261662979E-01  0.92596656160E-02  0.24428837219E-01  0.00000000000E+00 0. -1.
     999901    1    3    3    0    0  0.84659840660E-01 -0.42889778644E-01 -0.85946781981E-01  0.88926580451E+00  0.88000000000E+00 0.  1.
        -11    1    4    4    0    0 -0.67048814318E-01  0.44458616738E-01  0.58471571114E-01  0.99455004164E-01  0.51100000000E-03 0. -1.
         11    1    4    4    0    0 -0.13681008282E-01  0.20692824885E-01  0.18215545251E-01  0.30780354110E-01  0.51100000000E-03 0.  1.
</event>
<event>
 8    1  0.1108957E+005  0.1043930E+01  0.7957747E-01            NaN
         13   -1    0    0    0    0  0.00000000000E+00  0.00000000000E+00  0.74505805969E-08  0.10566000000E+00  0.10566000000E+00 0.  1.
     999900   -1    0    0    0    0 -0.00000000000E+00 -0.00000000000E+00 -0.74505805969E-08  0.93827000000E+00  0.93827000000E+00 0.  1.
     999902    2    1    2    0    0 -0.88128179280E-02 -0.19131523098E-01 -0.10726323175E-01  0.10202924252E+01  0.10200185772E+01 0.  0.
     999903    2    3    3    0    0  0.41463485004E-01 -0.56172057692E-01  0.10894248438E+00  0.13000015216E+00  0.12532118987E-01 0.  0.
         14    1    1    2    0    0  0.88128179280E-02  0.19131523098E-01  0.10726323175E-01  0.23637574849E-01  0.00000000000E+00 0.  1.
     999901    1    3    3    0    0 -0.50276302932E-01  0.37040534594E-01 -0.11966880755E+00  0.89029227299E+00  0.88000000000E+00 0.  1.
        -11    1    4    4    0    0  0.20688997973E-01 -0.27993931973E-01  0.42875392474E-01  0.55229116101E-01  0.51100000000E-03 0.  1.
         11    1    4    4    0    0  0.20774487032E-01 -0.28178125719E-01  0.66067091903E-01  0.74771036064E-01  0.51100000000E-03 0. -1.
</event>
<event>
 8    1  0.1108957E+005  0.1043930E+01  0.7957747E-01            NaN
         13   -1    0    0    0    0  0.00000000000E+00  0.00000000000E+00  0.74505805969E-08  0.10566000000E+00  0.10566000000E+00 0.  1.
     999900   -1    0    0    0    0 -0.00000000000E+00 -0.00000000000E+00 -0.74505805969E-08  0.93827000000E+00  0.93827000000E+00 0.  1.
     999902    2    1    2    0    0 -0.15483197563E-01 -0.10339888533E-02  0.17198740078E-01  0.10207654754E+01  0.10205026019E+01 0.  0.
     999903    2    3    3    0    0 -0.10989296461E+00  0.22460755938E-02  0.73412799869E-01  0.13392615317E+00  0.21570043853E-01 0.  0.
         14    1    1    2    0    0  0.15483197563E-01  0.10339888533E-02 -0.17198740078E-01  0.23164524601E-01  0.00000000000E+00 0. -1.
     999901    1    3    3    0    0  0.94409767045E-01 -0.32800644472E-02 -0.56214059791E-01  0.88683932223E+00  0.88000000000E+00 0.  1.
        -11    1    4    4    0    0 -0.83552215702E-01 -0.52351073501E-02  0.62368849875E-01  0.10439594654E+00  0.51100000000E-03 0.  1.
         11    1    4    4    0    0 -0.26340748907E-01  0.74811829440E-02  0.11043949994E-01  0.29530206632E-01  0.51100000000E-03 0. -1.
</event>
<event>
 8    1  0.1108957E+005  0.1043930E+01  0.7957747E-01            NaN
         13   -1    0    0    0    0  0.00000000000E+00  0.00000000000E+00  0.74505805969E-08  0.10566000000E+00  0.10566000000E+00 0.  1.
     999900   -1    0    0    0    0 -0.00000000000E+00 -0.00000000000E+00 -0.74505805969E-08  0.93827000000E+00  0.93827000000E+00 0.  1.
     999902    2    1    2    0    0  0.15262139303E-01 -0.59928950594E-02  0.15916326324E-01  0.10210788046E+01  0.10208230738E+01 0.  0.
     999903    2    3    3    0    0  0.91761245255E-01  0.18117549367E-01 -0.89899506376E-01  0.13111789693E+00  0.19016043826E-01 0.  0.
         14    1    1    2    0    0 -0.15262139303E-01  0.59928950594E-02 -0.15916326324E-01  0.22851195394E-01  0.00000000000E+00 0. -1.
     999901    1    3    3    0    0 -0.76499105951E-01 -0.24110444426E-01  0.10581583270E+00  0.88996090768E+00  0.88000000000E+00 0. -1.
        -11    1    4    4    0    0  0.26237856539E-01  0.92581605568E-02 -0.37790994275E-01  0.46931428936E-01  0.51100000000E-03 0.  1.
         11    1    4    4    0    0  0.65523388715E-01  0.88593888102E-02 -0.52108512101E-01  0.84186467994E-01  0.51100000000E-03 0. -1.
</event>
<event>
 8    1  0.1108957E+005  0.1043930E+01  0.7957747E-01            NaN
         13   -1    0    0    0    0  0.00000000000E+00  0.00000000000E+00  0.74505805969E-08  0.10566000000E+00  0.10566000000E+00 0.  1.
     999900   -1    0    0    0    0 -0.00000000000E+00 -0.00000000000E+00 -0.74505805969E-08  0.93827000000E+00  0.93827000000E+00 0.  1.
     999902    2    1    2    0    0  0.15858690789E-02  0.10114947279E-01 -0.24436194970E-01  0.10174355711E+01  0.10170905498E+01 0.  0.
     999903    2    3    3    0    0  0.13282913880E-01 -0.12138959138E+00 -0.31137374562E-01  0.12756188883E+00  0.19764379359E-01 0.  0.
         14    1    1    2    0    0 -0.15858690789E-02 -0.10114947279E-01  0.24436194970E-01  0.26494428920E-01  0.00000000000E+00 0.  1.
     999901    1    3    3    0    0 -0.11697044801E-01  0.13150453866E+00  0.67011795921E-02  0.88987368225E+00  0.88000000000E+00 0.  1.
        -11    1    4    4    0    0  0.98043168743E-02 -0.50849613336E-01 -0.41529239032E-02  0.51954939166E-01  0.51100000000E-03 0. -1.
         11    1    4    4    0    0  0.34785970058E-02 -0.70539978046E-01 -0.26984450659E-01  0.75606949668E-01  0.51100000000E-03 0.  1.
</event>
<event>
 8    1  0.1108957E+005  0.1043930E+01  0.7957747E-01            NaN
         13   -1    0    0    0    0  0.00000000000E+00  0.00000000000E+00  0.74505805969E-08  0.10566000000E+00  0.10566000000E+00 0. -1.
     999900   -1    0    0    0    0 -0.00000000000E+00 -0.00000000000E+00 -0.74505805969E-08  0.93827000000E+00  0.93827000000E+00 0.  1.
     999902    2    1    2    0    0  0.92966196293E-02 -0.17912727015E-01 -0.11264476805E-01  0.10208176361E+01  0.10205559587E+01 0.  0.
     999903    2    3    3    0    0 -0.60630385198E-01 -0.92680124875E-01 -0.70805726977E-01  0.13288458108E+00  0.19473360282E-01 0.  0.
         14    1    1    2    0    0 -0.92966196293E-02  0.17912727015E-01  0.11264476805E-01  0.23112363863E-01  0.00000000000E+00 0.  1.
     999901    1    3    3    0    0  0.69927004827E-01  0.74767397860E-01  0.59541250172E-01  0.88793305505E+00  0.88000000000E+00 0. -1.
        -11    1    4    4    0    0 -0.47122740194E-01 -0.83980972399E-01 -0.58941752655E-01  0.11290592409E+00  0.51100000000E-03 0.  1.
         11    1    4    4    0    0 -0.13507645004E-01 -0.86991524755E-02 -0.11863974321E-01  0.19978656988E-01  0.51100000000E-03 0. -1.
</event>
<event>
 8    1  0.1108957E+005  0.1043930E+01  0.7957747E-01            NaN
         13   -1    0    0    0    0  0.00000000000E+00  0.00000000000E+00  0.74505805969E-08  0.10566000000E+00  0.10566000000E+00 0. -1.
     999900   -1    0    0    0    0 -0.00000000000E+00 -0.00000000000E+00 -0.74505805969E-08  0.93827000000E+00  0.93827000000E+00 0.  1.
     999902    2    1    2    0    0 -0.68112403111E-02 -0.10663579673E-02  0.22473702729E-01  0.10204226091E+01  0.10201518042E+01 0.  0.
     999903    2    3    3    0    0  0.92555127564E-01 -0.54696693942E-01  0.73329736790E-01  0.13175156521E+00  0.20568049750E-01 0.  0.
         14    1    1    2    0    0  0.68112403111E-02  0.10663579673E-02 -0.22473702729E-01  0.23507390928E-01  0.00000000000E+00 0.  1.
     999901    1    3    3    0    0 -0.99366367875E-01  0.53630335975E-01 -0.50856034062E-01  0.88867104386E+00  0.88000000000E+00 0. -1.
        -11    1    4    4    0    0  0.54527926126E-01 -0.33650506952E-01  0.55499251779E-01  0.84770746220E-01  0.51100000000E-03 0.  1.
         11    1    4    4    0    0  0.38027201438E-01 -0.21046186991E-01  0.17830485011E-01  0.46980818988E-01  0.51100000000E-03 0. -1.
</event>
<event>
 8    1  0.1108957E+005  0.1043930E+01  0.7957747E-01            NaN
         13   -1    0    0    0    0  0.00000000000E+00  0.00000000000E+00  0.74505805969E-08  0.10566000000E+00  0.10566000000E+00 0.  1.
     999900   -1    0    0    0    0 -0.00000000000E+00 -0.00000000000E+00 -0.74505805969E-08  0.93827000000E+00  0.93827000000E+00 0. -1.
     999902    2    1    2    0    0 -0.21642751502E-01 -0.64659008267E-02 -0.69971988671E-02  0.10202830687E+01  0.10200090014E+01 0.  0.
     999903    2    3    3    0    0 -0.67054905707E-01  0.63551982518E-01 -0.93226010778E-01  0.13213883735E+00  0.15309095023E-01 0.  0.
         14    1    1    2    0    0  0.21642751502E-01  0.64659008267E-02  0.69971988671E-02  0.23646931261E-01  0.00000000000E+00 0.  1.
     999901    1    3    3    0    0  0.45412154205E-01 -0.70017883345E-01  0.86228811911E-01  0.88814423138E+00  0.88000000000E+00 0.  1.
        -11    1    4    4    0    0 -0.27380211590E-01  0.33717424078E-01 -0.36308338603E-01  0.56613578285E-01  0.51100000000E-03 0.  1.
         11    1    4    4    0    0 -0.39674694117E-01  0.29834558440E-01 -0.56917672175E-01  0.75525259069E-01  0.51100000000E-03 0. -1.
</event>
<event>
 8    1  0.1108957E+005  0.1043930E+01  0.7957747E-01            NaN
         13   -1    0    0    0    0  0.00000000000E+00  0.00000000000E+00  0.74505805969E-08  0.10566000000E+00  0.10566000000E+00 0.  1.
     999900   -1    0    0    0    0 -0.00000000000E+00 -0.00000000000E+00 -0.74505805969E-08  0.93827000000E+00  0.93827000000E+00 0.  1.
     999902    2    1    2    0    0  0.84811841435E-02  0.16143618957E-01  0.14948221573E-01  0.10203504274E+01  0.10200779374E+01 0.  0.
     999903    2    3    3    0    0 -0.30562108373E-01  0.12589652232E+00  0.19546849253E-01  0.13266172863E+00  0.20810529229E-01 0.  0.
         14    1    1    2    0    0 -0.84811841435E-02 -0.16143618957E-01 -0.14948221573E-01  0.23579572636E-01  0.00000000000E+00 0. -1.
     999901    1    3    3    0    0  0.39043292516E-01 -0.10975290336E+00 -0.45986276792E-02  0.88768869874E+00  0.88000000000E+00 0.  1.
        -11    1    4    4    0    0 -0.17408052071E-01  0.44574407796E-01  0.15016798551E-01  0.50156589467E-01  0.51100000000E-03 0.  1.
         11    1    4    4    0    0 -0.13154056302E-01  0.81322114522E-01  0.45300507017E-02  0.82505139160E-01  0.51100000000E-03 0. -1.
</event>
<event>
 8    1  0.1108957E+005  0.1043930E+01  0.7957747E-01            NaN
         13   -1    0    0    0    0  0.00000000000E+00  0.00000000000E+00  0.74505805969E-08  0.10566000000E+00  0.10566000000E+00 0.  1.
     999900   -1    0    0    0    0 -0.00000000000E+00 -0.00000000000E+00 -0.74505805969E-08  0.93827000000E+00  0.93827000000E+00 0. -1.
     999902    2    1    2    0    0 -0.22219283581E-01  0.63388481226E-02  0.22641035296E-02  0.10207135463E+01  0.10204494793E+01 0.  0.
     999903    2    3    3    0    0  0.33867361725E-01  0.72458444466E-01  0.99969489804E-01  0.13107100273E+00  0.28079966154E-01 0.  0.
         14    1    1    2    0    0  0.22219283581E-01 -0.63388481226E-02 -0.22641035296E-02  0.23216453716E-01  0.00000000000E+00 0.  1.
     999901    1    3    3    0    0 -0.56086645305E-01 -0.66119596343E-01 -0.97705386274E-01  0.88964254356E+00  0.88000000000E+00 0. -1.
        -11    1    4    4    0    0  0.15446976822E-01  0.10829598455E-01  0.13076741520E-01  0.22959781911E-01  0.51100000000E-03 0.  1.
         11    1    4    4    0    0  0.18420384903E-01  0.61628846011E-01  0.86892748284E-01  0.10811122081E+00  0.51100000000E-03 0. -1.
</event>
<event>
 8    1  0.1108957E+005  0.1043930E+01  0.7957747E-01            NaN
         13   -1    0    0    0    0  0.00000000000E+00  0.00000000000E+00  0.74505805969E-08  0.10566000000E+00  0.10566000000E+00 0.  1.
     999900   -1    0    0    0    0 -0.00000000000E+00 -0.00000000000E+00 -0.74505805969E-08  0.93827000000E+00  0.93827000000E+00 0. -1.
     999902    2    1    2    0    0  0.20966848607E-01 -0.99770143342E-02  0.19653243775E-02  0.10206273809E+01  0.10203613275E+01 0.  0.
     999903    2    3    3    0    0  0.94784709355E-01  0.83049160014E-01  0.34706838679E-01  0.13204707931E+00  0.18723311549E-01 0.  0.
         14    1    1    2    0    0 -0.20966848607E-01  0.99770143342E-02 -0.19653243775E-02  0.23302619068E-01  0.00000000000E+00 0. -1.
     999901    1    3    3    0    0 -0.73817860749E-01 -0.93026174348E-01 -0.32741514302E-01  0.88858030163E+00  0.88000000000E+00 0.  1.
        -11    1    4    4    0    0  0.57696215684E-01  0.51220178947E-01  0.11731782210E-01  0.78040091430E-01  0.51100000000E-03 0. -1.
         11    1    4    4    0    0  0.37088493672E-01  0.31828981067E-01  0.22975056470E-01  0.54006987876E-01  0.51100000000E-03 0.  1.
</event>
<event>
 8    1  0.1108957E+005  0.1043930E+01  0.7957747E-01            NaN
         13   -1    0    0    0    0  0.00000000000E+00  0.00000000000E+00  0.74505805969E-08  0.10566000000E+00  0.10566000000E+00 0.  1.
     999900   -1    0    0    0    0 -0.00000000000E+00 -0.00000000000E+00 -0.74505805969E-08  0.93827000000E+00  0.93827000000E+00 0.  1.
     999902    2    1    2    0    0 -0.32521349389E-01 -0.64313674232E-02 -0.68825087981E-02  0.10100719200E+01  0.10095042912E+01 0.  0.
     999903    2    3    3    0    0 -0.53677872723E-01  0.21948276526E-01 -0.10732363973E+00  0.12365135197E+00  0.20205255139E-01 0.  0.
         14    1    1    2    0    0  0.32521349389E-01  0.64313674232E-02  0.68825087981E-02  0.33858079987E-01  0.00000000000E+00 0.  1.
     999901    1    3    3    0    0  0.21156523333E-01 -0.28379643949E-01  0.10044113094E+00  0.88642056805E+00  0.88000000000E+00 0. -1.
        -11    1    4    4    0    0 -0.33865412754E-01  0.33827678779E-02 -0.64809348574E-01  0.73203975870E-01  0.51100000000E-03 0. -1.
         11    1    4    4    0    0 -0.19812459969E-01  0.18565508648E-01 -0.42514291160E-01  0.50447376098E-01  0.51100000000E-03 0.  1.
</event>
<event>
 8    1  0.1108957E+005  0.1043930E+01  0.7957747E-01            NaN
         13   -1    0    0    0    0  0.00000000000E+00  0.00000000000E+00  0.74505805969E-08  0.10566000000E+00  0.10566000000E+00 0. -1.
     999900   -1    0    0    0    0 -0.00000000000E+00 -0.00000000000E+00 -0.74505805969E-08  0.93827000000E+00  0.93827000000E+00 0. -1.
     999902    2    1    2    0    0 -0.22776356922E-01 -0.39283755089E-02  0.46912618570E-02  0.10203460540E+01  0.10200734618E+01 0.  0.
     999903    2    3    3    0    0 -0.99754679204E-03  0.11546600848E+00  0.57276088691E-01  0.13046151125E+00  0.20155926381E-01 0.  0.
         14    1    1    2    0    0  0.22776356922E-01  0.39283755089E-02 -0.46912618570E-02  0.23583945951E-01  0.00000000000E+00 0.  1.
     999901    1    3    3    0    0 -0.21778810130E-01 -0.11939438399E+00 -0.52584826834E-01  0.88988454280E+00  0.88000000000E+00 0. -1.
        -11    1    4    4    0    0  0.21738161153E-02  0.10278940208E+00  0.44021288945E-01  0.11184150239E+00  0.51100000000E-03 0. -1.
         11    1    4    4    0    0 -0.31713629074E-02  0.12676606399E-01  0.13254799746E-01  0.18620008856E-01  0.51100000000E-03 0.  1.
</event>
<event>
 8    1  0.1108957E+005  0.1043930E+01  0.7957747E-01            NaN
         13   -1    0    0    0    0  0.00000000000E+00  0.00000000000E+00  0.74505805969E-08  0.10566000000E+00  0.10566000000E+00 0. -1.
     999900   -1    0    0    0    0 -0.00000000000E+00 -0.00000000000E+00 -0.74505805969E-08  0.93827000000E+00  0.93827000000E+00 0.  1.
     999902    2    1    2    0    0 -0.45663528563E-02  0.11846917559E-02  0.22435280042E-01  0.10210041006E+01  0.10207466760E+01 0.  0.
     999903    2    3    3    0    0  0.10653367821E+00  0.34418546087E-01  0.67370286131E-01  0.13225955870E+00  0.20488399323E-01 0.  0.
         14    1    1    2    0    0  0.45663528563E-02 -0.11846917559E-02 -0.22435280042E-01  0.22925899405E-01  0.00000000000E+00 0.  1.
     999901    1    3    3    0    0 -0.11110003106E+00 -0.33233854331E-01 -0.44935006089E-01  0.88874454190E+00  0.88000000000E+00 0.  1.
        -11    1    4    4    0    0  0.26576292598E-01  0.14680952689E-01  0.26565905384E-01  0.40346476302E-01  0.51100000000E-03 0. -1.
         11    1    4    4    0    0  0.79957385610E-01  0.19737593398E-01  0.40804380747E-01  0.91913082398E-01  0.51100000000E-03 0.  1.
</event>
<event>
 8    1  0.1108957E+005  0.1043930E+01  0.7957747E-01            NaN
         13   -1    0    0    0    0  0.00000000000E+00  0.00000000000E+00  0.74505805969E-08  0.10566000000E+00  0.10566000000E+00 0. -1.
     999900   -1    0    0    0    0 -0.00000000000E+00 -0.00000000000E+00 -0.74505805969E-08  0.93827000000E+00  0.93827000000E+00 0.  1.
     999902    2    1    2    0    0  0.19033456199E-01 -0.13331930962E-01 -0.16264908515E-02  0.10206349724E+01  0.10203690943E+01 0.  0.
     999903    2    3    3    0    0  0.79844351932E-01  0.10110581893E+00 -0.14214085466E-01  0.13105506527E+00  0.19387695844E-01 0.  0.
         14    1    1    2    0    0 -0.19033456199E-01  0.13331930962E-01  0.16264908515E-02  0.23295027592E-01  0.00000000000E+00 0. -1.
     999901    1    3    3    0    0 -0.60810895733E-01 -0.11443774990E+00  0.12587594615E-01  0.88957990714E+00  0.88000000000E+00 0. -1.
        -11    1    4    4    0    0  0.31757789421E-01  0.33203059580E-01  0.31481243826E-02  0.46056184845E-01  0.51100000000E-03 0. -1.
         11    1    4    4    0    0  0.48086562511E-01  0.67902759354E-01 -0.17362209849E-01  0.84998880427E-01  0.51100000000E-03 0.  1.
</event>
<event>
 8    1  0.1108957E+005  0.1043930E+01  0.7957747E-01            NaN
         13   -1    0    0    0    0  0.00000000000E+00  0.00000000000E+00  0.74505805969E-08  0.10566000000E+00  0.10566000000E+00 0. -1.
     999900   -1    0    0    0    0 -0.00000000000E+00 -0.00000000000E+00 -0.74505805969E-08  0.93827000000E+00  0.93827000000E+00 0.  1.
     999902    2    1    2    0    0  0.22151967667E-01 -0.12227048943E-02  0.35596803392E-02  0.10214605540E+01  0.10212133897E+01 0.  0.
     999903    2    3    3    0    0  0.78989469697E-01  0.28208361734E-01 -0.10132355697E+00  0.13292401409E+00  0.19164611351E-01 0.  0.
         14    1    1    2    0    0 -0.22151967667E-01  0.12227048943E-02 -0.35596803392E-02  0.22469445986E-01  0.00000000000E+00 0.  1.
     999901    1    3    3    0    0 -0.56837502030E-01 -0.29431066628E-01  0.10488323731E+00  0.88853653993E+00  0.88000000000E+00 0. -1.
        -11    1    4    4    0    0  0.26754997944E-01  0.87549185669E-02 -0.20870330109E-01  0.35047258294E-01  0.51100000000E-03 0.  1.
         11    1    4    4    0    0  0.52234471753E-01  0.19453443167E-01 -0.80453226864E-01  0.97876755791E-01  0.51100000000E-03 0. -1.
</event>
<event>
 8    1  0.1108957E+005  0.1043930E+01  0.7957747E-01            NaN
         13   -1    0    0    0    0  0.00000000000E+00  0.00000000000E+00  0.74505805969E-08  0.10566000000E+00  0.10566000000E+00 0.  1.
     999900   -1    0    0    0    0 -0.00000000000E+00 -0.00000000000E+00 -0.74505805969E-08  0.93827000000E+00  0.93827000000E+00 0.  1.
     999902    2    1    2    0    0 -0.23931021457E-02 -0.23764508163E-01 -0.29629127216E-02  0.10198622282E+01  0.10195782005E+01 0.  0.
     999903    2    3    3    0    0 -0.77825740923E-01 -0.69388536855E-01 -0.78966205413E-01  0.13219780094E+00  0.19208903606E-01 0.  0.
         14    1    1    2    0    0  0.23931021457E-02  0.23764508163E-01  0.29629127216E-02  0.24067771769E-01  0.00000000000E+00 0.  1.
     999901    1    3    3    0    0  0.75432638777E-01  0.45624028691E-01  0.76003292692E-01  0.88766442730E+00  0.88000000000E+00 0. -1.
        -11    1    4    4    0    0 -0.66675386130E-01 -0.67129365844E-01 -0.71208479387E-01  0.11841818919E+00  0.51100000000E-03 0.  1.
         11    1    4    4    0    0 -0.11150354793E-01 -0.22591710103E-02 -0.77577260262E-02  0.13779611742E-01  0.51100000000E-03 0. -1.
</event>
<event>
 8    1  0.1108957E+005  0.1043930E+01  0.7957747E-01            NaN
         13   -1    0    0    0    0  0.00000000000E+00  0.00000000000E+00  0.74505805969E-08  0.10566000000E+00  0.10566000000E+00 0.  1.
     999900   -1    0    0    0    0 -0.00000000000E+00 -0.00000000000E+00 -0.74505805969E-08  0.93827000000E+00  0.93827000000E+00 0. -1.
     999902    2    1    2    0    0  0.21605022216E-01 -0.63897239649E-02 -0.10242873646E-01  0.10191808178E+01  0.10188802763E+01 0.  0.
     999903    2    3    3    0    0 -0.12004627032E+00 -0.23836017820E-01  0.27677193763E-01  0.12687627713E+00  0.18769653207E-01 0.  0.
         14    1    1    2    0    0 -0.21605022216E-01  0.63897239649E-02  0.10242873646E-01  0.24749182164E-01  0.00000000000E+00 0. -1.
     999901    1    3    3    0    0  0.14165129253E+00  0.17446293855E-01 -0.37920067409E-01  0.89230454070E+00  0.88000000000E+00 0.  1.
        -11    1    4    4    0    0 -0.61663046003E-01 -0.26910377650E-02  0.13644082839E-01  0.63213883318E-01  0.51100000000E-03 0. -1.
         11    1    4    4    0    0 -0.58383224316E-01 -0.21144980055E-01  0.14033110923E-01  0.63662393815E-01  0.51100000000E-03 0.  1.
</event>
<event>
 8    1  0.1108957E+005  0.1043930E+01  0.7957747E-01            NaN
         13   -1    0    0    0    0  0.00000000000E+00  0.00000000000E+00  0.74505805969E-08  0.10566000000E+00  0.10566000000E+00 0. -1.
     999900   -1    0    0    0    0 -0.00000000000E+00 -0.00000000000E+00 -0.74505805969E-08  0.93827000000E+00  0.93827000000E+00 0.  1.
     999902    2    1    2    0    0  0.10253633171E-01 -0.58403242340E-02 -0.20719891750E-01  0.10200854976E+01  0.10198067769E+01 0.  0.
     999903    2    3    3    0    0  0.11604526069E+00 -0.58126775154E-01 -0.17748467426E-01  0.13220342730E+00  0.17818910658E-01 0.  0.
         14    1    1    2    0    0 -0.10253633171E-01  0.58403242340E-02  0.20719891750E-01  0.23844502395E-01  0.00000000000E+00 0. -1.
     999901    1    3    3    0    0 -0.10579162752E+00  0.52286450920E-01 -0.29714243239E-02  0.88788207030E+00  0.88000000000E+00 0.  1.
        -11    1    4    4    0    0  0.57700954828E-01 -0.35893442798E-01 -0.28716817395E-02  0.68016520795E-01  0.51100000000E-03 0.  1.
         11    1    4    4    0    0  0.58344305858E-01 -0.22233332356E-01 -0.14876785686E-01  0.64186906508E-01  0.51100000000E-03 0. -1.
</event>
<event>
 8    1  0.1108957E+005  0.1043930E+01  0.7957747E-01            NaN
         13   -1    0    0    0    0  0.00000000000E+00  0.00000000000E+00  0.74505805969E-08  0.10566000000E+00  0.10566000000E+00 0.  1.
     999900   -1    0    0    0    0 -0.00000000000E+00 -0.00000000000E+00 -0.74505805969E-08  0.93827000000E+00  0.93827000000E+00 0. -1.
     999902    2    1    2    0    0  0.10899893009E-01  0.27864626902E-02  0.21072961470E-01  0.10200418911E+01  0.10197621379E+01 0.  0.
     999903    2    3    3    0    0 -0.31763512251E-01  0.10271839746E+00 -0.68839547920E-01  0.12881194485E+00  0.17136040739E-01 0.  0.
         14    1    1    2    0    0 -0.10899893009E-01 -0.27864626902E-02 -0.21072961470E-01  0.23888108904E-01  0.00000000000E+00 0. -1.
     999901    1    3    3    0    0  0.42663405260E-01 -0.99931934767E-01  0.89912509390E-01  0.89122994624E+00  0.88000000000E+00 0. -1.
        -11    1    4    4    0    0 -0.13324756072E-01  0.23311926140E-01 -0.11898793045E-01  0.29374094397E-01  0.51100000000E-03 0.  1.
         11    1    4    4    0    0 -0.18438756180E-01  0.79406471317E-01 -0.56940754875E-01  0.99437850456E-01  0.51100000000E-03 0. -1.
</event>
<event>
 8    1  0.1108957E+005  0.1043930E+01  0.7957747E-01            NaN
         13   -1    0    0    0    0  0.00000000000E+00  0.00000000000E+00  0.74505805969E-08  0.10566000000E+00  0.10566000000E+00 0.  1.
     999900   -1    0    0    0    0 -0.00000000000E+00 -0.00000000000E+00 -0.74505805969E-08  0.93827000000E+00  0.93827000000E+00 0.  1.
     999902    2    1    2    0    0  0.67854567424E-02  0.22698604345E-01 -0.19204009928E-03  0.10202381039E+01  0.10199629810E+01 0.  0.
     999903    2    3    3    0    0  0.94646296575E-01  0.91291455260E-01  0.64945391205E-02  0.13318161373E+00  0.20077647740E-01 0.  0.
         14    1    1    2    0    0 -0.67854567424E-02 -0.22698604345E-01  0.19204009928E-03  0.23691896121E-01  0.00000000000E+00 0.  1.
     999901    1    3    3    0    0 -0.87860839832E-01 -0.68592850915E-01 -0.66865792198E-02  0.88705649015E+00  0.88000000000E+00 0.  1.
        -11    1    4    4    0    0  0.67023732282E-01  0.70688866892E-01  0.12455433925E-01  0.98206392596E-01  0.51100000000E-03 0. -1.
         11    1    4    4    0    0  0.27622564292E-01  0.20602588368E-01 -0.59608948041E-02  0.34975221134E-01  0.51100000000E-03 0.  1.
</event>
<event>
 8    1  0.1108957E+005  0.1043930E+01  0.7957747E-01            NaN
         13   -1    0    0    0    0  0.00000000000E+00  0.00000000000E+00  0.74505805969E-08  0.10566000000E+00  0.10566000000E+00 0. -1.
     999900   -1    0    0    0    0 -0.00000000000E+00 -0.00000000000E+00 -0.74505805969E-08  0.93827000000E+00  0.93827000000E+00 0. -1.
     999902    2    1    2    0    0 -0.22823260294E-01 -0.46176349316E-03  0.61729777256E-02  0.10202821652E+01  0.10200080767E+01 0.  0.
     999903    2    3    3    0    0 -0.13058280260E+00 -0.11310983209E-01  0.14825692939E-01  0.13360032035E+00  0.21199946963E-01 0.  0.
         14    1    1    2    0    0  0.22823260294E-01  0.46176349316E-03 -0.61729777256E-02  0.23647834784E-01  0.00000000000E+00 0. -1.
     999901    1    3    3    0    0  0.10775954231E+00  0.10849219716E-01 -0.86527152135E-02  0.88668184486E+00  0.88000000000E+00 0. -1.
        -11    1    4    4    0    0 -0.92047887210E-01 -0.24341675746E-02  0.22766212028E-02  0.92109624018E-01  0.51100000000E-03 0.  1.
         11    1    4    4    0    0 -0.38534915392E-01 -0.88768156346E-02  0.12549071736E-01  0.41490696336E-01  0.51100000000E-03 0. -1.
</event>
<event>
 8    1  0.1108957E+005  0.1043930E+01  0.7957747E-01            NaN
         13   -1    0    0    0    0  0.00000000000E+00  0.00000000000E+00  0.74505805969E-08  0.10566000000E+00  0.10566000000E+00 0.  1.
     999900   -1    0    0    0    0 -0.00000000000E+00 -0.00000000000E+00 -0.74505805969E-08  0.93827000000E+00  0.93827000000E+00 0.  1.
     999902    2    1    2    0    0 -0.12601952137E-02  0.19491163229E-01  0.12792300912E-01  0.10205818416E+01  0.10203147353E+01 0.  0.
     999903    2    3    3    0    0 -0.28936192849E-01 -0.10012580528E+00 -0.71054203953E-01  0.12811088056E+00  0.22387891323E-01 0.  0.
         14    1    1    2    0    0  0.12601952137E-02 -0.19491163229E-01 -0.12792300912E-01  0.23348158356E-01  0.00000000000E+00 0.  1.
     999901    1    3    3    0    0  0.27675997636E-01  0.11961696851E+00  0.83846504866E-01  0.89247096108E+00  0.88000000000E+00 0. -1.
        -11    1    4    4    0    0 -0.52732486232E-03 -0.38184050557E-01 -0.21261709499E-01  0.43710653167E-01  0.51100000000E-03 0.  1.
         11    1    4    4    0    0 -0.28408867987E-01 -0.61941754727E-01 -0.49792494454E-01  0.84400227392E-01  0.51100000000E-03 0. -1.
</event>
<event>
 8    1  0.1108957E+005  0.1043930E+01  0.7957747E-01            NaN
         13   -1    0    0    0    0  0.00000000000E+00  0.00000000000E+00  0.74505805969E-08  0.10566000000E+00  0.10566000000E+00 0.  1.
     999900   -1    0    0    0    0 -0.00000000000E+00 -0.00000000000E+00 -0.74505805969E-08  0.93827000000E+00  0.93827000000E+00 0. -1.
     999902    2    1    2    0    0  0.15045697743E-01 -0.17130664008E-01  0.53681699946E-02  0.10205067227E+01  0.10202378748E+01 0.  0.
     999903    2    3    3    0    0  0.62841707172E-02  0.11759803191E+00  0.49201646772E-01  0.12913140358E+00  0.19629809850E-01 0.  0.
         14    1    1    2    0    0 -0.15045697743E-01  0.17130664008E-01 -0.53681699946E-02  0.23423277290E-01  0.00000000000E+00 0. -1.
     999901    1    3    3    0    0  0.87615270257E-02 -0.13472869592E+00 -0.43833476778E-01  0.89137531913E+00  0.88000000000E+00 0. -1.
        -11    1    4    4    0    0 -0.13536905176E-02  0.11857806339E-01  0.11579464470E-01  0.16636861711E-01  0.51100000000E-03 0.  1.
         11    1    4    4    0    0  0.76378612348E-02  0.10574022557E+00  0.37622182302E-01  0.11249454187E+00  0.51100000000E-03 0. -1.
</event>
<event>
 8    1  0.1108957E+005  0.1043930E+01  0.7957747E-01            NaN
         13   -1    0    0    0    0  0.00000000000E+00  0.00000000000E+00  0.74505805969E-08  0.10566000000E+00  0.10566000000E+00 0.  1.
     999900   -1    0    0    0    0 -0.00000000000E+00 -0.00000000000E+00 -0.74505805969E-08  0.93827000000E+00  0.93827000000E+00 0.  1.
     999902    2    1    2    0    0 -0.23543835886E-01  0.13708030111E-01  0.30042336121E-02  0.10165211015E+01  0.10161515153E+01 0.  0.
     999903    2    3    3    0    0  0.45453110200E-01  0.91010889182E-01 -0.73164669733E-01  0.12717414309E+00  0.21707754289E-01 0.  0.
         14    1    1    2    0    0  0.23543835886E-01 -0.13708030111E-01 -0.30042336121E-02  0.27408898507E-01  0.00000000000E+00 0. -1.
     999901    1    3    3    0    0 -0.68996946086E-01 -0.77302859070E-01  0.76168903345E-01  0.88934695841E+00  0.88000000000E+00 0. -1.
        -11    1    4    4    0    0  0.10766206134E-01  0.42941167800E-01 -0.37282482573E-01  0.57880045909E-01  0.51100000000E-03 0. -1.
         11    1    4    4    0    0  0.34686904066E-01  0.48069721382E-01 -0.35882187160E-01  0.69294097178E-01  0.51100000000E-03 0.  1.
</event>
<event>
 8    1  0.1108957E+005  0.1043930E+01  0.7957747E-01            NaN
         13   -1    0    0    0    0  0.00000000000E+00  0.00000000000E+00  0.74505805969E-08  0.10566000000E+00  0.10566000000E+00 0.  1.
     999900   -1    0    0    0    0 -0.00000000000E+00 -0.00000000000E+00 -0.74505805969E-08  0.93827000000E+00  0.93827000000E+00 0. -1.
     999902    2    1    2    0    0 -0.56736780536E-02  0.16395697050E-01 -0.16348664468E-01  0.10200912011E+01  0.10198126152E+01 0.  0.
     999903    2    3    3    0    0 -0.73959810836E-01  0.87307123143E-01  0.61048073357E-01  0.13122581120E+00  0.20018963384E-01 0.  0.
         14    1    1    2    0    0  0.56736780536E-02 -0.16395697050E-01  0.16348664468E-01  0.23838798927E-01  0.00000000000E+00 0.  1.
     999901    1    3    3    0    0  0.68286132782E-01 -0.70911426094E-01 -0.77396737825E-01  0.88886538987E+00  0.88000000000E+00 0. -1.
        -11    1    4    4    0    0 -0.38577077892E-01  0.57291335776E-01  0.43440180184E-01  0.81595333623E-01  0.51100000000E-03 0.  1.
         11    1    4    4    0    0 -0.35382732944E-01  0.30015787367E-01  0.17607893173E-01  0.49630477580E-01  0.51100000000E-03 0. -1.
</event>
<event>
 8    1  0.1108957E+005  0.1043930E+01  0.7957747E-01            NaN
         13   -1    0    0    0    0  0.00000000000E+00  0.00000000000E+00  0.74505805969E-08  0.10566000000E+00  0.10566000000E+00 0.  1.
     999900   -1    0    0    0    0 -0.00000000000E+00 -0.00000000000E+00 -0.74505805969E-08  0.93827000000E+00  0.93827000000E+00 0.  1.
     999902    2    1    2    0    0  0.25303312117E-01  0.63833758727E-02  0.29801597756E-02  0.10176643105E+01  0.10173252983E+01 0.  0.
     999903    2    3    3    0    0 -0.79069381812E-01  0.38764808700E-01 -0.88068254662E-01  0.12624295661E+00  0.20654033055E-01 0.  0.
         14    1    1    2    0    0 -0.25303312117E-01 -0.63833758727E-02 -0.29801597756E-02  0.26265689481E-01  0.00000000000E+00 0. -1.
     999901    1    3    3    0    0  0.10437269393E+00 -0.32381432827E-01  0.91048414437E-01  0.89142135391E+00  0.88000000000E+00 0. -1.
        -11    1    4    4    0    0 -0.59002650704E-01  0.34666778510E-01 -0.76778774218E-01  0.10285105548E+00  0.51100000000E-03 0. -1.
         11    1    4    4    0    0 -0.20066731108E-01  0.40980301895E-02 -0.11289480443E-01  0.23391901130E-01  0.51100000000E-03 0.  1.
</event>
<event>
 8    1  0.1108957E+005  0.1043930E+01  0.7957747E-01            NaN
         13   -1    0    0    0    0  0.00000000000E+00  0.00000000000E+00  0.74505805969E-08  0.10566000000E+00  0.10566000000E+00 0. -1.
     999900   -1    0    0    0    0 -0.00000000000E+00 -0.00000000000E+00 -0.74505805969E-08  0.93827000000E+00  0.93827000000E+00 0. -1.
     999902    2    1    2    0    0 -0.25433123676E-02  0.10781640339E-01 -0.20777863564E-01  0.10203836240E+01  0.10201119097E+01 0.  0.
     999903    2    3    3    0    0  0.12178313986E+00 -0.36374567995E-01  0.16263617580E-01  0.12962392243E+00  0.19586057744E-01 0.  0.
         14    1    1    2    0    0  0.25433123676E-02 -0.10781640339E-01  0.20777863564E-01  0.23546375952E-01  0.00000000000E+00 0. -1.
     999901    1    3    3    0    0 -0.12432645222E+00  0.47156208334E-01 -0.37041481145E-01  0.89075970162E+00  0.88000000000E+00 0.  1.
        -11    1    4    4    0    0  0.71886189706E-01 -0.15331587225E-01  0.17078533771E-01  0.75462701211E-01  0.51100000000E-03 0. -1.
         11    1    4    4    0    0  0.49896950151E-01 -0.21042980770E-01 -0.81491619098E-03  0.54161221215E-01  0.51100000000E-03 0.  1.
</event>
<event>
 8    1  0.1108957E+005  0.1043930E+01  0.7957747E-01            NaN
         13   -1    0    0    0    0  0.00000000000E+00  0.00000000000E+00  0.74505805969E-08  0.10566000000E+00  0.10566000000E+00 0.  1.
     999900   -1    0    0    0    0 -0.00000000000E+00 -0.00000000000E+00 -0.74505805969E-08  0.93827000000E+00  0.93827000000E+00 0.  1.
     999902    2    1    2    0    0 -0.75045907041E-02  0.20413630166E-01 -0.99532105037E-02  0.10200113550E+01  0.10197308776E+01 0.  0.
     999903    2    3    3    0    0 -0.39598683759E-01 -0.71631131725E-01 -0.99469808376E-01  0.13011501820E+00  0.18346672575E-01 0.  0.
         14    1    1    2    0    0  0.75045907041E-02 -0.20413630166E-01  0.99532105037E-02  0.23918644977E-01  0.00000000000E+00 0. -1.
     999901    1    3    3    0    0  0.32094093055E-01  0.92044761891E-01  0.89516597873E-01  0.88989633683E+00  0.88000000000E+00 0. -1.
        -11    1    4    4    0    0 -0.29654772179E-01 -0.41746772846E-01 -0.71781816847E-01  0.88176464586E-01  0.51100000000E-03 0. -1.
         11    1    4    4    0    0 -0.99439115800E-02 -0.29884358879E-01 -0.27687991529E-01  0.41938553611E-01  0.51100000000E-03 0.  1.
</event>
<event>
 8    1  0.1108957E+005  0.1043930E+01  0.7957747E-01            NaN
         13   -1    0    0    0    0  0.00000000000E+00  0.00000000000E+00  0.74505805969E-08  0.10566000000E+00  0.10566000000E+00 0.  1.
     999900   -1    0    0    0    0 -0.00000000000E+00 -0.00000000000E+00 -0.74505805969E-08  0.93827000000E+00  0.93827000000E+00 0. -1.
     999902    2    1    2    0    0 -0.49076865137E-02  0.17697738103E-01  0.14960624551E-01  0.10202421211E+01  0.10199670926E+01 0.  0.
     999903    2    3    3    0    0 -0.16635050483E-01 -0.10712721594E+00  0.68474296260E-01  0.12974646512E+00  0.19810367585E-01 0.  0.
         14    1    1    2    0    0  0.49076865137E-02 -0.17697738103E-01 -0.14960624551E-01  0.23687878923E-01  0.00000000000E+00 0. -1.
     999901    1    3    3    0    0  0.11727363969E-01  0.12482495404E+00 -0.53513671709E-01  0.89049565596E+00  0.88000000000E+00 0. -1.
        -11    1    4    4    0    0 -0.12943398874E-01 -0.55821813833E-01  0.46546903285E-01  0.73827378393E-01  0.51100000000E-03 0.  1.
         11    1    4    4    0    0 -0.36916516087E-02 -0.51305402106E-01  0.21927392975E-01  0.55919086728E-01  0.51100000000E-03 0. -1.
</event>
<event>
 8    1  0.1108957E+005  0.1043930E+01  0.7957747E-01            NaN
         13   -1    0    0    0    0  0.00000000000E+00  0.00000000000E+00  0.74505805969E-08  0.10566000000E+00  0.10566000000E+00 0.  1.
     999900   -1    0    0    0    0 -0.00000000000E+00 -0.00000000000E+00 -0.74505805969E-08  0.93827000000E+00  0.93827000000E+00 0. -1.
     999902    2    1    2    0    0 -0.19270646753E-01 -0.11206098916E-01  0.96537364181E-02  0.10196374269E+01  0.10193480040E+01 0.  0.
     999903    2    3    3    0    0 -0.10566135702E+00  0.71583603791E-01 -0.22493107048E-01  0.13095812075E+00  0.18856161516E-01 0.  0.
         14    1    1    2    0    0  0.19270646753E-01  0.11206098916E-01 -0.96537364181E-02  0.24292573063E-01  0.00000000000E+00 0. -1.
     999901    1    3    3    0    0  0.86390710269E-01 -0.82789702707E-01  0.32146843466E-01  0.88867930618E+00  0.88000000000E+00 0.  1.
        -11    1    4    4    0    0 -0.80467125647E-01  0.45807668965E-01 -0.20622695947E-01  0.94862308400E-01  0.51100000000E-03 0. -1.
         11    1    4    4    0    0 -0.25194231375E-01  0.25775934826E-01 -0.18704111006E-02  0.36095812353E-01  0.51100000000E-03 0.  1.
</event>
<event>
 8    1  0.1108957E+005  0.1043930E+01  0.7957747E-01            NaN
         13   -1    0    0    0    0  0.00000000000E+00  0.00000000000E+00  0.74505805969E-08  0.10566000000E+00  0.10566000000E+00 0. -1.
     999900   -1    0    0    0    0 -0.00000000000E+00 -0.00000000000E+00 -0.74505805969E-08  0.93827000000E+00  0.93827000000E+00 0. -1.
     999902    2    1    2    0    0 -0.13237883499E-01 -0.16112029782E-01 -0.94751826693E-02  0.10210254557E+01  0.10207685159E+01 0.  0.
     999903    2    3    3    0    0  0.31458175946E-01 -0.18400509907E-01  0.12312484886E+00  0.12996667916E+00  0.20085160888E-01 0.  0.
         14    1    1    2    0    0  0.13237883499E-01  0.16112029782E-01  0.94751826693E-02  0.22904544306E-01  0.00000000000E+00 0. -1.
     999901    1    3    3    0    0 -0.44696059444E-01  0.22884801247E-02 -0.13260003153E+00  0.89105877653E+00  0.88000000000E+00 0. -1.
        -11    1    4    4    0    0  0.22164203547E-01 -0.17182425478E-02  0.58761088877E-01  0.62827788147E-01  0.51100000000E-03 0. -1.
         11    1    4    4    0    0  0.92939723984E-02 -0.16682267359E-01  0.64363759980E-01  0.67138891017E-01  0.51100000000E-03 0.  1.
</event>
<event>
 8    1  0.1108957E+005  0.1043930E+01  0.7957747E-01            NaN
         13   -1    0    0    0    0  0.00000000000E+00  0.00000000000E+00  0.74505805969E-08  0.10566000000E+00  0.10566000000E+00 0. -1.
     999900   -1    0    0    0    0 -0.00000000000E+00 -0.00000000000E+00 -0.74505805969E-08  0.93827000000E+00  0.93827000000E+00 0.  1.
     999902    2    1    2    0    0  0.17009469370E-01  0.38768234096E-02  0.16083356153E-01  0.10202018279E+01  0.10199258519E+01 0.  0.
     999903    2    3    3    0    0  0.95768643289E-01  0.67946838221E-01  0.59522464727E-01  0.13329995593E+00  0.20917661981E-01 0.  0.
         14    1    1    2    0    0 -0.17009469370E-01 -0.38768234096E-02 -0.16083356153E-01  0.23728172141E-01  0.00000000000E+00 0.  1.
     999901    1    3    3    0    0 -0.78759173919E-01 -0.64070014811E-01 -0.43439108574E-01  0.88690187193E+00  0.88000000000E+00 0. -1.
        -11    1    4    4    0    0  0.33061005807E-01  0.23467945928E-01  0.97162849594E-02  0.41694626818E-01  0.51100000000E-03 0. -1.
         11    1    4    4    0    0  0.62707637482E-01  0.44478892292E-01  0.49806179767E-01  0.91605329114E-01  0.51100000000E-03 0.  1.
</event>
<event>
 8    1  0.1108957E+005  0.1043930E+01  0.7957747E-01            NaN
         13   -1    0    0    0    0  0.00000000000E+00  0.00000000000E+00  0.74505805969E-08  0.10566000000E+00  0.10566000000E+00 0. -1.
     999900   -1    0    0    0    0 -0.00000000000E+00 -0.00000000000E+00 -0.74505805969E-08  0.93827000000E+00  0.93827000000E+00 0.  1.
     999902    2    1    2    0    0 -0.12024543369E-01  0.20396943876E-01  0.45743158710E-02  0.10198146661E+01  0.10195295012E+01 0.  0.
     999903    2    3    3    0    0 -0.28479921118E-01 -0.12273395149E+00 -0.27907559174E-02  0.12806835861E+00  0.22781295006E-01 0.  0.
         14    1    1    2    0    0  0.12024543369E-01 -0.20396943876E-01 -0.45743158710E-02  0.24115333885E-01  0.00000000000E+00 0.  1.
     999901    1    3    3    0    0  0.16455377748E-01  0.14313089537E+00  0.73650717884E-02  0.89174630750E+00  0.88000000000E+00 0. -1.
        -11    1    4    4    0    0 -0.58099611489E-02 -0.41837400621E-01  0.91156557629E-02  0.43214349935E-01  0.51100000000E-03 0. -1.
         11    1    4    4    0    0 -0.22669959969E-01 -0.80896550873E-01 -0.11906411680E-01  0.84854008675E-01  0.51100000000E-03 0.  1.
</event>
<event>
 8    1  0.1108957E+005  0.1043930E+01  0.7957747E-01            NaN
         13   -1    0    0    0    0  0.00000000000E+00  0.00000000000E+00  0.74505805969E-08  0.10566000000E+00  0.10566000000E+00 0. -1.
     999900   -1    0    0    0    0 -0.00000000000E+00 -0.00000000000E+00 -0.74505805969E-08  0.93827000000E+00  0.93827000000E+00 0.  1.
     999902    2    1    2    0    0 -0.11137147345E-01 -0.19090882396E-01 -0.93512331936E-02  0.10199311791E+01  0.10196487958E+01 0.  0.
     999903    2    3    3    0    0 -0.14597558410E-01 -0.12591629002E+00 -0.35553167335E-01  0.13307708541E+00  0.19428899876E-01 0.  0.
         14    1    1    2    0    0  0.11137147345E-01  0.19090882396E-01  0.93512331936E-02  0.23998820886E-01  0.00000000000E+00 0. -1.
     999901    1    3    3    0    0  0.34604110647E-02  0.10682540763E+00  0.26201934142E-01  0.88685409370E+00  0.88000000000E+00 0. -1.
        -11    1    4    4    0    0 -0.85437670105E-02 -0.11478387576E+00 -0.35294161480E-01  0.12039216356E+00  0.51100000000E-03 0.  1.
         11    1    4    4    0    0 -0.60537913995E-02 -0.11132414258E-01 -0.25900585551E-03  0.12684921858E-01  0.51100000000E-03 0. -1.
</event>
<event>
 8    1  0.1108957E+005  0.1043930E+01  0.7957747E-01            NaN
         13   -1    0    0    0    0  0.00000000000E+00  0.00000000000E+00  0.74505805969E-08  0.10566000000E+00  0.10566000000E+00 0. -1.
     999900   -1    0    0    0    0 -0.00000000000E+00 -0.00000000000E+00 -0.74505805969E-08  0.93827000000E+00  0.93827000000E+00 0.  1.
     999902    2    1    2    0    0  0.15372810560E-01 -0.51869636740E-02  0.17905991534E-01  0.10197669615E+01  0.10194806537E+01 0.  0.
     999903    2    3    3    0    0 -0.24751087716E-01  0.12026415027E+00 -0.32410089173E-01  0.12854329868E+00  0.19921936924E-01 0.  0.
         14    1    1    2    0    0 -0.15372810560E-01  0.51869636740E-02 -0.17905991534E-01  0.24163038499E-01  0.00000000000E+00 0. -1.
     999901    1    3    3    0    0  0.40123898277E-01 -0.12545111394E+00  0.50316080707E-01  0.89122366283E+00  0.88000000000E+00 0.  1.
        -11    1    4    4    0    0 -0.24001794603E-01  0.69727994488E-01 -0.16681322262E-01  0.75608246858E-01  0.51100000000E-03 0.  1.
         11    1    4    4    0    0 -0.74929311298E-03  0.50536155782E-01 -0.15728766910E-01  0.52935051818E-01  0.51100000000E-03 0. -1.
</event>
<event>
 8    1  0.1108957E+005  0.1043930E+01  0.7957747E-01            NaN
         13   -1    0    0    0    0  0.00000000000E+00  0.00000000000E+00  0.74505805969E-08  0.10566000000E+00  0.10566000000E+00 0. -1.
     999900   -1    0    0    0    0 -0.00000000000E+00 -0.00000000000E+00 -0.74505805969E-08  0.93827000000E+00  0.93827000000E+00 0.  1.
     999902    2    1    2    0    0 -0.16907751793E-01  0.15658352414E-01  0.84682673276E-03  0.10208697921E+01  0.10206093079E+01 0.  0.
     999903    2    3    3    0    0 -0.68664459812E-01  0.93648859394E-01 -0.62685208923E-01  0.13362822664E+00  0.21027378083E-01 0.  0.
         14    1    1    2    0    0  0.16907751793E-01 -0.15658352414E-01 -0.84682673276E-03  0.23060207860E-01  0.00000000000E+00 0.  1.
     999901    1    3    3    0    0  0.51756708019E-01 -0.77990506979E-01  0.63532035656E-01  0.88724156550E+00  0.88000000000E+00 0.  1.
        -11    1    4    4    0    0 -0.63296900982E-01  0.74588048355E-01 -0.56001759066E-01  0.11272237032E+00  0.51100000000E-03 0.  1.
         11    1    4    4    0    0 -0.53675588299E-02  0.19060811039E-01 -0.66834498569E-02  0.20905856314E-01  0.51100000000E-03 0. -1.
</event>
<event>
 8    1  0.1108957E+005  0.1043930E+01  0.7957747E-01            NaN
         13   -1    0    0    0    0  0.00000000000E+00  0.00000000000E+00  0.74505805969E-08  0.10566000000E+00  0.10566000000E+00 0. -1.
     999900   -1    0    0    0    0 -0.00000000000E+00 -0.00000000000E+00 -0.74505805969E-08  0.93827000000E+00  0.93827000000E+00 0. -1.
     999902    2    1    2    0    0  0.23587930247E-01 -0.49493528696E-02  0.35886204427E-02  0.10195627116E+01  0.10192714840E+01 0.  0.
     999903    2    3    3    0    0 -0.78769761541E-01 -0.43359297202E-01 -0.88514432975E-01  0.12802729821E+00  0.21713596056E-01 0.  0.
         14    1    1    2    0    0 -0.23587930247E-01  0.49493528696E-02 -0.35886204427E-02  0.24367288398E-01  0.00000000000E+00 0. -1.
     999901    1    3    3    0    0  0.10235769179E+00  0.38409944332E-01  0.92103053418E-01  0.89153541340E+00  0.88000000000E+00 0.  1.
        -11    1    4    4    0    0 -0.48161772521E-01 -0.32734411599E-01 -0.44101625667E-01  0.73050068737E-01  0.51100000000E-03 0. -1.
         11    1    4    4    0    0 -0.30607989020E-01 -0.10624885603E-01 -0.44412807308E-01  0.54977229468E-01  0.51100000000E-03 0.  1.
</event>
<event>
 8    1  0.1108957E+005  0.1043930E+01  0.7957747E-01            NaN
         13   -1    0    0    0    0  0.00000000000E+00  0.00000000000E+00  0.74505805969E-08  0.10566000000E+00  0.10566000000E+00 0.  1.
     999900   -1    0    0    0    0 -0.00000000000E+00 -0.00000000000E+00 -0.74505805969E-08  0.93827000000E+00  0.93827000000E+00 0.  1.
     999902    2    1    2    0    0  0.18774904766E-01  0.12793032042E-01 -0.11292078615E-01  0.10185593524E+01  0.10182433328E+01 0.  0.
     999903    2    3    3    0    0 -0.88234128467E-01 -0.16134376111E-01  0.86548320924E-01  0.12622506984E+00  0.19914238180E-01 0.  0.
         14    1    1    2    0    0 -0.18774904766E-01 -0.12793032042E-01  0.11292078615E-01  0.25370647553E-01  0.00000000000E+00 0.  1.
     999901    1    3    3    0    0  0.10700903323E+00  0.28927408154E-01 -0.97840399539E-01  0.89233428261E+00  0.88000000000E+00 0.  1.
        -11    1    4    4    0    0 -0.53542073985E-01 -0.18575734928E-01  0.47653066881E-01  0.74046522666E-01  0.51100000000E-03 0. -1.
         11    1    4    4    0    0 -0.34692054482E-01  0.24413588163E-02  0.38895254043E-01  0.52178547173E-01  0.51100000000E-03 0.  1.
</event>
<event>
 8    1  0.1108957E+005  0.1043930E+01  0.7957747E-01            NaN
         13   -1    0    0    0    0  0.00000000000E+00  0.00000000000E+00  0.74505805969E-08  0.10566000000E+00  0.10566000000E+00 0. -1.
     999900   -1    0    0    0    0 -0.00000000000E+00 -0.00000000000E+00 -0.74505805969E-08  0.93827000000E+00  0.93827000000E+00 0.  1.
     999902    2    1    2    0    0 -0.17711531108E-01  0.62084359923E-02 -0.13860415763E-01  0.10205986019E+01  0.10203318833E+01 0.  0.
     999903    2    3    3    0    0 -0.12104806673E+00  0.10647214187E-01  0.48502779939E-01  0.13234902520E+00  0.19943600009E-01 0.  0.
         14    1    1    2    0    0  0.17711531108E-01 -0.62084359923E-02  0.13860415763E-01  0.23331398089E-01  0.00000000000E+00 0. -1.
     999901    1    3    3    0    0  0.10333653562E+00 -0.44387781949E-02 -0.62363195702E-01  0.88824957671E+00  0.88000000000E+00 0. -1.
        -11    1    4    4    0    0 -0.63426711787E-01  0.12160516157E-01  0.17574472016E-01  0.66932421957E-01  0.51100000000E-03 0.  1.
         11    1    4    4    0    0 -0.57621354942E-01 -0.15133019697E-02  0.30928307923E-01  0.65416603245E-01  0.51100000000E-03 0. -1.
</event>
<event>
 8    1  0.1108957E+005  0.1043930E+01  0.7957747E-01            NaN
         13   -1    0    0    0    0  0.00000000000E+00  0.00000000000E+00  0.74505805969E-08  0.10566000000E+00  0.10566000000E+00 0.  1.
     999900   -1    0    0    0    0 -0.00000000000E+00 -0.00000000000E+00 -0.74505805969E-08  0.93827000000E+00  0.93827000000E+00 0.  1.
     999902    2    1    2    0    0  0.65406270218E-02  0.17813893382E-01 -0.16452262152E-01  0.10188144365E+01  0.10185048181E+01 0.  0.
     999903    2    3    3    0    0  0.85521163456E-01 -0.56560872347E-01 -0.77459090125E-01  0.13005610942E+00  0.20041937931E-01 0.  0.
         14    1    1    2    0    0 -0.65406270218E-02 -0.17813893382E-01  0.16452262152E-01  0.25115563485E-01  0.00000000000E+00 0.  1.
     999901    1    3    3    0    0 -0.78980536435E-01  0.74374765729E-01  0.61006827973E-01  0.88875832709E+00  0.88000000000E+00 0. -1.
        -11    1    4    4    0    0  0.59416961334E-01 -0.48231904973E-01 -0.51035275595E-01  0.91986697014E-01  0.51100000000E-03 0. -1.
         11    1    4    4    0    0  0.26104202122E-01 -0.83289673742E-02 -0.26423814530E-01  0.38069412410E-01  0.51100000000E-03 0.  1.
</event>
<event>
 8    1  0.1108957E+005  0.1043930E+01  0.7957747E-01            NaN
         13   -1    0    0    0    0  0.00000000000E+00  0.00000000000E+00  0.74505805969E-08  0.10566000000E+00  0.10566000000E+00 0.  1.
     999900   -1    0    0    0    0 -0.00000000000E+00 -0.00000000000E+00 -0.74505805969E-08  0.93827000000E+00  0.93827000000E+00 0.  1.
     999902    2    1    2    0    0  0.17029884099E-01 -0.13782674076E-01  0.81716383043E-02  0.10205472130E+01  0.10202793045E+01 0.  0.
     999903    2    3    3    0    0  0.67883450826E-01  0.91497955971E-01 -0.57054887978E-01  0.13042104435E+00  0.27827140078E-01 0.  0.
         14    1    1    2    0    0 -0.17029884099E-01  0.13782674076E-01 -0.81716383043E-02  0.23382787038E-01  0.00000000000E+00 0. -1.
     999901    1    3    3    0    0 -0.50853566727E-01 -0.10528063005E+00  0.65226526283E-01  0.89012616861E+00  0.88000000000E+00 0. -1.
        -11    1    4    4    0    0  0.57225344572E-01  0.55467659648E-01 -0.38228507876E-01  0.88391635711E-01  0.51100000000E-03 0. -1.
         11    1    4    4    0    0  0.10658106254E-01  0.36030296323E-01 -0.18826380103E-01  0.42029408642E-01  0.51100000000E-03 0.  1.
</event>
<event>
 8    1  0.1108957E+005  0.1043930E+01  0.7957747E-01            NaN
         13   -1    0    0    0    0  0.00000000000E+00  0.00000000000E+00  0.74505805969E-08  0.10566000000E+00  0.10566000000E+00 0.  1.
     999900   -1    0    0    0    0 -0.00000000000E+00 -0.00000000000E+00 -0.74505805969E-08  0.93827000000E+00  0.93827000000E+00 0. -1.
     999902    2    1    2    0    0 -0.19808174861E-01  0.13984411949E-01  0.31275104575E-03  0.10196807653E+01  0.10193923866E+01 0.  0.
     999903    2    3    3    0    0  0.10580893603E+00  0.70654708632E-01 -0.37181368405E-02  0.12894655742E+00  0.20634227258E-01 0.  0.
         14    1    1    2    0    0  0.19808174861E-01 -0.13984411949E-01 -0.31275104575E-03  0.24249234670E-01  0.00000000000E+00 0. -1.
     999901    1    3    3    0    0 -0.12561711089E+00 -0.56670296684E-01  0.40308878863E-02  0.89073420790E+00  0.88000000000E+00 0. -1.
        -11    1    4    4    0    0  0.80027353609E-01  0.55227013578E-01  0.58492751885E-02  0.97410859229E-01  0.51100000000E-03 0.  1.
         11    1    4    4    0    0  0.25781582420E-01  0.15427695054E-01 -0.95674120290E-02  0.31535698196E-01  0.51100000000E-03 0. -1.
</event>
<event>
 8    1  0.1108957E+005  0.1043930E+01  0.7957747E-01            NaN
         13   -1    0    0    0    0  0.00000000000E+00  0.00000000000E+00  0.74505805969E-08  0.10566000000E+00  0.10566000000E+00 0. -1.
     999900   -1    0    0    0    0 -0.00000000000E+00 -0.00000000000E+00 -0.74505805969E-08  0.93827000000E+00  0.93827000000E+00 0.  1.
     999902    2    1    2    0    0  0.10190505064E-01 -0.18090713344E-01 -0.50788907391E-02  0.10225544197E+01  0.10223309766E+01 0.  0.
     999903    2    3    3    0    0  0.30047091284E-01  0.44406991134E-01  0.11839850386E+00  0.13151743164E+00  0.20095286804E-01 0.  0.
         14    1    1    2    0    0 -0.10190505064E-01  0.18090713344E-01  0.50788907391E-02  0.21375580317E-01  0.00000000000E+00 0.  1.
     999901    1    3    3    0    0 -0.19856586221E-01 -0.62497704478E-01 -0.12347739460E+00  0.89103698804E+00  0.88000000000E+00 0.  1.
        -11    1    4    4    0    0  0.16553061891E-01  0.29431529941E-01  0.93895469223E-01  0.99783962009E-01  0.51100000000E-03 0. -1.
         11    1    4    4    0    0  0.13494029393E-01  0.14975461193E-01  0.24503034642E-01  0.31733469632E-01  0.51100000000E-03 0.  1.
</event>
<event>
 8    1  0.1108957E+005  0.1043930E+01  0.7957747E-01            NaN
         13   -1    0    0    0    0  0.00000000000E+00  0.00000000000E+00  0.74505805969E-08  0.10566000000E+00  0.10566000000E+00 0. -1.
     999900   -1    0    0    0    0 -0.00000000000E+00 -0.00000000000E+00 -0.74505805969E-08  0.93827000000E+00  0.93827000000E+00 0.  1.
     999902    2    1    2    0    0 -0.11187211845E-01 -0.47735006122E-02 -0.20311715496E-01  0.10202549962E+01  0.10199802702E+01 0.  0.
     999903    2    3    3    0    0  0.19839167541E-01 -0.96605550885E-01 -0.86172239397E-01  0.13248623677E+00  0.20018068332E-01 0.  0.
         14    1    1    2    0    0  0.11187211845E-01  0.47735006122E-02  0.20311715496E-01  0.23675003766E-01  0.00000000000E+00 0. -1.
     999901    1    3    3    0    0 -0.31026379386E-01  0.91832050273E-01  0.65860523901E-01  0.88776875947E+00  0.88000000000E+00 0. -1.
        -11    1    4    4    0    0  0.72857490580E-02 -0.73089808593E-01 -0.57078252605E-01  0.93023600774E-01  0.51100000000E-03 0. -1.
         11    1    4    4    0    0  0.12553418483E-01 -0.23515742292E-01 -0.29093986792E-01  0.39462635993E-01  0.51100000000E-03 0.  1.
</event>
<event>
 8    1  0.1108957E+005  0.1043930E+01  0.7957747E-01            NaN
         13   -1    0    0    0    0  0.00000000000E+00  0.00000000000E+00  0.74505805969E-08  0.10566000000E+00  0.10566000000E+00 0. -1.
     999900   -1    0    0    0    0 -0.00000000000E+00 -0.00000000000E+00 -0.74505805969E-08  0.93827000000E+00  0.93827000000E+00 0.  1.
     999902    2    1    2    0    0 -0.22636848485E-02 -0.23326295447E-01 -0.10319737059E-02  0.10204714131E+01  0.10202017446E+01 0.  0.
     999903    2    3    3    0    0  0.42076949565E-01  0.10850927312E+00  0.49792323119E-01  0.12809827472E+00  0.19625506529E-01 0.  0.
         14    1    1    2    0    0  0.22636848485E-02  0.23326295447E-01  0.10319737059E-02  0.23458586873E-01  0.00000000000E+00 0.  1.
     999901    1    3    3    0    0 -0.44340634413E-01 -0.13183556857E+00 -0.50824296825E-01  0.89237313841E+00  0.88000000000E+00 0.  1.
        -11    1    4    4    0    0  0.37874953714E-01  0.86748588877E-01  0.47217061366E-01  0.10578063053E+00  0.51100000000E-03 0.  1.
         11    1    4    4    0    0  0.42019958506E-02  0.21760684246E-01  0.25752617533E-02  0.22317644187E-01  0.51100000000E-03 0. -1.
</event>
<event>
 8    1  0.1108957E+005  0.1043930E+01  0.7957747E-01            NaN
         13   -1    0    0    0    0  0.00000000000E+00  0.00000000000E+00  0.74505805969E-08  0.10566000000E+00  0.10566000000E+00 0. -1.
     999900   -1    0    0    0    0 -0.00000000000E+00 -0.00000000000E+00 -0.74505805969E-08  0.93827000000E+00  0.93827000000E+00 0.  1.
     999902    2    1    2    0    0 -0.17407761576E-01  0.14568816721E-01 -0.70008982667E-02  0.10201751445E+01  0.10198985402E+01 0.  0.
     999903    2    3    3    0    0 -0.10089913848E+00 -0.29387425412E-01 -0.77843240987E-01  0.13230037924E+00  0.19989078580E-01 0.  0.
         14    1    1    2    0    0  0.17407761576E-01 -0.14568816721E-01  0.70008982667E-02  0.23754855510E-01  0.00000000000E+00 0. -1.
     999901    1    3    3    0    0  0.83491376903E-01  0.43956242133E-01  0.70842342720E-01  0.88787476525E+00  0.88000000000E+00 0. -1.
        -11    1    4    4    0    0 -0.58930644102E-01 -0.25617772397E-01 -0.53628796638E-01  0.83698267764E-01  0.51100000000E-03 0. -1.
         11    1    4    4    0    0 -0.41968494377E-01 -0.37696530150E-02 -0.24214444348E-01  0.48602111479E-01  0.51100000000E-03 0.  1.
</event>
<event>
 8    1  0.1108957E+005  0.1043930E+01  0.7957747E-01            NaN
         13   -1    0    0    0    0  0.00000000000E+00  0.00000000000E+00  0.74505805969E-08  0.10566000000E+00  0.10566000000E+00 0.  1.
     999900   -1    0    0    0    0 -0.00000000000E+00 -0.00000000000E+00 -0.74505805969E-08  0.93827000000E+00  0.93827000000E+00 0.  1.
     999902    2    1    2    0    0  0.11492646348E-01  0.11393370320E-01  0.16603170523E-01  0.10207447659E+01  0.10204814168E+01 0.  0.
     999903    2    3    3    0    0 -0.84957504211E-01  0.67054117687E-01 -0.67395446456E-01  0.12975850454E+00  0.24105830754E-01 0.  0.
         14    1    1    2    0    0 -0.11492646348E-01 -0.11393370320E-01 -0.16603170523E-01  0.23185234067E-01  0.00000000000E+00 0. -1.
     999901    1    3    3    0    0  0.96450150560E-01 -0.55660747367E-01  0.83998616979E-01  0.89098626140E+00  0.88000000000E+00 0. -1.
        -11    1    4    4    0    0 -0.72242204838E-01  0.47603983011E-01 -0.60293599902E-01  0.10545451469E+00  0.51100000000E-03 0. -1.
         11    1    4    4    0    0 -0.12715299374E-01  0.19450134675E-01 -0.71018465541E-02  0.24303989848E-01  0.51100000000E-03 0.  1.
</event>
<event>
 8    1  0.1108957E+005  0.1043930E+01  0.7957747E-01            NaN
         13   -1    0    0    0    0  0.00000000000E+00  0.00000000000E+00  0.74505805969E-08  0.10566000000E+00  0.10566000000E+00 0. -1.
     999900   -1    0    0    0    0 -0.00000000000E+00 -0.00000000000E+00 -0.74505805969E-08  0.93827000000E+00  0.93827000000E+00 0. -1.
     999902    2    1    2    0    0 -0.23282914742E-01  0.60602204443E-02  0.28834436233E-02  0.10196991387E+01  0.10194112021E+01 0.  0.
     999903    2    3    3    0    0  0.28033933354E-01  0.11965196410E+00  0.38405931394E-01  0.13020582776E+00  0.19391959266E-01 0.  0.
         14    1    1    2    0    0  0.23282914742E-01 -0.60602204443E-02 -0.28834436233E-02  0.24230861269E-01  0.00000000000E+00 0. -1.
     999901    1    3    3    0    0 -0.51316848096E-01 -0.11359174366E+00 -0.35522487771E-01  0.88949331097E+00  0.88000000000E+00 0. -1.
        -11    1    4    4    0    0  0.12681956600E-01  0.22348032923E-01  0.10999229439E-01  0.27955514089E-01  0.51100000000E-03 0. -1.
         11    1    4    4    0    0  0.15351976754E-01  0.97303931176E-01  0.27406701955E-01  0.10225031367E+00  0.51100000000E-03 0.  1.
</event>
<event>
 8    1  0.1108957E+005  0.1043930E+01  0.7957747E-01            NaN
         13   -1    0    0    0    0  0.00000000000E+00  0.00000000000E+00  0.74505805969E-08  0.10566000000E+00  0.10566000000E+00 0.  1.
     999900   -1    0    0    0    0 -0.00000000000E+00 -0.00000000000E+00 -0.74505805969E-08  0.93827000000E+00  0.93827000000E+00 0.  1.
     999902    2    1    2    0    0 -0.95553501020E-02 -0.18258039672E-02 -0.21326579882E-01  0.10204894095E+01  0.10202201593E+01 0.  0.
     999903    2    3    3    0    0  0.62198833348E-01  0.92589937303E-01  0.61047932079E-01  0.12872231247E+00  0.20024793551E-01 0.  0.
         14    1    1    2    0    0  0.95553501020E-02  0.18258039672E-02  0.21326579882E-01  0.23440590546E-01  0.00000000000E+00 0.  1.
     999901    1    3    3    0    0 -0.71754183450E-01 -0.94415741271E-01 -0.82374511961E-01  0.89176709698E+00  0.88000000000E+00 0.  1.
        -11    1    4    4    0    0  0.35310794358E-01  0.34779012964E-01  0.26800629365E-01  0.56346843712E-01  0.51100000000E-03 0. -1.
         11    1    4    4    0    0  0.26888038989E-01  0.57810924340E-01  0.34247302715E-01  0.72375468758E-01  0.51100000000E-03 0.  1.
</event>
<event>
 8    1  0.1108957E+005  0.1043930E+01  0.7957747E-01            NaN
         13   -1    0    0    0    0  0.00000000000E+00  0.00000000000E+00  0.74505805969E-08  0.10566000000E+00  0.10566000000E+00 0.  1.
     999900   -1    0    0    0    0 -0.00000000000E+00 -0.00000000000E+00 -0.74505805969E-08  0.93827000000E+00  0.93827000000E+00 0.  1.
     999902    2    1    2    0    0  0.98522208271E-02 -0.16626611544E-01 -0.12554530496E-01  0.10208838137E+01  0.10206236497E+01 0.  0.
     999903    2    3    3    0    0  0.56285214981E-01 -0.32433805370E-02 -0.11904980040E+00  0.13314715437E+00  0.19410430133E-01 0.  0.
         14    1    1    2    0    0 -0.98522208271E-02  0.16626611544E-01  0.12554530496E-01  0.23046186293E-01  0.00000000000E+00 0.  1.
     999901    1    3    3    0    0 -0.46432994154E-01 -0.13383231007E-01  0.10649526991E+00  0.88773665934E+00  0.88000000000E+00 0. -1.
        -11    1    4    4    0    0  0.11981589283E-01 -0.86655429872E-02 -0.25189595148E-01  0.29213471922E-01  0.51100000000E-03 0. -1.
         11    1    4    4    0    0  0.44303625697E-01  0.54221624502E-02 -0.93860205255E-01  0.10393368245E+00  0.51100000000E-03 0.  1.
</event>
<event>
 8    1  0.1108957E+005  0.1043930E+01  0.7957747E-01            NaN
         13   -1    0    0    0    0  0.00000000000E+00  0.00000000000E+00  0.74505805969E-08  0.10566000000E+00  0.10566000000E+00 0. -1.
     999900   -1    0    0    0    0 -0.00000000000E+00 -0.00000000000E+00 -0.74505805969E-08  0.93827000000E+00  0.93827000000E+00 0. -1.
     999902    2    1    2    0    0  0.99296000957E-02 -0.21599962953E-01 -0.89823323663E-02  0.10185166639E+01  0.10181995664E+01 0.  0.
     999903    2    3    3    0    0 -0.45973742576E-01 -0.11467359107E+00  0.37775218278E-01  0.13061230388E+00  0.19209094597E-01 0.  0.
         14    1    1    2    0    0 -0.99296000957E-02  0.21599962953E-01  0.89823323663E-02  0.25413336113E-01  0.00000000000E+00 0. -1.
     999901    1    3    3    0    0  0.55903342671E-01  0.93073628113E-01 -0.46757550645E-01  0.88790436000E+00  0.88000000000E+00 0. -1.
        -11    1    4    4    0    0 -0.14997593810E-01 -0.54189385987E-01  0.24673578781E-01  0.61404103972E-01  0.51100000000E-03 0.  1.
         11    1    4    4    0    0 -0.30976148766E-01 -0.60484205080E-01  0.13101639497E-01  0.69208199912E-01  0.51100000000E-03 0. -1.
</event>
<event>
 8    1  0.1108957E+005  0.1043930E+01  0.7957747E-01            NaN
         13   -1    0    0    0    0  0.00000000000E+00  0.00000000000E+00  0.74505805969E-08  0.10566000000E+00  0.10566000000E+00 0. -1.
     999900   -1    0    0    0    0 -0.00000000000E+00 -0.00000000000E+00 -0.74505805969E-08  0.93827000000E+00  0.93827000000E+00 0. -1.
     999902    2    1    2    0    0 -0.38015620827E-02 -0.15239247967E-01  0.17799586848E-01  0.10201915956E+01  0.10199153788E+01 0.  0.
     999903    2    3    3    0    0 -0.48340748122E-01 -0.71759526818E-01  0.99441911688E-01  0.13348772718E+00  0.21071826908E-01 0.  0.
         14    1    1    2    0    0  0.38015620827E-02  0.15239247967E-01 -0.17799586848E-01  0.23738404429E-01  0.00000000000E+00 0. -1.
     999901    1    3    3    0    0  0.44539186039E-01  0.56520278851E-01 -0.81642324840E-01  0.88670386839E+00  0.88000000000E+00 0. -1.
        -11    1    4    4    0    0 -0.14652612043E-01 -0.21033694829E-01  0.16122975649E-01  0.30287403695E-01  0.51100000000E-03 0. -1.
         11    1    4    4    0    0 -0.33688136079E-01 -0.50725831989E-01  0.83318936040E-01  0.10320032348E+00  0.51100000000E-03 0.  1.
</event>
<event>
 8    1  0.1108957E+005  0.1043930E+01  0.7957747E-01            NaN
         13   -1    0    0    0    0  0.00000000000E+00  0.00000000000E+00  0.74505805969E-08  0.10566000000E+00  0.10566000000E+00 0.  1.
     999900   -1    0    0    0    0 -0.00000000000E+00 -0.00000000000E+00 -0.74505805969E-08  0.93827000000E+00  0.93827000000E+00 0. -1.
     999902    2    1    2    0    0 -0.70313368753E-02 -0.19219027794E-01  0.11625143165E-01  0.10203937581E+01  0.10201222804E+01 0.  0.
     999903    2    3    3    0    0  0.19700294376E-01 -0.44555483845E-01  0.12200125425E+00  0.13273425021E+00  0.18994272809E-01 0.  0.
         14    1    1    2    0    0  0.70313368753E-02  0.19219027794E-01 -0.11625143165E-01  0.23536241867E-01  0.00000000000E+00 0. -1.
     999901    1    3    3    0    0 -0.26731631251E-01  0.25336456051E-01 -0.11037611109E+00  0.88765950793E+00  0.88000000000E+00 0. -1.
        -11    1    4    4    0    0 -0.71146270160E-03 -0.11827726591E-01  0.45995384439E-01  0.47499871644E-01  0.51100000000E-03 0.  1.
         11    1    4    4    0    0  0.20411757077E-01 -0.32727757254E-01  0.76005869814E-01  0.85234378563E-01  0.51100000000E-03 0. -1.
</event>
<event>
 8    1  0.1108957E+005  0.1043930E+01  0.7957747E-01            NaN
         13   -1    0    0    0    0  0.00000000000E+00  0.00000000000E+00  0.74505805969E-08  0.10566000000E+00  0.10566000000E+00 0. -1.
     999900   -1    0    0    0    0 -0.00000000000E+00 -0.00000000000E+00 -0.74505805969E-08  0.93827000000E+00  0.93827000000E+00 0.  1.
     999902    2    1    2    0    0  0.14278503338E-01  0.15473381320E-01  0.11009207915E-01  0.10201707103E+01  0.10198940015E+01 0.  0.
     999903    2    3    3    0    0  0.47073062417E-01 -0.10358773437E+00  0.59964763860E-01  0.13020010472E+00  0.20248517183E-01 0.  0.
         14    1    1    2    0    0 -0.14278503338E-01 -0.15473381320E-01 -0.11009207915E-01  0.23759289677E-01  0.00000000000E+00 0.  1.
     999901    1    3    3    0    0 -0.32794559080E-01  0.11906111569E+00 -0.48955555945E-01  0.88997060560E+00  0.88000000000E+00 0.  1.
        -11    1    4    4    0    0  0.22754991075E-01 -0.31069828871E-01  0.26258374672E-01  0.46614238665E-01  0.51100000000E-03 0.  1.
         11    1    4    4    0    0  0.24318071343E-01 -0.72517905498E-01  0.33706389187E-01  0.83585866058E-01  0.51100000000E-03 0. -1.
</event>
<event>
 8    1  0.1108957E+005  0.1043930E+01  0.7957747E-01            NaN
         13   -1    0    0    0    0  0.00000000000E+00  0.00000000000E+00  0.74505805969E-08  0.10566000000E+00  0.10566000000E+00 0.  1.
     999900   -1    0    0    0    0 -0.00000000000E+00 -0.00000000000E+00 -0.74505805969E-08  0.93827000000E+00  0.93827000000E+00 0. -1.
     999902    2    1    2    0    0  0.59500745329E-02  0.61594817754E-02  0.22905594464E-01  0.10194757803E+01  0.10191824458E+01 0.  0.
     999903    2    3    3    0    0 -0.14780211191E-01  0.10482157956E+00 -0.71078517374E-01  0.12874744487E+00  0.17825003361E-01 0.  0.
         14    1    1    2    0    0 -0.59500745329E-02 -0.61594817754E-02 -0.22905594464E-01  0.24454219686E-01  0.00000000000E+00 0. -1.
     999901    1    3    3    0    0  0.20730285724E-01 -0.98662097782E-01  0.93984111838E-01  0.89072833544E+00  0.88000000000E+00 0.  1.
        -11    1    4    4    0    0 -0.53534789825E-02  0.13781338725E-01 -0.16589807695E-01  0.22227637630E-01  0.51100000000E-03 0.  1.
         11    1    4    4    0    0 -0.94267322088E-02  0.91040240833E-01 -0.54488709679E-01  0.10651980724E+00  0.51100000000E-03 0. -1.
</event>
<event>
 8    1  0.1108957E+005  0.1043930E+01  0.7957747E-01            NaN
         13   -1    0    0    0    0  0.00000000000E+00  0.00000000000E+00  0.74505805969E-08  0.10566000000E+00  0.10566000000E+00 0. -1.
     999900   -1    0    0    0    0 -0.00000000000E+00 -0.00000000000E+00 -0.74505805969E-08  0.93827000000E+00  0.93827000000E+00 0. -1.
     999902    2    1    2    0    0 -0.21209710884E-01 -0.77762480472E-02  0.33650023352E-02  0.10210904486E+01  0.10208349813E+01 0.  0.
     999903    2    3    3    0    0  0.32139935190E-01 -0.11680839199E+00 -0.48728126639E-01  0.13123209621E+00  0.13048251930E-01 0.  0.
         14    1    1    2    0    0  0.21209710884E-01  0.77762480472E-02 -0.33650023352E-02  0.22839551445E-01  0.00000000000E+00 0.  1.
     999901    1    3    3    0    0 -0.53349646074E-01  0.10903214394E+00  0.52093128974E-01  0.88985835234E+00  0.88000000000E+00 0. -1.
        -11    1    4    4    0    0  0.10450552076E-02 -0.20364569628E-01 -0.10357847484E-01  0.22876930782E-01  0.51100000000E-03 0. -1.
         11    1    4    4    0    0  0.31094879982E-01 -0.96443822358E-01 -0.38370279156E-01  0.10835516543E+00  0.51100000000E-03 0.  1.
</event>
<event>
 8    1  0.1108957E+005  0.1043930E+01  0.7957747E-01            NaN
         13   -1    0    0    0    0  0.00000000000E+00  0.00000000000E+00  0.74505805969E-08  0.10566000000E+00  0.10566000000E+00 0.  1.
     999900   -1    0    0    0    0 -0.00000000000E+00 -0.00000000000E+00 -0.74505805969E-08  0.93827000000E+00  0.93827000000E+00 0. -1.
     999902    2    1    2    0    0 -0.14276657029E-01 -0.16452138782E-01 -0.12625912683E-01  0.10187524410E+01  0.10184412730E+01 0.  0.
     999903    2    3    3    0    0  0.91528323745E-01  0.83539055351E-02 -0.87976874684E-01  0.12887166175E+00  0.20512263115E-01 0.  0.
         14    1    1    2    0    0  0.14276657029E-01  0.16452138782E-01  0.12625912683E-01  0.25177559006E-01  0.00000000000E+00 0. -1.
     999901    1    3    3    0    0 -0.10580498077E+00 -0.24806044317E-01  0.75350962001E-01  0.88988077924E+00  0.88000000000E+00 0.  1.
        -11    1    4    4    0    0  0.49350708418E-01 -0.22750169521E-03 -0.59290897375E-01  0.77144123632E-01  0.51100000000E-03 0.  1.
         11    1    4    4    0    0  0.42177615327E-01  0.85814072303E-02 -0.28685977309E-01  0.51727538119E-01  0.51100000000E-03 0. -1.
</event>
<event>
 8    1  0.1108957E+005  0.1043930E+01  0.7957747E-01            NaN
         13   -1    0    0    0    0  0.00000000000E+00  0.00000000000E+00  0.74505805969E-08  0.10566000000E+00  0.10566000000E+00 0.  1.
     999900   -1    0    0    0    0 -0.00000000000E+00 -0.00000000000E+00 -0.74505805969E-08  0.93827000000E+00  0.93827000000E+00 0.  1.
     999902    2    1    2    0    0 -0.10933402133E-01 -0.96698123607E-02  0.18956158163E-01  0.10200055254E+01  0.10197249096E+01 0.  0.
     999903    2    3    3    0    0 -0.20471053315E-01  0.66634595750E-01  0.10984159491E+00  0.13198891963E+00  0.22285994649E-01 0.  0.
         14    1    1    2    0    0  0.10933402133E-01  0.96698123607E-02 -0.18956158163E-01  0.23924474615E-01  0.00000000000E+00 0. -1.
     999901    1    3    3    0    0  0.95376511818E-02 -0.76304408111E-01 -0.90885436748E-01  0.88801660576E+00  0.88000000000E+00 0.  1.
        -11    1    4    4    0    0 -0.59901885729E-02  0.26720968595E-01  0.24857820309E-01  0.36987360994E-01  0.51100000000E-03 0. -1.
         11    1    4    4    0    0 -0.14480864742E-01  0.39913627155E-01  0.84983774602E-01  0.95001558634E-01  0.51100000000E-03 0.  1.
</event>
<event>
 8    1  0.1108957E+005  0.1043930E+01  0.7957747E-01            NaN
         13   -1    0    0    0    0  0.00000000000E+00  0.00000000000E+00  0.74505805969E-08  0.10566000000E+00  0.10566000000E+00 0.  1.
     999900   -1    0    0    0    0 -0.00000000000E+00 -0.00000000000E+00 -0.74505805969E-08  0.93827000000E+00  0.93827000000E+00 0. -1.
     999902    2    1    2    0    0  0.20173354038E-01  0.30370674924E-02  0.95143057824E-02  0.10214197800E+01  0.10211717078E+01 0.  0.
     999903    2    3    3    0    0 -0.88991559226E-02  0.79273642712E-02  0.13057550872E+00  0.13264256338E+00  0.20051136159E-01 0.  0.
         14    1    1    2    0    0 -0.20173354038E-01 -0.30370674924E-02 -0.95143057824E-02  0.22510220048E-01  0.00000000000E+00 0. -1.
     999901    1    3    3    0    0  0.29072509960E-01 -0.48902967788E-02 -0.12106120294E+00  0.88877721657E+00  0.88000000000E+00 0. -1.
        -11    1    4    4    0    0  0.60911234106E-02  0.52642969090E-02  0.48179445461E-01  0.48850124793E-01  0.51100000000E-03 0.  1.
         11    1    4    4    0    0 -0.14990279333E-01  0.26630673621E-02  0.82396063263E-01  0.83792438588E-01  0.51100000000E-03 0. -1.
</event>
<event>
 8    1  0.1108957E+005  0.1043930E+01  0.7957747E-01            NaN
         13   -1    0    0    0    0  0.00000000000E+00  0.00000000000E+00  0.74505805969E-08  0.10566000000E+00  0.10566000000E+00 0. -1.
     999900   -1    0    0    0    0 -0.00000000000E+00 -0.00000000000E+00 -0.74505805969E-08  0.93827000000E+00  0.93827000000E+00 0.  1.
     999902    2    1    2    0    0  0.82793743863E-02  0.15959989428E-01 -0.12158862861E-01  0.10222249948E+01  0.10219945366E+01 0.  0.
     999903    2    3    3    0    0  0.73124996534E-01  0.69780570968E-02  0.10753316858E+00  0.13171288813E+00  0.19721667133E-01 0.  0.
         14    1    1    2    0    0 -0.82793743863E-02 -0.15959989428E-01  0.12158862861E-01  0.21705005156E-01  0.00000000000E+00 0. -1.
     999901    1    3    3    0    0 -0.64845622148E-01  0.89819323314E-02 -0.11969203144E+00  0.89051210672E+00  0.88000000000E+00 0.  1.
        -11    1    4    4    0    0  0.45952404194E-01 -0.17506869864E-02  0.78623324529E-01  0.91085545710E-01  0.51100000000E-03 0. -1.
         11    1    4    4    0    0  0.27172592340E-01  0.87287440832E-02  0.28909844051E-01  0.40627342416E-01  0.51100000000E-03 0.  1.
</event>
<event>
 8    1  0.1108957E+005  0.1043930E+01  0.7957747E-01            NaN
         13   -1    0    0    0    0  0.00000000000E+00  0.00000000000E+00  0.74505805969E-08  0.10566000000E+00  0.10566000000E+00 0. -1.
     999900   -1    0    0    0    0 -0.00000000000E+00 -0.00000000000E+00 -0.74505805969E-08  0.93827000000E+00  0.93827000000E+00 0.  1.
     999902    2    1    2    0    0 -0.17780657403E-01 -0.51060571352E-02 -0.17173532451E-01  0.10186880941E+01  0.10183753135E+01 0.  0.
     999903    2    3    3    0    0  0.39454645236E-01 -0.58775659184E-01  0.10354433665E+00  0.12698797075E+00  0.19830983800E-01 0.  0.
         14    1    1    2    0    0  0.17780657403E-01  0.51060571352E-02  0.17173532451E-01  0.25241905910E-01  0.00000000000E+00 0. -1.
     999901    1    3    3    0    0 -0.57235302639E-01  0.53669602049E-01 -0.12071786910E+00  0.89170012334E+00  0.88000000000E+00 0.  1.
        -11    1    4    4    0    0  0.30603317720E-01 -0.34007083483E-01  0.53072209379E-01  0.70071144645E-01  0.51100000000E-03 0. -1.
         11    1    4    4    0    0  0.88513275157E-02 -0.24768575702E-01  0.50472127271E-01  0.56916826100E-01  0.51100000000E-03 0.  1.
</event>
<event>
 8    1  0.1108957E+005  0.1043930E+01  0.7957747E-01            NaN
         13   -1    0    0    0    0  0.00000000000E+00  0.00000000000E+00  0.74505805969E-08  0.10566000000E+00  0.10566000000E+00 0. -1.
     999900   -1    0    0    0    0 -0.00000000000E+00 -0.00000000000E+00 -0.74505805969E-08  0.93827000000E+00  0.93827000000E+00 0. -1.
     999902    2    1    2    0    0 -0.21468591252E-02 -0.81354846172E-02  0.25222614237E-01  0.10173409913E+01  0.10169934696E+01 0.  0.
     999903    2    3    3    0    0  0.11123169180E+00 -0.25641551474E-02  0.62197672326E-01  0.12927968124E+00  0.21578261880E-01 0.  0.
         14    1    1    2    0    0  0.21468591252E-02  0.81354846172E-02 -0.25222614237E-01  0.26589008688E-01  0.00000000000E+00 0.  1.
     999901    1    3    3    0    0 -0.11337855093E+00 -0.55713294698E-02 -0.36975058089E-01  0.88806131007E+00  0.88000000000E+00 0. -1.
        -11    1    4    4    0    0  0.79982156984E-01 -0.38295699643E-02  0.55111416407E-01  0.97207717704E-01  0.51100000000E-03 0. -1.
         11    1    4    4    0    0  0.31249534821E-01  0.12654148169E-02  0.70862559195E-02  0.32071963538E-01  0.51100000000E-03 0.  1.
</event>
<event>
 8    1  0.1108957E+005  0.1043930E+01  0.7957747E-01            NaN
         13   -1    0    0    0    0  0.00000000000E+00  0.00000000000E+00  0.74505805969E-08  0.10566000000E+00  0.10566000000E+00 0. -1.
     999900   -1    0    0    0    0 -0.00000000000E+00 -0.00000000000E+00 -0.74505805969E-08  0.93827000000E+00  0.93827000000E+00 0. -1.
     999902    2    1    2    0    0 -0.80940047972E-02 -0.13329937987E-01  0.18091066584E-01  0.10200451334E+01  0.10197654571E+01 0.  0.
     999903    2    3    3    0    0  0.77268524019E-01  0.66481592773E-01 -0.75067233877E-01  0.12744493699E+00  0.14727368390E-01 0.  0.
         14    1    1    2    0    0  0.80940047972E-02  0.13329937987E-01 -0.18091066584E-01  0.23884866559E-01  0.00000000000E+00 0.  1.
     999901    1    3    3    0    0 -0.85362528816E-01 -0.79811530760E-01  0.93158300461E-01  0.89260019646E+00  0.88000000000E+00 0. -1.
        -11    1    4    4    0    0  0.26467641448E-01  0.21746378298E-01 -0.34013580395E-01  0.48276555234E-01  0.51100000000E-03 0. -1.
         11    1    4    4    0    0  0.50800882571E-01  0.44735214475E-01 -0.41053653481E-01  0.79168381752E-01  0.51100000000E-03 0.  1.
</event>
<event>
 8    1  0.1108957E+005  0.1043930E+01  0.7957747E-01            NaN
         13   -1    0    0    0    0  0.00000000000E+00  0.00000000000E+00  0.74505805969E-08  0.10566000000E+00  0.10566000000E+00 0. -1.
     999900   -1    0    0    0    0 -0.00000000000E+00 -0.00000000000E+00 -0.74505805969E-08  0.93827000000E+00  0.93827000000E+00 0. -1.
     999902    2    1    2    0    0  0.81055717647E-02 -0.38742957537E-02  0.22577808016E-01  0.10196304552E+01  0.10193408642E+01 0.  0.
     999903    2    3    3    0    0 -0.75496412350E-02 -0.85480651257E-01 -0.93295624301E-01  0.12815340265E+00  0.18848933019E-01 0.  0.
         14    1    1    2    0    0 -0.81055717647E-02  0.38742957537E-02 -0.22577808016E-01  0.24299544770E-01  0.00000000000E+00 0.  1.
     999901    1    3    3    0    0  0.15655213000E-01  0.81606355503E-01  0.11587343232E+00  0.89147705258E+00  0.88000000000E+00 0.  1.
        -11    1    4    4    0    0 -0.46255653013E-03 -0.36581961184E-01 -0.27014177198E-01  0.45480553353E-01  0.51100000000E-03 0. -1.
         11    1    4    4    0    0 -0.70870847049E-02 -0.48898690073E-01 -0.66281447103E-01  0.82672849301E-01  0.51100000000E-03 0.  1.
</event>
<event>
 8    1  0.1108957E+005  0.1043930E+01  0.7957747E-01            NaN
         13   -1    0    0    0    0  0.00000000000E+00  0.00000000000E+00  0.74505805969E-08  0.10566000000E+00  0.10566000000E+00 0. -1.
     999900   -1    0    0    0    0 -0.00000000000E+00 -0.00000000000E+00 -0.74505805969E-08  0.93827000000E+00  0.93827000000E+00 0. -1.
     999902    2    1    2    0    0  0.19297408707E-02 -0.10744293025E-02  0.23456780338E-01  0.10203694643E+01  0.10200974193E+01 0.  0.
     999903    2    3    3    0    0 -0.24118247657E-01  0.78479916197E-01  0.10143622241E+00  0.13296415388E+00  0.25482776224E-01 0.  0.
         14    1    1    2    0    0 -0.19297408707E-02  0.10744293025E-02 -0.23456780338E-01  0.23560535690E-01  0.00000000000E+00 0.  1.
     999901    1    3    3    0    0  0.26047988528E-01 -0.79554345500E-01 -0.77979442070E-01  0.88740531043E+00  0.88000000000E+00 0.  1.
        -11    1    4    4    0    0 -0.68381878474E-02  0.60036803960E-01  0.76109507053E-01  0.97180743090E-01  0.51100000000E-03 0. -1.
         11    1    4    4    0    0 -0.17280059810E-01  0.18443112237E-01  0.25326715356E-01  0.35783410789E-01  0.51100000000E-03 0.  1.
</event>
<event>
 8    1  0.1108957E+005  0.1043930E+01  0.7957747E-01            NaN
         13   -1    0    0    0    0  0.00000000000E+00  0.00000000000E+00  0.74505805969E-08  0.10566000000E+00  0.10566000000E+00 0.  1.
     999900   -1    0    0    0    0 -0.00000000000E+00 -0.00000000000E+00 -0.74505805969E-08  0.93827000000E+00  0.93827000000E+00 0. -1.
     999902    2    1    2    0    0  0.23490781434E-01  0.38614696725E-02 -0.10130073442E-01  0.10180582751E+01  0.10177294854E+01 0.  0.
     999903    2    3    3    0    0 -0.60876334201E-01  0.30447235661E-01  0.10169288627E+00  0.12658253934E+00  0.32384161610E-01 0.  0.
         14    1    1    2    0    0 -0.23490781434E-01 -0.38614696725E-02  0.10130073442E-01  0.25871724882E-01  0.00000000000E+00 0.  1.
     999901    1    3    3    0    0  0.84367115635E-01 -0.26585765988E-01 -0.11182295972E+00  0.89147573577E+00  0.88000000000E+00 0. -1.
        -11    1    4    4    0    0 -0.17192770268E-01 -0.79794322501E-03  0.89407940754E-02  0.19401726278E-01  0.51100000000E-03 0.  1.
         11    1    4    4    0    0 -0.43683563933E-01  0.31245178886E-01  0.92752092198E-01  0.10718081307E+00  0.51100000000E-03 0. -1.
</event>
<event>
 8    1  0.1108957E+005  0.1043930E+01  0.7957747E-01            NaN
         13   -1    0    0    0    0  0.00000000000E+00  0.00000000000E+00  0.74505805969E-08  0.10566000000E+00  0.10566000000E+00 0. -1.
     999900   -1    0    0    0    0 -0.00000000000E+00 -0.00000000000E+00 -0.74505805969E-08  0.93827000000E+00  0.93827000000E+00 0.  1.
     999902    2    1    2    0    0 -0.12822468890E-01  0.19659924477E-01 -0.62479073738E-03  0.10204498232E+01  0.10201796523E+01 0.  0.
     999903    2    3    3    0    0 -0.26367916883E-01  0.53146067486E-01  0.11632300307E+00  0.13197833384E+00  0.19169455646E-01 0.  0.
         14    1    1    2    0    0  0.12822468890E-01 -0.19659924477E-01  0.62479073738E-03  0.23480176795E-01  0.00000000000E+00 0. -1.
     999901    1    3    3    0    0  0.13545447993E-01 -0.33486143009E-01 -0.11694779381E+00  0.88847148936E+00  0.88000000000E+00 0.  1.
        -11    1    4    4    0    0 -0.20317360565E-01  0.21421555817E-01  0.64083513396E-01  0.70559450141E-01  0.51100000000E-03 0.  1.
         11    1    4    4    0    0 -0.60505563185E-02  0.31724511669E-01  0.52239489676E-01  0.61418883701E-01  0.51100000000E-03 0. -1.
</event>
<event>
 8    1  0.1108957E+005  0.1043930E+01  0.7957747E-01            NaN
         13   -1    0    0    0    0  0.00000000000E+00  0.00000000000E+00  0.74505805969E-08  0.10566000000E+00  0.10566000000E+00 0.  1.
     999900   -1    0    0    0    0 -0.00000000000E+00 -0.00000000000E+00 -0.74505805969E-08  0.93827000000E+00  0.93827000000E+00 0. -1.
     999902    2    1    2    0    0 -0.37990920037E-02  0.21249129858E-01  0.17867216445E-02  0.10222701063E+01  0.10220406153E+01 0.  0.
     999903    2    3    3    0    0 -0.59228787895E-02  0.11150445115E+00 -0.72152032136E-01  0.13456662385E+00  0.20831164001E-01 0.  0.
         14    1    1    2    0    0  0.37990920037E-02 -0.21249129858E-01 -0.17867216445E-02  0.21659893675E-01  0.00000000000E+00 0.  1.
     999901    1    3    3    0    0  0.21237867858E-02 -0.90255321288E-01  0.73938753781E-01  0.88770348248E+00  0.88000000000E+00 0. -1.
        -11    1    4    4    0    0 -0.44731298228E-02  0.34408458336E-01 -0.11825543837E-01  0.36661362543E-01  0.51100000000E-03 0. -1.
         11    1    4    4    0    0 -0.14497489667E-02  0.77095992811E-01 -0.60326488300E-01  0.97905261305E-01  0.51100000000E-03 0.  1.
</event>
<event>
 8    1  0.1108957E+005  0.1043930E+01  0.7957747E-01            NaN
         13   -1    0    0    0    0  0.00000000000E+00  0.00000000000E+00  0.74505805969E-08  0.10566000000E+00  0.10566000000E+00 0.  1.
     999900   -1    0    0    0    0 -0.00000000000E+00 -0.00000000000E+00 -0.74505805969E-08  0.93827000000E+00  0.93827000000E+00 0.  1.
     999902    2    1    2    0    0 -0.18775181382E-01 -0.14209463861E-01 -0.30718507697E-02  0.10201844201E+01  0.10199080343E+01 0.  0.
     999903    2    3    3    0    0  0.18868884750E-01  0.11766831390E+00  0.42864486566E-01  0.12837784291E+00  0.21015219047E-01 0.  0.
         14    1    1    2    0    0  0.18775181382E-01  0.14209463861E-01  0.30718507697E-02  0.23745579932E-01  0.00000000000E+00 0.  1.
     999901    1    3    3    0    0 -0.37644066132E-01 -0.13187777777E+00 -0.45936337336E-01  0.89180657716E+00  0.88000000000E+00 0.  1.
        -11    1    4    4    0    0  0.10483565390E-01  0.48055490545E-01  0.72050543660E-02  0.49713270303E-01  0.51100000000E-03 0. -1.
         11    1    4    4    0    0  0.83853193601E-02  0.69612823360E-01  0.35659432200E-01  0.78664572603E-01  0.51100000000E-03 0.  1.
</event>
<event>
 8    1  0.1108957E+005  0.1043930E+01  0.7957747E-01            NaN
         13   -1    0    0    0    0  0.00000000000E+00  0.00000000000E+00  0.74505805969E-08  0.10566000000E+00  0.10566000000E+00 0. -1.
     999900   -1    0    0    0    0 -0.00000000000E+00 -0.00000000000E+00 -0.74505805969E-08  0.93827000000E+00  0.93827000000E+00 0.  1.
     999902    2    1    2    0    0 -0.13307516677E-01 -0.19485683660E-01  0.74002505540E-04  0.10203336582E+01  0.10200607760E+01 0.  0.
     999903    2    3    3    0    0  0.41820763055E-01  0.11898478154E+00  0.16003369196E-01  0.12765961825E+00  0.11598096606E-01 0.  0.
         14    1    1    2    0    0  0.13307516677E-01  0.19485683660E-01 -0.74002505540E-04  0.23596341755E-01  0.00000000000E+00 0.  1.
     999901    1    3    3    0    0 -0.55128279732E-01 -0.13847046520E+00 -0.15929366691E-01  0.89267404000E+00  0.88000000000E+00 0.  1.
        -11    1    4    4    0    0  0.21450929665E-01  0.76931685306E-01  0.82784765394E-02  0.80295833530E-01  0.51100000000E-03 0.  1.
         11    1    4    4    0    0  0.20369833390E-01  0.42053096236E-01  0.77248926568E-02  0.47363784719E-01  0.51100000000E-03 0. -1.
</event>
<event>
 8    1  0.1108957E+005  0.1043930E+01  0.7957747E-01            NaN
         13   -1    0    0    0    0  0.00000000000E+00  0.00000000000E+00  0.74505805969E-08  0.10566000000E+00  0.10566000000E+00 0. -1.
     999900   -1    0    0    0    0 -0.00000000000E+00 -0.00000000000E+00 -0.74505805969E-08  0.93827000000E+00  0.93827000000E+00 0.  1.
     999902    2    1    2    0    0  0.14057555718E-01 -0.89105121569E-02 -0.17832849769E-01  0.10195369143E+01  0.10192450623E+01 0.  0.
     999903    2    3    3    0    0  0.86440201303E-01  0.89869892705E-01  0.31634696677E-01  0.12968082822E+00  0.16366342204E-01 0.  0.
         14    1    1    2    0    0 -0.14057555718E-01  0.89105121569E-02  0.17832849769E-01  0.24393085712E-01  0.00000000000E+00 0.  1.
     999901    1    3    3    0    0 -0.72382645585E-01 -0.98780404862E-01 -0.49467546446E-01  0.88985608607E+00  0.88000000000E+00 0.  1.
        -11    1    4    4    0    0  0.77409152838E-01  0.73086745917E-01  0.23934810041E-01  0.10911913501E+00  0.51100000000E-03 0.  1.
         11    1    4    4    0    0  0.90310484648E-02  0.16783146788E-01  0.76998866361E-02  0.20561693211E-01  0.51100000000E-03 0. -1.
</event>
<event>
 8    1  0.1108957E+005  0.1043930E+01  0.7957747E-01            NaN
         13   -1    0    0    0    0  0.00000000000E+00  0.00000000000E+00  0.74505805969E-08  0.10566000000E+00  0.10566000000E+00 0.  1.
     999900   -1    0    0    0    0 -0.00000000000E+00 -0.00000000000E+00 -0.74505805969E-08  0.93827000000E+00  0.93827000000E+00 0. -1.
     999902    2    1    2    0    0 -0.20224854212E-01 -0.11882502581E-01 -0.35909691669E-02  0.10201995627E+01  0.10199235334E+01 0.  0.
     999903    2    3    3    0    0 -0.55897504536E-01  0.10122483573E+00 -0.57180129446E-01  0.13062797700E+00  0.20569462534E-01 0.  0.
         14    1    1    2    0    0  0.20224854212E-01  0.11882502581E-01  0.35909691669E-02  0.23730437312E-01  0.00000000000E+00 0.  1.
     999901    1    3    3    0    0  0.35672650325E-01 -0.11310733832E+00  0.53589160280E-01  0.88957158569E+00  0.88000000000E+00 0.  1.
        -11    1    4    4    0    0 -0.15092904981E-01  0.15011860035E-01 -0.16472747205E-01  0.26921445800E-01  0.51100000000E-03 0.  1.
         11    1    4    4    0    0 -0.40804599556E-01  0.86212975699E-01 -0.40707382242E-01  0.10370653120E+00  0.51100000000E-03 0. -1.
</event>
<event>
 8    1  0.1108957E+005  0.1043930E+01  0.7957747E-01            NaN
         13   -1    0    0    0    0  0.00000000000E+00  0.00000000000E+00  0.74505805969E-08  0.10566000000E+00  0.10566000000E+00 0. -1.
     999900   -1    0    0    0    0 -0.00000000000E+00 -0.00000000000E+00 -0.74505805969E-08  0.93827000000E+00  0.93827000000E+00 0.  1.
     999902    2    1    2    0    0  0.10956986807E-01 -0.16986264260E-01  0.12675385908E-01  0.10200709526E+01  0.10197918877E+01 0.  0.
     999903    2    3    3    0    0 -0.12640071580E+00 -0.50368874100E-02 -0.14772347621E-01  0.12891254688E+00  0.19942700405E-01 0.  0.
         14    1    1    2    0    0 -0.10956986807E-01  0.16986264260E-01 -0.12675385908E-01  0.23859047368E-01  0.00000000000E+00 0.  1.
     999901    1    3    3    0    0  0.13735770260E+00 -0.11949376850E-01  0.27447733529E-01  0.89115840575E+00  0.88000000000E+00 0. -1.
        -11    1    4    4    0    0 -0.33420387190E-01  0.46932477455E-02 -0.10411207219E-01  0.35321427082E-01  0.51100000000E-03 0. -1.
         11    1    4    4    0    0 -0.92980328606E-01 -0.97301351555E-02 -0.43611404013E-02  0.93591119795E-01  0.51100000000E-03 0.  1.
</event>
<event>
 8    1  0.1108957E+005  0.1043930E+01  0.7957747E-01            NaN
         13   -1    0    0    0    0  0.00000000000E+00  0.00000000000E+00  0.74505805969E-08  0.10566000000E+00  0.10566000000E+00 0. -1.
     999900   -1    0    0    0    0 -0.00000000000E+00 -0.00000000000E+00 -0.74505805969E-08  0.93827000000E+00  0.93827000000E+00 0. -1.
     999902    2    1    2    0    0 -0.85286937214E-02 -0.19976798279E-01 -0.52135903619E-02  0.10215918575E+01  0.10213476052E+01 0.  0.
     999903    2    3    3    0    0  0.14061470114E-01 -0.11253028851E+00 -0.69106612804E-01  0.13414677053E+00  0.18943107911E-01 0.  0.
         14    1    1    2    0    0  0.85286937214E-02  0.19976798279E-01  0.52135903619E-02  0.22338142504E-01  0.00000000000E+00 0.  1.
     999901    1    3    3    0    0 -0.22590163835E-01  0.92553490232E-01  0.63893022442E-01  0.88744508696E+00  0.88000000000E+00 0. -1.
        -11    1    4    4    0    0  0.11035134929E-01 -0.81163667347E-01 -0.39634264854E-01  0.90996984409E-01  0.51100000000E-03 0.  1.
         11    1    4    4    0    0  0.30263351847E-02 -0.31366621164E-01 -0.29472347950E-01  0.43149786125E-01  0.51100000000E-03 0. -1.
</event>
<event>
 8    1  0.1108957E+005  0.1043930E+01  0.7957747E-01            NaN
         13   -1    0    0    0    0  0.00000000000E+00  0.00000000000E+00  0.74505805969E-08  0.10566000000E+00  0.10566000000E+00 0.  1.
     999900   -1    0    0    0    0 -0.00000000000E+00 -0.00000000000E+00 -0.74505805969E-08  0.93827000000E+00  0.93827000000E+00 0. -1.
     999902    2    1    2    0    0  0.26715835152E-02  0.47185051242E-02  0.20233089098E-01  0.10229829347E+01  0.10227684514E+01 0.  0.
     999903    2    3    3    0    0  0.78982413218E-01 -0.31859317397E-01 -0.97417474322E-01  0.13112928367E+00  0.21248224159E-01 0.  0.
         14    1    1    2    0    0 -0.26715835152E-02 -0.47185051242E-02 -0.20233089098E-01  0.20947065273E-01  0.00000000000E+00 0. -1.
     999901    1    3    3    0    0 -0.76310829703E-01  0.36577822521E-01  0.11765056342E+00  0.89185365106E+00  0.88000000000E+00 0.  1.
        -11    1    4    4    0    0  0.29258241820E-01 -0.73769960256E-02 -0.48925216394E-01  0.57483934320E-01  0.51100000000E-03 0.  1.
         11    1    4    4    0    0  0.49724171397E-01 -0.24482321371E-01 -0.48492257928E-01  0.73645349350E-01  0.51100000000E-03 0. -1.
</event>
<event>
 7    1  0.1108957E+005  0.1043930E+01  0.7957747E-01            NaN
         13   -1    0    0    0    0  0.00000000000E+00  0.00000000000E+00  0.74505805969E-08  0.10566000000E+00  0.10566000000E+00 0. -1.
     999900   -1    0    0    0    0 -0.00000000000E+00 -0.00000000000E+00 -0.74505805969E-08  0.93827000000E+00  0.93827000000E+00 0.  1.
     999903    2    1    2    0    0  0.72979112345E-01 -0.66010243453E-01  0.51534820607E-01  0.11303357654E+00  0.20915272173E-01 0.  0.
         14    1    1    2    0    0  0.14780818397E-01 -0.16675885599E-01 -0.36239536119E-01  0.42542469734E-01  0.00000000000E+00 0.  1.
     999901    1    1    2    0    0 -0.87759930742E-01  0.82686129051E-01 -0.15295284488E-01  0.88835395373E+00  0.88000000000E+00 0.  1.
        -11    1    3    3    0    0  0.29678306042E-01 -0.36483552767E-01  0.15872462639E-01  0.49639174683E-01  0.51100000000E-03 0.  1.
         11    1    3    3    0    0  0.43300806303E-01 -0.29526690686E-01  0.35662357968E-01  0.63394401852E-01  0.51100000000E-03 0. -1.
</event>
<event>
 8    1  0.1108957E+005  0.1043930E+01  0.7957747E-01            NaN
         13   -1    0    0    0    0  0.00000000000E+00  0.00000000000E+00  0.74505805969E-08  0.10566000000E+00  0.10566000000E+00 0. -1.
     999900   -1    0    0    0    0 -0.00000000000E+00 -0.00000000000E+00 -0.74505805969E-08  0.93827000000E+00  0.93827000000E+00 0.  1.
     999902    2    1    2    0    0 -0.22294032433E-01  0.60712122761E-02 -0.59568772238E-02  0.10200685691E+01  0.10197894477E+01 0.  0.
     999903    2    3    3    0    0 -0.47723060902E-01  0.50735780857E-01  0.10912762992E+00  0.13108825264E+00  0.20583497450E-01 0.  0.
         14    1    1    2    0    0  0.22294032433E-01 -0.60712122761E-02  0.59568772238E-02  0.23861430948E-01  0.00000000000E+00 0. -1.
     999901    1    3    3    0    0  0.25429028469E-01 -0.44664568581E-01 -0.11508450715E+00  0.88898031641E+00  0.88000000000E+00 0.  1.
        -11    1    4    4    0    0 -0.17167106167E-01  0.60343450077E-02  0.32641304288E-01  0.37374305618E-01  0.51100000000E-03 0. -1.
         11    1    4    4    0    0 -0.30555954735E-01  0.44701435849E-01  0.76486325637E-01  0.93713947026E-01  0.51100000000E-03 0.  1.
</event>
<event>
 8    1  0.1108957E+005  0.1043930E+01  0.7957747E-01            NaN
         13   -1    0    0    0    0  0.00000000000E+00  0.00000000000E+00  0.74505805969E-08  0.10566000000E+00  0.10566000000E+00 0. -1.
     999900   -1    0    0    0    0 -0.00000000000E+00 -0.00000000000E+00 -0.74505805969E-08  0.93827000000E+00  0.93827000000E+00 0.  1.
     999902    2    1    2    0    0  0.18657191359E-01 -0.38065337260E-02 -0.95694776307E-02  0.10226190781E+01  0.10223969990E+01 0.  0.
     999903    2    3    3    0    0  0.93240762882E-01 -0.86326162240E-01  0.39400700692E-01  0.13426651491E+00  0.18139340152E-01 0.  0.
         14    1    1    2    0    0 -0.18657191359E-01  0.38065337260E-02  0.95694776307E-02  0.21310921861E-01  0.00000000000E+00 0.  1.
     999901    1    3    3    0    0 -0.74583571523E-01  0.82519628514E-01 -0.48970178323E-01  0.88835256323E+00  0.88000000000E+00 0.  1.
        -11    1    4    4    0    0  0.31739344133E-01 -0.33128432699E-01  0.22947244349E-01  0.51300255002E-01  0.51100000000E-03 0.  1.
         11    1    4    4    0    0  0.61501418749E-01 -0.53197729541E-01  0.16453456344E-01  0.82966259908E-01  0.51100000000E-03 0. -1.
</event>
<event>
 8    1  0.1108957E+005  0.1043930E+01  0.7957747E-01            NaN
         13   -1    0    0    0    0  0.00000000000E+00  0.00000000000E+00  0.74505805969E-08  0.10566000000E+00  0.10566000000E+00 0.  1.
     999900   -1    0    0    0    0 -0.00000000000E+00 -0.00000000000E+00 -0.74505805969E-08  0.93827000000E+00  0.93827000000E+00 0.  1.
     999902    2    1    2    0    0 -0.41447060134E-02 -0.21766733113E-01  0.61258054934E-02  0.10209409863E+01  0.10206821262E+01 0.  0.
     999903    2    3    3    0    0 -0.96242422782E-01  0.35062134239E-01 -0.77791983217E-01  0.13034921401E+00  0.21151069458E-01 0.  0.
         14    1    1    2    0    0  0.41447060134E-02  0.21766733113E-01 -0.61258054934E-02  0.22989013708E-01  0.00000000000E+00 0. -1.
     999901    1    3    3    0    0  0.92097716769E-01 -0.56828867351E-01  0.83917788710E-01  0.89059177228E+00  0.88000000000E+00 0. -1.
        -11    1    4    4    0    0 -0.40338117944E-01  0.24804556961E-01 -0.41013428421E-01  0.62648162281E-01  0.51100000000E-03 0.  1.
         11    1    4    4    0    0 -0.55904304838E-01  0.10257577277E-01 -0.36778554796E-01  0.67701051726E-01  0.51100000000E-03 0. -1.
</event>
<event>
 8    1  0.1108957E+005  0.1043930E+01  0.7957747E-01            NaN
         13   -1    0    0    0    0  0.00000000000E+00  0.00000000000E+00  0.74505805969E-08  0.10566000000E+00  0.10566000000E+00 0.  1.
     999900   -1    0    0    0    0 -0.00000000000E+00 -0.00000000000E+00 -0.74505805969E-08  0.93827000000E+00  0.93827000000E+00 0.  1.
     999902    2    1    2    0    0  0.18742467537E-01 -0.46479771324E-02 -0.13591918263E-01  0.10203159359E+01  0.10200426388E+01 0.  0.
     999903    2    3    3    0    0  0.94260807372E-01 -0.30744057126E-01 -0.87389242244E-01  0.13361978160E+00  0.19674082436E-01 0.  0.
         14    1    1    2    0    0 -0.18742467537E-01  0.46479771324E-02  0.13591918263E-01  0.23614064090E-01  0.00000000000E+00 0.  1.
     999901    1    3    3    0    0 -0.75518339835E-01  0.26096079994E-01  0.73797323981E-01  0.88669615431E+00  0.88000000000E+00 0. -1.
        -11    1    4    4    0    0  0.32117249106E-01 -0.20467714051E-01 -0.32409050102E-01  0.50010525474E-01  0.51100000000E-03 0. -1.
         11    1    4    4    0    0  0.62143558266E-01 -0.10276343075E-01 -0.54980192142E-01  0.83609256126E-01  0.51100000000E-03 0.  1.
</event>
<event>
 8    1  0.1108957E+005  0.1043930E+01  0.7957747E-01            NaN
         13   -1    0    0    0    0  0.00000000000E+00  0.00000000000E+00  0.74505805969E-08  0.10566000000E+00  0.10566000000E+00 0.  1.
     999900   -1    0    0    0    0 -0.00000000000E+00 -0.00000000000E+00 -0.74505805969E-08  0.93827000000E+00  0.93827000000E+00 0. -1.
     999902    2    1    2    0    0  0.21549238155E-01  0.71083749213E-02  0.29882326947E-02  0.10210427067E+01  0.10207861582E+01 0.  0.
     999903    2    3    3    0    0  0.11870582331E-01 -0.12829427291E+00 -0.75244633041E-02  0.13057200524E+00  0.19801510503E-01 0.  0.
         14    1    1    2    0    0 -0.21549238155E-01 -0.71083749213E-02 -0.29882326947E-02  0.22887293281E-01  0.00000000000E+00 0.  1.
     999901    1    3    3    0    0  0.96786558237E-02  0.13540264783E+00  0.10512695999E-01  0.89047070148E+00  0.88000000000E+00 0.  1.
        -11    1    4    4    0    0  0.14612605075E-01 -0.62472540096E-01  0.81142728547E-03  0.64165925758E-01  0.51100000000E-03 0.  1.
         11    1    4    4    0    0 -0.27420227441E-02 -0.65821732812E-01 -0.83358905896E-02  0.66406079481E-01  0.51100000000E-03 0. -1.
</event>
<event>
 8    1  0.1108957E+005  0.1043930E+01  0.7957747E-01            NaN
         13   -1    0    0    0    0  0.00000000000E+00  0.00000000000E+00  0.74505805969E-08  0.10566000000E+00  0.10566000000E+00 0. -1.
     999900   -1    0    0    0    0 -0.00000000000E+00 -0.00000000000E+00 -0.74505805969E-08  0.93827000000E+00  0.93827000000E+00 0. -1.
     999902    2    1    2    0    0 -0.67794136859E-02  0.17744125835E-01  0.13429135414E-01  0.10206672373E+01  0.10204021036E+01 0.  0.
     999903    2    3    3    0    0  0.76190027404E-01  0.10567183882E+00 -0.92352733129E-02  0.13211285724E+00  0.19926338791E-01 0.  0.
         14    1    1    2    0    0  0.67794136859E-02 -0.17744125835E-01 -0.13429135414E-01  0.23262762724E-01  0.00000000000E+00 0.  1.
     999901    1    3    3    0    0 -0.82969441090E-01 -0.87927712988E-01  0.22664408727E-01  0.88855438004E+00  0.88000000000E+00 0. -1.
        -11    1    4    4    0    0  0.33275987169E-01  0.33244134396E-01 -0.91677656143E-02  0.47924657966E-01  0.51100000000E-03 0. -1.
         11    1    4    4    0    0  0.42914040235E-01  0.72427704428E-01 -0.67507698623E-04  0.84188199270E-01  0.51100000000E-03 0.  1.
</event>
<event>
 8    1  0.1108957E+005  0.1043930E+01  0.7957747E-01            NaN
         13   -1    0    0    0    0  0.00000000000E+00  0.00000000000E+00  0.74505805969E-08  0.10566000000E+00  0.10566000000E+00 0. -1.
     999900   -1    0    0    0    0 -0.00000000000E+00 -0.00000000000E+00 -0.74505805969E-08  0.93827000000E+00  0.93827000000E+00 0.  1.
     999902    2    1    2    0    0 -0.49105947779E-02 -0.16625421405E-01 -0.11536546139E-01  0.10231066843E+01  0.10228947537E+01 0.  0.
     999903    2    3    3    0    0 -0.12217798090E+00  0.38472641805E-01 -0.26521939275E-01  0.13349328605E+00  0.26635333168E-01 0.  0.
         14    1    1    2    0    0  0.49105947779E-02  0.16625421405E-01  0.11536546139E-01  0.20823315654E-01  0.00000000000E+00 0. -1.
     999901    1    3    3    0    0  0.11726738612E+00 -0.55098063211E-01  0.14985393136E-01  0.88961339829E+00  0.88000000000E+00 0.  1.
        -11    1    4    4    0    0 -0.16541570955E-01  0.66414579291E-02 -0.13565875183E-01  0.22405950629E-01  0.51100000000E-03 0.  1.
         11    1    4    4    0    0 -0.10563640995E+00  0.31831183876E-01 -0.12956064092E-01  0.11108733542E+00  0.51100000000E-03 0. -1.
</event>
<event>
 8    1  0.1108957E+005  0.1043930E+01  0.7957747E-01            NaN
         13   -1    0    0    0    0  0.00000000000E+00  0.00000000000E+00  0.74505805969E-08  0.10566000000E+00  0.10566000000E+00 0.  1.
     999900   -1    0    0    0    0 -0.00000000000E+00 -0.00000000000E+00 -0.74505805969E-08  0.93827000000E+00  0.93827000000E+00 0. -1.
     999902    2    1    2    0    0 -0.16923372321E-01 -0.10677835729E-01  0.22296462864E-01  0.10139708785E+01  0.10135281907E+01 0.  0.
     999903    2    3    3    0    0  0.41015964828E-01 -0.11573346250E+00 -0.11809376877E-01  0.12517570532E+00  0.21282671548E-01 0.  0.
         14    1    1    2    0    0  0.16923372321E-01  0.10677835729E-01 -0.22296462864E-01  0.29959121530E-01  0.00000000000E+00 0.  1.
     999901    1    3    3    0    0 -0.57939337150E-01  0.10505562677E+00  0.34105839741E-01  0.88879517315E+00  0.88000000000E+00 0. -1.
        -11    1    4    4    0    0  0.36476794945E-01 -0.80743906612E-01 -0.14524001197E-01  0.89784980683E-01  0.51100000000E-03 0. -1.
         11    1    4    4    0    0  0.45391698832E-02 -0.34989555887E-01  0.27146243197E-02  0.35390724641E-01  0.51100000000E-03 0.  1.
</event>
<event>
 8    1  0.1108957E+005  0.1043930E+01  0.7957747E-01            NaN
         13   -1    0    0    0    0  0.00000000000E+00  0.00000000000E+00  0.74505805969E-08  0.10566000000E+00  0.10566000000E+00 0.  1.
     999900   -1    0    0    0    0 -0.00000000000E+00 -0.00000000000E+00 -0.74505805969E-08  0.93827000000E+00  0.93827000000E+00 0. -1.
     999902    2    1    2    0    0 -0.82947053871E-02  0.21675230370E-01 -0.37964793214E-02  0.10204133888E+01  0.10201423690E+01 0.  0.
     999903    2    3    3    0    0  0.10208540879E+00 -0.63691918953E-01 -0.40536308953E-01  0.12866166610E+00  0.20797614079E-01 0.  0.
         14    1    1    2    0    0  0.82947053871E-02 -0.21675230370E-01  0.37964793214E-02  0.23516611241E-01  0.00000000000E+00 0.  1.
     999901    1    3    3    0    0 -0.11038011418E+00  0.85367149323E-01  0.36739829632E-01  0.89175172266E+00  0.88000000000E+00 0. -1.
        -11    1    4    4    0    0  0.51930834416E-01 -0.25363436227E-01 -0.28334352459E-01  0.64367787834E-01  0.51100000000E-03 0. -1.
         11    1    4    4    0    0  0.50154574374E-01 -0.38328482726E-01 -0.12201956494E-01  0.64293878262E-01  0.51100000000E-03 0.  1.
</event>
<event>
 8    1  0.1108957E+005  0.1043930E+01  0.7957747E-01            NaN
         13   -1    0    0    0    0  0.00000000000E+00  0.00000000000E+00  0.74505805969E-08  0.10566000000E+00  0.10566000000E+00 0.  1.
     999900   -1    0    0    0    0 -0.00000000000E+00 -0.00000000000E+00 -0.74505805969E-08  0.93827000000E+00  0.93827000000E+00 0.  1.
     999902    2    1    2    0    0  0.88870624860E-02  0.23158725718E-01 -0.21421501348E-03  0.10191237035E+01  0.10188217561E+01 0.  0.
     999903    2    3    3    0    0 -0.38516873771E-01  0.29427342539E-01  0.11884774557E+00  0.12981938037E+00  0.19461933085E-01 0.  0.
         14    1    1    2    0    0 -0.88870624860E-02 -0.23158725718E-01  0.21421501348E-03  0.24806296471E-01  0.00000000000E+00 0.  1.
     999901    1    3    3    0    0  0.47403936257E-01 -0.62686168209E-02 -0.11906196058E+00  0.88930432316E+00  0.88000000000E+00 0.  1.
        -11    1    4    4    0    0 -0.20822052402E-02 -0.58682635046E-03  0.33197823495E-03  0.22475040325E-02  0.51100000000E-03 0.  1.
         11    1    4    4    0    0 -0.36434668531E-01  0.30014168889E-01  0.11851576733E+00  0.12757187634E+00  0.51100000000E-03 0. -1.
</event>
<event>
 8    1  0.1108957E+005  0.1043930E+01  0.7957747E-01            NaN
         13   -1    0    0    0    0  0.00000000000E+00  0.00000000000E+00  0.74505805969E-08  0.10566000000E+00  0.10566000000E+00 0.  1.
     999900   -1    0    0    0    0 -0.00000000000E+00 -0.00000000000E+00 -0.74505805969E-08  0.93827000000E+00  0.93827000000E+00 0. -1.
     999902    2    1    2    0    0  0.71860373453E-02 -0.70373962069E-02  0.21343039103E-01  0.10203357338E+01  0.10200629002E+01 0.  0.
     999903    2    3    3    0    0 -0.56897025382E-01 -0.45556994818E-01 -0.10431604599E+00  0.12827037520E+00  0.16085410422E-01 0.  0.
         14    1    1    2    0    0 -0.71860373453E-02  0.70373962069E-02 -0.21343039103E-01  0.23594266173E-01  0.00000000000E+00 0. -1.
     999901    1    3    3    0    0  0.64083062727E-01  0.38519598611E-01  0.12565908509E+00  0.89206535863E+00  0.88000000000E+00 0.  1.
        -11    1    4    4    0    0 -0.31729145303E-01 -0.34912129001E-01 -0.62328192689E-01  0.78170711510E-01  0.51100000000E-03 0.  1.
         11    1    4    4    0    0 -0.25167880079E-01 -0.10644865817E-01 -0.41987853297E-01  0.50099663685E-01  0.51100000000E-03 0. -1.
</event>
<event>
 8    1  0.1108957E+005  0.1043930E+01  0.7957747E-01            NaN
         13   -1    0    0    0    0  0.00000000000E+00  0.00000000000E+00  0.74505805969E-08  0.10566000000E+00  0.10566000000E+00 0.  1.
     999900   -1    0    0    0    0 -0.00000000000E+00 -0.00000000000E+00 -0.74505805969E-08  0.93827000000E+00  0.93827000000E+00 0. -1.
     999902    2    1    2    0    0  0.69853087712E-02 -0.27631458801E-01  0.49353614226E-02  0.10150050999E+01  0.10145928755E+01 0.  0.
     999903    2    3    3    0    0  0.70833277558E-02  0.10294201449E-01  0.12394011388E+00  0.12618537890E+00  0.20135885941E-01 0.  0.
         14    1    1    2    0    0 -0.69853087712E-02  0.27631458801E-01 -0.49353614226E-02  0.28924900111E-01  0.00000000000E+00 0. -1.
     999901    1    3    3    0    0 -0.98018984605E-04 -0.37925660250E-01 -0.11900475246E+00  0.88881972099E+00  0.88000000000E+00 0. -1.
        -11    1    4    4    0    0  0.13621058451E-01  0.89819018330E-02  0.72665137243E-01  0.74476110837E-01  0.51100000000E-03 0.  1.
         11    1    4    4    0    0 -0.65377306951E-02  0.13122996161E-02  0.51274976641E-01  0.51709268062E-01  0.51100000000E-03 0. -1.
</event>
<event>
 8    1  0.1108957E+005  0.1043930E+01  0.7957747E-01            NaN
         13   -1    0    0    0    0  0.00000000000E+00  0.00000000000E+00  0.74505805969E-08  0.10566000000E+00  0.10566000000E+00 0. -1.
     999900   -1    0    0    0    0 -0.00000000000E+00 -0.00000000000E+00 -0.74505805969E-08  0.93827000000E+00  0.93827000000E+00 0. -1.
     999902    2    1    2    0    0  0.16767600589E-02  0.81215003653E-02  0.23805631125E-01  0.10187213038E+01  0.10184093560E+01 0.  0.
     999903    2    3    3    0    0 -0.55327083921E-01  0.10375774486E+00 -0.49247278100E-01  0.12870306967E+00  0.17675686902E-01 0.  0.
         14    1    1    2    0    0 -0.16767600589E-02 -0.81215003653E-02 -0.23805631125E-01  0.25208696232E-01  0.00000000000E+00 0.  1.
     999901    1    3    3    0    0  0.57003843979E-01 -0.95636244495E-01  0.73052909224E-01  0.89001823410E+00  0.88000000000E+00 0.  1.
        -11    1    4    4    0    0 -0.32922444131E-01  0.66343825694E-01 -0.39791720738E-01  0.84077539781E-01  0.51100000000E-03 0. -1.
         11    1    4    4    0    0 -0.22404639790E-01  0.37413919165E-01 -0.94555573616E-02  0.44625529884E-01  0.51100000000E-03 0.  1.
</event>
<event>
 8    1  0.1108957E+005  0.1043930E+01  0.7957747E-01            NaN
         13   -1    0    0    0    0  0.00000000000E+00  0.00000000000E+00  0.74505805969E-08  0.10566000000E+00  0.10566000000E+00 0.  1.
     999900   -1    0    0    0    0 -0.00000000000E+00 -0.00000000000E+00 -0.74505805969E-08  0.93827000000E+00  0.93827000000E+00 0.  1.
     999902    2    1    2    0    0 -0.75627114560E-02  0.13706123962E-01 -0.17754121949E-01  0.10202601609E+01  0.10199855561E+01 0.  0.
     999903    2    3    3    0    0 -0.11467099538E+00  0.56202711551E-01  0.27035416086E-01  0.13161836173E+00  0.16861122608E-01 0.  0.
         14    1    1    2    0    0  0.75627114560E-02 -0.13706123962E-01  0.17754121949E-01  0.23669839138E-01  0.00000000000E+00 0.  1.
     999901    1    3    3    0    0  0.10710828392E+00 -0.42496587589E-01 -0.44789538035E-01  0.88864179913E+00  0.88000000000E+00 0. -1.
        -11    1    4    4    0    0 -0.74857591434E-01  0.38631489221E-01  0.25714252726E-01  0.88076869092E-01  0.51100000000E-03 0. -1.
         11    1    4    4    0    0 -0.39813403945E-01  0.17571222330E-01  0.13211633595E-02  0.43541492641E-01  0.51100000000E-03 0.  1.
</event>
<event>
 8    1  0.1108957E+005  0.1043930E+01  0.7957747E-01            NaN
         13   -1    0    0    0    0  0.00000000000E+00  0.00000000000E+00  0.74505805969E-08  0.10566000000E+00  0.10566000000E+00 0.  1.
     999900   -1    0    0    0    0 -0.00000000000E+00 -0.00000000000E+00 -0.74505805969E-08  0.93827000000E+00  0.93827000000E+00 0.  1.
     999902    2    1    2    0    0  0.32471989400E-02  0.16286567174E-01 -0.17601426101E-01  0.10197306865E+01  0.10194435081E+01 0.  0.
     999903    2    3    3    0    0 -0.58765990549E-01  0.23342553841E-01 -0.11419308402E+00  0.13224808333E+00  0.21240966098E-01 0.  0.
         14    1    1    2    0    0 -0.32471989400E-02 -0.16286567174E-01  0.17601426101E-01  0.24199313463E-01  0.00000000000E+00 0.  1.
     999901    1    3    3    0    0  0.62013189488E-01 -0.70559866662E-02  0.96591657921E-01  0.88748260321E+00  0.88000000000E+00 0. -1.
        -11    1    4    4    0    0 -0.35292767801E-01  0.24365935451E-01 -0.67486681132E-01  0.79962438186E-01  0.51100000000E-03 0. -1.
         11    1    4    4    0    0 -0.23473222747E-01 -0.10233816105E-02 -0.46706402890E-01  0.52285645143E-01  0.51100000000E-03 0.  1.
</event>
<event>
 8    1  0.1108957E+005  0.1043930E+01  0.7957747E-01            NaN
         13   -1    0    0    0    0  0.00000000000E+00  0.00000000000E+00  0.74505805969E-08  0.10566000000E+00  0.10566000000E+00 0. -1.
     999900   -1    0    0    0    0 -0.00000000000E+00 -0.00000000000E+00 -0.74505805969E-08  0.93827000000E+00  0.93827000000E+00 0. -1.
     999902    2    1    2    0    0  0.85123751055E-02 -0.11197350881E-01 -0.16233988662E-01  0.10224501586E+01  0.10222245073E+01 0.  0.
     999903    2    3    3    0    0  0.62362313057E-01 -0.11100837583E+00 -0.39634588378E-01  0.13486374337E+00  0.20134822692E-01 0.  0.
         14    1    1    2    0    0 -0.85123751055E-02  0.11197350881E-01  0.16233988662E-01  0.21479841353E-01  0.00000000000E+00 0. -1.
     999901    1    3    3    0    0 -0.53849937952E-01  0.99811024951E-01  0.23400599716E-01  0.88758641528E+00  0.88000000000E+00 0.  1.
        -11    1    4    4    0    0  0.53488139649E-01 -0.78893155656E-01 -0.33140769102E-01  0.10091423482E+00  0.51100000000E-03 0. -1.
         11    1    4    4    0    0  0.88741734085E-02 -0.32115220176E-01 -0.64938192759E-02  0.33949508545E-01  0.51100000000E-03 0.  1.
</event>
<event>
 8    1  0.1108957E+005  0.1043930E+01  0.7957747E-01            NaN
         13   -1    0    0    0    0  0.00000000000E+00  0.00000000000E+00  0.74505805969E-08  0.10566000000E+00  0.10566000000E+00 0. -1.
     999900   -1    0    0    0    0 -0.00000000000E+00 -0.00000000000E+00 -0.74505805969E-08  0.93827000000E+00  0.93827000000E+00 0. -1.
     999902    2    1    2    0    0  0.13582096354E-01  0.21096715658E-02  0.21531365973E-01  0.10183854551E+01  0.10180650329E+01 0.  0.
     999903    2    3    3    0    0  0.58278618854E-03 -0.10980735135E-01 -0.12410114226E+00  0.12622562170E+00  0.20270616127E-01 0.  0.
         14    1    1    2    0    0 -0.13582096354E-01 -0.21096715658E-02 -0.21531365973E-01  0.25544544939E-01  0.00000000000E+00 0.  1.
     999901    1    3    3    0    0  0.12999310165E-01  0.13090406701E-01  0.14563250824E+00  0.89215983336E+00  0.88000000000E+00 0.  1.
        -11    1    4    4    0    0  0.16938939129E-02  0.50623298721E-02 -0.14698917062E-01  0.15646588898E-01  0.51100000000E-03 0. -1.
         11    1    4    4    0    0 -0.11111077244E-02 -0.16043065007E-01 -0.10940222520E+00  0.11057903280E+00  0.51100000000E-03 0.  1.
</event>
<event>
 8    1  0.1169653E+005  0.1043930E+01  0.7957747E-01            NaN
         13   -1    0    0    0    0  0.00000000000E+00  0.00000000000E+00  0.74505805969E-08  0.10566000000E+00  0.10566000000E+00 0.  1.
     999900   -1    0    0    0    0 -0.00000000000E+00 -0.00000000000E+00 -0.74505805969E-08  0.93827000000E+00  0.93827000000E+00 0. -1.
     999902    2    1    2    0    0 -0.17469902615E-01 -0.13503320039E-01 -0.73831700155E-02  0.10206480682E+01  0.10203824924E+01 0.  0.
     999903    2    3    3    0    0 -0.60752150084E-01  0.47082192899E-01 -0.10553042244E+00  0.13206670417E+00  0.19934584541E-01 0.  0.
         14    1    1    2    0    0  0.17469902615E-01  0.13503320039E-01  0.73831700155E-02  0.23281931812E-01  0.00000000000E+00 0.  1.
     999901    1    3    3    0    0  0.43282247469E-01 -0.60585512938E-01  0.98147252427E-01  0.88858136402E+00  0.88000000000E+00 0.  1.
        -11    1    4    4    0    0 -0.15045686353E-01  0.16546835047E-01 -0.45300223948E-01  0.50522686376E-01  0.51100000000E-03 0.  1.
         11    1    4    4    0    0 -0.45706463731E-01  0.30535357852E-01 -0.60230198495E-01  0.81544017792E-01  0.51100000000E-03 0. -1.
</event>
<event>
 8    1  0.1108957E+005  0.1043930E+01  0.7957747E-01            NaN
         13   -1    0    0    0    0  0.00000000000E+00  0.00000000000E+00  0.74505805969E-08  0.10566000000E+00  0.10566000000E+00 0.  1.
     999900   -1    0    0    0    0 -0.00000000000E+00 -0.00000000000E+00 -0.74505805969E-08  0.93827000000E+00  0.93827000000E+00 0.  1.
     999902    2    1    2    0    0  0.52980618213E-02 -0.18982214619E-01  0.11425991990E-01  0.10211495868E+01  0.10208954557E+01 0.  0.
     999903    2    3    3    0    0 -0.78340698638E-01 -0.95767667909E-01  0.45370727428E-01  0.13320606771E+00  0.19407274122E-01 0.  0.
         14    1    1    2    0    0 -0.52980618213E-02  0.18982214619E-01 -0.11425991990E-01  0.22780413163E-01  0.00000000000E+00 0. -1.
     999901    1    3    3    0    0  0.83638760459E-01  0.76785453290E-01 -0.33944735438E-01  0.88794351912E+00  0.88000000000E+00 0. -1.
        -11    1    4    4    0    0 -0.61247690990E-01 -0.74639827259E-01  0.26525993083E-01  0.10013127830E+00  0.51100000000E-03 0.  1.
         11    1    4    4    0    0 -0.17093007647E-01 -0.21127840650E-01  0.18844734345E-01  0.33074789410E-01  0.51100000000E-03 0. -1.
</event>
<event>
 8    1  0.1108957E+005  0.1043930E+01  0.7957747E-01            NaN
         13   -1    0    0    0    0  0.00000000000E+00  0.00000000000E+00  0.74505805969E-08  0.10566000000E+00  0.10566000000E+00 0.  1.
     999900   -1    0    0    0    0 -0.00000000000E+00 -0.00000000000E+00 -0.74505805969E-08  0.93827000000E+00  0.93827000000E+00 0. -1.
     999902    2    1    2    0    0 -0.26492796812E-02 -0.17640909054E-01 -0.15512642973E-01  0.10202897283E+01  0.10200158171E+01 0.  0.
     999903    2    3    3    0    0  0.10460271457E+00 -0.96479056065E-02 -0.76994773526E-01  0.13161266052E+00  0.18944320564E-01 0.  0.
         14    1    1    2    0    0  0.26492796812E-02  0.17640909054E-01  0.15512642973E-01  0.23640271722E-01  0.00000000000E+00 0.  1.
     999901    1    3    3    0    0 -0.10725199425E+00 -0.79930034475E-02  0.61482130553E-01  0.88867706775E+00  0.88000000000E+00 0. -1.
        -11    1    4    4    0    0  0.75757780434E-01 -0.55006740915E-02 -0.65437688263E-01  0.10025891919E+00  0.51100000000E-03 0.  1.
         11    1    4    4    0    0  0.28844934137E-01 -0.41472315150E-02 -0.11557085263E-01  0.31353741330E-01  0.51100000000E-03 0. -1.
</event>
<event>
 8    1  0.1108957E+005  0.1043930E+01  0.7957747E-01            NaN
         13   -1    0    0    0    0  0.00000000000E+00  0.00000000000E+00  0.74505805969E-08  0.10566000000E+00  0.10566000000E+00 0.  1.
     999900   -1    0    0    0    0 -0.00000000000E+00 -0.00000000000E+00 -0.74505805969E-08  0.93827000000E+00  0.93827000000E+00 0.  1.
     999902    2    1    2    0    0  0.23017920495E-01 -0.12675100718E-02  0.28866157861E-02  0.10206971828E+01  0.10204327391E+01 0.  0.
     999903    2    3    3    0    0  0.14161543415E-01  0.97329123582E-01  0.84808131375E-01  0.13136548633E+00  0.19772815722E-01 0.  0.
         14    1    1    2    0    0 -0.23017920495E-01  0.12675100718E-02 -0.28866157861E-02  0.23232817229E-01  0.00000000000E+00 0. -1.
     999901    1    3    3    0    0  0.88563770800E-02 -0.98596633654E-01 -0.81921515589E-01  0.88933169644E+00  0.88000000000E+00 0.  1.
        -11    1    4    4    0    0  0.18906333336E-01  0.67911875509E-01  0.60905200050E-01  0.93162099534E-01  0.51100000000E-03 0.  1.
         11    1    4    4    0    0 -0.47447899214E-02  0.29417248073E-01  0.23902931325E-01  0.38203386794E-01  0.51100000000E-03 0. -1.
</event>
<event>
 8    1  0.1108957E+005  0.1043930E+01  0.7957747E-01            NaN
         13   -1    0    0    0    0  0.00000000000E+00  0.00000000000E+00  0.74505805969E-08  0.10566000000E+00  0.10566000000E+00 0. -1.
     999900   -1    0    0    0    0 -0.00000000000E+00 -0.00000000000E+00 -0.74505805969E-08  0.93827000000E+00  0.93827000000E+00 0.  1.
     999902    2    1    2    0    0 -0.23136413149E-01 -0.89835332499E-03 -0.67311109285E-03  0.10207663705E+01  0.10205035176E+01 0.  0.
     999903    2    3    3    0    0 -0.23821851403E-01 -0.11920513224E+00 -0.46650964086E-01  0.13165955651E+00  0.19508516388E-01 0.  0.
         14    1    1    2    0    0  0.23136413149E-01  0.89835332499E-03  0.67311109285E-03  0.23163629479E-01  0.00000000000E+00 0. -1.
     999901    1    3    3    0    0  0.68543825444E-03  0.11830677892E+00  0.45977852993E-01  0.88910681402E+00  0.88000000000E+00 0. -1.
        -11    1    4    4    0    0 -0.23038562687E-01 -0.66678822196E-01 -0.25199928604E-01  0.74914205748E-01  0.51100000000E-03 0. -1.
         11    1    4    4    0    0 -0.78328871613E-03 -0.52526310047E-01 -0.21451035482E-01  0.56745350758E-01  0.51100000000E-03 0.  1.
</event>
<event>
 8    1  0.1108957E+005  0.1043930E+01  0.7957747E-01            NaN
         13   -1    0    0    0    0  0.00000000000E+00  0.00000000000E+00  0.74505805969E-08  0.10566000000E+00  0.10566000000E+00 0. -1.
     999900   -1    0    0    0    0 -0.00000000000E+00 -0.00000000000E+00 -0.74505805969E-08  0.93827000000E+00  0.93827000000E+00 0. -1.
     999902    2    1    2    0    0 -0.22711551190E-01  0.56916346601E-02  0.27878218666E-03  0.10205144713E+01  0.10202458033E+01 0.  0.
     999903    2    3    3    0    0  0.66131186957E-01 -0.10237700015E+00  0.36325865110E-01  0.12873464755E+00  0.19966395665E-01 0.  0.
         14    1    1    2    0    0  0.22711551190E-01 -0.56916346601E-02 -0.27878218666E-03  0.23415528652E-01  0.00000000000E+00 0. -1.
     999901    1    3    3    0    0 -0.88842738147E-01  0.10806863481E+00 -0.36047082923E-01  0.89177982380E+00  0.88000000000E+00 0. -1.
        -11    1    4    4    0    0  0.24248745200E-01 -0.23302470278E-01  0.54397099341E-02  0.34071371120E-01  0.51100000000E-03 0. -1.
         11    1    4    4    0    0  0.41882441757E-01 -0.79074529867E-01  0.30886155176E-01  0.94663276427E-01  0.51100000000E-03 0.  1.
</event>
<event>
 8    1  0.1108957E+005  0.1043930E+01  0.7957747E-01            NaN
         13   -1    0    0    0    0  0.00000000000E+00  0.00000000000E+00  0.74505805969E-08  0.10566000000E+00  0.10566000000E+00 0.  1.
     999900   -1    0    0    0    0 -0.00000000000E+00 -0.00000000000E+00 -0.74505805969E-08  0.93827000000E+00  0.93827000000E+00 0. -1.
     999902    2    1    2    0    0  0.96625821732E-02 -0.84175476522E-02 -0.19731186485E-01  0.10204025623E+01  0.10201312900E+01 0.  0.
     999903    2    3    3    0    0 -0.89946517314E-01 -0.39183740627E-01  0.80652386734E-01  0.12858117153E+00  0.20064114240E-01 0.  0.
         14    1    1    2    0    0 -0.96625821732E-02  0.84175476522E-02  0.19731186485E-01  0.23527437659E-01  0.00000000000E+00 0.  1.
     999901    1    3    3    0    0  0.99609099487E-01  0.30766192975E-01 -0.10038357322E+00  0.89182139081E+00  0.88000000000E+00 0. -1.
        -11    1    4    4    0    0 -0.23743291079E-01 -0.26695944612E-02  0.25831702173E-01  0.35191029596E-01  0.51100000000E-03 0.  1.
         11    1    4    4    0    0 -0.66203226236E-01 -0.36514146166E-01  0.54820684561E-01  0.93390141937E-01  0.51100000000E-03 0. -1.
</event>
<event>
 8    1  0.1108957E+005  0.1043930E+01  0.7957747E-01            NaN
         13   -1    0    0    0    0  0.00000000000E+00  0.00000000000E+00  0.74505805969E-08  0.10566000000E+00  0.10566000000E+00 0.  1.
     999900   -1    0    0    0    0 -0.00000000000E+00 -0.00000000000E+00 -0.74505805969E-08  0.93827000000E+00  0.93827000000E+00 0.  1.
     999902    2    1    2    0    0  0.53411765400E-02 -0.12852768534E-01  0.22749131496E-01  0.10172608266E+01  0.10169111783E+01 0.  0.
     999903    2    3    3    0    0 -0.32817906503E-01 -0.78817742256E-01  0.97015573980E-01  0.13085065188E+00  0.20509022914E-01 0.  0.
         14    1    1    2    0    0 -0.53411765400E-02  0.12852768534E-01 -0.22749131496E-01  0.26669173396E-01  0.00000000000E+00 0. -1.
     999901    1    3    3    0    0  0.38159083043E-01  0.65964973722E-01 -0.74266442484E-01  0.88641017473E+00  0.88000000000E+00 0.  1.
        -11    1    4    4    0    0 -0.15986285036E-01 -0.17554757785E-01  0.20307319100E-01  0.31247066425E-01  0.51100000000E-03 0.  1.
         11    1    4    4    0    0 -0.16831621467E-01 -0.61262984471E-01  0.76708254880E-01  0.99603585454E-01  0.51100000000E-03 0. -1.
</event>
<event>
 8    1  0.1108957E+005  0.1043930E+01  0.7957747E-01            NaN
         13   -1    0    0    0    0  0.00000000000E+00  0.00000000000E+00  0.74505805969E-08  0.10566000000E+00  0.10566000000E+00 0. -1.
     999900   -1    0    0    0    0 -0.00000000000E+00 -0.00000000000E+00 -0.74505805969E-08  0.93827000000E+00  0.93827000000E+00 0. -1.
     999902    2    1    2    0    0 -0.10063353407E-01  0.11484971788E-01  0.18010913227E-01  0.10203171083E+01  0.10200438387E+01 0.  0.
     999903    2    3    3    0    0  0.80000743724E-01 -0.19238083301E-01 -0.95763917092E-01  0.12790455813E+00  0.20460335472E-01 0.  0.
         14    1    1    2    0    0  0.10063353407E-01 -0.11484971788E-01 -0.18010913227E-01  0.23612891692E-01  0.00000000000E+00 0.  1.
     999901    1    3    3    0    0 -0.90064097131E-01  0.30723055089E-01  0.11377483032E+00  0.89241255018E+00  0.88000000000E+00 0.  1.
        -11    1    4    4    0    0  0.27822023360E-01 -0.26561440975E-02 -0.46480062324E-01  0.54238154467E-01  0.51100000000E-03 0.  1.
         11    1    4    4    0    0  0.52178720364E-01 -0.16581939203E-01 -0.49283854767E-01  0.73666403661E-01  0.51100000000E-03 0. -1.
</event>
<event>
 8    1  0.1108957E+005  0.1043930E+01  0.7957747E-01            NaN
         13   -1    0    0    0    0  0.00000000000E+00  0.00000000000E+00  0.74505805969E-08  0.10566000000E+00  0.10566000000E+00 0. -1.
     999900   -1    0    0    0    0 -0.00000000000E+00 -0.00000000000E+00 -0.74505805969E-08  0.93827000000E+00  0.93827000000E+00 0.  1.
     999902    2    1    2    0    0  0.22866693948E-01  0.51881521291E-03 -0.34545945358E-02  0.10207980073E+01  0.10205358802E+01 0.  0.
     999903    2    3    3    0    0 -0.54971188558E-01 -0.11120207564E+00 -0.32696031425E-01  0.12984606978E+00  0.20080791022E-01 0.  0.
         14    1    1    2    0    0 -0.22866693948E-01 -0.51881521291E-03  0.34545945358E-02  0.23131992667E-01  0.00000000000E+00 0.  1.
     999901    1    3    3    0    0  0.77837882506E-01  0.11172089085E+00  0.29241436889E-01  0.89095193756E+00  0.88000000000E+00 0. -1.
        -11    1    4    4    0    0 -0.43565975570E-01 -0.71228309408E-01 -0.15836980701E-01  0.84985512690E-01  0.51100000000E-03 0.  1.
         11    1    4    4    0    0 -0.11405212988E-01 -0.39973766227E-01 -0.16859050724E-01  0.44860557085E-01  0.51100000000E-03 0. -1.
</event>
<event>
 8    1  0.1371954E+005  0.1043930E+01  0.7957747E-01            NaN
         13   -1    0    0    0    0  0.00000000000E+00  0.00000000000E+00  0.74505805969E-08  0.10566000000E+00  0.10566000000E+00 0. -1.
     999900   -1    0    0    0    0 -0.00000000000E+00 -0.00000000000E+00 -0.74505805969E-08  0.93827000000E+00  0.93827000000E+00 0.  1.
     999902    2    1    2    0    0  0.12554930088E-01 -0.19010583284E-01  0.29671667568E-01  0.10065209583E+01  0.10058255331E+01 0.  0.
     999903    2    3    3    0    0 -0.48271237527E-01  0.16985040628E-01  0.10693972169E+00  0.12031225837E+00  0.20501986737E-01 0.  0.
         14    1    1    2    0    0 -0.12554930088E-01  0.19010583284E-01 -0.29671667568E-01  0.37409041722E-01  0.00000000000E+00 0.  1.
     999901    1    3    3    0    0  0.60826167614E-01 -0.35995623912E-01 -0.77268054126E-01  0.88620869991E+00  0.88000000000E+00 0. -1.
        -11    1    4    4    0    0 -0.25670920239E-01  0.10575752206E-02  0.66767451626E-01  0.71542073837E-01  0.51100000000E-03 0. -1.
         11    1    4    4    0    0 -0.22600317287E-01  0.15927465407E-01  0.40172270068E-01  0.48770184531E-01  0.51100000000E-03 0.  1.
</event>
<event>
 8    1  0.1108957E+005  0.1043930E+01  0.7957747E-01            NaN
         13   -1    0    0    0    0  0.00000000000E+00  0.00000000000E+00  0.74505805969E-08  0.10566000000E+00  0.10566000000E+00 0. -1.
     999900   -1    0    0    0    0 -0.00000000000E+00 -0.00000000000E+00 -0.74505805969E-08  0.93827000000E+00  0.93827000000E+00 0. -1.
     999902    2    1    2    0    0 -0.61649626734E-02  0.15213219218E-01 -0.16917242665E-01  0.10203579423E+01  0.10200856281E+01 0.  0.
     999903    2    3    3    0    0  0.64196670537E-01  0.11207164600E+00 -0.21034052564E-01  0.13224237417E+00  0.19087897101E-01 0.  0.
         14    1    1    2    0    0  0.61649626734E-02 -0.15213219218E-01  0.16917242665E-01  0.23572057677E-01  0.00000000000E+00 0.  1.
     999901    1    3    3    0    0 -0.70361633211E-01 -0.96858426777E-01  0.41168098993E-02  0.88811556815E+00  0.88000000000E+00 0. -1.
        -11    1    4    4    0    0  0.12166003010E-01  0.94518060866E-02 -0.40509717097E-02  0.15937997375E-01  0.51100000000E-03 0. -1.
         11    1    4    4    0    0  0.52030667527E-01  0.10261983991E+00 -0.16983080854E-01  0.11630437680E+00  0.51100000000E-03 0.  1.
</event>
<event>
 8    1  0.1108957E+005  0.1043930E+01  0.7957747E-01            NaN
         13   -1    0    0    0    0  0.00000000000E+00  0.00000000000E+00  0.74505805969E-08  0.10566000000E+00  0.10566000000E+00 0.  1.
     999900   -1    0    0    0    0 -0.00000000000E+00 -0.00000000000E+00 -0.74505805969E-08  0.93827000000E+00  0.93827000000E+00 0. -1.
     999902    2    1    2    0    0  0.12885367065E-01 -0.18829792434E-01  0.24056145029E-02  0.10209870109E+01  0.10207291980E+01 0.  0.
     999903    2    3    3    0    0  0.12720262758E+00  0.16560426829E-01 -0.26541641590E-01  0.13241577161E+00  0.19357727976E-01 0.  0.
         14    1    1    2    0    0 -0.12885367065E-01  0.18829792434E-01 -0.24056145029E-02  0.22942989096E-01  0.00000000000E+00 0. -1.
     999901    1    3    3    0    0 -0.11431726051E+00 -0.35390219262E-01  0.28947256093E-01  0.88857123930E+00  0.88000000000E+00 0. -1.
        -11    1    4    4    0    0  0.11285843699E+00  0.12459471801E-01 -0.17291230690E-01  0.11485431214E+00  0.51100000000E-03 0.  1.
         11    1    4    4    0    0  0.14344190587E-01  0.41009550280E-02 -0.92504109006E-02  0.17561459466E-01  0.51100000000E-03 0. -1.
</event>
<event>
 8    1  0.1108957E+005  0.1043930E+01  0.7957747E-01            NaN
         13   -1    0    0    0    0  0.00000000000E+00  0.00000000000E+00  0.74505805969E-08  0.10566000000E+00  0.10566000000E+00 0. -1.
     999900   -1    0    0    0    0 -0.00000000000E+00 -0.00000000000E+00 -0.74505805969E-08  0.93827000000E+00  0.93827000000E+00 0.  1.
     999902    2    1    2    0    0 -0.15307493939E-01 -0.30207662133E-02 -0.19983493060E-01  0.10185768070E+01  0.10182612275E+01 0.  0.
     999903    2    3    3    0    0 -0.96655159593E-02  0.25457073208E-01  0.12196234258E+00  0.12672960065E+00  0.21073535515E-01 0.  0.
         14    1    1    2    0    0  0.15307493939E-01  0.30207662133E-02  0.19983493060E-01  0.25353192976E-01  0.00000000000E+00 0. -1.
     999901    1    3    3    0    0 -0.56419779798E-02 -0.28477839421E-01 -0.14194583564E+00  0.89184720637E+00  0.88000000000E+00 0.  1.
        -11    1    4    4    0    0 -0.49148939776E-02  0.24639660566E-01  0.11744518324E+00  0.12010371036E+00  0.51100000000E-03 0.  1.
         11    1    4    4    0    0 -0.47506219817E-02  0.81741264174E-03  0.45171593399E-02  0.66258902905E-02  0.51100000000E-03 0. -1.
</event>
<event>
 8    1  0.1108957E+005  0.1043930E+01  0.7957747E-01            NaN
         13   -1    0    0    0    0  0.00000000000E+00  0.00000000000E+00  0.74505805969E-08  0.10566000000E+00  0.10566000000E+00 0.  1.
     999900   -1    0    0    0    0 -0.00000000000E+00 -0.00000000000E+00 -0.74505805969E-08  0.93827000000E+00  0.93827000000E+00 0.  1.
     999902    2    1    2    0    0  0.13438583818E-01 -0.21301233146E-01  0.84738209319E-02  0.10173566353E+01  0.10170095279E+01 0.  0.
     999903    2    3    3    0    0 -0.84696867033E-01 -0.73400908716E-01 -0.58298964610E-01  0.12786040274E+00  0.19704330194E-01 0.  0.
         14    1    1    2    0    0 -0.13438583818E-01  0.21301233146E-01 -0.84738209319E-02  0.26573364668E-01  0.00000000000E+00 0. -1.
     999901    1    3    3    0    0  0.98135450852E-01  0.52099675570E-01  0.66772785542E-01  0.88949623259E+00  0.88000000000E+00 0.  1.
        -11    1    4    4    0    0 -0.49898583829E-01 -0.33291737823E-01 -0.23806275911E-01  0.64538425524E-01  0.51100000000E-03 0. -1.
         11    1    4    4    0    0 -0.34798283204E-01 -0.40109170893E-01 -0.34492688699E-01  0.63321977215E-01  0.51100000000E-03 0.  1.
</event>
<event>
 8    1  0.1108957E+005  0.1043930E+01  0.7957747E-01            NaN
         13   -1    0    0    0    0  0.00000000000E+00  0.00000000000E+00  0.74505805969E-08  0.10566000000E+00  0.10566000000E+00 0. -1.
     999900   -1    0    0    0    0 -0.00000000000E+00 -0.00000000000E+00 -0.74505805969E-08  0.93827000000E+00  0.93827000000E+00 0.  1.
     999902    2    1    2    0    0 -0.16462587576E-01 -0.15562559070E-01  0.90900340937E-02  0.10195201914E+01  0.10192279343E+01 0.  0.
     999903    2    3    3    0    0  0.11477083891E+00  0.40400856340E-01 -0.29437140525E-01  0.12719824321E+00  0.22544914658E-01 0.  0.
         14    1    1    2    0    0  0.16462587576E-01  0.15562559070E-01 -0.90900340937E-02  0.24409808568E-01  0.00000000000E+00 0.  1.
     999901    1    3    3    0    0 -0.13123342648E+00 -0.55963415411E-01  0.38527174619E-01  0.89232194822E+00  0.88000000000E+00 0. -1.
        -11    1    4    4    0    0  0.84270625535E-01  0.28078998405E-01 -0.11055772556E-01  0.89512343883E-01  0.51100000000E-03 0.  1.
         11    1    4    4    0    0  0.30500213373E-01  0.12321857935E-01 -0.18381367969E-01  0.37685899329E-01  0.51100000000E-03 0. -1.
</event>
<event>
 8    1  0.1108957E+005  0.1043930E+01  0.7957747E-01            NaN
         13   -1    0    0    0    0  0.00000000000E+00  0.00000000000E+00  0.74505805969E-08  0.10566000000E+00  0.10566000000E+00 0. -1.
     999900   -1    0    0    0    0 -0.00000000000E+00 -0.00000000000E+00 -0.74505805969E-08  0.93827000000E+00  0.93827000000E+00 0.  1.
     999902    2    1    2    0    0  0.10074827331E-01  0.14144208983E-01  0.17452182473E-01  0.10193101002E+01  0.10190127285E+01 0.  0.
     999903    2    3    3    0    0  0.29209244539E-02 -0.50317180615E-01  0.11933373067E+00  0.13106109291E+00  0.19902772007E-01 0.  0.
         14    1    1    2    0    0 -0.10074827331E-01 -0.14144208983E-01 -0.17452182473E-01  0.24619899808E-01  0.00000000000E+00 0.  1.
     999901    1    3    3    0    0  0.71539028769E-02  0.64461389597E-01 -0.10188154820E+00  0.88824900728E+00  0.88000000000E+00 0.  1.
        -11    1    4    4    0    0  0.96562565442E-02 -0.14013196547E-01  0.43537764940E-01  0.46748380345E-01  0.51100000000E-03 0.  1.
         11    1    4    4    0    0 -0.67353320903E-02 -0.36303984068E-01  0.75795965733E-01  0.84312712564E-01  0.51100000000E-03 0. -1.
</event>
<event>
 8    1  0.1108957E+005  0.1043930E+01  0.7957747E-01            NaN
         13   -1    0    0    0    0  0.00000000000E+00  0.00000000000E+00  0.74505805969E-08  0.10566000000E+00  0.10566000000E+00 0. -1.
     999900   -1    0    0    0    0 -0.00000000000E+00 -0.00000000000E+00 -0.74505805969E-08  0.93827000000E+00  0.93827000000E+00 0. -1.
     999902    2    1    2    0    0 -0.24671320095E-02 -0.22696114072E-01  0.58350408014E-02  0.10203662983E+01  0.10200941794E+01 0.  0.
     999903    2    3    3    0    0  0.63713868988E-01 -0.81451355694E-01  0.80918175341E-01  0.13274612034E+00  0.19493612282E-01 0.  0.
         14    1    1    2    0    0  0.24671320095E-02  0.22696114072E-01 -0.58350408014E-02  0.23563701651E-01  0.00000000000E+00 0. -1.
     999901    1    3    3    0    0 -0.66181000998E-01  0.58755241622E-01 -0.75083134540E-01  0.88762017801E+00  0.88000000000E+00 0. -1.
        -11    1    4    4    0    0  0.48832712954E-02 -0.15407257814E-01  0.18031013787E-01  0.24220002293E-01  0.51100000000E-03 0. -1.
         11    1    4    4    0    0  0.58830597693E-01 -0.66044097880E-01  0.62887161554E-01  0.10852611805E+00  0.51100000000E-03 0.  1.
</event>
<event>
 8    1  0.1108957E+005  0.1043930E+01  0.7957747E-01            NaN
         13   -1    0    0    0    0  0.00000000000E+00  0.00000000000E+00  0.74505805969E-08  0.10566000000E+00  0.10566000000E+00 0. -1.
     999900   -1    0    0    0    0 -0.00000000000E+00 -0.00000000000E+00 -0.74505805969E-08  0.93827000000E+00  0.93827000000E+00 0. -1.
     999902    2    1    2    0    0  0.17253809523E-01 -0.16831761333E-01  0.32668165110E-02  0.10196056455E+01  0.10193154556E+01 0.  0.
     999903    2    3    3    0    0 -0.97457706343E-01  0.51945791210E-01  0.60421335084E-01  0.12766634116E+00  0.21250580722E-01 0.  0.
         14    1    1    2    0    0 -0.17253809523E-01  0.16831761333E-01 -0.32668165110E-02  0.24324354518E-01  0.00000000000E+00 0.  1.
     999901    1    3    3    0    0  0.11471151587E+00 -0.68777552543E-01 -0.57154518573E-01  0.89193930432E+00  0.88000000000E+00 0. -1.
        -11    1    4    4    0    0 -0.47051236189E-01  0.13180078132E-01  0.25560708303E-01  0.55146570306E-01  0.51100000000E-03 0.  1.
         11    1    4    4    0    0 -0.50406470153E-01  0.38765713078E-01  0.34860626781E-01  0.72519770851E-01  0.51100000000E-03 0. -1.
</event>
<event>
 8    1  0.1108957E+005  0.1043930E+01  0.7957747E-01            NaN
         13   -1    0    0    0    0  0.00000000000E+00  0.00000000000E+00  0.74505805969E-08  0.10566000000E+00  0.10566000000E+00 0. -1.
     999900   -1    0    0    0    0 -0.00000000000E+00 -0.00000000000E+00 -0.74505805969E-08  0.93827000000E+00  0.93827000000E+00 0.  1.
     999902    2    1    2    0    0  0.23747735228E-01 -0.18647756769E-02  0.37165697781E-02  0.10198209725E+01  0.10195359585E+01 0.  0.
     999903    2    3    3    0    0  0.81127037199E-01 -0.70325750484E-01  0.74983268303E-01  0.13243253911E+00  0.19712421073E-01 0.  0.
         14    1    1    2    0    0 -0.23747735228E-01  0.18647756769E-02 -0.37165697781E-02  0.24109027514E-01  0.00000000000E+00 0.  1.
     999901    1    3    3    0    0 -0.57379301972E-01  0.68460974807E-01 -0.71266698525E-01  0.88738843337E+00  0.88000000000E+00 0.  1.
        -11    1    4    4    0    0  0.17443741077E-01 -0.16035497538E-01  0.27159081095E-01  0.36045777714E-01  0.51100000000E-03 0.  1.
         11    1    4    4    0    0  0.63683296122E-01 -0.54290252945E-01  0.47824187208E-01  0.96386761399E-01  0.51100000000E-03 0. -1.
</event>
<event>
 8    1  0.1108957E+005  0.1043930E+01  0.7957747E-01            NaN
         13   -1    0    0    0    0  0.00000000000E+00  0.00000000000E+00  0.74505805969E-08  0.10566000000E+00  0.10566000000E+00 0.  1.
     999900   -1    0    0    0    0 -0.00000000000E+00 -0.00000000000E+00 -0.74505805969E-08  0.93827000000E+00  0.93827000000E+00 0.  1.
     999902    2    1    2    0    0 -0.18859543616E-02 -0.17316381777E-01 -0.11432022113E-01  0.10230948127E+01  0.10228826378E+01 0.  0.
     999903    2    3    3    0    0 -0.23222174701E-01  0.61442929996E-01  0.11121684030E+00  0.13084988724E+00  0.20928554209E-01 0.  0.
         14    1    1    2    0    0  0.18859543616E-02  0.17316381777E-01  0.11432022113E-01  0.20835187336E-01  0.00000000000E+00 0.  1.
     999901    1    3    3    0    0  0.21336220339E-01 -0.78759311773E-01 -0.12264886241E+00  0.89224492542E+00  0.88000000000E+00 0.  1.
        -11    1    4    4    0    0 -0.22400971028E-01  0.51125932434E-01  0.77043467564E-01  0.95140009909E-01  0.51100000000E-03 0. -1.
         11    1    4    4    0    0 -0.82120367275E-03  0.10316997562E-01  0.34173372734E-01  0.35709877334E-01  0.51100000000E-03 0.  1.
</event>
<event>
 8    1  0.1108957E+005  0.1043930E+01  0.7957747E-01            NaN
         13   -1    0    0    0    0  0.00000000000E+00  0.00000000000E+00  0.74505805969E-08  0.10566000000E+00  0.10566000000E+00 0.  1.
     999900   -1    0    0    0    0 -0.00000000000E+00 -0.00000000000E+00 -0.74505805969E-08  0.93827000000E+00  0.93827000000E+00 0. -1.
     999902    2    1    2    0    0 -0.19500420416E-01 -0.78675753177E-02  0.95983803967E-02  0.10208151986E+01  0.10205534653E+01 0.  0.
     999903    2    3    3    0    0  0.13686562699E-01  0.81201661058E-01  0.10005629802E+00  0.13108639745E+00  0.19782544504E-01 0.  0.
         14    1    1    2    0    0  0.19500420416E-01  0.78675753177E-02 -0.95983803967E-02  0.23114801406E-01  0.00000000000E+00 0.  1.
     999901    1    3    3    0    0 -0.33186983115E-01 -0.89069236375E-01 -0.90457917623E-01  0.88972880114E+00  0.88000000000E+00 0. -1.
        -11    1    4    4    0    0  0.92927739794E-02  0.56317762846E-01  0.54135988467E-01  0.78670276652E-01  0.51100000000E-03 0.  1.
         11    1    4    4    0    0  0.43937887194E-02  0.24883898212E-01  0.45920309553E-01  0.52416120803E-01  0.51100000000E-03 0. -1.
</event>
<event>
 8    1  0.1108957E+005  0.1043930E+01  0.7957747E-01            NaN
         13   -1    0    0    0    0  0.00000000000E+00  0.00000000000E+00  0.74505805969E-08  0.10566000000E+00  0.10566000000E+00 0.  1.
     999900   -1    0    0    0    0 -0.00000000000E+00 -0.00000000000E+00 -0.74505805969E-08  0.93827000000E+00  0.93827000000E+00 0. -1.
     999902    2    1    2    0    0 -0.15759426908E-01 -0.25160813687E-02 -0.17058348248E-01  0.10205702601E+01  0.10203028856E+01 0.  0.
     999903    2    3    3    0    0 -0.53903625930E-01  0.36933928812E-01 -0.11460910238E+00  0.13348095636E+00  0.20302792373E-01 0.  0.
         14    1    1    2    0    0  0.15759426908E-01  0.25160813687E-02  0.17058348248E-01  0.23359739872E-01  0.00000000000E+00 0.  1.
     999901    1    3    3    0    0  0.38144199021E-01 -0.39450010181E-01  0.97550754129E-01  0.88708930376E+00  0.88000000000E+00 0.  1.
        -11    1    4    4    0    0 -0.50653513325E-01  0.25949231352E-01 -0.97091532885E-01  0.11254407092E+00  0.51100000000E-03 0. -1.
         11    1    4    4    0    0 -0.32501126050E-02  0.10984697460E-01 -0.17517569492E-01  0.20936885445E-01  0.51100000000E-03 0.  1.
</event>
<event>
 8    1  0.1108957E+005  0.1043930E+01  0.7957747E-01            NaN
         13   -1    0    0    0    0  0.00000000000E+00  0.00000000000E+00  0.74505805969E-08  0.10566000000E+00  0.10566000000E+00 0. -1.
     999900   -1    0    0    0    0 -0.00000000000E+00 -0.00000000000E+00 -0.74505805969E-08  0.93827000000E+00  0.93827000000E+00 0. -1.
     999902    2    1    2    0    0  0.24119694812E-01  0.10695855245E-02 -0.10463112370E-02  0.10197639400E+01  0.10194775597E+01 0.  0.
     999903    2    3    3    0    0  0.10360288545E+00 -0.44207223472E-01 -0.66919146820E-01  0.13257354466E+00  0.20241937968E-01 0.  0.
         14    1    1    2    0    0 -0.24119694812E-01 -0.10695855245E-02  0.10463112370E-02  0.24166060048E-01  0.00000000000E+00 0. -1.
     999901    1    3    3    0    0 -0.79483190637E-01  0.45276808997E-01  0.65872835583E-01  0.88719039529E+00  0.88000000000E+00 0.  1.
        -11    1    4    4    0    0  0.57591219275E-01 -0.33239639131E-01 -0.32117498810E-01  0.73847254505E-01  0.51100000000E-03 0.  1.
         11    1    4    4    0    0  0.46011666174E-01 -0.10967584341E-01 -0.34801648010E-01  0.58726290158E-01  0.51100000000E-03 0. -1.
</event>
<event>
 8    1  0.1108957E+005  0.1043930E+01  0.7957747E-01            NaN
         13   -1    0    0    0    0  0.00000000000E+00  0.00000000000E+00  0.74505805969E-08  0.10566000000E+00  0.10566000000E+00 0.  1.
     999900   -1    0    0    0    0 -0.00000000000E+00 -0.00000000000E+00 -0.74505805969E-08  0.93827000000E+00  0.93827000000E+00 0.  1.
     999902    2    1    2    0    0  0.21873336808E-01 -0.77921661697E-02 -0.28118331773E-02  0.10205405339E+01  0.10202724706E+01 0.  0.
     999903    2    3    3    0    0 -0.92051665580E-01  0.12955421897E-01 -0.87046800443E-01  0.12896614092E+00  0.20341286679E-01 0.  0.
         14    1    1    2    0    0 -0.21873336808E-01  0.77921661697E-02  0.28118331773E-02  0.23389466059E-01  0.00000000000E+00 0. -1.
     999901    1    3    3    0    0  0.11392500239E+00 -0.20747588066E-01  0.84234967266E-01  0.89157439302E+00  0.88000000000E+00 0. -1.
        -11    1    4    4    0    0 -0.46670115172E-01 -0.19905441808E-02 -0.50625412006E-01  0.68885814056E-01  0.51100000000E-03 0.  1.
         11    1    4    4    0    0 -0.45381550408E-01  0.14945966077E-01 -0.36421388437E-01  0.60080326864E-01  0.51100000000E-03 0. -1.
</event>
<event>
 8    1  0.1108957E+005  0.1043930E+01  0.7957747E-01            NaN
         13   -1    0    0    0    0  0.00000000000E+00  0.00000000000E+00  0.74505805969E-08  0.10566000000E+00  0.10566000000E+00 0.  1.
     999900   -1    0    0    0    0 -0.00000000000E+00 -0.00000000000E+00 -0.74505805969E-08  0.93827000000E+00  0.93827000000E+00 0. -1.
     999902    2    1    2    0    0 -0.14820769495E-01 -0.82394859499E-02  0.16971462953E-01  0.10199388581E+01  0.10196566575E+01 0.  0.
     999903    2    3    3    0    0 -0.65168667730E-01  0.18542720833E-01 -0.10847973331E+00  0.12921432145E+00  0.18376631389E-01 0.  0.
         14    1    1    2    0    0  0.14820769495E-01  0.82394859499E-02 -0.16971462953E-01  0.23991141947E-01  0.00000000000E+00 0. -1.
     999901    1    3    3    0    0  0.50347898235E-01 -0.26782206783E-01  0.12545119626E+00  0.89072453660E+00  0.88000000000E+00 0.  1.
        -11    1    4    4    0    0 -0.16380949132E-01  0.12500858707E-01 -0.38821673357E-01  0.43954412817E-01  0.51100000000E-03 0.  1.
         11    1    4    4    0    0 -0.48787718598E-01  0.60418621262E-02 -0.69658059948E-01  0.85259908637E-01  0.51100000000E-03 0. -1.
</event>
<event>
 8    1  0.1108957E+005  0.1043930E+01  0.7957747E-01            NaN
         13   -1    0    0    0    0  0.00000000000E+00  0.00000000000E+00  0.74505805969E-08  0.10566000000E+00  0.10566000000E+00 0. -1.
     999900   -1    0    0    0    0 -0.00000000000E+00 -0.00000000000E+00 -0.74505805969E-08  0.93827000000E+00  0.93827000000E+00 0. -1.
     999902    2    1    2    0    0 -0.18750222468E-01  0.12559940662E-01 -0.61069524626E-02  0.10205501407E+01  0.10202823001E+01 0.  0.
     999903    2    3    3    0    0  0.85562801986E-01 -0.89877263884E-01 -0.25957206215E-01  0.12826732651E+00  0.19488839068E-01 0.  0.
         14    1    1    2    0    0  0.18750222468E-01 -0.12559940662E-01  0.61069524626E-02  0.23379859290E-01  0.00000000000E+00 0.  1.
     999901    1    3    3    0    0 -0.10431302445E+00  0.10243720455E+00  0.19850253752E-01  0.89228281420E+00  0.88000000000E+00 0.  1.
        -11    1    4    4    0    0  0.67917775955E-01 -0.58643978061E-01 -0.18931051235E-01  0.91709248581E-01  0.51100000000E-03 0.  1.
         11    1    4    4    0    0  0.17645026031E-01 -0.31233285823E-01 -0.70261549791E-02  0.36558077927E-01  0.51100000000E-03 0. -1.
</event>
<event>
 8    1  0.1108957E+005  0.1043930E+01  0.7957747E-01            NaN
         13   -1    0    0    0    0  0.00000000000E+00  0.00000000000E+00  0.74505805969E-08  0.10566000000E+00  0.10566000000E+00 0. -1.
     999900   -1    0    0    0    0 -0.00000000000E+00 -0.00000000000E+00 -0.74505805969E-08  0.93827000000E+00  0.93827000000E+00 0. -1.
     999902    2    1    2    0    0 -0.18760496822E-01 -0.39041968817E-02 -0.11046113888E-01  0.10218117807E+01  0.10215723663E+01 0.  0.
     999903    2    3    3    0    0  0.73770541883E-01  0.88668806234E-01  0.57397376004E-01  0.12950226860E+00  0.13119784702E-01 0.  0.
         14    1    1    2    0    0  0.18760496822E-01  0.39041968817E-02  0.11046113888E-01  0.22118219330E-01  0.00000000000E+00 0. -1.
     999901    1    3    3    0    0 -0.92531038705E-01 -0.92573003116E-01 -0.68443489892E-01  0.89230951207E+00  0.88000000000E+00 0. -1.
        -11    1    4    4    0    0  0.54632396492E-02  0.83960669097E-02  0.13395908320E-02  0.10119118124E-01  0.51100000000E-03 0.  1.
         11    1    4    4    0    0  0.68307302233E-01  0.80272739324E-01  0.56057785172E-01  0.11938315047E+00  0.51100000000E-03 0. -1.
</event>
<event>
 8    1  0.1108957E+005  0.1043930E+01  0.7957747E-01            NaN
         13   -1    0    0    0    0  0.00000000000E+00  0.00000000000E+00  0.74505805969E-08  0.10566000000E+00  0.10566000000E+00 0.  1.
     999900   -1    0    0    0    0 -0.00000000000E+00 -0.00000000000E+00 -0.74505805969E-08  0.93827000000E+00  0.93827000000E+00 0.  1.
     999902    2    1    2    0    0 -0.99699814092E-02  0.16182833067E-01 -0.25589919028E-02  0.10247510257E+01  0.10245715356E+01 0.  0.
     999903    2    3    3    0    0  0.66843713886E-01  0.11643469974E+00 -0.57364379667E-02  0.13572859814E+00  0.19084659849E-01 0.  0.
         14    1    1    2    0    0  0.99699814092E-02 -0.16182833067E-01  0.25589919028E-02  0.19178974293E-01  0.00000000000E+00 0. -1.
     999901    1    3    3    0    0 -0.76813695295E-01 -0.10025186668E+00  0.31774460640E-02  0.88902242757E+00  0.88000000000E+00 0. -1.
        -11    1    4    4    0    0  0.38210779368E-01  0.74460751739E-01 -0.11928836870E-01  0.84540082089E-01  0.51100000000E-03 0.  1.
         11    1    4    4    0    0  0.28632934518E-01  0.41973948004E-01  0.61923989028E-02  0.51188516050E-01  0.51100000000E-03 0. -1.
</event>
<event>
 8    1  0.1108957E+005  0.1043930E+01  0.7957747E-01            NaN
         13   -1    0    0    0    0  0.00000000000E+00  0.00000000000E+00  0.74505805969E-08  0.10566000000E+00  0.10566000000E+00 0. -1.
     999900   -1    0    0    0    0 -0.00000000000E+00 -0.00000000000E+00 -0.74505805969E-08  0.93827000000E+00  0.93827000000E+00 0.  1.
     999902    2    1    2    0    0 -0.56786808639E-02  0.19723955893E-01  0.12207244307E-01  0.10200490732E+01  0.10197694901E+01 0.  0.
     999903    2    3    3    0    0  0.99328950994E-01 -0.42699319649E-01  0.68869952047E-01  0.12980532536E+00  0.20417634357E-01 0.  0.
         14    1    1    2    0    0  0.56786808639E-02 -0.19723955893E-01 -0.12207244307E-01  0.23880926824E-01  0.00000000000E+00 0. -1.
     999901    1    3    3    0    0 -0.10500763186E+00  0.62423275542E-01 -0.56662707740E-01  0.89024374782E+00  0.88000000000E+00 0.  1.
        -11    1    4    4    0    0  0.61133372810E-01 -0.16650223369E-01  0.34104289341E-01  0.71957507473E-01  0.51100000000E-03 0.  1.
         11    1    4    4    0    0  0.38195578184E-01 -0.26049096279E-01  0.34765662706E-01  0.57847817886E-01  0.51100000000E-03 0. -1.
</event>
<event>
 8    1  0.1108957E+005  0.1043930E+01  0.7957747E-01            NaN
         13   -1    0    0    0    0  0.00000000000E+00  0.00000000000E+00  0.74505805969E-08  0.10566000000E+00  0.10566000000E+00 0.  1.
     999900   -1    0    0    0    0 -0.00000000000E+00 -0.00000000000E+00 -0.74505805969E-08  0.93827000000E+00  0.93827000000E+00 0. -1.
     999902    2    1    2    0    0 -0.20644539966E-01  0.83052492130E-02 -0.62284847406E-02  0.10208222477E+01  0.10205606759E+01 0.  0.
     999903    2    3    3    0    0 -0.93535489345E-01 -0.10712447149E-01 -0.92277453719E-01  0.13342200634E+00  0.20558672623E-01 0.  0.
         14    1    1    2    0    0  0.20644539966E-01 -0.83052492130E-02  0.62284847406E-02  0.23107752315E-01  0.00000000000E+00 0. -1.
     999901    1    3    3    0    0  0.72890949379E-01  0.19017696362E-01  0.86048968978E-01  0.88740024134E+00  0.88000000000E+00 0.  1.
        -11    1    4    4    0    0 -0.62737489599E-01 -0.13316502779E-01 -0.51515160858E-01  0.82264176691E-01  0.51100000000E-03 0.  1.
         11    1    4    4    0    0 -0.30797999746E-01  0.26040556308E-02 -0.40762292861E-01  0.51157829649E-01  0.51100000000E-03 0. -1.
</event>
<event>
 8    1  0.1108957E+005  0.1043930E+01  0.7957747E-01            NaN
         13   -1    0    0    0    0  0.00000000000E+00  0.00000000000E+00  0.74505805969E-08  0.10566000000E+00  0.10566000000E+00 0. -1.
     999900   -1    0    0    0    0 -0.00000000000E+00 -0.00000000000E+00 -0.74505805969E-08  0.93827000000E+00  0.93827000000E+00 0.  1.
     999902    2    1    2    0    0  0.28316993171E-02 -0.14689162061E-01  0.18298297758E-01  0.10202949052E+01  0.10200211155E+01 0.  0.
     999903    2    3    3    0    0 -0.51537075101E-01 -0.64817268140E-01  0.10244983782E+00  0.13319272830E+00  0.19671940535E-01 0.  0.
         14    1    1    2    0    0 -0.28316993171E-02  0.14689162061E-01 -0.18298297758E-01  0.23635094752E-01  0.00000000000E+00 0.  1.
     999901    1    3    3    0    0  0.54368774418E-01  0.50128106079E-01 -0.84151540058E-01  0.88710217695E+00  0.88000000000E+00 0.  1.
        -11    1    4    4    0    0 -0.17062730463E-01 -0.13106366110E-01  0.37909092807E-01  0.43592132798E-01  0.51100000000E-03 0. -1.
         11    1    4    4    0    0 -0.34474344638E-01 -0.51710902030E-01  0.64540745010E-01  0.89600595503E-01  0.51100000000E-03 0.  1.
</event>
<event>
 8    1  0.1108957E+005  0.1043930E+01  0.7957747E-01            NaN
         13   -1    0    0    0    0  0.00000000000E+00  0.00000000000E+00  0.74505805969E-08  0.10566000000E+00  0.10566000000E+00 0. -1.
     999900   -1    0    0    0    0 -0.00000000000E+00 -0.00000000000E+00 -0.74505805969E-08  0.93827000000E+00  0.93827000000E+00 0. -1.
     999902    2    1    2    0    0  0.32098342405E-02 -0.23201388619E-01  0.47901669063E-02  0.10200228218E+01  0.10197426165E+01 0.  0.
     999903    2    3    3    0    0 -0.32546605644E-01  0.10050728651E+00  0.69889364321E-01  0.12827158700E+00  0.20201005072E-01 0.  0.
         14    1    1    2    0    0 -0.32098342405E-02  0.23201388619E-01 -0.47901669063E-02  0.23907178184E-01  0.00000000000E+00 0.  1.
     999901    1    3    3    0    0  0.35756439884E-01 -0.12370867513E+00 -0.65099197415E-01  0.89175123482E+00  0.88000000000E+00 0. -1.
        -11    1    4    4    0    0 -0.12534076139E-01  0.53541769940E-01  0.25490570010E-01  0.60612329384E-01  0.51100000000E-03 0. -1.
         11    1    4    4    0    0 -0.20012529505E-01  0.46965516567E-01  0.44398794311E-01  0.67659257614E-01  0.51100000000E-03 0.  1.
</event>
<event>
 8    1  0.1108957E+005  0.1043930E+01  0.7957747E-01            NaN
         13   -1    0    0    0    0  0.00000000000E+00  0.00000000000E+00  0.74505805969E-08  0.10566000000E+00  0.10566000000E+00 0. -1.
     999900   -1    0    0    0    0 -0.00000000000E+00 -0.00000000000E+00 -0.74505805969E-08  0.93827000000E+00  0.93827000000E+00 0. -1.
     999902    2    1    2    0    0 -0.13488230883E-01 -0.94204578365E-02 -0.19333933515E-01  0.10185434212E+01  0.10182269995E+01 0.  0.
     999903    2    3    3    0    0  0.11691559376E+00  0.30412508663E-01  0.29685339283E-01  0.12669438027E+00  0.24001455694E-01 0.  0.
         14    1    1    2    0    0  0.13488230883E-01  0.94204578365E-02  0.19333933515E-01  0.25386578804E-01  0.00000000000E+00 0. -1.
     999901    1    3    3    0    0 -0.13040382464E+00 -0.39832966499E-01 -0.49019272799E-01  0.89184904093E+00  0.88000000000E+00 0. -1.
        -11    1    4    4    0    0  0.60226038133E-01  0.43213440741E-02  0.96484080326E-02  0.61149019472E-01  0.51100000000E-03 0.  1.
         11    1    4    4    0    0  0.56689555626E-01  0.26091164589E-01  0.20036931251E-01  0.65545360794E-01  0.51100000000E-03 0. -1.
</event>
<event>
 8    1  0.1108957E+005  0.1043930E+01  0.7957747E-01            NaN
         13   -1    0    0    0    0  0.00000000000E+00  0.00000000000E+00  0.74505805969E-08  0.10566000000E+00  0.10566000000E+00 0.  1.
     999900   -1    0    0    0    0 -0.00000000000E+00 -0.00000000000E+00 -0.74505805969E-08  0.93827000000E+00  0.93827000000E+00 0. -1.
     999902    2    1    2    0    0 -0.44014471924E-02 -0.15153245190E-01 -0.17694949068E-01  0.10202212506E+01  0.10199457316E+01 0.  0.
     999903    2    3    3    0    0 -0.16920356963E-01  0.10652416115E+00  0.65440700958E-01  0.12787958359E+00  0.20904716440E-01 0.  0.
         14    1    1    2    0    0  0.44014471924E-02  0.15153245190E-01  0.17694949068E-01  0.23708749433E-01  0.00000000000E+00 0.  1.
     999901    1    3    3    0    0  0.12518909770E-01 -0.12167740634E+00 -0.83135650025E-01  0.89234166698E+00  0.88000000000E+00 0. -1.
        -11    1    4    4    0    0  0.40821827750E-02  0.12022709384E-01  0.11039951167E-01  0.16833044879E-01  0.51100000000E-03 0. -1.
         11    1    4    4    0    0 -0.21002539738E-01  0.94501451765E-01  0.54400749791E-01  0.11104653871E+00  0.51100000000E-03 0.  1.
</event>
<event>
 8    1  0.1108957E+005  0.1043930E+01  0.7957747E-01            NaN
         13   -1    0    0    0    0  0.00000000000E+00  0.00000000000E+00  0.74505805969E-08  0.10566000000E+00  0.10566000000E+00 0.  1.
     999900   -1    0    0    0    0 -0.00000000000E+00 -0.00000000000E+00 -0.74505805969E-08  0.93827000000E+00  0.93827000000E+00 0. -1.
     999902    2    1    2    0    0  0.25731179047E-01  0.85051611725E-02  0.20263221997E-02  0.10167539568E+01  0.10163907080E+01 0.  0.
     999903    2    3    3    0    0  0.95768954869E-01 -0.25114632844E-01 -0.80977246403E-01  0.12944049867E+00  0.19876890155E-01 0.  0.
         14    1    1    2    0    0 -0.25731179047E-01 -0.85051611725E-02 -0.20263221997E-02  0.27176043189E-01  0.00000000000E+00 0.  1.
     999901    1    3    3    0    0 -0.70037775822E-01  0.33619794016E-01  0.83003568603E-01  0.88731345814E+00  0.88000000000E+00 0.  1.
        -11    1    4    4    0    0  0.61268320371E-01 -0.25644183195E-01 -0.51273510157E-01  0.83908671647E-01  0.51100000000E-03 0. -1.
         11    1    4    4    0    0  0.34500634498E-01  0.52955035137E-03 -0.29703736247E-01  0.45531827026E-01  0.51100000000E-03 0.  1.
</event>
<event>
 8    1  0.1108957E+005  0.1043930E+01  0.7957747E-01            NaN
         13   -1    0    0    0    0  0.00000000000E+00  0.00000000000E+00  0.74505805969E-08  0.10566000000E+00  0.10566000000E+00 0. -1.
     999900   -1    0    0    0    0 -0.00000000000E+00 -0.00000000000E+00 -0.74505805969E-08  0.93827000000E+00  0.93827000000E+00 0.  1.
     999902    2    1    2    0    0 -0.19112984375E-01  0.77025358008E-02  0.13349191630E-01  0.10193772782E+01  0.10190815469E+01 0.  0.
     999903    2    3    3    0    0 -0.12247311032E-02 -0.12314614902E+00 -0.31266351852E-01  0.12840482374E+00  0.18540226969E-01 0.  0.
         14    1    1    2    0    0  0.19112984375E-01 -0.77025358008E-02 -0.13349191630E-01  0.24552721777E-01  0.00000000000E+00 0. -1.
     999901    1    3    3    0    0 -0.17888253271E-01  0.13084868483E+00  0.44615543482E-01  0.89097245448E+00  0.88000000000E+00 0.  1.
        -11    1    4    4    0    0 -0.28228386959E-02 -0.60539842196E-01 -0.61188974446E-02  0.60915867706E-01  0.51100000000E-03 0.  1.
         11    1    4    4    0    0  0.15981075927E-02 -0.62606306828E-01 -0.25147454407E-01  0.67488956035E-01  0.51100000000E-03 0. -1.
</event>
<event>
 8    1  0.1108957E+005  0.1043930E+01  0.7957747E-01            NaN
         13   -1    0    0    0    0  0.00000000000E+00  0.00000000000E+00  0.74505805969E-08  0.10566000000E+00  0.10566000000E+00 0. -1.
     999900   -1    0    0    0    0 -0.00000000000E+00 -0.00000000000E+00 -0.74505805969E-08  0.93827000000E+00  0.93827000000E+00 0.  1.
     999902    2    1    2    0    0  0.57027133469E-02 -0.54237003437E-02  0.21729472863E-01  0.10208192351E+01  0.10205575943E+01 0.  0.
     999903    2    3    3    0    0  0.54534767488E-01 -0.72348633594E-01 -0.91113875555E-01  0.12975406490E+00  0.18055840916E-01 0.  0.
         14    1    1    2    0    0 -0.57027133469E-02  0.54237003437E-02 -0.21729472863E-01  0.23110764934E-01  0.00000000000E+00 0.  1.
     999901    1    3    3    0    0 -0.48832054141E-01  0.66924933251E-01  0.11284334842E+00  0.89106517017E+00  0.88000000000E+00 0. -1.
        -11    1    4    4    0    0  0.29505986516E-01 -0.35434308818E-01 -0.34025372564E-01  0.57307770685E-01  0.51100000000E-03 0.  1.
         11    1    4    4    0    0  0.25028780971E-01 -0.36914324776E-01 -0.57088502991E-01  0.72446294214E-01  0.51100000000E-03 0. -1.
</event>
<event>
 8    1  0.1108957E+005  0.1043930E+01  0.7957747E-01            NaN
         13   -1    0    0    0    0  0.00000000000E+00  0.00000000000E+00  0.74505805969E-08  0.10566000000E+00  0.10566000000E+00 0.  1.
     999900   -1    0    0    0    0 -0.00000000000E+00 -0.00000000000E+00 -0.74505805969E-08  0.93827000000E+00  0.93827000000E+00 0. -1.
     999902    2    1    2    0    0 -0.12133970645E-01 -0.13884797133E-01  0.14455273987E-01  0.10204997678E+01  0.10202307584E+01 0.  0.
     999903    2    3    3    0    0 -0.12477302186E+00  0.41447355534E-02 -0.36973493754E-01  0.13164795897E+00  0.19459189181E-01 0.  0.
         14    1    1    2    0    0  0.12133970645E-01  0.13884797133E-01 -0.14455273987E-01  0.23430232202E-01  0.00000000000E+00 0. -1.
     999901    1    3    3    0    0  0.11263905121E+00 -0.18029532686E-01  0.51428767740E-01  0.88885180883E+00  0.88000000000E+00 0.  1.
        -11    1    4    4    0    0 -0.79889241975E-01  0.11040580864E-01 -0.27880448596E-01  0.85333263995E-01  0.51100000000E-03 0. -1.
         11    1    4    4    0    0 -0.44883779885E-01 -0.68958453109E-02 -0.90930451580E-02  0.46314694974E-01  0.51100000000E-03 0.  1.
</event>
<event>
 8    1  0.1108957E+005  0.1043930E+01  0.7957747E-01            NaN
         13   -1    0    0    0    0  0.00000000000E+00  0.00000000000E+00  0.74505805969E-08  0.10566000000E+00  0.10566000000E+00 0. -1.
     999900   -1    0    0    0    0 -0.00000000000E+00 -0.00000000000E+00 -0.74505805969E-08  0.93827000000E+00  0.93827000000E+00 0. -1.
     999902    2    1    2    0    0  0.25434137124E-02 -0.20096094768E-01 -0.12032960683E-01  0.10203691401E+01  0.10200970875E+01 0.  0.
     999903    2    3    3    0    0  0.12819507783E+00 -0.12166934435E-01  0.12959168199E-01  0.13105714825E+00  0.20640343806E-01 0.  0.
         14    1    1    2    0    0 -0.25434137124E-02  0.20096094768E-01  0.12032960683E-01  0.23560859938E-01  0.00000000000E+00 0.  1.
     999901    1    3    3    0    0 -0.12565166412E+00 -0.79291603330E-02 -0.24992128882E-01  0.88931199181E+00  0.88000000000E+00 0. -1.
        -11    1    4    4    0    0  0.61053193055E-01 -0.13146250522E-01 -0.10364244651E-02  0.62463201820E-01  0.51100000000E-03 0.  1.
         11    1    4    4    0    0  0.67141884777E-01  0.97931608708E-03  0.13995592664E-01  0.68593946427E-01  0.51100000000E-03 0. -1.
</event>
<event>
 8    1  0.1108957E+005  0.1043930E+01  0.7957747E-01            NaN
         13   -1    0    0    0    0  0.00000000000E+00  0.00000000000E+00  0.74505805969E-08  0.10566000000E+00  0.10566000000E+00 0. -1.
     999900   -1    0    0    0    0 -0.00000000000E+00 -0.00000000000E+00 -0.74505805969E-08  0.93827000000E+00  0.93827000000E+00 0. -1.
     999902    2    1    2    0    0  0.16709365932E-01  0.65762692900E-02  0.14833893526E-01  0.10206384860E+01  0.10203726890E+01 0.  0.
     999903    2    3    3    0    0  0.62518904399E-01 -0.11297505292E-01 -0.11090056514E+00  0.13034238933E+00  0.25572564887E-01 0.  0.
         14    1    1    2    0    0 -0.16709365932E-01 -0.65762692900E-02 -0.14833893526E-01  0.23291514008E-01  0.00000000000E+00 0.  1.
     999901    1    3    3    0    0 -0.45809538467E-01  0.17873774582E-01  0.12573445867E+00  0.89029609666E+00  0.88000000000E+00 0.  1.
        -11    1    4    4    0    0  0.33013680808E-01  0.40352718559E-02 -0.39951425593E-01  0.51986191122E-01  0.51100000000E-03 0.  1.
         11    1    4    4    0    0  0.29505223591E-01 -0.15332777148E-01 -0.70949139548E-01  0.78356198210E-01  0.51100000000E-03 0. -1.
</event>
<event>
 8    1  0.1108957E+005  0.1043930E+01  0.7957747E-01            NaN
         13   -1    0    0    0    0  0.00000000000E+00  0.00000000000E+00  0.74505805969E-08  0.10566000000E+00  0.10566000000E+00 0.  1.
     999900   -1    0    0    0    0 -0.00000000000E+00 -0.00000000000E+00 -0.74505805969E-08  0.93827000000E+00  0.93827000000E+00 0. -1.
     999902    2    1    2    0    0 -0.22836419693E-01 -0.17572479674E-01 -0.55524938369E-02  0.10145850806E+01  0.10141606192E+01 0.  0.
     999903    2    3    3    0    0 -0.11098769325E+00 -0.61264511480E-01 -0.96618684610E-02  0.12909282901E+00  0.22360643576E-01 0.  0.
         14    1    1    2    0    0  0.22836419693E-01  0.17572479674E-01  0.55524938369E-02  0.29344919391E-01  0.00000000000E+00 0. -1.
     999901    1    3    3    0    0  0.88151273557E-01  0.43692031806E-01  0.41093746241E-02  0.88549225159E+00  0.88000000000E+00 0.  1.
        -11    1    4    4    0    0 -0.70870243610E-01 -0.26583157657E-01 -0.51511042237E-02  0.75868641059E-01  0.51100000000E-03 0.  1.
         11    1    4    4    0    0 -0.40117449639E-01 -0.34681353823E-01 -0.45107642373E-02  0.53224187956E-01  0.51100000000E-03 0. -1.
</event>
<event>
 8    1  0.1172751E+005  0.1043930E+01  0.7957747E-01            NaN
         13   -1    0    0    0    0  0.00000000000E+00  0.00000000000E+00  0.74505805969E-08  0.10566000000E+00  0.10566000000E+00 0. -1.
     999900   -1    0    0    0    0 -0.00000000000E+00 -0.00000000000E+00 -0.74505805969E-08  0.93827000000E+00  0.93827000000E+00 0.  1.
     999902    2    1    2    0    0  0.82475159562E-02  0.37484710574E-02  0.21682352333E-01  0.10204311286E+01  0.10201605223E+01 0.  0.
     999903    2    3    3    0    0  0.14353473530E-02 -0.53493573884E-01 -0.11461220193E+00  0.12807511059E+00  0.20091153556E-01 0.  0.
         14    1    1    2    0    0 -0.82475159562E-02 -0.37484710574E-02 -0.21682352333E-01  0.23498871407E-01  0.00000000000E+00 0.  1.
     999901    1    3    3    0    0  0.68121686031E-02  0.57242044941E-01  0.13629455426E+00  0.89235601801E+00  0.88000000000E+00 0. -1.
        -11    1    4    4    0    0  0.10363287247E-01 -0.36601280114E-01 -0.76925410412E-01  0.85818595401E-01  0.51100000000E-03 0.  1.
         11    1    4    4    0    0 -0.89279398944E-02 -0.16892293770E-01 -0.37686791519E-01  0.42256515185E-01  0.51100000000E-03 0. -1.
</event>
<event>
 8    1  0.1108957E+005  0.1043930E+01  0.7957747E-01            NaN
         13   -1    0    0    0    0  0.00000000000E+00  0.00000000000E+00  0.74505805969E-08  0.10566000000E+00  0.10566000000E+00 0.  1.
     999900   -1    0    0    0    0 -0.00000000000E+00 -0.00000000000E+00 -0.74505805969E-08  0.93827000000E+00  0.93827000000E+00 0. -1.
     999902    2    1    2    0    0  0.12840738298E-01 -0.17671561334E-01 -0.10870882818E-01  0.10195303128E+01  0.10192383009E+01 0.  0.
     999903    2    3    3    0    0 -0.30031724830E-01  0.12156057884E+00  0.11768972212E-01  0.12726566601E+00  0.19472088095E-01 0.  0.
         14    1    1    2    0    0 -0.12840738298E-01  0.17671561334E-01  0.10870882818E-01  0.24399687154E-01  0.00000000000E+00 0.  1.
     999901    1    3    3    0    0  0.42872463128E-01 -0.13923214017E+00 -0.22639855030E-01  0.89226464683E+00  0.88000000000E+00 0. -1.
        -11    1    4    4    0    0 -0.91160998855E-02  0.76095030595E-01  0.57406162658E-02  0.76855531710E-01  0.51100000000E-03 0. -1.
         11    1    4    4    0    0 -0.20915624945E-01  0.45465548245E-01  0.60283559466E-02  0.50410134303E-01  0.51100000000E-03 0.  1.
</event>
<event>
 8    1  0.1108957E+005  0.1043930E+01  0.7957747E-01            NaN
         13   -1    0    0    0    0  0.00000000000E+00  0.00000000000E+00  0.74505805969E-08  0.10566000000E+00  0.10566000000E+00 0.  1.
     999900   -1    0    0    0    0 -0.00000000000E+00 -0.00000000000E+00 -0.74505805969E-08  0.93827000000E+00  0.93827000000E+00 0. -1.
     999902    2    1    2    0    0  0.36917041460E-02 -0.16099246181E-01 -0.16204367420E-01  0.10207913758E+01  0.10205290966E+01 0.  0.
     999903    2    3    3    0    0  0.64933398603E-01 -0.81377989761E-01  0.77989996347E-01  0.13124967487E+00  0.17473241004E-01 0.  0.
         14    1    1    2    0    0 -0.36917041460E-02  0.16099246181E-01  0.16204367420E-01  0.23138624215E-01  0.00000000000E+00 0.  1.
     999901    1    3    3    0    0 -0.61241694457E-01  0.65278743580E-01 -0.94194363767E-01  0.88954170092E+00  0.88000000000E+00 0. -1.
        -11    1    4    4    0    0  0.55667720009E-01 -0.71763369004E-01  0.60054874051E-01  0.10888399882E+00  0.51100000000E-03 0. -1.
         11    1    4    4    0    0  0.92656785941E-02 -0.96146207571E-02  0.17935122297E-01  0.22365676044E-01  0.51100000000E-03 0.  1.
</event>
<event>
 8    1  0.1108957E+005  0.1043930E+01  0.7957747E-01            NaN
         13   -1    0    0    0    0  0.00000000000E+00  0.00000000000E+00  0.74505805969E-08  0.10566000000E+00  0.10566000000E+00 0. -1.
     999900   -1    0    0    0    0 -0.00000000000E+00 -0.00000000000E+00 -0.74505805969E-08  0.93827000000E+00  0.93827000000E+00 0.  1.
     999902    2    1    2    0    0 -0.12957550974E-01  0.17083600506E-01 -0.82125214526E-02  0.10209693153E+01  0.10207111000E+01 0.  0.
     999903    2    3    3    0    0 -0.12860387626E+00 -0.11333817115E-01  0.21585689440E-01  0.13244832199E+00  0.20228781679E-01 0.  0.
         14    1    1    2    0    0  0.12957550974E-01 -0.17083600506E-01  0.82125214526E-02  0.22960684704E-01  0.00000000000E+00 0. -1.
     999901    1    3    3    0    0  0.11564632529E+00  0.28417417621E-01 -0.29798210892E-01  0.88852099331E+00  0.88000000000E+00 0. -1.
        -11    1    4    4    0    0 -0.85322246280E-01  0.14507140829E-02  0.17663762604E-01  0.87145050989E-01  0.51100000000E-03 0.  1.
         11    1    4    4    0    0 -0.43281629984E-01 -0.12784531198E-01  0.39219268354E-02  0.45303270998E-01  0.51100000000E-03 0. -1.
</event>
<event>
 8    1  0.1108957E+005  0.1043930E+01  0.7957747E-01            NaN
         13   -1    0    0    0    0  0.00000000000E+00  0.00000000000E+00  0.74505805969E-08  0.10566000000E+00  0.10566000000E+00 0.  1.
     999900   -1    0    0    0    0 -0.00000000000E+00 -0.00000000000E+00 -0.74505805969E-08  0.93827000000E+00  0.93827000000E+00 0. -1.
     999902    2    1    2    0    0 -0.78716295137E-02 -0.79982447981E-02  0.21047853662E-01  0.10200773982E+01  0.10197984858E+01 0.  0.
     999903    2    3    3    0    0 -0.46188779006E-02 -0.11536058312E+00  0.62091928175E-01  0.13259676843E+00  0.19927299941E-01 0.  0.
         14    1    1    2    0    0  0.78716295137E-02  0.79982447981E-02 -0.21047853662E-01  0.23852601846E-01  0.00000000000E+00 0. -1.
     999901    1    3    3    0    0 -0.32527516132E-02  0.10736233832E+00 -0.41044074513E-01  0.88748062972E+00  0.88000000000E+00 0. -1.
        -11    1    4    4    0    0 -0.15284037870E-02 -0.19606084483E-01  0.19669923058E-01  0.27819086272E-01  0.51100000000E-03 0.  1.
         11    1    4    4    0    0 -0.30904741136E-02 -0.95754498635E-01  0.42422005117E-01  0.10477768216E+00  0.51100000000E-03 0. -1.
</event>
<event>
 8    1  0.1108957E+005  0.1043930E+01  0.7957747E-01            NaN
         13   -1    0    0    0    0  0.00000000000E+00  0.00000000000E+00  0.74505805969E-08  0.10566000000E+00  0.10566000000E+00 0. -1.
     999900   -1    0    0    0    0 -0.00000000000E+00 -0.00000000000E+00 -0.74505805969E-08  0.93827000000E+00  0.93827000000E+00 0. -1.
     999902    2    1    2    0    0 -0.77159175920E-02  0.20178546099E-01  0.85510356842E-02  0.10206957727E+01  0.10204312966E+01 0.  0.
     999903    2    3    3    0    0  0.86897055085E-02 -0.12439003344E+00 -0.21744859468E-01  0.12823453549E+00  0.20563700477E-01 0.  0.
         14    1    1    2    0    0  0.77159175920E-02 -0.20178546099E-01 -0.85510356842E-02  0.23234227300E-01  0.00000000000E+00 0. -1.
     999901    1    3    3    0    0 -0.16405623101E-01  0.14456857954E+00  0.30295895153E-01  0.89246123721E+00  0.88000000000E+00 0. -1.
        -11    1    4    4    0    0  0.10464833689E-01 -0.82887224981E-01 -0.58417138370E-02  0.83750770449E-01  0.51100000000E-03 0. -1.
         11    1    4    4    0    0 -0.17751281808E-02 -0.41502808461E-01 -0.15903145631E-01  0.44483765041E-01  0.51100000000E-03 0.  1.
</event>
<event>
 8    1  0.1108957E+005  0.1043930E+01  0.7957747E-01            NaN
         13   -1    0    0    0    0  0.00000000000E+00  0.00000000000E+00  0.74505805969E-08  0.10566000000E+00  0.10566000000E+00 0.  1.
     999900   -1    0    0    0    0 -0.00000000000E+00 -0.00000000000E+00 -0.74505805969E-08  0.93827000000E+00  0.93827000000E+00 0. -1.
     999902    2    1    2    0    0 -0.19076863738E-01 -0.76375204495E-02 -0.10494341105E-01  0.10208564298E+01  0.10205956401E+01 0.  0.
     999903    2    3    3    0    0  0.11382640630E+00 -0.12434150508E-01  0.54835980442E-01  0.12846955302E+00  0.19656612989E-01 0.  0.
         14    1    1    2    0    0  0.19076863738E-01  0.76375204495E-02  0.10494341105E-01  0.23073570246E-01  0.00000000000E+00 0. -1.
     999901    1    3    3    0    0 -0.13290327003E+00  0.47966300588E-02 -0.65330321546E-01  0.89238687673E+00  0.88000000000E+00 0.  1.
        -11    1    4    4    0    0  0.29826718094E-01  0.43507263789E-02  0.98583420174E-02  0.31717660075E-01  0.51100000000E-03 0. -1.
         11    1    4    4    0    0  0.83999688201E-01 -0.16784876887E-01  0.44977638424E-01  0.96751892949E-01  0.51100000000E-03 0.  1.
</event>
<event>
 8    1  0.1108957E+005  0.1043930E+01  0.7957747E-01            NaN
         13   -1    0    0    0    0  0.00000000000E+00  0.00000000000E+00  0.74505805969E-08  0.10566000000E+00  0.10566000000E+00 0. -1.
     999900   -1    0    0    0    0 -0.00000000000E+00 -0.00000000000E+00 -0.74505805969E-08  0.93827000000E+00  0.93827000000E+00 0.  1.
     999902    2    1    2    0    0 -0.89790145278E-02  0.60553837924E-02 -0.20829781516E-01  0.10204529863E+01  0.10201828890E+01 0.  0.
     999903    2    3    3    0    0 -0.24329307056E-01  0.70808161020E-01 -0.10862848397E+00  0.13358368036E+00  0.20946151957E-01 0.  0.
         14    1    1    2    0    0  0.89790145278E-02 -0.60553837924E-02  0.20829781516E-01  0.23477013711E-01  0.00000000000E+00 0. -1.
     999901    1    3    3    0    0  0.15350292528E-01 -0.64752777228E-01  0.87798702451E-01  0.88686930592E+00  0.88000000000E+00 0. -1.
        -11    1    4    4    0    0 -0.12793224830E-01  0.16844961537E-01 -0.19615313681E-01  0.28852053351E-01  0.51100000000E-03 0. -1.
         11    1    4    4    0    0 -0.11536082226E-01  0.53963199483E-01 -0.89013170286E-01  0.10473162701E+00  0.51100000000E-03 0.  1.
</event>
<event>
 8    1  0.1108957E+005  0.1043930E+01  0.7957747E-01            NaN
         13   -1    0    0    0    0  0.00000000000E+00  0.00000000000E+00  0.74505805969E-08  0.10566000000E+00  0.10566000000E+00 0. -1.
     999900   -1    0    0    0    0 -0.00000000000E+00 -0.00000000000E+00 -0.74505805969E-08  0.93827000000E+00  0.93827000000E+00 0.  1.
     999902    2    1    2    0    0 -0.54271572835E-03  0.11964014657E-01  0.20947168834E-01  0.10198008461E+01  0.10195153503E+01 0.  0.
     999903    2    3    3    0    0  0.87164859949E-01  0.33830265862E-01  0.91585698900E-01  0.13235476112E+00  0.19688647728E-01 0.  0.
         14    1    1    2    0    0  0.54271572835E-03 -0.11964014657E-01 -0.20947168834E-01  0.24129153927E-01  0.00000000000E+00 0.  1.
     999901    1    3    3    0    0 -0.87707575677E-01 -0.21866251205E-01 -0.70638530066E-01  0.88744608496E+00  0.88000000000E+00 0.  1.
        -11    1    4    4    0    0  0.78338089800E-01  0.27757122591E-01  0.71721710038E-01  0.10977968382E+00  0.51100000000E-03 0. -1.
         11    1    4    4    0    0  0.88267701484E-02  0.60731432715E-02  0.19863988861E-01  0.22575077296E-01  0.51100000000E-03 0.  1.
</event>
<event>
 8    1  0.1108957E+005  0.1043930E+01  0.7957747E-01            NaN
         13   -1    0    0    0    0  0.00000000000E+00  0.00000000000E+00  0.74505805969E-08  0.10566000000E+00  0.10566000000E+00 0.  1.
     999900   -1    0    0    0    0 -0.00000000000E+00 -0.00000000000E+00 -0.74505805969E-08  0.93827000000E+00  0.93827000000E+00 0.  1.
     999902    2    1    2    0    0 -0.23220641688E-02  0.19845528713E-01 -0.11888663901E-01  0.10206796813E+01  0.10204148345E+01 0.  0.
     999903    2    3    3    0    0 -0.70534648857E-01  0.68486374274E-01  0.84886257267E-01  0.13141916042E+00  0.19994971922E-01 0.  0.
         14    1    1    2    0    0  0.23220641688E-02 -0.19845528713E-01  0.11888663901E-01  0.23250318734E-01  0.00000000000E+00 0. -1.
     999901    1    3    3    0    0  0.68212584688E-01 -0.48640845562E-01 -0.96774921169E-01  0.88926052085E+00  0.88000000000E+00 0.  1.
        -11    1    4    4    0    0 -0.33832802190E-01  0.19302261772E-01  0.32805026426E-01  0.50928054090E-01  0.51100000000E-03 0. -1.
         11    1    4    4    0    0 -0.36701846667E-01  0.49184112503E-01  0.52081230841E-01  0.80491106331E-01  0.51100000000E-03 0.  1.
</event>
<event>
 8    1  0.1108957E+005  0.1043930E+01  0.7957747E-01            NaN
         13   -1    0    0    0    0  0.00000000000E+00  0.00000000000E+00  0.74505805969E-08  0.10566000000E+00  0.10566000000E+00 0. -1.
     999900   -1    0    0    0    0 -0.00000000000E+00 -0.00000000000E+00 -0.74505805969E-08  0.93827000000E+00  0.93827000000E+00 0.  1.
     999902    2    1    2    0    0  0.64410760190E-02 -0.22769616817E-01 -0.49353646156E-02  0.10197576866E+01  0.10194711564E+01 0.  0.
     999903    2    3    3    0    0  0.69502095186E-01 -0.47352284173E-01 -0.99738398793E-01  0.13208172380E+00  0.20616826072E-01 0.  0.
         14    1    1    2    0    0 -0.64410760190E-02  0.22769616817E-01  0.49353646156E-02  0.24172313381E-01  0.00000000000E+00 0.  1.
     999901    1    3    3    0    0 -0.63061019167E-01  0.24582667356E-01  0.94803034178E-01  0.88767596282E+00  0.88000000000E+00 0. -1.
        -11    1    4    4    0    0  0.28350025835E-01 -0.21792989870E-01 -0.57982267586E-01  0.68123878689E-01  0.51100000000E-03 0.  1.
         11    1    4    4    0    0  0.41152069351E-01 -0.25559294303E-01 -0.41756131208E-01  0.63957845114E-01  0.51100000000E-03 0. -1.
</event>
<event>
 8    1  0.1108957E+005  0.1043930E+01  0.7957747E-01            NaN
         13   -1    0    0    0    0  0.00000000000E+00  0.00000000000E+00  0.74505805969E-08  0.10566000000E+00  0.10566000000E+00 0.  1.
     999900   -1    0    0    0    0 -0.00000000000E+00 -0.00000000000E+00 -0.74505805969E-08  0.93827000000E+00  0.93827000000E+00 0.  1.
     999902    2    1    2    0    0  0.16191346136E-01  0.14848940654E-01  0.12902127397E-01  0.10184522525E+01  0.10181335251E+01 0.  0.
     999903    2    3    3    0    0 -0.92605470616E-01 -0.83448518987E-01  0.23599711653E-02  0.12625817326E+00  0.19902973191E-01 0.  0.
         14    1    1    2    0    0 -0.16191346136E-01 -0.14848940654E-01 -0.12902127397E-01  0.25477747537E-01  0.00000000000E+00 0. -1.
     999901    1    3    3    0    0  0.10879681675E+00  0.98297459640E-01  0.10542156231E-01  0.89219407920E+00  0.88000000000E+00 0.  1.
        -11    1    4    4    0    0 -0.15371548527E-01 -0.52746984455E-02  0.18464513487E-02  0.16363906972E-01  0.51100000000E-03 0.  1.
         11    1    4    4    0    0 -0.77233922089E-01 -0.78173820541E-01  0.51351981661E-03  0.10989426629E+00  0.51100000000E-03 0. -1.
</event>
<event>
 8    1  0.1108957E+005  0.1043930E+01  0.7957747E-01            NaN
         13   -1    0    0    0    0  0.00000000000E+00  0.00000000000E+00  0.74505805969E-08  0.10566000000E+00  0.10566000000E+00 0.  1.
     999900   -1    0    0    0    0 -0.00000000000E+00 -0.00000000000E+00 -0.74505805969E-08  0.93827000000E+00  0.93827000000E+00 0.  1.
     999902    2    1    2    0    0  0.57025479270E-02 -0.21452697822E-01  0.18048970048E-01  0.10153205153E+01  0.10149173593E+01 0.  0.
     999903    2    3    3    0    0 -0.10965528778E-01 -0.99017133828E-01  0.80325320744E-01  0.12955959359E+00  0.20221165308E-01 0.  0.
         14    1    1    2    0    0 -0.57025479270E-02  0.21452697822E-01 -0.18048970048E-01  0.28609484730E-01  0.00000000000E+00 0. -1.
     999901    1    3    3    0    0  0.16668076705E-01  0.77564436006E-01 -0.62276350696E-01  0.88576092168E+00  0.88000000000E+00 0.  1.
        -11    1    4    4    0    0  0.14497863949E-02 -0.63169946421E-01  0.56459618482E-01  0.84737793525E-01  0.51100000000E-03 0.  1.
         11    1    4    4    0    0 -0.12415315173E-01 -0.35847187407E-01  0.23865702263E-01  0.44821800068E-01  0.51100000000E-03 0. -1.
</event>
<event>
 8    1  0.1108957E+005  0.1043930E+01  0.7957747E-01            NaN
         13   -1    0    0    0    0  0.00000000000E+00  0.00000000000E+00  0.74505805969E-08  0.10566000000E+00  0.10566000000E+00 0.  1.
     999900   -1    0    0    0    0 -0.00000000000E+00 -0.00000000000E+00 -0.74505805969E-08  0.93827000000E+00  0.93827000000E+00 0. -1.
     999902    2    1    2    0    0 -0.11013522454E-01  0.19397824056E-01 -0.99309964208E-02  0.10195128350E+01  0.10192203996E+01 0.  0.
     999903    2    3    3    0    0 -0.71826570457E-01  0.53756706126E-01 -0.95511369559E-01  0.13260654920E+00  0.20328194691E-01 0.  0.
         14    1    1    2    0    0  0.11013522454E-01 -0.19397824056E-01  0.99309964208E-02  0.24417164964E-01  0.00000000000E+00 0.  1.
     999901    1    3    3    0    0  0.60813048003E-01 -0.34358882070E-01  0.85580373138E-01  0.88690628583E+00  0.88000000000E+00 0.  1.
        -11    1    4    4    0    0 -0.36817218724E-01  0.39956558907E-01 -0.57781672657E-01  0.79315931630E-01  0.51100000000E-03 0. -1.
         11    1    4    4    0    0 -0.35009351732E-01  0.13800147218E-01 -0.37729696903E-01  0.53290617573E-01  0.51100000000E-03 0.  1.
</event>
<event>
 8    1  0.1108957E+005  0.1043930E+01  0.7957747E-01            NaN
         13   -1    0    0    0    0  0.00000000000E+00  0.00000000000E+00  0.74505805969E-08  0.10566000000E+00  0.10566000000E+00 0.  1.
     999900   -1    0    0    0    0 -0.00000000000E+00 -0.00000000000E+00 -0.74505805969E-08  0.93827000000E+00  0.93827000000E+00 0.  1.
     999902    2    1    2    0    0  0.22186231022E-01  0.82268209059E-02  0.13310086672E-02  0.10202301896E+01  0.10199548807E+01 0.  0.
     999903    2    3    3    0    0 -0.12005642640E+00 -0.18753784660E-02  0.39408939852E-01  0.12793822120E+00  0.19951474573E-01 0.  0.
         14    1    1    2    0    0 -0.22186231022E-01 -0.82268209059E-02 -0.13310086672E-02  0.23699810405E-01  0.00000000000E+00 0. -1.
     999901    1    3    3    0    0  0.14224265743E+00  0.10102199372E-01 -0.38077931185E-01  0.89229196840E+00  0.88000000000E+00 0. -1.
        -11    1    4    4    0    0 -0.79014560285E-01 -0.70502676527E-02  0.17956800120E-01  0.81337044466E-01  0.51100000000E-03 0.  1.
         11    1    4    4    0    0 -0.41041866119E-01  0.51748891867E-02  0.21452139732E-01  0.46601176731E-01  0.51100000000E-03 0. -1.
</event>
<event>
 8    1  0.1108957E+005  0.1043930E+01  0.7957747E-01            NaN
         13   -1    0    0    0    0  0.00000000000E+00  0.00000000000E+00  0.74505805969E-08  0.10566000000E+00  0.10566000000E+00 0.  1.
     999900   -1    0    0    0    0 -0.00000000000E+00 -0.00000000000E+00 -0.74505805969E-08  0.93827000000E+00  0.93827000000E+00 0.  1.
     999902    2    1    2    0    0  0.10557264240E-01 -0.15763111634E-01  0.14653090411E-01  0.10199582546E+01  0.10196765157E+01 0.  0.
     999903    2    3    3    0    0 -0.99096577557E-02  0.10987834096E+00  0.64583819793E-01  0.12939789889E+00  0.20032357068E-01 0.  0.
         14    1    1    2    0    0 -0.10557264240E-01  0.15763111634E-01 -0.14653090411E-01  0.23971745352E-01  0.00000000000E+00 0. -1.
     999901    1    3    3    0    0  0.20466921996E-01 -0.12564145260E+00 -0.49930729382E-01  0.89056035576E+00  0.88000000000E+00 0.  1.
        -11    1    4    4    0    0 -0.12552559970E-01  0.40252851466E-01  0.28842714629E-01  0.51088375597E-01  0.51100000000E-03 0.  1.
         11    1    4    4    0    0  0.26429022148E-02  0.69625489494E-01  0.35741105163E-01  0.78309523295E-01  0.51100000000E-03 0. -1.
</event>
<event>
 8    1  0.1108957E+005  0.1043930E+01  0.7957747E-01            NaN
         13   -1    0    0    0    0  0.00000000000E+00  0.00000000000E+00  0.74505805969E-08  0.10566000000E+00  0.10566000000E+00 0.  1.
     999900   -1    0    0    0    0 -0.00000000000E+00 -0.00000000000E+00 -0.74505805969E-08  0.93827000000E+00  0.93827000000E+00 0.  1.
     999902    2    1    2    0    0 -0.10314418786E-01 -0.17416120858E-01 -0.15444430576E-01  0.10184694632E+01  0.10181511717E+01 0.  0.
     999903    2    3    3    0    0 -0.11977458522E+00 -0.24119119100E-01 -0.41156825740E-01  0.13128989538E+00  0.24808650752E-01 0.  0.
         14    1    1    2    0    0  0.10314418786E-01  0.17416120858E-01  0.15444430576E-01  0.25460536845E-01  0.00000000000E+00 0. -1.
     999901    1    3    3    0    0  0.10946016643E+00  0.67029982416E-02  0.25712395164E-01  0.88717956778E+00  0.88000000000E+00 0.  1.
        -11    1    4    4    0    0 -0.57596985340E-01 -0.21324065675E-01 -0.12105332640E-01  0.62601347402E-01  0.51100000000E-03 0. -1.
         11    1    4    4    0    0 -0.62177599879E-01 -0.27950534242E-02 -0.29051493101E-01  0.68688547973E-01  0.51100000000E-03 0.  1.
</event>
<event>
 8    1  0.1108957E+005  0.1043930E+01  0.7957747E-01            NaN
         13   -1    0    0    0    0  0.00000000000E+00  0.00000000000E+00  0.74505805969E-08  0.10566000000E+00  0.10566000000E+00 0. -1.
     999900   -1    0    0    0    0 -0.00000000000E+00 -0.00000000000E+00 -0.74505805969E-08  0.93827000000E+00  0.93827000000E+00 0.  1.
     999902    2    1    2    0    0  0.16515299457E-01  0.61649886329E-02  0.17428573159E-01  0.10191405393E+01  0.10188390066E+01 0.  0.
     999903    2    3    3    0    0 -0.46948195209E-01  0.57479210116E-01  0.10582914665E+00  0.13095394520E+00  0.21003210575E-01 0.  0.
         14    1    1    2    0    0 -0.16515299457E-01 -0.61649886329E-02 -0.17428573159E-01  0.24789460732E-01  0.00000000000E+00 0.  1.
     999901    1    3    3    0    0  0.63463494666E-01 -0.51314221483E-01 -0.88400573493E-01  0.88818659406E+00  0.88000000000E+00 0.  1.
        -11    1    4    4    0    0 -0.44717030309E-02  0.88008715288E-02  0.28622811699E-01  0.30281643585E-01  0.51100000000E-03 0.  1.
         11    1    4    4    0    0 -0.42476492178E-01  0.48678338587E-01  0.77206334954E-01  0.10067230162E+00  0.51100000000E-03 0. -1.
</event>
<event>
 8    1  0.1108957E+005  0.1043930E+01  0.7957747E-01            NaN
         13   -1    0    0    0    0  0.00000000000E+00  0.00000000000E+00  0.74505805969E-08  0.10566000000E+00  0.10566000000E+00 0. -1.
     999900   -1    0    0    0    0 -0.00000000000E+00 -0.00000000000E+00 -0.74505805969E-08  0.93827000000E+00  0.93827000000E+00 0. -1.
     999902    2    1    2    0    0  0.20362789406E-01  0.97851950292E-02 -0.67637831642E-02  0.10203473369E+01  0.10200747747E+01 0.  0.
     999903    2    3    3    0    0  0.33052001203E-01 -0.11636453574E+00 -0.44465669378E-01  0.13046183707E+00  0.20247350819E-01 0.  0.
         14    1    1    2    0    0 -0.20362789406E-01 -0.97851950292E-02  0.67637831642E-02  0.23582663056E-01  0.00000000000E+00 0. -1.
     999901    1    3    3    0    0 -0.12689211797E-01  0.12614973077E+00  0.37701886214E-01  0.88988549988E+00  0.88000000000E+00 0. -1.
        -11    1    4    4    0    0  0.11413664588E-01 -0.71639981312E-01 -0.21073566531E-01  0.75544126106E-01  0.51100000000E-03 0. -1.
         11    1    4    4    0    0  0.21638336615E-01 -0.44724554430E-01 -0.23392102847E-01  0.54917710960E-01  0.51100000000E-03 0.  1.
</event>
<event>
 8    1  0.1108957E+005  0.1043930E+01  0.7957747E-01            NaN
         13   -1    0    0    0    0  0.00000000000E+00  0.00000000000E+00  0.74505805969E-08  0.10566000000E+00  0.10566000000E+00 0.  1.
     999900   -1    0    0    0    0 -0.00000000000E+00 -0.00000000000E+00 -0.74505805969E-08  0.93827000000E+00  0.93827000000E+00 0. -1.
     999902    2    1    2    0    0 -0.59560247558E-04  0.13656113544E-01 -0.15644366784E-01  0.10231637005E+01  0.10229529406E+01 0.  0.
     999903    2    3    3    0    0  0.97754032565E-01  0.32141208139E-01 -0.84159093641E-01  0.13490503011E+00  0.22971851515E-01 0.  0.
         14    1    1    2    0    0  0.59560247558E-04 -0.13656113544E-01  0.15644366784E-01  0.20766299541E-01  0.00000000000E+00 0.  1.
     999901    1    3    3    0    0 -0.97813592813E-01 -0.18485094594E-01  0.68514726857E-01  0.88825867035E+00  0.88000000000E+00 0.  1.
        -11    1    4    4    0    0  0.66635277636E-01  0.17704960990E-01 -0.68501865176E-01  0.97193068286E-01  0.51100000000E-03 0.  1.
         11    1    4    4    0    0  0.31118754929E-01  0.14436247149E-01 -0.15657228465E-01  0.37711961820E-01  0.51100000000E-03 0. -1.
</event>
<event>
 8    1  0.1108957E+005  0.1043930E+01  0.7957747E-01            NaN
         13   -1    0    0    0    0  0.00000000000E+00  0.00000000000E+00  0.74505805969E-08  0.10566000000E+00  0.10566000000E+00 0. -1.
     999900   -1    0    0    0    0 -0.00000000000E+00 -0.00000000000E+00 -0.74505805969E-08  0.93827000000E+00  0.93827000000E+00 0.  1.
     999902    2    1    2    0    0 -0.15515030511E-01 -0.13735760651E-01  0.10883092552E-01  0.10205242529E+01  0.10202558120E+01 0.  0.
     999903    2    3    3    0    0 -0.11256159211E-01  0.11765052217E+00  0.50068369152E-01  0.12989751899E+00  0.19954382080E-01 0.  0.
         14    1    1    2    0    0  0.15515030511E-01  0.13735760651E-01 -0.10883092552E-01  0.23405747070E-01  0.00000000000E+00 0. -1.
     999901    1    3    3    0    0 -0.42588713007E-02 -0.13138628282E+00 -0.39185276600E-01  0.89062673394E+00  0.88000000000E+00 0.  1.
        -11    1    4    4    0    0 -0.15432483513E-01  0.91618011104E-01  0.44172610384E-01  0.10287614950E+00  0.51100000000E-03 0.  1.
         11    1    4    4    0    0  0.41763243025E-02  0.26032511067E-01  0.58957587679E-02  0.27021369498E-01  0.51100000000E-03 0. -1.
</event>
<event>
 8    1  0.1108957E+005  0.1043930E+01  0.7957747E-01            NaN
         13   -1    0    0    0    0  0.00000000000E+00  0.00000000000E+00  0.74505805969E-08  0.10566000000E+00  0.10566000000E+00 0. -1.
     999900   -1    0    0    0    0 -0.00000000000E+00 -0.00000000000E+00 -0.74505805969E-08  0.93827000000E+00  0.93827000000E+00 0.  1.
     999902    2    1    2    0    0  0.83550375170E-02 -0.10738374365E-01  0.19615403222E-01  0.10200577697E+01  0.10197783927E+01 0.  0.
     999903    2    3    3    0    0 -0.12237159888E+00 -0.37566361661E-01  0.37497923777E-03  0.12978849118E+00  0.21421299938E-01 0.  0.
         14    1    1    2    0    0 -0.83550375170E-02  0.10738374365E-01 -0.19615403222E-01  0.23872230299E-01  0.00000000000E+00 0.  1.
     999901    1    3    3    0    0  0.13072663640E+00  0.26827987296E-01  0.19240423984E-01  0.89026927852E+00  0.88000000000E+00 0. -1.
        -11    1    4    4    0    0 -0.73771730129E-01 -0.28876411930E-01  0.87665232081E-02  0.79707141351E-01  0.51100000000E-03 0.  1.
         11    1    4    4    0    0 -0.48599868754E-01 -0.86899497311E-02 -0.83915439703E-02  0.50081349826E-01  0.51100000000E-03 0. -1.
</event>
<event>
 8    1  0.1108957E+005  0.1043930E+01  0.7957747E-01            NaN
         13   -1    0    0    0    0  0.00000000000E+00  0.00000000000E+00  0.74505805969E-08  0.10566000000E+00  0.10566000000E+00 0.  1.
     999900   -1    0    0    0    0 -0.00000000000E+00 -0.00000000000E+00 -0.74505805969E-08  0.93827000000E+00  0.93827000000E+00 0. -1.
     999902    2    1    2    0    0  0.25412687642E-02  0.12745635944E-01 -0.19801307244E-01  0.10202445392E+01  0.10199695676E+01 0.  0.
     999903    2    3    3    0    0 -0.65871725729E-01 -0.41891621273E-01  0.99354913066E-01  0.12790840721E+00  0.19878875777E-01 0.  0.
         14    1    1    2    0    0 -0.25412687642E-02 -0.12745635944E-01  0.19801307244E-01  0.23685460754E-01  0.00000000000E+00 0.  1.
     999901    1    3    3    0    0  0.68412994493E-01  0.54637257217E-01 -0.11915622031E+00  0.89233613203E+00  0.88000000000E+00 0. -1.
        -11    1    4    4    0    0 -0.18042744962E-01 -0.17992253853E-02  0.21858556066E-01  0.28404849094E-01  0.51100000000E-03 0.  1.
         11    1    4    4    0    0 -0.47828980767E-01 -0.40092395888E-01  0.77496357000E-01  0.99503558120E-01  0.51100000000E-03 0. -1.
</event>
<event>
 8    1  0.1108957E+005  0.1043930E+01  0.7957747E-01            NaN
         13   -1    0    0    0    0  0.00000000000E+00  0.00000000000E+00  0.74505805969E-08  0.10566000000E+00  0.10566000000E+00 0. -1.
     999900   -1    0    0    0    0 -0.00000000000E+00 -0.00000000000E+00 -0.74505805969E-08  0.93827000000E+00  0.93827000000E+00 0. -1.
     999902    2    1    2    0    0 -0.15926383044E-01 -0.17524617035E-01 -0.25490468918E-03  0.10202482168E+01  0.10199733315E+01 0.  0.
     999903    2    3    3    0    0 -0.11204603364E+00 -0.26729538350E-01  0.63001770775E-01  0.13270941495E+00  0.19333489610E-01 0.  0.
         14    1    1    2    0    0  0.15926383044E-01  0.17524617035E-01  0.25490468918E-03  0.23681783199E-01  0.00000000000E+00 0. -1.
     999901    1    3    3    0    0  0.96119650594E-01  0.92049213147E-02 -0.63256675464E-01  0.88753880185E+00  0.88000000000E+00 0. -1.
        -11    1    4    4    0    0 -0.28755373247E-01  0.52105607539E-03  0.20416970362E-01  0.35274024292E-01  0.51100000000E-03 0. -1.
         11    1    4    4    0    0 -0.83290660391E-01 -0.27250594425E-01  0.42584800412E-01  0.97435390654E-01  0.51100000000E-03 0.  1.
</event>
<event>
 8    1  0.1108957E+005  0.1043930E+01  0.7957747E-01            NaN
         13   -1    0    0    0    0  0.00000000000E+00  0.00000000000E+00  0.74505805969E-08  0.10566000000E+00  0.10566000000E+00 0. -1.
     999900   -1    0    0    0    0 -0.00000000000E+00 -0.00000000000E+00 -0.74505805969E-08  0.93827000000E+00  0.93827000000E+00 0.  1.
     999902    2    1    2    0    0 -0.56665817960E-02 -0.17918088722E-01 -0.14673869577E-01  0.10200869612E+01  0.10198082750E+01 0.  0.
     999903    2    3    3    0    0  0.31910343150E-01 -0.12105532490E+00  0.35850712519E-01  0.13182908860E+00  0.20517634474E-01 0.  0.
         14    1    1    2    0    0  0.56665817960E-02  0.17918088722E-01  0.14673869577E-01  0.23843038839E-01  0.00000000000E+00 0.  1.
     999901    1    3    3    0    0 -0.37576924946E-01  0.10313723618E+00 -0.50524582096E-01  0.88825787256E+00  0.88000000000E+00 0.  1.
        -11    1    4    4    0    0  0.20903899123E-01 -0.56754351800E-01  0.84539807819E-02  0.61071764007E-01  0.51100000000E-03 0. -1.
         11    1    4    4    0    0  0.11006444027E-01 -0.64300973105E-01  0.27396731737E-01  0.70757324590E-01  0.51100000000E-03 0.  1.
</event>
<event>
 8    1  0.1108957E+005  0.1043930E+01  0.7957747E-01            NaN
         13   -1    0    0    0    0  0.00000000000E+00  0.00000000000E+00  0.74505805969E-08  0.10566000000E+00  0.10566000000E+00 0.  1.
     999900   -1    0    0    0    0 -0.00000000000E+00 -0.00000000000E+00 -0.74505805969E-08  0.93827000000E+00  0.93827000000E+00 0. -1.
     999902    2    1    2    0    0  0.13101756229E-01 -0.17453562435E-01  0.91757112434E-02  0.10202556144E+01  0.10199809028E+01 0.  0.
     999903    2    3    3    0    0 -0.39753357435E-01 -0.12445351693E+00  0.23572707923E-02  0.13217389266E+00  0.19884010458E-01 0.  0.
         14    1    1    2    0    0 -0.13101756229E-01  0.17453562435E-01 -0.91757112434E-02  0.23674385626E-01  0.00000000000E+00 0. -1.
     999901    1    3    3    0    0  0.52855113664E-01  0.10699995450E+00  0.68184404512E-02  0.88808172171E+00  0.88000000000E+00 0.  1.
        -11    1    4    4    0    0 -0.84346420339E-02 -0.42421749347E-01  0.87562288580E-02  0.44132535263E-01  0.51100000000E-03 0. -1.
         11    1    4    4    0    0 -0.31318715401E-01 -0.82031767587E-01 -0.63989580657E-02  0.88041357402E-01  0.51100000000E-03 0.  1.
</event>
<event>
 8    1  0.1108957E+005  0.1043930E+01  0.7957747E-01            NaN
         13   -1    0    0    0    0  0.00000000000E+00  0.00000000000E+00  0.74505805969E-08  0.10566000000E+00  0.10566000000E+00 0.  1.
     999900   -1    0    0    0    0 -0.00000000000E+00 -0.00000000000E+00 -0.74505805969E-08  0.93827000000E+00  0.93827000000E+00 0.  1.
     999902    2    1    2    0    0  0.21164801647E-01  0.48290925469E-03 -0.11783251451E-01  0.10197013590E+01  0.10194134757E+01 0.  0.
     999903    2    3    3    0    0 -0.10537533566E+00 -0.62618772891E-01  0.28674775456E-01  0.12749562007E+00  0.20194511743E-01 0.  0.
         14    1    1    2    0    0 -0.21164801647E-01 -0.48290925469E-03  0.11783251451E-01  0.24228641003E-01  0.00000000000E+00 0.  1.
     999901    1    3    3    0    0  0.12654013731E+00  0.63101682145E-01 -0.40458026907E-01  0.89220573893E+00  0.88000000000E+00 0.  1.
        -11    1    4    4    0    0 -0.53308056012E-01 -0.20176553126E-01  0.11319233630E-01  0.58113925206E-01  0.51100000000E-03 0. -1.
         11    1    4    4    0    0 -0.52067279649E-01 -0.42442219765E-01  0.17355541826E-01  0.69381694861E-01  0.51100000000E-03 0.  1.
</event>
<event>
 8    1  0.1108957E+005  0.1043930E+01  0.7957747E-01            NaN
         13   -1    0    0    0    0  0.00000000000E+00  0.00000000000E+00  0.74505805969E-08  0.10566000000E+00  0.10566000000E+00 0.  1.
     999900   -1    0    0    0    0 -0.00000000000E+00 -0.00000000000E+00 -0.74505805969E-08  0.93827000000E+00  0.93827000000E+00 0. -1.
     999902    2    1    2    0    0  0.13762051868E-01  0.18656253479E-01 -0.15903113884E-03  0.10207464896E+01  0.10204831801E+01 0.  0.
     999903    2    3    3    0    0  0.59188786992E-01  0.41243153682E-01  0.10917451239E+00  0.13253053605E+00  0.20999014264E-01 0.  0.
         14    1    1    2    0    0 -0.13762051868E-01 -0.18656253479E-01  0.15903113884E-03  0.23183510442E-01  0.00000000000E+00 0.  1.
     999901    1    3    3    0    0 -0.45426735124E-01 -0.22586900202E-01 -0.10933354352E+00  0.88821595351E+00  0.88000000000E+00 0. -1.
        -11    1    4    4    0    0  0.32057736434E-01  0.96388470398E-02  0.48554434051E-01  0.58977962194E-01  0.51100000000E-03 0.  1.
         11    1    4    4    0    0  0.27131050558E-01  0.31604306642E-01  0.60620078335E-01  0.73552573857E-01  0.51100000000E-03 0. -1.
</event>
<event>
 7    1  0.1108957E+005  0.1043930E+01  0.7957747E-01            NaN
         13   -1    0    0    0    0  0.00000000000E+00  0.00000000000E+00  0.74505805969E-08  0.10566000000E+00  0.10566000000E+00 0. -1.
     999900   -1    0    0    0    0 -0.00000000000E+00 -0.00000000000E+00 -0.74505805969E-08  0.93827000000E+00  0.93827000000E+00 0. -1.
     999903    2    1    2    0    0 -0.62675888162E-01  0.42103277921E-01 -0.81054872143E-01  0.11360545077E+00  0.25206213101E-01 0.  0.
         14    1    1    2    0    0  0.14098594320E-01  0.33343363972E-01 -0.17643515266E-01  0.40272123283E-01  0.00000000000E+00 0.  1.
     999901    1    1    2    0    0  0.48577293842E-01 -0.75446641893E-01  0.98698387409E-01  0.89005242594E+00  0.88000000000E+00 0.  1.
        -11    1    3    3    0    0 -0.13954821385E-01  0.23712586207E-01 -0.27545168590E-01  0.38936117143E-01  0.51100000000E-03 0. -1.
         11    1    3    3    0    0 -0.48721066777E-01  0.18390691714E-01 -0.53509703553E-01  0.74669333631E-01  0.51100000000E-03 0.  1.
</event>
<event>
 8    1  0.1108957E+005  0.1043930E+01  0.7957747E-01            NaN
         13   -1    0    0    0    0  0.00000000000E+00  0.00000000000E+00  0.74505805969E-08  0.10566000000E+00  0.10566000000E+00 0. -1.
     999900   -1    0    0    0    0 -0.00000000000E+00 -0.00000000000E+00 -0.74505805969E-08  0.93827000000E+00  0.93827000000E+00 0.  1.
     999902    2    1    2    0    0 -0.23820029105E-01 -0.12411738776E-02 -0.70567856261E-02  0.10190556654E+01  0.10187520388E+01 0.  0.
     999903    2    3    3    0    0 -0.61147611685E-01  0.11163405072E+00  0.21361895594E-01  0.13060657501E+00  0.20013874134E-01 0.  0.
         14    1    1    2    0    0  0.23820029105E-01  0.12411738776E-02  0.70567856261E-02  0.24874334615E-01  0.00000000000E+00 0. -1.
     999901    1    3    3    0    0  0.37327582581E-01 -0.11287522459E+00 -0.28418681221E-01  0.88844909038E+00  0.88000000000E+00 0. -1.
        -11    1    4    4    0    0 -0.12859155278E-01  0.43275455112E-01  0.70059768224E-02  0.45688813969E-01  0.51100000000E-03 0.  1.
         11    1    4    4    0    0 -0.48288456408E-01  0.68358595605E-01  0.14355918772E-01  0.84917761040E-01  0.51100000000E-03 0. -1.
</event>
<event>
 8    1  0.1108957E+005  0.1043930E+01  0.7957747E-01            NaN
         13   -1    0    0    0    0  0.00000000000E+00  0.00000000000E+00  0.74505805969E-08  0.10566000000E+00  0.10566000000E+00 0.  1.
     999900   -1    0    0    0    0 -0.00000000000E+00 -0.00000000000E+00 -0.74505805969E-08  0.93827000000E+00  0.93827000000E+00 0. -1.
     999902    2    1    2    0    0 -0.81682828641E-02 -0.73775453530E-02 -0.24237744072E-01  0.10173101341E+01  0.10169617946E+01 0.  0.
     999903    2    3    3    0    0 -0.48173678494E-01  0.84205184938E-01  0.77235148603E-01  0.12585930762E+00  0.21542531525E-01 0.  0.
         14    1    1    2    0    0  0.81682828641E-02  0.73775453530E-02  0.24237744072E-01  0.26619865854E-01  0.00000000000E+00 0.  1.
     999901    1    3    3    0    0  0.40005395630E-01 -0.91582730291E-01 -0.10147289268E+00  0.89145082653E+00  0.88000000000E+00 0. -1.
        -11    1    4    4    0    0 -0.24677367045E-02  0.13013868658E-01  0.18939690330E-01  0.23117601361E-01  0.51100000000E-03 0.  1.
         11    1    4    4    0    0 -0.45705941790E-01  0.71191316280E-01  0.58295458273E-01  0.10274170626E+00  0.51100000000E-03 0. -1.
</event>
<event>
 8    1  0.1108957E+005  0.1043930E+01  0.7957747E-01            NaN
         13   -1    0    0    0    0  0.00000000000E+00  0.00000000000E+00  0.74505805969E-08  0.10566000000E+00  0.10566000000E+00 0. -1.
     999900   -1    0    0    0    0 -0.00000000000E+00 -0.00000000000E+00 -0.74505805969E-08  0.93827000000E+00  0.93827000000E+00 0.  1.
     999902    2    1    2    0    0 -0.68760479707E-02 -0.21693232120E-01 -0.68214877088E-02  0.10201727053E+01  0.10198960435E+01 0.  0.
     999903    2    3    3    0    0  0.12795431720E+00 -0.19876117860E-02 -0.10428341043E-02  0.12966670777E+00  0.20883239924E-01 0.  0.
         14    1    1    2    0    0  0.68760479707E-02  0.21693232120E-01  0.68214877088E-02  0.23757294671E-01  0.00000000000E+00 0. -1.
     999901    1    3    3    0    0 -0.13483036518E+00 -0.19705620334E-01 -0.57786536045E-02  0.89050599756E+00  0.88000000000E+00 0.  1.
        -11    1    4    4    0    0  0.76622684543E-01 -0.67230373071E-02 -0.92225465923E-02  0.77469681191E-01  0.51100000000E-03 0.  1.
         11    1    4    4    0    0  0.51331632662E-01  0.47354255211E-02  0.81797124880E-02  0.52197026582E-01  0.51100000000E-03 0. -1.
</event>
<event>
 8    1  0.1108957E+005  0.1043930E+01  0.7957747E-01            NaN
         13   -1    0    0    0    0  0.00000000000E+00  0.00000000000E+00  0.74505805969E-08  0.10566000000E+00  0.10566000000E+00 0.  1.
     999900   -1    0    0    0    0 -0.00000000000E+00 -0.00000000000E+00 -0.74505805969E-08  0.93827000000E+00  0.93827000000E+00 0. -1.
     999902    2    1    2    0    0  0.47874548719E-02  0.18638080440E-01  0.13612441164E-01  0.10203589092E+01  0.10200866175E+01 0.  0.
     999903    2    3    3    0    0  0.12745181818E+00  0.27281060522E-01  0.41083083634E-02  0.13175800010E+00  0.18843305759E-01 0.  0.
         14    1    1    2    0    0 -0.47874548719E-02 -0.18638080440E-01 -0.13612441164E-01  0.23571090791E-01  0.00000000000E+00 0. -1.
     999901    1    3    3    0    0 -0.12266436331E+00 -0.86429800820E-02  0.95041328006E-02  0.88860090911E+00  0.88000000000E+00 0.  1.
        -11    1    4    4    0    0  0.33680273959E-01  0.54247865784E-02  0.92009909623E-02  0.35337070040E-01  0.51100000000E-03 0.  1.
         11    1    4    4    0    0  0.93771544221E-01  0.21856273944E-01 -0.50926825989E-02  0.96420930059E-01  0.51100000000E-03 0. -1.
</event>
<event>
 8    1  0.1108957E+005  0.1043930E+01  0.7957747E-01            NaN
         13   -1    0    0    0    0  0.00000000000E+00  0.00000000000E+00  0.74505805969E-08  0.10566000000E+00  0.10566000000E+00 0.  1.
     999900   -1    0    0    0    0 -0.00000000000E+00 -0.00000000000E+00 -0.74505805969E-08  0.93827000000E+00  0.93827000000E+00 0.  1.
     999902    2    1    2    0    0  0.80063922664E-02  0.22442802914E-01 -0.21051856996E-02  0.10200090149E+01  0.10197284820E+01 0.  0.
     999903    2    3    3    0    0 -0.39260669369E-01  0.10400258159E+00 -0.68956768276E-01  0.13245321009E+00  0.20757645251E-01 0.  0.
         14    1    1    2    0    0 -0.80063922664E-02 -0.22442802914E-01  0.21051856996E-02  0.23920985067E-01  0.00000000000E+00 0.  1.
     999901    1    3    3    0    0  0.47267061635E-01 -0.81559778674E-01  0.66851582577E-01  0.88755580484E+00  0.88000000000E+00 0. -1.
        -11    1    4    4    0    0 -0.36575633478E-01  0.73251038090E-01 -0.54551449846E-01  0.98385026029E-01  0.51100000000E-03 0. -1.
         11    1    4    4    0    0 -0.26850358914E-02  0.30751543498E-01 -0.14405318430E-01  0.34068184063E-01  0.51100000000E-03 0.  1.
</event>
<event>
 8    1  0.1108957E+005  0.1043930E+01  0.7957747E-01            NaN
         13   -1    0    0    0    0  0.00000000000E+00  0.00000000000E+00  0.74505805969E-08  0.10566000000E+00  0.10566000000E+00 0.  1.
     999900   -1    0    0    0    0 -0.00000000000E+00 -0.00000000000E+00 -0.74505805969E-08  0.93827000000E+00  0.93827000000E+00 0. -1.
     999902    2    1    2    0    0 -0.20852934431E-01 -0.11566254513E-01  0.12359667438E-03  0.10200838600E+01  0.10198051005E+01 0.  0.
     999903    2    3    3    0    0  0.28357149345E-01  0.11364486452E+00 -0.48739095606E-01  0.12851949361E+00  0.20554261061E-01 0.  0.
         14    1    1    2    0    0  0.20852934431E-01  0.11566254513E-01 -0.12359667438E-03  0.23846140023E-01  0.00000000000E+00 0.  1.
     999901    1    3    3    0    0 -0.49210083776E-01 -0.12521111903E+00  0.48862692280E-01  0.89156436636E+00  0.88000000000E+00 0. -1.
        -11    1    4    4    0    0  0.30222844405E-01  0.87769582881E-01 -0.35454963188E-01  0.99369188075E-01  0.51100000000E-03 0.  1.
         11    1    4    4    0    0 -0.18656950605E-02  0.25875281637E-01 -0.13284132418E-01  0.29150305538E-01  0.51100000000E-03 0. -1.
</event>
<event>
 8    1  0.1108957E+005  0.1043930E+01  0.7957747E-01            NaN
         13   -1    0    0    0    0  0.00000000000E+00  0.00000000000E+00  0.74505805969E-08  0.10566000000E+00  0.10566000000E+00 0.  1.
     999900   -1    0    0    0    0 -0.00000000000E+00 -0.00000000000E+00 -0.74505805969E-08  0.93827000000E+00  0.93827000000E+00 0.  1.
     999902    2    1    2    0    0 -0.14370113828E-01  0.14537179847E-01 -0.12530239813E-01  0.10199542481E+01  0.10196724138E+01 0.  0.
     999903    2    3    3    0    0  0.58661113087E-01 -0.11036165128E+00 -0.19552556790E-01  0.12811200249E+00  0.20237649130E-01 0.  0.
         14    1    1    2    0    0  0.14370113828E-01 -0.14537179847E-01  0.12530239813E-01  0.23975751899E-01  0.00000000000E+00 0. -1.
     999901    1    3    3    0    0 -0.73031226915E-01  0.12489883113E+00  0.70223169767E-02  0.89184224561E+00  0.88000000000E+00 0. -1.
        -11    1    4    4    0    0  0.49471985102E-01 -0.79119099942E-01 -0.20453442299E-01  0.95529648321E-01  0.51100000000E-03 0.  1.
         11    1    4    4    0    0  0.91891279848E-02 -0.31242551341E-01  0.90088550868E-03  0.32582354168E-01  0.51100000000E-03 0. -1.
</event>
<event>
 8    1  0.1108957E+005  0.1043930E+01  0.7957747E-01            NaN
         13   -1    0    0    0    0  0.00000000000E+00  0.00000000000E+00  0.74505805969E-08  0.10566000000E+00  0.10566000000E+00 0.  1.
     999900   -1    0    0    0    0 -0.00000000000E+00 -0.00000000000E+00 -0.74505805969E-08  0.93827000000E+00  0.93827000000E+00 0.  1.
     999902    2    1    2    0    0 -0.18251085879E-01  0.14564305249E-01 -0.43096688337E-02  0.10201856455E+01  0.10199092886E+01 0.  0.
     999903    2    3    3    0    0 -0.99448379905E-01 -0.75044054314E-01  0.35493597023E-01  0.13102482846E+00  0.19649933585E-01 0.  0.
         14    1    1    2    0    0  0.18251085879E-01 -0.14564305249E-01  0.43096688337E-02  0.23744354458E-01  0.00000000000E+00 0. -1.
     999901    1    3    3    0    0  0.81197294025E-01  0.89608359563E-01 -0.39803265857E-01  0.88916081708E+00  0.88000000000E+00 0.  1.
        -11    1    4    4    0    0 -0.10783653861E-01 -0.15330650347E-01  0.94593439131E-02  0.21001341360E-01  0.51100000000E-03 0.  1.
         11    1    4    4    0    0 -0.88664726044E-01 -0.59713403967E-01  0.26034253110E-01  0.11002348710E+00  0.51100000000E-03 0. -1.
</event>
<event>
 7    1  0.1108957E+005  0.1043930E+01  0.7957747E-01            NaN
         13   -1    0    0    0    0  0.00000000000E+00  0.00000000000E+00  0.74505805969E-08  0.10566000000E+00  0.10566000000E+00 0.  1.
     999900   -1    0    0    0    0 -0.00000000000E+00 -0.00000000000E+00 -0.74505805969E-08  0.93827000000E+00  0.93827000000E+00 0.  1.
     999903    2    1    2    0    0  0.10843912530E-02  0.35320719277E-01 -0.40439719059E-01  0.57435581424E-01  0.20365314170E-01 0.  0.
         14    1    1    2    0    0  0.50449175772E-01  0.66653784233E-01 -0.45119895628E-01  0.94992901157E-01  0.00000000000E+00 0. -1.
     999901    1    1    2    0    0 -0.51533567025E-01 -0.10197450351E+00  0.85559614687E-01  0.89150151742E+00  0.88000000000E+00 0. -1.
        -11    1    3    3    0    0  0.96792642001E-02  0.21520072212E-01 -0.29732493575E-01  0.37961611644E-01  0.51100000000E-03 0. -1.
         11    1    3    3    0    0 -0.85948729471E-02  0.13800647065E-01 -0.10707225485E-01  0.19473969779E-01  0.51100000000E-03 0.  1.
</event>
<event>
 8    1  0.1108957E+005  0.1043930E+01  0.7957747E-01            NaN
         13   -1    0    0    0    0  0.00000000000E+00  0.00000000000E+00  0.74505805969E-08  0.10566000000E+00  0.10566000000E+00 0.  1.
     999900   -1    0    0    0    0 -0.00000000000E+00 -0.00000000000E+00 -0.74505805969E-08  0.93827000000E+00  0.93827000000E+00 0. -1.
     999902    2    1    2    0    0 -0.31002926407E-02  0.22396302908E-01  0.55917041036E-02  0.10206389426E+01  0.10203731562E+01 0.  0.
     999903    2    3    3    0    0 -0.14562670628E-01  0.67275428754E-01  0.11222475507E+00  0.13299254366E+00  0.18829931736E-01 0.  0.
         14    1    1    2    0    0  0.31002926407E-02 -0.22396302908E-01 -0.55917041036E-02  0.23291057365E-01  0.00000000000E+00 0. -1.
     999901    1    3    3    0    0  0.11462377987E-01 -0.44879125846E-01 -0.10663305097E+00  0.88764639897E+00  0.88000000000E+00 0.  1.
        -11    1    4    4    0    0 -0.18436308705E-01  0.44427697609E-01  0.72750972712E-01  0.87216299767E-01  0.51100000000E-03 0. -1.
         11    1    4    4    0    0  0.38736380777E-02  0.22847731145E-01  0.39473782362E-01  0.45776243898E-01  0.51100000000E-03 0.  1.
</event>
<event>
 8    1  0.1108957E+005  0.1043930E+01  0.7957747E-01            NaN
         13   -1    0    0    0    0  0.00000000000E+00  0.00000000000E+00  0.74505805969E-08  0.10566000000E+00  0.10566000000E+00 0. -1.
     999900   -1    0    0    0    0 -0.00000000000E+00 -0.00000000000E+00 -0.74505805969E-08  0.93827000000E+00  0.93827000000E+00 0.  1.
     999902    2    1    2    0    0  0.23956741310E-01 -0.98527875024E-03  0.71519146677E-02  0.10189090865E+01  0.10186018263E+01 0.  0.
     999903    2    3    3    0    0 -0.67478360644E-01 -0.10602148532E+00  0.13089374017E-01  0.12793869644E+00  0.20077196776E-01 0.  0.
         14    1    1    2    0    0 -0.23956741310E-01  0.98527875024E-03 -0.71519146677E-02  0.25020913489E-01  0.00000000000E+00 0. -1.
     999901    1    3    3    0    0  0.91435101954E-01  0.10503620657E+00 -0.59374593494E-02  0.89097039007E+00  0.88000000000E+00 0.  1.
        -11    1    4    4    0    0 -0.51038354424E-01 -0.73528892770E-01  0.17663364382E-01  0.91234134273E-01  0.51100000000E-03 0. -1.
         11    1    4    4    0    0 -0.16440006220E-01 -0.32492592548E-01 -0.45739903647E-02  0.36704562167E-01  0.51100000000E-03 0.  1.
</event>
<event>
 8    1  0.1108957E+005  0.1043930E+01  0.7957747E-01            NaN
         13   -1    0    0    0    0  0.00000000000E+00  0.00000000000E+00  0.74505805969E-08  0.10566000000E+00  0.10566000000E+00 0. -1.
     999900   -1    0    0    0    0 -0.00000000000E+00 -0.00000000000E+00 -0.74505805969E-08  0.93827000000E+00  0.93827000000E+00 0.  1.
     999902    2    1    2    0    0 -0.11630064486E-01  0.75799264187E-02  0.19557141693E-01  0.10199467668E+01  0.10196647545E+01 0.  0.
     999903    2    3    3    0    0  0.54592015085E-01 -0.47255857859E-01 -0.10126100903E+00  0.12754027162E+00  0.28272331376E-01 0.  0.
         14    1    1    2    0    0  0.11630064486E-01 -0.75799264187E-02 -0.19557141693E-01  0.23983233220E-01  0.00000000000E+00 0.  1.
     999901    1    3    3    0    0 -0.66222079571E-01  0.54835784278E-01  0.12081815073E+00  0.89240649516E+00  0.88000000000E+00 0. -1.
        -11    1    4    4    0    0  0.49609379922E-01 -0.30630017598E-01 -0.64889058801E-01  0.87236114238E-01  0.51100000000E-03 0. -1.
         11    1    4    4    0    0  0.49826351625E-02 -0.16625840261E-01 -0.36371950232E-01  0.40304157381E-01  0.51100000000E-03 0.  1.
</event>
<event>
 8    1  0.1108957E+005  0.1043930E+01  0.7957747E-01            NaN
         13   -1    0    0    0    0  0.00000000000E+00  0.00000000000E+00  0.74505805969E-08  0.10566000000E+00  0.10566000000E+00 0. -1.
     999900   -1    0    0    0    0 -0.00000000000E+00 -0.00000000000E+00 -0.74505805969E-08  0.93827000000E+00  0.93827000000E+00 0. -1.
     999902    2    1    2    0    0  0.33589921981E-02 -0.96342914490E-02 -0.20843255980E-01  0.10207234552E+01  0.10204596162E+01 0.  0.
     999903    2    3    3    0    0 -0.49101737515E-03  0.16785787051E-01  0.12525776817E+00  0.12827830152E+00  0.21995690721E-01 0.  0.
         14    1    1    2    0    0 -0.33589921981E-02  0.96342914490E-02  0.20843255980E-01  0.23206544770E-01  0.00000000000E+00 0. -1.
     999901    1    3    3    0    0  0.38500095732E-02 -0.26420078500E-01 -0.14610102415E+00  0.89244515371E+00  0.88000000000E+00 0. -1.
        -11    1    4    4    0    0  0.61785202027E-02  0.12903363647E-01  0.36851230988E-01  0.39534102388E-01  0.51100000000E-03 0. -1.
         11    1    4    4    0    0 -0.66695375779E-02  0.38824234041E-02  0.88406537179E-01  0.88744199134E-01  0.51100000000E-03 0.  1.
</event>
<event>
 8    1  0.1108957E+005  0.1043930E+01  0.7957747E-01            NaN
         13   -1    0    0    0    0  0.00000000000E+00  0.00000000000E+00  0.74505805969E-08  0.10566000000E+00  0.10566000000E+00 0. -1.
     999900   -1    0    0    0    0 -0.00000000000E+00 -0.00000000000E+00 -0.74505805969E-08  0.93827000000E+00  0.93827000000E+00 0. -1.
     999902    2    1    2    0    0  0.13346762452E-02 -0.21976169182E-01 -0.87042124942E-02  0.10202551887E+01  0.10199804672E+01 0.  0.
     999903    2    3    3    0    0  0.97114398326E-01 -0.72689936069E-01 -0.49911550249E-01  0.13264959729E+00  0.19741318186E-01 0.  0.
         14    1    1    2    0    0 -0.13346762452E-02  0.21976169182E-01  0.87042124942E-02  0.23674811250E-01  0.00000000000E+00 0. -1.
     999901    1    3    3    0    0 -0.95779722081E-01  0.50713766887E-01  0.41207337755E-01  0.88760559146E+00  0.88000000000E+00 0.  1.
        -11    1    4    4    0    0  0.69591604297E-01 -0.43356435459E-01 -0.39943405124E-01  0.91205858465E-01  0.51100000000E-03 0. -1.
         11    1    4    4    0    0  0.27522794029E-01 -0.29333500610E-01 -0.99681451249E-02  0.41443738821E-01  0.51100000000E-03 0.  1.
</event>
<event>
 8    1  0.1108957E+005  0.1043930E+01  0.7957747E-01            NaN
         13   -1    0    0    0    0  0.00000000000E+00  0.00000000000E+00  0.74505805969E-08  0.10566000000E+00  0.10566000000E+00 0.  1.
     999900   -1    0    0    0    0 -0.00000000000E+00 -0.00000000000E+00 -0.74505805969E-08  0.93827000000E+00  0.93827000000E+00 0.  1.
     999902    2    1    2    0    0 -0.13275480332E-01  0.19002032108E-01  0.39068506553E-02  0.10204229992E+01  0.10201522035E+01 0.  0.
     999903    2    3    3    0    0 -0.50181773069E-01 -0.95165265303E-01 -0.69096828972E-01  0.12928564537E+00  0.19125068782E-01 0.  0.
         14    1    1    2    0    0  0.13275480332E-01 -0.19002032108E-01 -0.39068506553E-02  0.23507000751E-01  0.00000000000E+00 0. -1.
     999901    1    3    3    0    0  0.36906292737E-01  0.11416729741E+00  0.73003679627E-01  0.89113735388E+00  0.88000000000E+00 0. -1.
        -11    1    4    4    0    0 -0.48625067834E-01 -0.83410768117E-01 -0.56017130609E-01  0.11162407224E+00  0.51100000000E-03 0. -1.
         11    1    4    4    0    0 -0.15567052347E-02 -0.11754497186E-01 -0.13079698363E-01  0.17661573133E-01  0.51100000000E-03 0.  1.
</event>
<event>
 8    1  0.1108957E+005  0.1043930E+01  0.7957747E-01            NaN
         13   -1    0    0    0    0  0.00000000000E+00  0.00000000000E+00  0.74505805969E-08  0.10566000000E+00  0.10566000000E+00 0. -1.
     999900   -1    0    0    0    0 -0.00000000000E+00 -0.00000000000E+00 -0.74505805969E-08  0.93827000000E+00  0.93827000000E+00 0.  1.
     999902    2    1    2    0    0  0.80933777259E-02  0.21112441574E-01  0.42335175917E-02  0.10209265085E+01  0.10206673185E+01 0.  0.
     999903    2    3    3    0    0  0.12731822794E+00 -0.51149194812E-02  0.28401837676E-01  0.13217089127E+00  0.20649129476E-01 0.  0.
         14    1    1    2    0    0 -0.80933777259E-02 -0.21112441574E-01 -0.42335175917E-02  0.23003491549E-01  0.00000000000E+00 0. -1.
     999901    1    3    3    0    0 -0.11922485022E+00  0.26227361055E-01 -0.24168320084E-01  0.88875561718E+00  0.88000000000E+00 0.  1.
        -11    1    4    4    0    0  0.47612653769E-01 -0.11908118119E-01  0.10224303569E-01  0.50135472278E-01  0.51100000000E-03 0. -1.
         11    1    4    4    0    0  0.79705574172E-01  0.67931986378E-02  0.18177534106E-01  0.82035418991E-01  0.51100000000E-03 0.  1.
</event>
<event>
 7    1  0.1108957E+005  0.1043930E+01  0.7957747E-01            NaN
         13   -1    0    0    0    0  0.00000000000E+00  0.00000000000E+00  0.74505805969E-08  0.10566000000E+00  0.10566000000E+00 0. -1.
     999900   -1    0    0    0    0 -0.00000000000E+00 -0.00000000000E+00 -0.74505805969E-08  0.93827000000E+00  0.93827000000E+00 0.  1.
     999902    2    1    2    0    0 -0.93362846897E-02 -0.16052719295E-01 -0.13806356455E-01  0.10207897431E+01  0.10205274265E+01 0.  0.
         14    1    1    2    0    0  0.93362846897E-02  0.16052719295E-01  0.13806356455E-01  0.23140256851E-01  0.00000000000E+00 0.  1.
     999901    1    3    3    0    0 -0.97408683759E-01 -0.83890583782E-01 -0.68482918027E-01  0.89197308916E+00  0.88000000000E+00 0.  1.
        -11    1    3    3    0    0  0.44251788909E-01  0.55494928064E-01  0.30348876635E-01  0.77196005702E-01  0.51100000000E-03 0. -1.
         11    1    3    3    0    0  0.43820610160E-01  0.12342936423E-01  0.24327684937E-01  0.51620648289E-01  0.51100000000E-03 0.  1.
</event>
<event>
 8    1  0.1108957E+005  0.1043930E+01  0.7957747E-01            NaN
         13   -1    0    0    0    0  0.00000000000E+00  0.00000000000E+00  0.74505805969E-08  0.10566000000E+00  0.10566000000E+00 0. -1.
     999900   -1    0    0    0    0 -0.00000000000E+00 -0.00000000000E+00 -0.74505805969E-08  0.93827000000E+00  0.93827000000E+00 0. -1.
     999902    2    1    2    0    0  0.18369901042E-02 -0.67025444927E-02 -0.21565944545E-01  0.10212719198E+01  0.10210205412E+01 0.  0.
     999903    2    3    3    0    0 -0.48716789291E-01 -0.45591124553E-01 -0.11460751296E+00  0.13407141272E+00  0.19707498192E-01 0.  0.
         14    1    1    2    0    0 -0.18369901042E-02  0.67025444927E-02  0.21565944545E-01  0.22658080224E-01  0.00000000000E+00 0. -1.
     999901    1    3    3    0    0  0.50553779395E-01  0.38888580061E-01  0.93041568413E-01  0.88720050706E+00  0.88000000000E+00 0.  1.
        -11    1    4    4    0    0 -0.77699178253E-02 -0.15250011815E-01 -0.42053721854E-01  0.45406069266E-01  0.51100000000E-03 0.  1.
         11    1    4    4    0    0 -0.40946871465E-01 -0.30341112738E-01 -0.72553791104E-01  0.88665343452E-01  0.51100000000E-03 0. -1.
</event>
<event>
 8    1  0.1108957E+005  0.1043930E+01  0.7957747E-01            NaN
         13   -1    0    0    0    0  0.00000000000E+00  0.00000000000E+00  0.74505805969E-08  0.10566000000E+00  0.10566000000E+00 0. -1.
     999900   -1    0    0    0    0 -0.00000000000E+00 -0.00000000000E+00 -0.74505805969E-08  0.93827000000E+00  0.93827000000E+00 0. -1.
     999902    2    1    2    0    0  0.22744976035E-02 -0.34693229220E-02  0.23971554005E-01  0.10196021365E+01  0.10193118619E+01 0.  0.
     999903    2    3    3    0    0  0.26578195348E-01  0.12511301464E+00  0.11215473800E-01  0.12983429890E+00  0.19274112625E-01 0.  0.
         14    1    1    2    0    0 -0.22744976035E-02  0.34693229220E-02 -0.23971554005E-01  0.24327863496E-01  0.00000000000E+00 0.  1.
     999901    1    3    3    0    0 -0.24303697745E-01 -0.12858233756E+00  0.12756080205E-01  0.88976783761E+00  0.88000000000E+00 0. -1.
        -11    1    4    4    0    0  0.25518216614E-01  0.80339030060E-01  0.11261567941E-01  0.85044830317E-01  0.51100000000E-03 0. -1.
         11    1    4    4    0    0  0.10599787339E-02  0.44773984579E-01 -0.46094141342E-04  0.44789468580E-01  0.51100000000E-03 0.  1.
</event>
<event>
 8    1  0.1108957E+005  0.1043930E+01  0.7957747E-01            NaN
         13   -1    0    0    0    0  0.00000000000E+00  0.00000000000E+00  0.74505805969E-08  0.10566000000E+00  0.10566000000E+00 0.  1.
     999900   -1    0    0    0    0 -0.00000000000E+00 -0.00000000000E+00 -0.74505805969E-08  0.93827000000E+00  0.93827000000E+00 0. -1.
     999902    2    1    2    0    0  0.11146608311E-01 -0.19555345137E-01  0.84540590882E-03  0.10214050558E+01  0.10211566554E+01 0.  0.
     999903    2    3    3    0    0  0.21583038981E-01  0.29551085935E-01 -0.12428356940E+00  0.13113676976E+00  0.20281827076E-01 0.  0.
         14    1    1    2    0    0 -0.11146608311E-01  0.19555345137E-01 -0.84540590882E-03  0.22524944204E-01  0.00000000000E+00 0.  1.
     999901    1    3    3    0    0 -0.10436430670E-01 -0.49106431072E-01  0.12512897531E+00  0.89026828603E+00  0.88000000000E+00 0.  1.
        -11    1    4    4    0    0  0.15942817129E-02  0.16666472600E-01 -0.68007652046E-01  0.70040094952E-01  0.51100000000E-03 0. -1.
         11    1    4    4    0    0  0.19988757268E-01  0.12884613336E-01 -0.56275917351E-01  0.61096674809E-01  0.51100000000E-03 0.  1.
</event>
<event>
 8    1  0.1108957E+005  0.1043930E+01  0.7957747E-01            NaN
         13   -1    0    0    0    0  0.00000000000E+00  0.00000000000E+00  0.74505805969E-08  0.10566000000E+00  0.10566000000E+00 0.  1.
     999900   -1    0    0    0    0 -0.00000000000E+00 -0.00000000000E+00 -0.74505805969E-08  0.93827000000E+00  0.93827000000E+00 0.  1.
     999902    2    1    2    0    0 -0.14925481568E-02  0.60080428887E-02 -0.22721038995E-01  0.10203806923E+01  0.10201089096E+01 0.  0.
     999903    2    3    3    0    0 -0.12684573866E+00  0.19388357746E-01 -0.19491014325E-01  0.13139087896E+00  0.20442935244E-01 0.  0.
         14    1    1    2    0    0  0.14925481568E-02 -0.60080428887E-02  0.22721038995E-01  0.23549307683E-01  0.00000000000E+00 0.  1.
     999901    1    3    3    0    0  0.12535319050E+00 -0.13380314857E-01 -0.32300246699E-02  0.88898981336E+00  0.88000000000E+00 0.  1.
        -11    1    4    4    0    0 -0.49950851408E-01  0.87358322937E-02  0.22868693246E-02  0.50763108795E-01  0.51100000000E-03 0. -1.
         11    1    4    4    0    0 -0.76894887253E-01  0.10652525452E-01 -0.21777883650E-01  0.80627770163E-01  0.51100000000E-03 0.  1.
</event>
<event>
 8    1  0.1108957E+005  0.1043930E+01  0.7957747E-01            NaN
         13   -1    0    0    0    0  0.00000000000E+00  0.00000000000E+00  0.74505805969E-08  0.10566000000E+00  0.10566000000E+00 0. -1.
     999900   -1    0    0    0    0 -0.00000000000E+00 -0.00000000000E+00 -0.74505805969E-08  0.93827000000E+00  0.93827000000E+00 0. -1.
     999902    2    1    2    0    0 -0.51153558082E-02 -0.21125095185E-01 -0.73538092676E-02  0.10209840848E+01  0.10207262054E+01 0.  0.
     999903    2    3    3    0    0 -0.10464013109E+00  0.44728016670E-01 -0.62345678641E-01  0.13122798403E+00  0.19586925199E-01 0.  0.
         14    1    1    2    0    0  0.51153558082E-02  0.21125095185E-01  0.73538092676E-02  0.22945915157E-01  0.00000000000E+00 0.  1.
     999901    1    3    3    0    0  0.99524775278E-01 -0.65853111855E-01  0.54991869374E-01  0.88975610081E+00  0.88000000000E+00 0.  1.
        -11    1    4    4    0    0 -0.26029243290E-01  0.11670421843E-01 -0.64146034913E-02  0.29242580447E-01  0.51100000000E-03 0.  1.
         11    1    4    4    0    0 -0.78610887796E-01  0.33057594826E-01 -0.55931075150E-01  0.10198540358E+00  0.51100000000E-03 0. -1.
</event>
<event>
 8    1  0.1108957E+005  0.1043930E+01  0.7957747E-01            NaN
         13   -1    0    0    0    0  0.00000000000E+00  0.00000000000E+00  0.74505805969E-08  0.10566000000E+00  0.10566000000E+00 0.  1.
     999900   -1    0    0    0    0 -0.00000000000E+00 -0.00000000000E+00 -0.74505805969E-08  0.93827000000E+00  0.93827000000E+00 0.  1.
     999902    2    1    2    0    0  0.15392233204E-01 -0.16820650630E-01 -0.41631200271E-02  0.10207527116E+01  0.10204895450E+01 0.  0.
     999903    2    3    3    0    0 -0.78573633887E-01  0.90137515169E-01  0.41544480560E-01  0.12813923522E+00  0.19877931351E-01 0.  0.
         14    1    1    2    0    0 -0.15392233204E-01  0.16820650630E-01  0.41631200271E-02  0.23177288430E-01  0.00000000000E+00 0. -1.
     999901    1    3    3    0    0  0.93965867091E-01 -0.10695816580E+00 -0.45707600587E-01  0.89261347635E+00  0.88000000000E+00 0. -1.
        -11    1    4    4    0    0 -0.51132665861E-01  0.64297114486E-01  0.37239385243E-01  0.90198122949E-01  0.51100000000E-03 0. -1.
         11    1    4    4    0    0 -0.27440968027E-01  0.25840400683E-01  0.43050953169E-02  0.37941112271E-01  0.51100000000E-03 0.  1.
</event>
<event>
 8    1  0.1108957E+005  0.1043930E+01  0.7957747E-01            NaN
         13   -1    0    0    0    0  0.00000000000E+00  0.00000000000E+00  0.74505805969E-08  0.10566000000E+00  0.10566000000E+00 0. -1.
     999900   -1    0    0    0    0 -0.00000000000E+00 -0.00000000000E+00 -0.74505805969E-08  0.93827000000E+00  0.93827000000E+00 0.  1.
     999902    2    1    2    0    0 -0.10075349725E-01 -0.19674949882E-01 -0.76926062318E-02  0.10205250322E+01  0.10202566094E+01 0.  0.
     999903    2    3    3    0    0  0.45445151536E-01  0.11009020718E-01  0.11884409855E+00  0.12921388020E+00  0.19642981928E-01 0.  0.
         14    1    1    2    0    0  0.10075349725E-01  0.19674949882E-01  0.76926062318E-02  0.23404967754E-01  0.00000000000E+00 0. -1.
     999901    1    3    3    0    0 -0.55520501261E-01 -0.30683970600E-01 -0.12653670478E+00  0.89131115205E+00  0.88000000000E+00 0.  1.
        -11    1    4    4    0    0  0.18739233874E-01  0.13544593484E-01  0.44037648155E-01  0.49741235156E-01  0.51100000000E-03 0.  1.
         11    1    4    4    0    0  0.26705917662E-01 -0.25355727661E-02  0.74806450398E-01  0.79472645039E-01  0.51100000000E-03 0. -1.
</event>
<event>
 8    1  0.1108957E+005  0.1043930E+01  0.7957747E-01            NaN
         13   -1    0    0    0    0  0.00000000000E+00  0.00000000000E+00  0.74505805969E-08  0.10566000000E+00  0.10566000000E+00 0. -1.
     999900   -1    0    0    0    0 -0.00000000000E+00 -0.00000000000E+00 -0.74505805969E-08  0.93827000000E+00  0.93827000000E+00 0.  1.
     999902    2    1    2    0    0 -0.78555582803E-02  0.78616268314E-02  0.20988861984E-01  0.10201803200E+01  0.10199038376E+01 0.  0.
     999903    2    3    3    0    0 -0.64174010280E-01 -0.49567119463E-01 -0.97625116633E-01  0.12858674395E+00  0.20704695022E-01 0.  0.
         14    1    1    2    0    0  0.78555582803E-02 -0.78616268314E-02 -0.20988861984E-01  0.23749679992E-01  0.00000000000E+00 0.  1.
     999901    1    3    3    0    0  0.56318451999E-01  0.57428746294E-01  0.11861397862E+00  0.89159357605E+00  0.88000000000E+00 0. -1.
        -11    1    4    4    0    0 -0.88706497429E-02 -0.48420469321E-02 -0.24824423704E-01  0.26807591808E-01  0.51100000000E-03 0.  1.
         11    1    4    4    0    0 -0.55303360537E-01 -0.44725072531E-01 -0.72800692929E-01  0.10177915215E+00  0.51100000000E-03 0. -1.
</event>
<event>
 8    1  0.1108957E+005  0.1043930E+01  0.7957747E-01            NaN
         13   -1    0    0    0    0  0.00000000000E+00  0.00000000000E+00  0.74505805969E-08  0.10566000000E+00  0.10566000000E+00 0. -1.
     999900   -1    0    0    0    0 -0.00000000000E+00 -0.00000000000E+00 -0.74505805969E-08  0.93827000000E+00  0.93827000000E+00 0. -1.
     999902    2    1    2    0    0  0.22576021184E-03 -0.25252590399E-01 -0.46799294386E-03  0.10186720645E+01  0.10183588816E+01 0.  0.
     999903    2    3    3    0    0  0.30919508898E-01 -0.77455645577E-01 -0.99082616933E-01  0.13109552736E+00  0.20329270837E-01 0.  0.
         14    1    1    2    0    0 -0.22576021184E-03  0.25252590399E-01  0.46799294386E-03  0.25257935524E-01  0.00000000000E+00 0. -1.
     999901    1    3    3    0    0 -0.30693748687E-01  0.52203055178E-01  0.98614623989E-01  0.88757653712E+00  0.88000000000E+00 0.  1.
        -11    1    4    4    0    0  0.24891402033E-02 -0.79447608191E-02 -0.21758466595E-01  0.23302511302E-01  0.51100000000E-03 0.  1.
         11    1    4    4    0    0  0.28430368695E-01 -0.69510884758E-01 -0.77324150339E-01  0.10779301606E+00  0.51100000000E-03 0. -1.
</event>
<event>
 8    1  0.1198756E+005  0.1043930E+01  0.7957747E-01            NaN
         13   -1    0    0    0    0  0.00000000000E+00  0.00000000000E+00  0.74505805969E-08  0.10566000000E+00  0.10566000000E+00 0.  1.
     999900   -1    0    0    0    0 -0.00000000000E+00 -0.00000000000E+00 -0.74505805969E-08  0.93827000000E+00  0.93827000000E+00 0. -1.
     999902    2    1    2    0    0  0.21481429356E-01 -0.89047418827E-02 -0.72126610332E-03  0.10206648660E+01  0.10203996777E+01 0.  0.
     999903    2    3    3    0    0 -0.68756349370E-01  0.10352335264E+00 -0.26039153951E-01  0.12857522443E+00  0.20224506873E-01 0.  0.
         14    1    1    2    0    0 -0.21481429356E-01  0.89047418827E-02  0.72126610332E-03  0.23265133998E-01  0.00000000000E+00 0.  1.
     999901    1    3    3    0    0  0.90237778726E-01 -0.11242809453E+00  0.25317887847E-01  0.89208964157E+00  0.88000000000E+00 0. -1.
        -11    1    4    4    0    0 -0.53283925714E-01  0.66852145403E-01 -0.11805319948E-01  0.86301870110E-01  0.51100000000E-03 0.  1.
         11    1    4    4    0    0 -0.15472423657E-01  0.36671207241E-01 -0.14233834002E-01  0.42273354324E-01  0.51100000000E-03 0. -1.
</event>
<event>
 7    1  0.1108957E+005  0.1043930E+01  0.7957747E-01            NaN
         13   -1    0    0    0    0  0.00000000000E+00  0.00000000000E+00  0.74505805969E-08  0.10566000000E+00  0.10566000000E+00 0.  1.
     999900   -1    0    0    0    0 -0.00000000000E+00 -0.00000000000E+00 -0.74505805969E-08  0.93827000000E+00  0.93827000000E+00 0. -1.
     999902    2    1    2    0    0 -0.23559785634E-03 -0.20620277078E-01 -0.10734322795E-01  0.10206818384E+01  0.10204170413E+01 0.  0.
         14    1    1    2    0    0  0.23559785634E-03  0.20620277078E-01  0.10734322795E-01  0.23248161626E-01  0.00000000000E+00 0. -1.
     999901    1    3    3    0    0  0.11057718936E+00  0.32611387696E-01  0.18698183124E-01  0.88771641838E+00  0.88000000000E+00 0.  1.
        -11    1    3    3    0    0 -0.14655922576E-01 -0.10594463447E-01 -0.20587542760E-01  0.27407056758E-01  0.51100000000E-03 0. -1.
         11    1    3    3    0    0 -0.96156864638E-01 -0.42637201327E-01 -0.88449631601E-02  0.10555836323E+00  0.51100000000E-03 0.  1.
</event>
<event>
 8    1  0.1108957E+005  0.1043930E+01  0.7957747E-01            NaN
         13   -1    0    0    0    0  0.00000000000E+00  0.00000000000E+00  0.74505805969E-08  0.10566000000E+00  0.10566000000E+00 0. -1.
     999900   -1    0    0    0    0 -0.00000000000E+00 -0.00000000000E+00 -0.74505805969E-08  0.93827000000E+00  0.93827000000E+00 0. -1.
     999902    2    1    2    0    0  0.14478341969E-01  0.27126365622E-02  0.19223531741E-01  0.10197117227E+01  0.10194240886E+01 0.  0.
     999903    2    3    3    0    0  0.11656364886E+00  0.56975568493E-01  0.15221928045E-01  0.13214094326E+00  0.19905329722E-01 0.  0.
         14    1    1    2    0    0 -0.14478341969E-01 -0.27126365622E-02 -0.19223531741E-01  0.24218277311E-01  0.00000000000E+00 0.  1.
     999901    1    3    3    0    0 -0.10208530689E+00 -0.54262931931E-01  0.40016036961E-02  0.88757077943E+00  0.88000000000E+00 0. -1.
        -11    1    4    4    0    0  0.75999387025E-01  0.28654012073E-01  0.35155320583E-02  0.81299319325E-01  0.51100000000E-03 0. -1.
         11    1    4    4    0    0  0.40564261836E-01  0.28321556420E-01  0.11706395987E-01  0.50841623935E-01  0.51100000000E-03 0.  1.
</event>
<event>
 8    1  0.1108957E+005  0.1043930E+01  0.7957747E-01            NaN
         13   -1    0    0    0    0  0.00000000000E+00  0.00000000000E+00  0.74505805969E-08  0.10566000000E+00  0.10566000000E+00 0.  1.
     999900   -1    0    0    0    0 -0.00000000000E+00 -0.00000000000E+00 -0.74505805969E-08  0.93827000000E+00  0.93827000000E+00 0. -1.
     999902    2    1    2    0    0 -0.12476176117E-01  0.11337031805E-01 -0.17110104573E-01  0.10199104467E+01  0.10196275695E+01 0.  0.
     999903    2    3    3    0    0 -0.90016496779E-01  0.59648875908E-01  0.71036978070E-01  0.13080053014E+00  0.20039170188E-01 0.  0.
         14    1    1    2    0    0  0.12476176117E-01 -0.11337031805E-01  0.17110104573E-01  0.24019553267E-01  0.00000000000E+00 0.  1.
     999901    1    3    3    0    0  0.77540320661E-01 -0.48311844103E-01 -0.88147082643E-01  0.88910991659E+00  0.88000000000E+00 0. -1.
        -11    1    4    4    0    0 -0.19878747844E-01  0.44520683872E-02  0.10226304746E-01  0.22799648210E-01  0.51100000000E-03 0. -1.
         11    1    4    4    0    0 -0.70137748935E-01  0.55196807521E-01  0.60810673324E-01  0.10800088193E+00  0.51100000000E-03 0.  1.
</event>
<event>
 8    1  0.1108957E+005  0.1043930E+01  0.7957747E-01            NaN
         13   -1    0    0    0    0  0.00000000000E+00  0.00000000000E+00  0.74505805969E-08  0.10566000000E+00  0.10566000000E+00 0.  1.
     999900   -1    0    0    0    0 -0.00000000000E+00 -0.00000000000E+00 -0.74505805969E-08  0.93827000000E+00  0.93827000000E+00 0. -1.
     999902    2    1    2    0    0  0.10259883849E-02  0.71093303456E-02  0.23328313075E-01  0.10195208742E+01  0.10192286336E+01 0.  0.
     999903    2    3    3    0    0 -0.45088107836E-01 -0.44478542633E-01  0.11423766184E+00  0.13213576718E+00  0.19958440897E-01 0.  0.
         14    1    1    2    0    0 -0.10259883849E-02 -0.71093303456E-02 -0.23328313075E-01  0.24409125774E-01  0.00000000000E+00 0. -1.
     999901    1    3    3    0    0  0.46114096221E-01  0.51587872979E-01 -0.90909348765E-01  0.88738510704E+00  0.88000000000E+00 0. -1.
        -11    1    4    4    0    0 -0.15691776086E-01 -0.29223598139E-01  0.53392639787E-01  0.62859252536E-01  0.51100000000E-03 0. -1.
         11    1    4    4    0    0 -0.29396331751E-01 -0.15254944494E-01  0.60845022053E-01  0.69276514647E-01  0.51100000000E-03 0.  1.
</event>
<event>
 8    1  0.1108957E+005  0.1043930E+01  0.7957747E-01            NaN
         13   -1    0    0    0    0  0.00000000000E+00  0.00000000000E+00  0.74505805969E-08  0.10566000000E+00  0.10566000000E+00 0. -1.
     999900   -1    0    0    0    0 -0.00000000000E+00 -0.00000000000E+00 -0.74505805969E-08  0.93827000000E+00  0.93827000000E+00 0. -1.
     999902    2    1    2    0    0 -0.11863070682E-01  0.22560706266E-01  0.10304242897E-01  0.10164364492E+01  0.10160645452E+01 0.  0.
     999903    2    3    3    0    0  0.10529216243E+00  0.13796802001E-01  0.66063263726E-01  0.12687969269E+00  0.21384816779E-01 0.  0.
         14    1    1    2    0    0  0.11863070682E-01 -0.22560706266E-01 -0.10304242897E-01  0.27493550788E-01  0.00000000000E+00 0.  1.
     999901    1    3    3    0    0 -0.11715523311E+00  0.87639042653E-02 -0.55759020829E-01  0.88955675652E+00  0.88000000000E+00 0. -1.
        -11    1    4    4    0    0  0.49238550686E-01  0.83746078146E-03  0.19908464480E-01  0.53120093121E-01  0.51100000000E-03 0.  1.
         11    1    4    4    0    0  0.56053611746E-01  0.12959341220E-01  0.46154799246E-01  0.73759599572E-01  0.51100000000E-03 0. -1.
</event>
<event>
 8    1  0.1108957E+005  0.1043930E+01  0.7957747E-01            NaN
         13   -1    0    0    0    0  0.00000000000E+00  0.00000000000E+00  0.74505805969E-08  0.10566000000E+00  0.10566000000E+00 0.  1.
     999900   -1    0    0    0    0 -0.00000000000E+00 -0.00000000000E+00 -0.74505805969E-08  0.93827000000E+00  0.93827000000E+00 0. -1.
     999902    2    1    2    0    0 -0.23403667946E-01 -0.67464880539E-02  0.42974052217E-02  0.10191971379E+01  0.10188969975E+01 0.  0.
     999903    2    3    3    0    0 -0.10222576878E+00  0.91701883169E-02  0.80915834166E-01  0.13221537498E+00  0.19983318177E-01 0.  0.
         14    1    1    2    0    0  0.23403667946E-01  0.67464880539E-02 -0.42974052217E-02  0.24732862067E-01  0.00000000000E+00 0. -1.
     999901    1    3    3    0    0  0.78822100830E-01 -0.15916676371E-01 -0.76618428945E-01  0.88698176296E+00  0.88000000000E+00 0. -1.
        -11    1    4    4    0    0 -0.50004650161E-01  0.81698444477E-02  0.28130952181E-01  0.57955353400E-01  0.51100000000E-03 0. -1.
         11    1    4    4    0    0 -0.52221118615E-01  0.10003438691E-02  0.52784881985E-01  0.74260021576E-01  0.51100000000E-03 0.  1.
</event>
<event>
 8    1  0.1108957E+005  0.1043930E+01  0.7957747E-01            NaN
         13   -1    0    0    0    0  0.00000000000E+00  0.00000000000E+00  0.74505805969E-08  0.10566000000E+00  0.10566000000E+00 0. -1.
     999900   -1    0    0    0    0 -0.00000000000E+00 -0.00000000000E+00 -0.74505805969E-08  0.93827000000E+00  0.93827000000E+00 0. -1.
     999902    2    1    2    0    0  0.23365691401E-01  0.11080336069E-01 -0.11968910073E-02  0.10180425140E+01  0.10177133184E+01 0.  0.
     999903    2    3    3    0    0 -0.11362684999E+00  0.10590853924E-01 -0.48805518524E-01  0.12617157190E+00  0.22672884496E-01 0.  0.
         14    1    1    2    0    0 -0.23365691401E-01 -0.11080336069E-01  0.11968910073E-02  0.25887485975E-01  0.00000000000E+00 0. -1.
     999901    1    3    3    0    0  0.13699254139E+00  0.48948214503E-03  0.47608627516E-01  0.89187094212E+00  0.88000000000E+00 0.  1.
        -11    1    4    4    0    0 -0.38651137328E-01 -0.67232667609E-02 -0.19674760923E-01  0.43891571754E-01  0.51100000000E-03 0.  1.
         11    1    4    4    0    0 -0.74975712665E-01  0.17314120685E-01 -0.29130757601E-01  0.82280000147E-01  0.51100000000E-03 0. -1.
</event>
<event>
 8    1  0.1108957E+005  0.1043930E+01  0.7957747E-01            NaN
         13   -1    0    0    0    0  0.00000000000E+00  0.00000000000E+00  0.74505805969E-08  0.10566000000E+00  0.10566000000E+00 0.  1.
     999900   -1    0    0    0    0 -0.00000000000E+00 -0.00000000000E+00 -0.74505805969E-08  0.93827000000E+00  0.93827000000E+00 0.  1.
     999902    2    1    2    0    0  0.73635733537E-02  0.53131830700E-02  0.19950944938E-01  0.10220098647E+01  0.10217747654E+01 0.  0.
     999903    2    3    3    0    0 -0.12950943279E+00  0.39778613740E-03  0.31088528518E-03  0.13119893479E+00  0.20981239859E-01 0.  0.
         14    1    1    2    0    0 -0.73635733537E-02 -0.53131830700E-02 -0.19950944938E-01  0.21920135282E-01  0.00000000000E+00 0. -1.
     999901    1    3    3    0    0  0.13687300614E+00  0.49153969325E-02  0.19640059652E-01  0.89081092993E+00  0.88000000000E+00 0.  1.
        -11    1    4    4    0    0 -0.23241008249E-01 -0.26418463553E-02  0.76962615711E-02  0.24629603728E-01  0.51100000000E-03 0. -1.
         11    1    4    4    0    0 -0.10626842454E+00  0.30396324927E-02 -0.73853762859E-02  0.10656933106E+00  0.51100000000E-03 0.  1.
</event>
<event>
 8    1  0.1108957E+005  0.1043930E+01  0.7957747E-01            NaN
         13   -1    0    0    0    0  0.00000000000E+00  0.00000000000E+00  0.74505805969E-08  0.10566000000E+00  0.10566000000E+00 0. -1.
     999900   -1    0    0    0    0 -0.00000000000E+00 -0.00000000000E+00 -0.74505805969E-08  0.93827000000E+00  0.93827000000E+00 0.  1.
     999902    2    1    2    0    0 -0.18611224987E-01  0.28913020370E-02  0.14049695160E-01  0.10204325266E+01  0.10201619529E+01 0.  0.
     999903    2    3    3    0    0 -0.11891995050E+00  0.40854668980E-01 -0.36932918059E-01  0.13245601535E+00  0.19222303803E-01 0.  0.
         14    1    1    2    0    0  0.18611224987E-01 -0.28913020370E-02 -0.14049695160E-01  0.23497473419E-01  0.00000000000E+00 0.  1.
     999901    1    3    3    0    0  0.10030872551E+00 -0.37963366943E-01  0.50982613219E-01  0.88797651123E+00  0.88000000000E+00 0. -1.
        -11    1    4    4    0    0 -0.66365411625E-01  0.13948878809E-01 -0.14897364406E-01  0.69434369497E-01  0.51100000000E-03 0. -1.
         11    1    4    4    0    0 -0.52554538870E-01  0.26905790171E-01 -0.22035553653E-01  0.63021645856E-01  0.51100000000E-03 0.  1.
</event>
<event>
 8    1  0.1108957E+005  0.1043930E+01  0.7957747E-01            NaN
         13   -1    0    0    0    0  0.00000000000E+00  0.00000000000E+00  0.74505805969E-08  0.10566000000E+00  0.10566000000E+00 0. -1.
     999900   -1    0    0    0    0 -0.00000000000E+00 -0.00000000000E+00 -0.74505805969E-08  0.93827000000E+00  0.93827000000E+00 0. -1.
     999902    2    1    2    0    0  0.15705210679E-01  0.16225616034E-01  0.43849376362E-02  0.10209266973E+01  0.10206675116E+01 0.  0.
     999903    2    3    3    0    0  0.12653015528E+00  0.32439960576E-01  0.17153864229E-01  0.13373555733E+00  0.22993760013E-01 0.  0.
         14    1    1    2    0    0 -0.15705210679E-01 -0.16225616034E-01 -0.43849376362E-02  0.23003302724E-01  0.00000000000E+00 0. -1.
     999901    1    3    3    0    0 -0.11082494460E+00 -0.16214344543E-01 -0.12768926593E-01  0.88719113995E+00  0.88000000000E+00 0.  1.
        -11    1    4    4    0    0  0.47930371217E-01  0.21568981680E-01  0.13663242448E-01  0.54309177594E-01  0.51100000000E-03 0. -1.
         11    1    4    4    0    0  0.78599784060E-01  0.10870978896E-01  0.34906217803E-02  0.79426379735E-01  0.51100000000E-03 0.  1.
</event>
<event>
 8    1  0.1108957E+005  0.1043930E+01  0.7957747E-01            NaN
         13   -1    0    0    0    0  0.00000000000E+00  0.00000000000E+00  0.74505805969E-08  0.10566000000E+00  0.10566000000E+00 0. -1.
     999900   -1    0    0    0    0 -0.00000000000E+00 -0.00000000000E+00 -0.74505805969E-08  0.93827000000E+00  0.93827000000E+00 0.  1.
     999902    2    1    2    0    0 -0.18579296997E-02 -0.19187375839E-01  0.13298788819E-01  0.10205106687E+01  0.10202419124E+01 0.  0.
     999903    2    3    3    0    0  0.88469795262E-03 -0.88227058198E-01 -0.94869295062E-01  0.13119951162E+00  0.20696188398E-01 0.  0.
         14    1    1    2    0    0  0.18579296997E-02  0.19187375839E-01 -0.13298788819E-01  0.23419331297E-01  0.00000000000E+00 0.  1.
     999901    1    3    3    0    0 -0.27426276523E-02  0.69039682359E-01  0.10816808388E+00  0.88931115709E+00  0.88000000000E+00 0. -1.
        -11    1    4    4    0    0 -0.98629610907E-03 -0.91187437957E-02 -0.21110584745E-01  0.23022644890E-01  0.51100000000E-03 0. -1.
         11    1    4    4    0    0  0.18709940617E-02 -0.79108314402E-01 -0.73758710317E-01  0.10817686673E+00  0.51100000000E-03 0.  1.
</event>
<event>
 8    1  0.1108957E+005  0.1043930E+01  0.7957747E-01            NaN
         13   -1    0    0    0    0  0.00000000000E+00  0.00000000000E+00  0.74505805969E-08  0.10566000000E+00  0.10566000000E+00 0. -1.
     999900   -1    0    0    0    0 -0.00000000000E+00 -0.00000000000E+00 -0.74505805969E-08  0.93827000000E+00  0.93827000000E+00 0. -1.
     999902    2    1    2    0    0 -0.10185873267E-01 -0.10924941658E-01 -0.16118538709E-01  0.10219547035E+01  0.10217184066E+01 0.  0.
     999903    2    3    3    0    0  0.44689686251E-02  0.12799672161E+00  0.14792466977E-01  0.13040017173E+00  0.19551349977E-01 0.  0.
         14    1    1    2    0    0  0.10185873267E-01  0.10924941658E-01  0.16118538709E-01  0.21975296461E-01  0.00000000000E+00 0. -1.
     999901    1    3    3    0    0 -0.14654841893E-01 -0.13892166326E+00 -0.30911005685E-01  0.89155453181E+00  0.88000000000E+00 0.  1.
        -11    1    4    4    0    0  0.44631018941E-02  0.82854386298E-01  0.26967836163E-03  0.82976517490E-01  0.51100000000E-03 0.  1.
         11    1    4    4    0    0  0.58667310351E-05  0.45142335308E-01  0.14522788615E-01  0.47423654241E-01  0.51100000000E-03 0. -1.
</event>
<event>
 8    1  0.1108957E+005  0.1043930E+01  0.7957747E-01            NaN
         13   -1    0    0    0    0  0.00000000000E+00  0.00000000000E+00  0.74505805969E-08  0.10566000000E+00  0.10566000000E+00 0. -1.
     999900   -1    0    0    0    0 -0.00000000000E+00 -0.00000000000E+00 -0.74505805969E-08  0.93827000000E+00  0.93827000000E+00 0. -1.
     999902    2    1    2    0    0 -0.17294605863E-01  0.15726444927E-01  0.85677489709E-02  0.10190335990E+01  0.10187294268E+01 0.  0.
     999903    2    3    3    0    0  0.86451600739E-02  0.10729895509E+00  0.72945914990E-01  0.13156363083E+00  0.20001947096E-01 0.  0.
         14    1    1    2    0    0  0.17294605863E-01 -0.15726444927E-01 -0.85677489709E-02  0.24896401034E-01  0.00000000000E+00 0.  1.
     999901    1    3    3    0    0 -0.25939765937E-01 -0.91572510167E-01 -0.64378166019E-01  0.88746996813E+00  0.88000000000E+00 0. -1.
        -11    1    4    4    0    0  0.80387079164E-02  0.70363158043E-01  0.36529904972E-01  0.79688706307E-01  0.51100000000E-03 0. -1.
         11    1    4    4    0    0  0.60645215750E-03  0.36935797052E-01  0.36416010018E-01  0.51874924527E-01  0.51100000000E-03 0.  1.
</event>
<event>
 8    1  0.1134562E+005  0.1043930E+01  0.7957747E-01            NaN
         13   -1    0    0    0    0  0.00000000000E+00  0.00000000000E+00  0.74505805969E-08  0.10566000000E+00  0.10566000000E+00 0.  1.
     999900   -1    0    0    0    0 -0.00000000000E+00 -0.00000000000E+00 -0.74505805969E-08  0.93827000000E+00  0.93827000000E+00 0. -1.
     999902    2    1    2    0    0 -0.22203884610E-01 -0.37037444230E-02 -0.74663749074E-02  0.10202134031E+01  0.10199376995E+01 0.  0.
     999903    2    3    3    0    0  0.11744981343E+00  0.37065278461E-01  0.26276773706E-01  0.12763070738E+00  0.20756567336E-01 0.  0.
         14    1    1    2    0    0  0.22203884610E-01  0.37037444230E-02  0.74663749074E-02  0.23716596905E-01  0.00000000000E+00 0.  1.
     999901    1    3    3    0    0 -0.13965369804E+00 -0.40769022884E-01 -0.33743148614E-01  0.89258269571E+00  0.88000000000E+00 0.  1.
        -11    1    4    4    0    0  0.27444821809E-01  0.18115977730E-01  0.57289016975E-02  0.33383953165E-01  0.51100000000E-03 0. -1.
         11    1    4    4    0    0  0.90004991626E-01  0.18949300731E-01  0.20547872009E-01  0.94246754219E-01  0.51100000000E-03 0.  1.
</event>
<event>
 8    1  0.1108957E+005  0.1043930E+01  0.7957747E-01            NaN
         13   -1    0    0    0    0  0.00000000000E+00  0.00000000000E+00  0.74505805969E-08  0.10566000000E+00  0.10566000000E+00 0. -1.
     999900   -1    0    0    0    0 -0.00000000000E+00 -0.00000000000E+00 -0.74505805969E-08  0.93827000000E+00  0.93827000000E+00 0. -1.
     999902    2    1    2    0    0  0.15287173738E-01 -0.17462070485E-01  0.72621546587E-02  0.10196120956E+01  0.10193220614E+01 0.  0.
     999903    2    3    3    0    0 -0.80957826345E-01  0.89393734949E-01 -0.34158252125E-01  0.12697728036E+00  0.20273974548E-01 0.  0.
         14    1    1    2    0    0 -0.15287173738E-01  0.17462070485E-01 -0.72621546587E-02  0.24317904450E-01  0.00000000000E+00 0.  1.
     999901    1    3    3    0    0  0.96245000083E-01 -0.10685580543E+00  0.41420406784E-01  0.89263481519E+00  0.88000000000E+00 0. -1.
        -11    1    4    4    0    0 -0.17427545040E-01  0.16678447086E-01  0.11728159985E-02  0.24156294039E-01  0.51100000000E-03 0. -1.
         11    1    4    4    0    0 -0.63530281305E-01  0.72715287863E-01 -0.35331068124E-01  0.10282098632E+00  0.51100000000E-03 0.  1.
</event>
<event>
 8    1  0.1108957E+005  0.1043930E+01  0.7957747E-01            NaN
         13   -1    0    0    0    0  0.00000000000E+00  0.00000000000E+00  0.74505805969E-08  0.10566000000E+00  0.10566000000E+00 0.  1.
     999900   -1    0    0    0    0 -0.00000000000E+00 -0.00000000000E+00 -0.74505805969E-08  0.93827000000E+00  0.93827000000E+00 0. -1.
     999902    2    1    2    0    0  0.20545339186E-01  0.61389145256E-02  0.10421067146E-01  0.10200889456E+01  0.10198103064E+01 0.  0.
     999903    2    3    3    0    0 -0.68600337357E-01 -0.25062241678E-01  0.10556509742E+00  0.12993567213E+00  0.20128756942E-01 0.  0.
         14    1    1    2    0    0 -0.20545339186E-01 -0.61389145256E-02 -0.10421067146E-01  0.23841054387E-01  0.00000000000E+00 0. -1.
     999901    1    3    3    0    0  0.89145676544E-01  0.31201156204E-01 -0.95144030271E-01  0.89015327348E+00  0.88000000000E+00 0. -1.
        -11    1    4    4    0    0 -0.28883903057E-01 -0.18332301288E-03  0.40582452933E-01  0.49814757554E-01  0.51100000000E-03 0. -1.
         11    1    4    4    0    0 -0.39716434300E-01 -0.24878918665E-01  0.64982644483E-01  0.80120914576E-01  0.51100000000E-03 0.  1.
</event>
<event>
 8    1  0.1108957E+005  0.1043930E+01  0.7957747E-01            NaN
         13   -1    0    0    0    0  0.00000000000E+00  0.00000000000E+00  0.74505805969E-08  0.10566000000E+00  0.10566000000E+00 0. -1.
     999900   -1    0    0    0    0 -0.00000000000E+00 -0.00000000000E+00 -0.74505805969E-08  0.93827000000E+00  0.93827000000E+00 0.  1.
     999902    2    1    2    0    0 -0.11021989488E-01 -0.64959499299E-02 -0.19585190283E-01  0.10205363834E+01  0.10202682239E+01 0.  0.
     999903    2    3    3    0    0  0.12146563268E+00 -0.35239872126E-01 -0.22683633646E-01  0.13014951053E+00  0.20702641040E-01 0.  0.
         14    1    1    2    0    0  0.11021989488E-01  0.64959499299E-02  0.19585190283E-01  0.23393616569E-01  0.00000000000E+00 0. -1.
     999901    1    3    3    0    0 -0.13248762216E+00  0.28743922196E-01  0.30984433629E-02  0.89038687290E+00  0.88000000000E+00 0.  1.
        -11    1    4    4    0    0  0.42216189581E-01 -0.21593753328E-01 -0.12863411751E-01  0.49134767003E-01  0.51100000000E-03 0.  1.
         11    1    4    4    0    0  0.79249443095E-01 -0.13646118797E-01 -0.98202218946E-02  0.81014743523E-01  0.51100000000E-03 0. -1.
</event>
<event>
 8    1  0.1108957E+005  0.1043930E+01  0.7957747E-01            NaN
         13   -1    0    0    0    0  0.00000000000E+00  0.00000000000E+00  0.74505805969E-08  0.10566000000E+00  0.10566000000E+00 0. -1.
     999900   -1    0    0    0    0 -0.00000000000E+00 -0.00000000000E+00 -0.74505805969E-08  0.93827000000E+00  0.93827000000E+00 0. -1.
     999902    2    1    2    0    0  0.10115286045E-01 -0.16760719046E-01 -0.76086274136E-02  0.10229268591E+01  0.10227112140E+01 0.  0.
     999903    2    3    3    0    0  0.43932163938E-02 -0.84104207034E-01  0.10163689172E+00  0.13359988277E+00  0.20641049535E-01 0.  0.
         14    1    1    2    0    0 -0.10115286045E-01  0.16760719046E-01  0.76086274136E-02  0.21003140856E-01  0.00000000000E+00 0. -1.
     999901    1    3    3    0    0  0.57220696515E-02  0.67343487988E-01 -0.10924551914E+00  0.88932697637E+00  0.88000000000E+00 0. -1.
        -11    1    4    4    0    0  0.24038323058E-02 -0.37723335538E-01  0.30120695890E-01  0.48335762079E-01  0.51100000000E-03 0. -1.
         11    1    4    4    0    0  0.19893840880E-02 -0.46380871496E-01  0.71516195832E-01  0.85264120690E-01  0.51100000000E-03 0.  1.
</event>
<event>
 8    1  0.1108957E+005  0.1043930E+01  0.7957747E-01            NaN
         13   -1    0    0    0    0  0.00000000000E+00  0.00000000000E+00  0.74505805969E-08  0.10566000000E+00  0.10566000000E+00 0.  1.
     999900   -1    0    0    0    0 -0.00000000000E+00 -0.00000000000E+00 -0.74505805969E-08  0.93827000000E+00  0.93827000000E+00 0.  1.
     999902    2    1    2    0    0 -0.19627992930E-01  0.94469853267E-02 -0.76848085156E-02  0.10208310840E+01  0.10205697145E+01 0.  0.
     999903    2    3    3    0    0  0.17076763420E-01  0.69595098905E-01  0.10726709694E+00  0.13056203744E+00  0.20127640063E-01 0.  0.
         14    1    1    2    0    0  0.19627992930E-01 -0.94469853267E-02  0.76848085156E-02  0.23098915995E-01  0.00000000000E+00 0.  1.
     999901    1    3    3    0    0 -0.36704756351E-01 -0.60148113578E-01 -0.11495190545E+00  0.89026904657E+00  0.88000000000E+00 0.  1.
        -11    1    4    4    0    0 -0.34957674501E-02  0.25680144430E-01  0.36204918681E-01  0.44528052570E-01  0.51100000000E-03 0. -1.
         11    1    4    4    0    0  0.20572530870E-01  0.43914954475E-01  0.71062178256E-01  0.86033984869E-01  0.51100000000E-03 0.  1.
</event>
<event>
 8    1  0.1108957E+005  0.1043930E+01  0.7957747E-01            NaN
         13   -1    0    0    0    0  0.00000000000E+00  0.00000000000E+00  0.74505805969E-08  0.10566000000E+00  0.10566000000E+00 0. -1.
     999900   -1    0    0    0    0 -0.00000000000E+00 -0.00000000000E+00 -0.74505805969E-08  0.93827000000E+00  0.93827000000E+00 0. -1.
     999902    2    1    2    0    0  0.54921704207E-02 -0.15241543199E-01 -0.17236800107E-01  0.10202746443E+01  0.10200003794E+01 0.  0.
     999903    2    3    3    0    0 -0.57734172130E-01 -0.97236808581E-01 -0.66729510548E-01  0.13282305559E+00  0.20022610784E-01 0.  0.
         14    1    1    2    0    0 -0.54921704207E-02  0.15241543199E-01  0.17236800107E-01  0.23655355693E-01  0.00000000000E+00 0. -1.
     999901    1    3    3    0    0  0.63226342550E-01  0.81995265382E-01  0.49492710441E-01  0.88745158872E+00  0.88000000000E+00 0.  1.
        -11    1    4    4    0    0 -0.14465012336E-01 -0.42357554823E-01 -0.22307361151E-01  0.50012783516E-01  0.51100000000E-03 0.  1.
         11    1    4    4    0    0 -0.43269159793E-01 -0.54879253758E-01 -0.44422149397E-01  0.82810272070E-01  0.51100000000E-03 0. -1.
</event>
<event>
 8    1  0.1108957E+005  0.1043930E+01  0.7957747E-01            NaN
         13   -1    0    0    0    0  0.00000000000E+00  0.00000000000E+00  0.74505805969E-08  0.10566000000E+00  0.10566000000E+00 0.  1.
     999900   -1    0    0    0    0 -0.00000000000E+00 -0.00000000000E+00 -0.74505805969E-08  0.93827000000E+00  0.93827000000E+00 0.  1.
     999902    2    1    2    0    0 -0.53730253625E-02  0.16851327740E-01  0.15707563467E-01  0.10202748907E+01  0.10200006315E+01 0.  0.
     999903    2    3    3    0    0 -0.52805362602E-02 -0.12678682199E+00  0.14081723800E-03  0.12849338703E+00  0.20192780588E-01 0.  0.
         14    1    1    2    0    0  0.53730253625E-02 -0.16851327740E-01 -0.15707563467E-01  0.23655109347E-01  0.00000000000E+00 0.  1.
     999901    1    3    3    0    0 -0.92489102329E-04  0.14363814973E+00  0.15566746229E-01  0.89178150362E+00  0.88000000000E+00 0.  1.
        -11    1    4    4    0    0  0.72949781762E-03 -0.79440945167E-01  0.89847745818E-02  0.79952381024E-01  0.51100000000E-03 0.  1.
         11    1    4    4    0    0 -0.60100340778E-02 -0.47345876823E-01 -0.88439573438E-02  0.48541006008E-01  0.51100000000E-03 0. -1.
</event>
<event>
 8    1  0.1108957E+005  0.1043930E+01  0.7957747E-01            NaN
         13   -1    0    0    0    0  0.00000000000E+00  0.00000000000E+00  0.74505805969E-08  0.10566000000E+00  0.10566000000E+00 0. -1.
     999900   -1    0    0    0    0 -0.00000000000E+00 -0.00000000000E+00 -0.74505805969E-08  0.93827000000E+00  0.93827000000E+00 0. -1.
     999902    2    1    2    0    0 -0.19331233235E-01 -0.82098393101E-02  0.11031325998E-01  0.10202068427E+01  0.10199309848E+01 0.  0.
     999903    2    3    3    0    0 -0.11778343828E+00 -0.26832765694E-01 -0.49575899082E-01  0.13244962035E+00  0.22185502307E-01 0.  0.
         14    1    1    2    0    0  0.19331233235E-01  0.82098393101E-02 -0.11031325998E-01  0.23723157319E-01  0.00000000000E+00 0.  1.
     999901    1    3    3    0    0  0.98452205049E-01  0.18622926384E-01  0.60607225081E-01  0.88775722233E+00  0.88000000000E+00 0. -1.
        -11    1    4    4    0    0 -0.92144577746E-02  0.25579118603E-02 -0.11557120533E-03  0.95772450563E-02  0.51100000000E-03 0. -1.
         11    1    4    4    0    0 -0.10856898051E+00 -0.29390677554E-01 -0.49460327877E-01  0.12287237530E+00  0.51100000000E-03 0.  1.
</event>
<event>
 8    1  0.1108957E+005  0.1043930E+01  0.7957747E-01            NaN
         13   -1    0    0    0    0  0.00000000000E+00  0.00000000000E+00  0.74505805969E-08  0.10566000000E+00  0.10566000000E+00 0. -1.
     999900   -1    0    0    0    0 -0.00000000000E+00 -0.00000000000E+00 -0.74505805969E-08  0.93827000000E+00  0.93827000000E+00 0.  1.
     999902    2    1    2    0    0  0.17370218852E-01  0.10695370111E-01  0.11871912749E-01  0.10203279290E+01  0.10200549127E+01 0.  0.
     999903    2    3    3    0    0 -0.12403720340E+00 -0.10220591685E-01 -0.24388539548E-01  0.12805646975E+00  0.17719206013E-01 0.  0.
         14    1    1    2    0    0 -0.17370218852E-01 -0.10695370111E-01 -0.11871912749E-01  0.23602071034E-01  0.00000000000E+00 0.  1.
     999901    1    3    3    0    0  0.14140742225E+00  0.20915961796E-01  0.36260452297E-01  0.89227145921E+00  0.88000000000E+00 0. -1.
        -11    1    4    4    0    0 -0.57180487434E-01 -0.30824331763E-02 -0.24085477826E-02  0.57316417900E-01  0.51100000000E-03 0. -1.
         11    1    4    4    0    0 -0.66856715968E-01 -0.71381585087E-02 -0.21979991765E-01  0.70740051851E-01  0.51100000000E-03 0.  1.
</event>
<event>
 8    1  0.1108957E+005  0.1043930E+01  0.7957747E-01            NaN
         13   -1    0    0    0    0  0.00000000000E+00  0.00000000000E+00  0.74505805969E-08  0.10566000000E+00  0.10566000000E+00 0.  1.
     999900   -1    0    0    0    0 -0.00000000000E+00 -0.00000000000E+00 -0.74505805969E-08  0.93827000000E+00  0.93827000000E+00 0.  1.
     999902    2    1    2    0    0  0.11861209475E-01  0.12771684110E-01  0.15014087381E-01  0.10209250652E+01  0.10206658423E+01 0.  0.
     999903    2    3    3    0    0 -0.96593460184E-01  0.20976738110E-01 -0.80498488596E-01  0.12909975133E+00  0.20406347942E-01 0.  0.
         14    1    1    2    0    0 -0.11861209475E-01 -0.12771684110E-01 -0.15014087381E-01  0.23004934800E-01  0.00000000000E+00 0. -1.
     999901    1    3    3    0    0  0.10845466966E+00 -0.82050539997E-02  0.95512575977E-01  0.89182531387E+00  0.88000000000E+00 0. -1.
        -11    1    4    4    0    0 -0.70175187971E-01  0.12070685095E-01 -0.68287218959E-01  0.98659332248E-01  0.51100000000E-03 0. -1.
         11    1    4    4    0    0 -0.26418272213E-01  0.89060530152E-02 -0.12211269637E-01  0.30440419087E-01  0.51100000000E-03 0.  1.
</event>
<event>
 8    1  0.1108957E+005  0.1043930E+01  0.7957747E-01            NaN
         13   -1    0    0    0    0  0.00000000000E+00  0.00000000000E+00  0.74505805969E-08  0.10566000000E+00  0.10566000000E+00 0.  1.
     999900   -1    0    0    0    0 -0.00000000000E+00 -0.00000000000E+00 -0.74505805969E-08  0.93827000000E+00  0.93827000000E+00 0.  1.
     999902    2    1    2    0    0  0.33162130692E-03 -0.12763466281E-01  0.20205162097E-01  0.10200288574E+01  0.10197487952E+01 0.  0.
     999903    2    3    3    0    0  0.12079118480E+00 -0.17553115667E-01  0.44707228128E-01  0.13147171321E+00  0.19683824109E-01 0.  0.
         14    1    1    2    0    0 -0.33162130692E-03  0.12763466281E-01 -0.20205162097E-01  0.23901142641E-01  0.00000000000E+00 0. -1.
     999901    1    3    3    0    0 -0.12045956350E+00  0.47896493863E-02 -0.24502066032E-01  0.88855714415E+00  0.88000000000E+00 0.  1.
        -11    1    4    4    0    0  0.99744123079E-01 -0.20118242536E-01  0.42036586073E-01  0.11009527447E+00  0.51100000000E-03 0.  1.
         11    1    4    4    0    0  0.21047061725E-01  0.25651268694E-02  0.26706420553E-02  0.21376438737E-01  0.51100000000E-03 0. -1.
</event>
<event>
 8    1  0.1108957E+005  0.1043930E+01  0.7957747E-01            NaN
         13   -1    0    0    0    0  0.00000000000E+00  0.00000000000E+00  0.74505805969E-08  0.10566000000E+00  0.10566000000E+00 0. -1.
     999900   -1    0    0    0    0 -0.00000000000E+00 -0.00000000000E+00 -0.74505805969E-08  0.93827000000E+00  0.93827000000E+00 0. -1.
     999902    2    1    2    0    0 -0.19221881201E-01  0.88761487525E-02 -0.13596235016E-01  0.10187680378E+01  0.10184572601E+01 0.  0.
     999903    2    3    3    0    0  0.22214365278E-03  0.31466764355E-01 -0.12578477809E+00  0.13114498990E+00  0.19672096277E-01 0.  0.
         14    1    1    2    0    0  0.19221881201E-01 -0.88761487525E-02  0.13596235016E-01  0.25161962169E-01  0.00000000000E+00 0. -1.
     999901    1    3    3    0    0 -0.19444024854E-01 -0.22590615602E-01  0.11218854307E+00  0.88762304793E+00  0.88000000000E+00 0.  1.
        -11    1    4    4    0    0 -0.16737148597E-02  0.86981953978E-02 -0.74150197974E-01  0.74679132997E-01  0.51100000000E-03 0. -1.
         11    1    4    4    0    0  0.18958585125E-02  0.22768568957E-01 -0.51634580112E-01  0.56465856907E-01  0.51100000000E-03 0.  1.
</event>
<event>
 8    1  0.1108957E+005  0.1043930E+01  0.7957747E-01            NaN
         13   -1    0    0    0    0  0.00000000000E+00  0.00000000000E+00  0.74505805969E-08  0.10566000000E+00  0.10566000000E+00 0.  1.
     999900   -1    0    0    0    0 -0.00000000000E+00 -0.00000000000E+00 -0.74505805969E-08  0.93827000000E+00  0.93827000000E+00 0. -1.
     999902    2    1    2    0    0  0.11031343282E-01 -0.10212268861E-01  0.16811116138E-01  0.10213779581E+01  0.10211289530E+01 0.  0.
     999903    2    3    3    0    0 -0.52284933466E-01 -0.33293694479E-01 -0.11182877135E+00  0.12947553976E+00  0.20397473774E-01 0.  0.
         14    1    1    2    0    0 -0.11031343282E-01  0.10212268861E-01 -0.16811116138E-01  0.22552041941E-01  0.00000000000E+00 0. -1.
     999901    1    3    3    0    0  0.63316276749E-01  0.23081425618E-01  0.12863988748E+00  0.89190241830E+00  0.88000000000E+00 0.  1.
        -11    1    4    4    0    0 -0.33165592883E-01 -0.14493160400E-01 -0.47039069124E-01  0.59354388167E-01  0.51100000000E-03 0. -1.
         11    1    4    4    0    0 -0.19119340584E-01 -0.18800534079E-01 -0.64789702223E-01  0.70121151596E-01  0.51100000000E-03 0.  1.
</event>
<event>
 8    1  0.1108957E+005  0.1043930E+01  0.7957747E-01            NaN
         13   -1    0    0    0    0  0.00000000000E+00  0.00000000000E+00  0.74505805969E-08  0.10566000000E+00  0.10566000000E+00 0. -1.
     999900   -1    0    0    0    0 -0.00000000000E+00 -0.00000000000E+00 -0.74505805969E-08  0.93827000000E+00  0.93827000000E+00 0.  1.
     999902    2    1    2    0    0 -0.31991715000E-01  0.16485404632E-01  0.30577092795E-02  0.10078109194E+01  0.10071634730E+01 0.  0.
     999903    2    3    3    0    0 -0.43993302359E-01 -0.11768943927E-01  0.11023602874E+00  0.12077679469E+00  0.19003510465E-01 0.  0.
         14    1    1    2    0    0  0.31991715000E-01 -0.16485404632E-01 -0.30577092795E-02  0.36119080561E-01  0.00000000000E+00 0.  1.
     999901    1    3    3    0    0  0.12001587359E-01  0.28254348559E-01 -0.10717831946E+00  0.88703412475E+00  0.88000000000E+00 0.  1.
        -11    1    4    4    0    0 -0.22183154039E-01 -0.14289376740E-01  0.71972253995E-01  0.76658626891E-01  0.51100000000E-03 0. -1.
         11    1    4    4    0    0 -0.21810148320E-01  0.25204328130E-02  0.38263774742E-01  0.44118167797E-01  0.51100000000E-03 0.  1.
</event>
<event>
 7    1  0.2402095E+005  0.1043930E+01  0.7957747E-01            NaN
         13   -1    0    0    0    0  0.00000000000E+00  0.00000000000E+00  0.74505805969E-08  0.10566000000E+00  0.10566000000E+00 0.  1.
     999900   -1    0    0    0    0 -0.00000000000E+00 -0.00000000000E+00 -0.74505805969E-08  0.93827000000E+00  0.93827000000E+00 0. -1.
     999903    2    1    2    0    0 -0.23685726749E-01 -0.62548273399E-01 -0.52600941865E-01  0.87260424477E-01  0.19344829748E-01 0.  0.
         14    1    1    2    0    0 -0.11086189661E-01  0.52421499518E-01 -0.45743183336E-01  0.70451089662E-01  0.00000000000E+00 0. -1.
     999901    1    1    2    0    0  0.34771916409E-01  0.10126773881E-01  0.98344125201E-01  0.88621848586E+00  0.88000000000E+00 0.  1.
        -11    1    3    3    0    0  0.11133368086E-02 -0.18230507300E-01 -0.19024900993E-01  0.26378000191E-01  0.51100000000E-03 0.  1.
         11    1    3    3    0    0 -0.24799063557E-01 -0.44317766099E-01 -0.33576040872E-01  0.60882424286E-01  0.51100000000E-03 0. -1.
</event>
<event>
 8    1  0.1108957E+005  0.1043930E+01  0.7957747E-01            NaN
         13   -1    0    0    0    0  0.00000000000E+00  0.00000000000E+00  0.74505805969E-08  0.10566000000E+00  0.10566000000E+00 0.  1.
     999900   -1    0    0    0    0 -0.00000000000E+00 -0.00000000000E+00 -0.74505805969E-08  0.93827000000E+00  0.93827000000E+00 0.  1.
     999902    2    1    2    0    0  0.19598192776E-01 -0.27945772786E-02 -0.13332948535E-01  0.10200623160E+01  0.10197830466E+01 0.  0.
     999903    2    3    3    0    0  0.21813431286E-01  0.11633882226E+00 -0.52830117353E-01  0.13115416524E+00  0.19996159905E-01 0.  0.
         14    1    1    2    0    0 -0.19598192776E-01  0.27945772786E-02  0.13332948535E-01  0.23867683987E-01  0.00000000000E+00 0.  1.
     999901    1    3    3    0    0 -0.22152385099E-02 -0.11913339954E+00  0.39497168818E-01  0.88890815077E+00  0.88000000000E+00 0. -1.
        -11    1    4    4    0    0 -0.11321640723E-02  0.37753788755E-01 -0.11763069970E-01  0.39563383285E-01  0.51100000000E-03 0. -1.
         11    1    4    4    0    0  0.22945595358E-01  0.78585033504E-01 -0.41067047383E-01  0.91590781954E-01  0.51100000000E-03 0.  1.
</event>
<event>
 8    1  0.1108957E+005  0.1043930E+01  0.7957747E-01            NaN
         13   -1    0    0    0    0  0.00000000000E+00  0.00000000000E+00  0.74505805969E-08  0.10566000000E+00  0.10566000000E+00 0.  1.
     999900   -1    0    0    0    0 -0.00000000000E+00 -0.00000000000E+00 -0.74505805969E-08  0.93827000000E+00  0.93827000000E+00 0.  1.
     999902    2    1    2    0    0  0.29156944431E-01 -0.43966522647E-02  0.62949120410E-02  0.10137789822E+01  0.10133305190E+01 0.  0.
     999903    2    3    3    0    0 -0.84552876952E-01 -0.86118526246E-01 -0.83872286847E-02  0.12258654871E+00  0.19787035053E-01 0.  0.
         14    1    1    2    0    0 -0.29156944431E-01  0.43966522647E-02 -0.62949120410E-02  0.30151017848E-01  0.00000000000E+00 0. -1.
     999901    1    3    3    0    0  0.11370982138E+00  0.81721873981E-01  0.14682140726E-01  0.89119243344E+00  0.88000000000E+00 0. -1.
        -11    1    4    4    0    0 -0.45891039872E-01 -0.58788439776E-01 -0.48491587779E-03  0.74582601565E-01  0.51100000000E-03 0.  1.
         11    1    4    4    0    0 -0.38661837080E-01 -0.27330086470E-01 -0.79023128069E-02  0.48003947146E-01  0.51100000000E-03 0. -1.
</event>
<event>
 8    1  0.1108957E+005  0.1043930E+01  0.7957747E-01            NaN
         13   -1    0    0    0    0  0.00000000000E+00  0.00000000000E+00  0.74505805969E-08  0.10566000000E+00  0.10566000000E+00 0.  1.
     999900   -1    0    0    0    0 -0.00000000000E+00 -0.00000000000E+00 -0.74505805969E-08  0.93827000000E+00  0.93827000000E+00 0.  1.
     999902    2    1    2    0    0 -0.13229334515E-01 -0.28992099481E-02  0.19020570398E-01  0.10205804217E+01  0.10203132824E+01 0.  0.
     999903    2    3    3    0    0  0.10402559824E+00  0.72346593356E-02 -0.71709914100E-01  0.12812121510E+00  0.19976701269E-01 0.  0.
         14    1    1    2    0    0  0.13229334515E-01  0.28992099481E-02 -0.19020570398E-01  0.23349578333E-01  0.00000000000E+00 0. -1.
     999901    1    3    3    0    0 -0.11725493276E+00 -0.10133869284E-01  0.90730484498E-01  0.89245920656E+00  0.88000000000E+00 0. -1.
        -11    1    4    4    0    0  0.18460092082E-01  0.68458375173E-02 -0.72365278552E-02  0.20982586766E-01  0.51100000000E-03 0. -1.
         11    1    4    4    0    0  0.85565506162E-01  0.38882181827E-03 -0.64473386245E-01  0.10713862834E+00  0.51100000000E-03 0.  1.
</event>
<event>
 8    1  0.1108957E+005  0.1043930E+01  0.7957747E-01            NaN
         13   -1    0    0    0    0  0.00000000000E+00  0.00000000000E+00  0.74505805969E-08  0.10566000000E+00  0.10566000000E+00 0. -1.
     999900   -1    0    0    0    0 -0.00000000000E+00 -0.00000000000E+00 -0.74505805969E-08  0.93827000000E+00  0.93827000000E+00 0. -1.
     999902    2    1    2    0    0 -0.10521428995E-01  0.12455871746E-01  0.17302009984E-01  0.10201558805E+01  0.10198788221E+01 0.  0.
     999903    2    3    3    0    0  0.11201914398E+00 -0.22917070075E-01 -0.54174660620E-01  0.12809290543E+00  0.19985440927E-01 0.  0.
         14    1    1    2    0    0  0.10521428995E-01 -0.12455871746E-01 -0.17302009984E-01  0.23774119512E-01  0.00000000000E+00 0.  1.
     999901    1    3    3    0    0 -0.12254057297E+00  0.35372941821E-01  0.71476670605E-01  0.89206297506E+00  0.88000000000E+00 0.  1.
        -11    1    4    4    0    0  0.28688993928E-01  0.87082437354E-03 -0.19754497872E-01  0.34847066087E-01  0.51100000000E-03 0.  1.
         11    1    4    4    0    0  0.83330150048E-01 -0.23787894448E-01 -0.34420162749E-01  0.93245839338E-01  0.51100000000E-03 0. -1.
</event>
<event>
 8    1  0.1108957E+005  0.1043930E+01  0.7957747E-01            NaN
         13   -1    0    0    0    0  0.00000000000E+00  0.00000000000E+00  0.74505805969E-08  0.10566000000E+00  0.10566000000E+00 0. -1.
     999900   -1    0    0    0    0 -0.00000000000E+00 -0.00000000000E+00 -0.74505805969E-08  0.93827000000E+00  0.93827000000E+00 0. -1.
     999902    2    1    2    0    0  0.19980617984E-01 -0.98473365688E-02 -0.65621711069E-02  0.10207080875E+01  0.10204438949E+01 0.  0.
     999903    2    3    3    0    0  0.60673540103E-01  0.62538522971E-01 -0.97634787219E-01  0.13211940422E+00  0.18183508242E-01 0.  0.
         14    1    1    2    0    0 -0.19980617984E-01  0.98473365688E-02  0.65621711069E-02  0.23221912543E-01  0.00000000000E+00 0. -1.
     999901    1    3    3    0    0 -0.40692922119E-01 -0.72385859540E-01  0.91072616112E-01  0.88858868324E+00  0.88000000000E+00 0.  1.
        -11    1    4    4    0    0  0.26884253242E-01  0.15336082600E-01 -0.34547521863E-01  0.46386968965E-01  0.51100000000E-03 0. -1.
         11    1    4    4    0    0  0.33789286861E-01  0.47202440370E-01 -0.63087265356E-01  0.85732435254E-01  0.51100000000E-03 0.  1.
</event>
<event>
 8    1  0.1108957E+005  0.1043930E+01  0.7957747E-01            NaN
         13   -1    0    0    0    0  0.00000000000E+00  0.00000000000E+00  0.74505805969E-08  0.10566000000E+00  0.10566000000E+00 0.  1.
     999900   -1    0    0    0    0 -0.00000000000E+00 -0.00000000000E+00 -0.74505805969E-08  0.93827000000E+00  0.93827000000E+00 0. -1.
     999902    2    1    2    0    0 -0.23705479347E-02  0.22471052081E-01  0.89207131980E-02  0.10196370627E+01  0.10193476310E+01 0.  0.
     999903    2    3    3    0    0 -0.28073295739E-01  0.11551103499E+00  0.56826744047E-01  0.13306385226E+00  0.18595719950E-01 0.  0.
         14    1    1    2    0    0  0.23705479347E-02 -0.22471052081E-01 -0.89207131980E-02  0.24292937309E-01  0.00000000000E+00 0. -1.
     999901    1    3    3    0    0  0.25702747804E-01 -0.93039982910E-01 -0.47906030849E-01  0.88657321043E+00  0.88000000000E+00 0.  1.
        -11    1    4    4    0    0 -0.21157907179E-01  0.88396628494E-01  0.34351771780E-01  0.97169575026E-01  0.51100000000E-03 0.  1.
         11    1    4    4    0    0 -0.69153885597E-02  0.27114406497E-01  0.22474972267E-01  0.35894277232E-01  0.51100000000E-03 0. -1.
</event>
<event>
 8    1  0.1108957E+005  0.1043930E+01  0.7957747E-01            NaN
         13   -1    0    0    0    0  0.00000000000E+00  0.00000000000E+00  0.74505805969E-08  0.10566000000E+00  0.10566000000E+00 0. -1.
     999900   -1    0    0    0    0 -0.00000000000E+00 -0.00000000000E+00 -0.74505805969E-08  0.93827000000E+00  0.93827000000E+00 0.  1.
     999902    2    1    2    0    0  0.18731679813E-01  0.13681313323E-01  0.12575526187E-02  0.10206999419E+01  0.10204355618E+01 0.  0.
     999903    2    3    3    0    0 -0.28172698504E-01 -0.69801326139E-01 -0.10328961037E+00  0.12935293811E+00  0.19937725905E-01 0.  0.
         14    1    1    2    0    0 -0.18731679813E-01 -0.13681313323E-01 -0.12575526187E-02  0.23230058146E-01  0.00000000000E+00 0. -1.
     999901    1    3    3    0    0  0.46904378318E-01  0.83482639461E-01  0.10454716299E+00  0.89134700375E+00  0.88000000000E+00 0.  1.
        -11    1    4    4    0    0 -0.10342751295E-01 -0.32357458859E-01 -0.62743971926E-01  0.71351557672E-01  0.51100000000E-03 0. -1.
         11    1    4    4    0    0 -0.17829947209E-01 -0.37443867280E-01 -0.40545638448E-01  0.58001380436E-01  0.51100000000E-03 0.  1.
</event>
<event>
 8    1  0.1108957E+005  0.1043930E+01  0.7957747E-01            NaN
         13   -1    0    0    0    0  0.00000000000E+00  0.00000000000E+00  0.74505805969E-08  0.10566000000E+00  0.10566000000E+00 0. -1.
     999900   -1    0    0    0    0 -0.00000000000E+00 -0.00000000000E+00 -0.74505805969E-08  0.93827000000E+00  0.93827000000E+00 0.  1.
     999902    2    1    2    0    0 -0.18472670703E-01 -0.12813819961E-03 -0.15997473410E-01  0.10194928329E+01  0.10191999122E+01 0.  0.
     999903    2    3    3    0    0 -0.37699496785E-01 -0.24585038212E-02 -0.12536198638E+00  0.13251160525E+00  0.20405920640E-01 0.  0.
         14    1    1    2    0    0  0.18472670703E-01  0.12813819961E-03  0.15997473410E-01  0.24437167140E-01  0.00000000000E+00 0.  1.
     999901    1    3    3    0    0  0.19226826082E-01  0.23303656215E-02  0.10936451297E+00  0.88698122762E+00  0.88000000000E+00 0. -1.
        -11    1    4    4    0    0 -0.18578752308E-01  0.82852803853E-02 -0.71881790401E-01  0.74706551390E-01  0.51100000000E-03 0. -1.
         11    1    4    4    0    0 -0.19120744477E-01 -0.10743784206E-01 -0.53480195977E-01  0.57805053855E-01  0.51100000000E-03 0.  1.
</event>
<event>
 8    1  0.1108957E+005  0.1043930E+01  0.7957747E-01            NaN
         13   -1    0    0    0    0  0.00000000000E+00  0.00000000000E+00  0.74505805969E-08  0.10566000000E+00  0.10566000000E+00 0.  1.
     999900   -1    0    0    0    0 -0.00000000000E+00 -0.00000000000E+00 -0.74505805969E-08  0.93827000000E+00  0.93827000000E+00 0. -1.
     999902    2    1    2    0    0 -0.71933357228E-02 -0.18903323944E-01  0.12877854191E-01  0.10199525343E+01  0.10196706592E+01 0.  0.
     999903    2    3    3    0    0  0.32775569834E-02 -0.12279440408E+00  0.47794358681E-01  0.13309168925E+00  0.18436077989E-01 0.  0.
         14    1    1    2    0    0  0.71933357228E-02  0.18903323944E-01 -0.12877854191E-01  0.23977465744E-01  0.00000000000E+00 0.  1.
     999901    1    3    3    0    0 -0.10470892706E-01  0.10389108014E+00 -0.34916504490E-01  0.88686084501E+00  0.88000000000E+00 0. -1.
        -11    1    4    4    0    0  0.10657282089E-01 -0.86138469960E-01  0.32243733242E-01  0.92592295159E-01  0.51100000000E-03 0.  1.
         11    1    4    4    0    0 -0.73797251057E-02 -0.36655934120E-01  0.15550625439E-01  0.40499394087E-01  0.51100000000E-03 0. -1.
</event>
<event>
 8    1  0.1108957E+005  0.1043930E+01  0.7957747E-01            NaN
         13   -1    0    0    0    0  0.00000000000E+00  0.00000000000E+00  0.74505805969E-08  0.10566000000E+00  0.10566000000E+00 0.  1.
     999900   -1    0    0    0    0 -0.00000000000E+00 -0.00000000000E+00 -0.74505805969E-08  0.93827000000E+00  0.93827000000E+00 0.  1.
     999902    2    1    2    0    0 -0.13698012879E-01 -0.33916896059E-03  0.19274944153E-01  0.10202810240E+01  0.10200069088E+01 0.  0.
     999903    2    3    3    0    0 -0.12474931710E+00  0.17275110074E-01 -0.32416201593E-01  0.13162213022E+00  0.20316335623E-01 0.  0.
         14    1    1    2    0    0  0.13698012879E-01  0.33916896059E-03 -0.19274944153E-01  0.23648975972E-01  0.00000000000E+00 0. -1.
     999901    1    3    3    0    0  0.11105130422E+00 -0.17614279035E-01  0.51691145746E-01  0.88865889381E+00  0.88000000000E+00 0. -1.
        -11    1    4    4    0    0 -0.10832505661E+00  0.12961002928E-01 -0.34690651248E-01  0.11448147401E+00  0.51100000000E-03 0. -1.
         11    1    4    4    0    0 -0.16424260490E-01  0.43141071459E-02  0.22744496549E-02  0.17140656211E-01  0.51100000000E-03 0.  1.
</event>
<event>
 8    1  0.1108957E+005  0.1043930E+01  0.7957747E-01            NaN
         13   -1    0    0    0    0  0.00000000000E+00  0.00000000000E+00  0.74505805969E-08  0.10566000000E+00  0.10566000000E+00 0. -1.
     999900   -1    0    0    0    0 -0.00000000000E+00 -0.00000000000E+00 -0.74505805969E-08  0.93827000000E+00  0.93827000000E+00 0.  1.
     999902    2    1    2    0    0  0.37567177653E-02 -0.14606126764E-01 -0.19208862478E-01  0.10195080372E+01  0.10192154854E+01 0.  0.
     999903    2    3    3    0    0  0.11750542712E+00 -0.14788308879E-01  0.48763343904E-01  0.12958724138E+00  0.19717249748E-01 0.  0.
         14    1    1    2    0    0 -0.37567177653E-02  0.14606126764E-01  0.19208862478E-01  0.24421962761E-01  0.00000000000E+00 0. -1.
     999901    1    3    3    0    0 -0.11374870935E+00  0.18218211564E-03 -0.67972206382E-01  0.88992079586E+00  0.88000000000E+00 0. -1.
        -11    1    4    4    0    0  0.69239896173E-01 -0.18162698197E-01  0.26599098420E-01  0.76366353753E-01  0.51100000000E-03 0. -1.
         11    1    4    4    0    0  0.48265530943E-01  0.33743893181E-02  0.22164245485E-01  0.53220887623E-01  0.51100000000E-03 0.  1.
</event>
<event>
 8    1  0.1108957E+005  0.1043930E+01  0.7957747E-01            NaN
         13   -1    0    0    0    0  0.00000000000E+00  0.00000000000E+00  0.74505805969E-08  0.10566000000E+00  0.10566000000E+00 0.  1.
     999900   -1    0    0    0    0 -0.00000000000E+00 -0.00000000000E+00 -0.74505805969E-08  0.93827000000E+00  0.93827000000E+00 0.  1.
     999902    2    1    2    0    0  0.19163218101E-01 -0.12518811935E-01  0.44464476197E-02  0.10206121854E+01  0.10203457809E+01 0.  0.
     999903    2    3    3    0    0 -0.57637129384E-02 -0.13381492658E-01 -0.12795950562E+00  0.13035748447E+00  0.20178056046E-01 0.  0.
         14    1    1    2    0    0 -0.19163218101E-01  0.12518811935E-01 -0.44464476197E-02  0.23317814577E-01  0.00000000000E+00 0.  1.
     999901    1    3    3    0    0  0.24926931039E-01  0.86268072329E-03  0.13240595324E+00  0.89025470095E+00  0.88000000000E+00 0. -1.
        -11    1    4    4    0    0 -0.12167329349E-01 -0.13067903135E-01 -0.80087396942E-01  0.82055263486E-01  0.51100000000E-03 0.  1.
         11    1    4    4    0    0  0.64036164109E-02 -0.31358952347E-03 -0.47872108682E-01  0.48302220986E-01  0.51100000000E-03 0. -1.
</event>
<event>
 8    1  0.1108957E+005  0.1043930E+01  0.7957747E-01            NaN
         13   -1    0    0    0    0  0.00000000000E+00  0.00000000000E+00  0.74505805969E-08  0.10566000000E+00  0.10566000000E+00 0.  1.
     999900   -1    0    0    0    0 -0.00000000000E+00 -0.00000000000E+00 -0.74505805969E-08  0.93827000000E+00  0.93827000000E+00 0. -1.
     999902    2    1    2    0    0  0.14704997394E-01 -0.15688035180E-01 -0.16076627850E-01  0.10170821070E+01  0.10167276936E+01 0.  0.
     999903    2    3    3    0    0 -0.97045881928E-01 -0.57499524656E-01 -0.57546255601E-01  0.12806231547E+00  0.19086292870E-01 0.  0.
         14    1    1    2    0    0 -0.14704997394E-01  0.15688035180E-01  0.16076627850E-01  0.26847893012E-01  0.00000000000E+00 0.  1.
     999901    1    3    3    0    0  0.11175087932E+00  0.41811489475E-01  0.41469627751E-01  0.88901979152E+00  0.88000000000E+00 0.  1.
        -11    1    4    4    0    0 -0.69330122352E-01 -0.49230209871E-01 -0.47742105320E-01  0.97518455539E-01  0.51100000000E-03 0.  1.
         11    1    4    4    0    0 -0.27715759576E-01 -0.82693147845E-02 -0.98041502808E-02  0.30543859933E-01  0.51100000000E-03 0. -1.
</event>
<event>
 8    1  0.1108957E+005  0.1043930E+01  0.7957747E-01            NaN
         13   -1    0    0    0    0  0.00000000000E+00  0.00000000000E+00  0.74505805969E-08  0.10566000000E+00  0.10566000000E+00 0. -1.
     999900   -1    0    0    0    0 -0.00000000000E+00 -0.00000000000E+00 -0.74505805969E-08  0.93827000000E+00  0.93827000000E+00 0.  1.
     999902    2    1    2    0    0  0.20322219251E-01 -0.61619520844E-02 -0.39927251020E-02  0.10223220361E+01  0.10220936559E+01 0.  0.
     999903    2    3    3    0    0 -0.50155552695E-01 -0.92898565638E-01 -0.77448743006E-01  0.13221746754E+00  0.18369212413E-01 0.  0.
         14    1    1    2    0    0 -0.20322219251E-01  0.61619520844E-02  0.39927251020E-02  0.21607963868E-01  0.00000000000E+00 0.  1.
     999901    1    3    3    0    0  0.70477771946E-01  0.86736613553E-01  0.73456017904E-01  0.89010456860E+00  0.88000000000E+00 0. -1.
        -11    1    4    4    0    0 -0.75352868932E-02 -0.24778865183E-01 -0.26573924683E-01  0.37110743760E-01  0.51100000000E-03 0.  1.
         11    1    4    4    0    0 -0.42620265801E-01 -0.68119700455E-01 -0.50874818323E-01  0.95106723776E-01  0.51100000000E-03 0. -1.
</event>
<event>
 8    1  0.1108957E+005  0.1043930E+01  0.7957747E-01            NaN
         13   -1    0    0    0    0  0.00000000000E+00  0.00000000000E+00  0.74505805969E-08  0.10566000000E+00  0.10566000000E+00 0.  1.
     999900   -1    0    0    0    0 -0.00000000000E+00 -0.00000000000E+00 -0.74505805969E-08  0.93827000000E+00  0.93827000000E+00 0.  1.
     999902    2    1    2    0    0 -0.21232717435E-01  0.98900412872E-02 -0.47163861121E-02  0.10200367896E+01  0.10197569154E+01 0.  0.
     999903    2    3    3    0    0  0.10517884468E+00  0.61156484264E-01  0.36997658677E-01  0.12855028225E+00  0.18805408352E-01 0.  0.
         14    1    1    2    0    0  0.21232717435E-01 -0.98900412872E-02  0.47163861121E-02  0.23893210422E-01  0.00000000000E+00 0.  1.
     999901    1    3    3    0    0 -0.12641156212E+00 -0.51266442977E-01 -0.41714044789E-01  0.89148650733E+00  0.88000000000E+00 0.  1.
        -11    1    4    4    0    0  0.50933339037E-01  0.40114107050E-01  0.17045911097E-01  0.67038577074E-01  0.51100000000E-03 0.  1.
         11    1    4    4    0    0  0.54245505644E-01  0.21042377214E-01  0.19951747580E-01  0.61511705178E-01  0.51100000000E-03 0. -1.
</event>
<event>
 8    1  0.1108957E+005  0.1043930E+01  0.7957747E-01            NaN
         13   -1    0    0    0    0  0.00000000000E+00  0.00000000000E+00  0.74505805969E-08  0.10566000000E+00  0.10566000000E+00 0.  1.
     999900   -1    0    0    0    0 -0.00000000000E+00 -0.00000000000E+00 -0.74505805969E-08  0.93827000000E+00  0.93827000000E+00 0. -1.
     999902    2    1    2    0    0 -0.94447042656E-02 -0.19636270179E-01  0.73463931809E-02  0.10209353259E+01  0.10206763368E+01 0.  0.
     999903    2    3    3    0    0 -0.25890649736E-01 -0.12894673729E+00 -0.13114975171E-01  0.13378375205E+00  0.20700312529E-01 0.  0.
         14    1    1    2    0    0  0.94447042656E-02  0.19636270179E-01 -0.73463931809E-02  0.22994674122E-01  0.00000000000E+00 0. -1.
     999901    1    3    3    0    0  0.16445945470E-01  0.10931046711E+00  0.20461368352E-01  0.88715157382E+00  0.88000000000E+00 0. -1.
        -11    1    4    4    0    0 -0.78040328681E-02 -0.81860087883E-01 -0.13530920796E-01  0.83338609635E-01  0.51100000000E-03 0.  1.
         11    1    4    4    0    0 -0.18086616868E-01 -0.47086649406E-01  0.41594562525E-03  0.50445142420E-01  0.51100000000E-03 0. -1.
</event>
<event>
 8    1  0.1108957E+005  0.1043930E+01  0.7957747E-01            NaN
         13   -1    0    0    0    0  0.00000000000E+00  0.00000000000E+00  0.74505805969E-08  0.10566000000E+00  0.10566000000E+00 0.  1.
     999900   -1    0    0    0    0 -0.00000000000E+00 -0.00000000000E+00 -0.74505805969E-08  0.93827000000E+00  0.93827000000E+00 0.  1.
     999902    2    1    2    0    0  0.14663074851E-01 -0.16475373260E-01 -0.69160715691E-02  0.10208155947E+01  0.10205538705E+01 0.  0.
     999903    2    3    3    0    0 -0.15917207230E-01 -0.31796818599E-01  0.12396913637E+00  0.13047810921E+00  0.19793813503E-01 0.  0.
         14    1    1    2    0    0 -0.14663074851E-01  0.16475373260E-01  0.69160715691E-02  0.23114405337E-01  0.00000000000E+00 0. -1.
     999901    1    3    3    0    0  0.30580282081E-01  0.15321445339E-01 -0.13088520794E+00  0.89033748545E+00  0.88000000000E+00 0.  1.
        -11    1    4    4    0    0 -0.92899457458E-02 -0.20681831045E-01  0.44343164472E-01  0.49805808734E-01  0.51100000000E-03 0.  1.
         11    1    4    4    0    0 -0.66272614840E-02 -0.11114987554E-01  0.79625971897E-01  0.80672300479E-01  0.51100000000E-03 0. -1.
</event>
<event>
 8    1  0.1108957E+005  0.1043930E+01  0.7957747E-01            NaN
         13   -1    0    0    0    0  0.00000000000E+00  0.00000000000E+00  0.74505805969E-08  0.10566000000E+00  0.10566000000E+00 0.  1.
     999900   -1    0    0    0    0 -0.00000000000E+00 -0.00000000000E+00 -0.74505805969E-08  0.93827000000E+00  0.93827000000E+00 0. -1.
     999902    2    1    2    0    0 -0.21627142355E-01 -0.14405507152E-02  0.99528578168E-02  0.10200790493E+01  0.10198001760E+01 0.  0.
     999903    2    3    3    0    0 -0.12189440607E+00  0.47816529012E-01 -0.70101428307E-02  0.13285442862E+00  0.21365636486E-01 0.  0.
         14    1    1    2    0    0  0.21627142355E-01  0.14405507152E-02 -0.99528578168E-02  0.23850950747E-01  0.00000000000E+00 0. -1.
     999901    1    3    3    0    0  0.10026726371E+00 -0.49257079727E-01  0.16963000647E-01  0.88722462064E+00  0.88000000000E+00 0. -1.
        -11    1    4    4    0    0 -0.48425032563E-01  0.29654498396E-01 -0.66227123554E-02  0.57170748585E-01  0.51100000000E-03 0.  1.
         11    1    4    4    0    0 -0.73469373506E-01  0.18162030616E-01 -0.38743047532E-03  0.75683680030E-01  0.51100000000E-03 0. -1.
</event>
<event>
 8    1  0.1108957E+005  0.1043930E+01  0.7957747E-01            NaN
         13   -1    0    0    0    0  0.00000000000E+00  0.00000000000E+00  0.74505805969E-08  0.10566000000E+00  0.10566000000E+00 0. -1.
     999900   -1    0    0    0    0 -0.00000000000E+00 -0.00000000000E+00 -0.74505805969E-08  0.93827000000E+00  0.93827000000E+00 0. -1.
     999902    2    1    2    0    0 -0.14509288997E-01  0.62036985585E-02  0.15714854419E-01  0.10216597959E+01  0.10214170434E+01 0.  0.
     999903    2    3    3    0    0 -0.12529852134E+00 -0.15499341417E-01  0.40682346960E-01  0.13409647326E+00  0.19668801448E-01 0.  0.
         14    1    1    2    0    0  0.14509288997E-01 -0.62036985585E-02 -0.15714854419E-01  0.22270204140E-01  0.00000000000E+00 0.  1.
     999901    1    3    3    0    0  0.11078923235E+00  0.21703039976E-01 -0.24967492541E-01  0.88756332260E+00  0.88000000000E+00 0. -1.
        -11    1    4    4    0    0 -0.88139818224E-01 -0.10952305684E-01  0.18989103928E-01  0.90826360410E-01  0.51100000000E-03 0.  1.
         11    1    4    4    0    0 -0.37158703119E-01 -0.45470357334E-02  0.21693243032E-01  0.43270112846E-01  0.51100000000E-03 0. -1.
</event>
<event>
 8    1  0.1108957E+005  0.1043930E+01  0.7957747E-01            NaN
         13   -1    0    0    0    0  0.00000000000E+00  0.00000000000E+00  0.74505805969E-08  0.10566000000E+00  0.10566000000E+00 0.  1.
     999900   -1    0    0    0    0 -0.00000000000E+00 -0.00000000000E+00 -0.74505805969E-08  0.93827000000E+00  0.93827000000E+00 0. -1.
     999902    2    1    2    0    0  0.18080846747E-01 -0.45094205604E-03 -0.14848685197E-01  0.10205290637E+01  0.10202607343E+01 0.  0.
     999903    2    3    3    0    0  0.38767239821E-01 -0.12029429381E+00  0.28743400461E-01  0.13109630865E+00  0.19658155167E-01 0.  0.
         14    1    1    2    0    0 -0.18080846747E-01  0.45094205604E-03  0.14848685197E-01  0.23400936304E-01  0.00000000000E+00 0.  1.
     999901    1    3    3    0    0 -0.20686393075E-01  0.11984335175E+00 -0.43592085658E-01  0.88943275505E+00  0.88000000000E+00 0.  1.
        -11    1    4    4    0    0  0.23795212326E-01 -0.47296925227E-01  0.66024080510E-02  0.53357887688E-01  0.51100000000E-03 0.  1.
         11    1    4    4    0    0  0.14972027496E-01 -0.72997368584E-01  0.22140992410E-01  0.77738420961E-01  0.51100000000E-03 0. -1.
</event>
<event>
 8    1  0.1108957E+005  0.1043930E+01  0.7957747E-01            NaN
         13   -1    0    0    0    0  0.00000000000E+00  0.00000000000E+00  0.74505805969E-08  0.10566000000E+00  0.10566000000E+00 0.  1.
     999900   -1    0    0    0    0 -0.00000000000E+00 -0.00000000000E+00 -0.74505805969E-08  0.93827000000E+00  0.93827000000E+00 0. -1.
     999902    2    1    2    0    0  0.12693541499E-01 -0.11515504379E-01 -0.19610546123E-01  0.10178856848E+01  0.10175524364E+01 0.  0.
     999903    2    3    3    0    0  0.74741342072E-01 -0.16723765358E-01  0.10013109737E+00  0.12759634038E+00  0.19713875207E-01 0.  0.
         14    1    1    2    0    0 -0.12693541499E-01  0.11515504379E-01  0.19610546123E-01  0.26044315236E-01  0.00000000000E+00 0.  1.
     999901    1    3    3    0    0 -0.62047800573E-01  0.52082609785E-02 -0.11974164349E+00  0.89028934438E+00  0.88000000000E+00 0.  1.
        -11    1    4    4    0    0  0.15329610995E-01 -0.30873510905E-02  0.35275487991E-01  0.38589504843E-01  0.51100000000E-03 0. -1.
         11    1    4    4    0    0  0.59411731077E-01 -0.13636414268E-01  0.64855609377E-01  0.89006835537E-01  0.51100000000E-03 0.  1.
</event>
<event>
 8    1  0.1108957E+005  0.1043930E+01  0.7957747E-01            NaN
         13   -1    0    0    0    0  0.00000000000E+00  0.00000000000E+00  0.74505805969E-08  0.10566000000E+00  0.10566000000E+00 0.  1.
     999900   -1    0    0    0    0 -0.00000000000E+00 -0.00000000000E+00 -0.74505805969E-08  0.93827000000E+00  0.93827000000E+00 0.  1.
     999902    2    1    2    0    0 -0.13950541873E-01  0.12073051156E-02 -0.19106726315E-01  0.10202415599E+01  0.10199665182E+01 0.  0.
     999903    2    3    3    0    0 -0.52032495001E-01  0.33827489238E-01  0.11148310595E+00  0.12919273078E+00  0.20263247770E-01 0.  0.
         14    1    1    2    0    0  0.13950541873E-01 -0.12073051156E-02  0.19106726315E-01  0.23688440106E-01  0.00000000000E+00 0.  1.
     999901    1    3    3    0    0  0.38081953128E-01 -0.32620184122E-01 -0.13058983227E+00  0.89104882911E+00  0.88000000000E+00 0.  1.
        -11    1    4    4    0    0 -0.41052729234E-01  0.30701556803E-01  0.74125328977E-01  0.90126231945E-01  0.51100000000E-03 0. -1.
         11    1    4    4    0    0 -0.10979765767E-01  0.31259324348E-02  0.37357776976E-01  0.39066498838E-01  0.51100000000E-03 0.  1.
</event>
<event>
 8    1  0.1108957E+005  0.1043930E+01  0.7957747E-01            NaN
         13   -1    0    0    0    0  0.00000000000E+00  0.00000000000E+00  0.74505805969E-08  0.10566000000E+00  0.10566000000E+00 0. -1.
     999900   -1    0    0    0    0 -0.00000000000E+00 -0.00000000000E+00 -0.74505805969E-08  0.93827000000E+00  0.93827000000E+00 0.  1.
     999902    2    1    2    0    0  0.22848240847E-01  0.32561003607E-02 -0.36694878524E-02  0.10205610154E+01  0.10202934268E+01 0.  0.
     999903    2    3    3    0    0  0.46164971622E-01  0.11974589369E+00  0.24395818228E-01  0.13213476452E+00  0.19853372192E-01 0.  0.
         14    1    1    2    0    0 -0.22848240847E-01 -0.32561003607E-02  0.36694878524E-02  0.23368984583E-01  0.00000000000E+00 0. -1.
     999901    1    3    3    0    0 -0.23316730776E-01 -0.11648979333E+00 -0.28065306080E-01  0.88842625090E+00  0.88000000000E+00 0. -1.
        -11    1    4    4    0    0  0.33126058911E-01  0.10327572965E+00  0.16600808517E-01  0.10972265070E+00  0.51100000000E-03 0. -1.
         11    1    4    4    0    0  0.13038912711E-01  0.16470164038E-01  0.77950097105E-02  0.22412113812E-01  0.51100000000E-03 0.  1.
</event>
<event>
 8    1  0.1108957E+005  0.1043930E+01  0.7957747E-01            NaN
         13   -1    0    0    0    0  0.00000000000E+00  0.00000000000E+00  0.74505805969E-08  0.10566000000E+00  0.10566000000E+00 0. -1.
     999900   -1    0    0    0    0 -0.00000000000E+00 -0.00000000000E+00 -0.74505805969E-08  0.93827000000E+00  0.93827000000E+00 0.  1.
     999902    2    1    2    0    0 -0.14172827129E-01 -0.15612763036E-01  0.10071052523E-01  0.10205622124E+01  0.10202946515E+01 0.  0.
     999903    2    3    3    0    0  0.40594236190E-01 -0.36755871815E-01 -0.11579594721E+00  0.12966998329E+00  0.20167227136E-01 0.  0.
         14    1    1    2    0    0  0.14172827129E-01  0.15612763036E-01 -0.10071052523E-01  0.23367787601E-01  0.00000000000E+00 0.  1.
     999901    1    3    3    0    0 -0.54767063319E-01  0.21143108779E-01  0.12586699973E+00  0.89089222911E+00  0.88000000000E+00 0. -1.
        -11    1    4    4    0    0  0.16972228120E-01 -0.31627335333E-02 -0.32932940705E-01  0.37187351550E-01  0.51100000000E-03 0. -1.
         11    1    4    4    0    0  0.23622008069E-01 -0.33593138282E-01 -0.82863006505E-01  0.92482631736E-01  0.51100000000E-03 0.  1.
</event>
<event>
 8    1  0.1108957E+005  0.1043930E+01  0.7957747E-01            NaN
         13   -1    0    0    0    0  0.00000000000E+00  0.00000000000E+00  0.74505805969E-08  0.10566000000E+00  0.10566000000E+00 0.  1.
     999900   -1    0    0    0    0 -0.00000000000E+00 -0.00000000000E+00 -0.74505805969E-08  0.93827000000E+00  0.93827000000E+00 0. -1.
     999902    2    1    2    0    0  0.20167438937E-01  0.50495649825E-02  0.12694721305E-01  0.10195706148E+01  0.10192795784E+01 0.  0.
     999903    2    3    3    0    0  0.87935562204E-01 -0.95321653731E-01 -0.26380662485E-02  0.13114391861E+00  0.19310288043E-01 0.  0.
         14    1    1    2    0    0 -0.20167438937E-01 -0.50495649825E-02 -0.12694721305E-01  0.24359385231E-01  0.00000000000E+00 0. -1.
     999901    1    3    3    0    0 -0.67768123267E-01  0.10037121871E+00  0.15332787554E-01  0.88842669616E+00  0.88000000000E+00 0.  1.
        -11    1    4    4    0    0  0.35958830432E-01 -0.27319395871E-01  0.37184709203E-02  0.45315284660E-01  0.51100000000E-03 0. -1.
         11    1    4    4    0    0  0.51976731772E-01 -0.68002257860E-01 -0.63565371688E-02  0.85828633949E-01  0.51100000000E-03 0.  1.
</event>
<event>
 8    1  0.1108957E+005  0.1043930E+01  0.7957747E-01            NaN
         13   -1    0    0    0    0  0.00000000000E+00  0.00000000000E+00  0.74505805969E-08  0.10566000000E+00  0.10566000000E+00 0. -1.
     999900   -1    0    0    0    0 -0.00000000000E+00 -0.00000000000E+00 -0.74505805969E-08  0.93827000000E+00  0.93827000000E+00 0.  1.
     999902    2    1    2    0    0 -0.47161896158E-02 -0.24114672351E-01 -0.44204452351E-02  0.10189640191E+01  0.10186581232E+01 0.  0.
     999903    2    3    3    0    0 -0.12270341214E+00 -0.62638164294E-02  0.36202374108E-01  0.12998153827E+00  0.22118446023E-01 0.  0.
         14    1    1    2    0    0  0.47161896158E-02  0.24114672351E-01  0.44204452351E-02  0.24965980917E-01  0.00000000000E+00 0.  1.
     999901    1    3    3    0    0  0.11798722252E+00 -0.17850855921E-01 -0.40622819343E-01  0.88898248081E+00  0.88000000000E+00 0.  1.
        -11    1    4    4    0    0 -0.69668090528E-01  0.42386120621E-02  0.12335253541E-01  0.70880380014E-01  0.51100000000E-03 0. -1.
         11    1    4    4    0    0 -0.53035321609E-01 -0.10502428491E-01  0.23867120567E-01  0.59101158259E-01  0.51100000000E-03 0.  1.
</event>
<event>
 8    1  0.1108957E+005  0.1043930E+01  0.7957747E-01            NaN
         13   -1    0    0    0    0  0.00000000000E+00  0.00000000000E+00  0.74505805969E-08  0.10566000000E+00  0.10566000000E+00 0.  1.
     999900   -1    0    0    0    0 -0.00000000000E+00 -0.00000000000E+00 -0.74505805969E-08  0.93827000000E+00  0.93827000000E+00 0. -1.
     999902    2    1    2    0    0 -0.92505129844E-02  0.15086801520E-01  0.25203828109E-02  0.10260544329E+01  0.10258987101E+01 0.  0.
     999903    2    3    3    0    0  0.89174373040E-01  0.40059473729E-02  0.99625648167E-01  0.13518986624E+00  0.19568181848E-01 0.  0.
         14    1    1    2    0    0  0.92505129844E-02 -0.15086801520E-01 -0.25203828109E-02  0.17875567126E-01  0.00000000000E+00 0.  1.
     999901    1    3    3    0    0 -0.98424886024E-01  0.11080854147E-01 -0.97105265356E-01  0.89086456663E+00  0.88000000000E+00 0. -1.
        -11    1    4    4    0    0  0.54283975498E-01 -0.17360908792E-02  0.47230815111E-01  0.71977600852E-01  0.51100000000E-03 0.  1.
         11    1    4    4    0    0  0.34890397542E-01  0.57420382521E-02  0.52394833056E-01  0.63212265391E-01  0.51100000000E-03 0. -1.
</event>
<event>
 8    1  0.1108957E+005  0.1043930E+01  0.7957747E-01            NaN
         13   -1    0    0    0    0  0.00000000000E+00  0.00000000000E+00  0.74505805969E-08  0.10566000000E+00  0.10566000000E+00 0.  1.
     999900   -1    0    0    0    0 -0.00000000000E+00 -0.00000000000E+00 -0.74505805969E-08  0.93827000000E+00  0.93827000000E+00 0.  1.
     999902    2    1    2    0    0 -0.99813724583E-02  0.22290725006E-01  0.18011633911E-02  0.10194402387E+01  0.10191460405E+01 0.  0.
     999903    2    3    3    0    0 -0.69341963035E-01  0.99897696285E-01 -0.48541607601E-01  0.13260264577E+00  0.20959876790E-01 0.  0.
         14    1    1    2    0    0  0.99813724583E-02 -0.22290725006E-01 -0.18011633911E-02  0.24489761269E-01  0.00000000000E+00 0.  1.
     999901    1    3    3    0    0  0.59360590577E-01 -0.77606971279E-01  0.50342770992E-01  0.88683759296E+00  0.88000000000E+00 0. -1.
        -11    1    4    4    0    0 -0.48276486314E-01  0.80961446202E-01 -0.43544137534E-01  0.10383509973E+00  0.51100000000E-03 0. -1.
         11    1    4    4    0    0 -0.21065476721E-01  0.18936250084E-01 -0.49974700664E-02  0.28767546033E-01  0.51100000000E-03 0.  1.
</event>
<event>
 8    1  0.1108957E+005  0.1043930E+01  0.7957747E-01            NaN
         13   -1    0    0    0    0  0.00000000000E+00  0.00000000000E+00  0.74505805969E-08  0.10566000000E+00  0.10566000000E+00 0.  1.
     999900   -1    0    0    0    0 -0.00000000000E+00 -0.00000000000E+00 -0.74505805969E-08  0.93827000000E+00  0.93827000000E+00 0. -1.
     999902    2    1    2    0    0  0.17402538186E-01 -0.19125770332E-01 -0.19503888393E-03  0.10180711240E+01  0.10177426650E+01 0.  0.
     999903    2    3    3    0    0  0.58739491346E-01  0.10493875534E+00 -0.37198285876E-01  0.12763865017E+00  0.21105504720E-01 0.  0.
         14    1    1    2    0    0 -0.17402538186E-01  0.19125770332E-01  0.19503888393E-03  0.25858875967E-01  0.00000000000E+00 0.  1.
     999901    1    3    3    0    0 -0.41336953159E-01 -0.12406452567E+00  0.37003246992E-01  0.89043247387E+00  0.88000000000E+00 0. -1.
        -11    1    4    4    0    0  0.29092078275E-01  0.38463893463E-01 -0.23188427116E-01  0.53514338189E-01  0.51100000000E-03 0. -1.
         11    1    4    4    0    0  0.29647413071E-01  0.66474861874E-01 -0.14009858760E-01  0.74124311979E-01  0.51100000000E-03 0.  1.
</event>
<event>
 8    1  0.1108957E+005  0.1043930E+01  0.7957747E-01            NaN
         13   -1    0    0    0    0  0.00000000000E+00  0.00000000000E+00  0.74505805969E-08  0.10566000000E+00  0.10566000000E+00 0.  1.
     999900   -1    0    0    0    0 -0.00000000000E+00 -0.00000000000E+00 -0.74505805969E-08  0.93827000000E+00  0.93827000000E+00 0.  1.
     999902    2    1    2    0    0 -0.24808722766E-01 -0.11730130774E-02 -0.59930559270E-02  0.10183807260E+01  0.10180601837E+01 0.  0.
     999903    2    3    3    0    0 -0.12420329046E+00  0.31625739229E-01  0.22708272888E-01  0.13171348030E+00  0.20152679514E-01 0.  0.
         14    1    1    2    0    0  0.24808722766E-01  0.11730130774E-02  0.59930559270E-02  0.25549274047E-01  0.00000000000E+00 0. -1.
     999901    1    3    3    0    0  0.99394567696E-01 -0.32798752307E-01 -0.28701328815E-01  0.88666724565E+00  0.88000000000E+00 0.  1.
        -11    1    4    4    0    0 -0.70289434215E-01  0.11559486787E-01  0.20564079638E-01  0.74144243130E-01  0.51100000000E-03 0.  1.
         11    1    4    4    0    0 -0.53913856247E-01  0.20066252442E-01  0.21441932506E-02  0.57569237169E-01  0.51100000000E-03 0. -1.
</event>
<event>
 8    1  0.1108957E+005  0.1043930E+01  0.7957747E-01            NaN
         13   -1    0    0    0    0  0.00000000000E+00  0.00000000000E+00  0.74505805969E-08  0.10566000000E+00  0.10566000000E+00 0.  1.
     999900   -1    0    0    0    0 -0.00000000000E+00 -0.00000000000E+00 -0.74505805969E-08  0.93827000000E+00  0.93827000000E+00 0.  1.
     999902    2    1    2    0    0 -0.76623591231E-02 -0.16282118426E-01 -0.11123598182E-01  0.10227745382E+01  0.10225557209E+01 0.  0.
     999903    2    3    3    0    0 -0.93106703195E-01 -0.86108531454E-01  0.39795649687E-01  0.13442256195E+00  0.20054776448E-01 0.  0.
         14    1    1    2    0    0  0.76623591231E-02  0.16282118426E-01  0.11123598182E-01  0.21155461807E-01  0.00000000000E+00 0.  1.
     999901    1    3    3    0    0  0.85444344072E-01  0.69826413028E-01 -0.50919247869E-01  0.88835197624E+00  0.88000000000E+00 0. -1.
        -11    1    4    4    0    0 -0.79731745293E-01 -0.70512620040E-01  0.40432937084E-01  0.11386072332E+00  0.51100000000E-03 0. -1.
         11    1    4    4    0    0 -0.13374957901E-01 -0.15595911414E-01 -0.63728739675E-03  0.20561838632E-01  0.51100000000E-03 0.  1.
</event>
<event>
 8    1  0.1108957E+005  0.1043930E+01  0.7957747E-01            NaN
         13   -1    0    0    0    0  0.00000000000E+00  0.00000000000E+00  0.74505805969E-08  0.10566000000E+00  0.10566000000E+00 0.  1.
     999900   -1    0    0    0    0 -0.00000000000E+00 -0.00000000000E+00 -0.74505805969E-08  0.93827000000E+00  0.93827000000E+00 0. -1.
     999902    2    1    2    0    0  0.20142055440E-01  0.10767324158E-01  0.70941539582E-02  0.10200142168E+01  0.10197338073E+01 0.  0.
     999903    2    3    3    0    0 -0.44073966463E-01  0.10348223382E+00  0.64170776363E-01  0.13098244413E+00  0.19683111931E-01 0.  0.
         14    1    1    2    0    0 -0.20142055440E-01 -0.10767324158E-01 -0.70941539582E-02  0.23915783225E-01  0.00000000000E+00 0. -1.
     999901    1    3    3    0    0  0.64216021903E-01 -0.92714909665E-01 -0.57076622404E-01  0.88903177264E+00  0.88000000000E+00 0. -1.
        -11    1    4    4    0    0 -0.19838580726E-01  0.66401716955E-01  0.32634454061E-01  0.76603041798E-01  0.51100000000E-03 0.  1.
         11    1    4    4    0    0 -0.24235385737E-01  0.37080516867E-01  0.31536322302E-01  0.54379402335E-01  0.51100000000E-03 0. -1.
</event>
<event>
 8    1  0.1108957E+005  0.1043930E+01  0.7957747E-01            NaN
         13   -1    0    0    0    0  0.00000000000E+00  0.00000000000E+00  0.74505805969E-08  0.10566000000E+00  0.10566000000E+00 0.  1.
     999900   -1    0    0    0    0 -0.00000000000E+00 -0.00000000000E+00 -0.74505805969E-08  0.93827000000E+00  0.93827000000E+00 0.  1.
     999902    2    1    2    0    0  0.14947345589E-01 -0.11892228117E-02 -0.15325527412E-01  0.10224891702E+01  0.10222643465E+01 0.  0.
     999903    2    3    3    0    0 -0.10527812601E-01  0.12368638687E+00  0.39045963009E-01  0.13164734333E+00  0.19931849951E-01 0.  0.
         14    1    1    2    0    0 -0.14947345589E-01  0.11892228117E-02  0.15325527412E-01  0.21440829777E-01  0.00000000000E+00 0.  1.
     999901    1    3    3    0    0  0.25475158190E-01 -0.12487560968E+00 -0.54371490421E-01  0.89084182690E+00  0.88000000000E+00 0.  1.
        -11    1    4    4    0    0  0.13084525245E-02  0.80515994521E-01  0.19849341329E-01  0.82938500673E-01  0.51100000000E-03 0. -1.
         11    1    4    4    0    0 -0.11836265125E-01  0.43170392350E-01  0.19196621680E-01  0.48708842654E-01  0.51100000000E-03 0.  1.
</event>
<event>
 8    1  0.1108957E+005  0.1043930E+01  0.7957747E-01            NaN
         13   -1    0    0    0    0  0.00000000000E+00  0.00000000000E+00  0.74505805969E-08  0.10566000000E+00  0.10566000000E+00 0.  1.
     999900   -1    0    0    0    0 -0.00000000000E+00 -0.00000000000E+00 -0.74505805969E-08  0.93827000000E+00  0.93827000000E+00 0.  1.
     999902    2    1    2    0    0 -0.49306805027E-02  0.16796121751E-01  0.12441692294E-01  0.10224540362E+01  0.10222284671E+01 0.  0.
     999903    2    3    3    0    0 -0.55162987984E-01  0.33482670138E-01 -0.11331434590E+00  0.13193940587E+00  0.20095307702E-01 0.  0.
         14    1    1    2    0    0  0.49306805027E-02 -0.16796121751E-01 -0.12441692294E-01  0.21475963848E-01  0.00000000000E+00 0.  1.
     999901    1    3    3    0    0  0.50232307482E-01 -0.16686548388E-01  0.12575603819E+00  0.89051463029E+00  0.88000000000E+00 0. -1.
        -11    1    4    4    0    0 -0.39372215278E-01  0.22223185534E-01 -0.59466021427E-01  0.74702812106E-01  0.51100000000E-03 0.  1.
         11    1    4    4    0    0 -0.15790772706E-01  0.11259484604E-01 -0.53848324468E-01  0.57236593760E-01  0.51100000000E-03 0. -1.
</event>
<event>
 8    1  0.1108957E+005  0.1043930E+01  0.7957747E-01            NaN
         13   -1    0    0    0    0  0.00000000000E+00  0.00000000000E+00  0.74505805969E-08  0.10566000000E+00  0.10566000000E+00 0. -1.
     999900   -1    0    0    0    0 -0.00000000000E+00 -0.00000000000E+00 -0.74505805969E-08  0.93827000000E+00  0.93827000000E+00 0. -1.
     999902    2    1    2    0    0 -0.22612360370E-01 -0.77060109961E-02 -0.16758705592E-02  0.10199819314E+01  0.10197007553E+01 0.  0.
     999903    2    3    3    0    0 -0.48192870270E-01 -0.15886401059E-02  0.12046072589E+00  0.13115735203E+00  0.19141263997E-01 0.  0.
         14    1    1    2    0    0  0.22612360370E-01  0.77060109961E-02  0.16758705592E-02  0.23948068588E-01  0.00000000000E+00 0.  1.
     999901    1    3    3    0    0  0.25580509899E-01 -0.61173708902E-02 -0.12213659645E+00  0.88882457938E+00  0.88000000000E+00 0. -1.
        -11    1    4    4    0    0 -0.23120456643E-01  0.66352389055E-02  0.42329269570E-01  0.48688911407E-01  0.51100000000E-03 0.  1.
         11    1    4    4    0    0 -0.25072413627E-01 -0.82238790114E-02  0.78131456324E-01  0.82468440626E-01  0.51100000000E-03 0. -1.
</event>
<event>
 8    1  0.1111590E+005  0.1043930E+01  0.7957747E-01            NaN
         13   -1    0    0    0    0  0.00000000000E+00  0.00000000000E+00  0.74505805969E-08  0.10566000000E+00  0.10566000000E+00 0.  1.
     999900   -1    0    0    0    0 -0.00000000000E+00 -0.00000000000E+00 -0.74505805969E-08  0.93827000000E+00  0.93827000000E+00 0. -1.
     999902    2    1    2    0    0  0.14476974622E-02  0.20141890351E-01  0.11544538367E-01  0.10206691328E+01  0.10204040429E+01 0.  0.
     999903    2    3    3    0    0  0.39753742453E-01  0.67654062159E-01 -0.10308925667E+00  0.13113798301E+00  0.20306244900E-01 0.  0.
         14    1    1    2    0    0 -0.14476974622E-02 -0.20141890351E-01 -0.11544538367E-01  0.23260867158E-01  0.00000000000E+00 0. -1.
     999901    1    3    3    0    0 -0.38306044991E-01 -0.47512171808E-01  0.11463379504E+00  0.88953114983E+00  0.88000000000E+00 0.  1.
        -11    1    4    4    0    0  0.32442571443E-01  0.35793156882E-01 -0.63738420183E-01  0.79978233600E-01  0.51100000000E-03 0.  1.
         11    1    4    4    0    0  0.73111710104E-02  0.31860905277E-01 -0.39350836488E-01  0.51159749412E-01  0.51100000000E-03 0. -1.
</event>
<event>
 8    1  0.1108957E+005  0.1043930E+01  0.7957747E-01            NaN
         13   -1    0    0    0    0  0.00000000000E+00  0.00000000000E+00  0.74505805969E-08  0.10566000000E+00  0.10566000000E+00 0. -1.
     999900   -1    0    0    0    0 -0.00000000000E+00 -0.00000000000E+00 -0.74505805969E-08  0.93827000000E+00  0.93827000000E+00 0.  1.
     999902    2    1    2    0    0 -0.29208245992E-03  0.22804407120E-01 -0.45844155193E-02  0.10206675160E+01  0.10204023888E+01 0.  0.
     999903    2    3    3    0    0 -0.11420450814E+00  0.22996245493E-01 -0.58265237618E-01  0.13170311391E+00  0.19477559176E-01 0.  0.
         14    1    1    2    0    0  0.29208245992E-03 -0.22804407120E-01  0.45844155193E-02  0.23262484001E-01  0.00000000000E+00 0.  1.
     999901    1    3    3    0    0  0.11391242568E+00 -0.19183837353E-03  0.53680822098E-01  0.88896440209E+00  0.88000000000E+00 0. -1.
        -11    1    4    4    0    0 -0.80755341247E-01  0.24340864924E-01 -0.45797325592E-01  0.95976866992E-01  0.51100000000E-03 0.  1.
         11    1    4    4    0    0 -0.33449166894E-01 -0.13446194311E-02 -0.12467912026E-01  0.35726246914E-01  0.51100000000E-03 0. -1.
</event>
<event>
 8    1  0.1136965E+005  0.1043930E+01  0.7957747E-01            NaN
         13   -1    0    0    0    0  0.00000000000E+00  0.00000000000E+00  0.74505805969E-08  0.10566000000E+00  0.10566000000E+00 0.  1.
     999900   -1    0    0    0    0 -0.00000000000E+00 -0.00000000000E+00 -0.74505805969E-08  0.93827000000E+00  0.93827000000E+00 0.  1.
     999902    2    1    2    0    0 -0.17127684514E-01  0.80350352221E-02 -0.13852893502E-01  0.10204817159E+01  0.10202122870E+01 0.  0.
     999903    2    3    3    0    0  0.91694152877E-01  0.68452891054E-01  0.55904507610E-01  0.12898936901E+00  0.20477484719E-01 0.  0.
         14    1    1    2    0    0  0.17127684514E-01 -0.80350352221E-02  0.13852893502E-01  0.23448284078E-01  0.00000000000E+00 0.  1.
     999901    1    3    3    0    0 -0.10882183739E+00 -0.60417855832E-01 -0.69757401112E-01  0.89149234691E+00  0.88000000000E+00 0.  1.
        -11    1    4    4    0    0  0.34826237192E-01  0.25887029738E-01  0.32430184564E-01  0.54175484285E-01  0.51100000000E-03 0.  1.
         11    1    4    4    0    0  0.56867915685E-01  0.42565861316E-01  0.23474323046E-01  0.74813884723E-01  0.51100000000E-03 0. -1.
</event>
<event>
 8    1  0.1108957E+005  0.1043930E+01  0.7957747E-01            NaN
         13   -1    0    0    0    0  0.00000000000E+00  0.00000000000E+00  0.74505805969E-08  0.10566000000E+00  0.10566000000E+00 0.  1.
     999900   -1    0    0    0    0 -0.00000000000E+00 -0.00000000000E+00 -0.74505805969E-08  0.93827000000E+00  0.93827000000E+00 0. -1.
     999902    2    1    2    0    0 -0.45902623629E-02 -0.18267831337E-01 -0.15834477177E-01  0.10193227889E+01  0.10190257274E+01 0.  0.
     999903    2    3    3    0    0  0.38621349780E-01  0.22455855347E-01  0.11801020175E+00  0.12722410594E+00  0.16238574962E-01 0.  0.
         14    1    1    2    0    0  0.45902623629E-02  0.18267831337E-01  0.15834477177E-01  0.24607211093E-01  0.00000000000E+00 0.  1.
     999901    1    3    3    0    0 -0.43211612143E-01 -0.40723686684E-01 -0.13384467892E+00  0.89209868297E+00  0.88000000000E+00 0. -1.
        -11    1    4    4    0    0 -0.10926647195E-02  0.17959378488E-02  0.11263508650E-01  0.11469396543E-01  0.51100000000E-03 0.  1.
         11    1    4    4    0    0  0.39714014500E-01  0.20659917498E-01  0.10674669310E+00  0.11575470939E+00  0.51100000000E-03 0. -1.
</event>
<event>
 8    1  0.1108957E+005  0.1043930E+01  0.7957747E-01            NaN
         13   -1    0    0    0    0  0.00000000000E+00  0.00000000000E+00  0.74505805969E-08  0.10566000000E+00  0.10566000000E+00 0. -1.
     999900   -1    0    0    0    0 -0.00000000000E+00 -0.00000000000E+00 -0.74505805969E-08  0.93827000000E+00  0.93827000000E+00 0. -1.
     999902    2    1    2    0    0 -0.54419896304E-02  0.46760089412E-02  0.22556750290E-01  0.10202596114E+01  0.10199849937E+01 0.  0.
     999903    2    3    3    0    0  0.12273908350E+00  0.18802829557E-01 -0.30382339971E-01  0.12928682743E+00  0.19327911116E-01 0.  0.
         14    1    1    2    0    0  0.54419896304E-02 -0.46760089412E-02 -0.22556750290E-01  0.23670388556E-01  0.00000000000E+00 0.  1.
     999901    1    3    3    0    0 -0.12818107313E+00 -0.14126820616E-01  0.52939090261E-01  0.89097278401E+00  0.88000000000E+00 0.  1.
        -11    1    4    4    0    0  0.82201109518E-01  0.20188954592E-01 -0.25651396285E-01  0.88446998512E-01  0.51100000000E-03 0. -1.
         11    1    4    4    0    0  0.40537973982E-01 -0.13861250354E-02 -0.47309436861E-02  0.40839828921E-01  0.51100000000E-03 0.  1.
</event>
<event>
 8    1  0.1108957E+005  0.1043930E+01  0.7957747E-01            NaN
         13   -1    0    0    0    0  0.00000000000E+00  0.00000000000E+00  0.74505805969E-08  0.10566000000E+00  0.10566000000E+00 0.  1.
     999900   -1    0    0    0    0 -0.00000000000E+00 -0.00000000000E+00 -0.74505805969E-08  0.93827000000E+00  0.93827000000E+00 0. -1.
     999902    2    1    2    0    0  0.36426816715E-02  0.57896964711E-02 -0.22680259090E-01  0.10202406803E+01  0.10199656180E+01 0.  0.
     999903    2    3    3    0    0 -0.17290870419E-01  0.12858373627E+00 -0.21751625552E-02  0.13123165404E+00  0.19602659391E-01 0.  0.
         14    1    1    2    0    0 -0.36426816715E-02 -0.57896964711E-02  0.22680259090E-01  0.23689319690E-01  0.00000000000E+00 0.  1.
     999901    1    3    3    0    0  0.20933552091E-01 -0.12279403980E+00 -0.20505096534E-01  0.88900902627E+00  0.88000000000E+00 0. -1.
        -11    1    4    4    0    0 -0.60082063618E-02  0.14081275176E-01  0.45431366685E-02  0.15977548813E-01  0.51100000000E-03 0.  1.
         11    1    4    4    0    0 -0.11282664058E-01  0.11450246110E+00 -0.67182992236E-02  0.11525410522E+00  0.51100000000E-03 0. -1.
</event>
<event>
 8    1  0.1108957E+005  0.1043930E+01  0.7957747E-01            NaN
         13   -1    0    0    0    0  0.00000000000E+00  0.00000000000E+00  0.74505805969E-08  0.10566000000E+00  0.10566000000E+00 0. -1.
     999900   -1    0    0    0    0 -0.00000000000E+00 -0.00000000000E+00 -0.74505805969E-08  0.93827000000E+00  0.93827000000E+00 0. -1.
     999902    2    1    2    0    0  0.73481962809E-02 -0.67510137166E-02  0.24317737370E-01  0.10176445568E+01  0.10173050277E+01 0.  0.
     999903    2    3    3    0    0 -0.11817497506E+00  0.40826740006E-01 -0.84074567405E-02  0.12686363673E+00  0.19787611389E-01 0.  0.
         14    1    1    2    0    0 -0.73481962809E-02  0.67510137166E-02 -0.24317737370E-01  0.26285443226E-01  0.00000000000E+00 0.  1.
     999901    1    3    3    0    0  0.12552317134E+00 -0.47577753722E-01  0.32725194110E-01  0.89078092005E+00  0.88000000000E+00 0.  1.
        -11    1    4    4    0    0 -0.36045352012E-01  0.21433471574E-01  0.99773175649E-03  0.41951372982E-01  0.51100000000E-03 0. -1.
         11    1    4    4    0    0 -0.82129623048E-01  0.19393268431E-01 -0.94051884970E-02  0.84912263744E-01  0.51100000000E-03 0.  1.
</event>
<event>
 8    1  0.1108957E+005  0.1043930E+01  0.7957747E-01            NaN
         13   -1    0    0    0    0  0.00000000000E+00  0.00000000000E+00  0.74505805969E-08  0.10566000000E+00  0.10566000000E+00 0.  1.
     999900   -1    0    0    0    0 -0.00000000000E+00 -0.00000000000E+00 -0.74505805969E-08  0.93827000000E+00  0.93827000000E+00 0. -1.
     999902    2    1    2    0    0 -0.72613569480E-02 -0.67408626341E-02 -0.23014865304E-01  0.10188730537E+01  0.10185648968E+01 0.  0.
     999903    2    3    3    0    0 -0.34054734614E-01  0.13381447059E-01 -0.12497054136E+00  0.13235303004E+00  0.23683333335E-01 0.  0.
         14    1    1    2    0    0  0.72613569480E-02  0.67408626341E-02  0.23014865304E-01  0.25056946317E-01  0.00000000000E+00 0.  1.
     999901    1    3    3    0    0  0.26793377666E-01 -0.20122309694E-01  0.10195567606E+00  0.88652002364E+00  0.88000000000E+00 0.  1.
        -11    1    4    4    0    0  0.90664427489E-03 -0.31619146758E-03 -0.32911017190E-01  0.32928986537E-01  0.51100000000E-03 0.  1.
         11    1    4    4    0    0 -0.34961378889E-01  0.13697638527E-01 -0.92059524173E-01  0.99424043506E-01  0.51100000000E-03 0. -1.
</event>
<event>
 8    1  0.1108957E+005  0.1043930E+01  0.7957747E-01            NaN
         13   -1    0    0    0    0  0.00000000000E+00  0.00000000000E+00  0.74505805969E-08  0.10566000000E+00  0.10566000000E+00 0. -1.
     999900   -1    0    0    0    0 -0.00000000000E+00 -0.00000000000E+00 -0.74505805969E-08  0.93827000000E+00  0.93827000000E+00 0.  1.
     999902    2    1    2    0    0 -0.12057091079E-01 -0.19703330075E-01 -0.62815265900E-02  0.10199914905E+01  0.10197105415E+01 0.  0.
     999903    2    3    3    0    0  0.55940881512E-02 -0.87344046875E-01  0.95539475993E-01  0.13136651489E+00  0.21658564438E-01 0.  0.
         14    1    1    2    0    0  0.12057091079E-01  0.19703330075E-01  0.62815265900E-02  0.23938509511E-01  0.00000000000E+00 0.  1.
     999901    1    3    3    0    0 -0.17651179230E-01  0.67640716800E-01 -0.10182100258E+00  0.88862497560E+00  0.88000000000E+00 0.  1.
        -11    1    4    4    0    0 -0.34372020110E-02 -0.37603351460E-01  0.28051760048E-01  0.47042414494E-01  0.51100000000E-03 0.  1.
         11    1    4    4    0    0  0.90312901621E-02 -0.49740695415E-01  0.67487715945E-01  0.84324100392E-01  0.51100000000E-03 0. -1.
</event>
<event>
 8    1  0.1108957E+005  0.1043930E+01  0.7957747E-01            NaN
         13   -1    0    0    0    0  0.00000000000E+00  0.00000000000E+00  0.74505805969E-08  0.10566000000E+00  0.10566000000E+00 0.  1.
     999900   -1    0    0    0    0 -0.00000000000E+00 -0.00000000000E+00 -0.74505805969E-08  0.93827000000E+00  0.93827000000E+00 0.  1.
     999902    2    1    2    0    0  0.14092321977E-01 -0.19627873611E-01 -0.10645213873E-01  0.10175260696E+01  0.10171834322E+01 0.  0.
     999903    2    3    3    0    0 -0.28785549338E-02 -0.18888856278E-01 -0.12646638348E+00  0.12977435876E+00  0.21967318201E-01 0.  0.
         14    1    1    2    0    0 -0.14092321977E-01  0.19627873611E-01  0.10645213873E-01  0.26403930382E-01  0.00000000000E+00 0.  1.
     999901    1    3    3    0    0  0.16970876910E-01 -0.73901733279E-03  0.11582116961E+00  0.88775171086E+00  0.88000000000E+00 0. -1.
        -11    1    4    4    0    0  0.11795782115E-03 -0.16211280858E-01 -0.39321961270E-01  0.42535835483E-01  0.51100000000E-03 0.  1.
         11    1    4    4    0    0 -0.29965127549E-02 -0.26775754201E-02 -0.87144422214E-01  0.87238523273E-01  0.51100000000E-03 0. -1.
</event>
<event>
 8    1  0.1108957E+005  0.1043930E+01  0.7957747E-01            NaN
         13   -1    0    0    0    0  0.00000000000E+00  0.00000000000E+00  0.74505805969E-08  0.10566000000E+00  0.10566000000E+00 0.  1.
     999900   -1    0    0    0    0 -0.00000000000E+00 -0.00000000000E+00 -0.74505805969E-08  0.93827000000E+00  0.93827000000E+00 0.  1.
     999902    2    1    2    0    0 -0.12397347218E-01  0.17910734231E-01  0.97177395594E-02  0.10200778915E+01  0.10197989908E+01 0.  0.
     999903    2    3    3    0    0  0.94471957375E-01 -0.69960319743E-01 -0.45619638561E-01  0.12755080740E+00  0.19200520264E-01 0.  0.
         14    1    1    2    0    0  0.12397347218E-01 -0.17910734231E-01 -0.97177395594E-02  0.23852108520E-01  0.00000000000E+00 0. -1.
     999901    1    3    3    0    0 -0.10686930459E+00  0.87871053974E-01  0.55337378120E-01  0.89252708408E+00  0.88000000000E+00 0. -1.
        -11    1    4    4    0    0  0.87814281606E-01 -0.60703789223E-01 -0.36115330241E-01  0.11269816449E+00  0.51100000000E-03 0. -1.
         11    1    4    4    0    0  0.66576757686E-02 -0.92565305198E-02 -0.95043083198E-02  0.14852642914E-01  0.51100000000E-03 0.  1.
</event>
<event>
 8    1  0.1108957E+005  0.1043930E+01  0.7957747E-01            NaN
         13   -1    0    0    0    0  0.00000000000E+00  0.00000000000E+00  0.74505805969E-08  0.10566000000E+00  0.10566000000E+00 0. -1.
     999900   -1    0    0    0    0 -0.00000000000E+00 -0.00000000000E+00 -0.74505805969E-08  0.93827000000E+00  0.93827000000E+00 0. -1.
     999902    2    1    2    0    0 -0.21498789450E-01 -0.94049337930E-02 -0.13207730359E-02  0.10204269115E+01  0.10201562069E+01 0.  0.
     999903    2    3    3    0    0  0.54930329230E-01 -0.10173090423E-01  0.11537454958E+00  0.12943880913E+00  0.17952319654E-01 0.  0.
         14    1    1    2    0    0  0.21498789450E-01  0.94049337930E-02  0.13207730359E-02  0.23503088496E-01  0.00000000000E+00 0.  1.
     999901    1    3    3    0    0 -0.76429118680E-01  0.76815662997E-03 -0.11669532261E+00  0.89098810237E+00  0.88000000000E+00 0. -1.
        -11    1    4    4    0    0  0.26082480451E-01 -0.88175773631E-02  0.74184678794E-01  0.79130734521E-01  0.51100000000E-03 0. -1.
         11    1    4    4    0    0  0.28847848779E-01 -0.13555130599E-02  0.41189870785E-01  0.50308074612E-01  0.51100000000E-03 0.  1.
</event>
<event>
 8    1  0.1108957E+005  0.1043930E+01  0.7957747E-01            NaN
         13   -1    0    0    0    0  0.00000000000E+00  0.00000000000E+00  0.74505805969E-08  0.10566000000E+00  0.10566000000E+00 0.  1.
     999900   -1    0    0    0    0 -0.00000000000E+00 -0.00000000000E+00 -0.74505805969E-08  0.93827000000E+00  0.93827000000E+00 0.  1.
     999902    2    1    2    0    0  0.42800437031E-03 -0.21385007594E-01 -0.79313890413E-02  0.10211175326E+01  0.10208626777E+01 0.  0.
     999903    2    3    3    0    0  0.48968996136E-01 -0.78006275184E-01  0.92774176683E-01  0.13223969689E+00  0.19933590314E-01 0.  0.
         14    1    1    2    0    0 -0.42800437031E-03  0.21385007594E-01  0.79313890413E-02  0.22812467417E-01  0.00000000000E+00 0.  1.
     999901    1    3    3    0    0 -0.48540991765E-01  0.56621267591E-01 -0.10070556572E+00  0.88887783570E+00  0.88000000000E+00 0.  1.
        -11    1    4    4    0    0  0.23931848676E-01 -0.24365744940E-01  0.42868175480E-01  0.54812083499E-01  0.51100000000E-03 0.  1.
         11    1    4    4    0    0  0.25037147460E-01 -0.53640530245E-01  0.49906001203E-01  0.77427613388E-01  0.51100000000E-03 0. -1.
</event>
<event>
 8    1  0.1108957E+005  0.1043930E+01  0.7957747E-01            NaN
         13   -1    0    0    0    0  0.00000000000E+00  0.00000000000E+00  0.74505805969E-08  0.10566000000E+00  0.10566000000E+00 0.  1.
     999900   -1    0    0    0    0 -0.00000000000E+00 -0.00000000000E+00 -0.74505805969E-08  0.93827000000E+00  0.93827000000E+00 0.  1.
     999902    2    1    2    0    0 -0.16368161006E-01  0.11461344970E-01 -0.13575450264E-01  0.10197727656E+01  0.10194865970E+01 0.  0.
     999903    2    3    3    0    0 -0.54902431093E-01  0.10184550012E+00 -0.62016765651E-01  0.13298037362E+00  0.21234823060E-01 0.  0.
         14    1    1    2    0    0  0.16368161006E-01 -0.11461344970E-01  0.13575450264E-01  0.24157234385E-01  0.00000000000E+00 0.  1.
     999901    1    3    3    0    0  0.38534270087E-01 -0.90384155150E-01  0.48441315387E-01  0.88679239200E+00  0.88000000000E+00 0. -1.
        -11    1    4    4    0    0 -0.44035226554E-01  0.94261086460E-01 -0.58039671046E-01  0.11913487371E+00  0.51100000000E-03 0. -1.
         11    1    4    4    0    0 -0.10867204539E-01  0.75844136601E-02 -0.39770946042E-02  0.13845499903E-01  0.51100000000E-03 0.  1.
</event>
<event>
 8    1  0.1108957E+005  0.1043930E+01  0.7957747E-01            NaN
         13   -1    0    0    0    0  0.00000000000E+00  0.00000000000E+00  0.74505805969E-08  0.10566000000E+00  0.10566000000E+00 0. -1.
     999900   -1    0    0    0    0 -0.00000000000E+00 -0.00000000000E+00 -0.74505805969E-08  0.93827000000E+00  0.93827000000E+00 0.  1.
     999902    2    1    2    0    0 -0.82303822824E-02  0.22627524820E-01 -0.24989314397E-03  0.10198508281E+01  0.10195665280E+01 0.  0.
     999903    2    3    3    0    0 -0.50106568444E-01  0.49762213550E-01 -0.10928295386E+00  0.13171901660E+00  0.20498517805E-01 0.  0.
         14    1    1    2    0    0  0.82303822824E-02 -0.22627524820E-01  0.24989314397E-03  0.24079171883E-01  0.00000000000E+00 0.  1.
     999901    1    3    3    0    0  0.41876186161E-01 -0.27134688730E-01  0.10903306071E+00  0.88813181152E+00  0.88000000000E+00 0. -1.
        -11    1    4    4    0    0 -0.26665615282E-01  0.15775157176E-01 -0.35112002271E-01  0.46829738914E-01  0.51100000000E-03 0.  1.
         11    1    4    4    0    0 -0.23440953161E-01  0.33987056374E-01 -0.74170951585E-01  0.84889277686E-01  0.51100000000E-03 0. -1.
</event>
<event>
 8    1  0.1108957E+005  0.1043930E+01  0.7957747E-01            NaN
         13   -1    0    0    0    0  0.00000000000E+00  0.00000000000E+00  0.74505805969E-08  0.10566000000E+00  0.10566000000E+00 0. -1.
     999900   -1    0    0    0    0 -0.00000000000E+00 -0.00000000000E+00 -0.74505805969E-08  0.93827000000E+00  0.93827000000E+00 0.  1.
     999902    2    1    2    0    0  0.22483112165E-01 -0.77878988980E-02 -0.34338170000E-02  0.10198897670E+01  0.10196063967E+01 0.  0.
     999903    2    3    3    0    0  0.36742159324E-01  0.61172094118E-01 -0.10787291905E+00  0.13092051723E+00  0.20288021028E-01 0.  0.
         14    1    1    2    0    0 -0.22483112165E-01  0.77878988980E-02  0.34338170000E-02  0.24040232966E-01  0.00000000000E+00 0. -1.
     999901    1    3    3    0    0 -0.14259047158E-01 -0.68959993016E-01  0.10443910205E+00  0.88896924981E+00  0.88000000000E+00 0. -1.
        -11    1    4    4    0    0  0.12300529918E-01  0.35375469699E-01 -0.66978370451E-01  0.76740407361E-01  0.51100000000E-03 0. -1.
         11    1    4    4    0    0  0.24441629405E-01  0.25796624419E-01 -0.40894548596E-01  0.54180109868E-01  0.51100000000E-03 0.  1.
</event>
<event>
 8    1  0.1108957E+005  0.1043930E+01  0.7957747E-01            NaN
         13   -1    0    0    0    0  0.00000000000E+00  0.00000000000E+00  0.74505805969E-08  0.10566000000E+00  0.10566000000E+00 0.  1.
     999900   -1    0    0    0    0 -0.00000000000E+00 -0.00000000000E+00 -0.74505805969E-08  0.93827000000E+00  0.93827000000E+00 0.  1.
     999902    2    1    2    0    0  0.61352326136E-02  0.13834761009E-01 -0.18411032844E-01  0.10200970853E+01  0.10198186386E+01 0.  0.
     999903    2    3    3    0    0 -0.84234076800E-01 -0.78634655678E-01  0.51606094245E-01  0.12789777845E+00  0.20392743840E-01 0.  0.
         14    1    1    2    0    0 -0.61352326136E-02 -0.13834761009E-01  0.18411032844E-01  0.23832914673E-01  0.00000000000E+00 0.  1.
     999901    1    3    3    0    0  0.90369309414E-01  0.92469416687E-01 -0.70017127089E-01  0.89219930688E+00  0.88000000000E+00 0. -1.
        -11    1    4    4    0    0 -0.29151250089E-01 -0.40964097225E-01  0.21363174496E-01  0.54630568263E-01  0.51100000000E-03 0.  1.
         11    1    4    4    0    0 -0.55082826711E-01 -0.37670558453E-01  0.30242919749E-01  0.73267210187E-01  0.51100000000E-03 0. -1.
</event>
<event>
 8    1  0.1108957E+005  0.1043930E+01  0.7957747E-01            NaN
         13   -1    0    0    0    0  0.00000000000E+00  0.00000000000E+00  0.74505805969E-08  0.10566000000E+00  0.10566000000E+00 0.  1.
     999900   -1    0    0    0    0 -0.00000000000E+00 -0.00000000000E+00 -0.74505805969E-08  0.93827000000E+00  0.93827000000E+00 0. -1.
     999902    2    1    2    0    0  0.72591986041E-02  0.37139934941E-02 -0.22003235924E-01  0.10204644486E+01  0.10201946181E+01 0.  0.
     999903    2    3    3    0    0 -0.93315351502E-01  0.73908422701E-01 -0.52220043827E-01  0.13144501488E+00  0.19510232914E-01 0.  0.
         14    1    1    2    0    0 -0.72591986041E-02 -0.37139934941E-02  0.22003235924E-01  0.23465551414E-01  0.00000000000E+00 0.  1.
     999901    1    3    3    0    0  0.10057455011E+00 -0.70194429207E-01  0.30216807903E-01  0.88901943370E+00  0.88000000000E+00 0. -1.
        -11    1    4    4    0    0 -0.50372597367E-01  0.45685796667E-01 -0.38947687030E-01  0.78369471279E-01  0.51100000000E-03 0. -1.
         11    1    4    4    0    0 -0.42942754136E-01  0.28222626033E-01 -0.13272356797E-01  0.53075543605E-01  0.51100000000E-03 0.  1.
</event>
<event>
 8    1  0.1108957E+005  0.1043930E+01  0.7957747E-01            NaN
         13   -1    0    0    0    0  0.00000000000E+00  0.00000000000E+00  0.74505805969E-08  0.10566000000E+00  0.10566000000E+00 0.  1.
     999900   -1    0    0    0    0 -0.00000000000E+00 -0.00000000000E+00 -0.74505805969E-08  0.93827000000E+00  0.93827000000E+00 0.  1.
     999902    2    1    2    0    0 -0.55261001225E-02  0.15210064410E-01  0.16835995663E-01  0.10205775999E+01  0.10203103953E+01 0.  0.
     999903    2    3    3    0    0 -0.59734341688E-01  0.56142615841E-01 -0.99323054350E-01  0.13034901567E+00  0.20139808120E-01 0.  0.
         14    1    1    2    0    0  0.55261001225E-02 -0.15210064410E-01 -0.16835995663E-01  0.23352400131E-01  0.00000000000E+00 0. -1.
     999901    1    3    3    0    0  0.54208241566E-01 -0.40932551431E-01  0.11615905001E+00  0.89022858420E+00  0.88000000000E+00 0. -1.
        -11    1    4    4    0    0 -0.34643965268E-01  0.32482557174E-01 -0.72434093674E-01  0.86615702373E-01  0.51100000000E-03 0. -1.
         11    1    4    4    0    0 -0.25090376420E-01  0.23660058666E-01 -0.26888960676E-01  0.43733313300E-01  0.51100000000E-03 0.  1.
</event>
<event>
 8    1  0.1108957E+005  0.1043930E+01  0.7957747E-01            NaN
         13   -1    0    0    0    0  0.00000000000E+00  0.00000000000E+00  0.74505805969E-08  0.10566000000E+00  0.10566000000E+00 0. -1.
     999900   -1    0    0    0    0 -0.00000000000E+00 -0.00000000000E+00 -0.74505805969E-08  0.93827000000E+00  0.93827000000E+00 0. -1.
     999902    2    1    2    0    0  0.12348189842E-01 -0.11626065544E-01  0.16397734219E-01  0.10203391357E+01  0.10200663816E+01 0.  0.
     999903    2    3    3    0    0  0.31448852778E-01  0.15736420511E-01 -0.12245286961E+00  0.12882748058E+00  0.19108877651E-01 0.  0.
         14    1    1    2    0    0 -0.12348189842E-01  0.11626065544E-01 -0.16397734219E-01  0.23590864332E-01  0.00000000000E+00 0.  1.
     999901    1    3    3    0    0 -0.19100662936E-01 -0.27362486054E-01  0.13885060383E+00  0.89151165509E+00  0.88000000000E+00 0.  1.
        -11    1    4    4    0    0  0.61041151333E-02  0.53394901938E-02 -0.61056220494E-01  0.61594590340E-01  0.51100000000E-03 0. -1.
         11    1    4    4    0    0  0.25344737645E-01  0.10396930317E-01 -0.61396649120E-01  0.67232890243E-01  0.51100000000E-03 0.  1.
</event>
<event>
 8    1  0.1108957E+005  0.1043930E+01  0.7957747E-01            NaN
         13   -1    0    0    0    0  0.00000000000E+00  0.00000000000E+00  0.74505805969E-08  0.10566000000E+00  0.10566000000E+00 0. -1.
     999900   -1    0    0    0    0 -0.00000000000E+00 -0.00000000000E+00 -0.74505805969E-08  0.93827000000E+00  0.93827000000E+00 0.  1.
     999902    2    1    2    0    0  0.22752749756E-02 -0.22702907876E-01 -0.76102319212E-02  0.10198776710E+01  0.10195940119E+01 0.  0.
     999903    2    3    3    0    0 -0.12312139389E-01 -0.96900372036E-01 -0.87687244891E-01  0.13301218829E+00  0.21492287935E-01 0.  0.
         14    1    1    2    0    0 -0.22752749756E-02  0.22702907876E-01  0.76102319212E-02  0.24052329037E-01  0.00000000000E+00 0.  1.
     999901    1    3    3    0    0  0.14587414365E-01  0.74197464160E-01  0.80077012970E-01  0.88686548267E+00  0.88000000000E+00 0. -1.
        -11    1    4    4    0    0 -0.12726945709E-02 -0.16613344942E-01 -0.27131255112E-01  0.31843195609E-01  0.51100000000E-03 0.  1.
         11    1    4    4    0    0 -0.11039444818E-01 -0.80287027094E-01 -0.60555989779E-01  0.10116899268E+00  0.51100000000E-03 0. -1.
</event>
<event>
 7    1  0.1133081E+005  0.1043930E+01  0.7957747E-01            NaN
         13   -1    0    0    0    0  0.00000000000E+00  0.00000000000E+00  0.74505805969E-08  0.10566000000E+00  0.10566000000E+00 0.  1.
     999900   -1    0    0    0    0 -0.00000000000E+00 -0.00000000000E+00 -0.74505805969E-08  0.93827000000E+00  0.93827000000E+00 0. -1.
     999903    2    1    2    0    0  0.26054822702E-01  0.14980676240E-01 -0.62533456965E-01  0.72121652813E-01  0.19693275955E-01 0.  0.
         14    1    1    2    0    0  0.60424847014E-01 -0.58963829604E-01  0.77797130576E-02  0.84784546195E-01  0.00000000000E+00 0. -1.
     999901    1    1    2    0    0 -0.86479669716E-01  0.43983153364E-01  0.54753743907E-01  0.88702380099E+00  0.88000000000E+00 0.  1.
        -11    1    3    3    0    0  0.22316457700E-02  0.10806359674E-01 -0.26613953062E-01  0.28815295779E-01  0.51100000000E-03 0.  1.
         11    1    3    3    0    0  0.23823176932E-01  0.41743165664E-02 -0.35919503903E-01  0.43306357034E-01  0.51100000000E-03 0. -1.
</event>
<event>
 8    1  0.1108957E+005  0.1043930E+01  0.7957747E-01            NaN
         13   -1    0    0    0    0  0.00000000000E+00  0.00000000000E+00  0.74505805969E-08  0.10566000000E+00  0.10566000000E+00 0.  1.
     999900   -1    0    0    0    0 -0.00000000000E+00 -0.00000000000E+00 -0.74505805969E-08  0.93827000000E+00  0.93827000000E+00 0.  1.
     999902    2    1    2    0    0  0.17424236117E-01 -0.48277758723E-02 -0.16441550185E-01  0.10194915877E+01  0.10191986369E+01 0.  0.
     999903    2    3    3    0    0 -0.96537964467E-02 -0.88505114707E-01  0.90750216700E-01  0.12863515044E+00  0.19622665044E-01 0.  0.
         14    1    1    2    0    0 -0.17424236117E-01  0.48277758723E-02  0.16441550185E-01  0.24438412318E-01  0.00000000000E+00 0.  1.
     999901    1    3    3    0    0  0.27078032564E-01  0.83677338834E-01 -0.10719176688E+00  0.89085643724E+00  0.88000000000E+00 0.  1.
        -11    1    4    4    0    0  0.61982722150E-03 -0.43187012546E-01  0.32153553317E-01  0.53848067285E-01  0.51100000000E-03 0. -1.
         11    1    4    4    0    0 -0.10273623668E-01 -0.45318102161E-01  0.58596663383E-01  0.74787083158E-01  0.51100000000E-03 0.  1.
</event>
<event>
 8    1  0.1108957E+005  0.1043930E+01  0.7957747E-01            NaN
         13   -1    0    0    0    0  0.00000000000E+00  0.00000000000E+00  0.74505805969E-08  0.10566000000E+00  0.10566000000E+00 0. -1.
     999900   -1    0    0    0    0 -0.00000000000E+00 -0.00000000000E+00 -0.74505805969E-08  0.93827000000E+00  0.93827000000E+00 0.  1.
     999902    2    1    2    0    0  0.15821167351E-01  0.12681972807E-01  0.11919887856E-01  0.10204092539E+01  0.10201381377E+01 0.  0.
     999903    2    3    3    0    0 -0.36128132745E-02 -0.97825290838E-01  0.83756968715E-01  0.13038110765E+00  0.20029065818E-01 0.  0.
         14    1    1    2    0    0 -0.15821167351E-01 -0.12681972807E-01 -0.11919887856E-01  0.23520746100E-01  0.00000000000E+00 0.  1.
     999901    1    3    3    0    0  0.19433980625E-01  0.11050726365E+00 -0.71837080859E-01  0.89002814624E+00  0.88000000000E+00 0.  1.
        -11    1    4    4    0    0  0.61002218072E-02 -0.62381657493E-01  0.46498755439E-01  0.78045366782E-01  0.51100000000E-03 0.  1.
         11    1    4    4    0    0 -0.97130350817E-02 -0.35443633346E-01  0.37258213276E-01  0.52335740873E-01  0.51100000000E-03 0. -1.
</event>
<event>
 8    1  0.1108957E+005  0.1043930E+01  0.7957747E-01            NaN
         13   -1    0    0    0    0  0.00000000000E+00  0.00000000000E+00  0.74505805969E-08  0.10566000000E+00  0.10566000000E+00 0. -1.
     999900   -1    0    0    0    0 -0.00000000000E+00 -0.00000000000E+00 -0.74505805969E-08  0.93827000000E+00  0.93827000000E+00 0. -1.
     999902    2    1    2    0    0  0.10082133625E-01  0.18770786703E-01  0.10481299220E-01  0.10201844849E+01  0.10199081007E+01 0.  0.
     999903    2    3    3    0    0 -0.61251503282E-01  0.86168902942E-01 -0.74216098655E-01  0.13068763670E+00  0.19859571971E-01 0.  0.
         14    1    1    2    0    0 -0.10082133625E-01 -0.18770786703E-01 -0.10481299220E-01  0.23745515055E-01  0.00000000000E+00 0.  1.
     999901    1    3    3    0    0  0.71333636907E-01 -0.67398116239E-01  0.84697397875E-01  0.88949684824E+00  0.88000000000E+00 0.  1.
        -11    1    4    4    0    0 -0.15636048718E-01  0.29393891295E-01 -0.13741641653E-01  0.36021947495E-01  0.51100000000E-03 0. -1.
         11    1    4    4    0    0 -0.45615454563E-01  0.56775011647E-01 -0.60474457002E-01  0.94665689208E-01  0.51100000000E-03 0.  1.
</event>
<event>
 8    1  0.1108957E+005  0.1043930E+01  0.7957747E-01            NaN
         13   -1    0    0    0    0  0.00000000000E+00  0.00000000000E+00  0.74505805969E-08  0.10566000000E+00  0.10566000000E+00 0. -1.
     999900   -1    0    0    0    0 -0.00000000000E+00 -0.00000000000E+00 -0.74505805969E-08  0.93827000000E+00  0.93827000000E+00 0.  1.
     999902    2    1    2    0    0 -0.14250552334E-01  0.15635465042E-01  0.94577752628E-02  0.10207568362E+01  0.10204937643E+01 0.  0.
     999903    2    3    3    0    0 -0.12692761597E+00  0.34901863166E-01  0.78043397147E-02  0.13336174456E+00  0.19891893968E-01 0.  0.
         14    1    1    2    0    0  0.14250552334E-01 -0.15635465042E-01 -0.94577752628E-02  0.23173163828E-01  0.00000000000E+00 0.  1.
     999901    1    3    3    0    0  0.11267706364E+00 -0.19266398125E-01  0.16534355481E-02  0.88739509161E+00  0.88000000000E+00 0.  1.
        -11    1    4    4    0    0 -0.29059776350E-02 -0.18906217810E-02 -0.11473104160E-02  0.36873566311E-02  0.51100000000E-03 0. -1.
         11    1    4    4    0    0 -0.12402163833E+00  0.36792484947E-01  0.89516501307E-02  0.12967438793E+00  0.51100000000E-03 0.  1.
</event>
<event>
 8    1  0.1108957E+005  0.1043930E+01  0.7957747E-01            NaN
         13   -1    0    0    0    0  0.00000000000E+00  0.00000000000E+00  0.74505805969E-08  0.10566000000E+00  0.10566000000E+00 0.  1.
     999900   -1    0    0    0    0 -0.00000000000E+00 -0.00000000000E+00 -0.74505805969E-08  0.93827000000E+00  0.93827000000E+00 0.  1.
     999902    2    1    2    0    0  0.17476727283E-01  0.13149359515E-01  0.20583945718E-02  0.10219623274E+01  0.10217261962E+01 0.  0.
     999903    2    3    3    0    0  0.62841999223E-01 -0.10612335019E+00  0.42157505947E-01  0.13185451036E+00  0.19926722612E-01 0.  0.
         14    1    1    2    0    0 -0.17476727283E-01 -0.13149359515E-01 -0.20583945718E-02  0.21967672621E-01  0.00000000000E+00 0. -1.
     999901    1    3    3    0    0 -0.45365271940E-01  0.11927270970E+00 -0.40099111375E-01  0.89010781702E+00  0.88000000000E+00 0.  1.
        -11    1    4    4    0    0  0.22572678132E-01 -0.49342251926E-01  0.27006255520E-01  0.60611736334E-01  0.51100000000E-03 0. -1.
         11    1    4    4    0    0  0.40269321090E-01 -0.56781098263E-01  0.15151250427E-01  0.71242774030E-01  0.51100000000E-03 0.  1.
</event>
<event>
 8    1  0.1108957E+005  0.1043930E+01  0.7957747E-01            NaN
         13   -1    0    0    0    0  0.00000000000E+00  0.00000000000E+00  0.74505805969E-08  0.10566000000E+00  0.10566000000E+00 0.  1.
     999900   -1    0    0    0    0 -0.00000000000E+00 -0.00000000000E+00 -0.74505805969E-08  0.93827000000E+00  0.93827000000E+00 0.  1.
     999902    2    1    2    0    0 -0.14961856898E-01 -0.53069446680E-02  0.22083205418E-01  0.10167327798E+01  0.10163689570E+01 0.  0.
     999903    2    3    3    0    0 -0.14178458542E-01  0.12131801984E+00 -0.26075588576E-01  0.12636557199E+00  0.19215380288E-01 0.  0.
         14    1    1    2    0    0  0.14961856898E-01  0.53069446680E-02 -0.22083205418E-01  0.27197220172E-01  0.00000000000E+00 0. -1.
     999901    1    3    3    0    0 -0.78339835571E-03 -0.12662496451E+00  0.48158793994E-01  0.89036720784E+00  0.88000000000E+00 0.  1.
        -11    1    4    4    0    0 -0.14181752755E-01  0.75727002896E-01 -0.85449877730E-02  0.77517604554E-01  0.51100000000E-03 0.  1.
         11    1    4    4    0    0  0.32942131551E-05  0.45591016949E-01 -0.17530600803E-01  0.48847967438E-01  0.51100000000E-03 0. -1.
</event>
<event>
 8    1  0.1108957E+005  0.1043930E+01  0.7957747E-01            NaN
         13   -1    0    0    0    0  0.00000000000E+00  0.00000000000E+00  0.74505805969E-08  0.10566000000E+00  0.10566000000E+00 0.  1.
     999900   -1    0    0    0    0 -0.00000000000E+00 -0.00000000000E+00 -0.74505805969E-08  0.93827000000E+00  0.93827000000E+00 0.  1.
     999902    2    1    2    0    0 -0.10493645331E-01  0.19830607780E-01  0.64436863264E-02  0.10205871062E+01  0.10203201217E+01 0.  0.
     999903    2    3    3    0    0 -0.12256783876E+00  0.35065276562E-01  0.32455101607E-01  0.13296707844E+00  0.19351010570E-01 0.  0.
         14    1    1    2    0    0  0.10493645331E-01 -0.19830607780E-01 -0.64436863264E-02  0.23342893795E-01  0.00000000000E+00 0. -1.
     999901    1    3    3    0    0  0.11207419343E+00 -0.15234668782E-01 -0.26011415281E-01  0.88762002777E+00  0.88000000000E+00 0. -1.
        -11    1    4    4    0    0 -0.46347565740E-01  0.36208869401E-02  0.11521598233E-01  0.47897975104E-01  0.51100000000E-03 0. -1.
         11    1    4    4    0    0 -0.76220273019E-01  0.31444389622E-01  0.20933503375E-01  0.85069103336E-01  0.51100000000E-03 0.  1.
</event>
<event>
 8    1  0.1108957E+005  0.1043930E+01  0.7957747E-01            NaN
         13   -1    0    0    0    0  0.00000000000E+00  0.00000000000E+00  0.74505805969E-08  0.10566000000E+00  0.10566000000E+00 0. -1.
     999900   -1    0    0    0    0 -0.00000000000E+00 -0.00000000000E+00 -0.74505805969E-08  0.93827000000E+00  0.93827000000E+00 0. -1.
     999902    2    1    2    0    0  0.22562681047E-01 -0.51176589470E-02 -0.37157592887E-02  0.10204977172E+01  0.10202286601E+01 0.  0.
     999903    2    3    3    0    0 -0.11776284173E+00 -0.46579589559E-01 -0.74683641213E-02  0.12840779682E+00  0.19875632448E-01 0.  0.
         14    1    1    2    0    0 -0.22562681047E-01  0.51176589470E-02  0.37157592887E-02  0.23432282779E-01  0.00000000000E+00 0.  1.
     999901    1    3    3    0    0  0.14032552278E+00  0.41461930612E-01  0.37526048325E-02  0.89208992040E+00  0.88000000000E+00 0.  1.
        -11    1    4    4    0    0 -0.59090615428E-01 -0.21654834516E-01 -0.13522463920E-01  0.64371972481E-01  0.51100000000E-03 0.  1.
         11    1    4    4    0    0 -0.58672226307E-01 -0.24924755044E-01  0.60540997991E-02  0.64035824342E-01  0.51100000000E-03 0. -1.
</event>
<event>
 8    1  0.1108957E+005  0.1043930E+01  0.7957747E-01            NaN
         13   -1    0    0    0    0  0.00000000000E+00  0.00000000000E+00  0.74505805969E-08  0.10566000000E+00  0.10566000000E+00 0.  1.
     999900   -1    0    0    0    0 -0.00000000000E+00 -0.00000000000E+00 -0.74505805969E-08  0.93827000000E+00  0.93827000000E+00 0.  1.
     999902    2    1    2    0    0  0.27654217351E-01  0.49254122241E-02  0.87475246548E-02  0.10145100304E+01  0.10140833630E+01 0.  0.
     999903    2    3    3    0    0  0.43214448570E-01  0.93450491493E-01 -0.70472050989E-01  0.12639148449E+00  0.20199367677E-01 0.  0.
         14    1    1    2    0    0 -0.27654217351E-01 -0.49254122241E-02 -0.87475246548E-02  0.29419969586E-01  0.00000000000E+00 0.  1.
     999901    1    3    3    0    0 -0.15560231219E-01 -0.88525079269E-01  0.79219575644E-01  0.88811854593E+00  0.88000000000E+00 0. -1.
        -11    1    4    4    0    0  0.16500518458E-01  0.54668199740E-01 -0.31219214357E-01  0.65082867471E-01  0.51100000000E-03 0. -1.
         11    1    4    4    0    0  0.26713930112E-01  0.38782291753E-01 -0.39252836632E-01  0.61308617015E-01  0.51100000000E-03 0.  1.
</event>
<event>
 8    1  0.1108957E+005  0.1043930E+01  0.7957747E-01            NaN
         13   -1    0    0    0    0  0.00000000000E+00  0.00000000000E+00  0.74505805969E-08  0.10566000000E+00  0.10566000000E+00 0.  1.
     999900   -1    0    0    0    0 -0.00000000000E+00 -0.00000000000E+00 -0.74505805969E-08  0.93827000000E+00  0.93827000000E+00 0. -1.
     999902    2    1    2    0    0  0.18037766831E-01  0.14721343993E-02 -0.14500836920E-01  0.10207394312E+01  0.10204759595E+01 0.  0.
     999903    2    3    3    0    0 -0.49912302904E-01 -0.41082390510E-01 -0.11304391079E+00  0.13161692161E+00  0.19107262964E-01 0.  0.
         14    1    1    2    0    0 -0.18037766831E-01 -0.14721343993E-02  0.14500836920E-01  0.23190568844E-01  0.00000000000E+00 0.  1.
     999901    1    3    3    0    0  0.67950069736E-01  0.42554524909E-01  0.98543073867E-01  0.88912250954E+00  0.88000000000E+00 0.  1.
        -11    1    4    4    0    0 -0.84791257617E-02 -0.13247490212E-01 -0.15748481575E-01  0.22263588289E-01  0.51100000000E-03 0.  1.
         11    1    4    4    0    0 -0.41433177143E-01 -0.27834900298E-01 -0.97295429211E-01  0.10935333332E+00  0.51100000000E-03 0. -1.
</event>
<event>
 8    1  0.1108957E+005  0.1043930E+01  0.7957747E-01            NaN
         13   -1    0    0    0    0  0.00000000000E+00  0.00000000000E+00  0.74505805969E-08  0.10566000000E+00  0.10566000000E+00 0.  1.
     999900   -1    0    0    0    0 -0.00000000000E+00 -0.00000000000E+00 -0.74505805969E-08  0.93827000000E+00  0.93827000000E+00 0. -1.
     999902    2    1    2    0    0 -0.64388132123E-02 -0.83847361690E-02  0.24180034616E-01  0.10175399225E+01  0.10171976493E+01 0.  0.
     999903    2    3    3    0    0 -0.10789954093E+00 -0.87920540489E-02  0.70186599678E-01  0.13051621977E+00  0.19715823640E-01 0.  0.
         14    1    1    2    0    0  0.64388132123E-02  0.83847361690E-02 -0.24180034616E-01  0.26390077496E-01  0.00000000000E+00 0. -1.
     999901    1    3    3    0    0  0.10146072772E+00  0.40731787989E-03 -0.46006565061E-01  0.88702370273E+00  0.88000000000E+00 0. -1.
        -11    1    4    4    0    0 -0.31794364052E-01 -0.11600962493E-01  0.20183732104E-01  0.39409492243E-01  0.51100000000E-03 0. -1.
         11    1    4    4    0    0 -0.76105176880E-01  0.28089084442E-02  0.50002867573E-01  0.91106727530E-01  0.51100000000E-03 0.  1.
</event>
<event>
 8    1  0.1108957E+005  0.1043930E+01  0.7957747E-01            NaN
         13   -1    0    0    0    0  0.00000000000E+00  0.00000000000E+00  0.74505805969E-08  0.10566000000E+00  0.10566000000E+00 0. -1.
     999900   -1    0    0    0    0 -0.00000000000E+00 -0.00000000000E+00 -0.74505805969E-08  0.93827000000E+00  0.93827000000E+00 0. -1.
     999902    2    1    2    0    0  0.27083914838E-02  0.22997025922E-01  0.76821059619E-02  0.10195330056E+01  0.10192410589E+01 0.  0.
     999903    2    3    3    0    0 -0.10611260014E+00 -0.63969699936E-01  0.26078353646E-01  0.12838563192E+00  0.21231663509E-01 0.  0.
         14    1    1    2    0    0 -0.27083914838E-02 -0.22997025922E-01 -0.76821059619E-02  0.24396994440E-01  0.00000000000E+00 0. -1.
     999901    1    3    3    0    0  0.10882099162E+00  0.86966725858E-01 -0.18396247684E-01  0.89114737364E+00  0.88000000000E+00 0. -1.
        -11    1    4    4    0    0 -0.23166421275E-01 -0.13827678145E-01  0.14881058319E-01  0.30815495701E-01  0.51100000000E-03 0.  1.
         11    1    4    4    0    0 -0.82946178864E-01 -0.50142021791E-01  0.11197295327E-01  0.97570136215E-01  0.51100000000E-03 0. -1.
</event>
<event>
 8    1  0.1108957E+005  0.1043930E+01  0.7957747E-01            NaN
         13   -1    0    0    0    0  0.00000000000E+00  0.00000000000E+00  0.74505805969E-08  0.10566000000E+00  0.10566000000E+00 0. -1.
     999900   -1    0    0    0    0 -0.00000000000E+00 -0.00000000000E+00 -0.74505805969E-08  0.93827000000E+00  0.93827000000E+00 0.  1.
     999902    2    1    2    0    0 -0.46033131695E-02  0.20381351684E-03 -0.22933720269E-01  0.10205379595E+01  0.10202698365E+01 0.  0.
     999903    2    3    3    0    0 -0.10344406463E+00 -0.34768740553E-01 -0.72144040222E-01  0.13294896158E+00  0.23688056442E-01 0.  0.
         14    1    1    2    0    0  0.46033131695E-02 -0.20381351684E-03  0.22933720269E-01  0.23392040472E-01  0.00000000000E+00 0. -1.
     999901    1    3    3    0    0  0.98840751464E-01  0.34972554070E-01  0.49210319953E-01  0.88758899795E+00  0.88000000000E+00 0. -1.
        -11    1    4    4    0    0 -0.58471566760E-01 -0.12132629544E-01 -0.27873954271E-01  0.65904045905E-01  0.51100000000E-03 0.  1.
         11    1    4    4    0    0 -0.44972497874E-01 -0.22636111010E-01 -0.44270085951E-01  0.67044915674E-01  0.51100000000E-03 0. -1.
</event>
<event>
 8    1  0.1108957E+005  0.1043930E+01  0.7957747E-01            NaN
         13   -1    0    0    0    0  0.00000000000E+00  0.00000000000E+00  0.74505805969E-08  0.10566000000E+00  0.10566000000E+00 0.  1.
     999900   -1    0    0    0    0 -0.00000000000E+00 -0.00000000000E+00 -0.74505805969E-08  0.93827000000E+00  0.93827000000E+00 0.  1.
     999902    2    1    2    0    0  0.32829885571E-02  0.17656029243E-01  0.15015476865E-01  0.10205210716E+01  0.10202525568E+01 0.  0.
     999903    2    3    3    0    0  0.41441307757E-01 -0.10244100350E+00 -0.61873424194E-01  0.12822557252E+00  0.20048332600E-01 0.  0.
         14    1    1    2    0    0 -0.32829885571E-02 -0.17656029243E-01 -0.15015476865E-01  0.23408928382E-01  0.00000000000E+00 0.  1.
     999901    1    3    3    0    0 -0.38158319199E-01  0.12009703275E+00  0.76888901059E-01  0.89229549909E+00  0.88000000000E+00 0. -1.
        -11    1    4    4    0    0  0.29761507989E-01 -0.56521727925E-01 -0.44069906656E-01  0.77607157396E-01  0.51100000000E-03 0.  1.
         11    1    4    4    0    0  0.11679799768E-01 -0.45919275579E-01 -0.17803517538E-01  0.50618415127E-01  0.51100000000E-03 0. -1.
</event>
<event>
 8    1  0.1108957E+005  0.1043930E+01  0.7957747E-01            NaN
         13   -1    0    0    0    0  0.00000000000E+00  0.00000000000E+00  0.74505805969E-08  0.10566000000E+00  0.10566000000E+00 0.  1.
     999900   -1    0    0    0    0 -0.00000000000E+00 -0.00000000000E+00 -0.74505805969E-08  0.93827000000E+00  0.93827000000E+00 0.  1.
     999902    2    1    2    0    0 -0.11769382774E-01  0.10106741423E-01  0.17027317245E-01  0.10208953712E+01  0.10206354710E+01 0.  0.
     999903    2    3    3    0    0  0.50911608482E-02 -0.12689455015E+00 -0.16223302743E-01  0.12951484885E+00  0.19564093262E-01 0.  0.
         14    1    1    2    0    0  0.11769382774E-01 -0.10106741423E-01 -0.17027317245E-01  0.23034628837E-01  0.00000000000E+00 0. -1.
     999901    1    3    3    0    0 -0.16860543623E-01  0.13700129157E+00  0.33250619988E-01  0.89138052231E+00  0.88000000000E+00 0.  1.
        -11    1    4    4    0    0 -0.60448790078E-02 -0.49004492445E-01 -0.10994765608E-02  0.49390796832E-01  0.51100000000E-03 0.  1.
         11    1    4    4    0    0  0.11136039856E-01 -0.77890057704E-01 -0.15123826182E-01  0.80124052021E-01  0.51100000000E-03 0. -1.
</event>
<event>
 8    1  0.1108957E+005  0.1043930E+01  0.7957747E-01            NaN
         13   -1    0    0    0    0  0.00000000000E+00  0.00000000000E+00  0.74505805969E-08  0.10566000000E+00  0.10566000000E+00 0.  1.
     999900   -1    0    0    0    0 -0.00000000000E+00 -0.00000000000E+00 -0.74505805969E-08  0.93827000000E+00  0.93827000000E+00 0. -1.
     999902    2    1    2    0    0  0.10613816794E-01  0.18323068158E-01  0.10977924712E-01  0.10200783174E+01  0.10197994267E+01 0.  0.
     999903    2    3    3    0    0  0.45307706826E-01  0.73910746414E-01 -0.96304432336E-01  0.13114459648E+00  0.20218179105E-01 0.  0.
         14    1    1    2    0    0 -0.10613816794E-01 -0.18323068158E-01 -0.10977924712E-01  0.23851682638E-01  0.00000000000E+00 0. -1.
     999901    1    3    3    0    0 -0.34693890032E-01 -0.55587678255E-01  0.10728235705E+00  0.88893372088E+00  0.88000000000E+00 0.  1.
        -11    1    4    4    0    0  0.16276179263E-01  0.40411340549E-01 -0.37384366952E-01  0.57409428405E-01  0.51100000000E-03 0.  1.
         11    1    4    4    0    0  0.29031527563E-01  0.33499405865E-01 -0.58920065384E-01  0.73735168080E-01  0.51100000000E-03 0. -1.
</event>
<event>
 8    1  0.1108957E+005  0.1043930E+01  0.7957747E-01            NaN
         13   -1    0    0    0    0  0.00000000000E+00  0.00000000000E+00  0.74505805969E-08  0.10566000000E+00  0.10566000000E+00 0. -1.
     999900   -1    0    0    0    0 -0.00000000000E+00 -0.00000000000E+00 -0.74505805969E-08  0.93827000000E+00  0.93827000000E+00 0.  1.
     999902    2    1    2    0    0 -0.84299525537E-02  0.12116578978E-01 -0.18812211199E-01  0.10200181854E+01  0.10197378701E+01 0.  0.
     999903    2    3    3    0    0 -0.12191329097E+00 -0.22175823423E-01  0.34248715419E-01  0.13048465660E+00  0.22330549482E-01 0.  0.
         14    1    1    2    0    0  0.84299525537E-02 -0.12116578978E-01  0.18812211199E-01  0.23911814577E-01  0.00000000000E+00 0. -1.
     999901    1    3    3    0    0  0.11348333842E+00  0.34292402401E-01 -0.53060926618E-01  0.88953352882E+00  0.88000000000E+00 0. -1.
        -11    1    4    4    0    0 -0.23409688026E-01 -0.10482972167E-01  0.14058764336E-01  0.29254335996E-01  0.51100000000E-03 0. -1.
         11    1    4    4    0    0 -0.98503602949E-01 -0.11692851256E-01  0.20189951083E-01  0.10123032061E+00  0.51100000000E-03 0.  1.
</event>
<event>
 8    1  0.1108957E+005  0.1043930E+01  0.7957747E-01            NaN
         13   -1    0    0    0    0  0.00000000000E+00  0.00000000000E+00  0.74505805969E-08  0.10566000000E+00  0.10566000000E+00 0. -1.
     999900   -1    0    0    0    0 -0.00000000000E+00 -0.00000000000E+00 -0.74505805969E-08  0.93827000000E+00  0.93827000000E+00 0.  1.
     999902    2    1    2    0    0  0.14888025479E-01  0.19486417672E-01 -0.17526107607E-02  0.10193445283E+01  0.10190479978E+01 0.  0.
     999903    2    3    3    0    0  0.29393657265E-01  0.11961812633E+00  0.44041159120E-01  0.13236434708E+00  0.20204292811E-01 0.  0.
         14    1    1    2    0    0 -0.14888025479E-01 -0.19486417672E-01  0.17526107607E-02  0.24585471743E-01  0.00000000000E+00 0. -1.
     999901    1    3    3    0    0 -0.14505631786E-01 -0.10013170866E+00 -0.45793769881E-01  0.88698018117E+00  0.88000000000E+00 0.  1.
        -11    1    4    4    0    0  0.85481042334E-02  0.51461089855E-01  0.89937990861E-02  0.52938298027E-01  0.51100000000E-03 0.  1.
         11    1    4    4    0    0  0.20845553031E-01  0.68157036477E-01  0.35047360034E-01  0.79426049057E-01  0.51100000000E-03 0. -1.
</event>
<event>
 8    1  0.1108957E+005  0.1043930E+01  0.7957747E-01            NaN
         13   -1    0    0    0    0  0.00000000000E+00  0.00000000000E+00  0.74505805969E-08  0.10566000000E+00  0.10566000000E+00 0.  1.
     999900   -1    0    0    0    0 -0.00000000000E+00 -0.00000000000E+00 -0.74505805969E-08  0.93827000000E+00  0.93827000000E+00 0.  1.
     999902    2    1    2    0    0 -0.59052775113E-02 -0.15489701860E-01 -0.16634495132E-01  0.10204457586E+01  0.10201754931E+01 0.  0.
     999903    2    3    3    0    0 -0.10329975495E+00 -0.74405453343E-01  0.28149835171E-01  0.13198507502E+00  0.20509411244E-01 0.  0.
         14    1    1    2    0    0  0.59052775113E-02  0.15489701860E-01  0.16634495132E-01  0.23484241408E-01  0.00000000000E+00 0.  1.
     999901    1    3    3    0    0  0.97394477435E-01  0.58915751483E-01 -0.44784330303E-01  0.88846068357E+00  0.88000000000E+00 0.  1.
        -11    1    4    4    0    0 -0.88079155537E-01 -0.65569313535E-01  0.16922649207E-01  0.11110314890E+00  0.51100000000E-03 0. -1.
         11    1    4    4    0    0 -0.15220599409E-01 -0.88361398078E-02  0.11227185964E-01  0.20881926126E-01  0.51100000000E-03 0.  1.
</event>
<event>
 8    1  0.1108957E+005  0.1043930E+01  0.7957747E-01            NaN
         13   -1    0    0    0    0  0.00000000000E+00  0.00000000000E+00  0.74505805969E-08  0.10566000000E+00  0.10566000000E+00 0. -1.
     999900   -1    0    0    0    0 -0.00000000000E+00 -0.00000000000E+00 -0.74505805969E-08  0.93827000000E+00  0.93827000000E+00 0. -1.
     999902    2    1    2    0    0  0.30102224756E-02 -0.19759538998E-01 -0.12627464933E-01  0.10202877985E+01  0.10200138421E+01 0.  0.
     999903    2    3    3    0    0 -0.67829081277E-01 -0.17929044032E-01 -0.11015227760E+00  0.13206899283E+00  0.19658578821E-01 0.  0.
         14    1    1    2    0    0 -0.30102224756E-02  0.19759538998E-01  0.12627464933E-01  0.23642201492E-01  0.00000000000E+00 0. -1.
     999901    1    3    3    0    0  0.70839303752E-01 -0.18304949656E-02  0.97524812666E-01  0.88821880567E+00  0.88000000000E+00 0. -1.
        -11    1    4    4    0    0 -0.34722289419E-01 -0.19127013601E-02 -0.66008351891E-01  0.74610049251E-01  0.51100000000E-03 0. -1.
         11    1    4    4    0    0 -0.33106791858E-01 -0.16016342672E-01 -0.44143925708E-01  0.57458943582E-01  0.51100000000E-03 0.  1.
</event>
<event>
 8    1  0.1108957E+005  0.1043930E+01  0.7957747E-01            NaN
         13   -1    0    0    0    0  0.00000000000E+00  0.00000000000E+00  0.74505805969E-08  0.10566000000E+00  0.10566000000E+00 0. -1.
     999900   -1    0    0    0    0 -0.00000000000E+00 -0.00000000000E+00 -0.74505805969E-08  0.93827000000E+00  0.93827000000E+00 0. -1.
     999902    2    1    2    0    0 -0.20361135050E-01  0.12884494733E-01 -0.16521977450E-02  0.10197780688E+01  0.10194920273E+01 0.  0.
     999903    2    3    3    0    0 -0.46285491591E-01 -0.10709079304E+00 -0.53145865303E-01  0.12976810268E+00  0.20112006061E-01 0.  0.
         14    1    1    2    0    0  0.20361135050E-01 -0.12884494733E-01  0.16521977450E-02  0.24151931236E-01  0.00000000000E+00 0.  1.
     999901    1    3    3    0    0  0.25924356541E-01  0.11997528777E+00  0.51493667558E-01  0.89000996609E+00  0.88000000000E+00 0.  1.
        -11    1    4    4    0    0 -0.30900103900E-01 -0.47422810278E-01 -0.22073694610E-01  0.60755645585E-01  0.51100000000E-03 0.  1.
         11    1    4    4    0    0 -0.15385387690E-01 -0.59667982761E-01 -0.31072170694E-01  0.69012457091E-01  0.51100000000E-03 0. -1.
</event>
<event>
 8    1  0.1108957E+005  0.1043930E+01  0.7957747E-01            NaN
         13   -1    0    0    0    0  0.00000000000E+00  0.00000000000E+00  0.74505805969E-08  0.10566000000E+00  0.10566000000E+00 0. -1.
     999900   -1    0    0    0    0 -0.00000000000E+00 -0.00000000000E+00 -0.74505805969E-08  0.93827000000E+00  0.93827000000E+00 0.  1.
     999902    2    1    2    0    0 -0.19042648420E-01  0.14262733533E-01 -0.34415018113E-02  0.10198906165E+01  0.10196072663E+01 0.  0.
     999903    2    3    3    0    0  0.11791633196E+00  0.47084528607E-01 -0.34213789815E-02  0.12869196691E+00  0.20705128289E-01 0.  0.
         14    1    1    2    0    0  0.19042648420E-01 -0.14262733533E-01  0.34415018113E-02  0.24039383548E-01  0.00000000000E+00 0. -1.
     999901    1    3    3    0    0 -0.13695898038E+00 -0.32821795074E-01 -0.20122829760E-04  0.89119864954E+00  0.88000000000E+00 0. -1.
        -11    1    4    4    0    0  0.35314796918E-01  0.22613919929E-01  0.44920299315E-02  0.42177763215E-01  0.51100000000E-03 0. -1.
         11    1    4    4    0    0  0.82601535038E-01  0.24470608678E-01 -0.79134089130E-02  0.86514203697E-01  0.51100000000E-03 0.  1.
</event>
<event>
 8    1  0.1108957E+005  0.1043930E+01  0.7957747E-01            NaN
         13   -1    0    0    0    0  0.00000000000E+00  0.00000000000E+00  0.74505805969E-08  0.10566000000E+00  0.10566000000E+00 0.  1.
     999900   -1    0    0    0    0 -0.00000000000E+00 -0.00000000000E+00 -0.74505805969E-08  0.93827000000E+00  0.93827000000E+00 0.  1.
     999902    2    1    2    0    0 -0.10567424382E-01 -0.20029868212E-01  0.66555656809E-02  0.10203257073E+01  0.10200526390E+01 0.  0.
     999903    2    3    3    0    0  0.20241003551E-01 -0.89892606683E-01  0.93494560588E-01  0.13276107728E+00  0.19846708011E-01 0.  0.
         14    1    1    2    0    0  0.10567424382E-01  0.20029868212E-01 -0.66555656809E-02  0.23604292686E-01  0.00000000000E+00 0. -1.
     999901    1    3    3    0    0 -0.30808427933E-01  0.69862738471E-01 -0.86838994907E-01  0.88756463004E+00  0.88000000000E+00 0.  1.
        -11    1    4    4    0    0  0.20742159773E-01 -0.48826363933E-01  0.49197532091E-01  0.72352673011E-01  0.51100000000E-03 0. -1.
         11    1    4    4    0    0 -0.50115622264E-03 -0.41066242750E-01  0.44297028497E-01  0.60408404265E-01  0.51100000000E-03 0.  1.
</event>
<event>
 8    1  0.1108957E+005  0.1043930E+01  0.7957747E-01            NaN
         13   -1    0    0    0    0  0.00000000000E+00  0.00000000000E+00  0.74505805969E-08  0.10566000000E+00  0.10566000000E+00 0.  1.
     999900   -1    0    0    0    0 -0.00000000000E+00 -0.00000000000E+00 -0.74505805969E-08  0.93827000000E+00  0.93827000000E+00 0.  1.
     999902    2    1    2    0    0 -0.20862051209E-03  0.21050900235E-01  0.18153523745E-01  0.10161319003E+01  0.10157515958E+01 0.  0.
     999903    2    3    3    0    0 -0.11353391487E+00  0.35792086725E-01 -0.39202505324E-01  0.12689085367E+00  0.19835045371E-01 0.  0.
         14    1    1    2    0    0  0.20862051209E-03 -0.21050900235E-01 -0.18153523745E-01  0.27798099711E-01  0.00000000000E+00 0. -1.
     999901    1    3    3    0    0  0.11332529435E+00 -0.14741186490E-01  0.57356029069E-01  0.88924104662E+00  0.88000000000E+00 0. -1.
        -11    1    4    4    0    0 -0.59602799421E-01  0.22407949341E-01 -0.30638689427E-01  0.70665410940E-01  0.51100000000E-03 0.  1.
         11    1    4    4    0    0 -0.53931115445E-01  0.13384137384E-01 -0.85638158968E-02  0.56225442731E-01  0.51100000000E-03 0. -1.
</event>
<event>
 8    1  0.1108957E+005  0.1043930E+01  0.7957747E-01            NaN
         13   -1    0    0    0    0  0.00000000000E+00  0.00000000000E+00  0.74505805969E-08  0.10566000000E+00  0.10566000000E+00 0. -1.
     999900   -1    0    0    0    0 -0.00000000000E+00 -0.00000000000E+00 -0.74505805969E-08  0.93827000000E+00  0.93827000000E+00 0. -1.
     999902    2    1    2    0    0  0.90468771934E-02  0.21683302845E-01 -0.44404460528E-02  0.10200191412E+01  0.10197388485E+01 0.  0.
     999903    2    3    3    0    0  0.25899525651E-01  0.18143378605E-01 -0.12609126301E+00  0.13148356839E+00  0.19721930253E-01 0.  0.
         14    1    1    2    0    0 -0.90468771934E-02 -0.21683302845E-01  0.44404460528E-02  0.23910858838E-01  0.00000000000E+00 0.  1.
     999901    1    3    3    0    0 -0.16852648458E-01  0.35399242398E-02  0.12165081695E+00  0.88853557278E+00  0.88000000000E+00 0.  1.
        -11    1    4    4    0    0  0.18830444970E-02 -0.25919562019E-02 -0.32443592720E-01  0.32605397147E-01  0.51100000000E-03 0.  1.
         11    1    4    4    0    0  0.24016481154E-01  0.20735334807E-01 -0.93647670285E-01  0.98878171239E-01  0.51100000000E-03 0. -1.
</event>
<event>
 8    1  0.1108957E+005  0.1043930E+01  0.7957747E-01            NaN
         13   -1    0    0    0    0  0.00000000000E+00  0.00000000000E+00  0.74505805969E-08  0.10566000000E+00  0.10566000000E+00 0.  1.
     999900   -1    0    0    0    0 -0.00000000000E+00 -0.00000000000E+00 -0.74505805969E-08  0.93827000000E+00  0.93827000000E+00 0.  1.
     999902    2    1    2    0    0  0.63283300263E-02 -0.16731653824E-01  0.16168801671E-01  0.10198172202E+01  0.10195321165E+01 0.  0.
     999903    2    3    3    0    0 -0.51830183279E-01 -0.69983629410E-01  0.97956066716E-01  0.13251380973E+00  0.19504934702E-01 0.  0.
         14    1    1    2    0    0 -0.63283300263E-02  0.16731653824E-01 -0.16168801671E-01  0.24112779767E-01  0.00000000000E+00 0. -1.
     999901    1    3    3    0    0  0.58158513305E-01  0.53251975585E-01 -0.81787265045E-01  0.88730341051E+00  0.88000000000E+00 0.  1.
        -11    1    4    4    0    0 -0.77435217264E-02 -0.12691929949E-01  0.29074597160E-01  0.32659463186E-01  0.51100000000E-03 0. -1.
         11    1    4    4    0    0 -0.44086661552E-01 -0.57291699460E-01  0.68881469555E-01  0.99854346540E-01  0.51100000000E-03 0.  1.
</event>
<event>
 8    1  0.1108957E+005  0.1043930E+01  0.7957747E-01            NaN
         13   -1    0    0    0    0  0.00000000000E+00  0.00000000000E+00  0.74505805969E-08  0.10566000000E+00  0.10566000000E+00 0. -1.
     999900   -1    0    0    0    0 -0.00000000000E+00 -0.00000000000E+00 -0.74505805969E-08  0.93827000000E+00  0.93827000000E+00 0. -1.
     999902    2    1    2    0    0 -0.19641444323E-01 -0.66971639349E-02 -0.97029195176E-02  0.10210218140E+01  0.10207647915E+01 0.  0.
     999903    2    3    3    0    0  0.55611826057E-01  0.11104792642E+00  0.23602480452E-01  0.12937378326E+00  0.27498755491E-01 0.  0.
         14    1    1    2    0    0  0.19641444323E-01  0.66971639349E-02  0.97029195176E-02  0.22908186026E-01  0.00000000000E+00 0. -1.
     999901    1    3    3    0    0 -0.75253270380E-01 -0.11774509035E+00 -0.33305399970E-01  0.89164803071E+00  0.88000000000E+00 0. -1.
        -11    1    4    4    0    0  0.24207070160E-01  0.75587278493E-01  0.94315091835E-02  0.79928927193E-01  0.51100000000E-03 0. -1.
         11    1    4    4    0    0  0.31404755897E-01  0.35460647922E-01  0.14170971269E-01  0.49444856069E-01  0.51100000000E-03 0.  1.
</event>
<event>
 8    1  0.1108957E+005  0.1043930E+01  0.7957747E-01            NaN
         13   -1    0    0    0    0  0.00000000000E+00  0.00000000000E+00  0.74505805969E-08  0.10566000000E+00  0.10566000000E+00 0. -1.
     999900   -1    0    0    0    0 -0.00000000000E+00 -0.00000000000E+00 -0.74505805969E-08  0.93827000000E+00  0.93827000000E+00 0. -1.
     999902    2    1    2    0    0 -0.10928568504E-01  0.18839743491E-01 -0.31902637083E-02  0.10219175643E+01  0.10216804593E+01 0.  0.
     999903    2    3    3    0    0 -0.69619403303E-01 -0.20493163676E-01 -0.10924233822E+00  0.13273887908E+00  0.20466814274E-01 0.  0.
         14    1    1    2    0    0  0.10928568504E-01 -0.18839743491E-01  0.31902637083E-02  0.22012435732E-01  0.00000000000E+00 0.  1.
     999901    1    3    3    0    0  0.58690834799E-01  0.39332907167E-01  0.10605207451E+00  0.88917868518E+00  0.88000000000E+00 0.  1.
        -11    1    4    4    0    0 -0.41474777157E-01 -0.22200349338E-01 -0.64094591778E-01  0.79507172426E-01  0.51100000000E-03 0. -1.
         11    1    4    4    0    0 -0.28144626146E-01  0.17071856615E-02 -0.45147746445E-01  0.53231706659E-01  0.51100000000E-03 0.  1.
</event>
<event>
 8    1  0.1108957E+005  0.1043930E+01  0.7957747E-01            NaN
         13   -1    0    0    0    0  0.00000000000E+00  0.00000000000E+00  0.74505805969E-08  0.10566000000E+00  0.10566000000E+00 0.  1.
     999900   -1    0    0    0    0 -0.00000000000E+00 -0.00000000000E+00 -0.74505805969E-08  0.93827000000E+00  0.93827000000E+00 0.  1.
     999902    2    1    2    0    0 -0.40237730676E-02 -0.22970424627E-01  0.10291367469E-01  0.10184399352E+01  0.10181208957E+01 0.  0.
     999903    2    3    3    0    0 -0.85034478847E-01  0.84226027111E-01 -0.38115982688E-01  0.12692600643E+00  0.18234493008E-01 0.  0.
         14    1    1    2    0    0  0.40237730676E-02  0.22970424627E-01 -0.10291367469E-01  0.25490064763E-01  0.00000000000E+00 0.  1.
     999901    1    3    3    0    0  0.81010705779E-01 -0.10719645174E+00  0.48407350157E-01  0.89151392881E+00  0.88000000000E+00 0. -1.
        -11    1    4    4    0    0 -0.31871832496E-01  0.39544267566E-01 -0.88203848703E-02  0.51552139764E-01  0.51100000000E-03 0. -1.
         11    1    4    4    0    0 -0.53162646350E-01  0.44681759545E-01 -0.29295597817E-01  0.75373866661E-01  0.51100000000E-03 0.  1.
</event>
<event>
 8    1  0.1108957E+005  0.1043930E+01  0.7957747E-01            NaN
         13   -1    0    0    0    0  0.00000000000E+00  0.00000000000E+00  0.74505805969E-08  0.10566000000E+00  0.10566000000E+00 0.  1.
     999900   -1    0    0    0    0 -0.00000000000E+00 -0.00000000000E+00 -0.74505805969E-08  0.93827000000E+00  0.93827000000E+00 0. -1.
     999902    2    1    2    0    0  0.15033947650E-01 -0.18490309764E-01 -0.69627558525E-02  0.10191027749E+01  0.10188003115E+01 0.  0.
     999903    2    3    3    0    0 -0.59068670796E-01 -0.61020939449E-01  0.95260874351E-01  0.12907484102E+00  0.19313660455E-01 0.  0.
         14    1    1    2    0    0 -0.15033947650E-01  0.18490309764E-01  0.69627558525E-02  0.24827225100E-01  0.00000000000E+00 0.  1.
     999901    1    3    3    0    0  0.74102618446E-01  0.42530629684E-01 -0.10222363020E+00  0.89002793388E+00  0.88000000000E+00 0. -1.
        -11    1    4    4    0    0 -0.21835671266E-01 -0.14869895678E-01  0.40504031140E-01  0.48360603767E-01  0.51100000000E-03 0. -1.
         11    1    4    4    0    0 -0.37232999530E-01 -0.46151043771E-01  0.54756843211E-01  0.80714237249E-01  0.51100000000E-03 0.  1.
</event>
<event>
 8    1  0.1108957E+005  0.1043930E+01  0.7957747E-01            NaN
         13   -1    0    0    0    0  0.00000000000E+00  0.00000000000E+00  0.74505805969E-08  0.10566000000E+00  0.10566000000E+00 0.  1.
     999900   -1    0    0    0    0 -0.00000000000E+00 -0.00000000000E+00 -0.74505805969E-08  0.93827000000E+00  0.93827000000E+00 0. -1.
     999902    2    1    2    0    0  0.22241609042E-01 -0.81283333744E-02  0.27359915680E-02  0.10200921178E+01  0.10198135537E+01 0.  0.
     999903    2    3    3    0    0 -0.42413805202E-01 -0.47254073327E-01  0.11180664320E+00  0.13014405577E+00  0.20121418245E-01 0.  0.
         14    1    1    2    0    0 -0.22241609042E-01  0.81283333744E-02 -0.27359915680E-02  0.23837882164E-01  0.00000000000E+00 0.  1.
     999901    1    3    3    0    0  0.64655414245E-01  0.39125739953E-01 -0.10907065163E+00  0.88994806206E+00  0.88000000000E+00 0. -1.
        -11    1    4    4    0    0 -0.13001063980E-01 -0.94997705938E-02  0.46245834243E-01  0.48971538793E-01  0.51100000000E-03 0.  1.
         11    1    4    4    0    0 -0.29412741222E-01 -0.37754302733E-01  0.65560808957E-01  0.81172516982E-01  0.51100000000E-03 0. -1.
</event>
<event>
 8    1  0.1108957E+005  0.1043930E+01  0.7957747E-01            NaN
         13   -1    0    0    0    0  0.00000000000E+00  0.00000000000E+00  0.74505805969E-08  0.10566000000E+00  0.10566000000E+00 0. -1.
     999900   -1    0    0    0    0 -0.00000000000E+00 -0.00000000000E+00 -0.74505805969E-08  0.93827000000E+00  0.93827000000E+00 0. -1.
     999902    2    1    2    0    0  0.36121375921E-03  0.10382320486E-01 -0.18028165961E-01  0.10231228420E+01  0.10229112435E+01 0.  0.
     999903    2    3    3    0    0 -0.92119769058E-01  0.26846261181E-01  0.88032077740E-01  0.13179093483E+00  0.20308377643E-01 0.  0.
         14    1    1    2    0    0 -0.36121375921E-03 -0.10382320486E-01  0.18028165961E-01  0.20807157951E-01  0.00000000000E+00 0. -1.
     999901    1    3    3    0    0  0.92480982817E-01 -0.16463940694E-01 -0.10606024370E+00  0.89133190722E+00  0.88000000000E+00 0. -1.
        -11    1    4    4    0    0 -0.36430699588E-01  0.10513916817E-01  0.21847194535E-01  0.43764133139E-01  0.51100000000E-03 0. -1.
         11    1    4    4    0    0 -0.55689069470E-01  0.16332344363E-01  0.66184883205E-01  0.88026801695E-01  0.51100000000E-03 0.  1.
</event>
<event>
 8    1  0.1108957E+005  0.1043930E+01  0.7957747E-01            NaN
         13   -1    0    0    0    0  0.00000000000E+00  0.00000000000E+00  0.74505805969E-08  0.10566000000E+00  0.10566000000E+00 0.  1.
     999900   -1    0    0    0    0 -0.00000000000E+00 -0.00000000000E+00 -0.74505805969E-08  0.93827000000E+00  0.93827000000E+00 0.  1.
     999902    2    1    2    0    0 -0.17640643255E-01 -0.19542846180E-01  0.41316481277E-02  0.10172806914E+01  0.10169315707E+01 0.  0.
     999903    2    3    3    0    0 -0.54699323351E-01  0.11251537974E+00  0.11196436888E-01  0.12662776686E+00  0.16046946378E-01 0.  0.
         14    1    1    2    0    0  0.17640643255E-01  0.19542846180E-01 -0.41316481277E-02  0.26649308575E-01  0.00000000000E+00 0. -1.
     999901    1    3    3    0    0  0.37058680096E-01 -0.13205822592E+00 -0.70647887608E-02  0.89065292457E+00  0.88000000000E+00 0.  1.
        -11    1    4    4    0    0 -0.21991942486E-01  0.59693502875E-01  0.10598108058E-01  0.64494502364E-01  0.51100000000E-03 0.  1.
         11    1    4    4    0    0 -0.32707380865E-01  0.52821876860E-01  0.59832883005E-03  0.62133264492E-01  0.51100000000E-03 0. -1.
</event>
<event>
 8    1  0.1108957E+005  0.1043930E+01  0.7957747E-01            NaN
         13   -1    0    0    0    0  0.00000000000E+00  0.00000000000E+00  0.74505805969E-08  0.10566000000E+00  0.10566000000E+00 0.  1.
     999900   -1    0    0    0    0 -0.00000000000E+00 -0.00000000000E+00 -0.74505805969E-08  0.93827000000E+00  0.93827000000E+00 0. -1.
     999902    2    1    2    0    0  0.44691151945E-02 -0.22496893598E-01 -0.19958185185E-02  0.10209068268E+01  0.10206471881E+01 0.  0.
     999903    2    3    3    0    0 -0.15299501525E-01  0.85397913892E-01  0.93308553735E-01  0.12899034470E+00  0.20128198664E-01 0.  0.
         14    1    1    2    0    0 -0.44691151945E-02  0.22496893598E-01  0.19958185185E-02  0.23023173190E-01  0.00000000000E+00 0.  1.
     999901    1    3    3    0    0  0.19768616719E-01 -0.10789480749E+00 -0.95304372253E-01  0.89191648211E+00  0.88000000000E+00 0. -1.
        -11    1    4    4    0    0 -0.63330348861E-02  0.72910475852E-01  0.81925075163E-01  0.10985455785E+00  0.51100000000E-03 0. -1.
         11    1    4    4    0    0 -0.89664666386E-02  0.12487438040E-01  0.11383478572E-01  0.19135786845E-01  0.51100000000E-03 0.  1.
</event>
<event>
 8    1  0.1108957E+005  0.1043930E+01  0.7957747E-01            NaN
         13   -1    0    0    0    0  0.00000000000E+00  0.00000000000E+00  0.74505805969E-08  0.10566000000E+00  0.10566000000E+00 0. -1.
     999900   -1    0    0    0    0 -0.00000000000E+00 -0.00000000000E+00 -0.74505805969E-08  0.93827000000E+00  0.93827000000E+00 0. -1.
     999902    2    1    2    0    0 -0.14247840521E-01  0.75138097319E-03 -0.18389878775E-01  0.10206544082E+01  0.10203889787E+01 0.  0.
     999903    2    3    3    0    0 -0.98048137979E-01  0.87139703719E-01 -0.32455895484E-02  0.13233308026E+00  0.17168137731E-01 0.  0.
         14    1    1    2    0    0  0.14247840521E-01 -0.75138097319E-03  0.18389878775E-01  0.23275591813E-01  0.00000000000E+00 0. -1.
     999901    1    3    3    0    0  0.83800297458E-01 -0.86388322746E-01 -0.15144289227E-01  0.88832132793E+00  0.88000000000E+00 0.  1.
        -11    1    4    4    0    0 -0.84077977516E-01  0.66057411026E-01 -0.90274557626E-03  0.10692877969E+00  0.51100000000E-03 0.  1.
         11    1    4    4    0    0 -0.13970160463E-01  0.21082292693E-01 -0.23428439722E-02  0.25404300569E-01  0.51100000000E-03 0. -1.
</event>
<event>
 8    1  0.1108957E+005  0.1043930E+01  0.7957747E-01            NaN
         13   -1    0    0    0    0  0.00000000000E+00  0.00000000000E+00  0.74505805969E-08  0.10566000000E+00  0.10566000000E+00 0.  1.
     999900   -1    0    0    0    0 -0.00000000000E+00 -0.00000000000E+00 -0.74505805969E-08  0.93827000000E+00  0.93827000000E+00 0. -1.
     999902    2    1    2    0    0  0.52593649749E-02  0.22831624908E-01 -0.29297910343E-02  0.10203179757E+01  0.10200447264E+01 0.  0.
     999903    2    3    3    0    0  0.54426013497E-01 -0.35515098749E-02 -0.11677704397E+00  0.13123157601E+00  0.24699076393E-01 0.  0.
         14    1    1    2    0    0 -0.52593649749E-02 -0.22831624908E-01  0.29297910343E-02  0.23612024296E-01  0.00000000000E+00 0. -1.
     999901    1    3    3    0    0 -0.49166648523E-01  0.26383134782E-01  0.11384725294E+00  0.88908639970E+00  0.88000000000E+00 0.  1.
        -11    1    4    4    0    0  0.27494161387E-01 -0.16992058972E-02 -0.31835418034E-01  0.42101914130E-01  0.51100000000E-03 0. -1.
         11    1    4    4    0    0  0.26931852111E-01 -0.18523039778E-02 -0.84941625937E-01  0.89129661875E-01  0.51100000000E-03 0.  1.
</event>
<event>
 8    1  0.1108957E+005  0.1043930E+01  0.7957747E-01            NaN
         13   -1    0    0    0    0  0.00000000000E+00  0.00000000000E+00  0.74505805969E-08  0.10566000000E+00  0.10566000000E+00 0. -1.
     999900   -1    0    0    0    0 -0.00000000000E+00 -0.00000000000E+00 -0.74505805969E-08  0.93827000000E+00  0.93827000000E+00 0.  1.
     999902    2    1    2    0    0 -0.19207760334E-01 -0.36436877292E-02  0.14392030015E-01  0.10196535702E+01  0.10193645364E+01 0.  0.
     999903    2    3    3    0    0 -0.27995696081E-01  0.12529744384E+00 -0.24518818813E-02  0.13005435671E+00  0.20613479655E-01 0.  0.
         14    1    1    2    0    0  0.19207760334E-01  0.36436877292E-02 -0.14392030015E-01  0.24276429829E-01  0.00000000000E+00 0. -1.
     999901    1    3    3    0    0  0.87879357472E-02 -0.12894113156E+00  0.16843911896E-01  0.88959921346E+00  0.88000000000E+00 0.  1.
        -11    1    4    4    0    0 -0.18122592099E-01  0.38137204470E-01  0.14038543649E-02  0.42250522331E-01  0.51100000000E-03 0.  1.
         11    1    4    4    0    0 -0.98731039822E-02  0.87160239365E-01 -0.38557362463E-02  0.87803834378E-01  0.51100000000E-03 0. -1.
</event>
<event>
 8    1  0.1108957E+005  0.1043930E+01  0.7957747E-01            NaN
         13   -1    0    0    0    0  0.00000000000E+00  0.00000000000E+00  0.74505805969E-08  0.10566000000E+00  0.10566000000E+00 0.  1.
     999900   -1    0    0    0    0 -0.00000000000E+00 -0.00000000000E+00 -0.74505805969E-08  0.93827000000E+00  0.93827000000E+00 0. -1.
     999902    2    1    2    0    0  0.21339368090E-01 -0.10241045289E-01  0.30393211511E-02  0.10200661128E+01  0.10197869333E+01 0.  0.
     999903    2    3    3    0    0 -0.97788671190E-01 -0.29569224611E-01 -0.75080721476E-01  0.12840036303E+00  0.20311948000E-01 0.  0.
         14    1    1    2    0    0 -0.21339368090E-01  0.10241045289E-01 -0.30393211511E-02  0.23863887197E-01  0.00000000000E+00 0.  1.
     999901    1    3    3    0    0  0.11912803928E+00  0.19328179323E-01  0.78120042627E-01  0.89166574977E+00  0.88000000000E+00 0.  1.
        -11    1    4    4    0    0 -0.41588101083E-01 -0.33098785306E-02 -0.24710578915E-01  0.48491228887E-01  0.51100000000E-03 0. -1.
         11    1    4    4    0    0 -0.56200570107E-01 -0.26259346081E-01 -0.50370142561E-01  0.79909134143E-01  0.51100000000E-03 0.  1.
</event>
<event>
 8    1  0.1108957E+005  0.1043930E+01  0.7957747E-01            NaN
         13   -1    0    0    0    0  0.00000000000E+00  0.00000000000E+00  0.74505805969E-08  0.10566000000E+00  0.10566000000E+00 0. -1.
     999900   -1    0    0    0    0 -0.00000000000E+00 -0.00000000000E+00 -0.74505805969E-08  0.93827000000E+00  0.93827000000E+00 0. -1.
     999902    2    1    2    0    0 -0.18104760618E-01  0.13142346559E-01 -0.68050587056E-02  0.10205459787E+01  0.10202780416E+01 0.  0.
     999903    2    3    3    0    0 -0.63359683920E-01  0.11380956940E+00 -0.22889547295E-01  0.13350561396E+00  0.18241434952E-01 0.  0.
         14    1    1    2    0    0  0.18104760618E-01 -0.13142346559E-01  0.68050587056E-02  0.23384021342E-01  0.00000000000E+00 0. -1.
     999901    1    3    3    0    0  0.45254923302E-01 -0.10066722284E+00  0.16084488590E-01  0.88704036470E+00  0.88000000000E+00 0. -1.
        -11    1    4    4    0    0 -0.24933556718E-01  0.46537623620E-01 -0.18355428463E-01  0.55898260598E-01  0.51100000000E-03 0.  1.
         11    1    4    4    0    0 -0.38426127202E-01  0.67271945780E-01 -0.45341188324E-02  0.77607353359E-01  0.51100000000E-03 0. -1.
</event>
<event>
 8    1  0.1108957E+005  0.1043930E+01  0.7957747E-01            NaN
         13   -1    0    0    0    0  0.00000000000E+00  0.00000000000E+00  0.74505805969E-08  0.10566000000E+00  0.10566000000E+00 0.  1.
     999900   -1    0    0    0    0 -0.00000000000E+00 -0.00000000000E+00 -0.74505805969E-08  0.93827000000E+00  0.93827000000E+00 0. -1.
     999902    2    1    2    0    0  0.17875963319E-01  0.13835410133E-01 -0.47357928318E-02  0.10208346244E+01  0.10205733360E+01 0.  0.
     999903    2    3    3    0    0 -0.40010686526E-01  0.10683582739E+00 -0.62217227138E-01  0.13218167918E+00  0.24212887260E-01 0.  0.
         14    1    1    2    0    0 -0.17875963319E-01 -0.13835410133E-01  0.47357928318E-02  0.23095375552E-01  0.00000000000E+00 0.  1.
     999901    1    3    3    0    0  0.57886649845E-01 -0.93000417252E-01  0.57481434306E-01  0.88865294527E+00  0.88000000000E+00 0. -1.
        -11    1    4    4    0    0 -0.21372370926E-01  0.29529658515E-01 -0.26132337793E-01  0.44854644916E-01  0.51100000000E-03 0.  1.
         11    1    4    4    0    0 -0.18638315600E-01  0.77306168870E-01 -0.36084889345E-01  0.87327034267E-01  0.51100000000E-03 0. -1.
</event>
<event>
 8    1  0.1108957E+005  0.1043930E+01  0.7957747E-01            NaN
         13   -1    0    0    0    0  0.00000000000E+00  0.00000000000E+00  0.74505805969E-08  0.10566000000E+00  0.10566000000E+00 0.  1.
     999900   -1    0    0    0    0 -0.00000000000E+00 -0.00000000000E+00 -0.74505805969E-08  0.93827000000E+00  0.93827000000E+00 0.  1.
     999902    2    1    2    0    0 -0.42977768049E-02 -0.13867882667E-01 -0.18996752297E-01  0.10200204694E+01  0.10197402083E+01 0.  0.
     999903    2    3    3    0    0  0.86978444534E-01 -0.47421890490E-01  0.80326058905E-01  0.12910956430E+00  0.20072825979E-01 0.  0.
         14    1    1    2    0    0  0.42977768049E-02  0.13867882667E-01  0.18996752297E-01  0.23909530589E-01  0.00000000000E+00 0.  1.
     999901    1    3    3    0    0 -0.91276221339E-01  0.33554007823E-01 -0.99322811203E-01  0.89091090511E+00  0.88000000000E+00 0.  1.
        -11    1    4    4    0    0  0.32087478431E-01 -0.27924836077E-01  0.38731329265E-01  0.57530685113E-01  0.51100000000E-03 0.  1.
         11    1    4    4    0    0  0.54890966103E-01 -0.19497054414E-01  0.41594729641E-01  0.71578879186E-01  0.51100000000E-03 0. -1.
</event>
<event>
 8    1  0.1127737E+005  0.1043930E+01  0.7957747E-01            NaN
         13   -1    0    0    0    0  0.00000000000E+00  0.00000000000E+00  0.74505805969E-08  0.10566000000E+00  0.10566000000E+00 0. -1.
     999900   -1    0    0    0    0 -0.00000000000E+00 -0.00000000000E+00 -0.74505805969E-08  0.93827000000E+00  0.93827000000E+00 0. -1.
     999902    2    1    2    0    0  0.20291096505E-01 -0.12255567575E-01  0.97124190176E-02  0.10183124549E+01  0.10179901754E+01 0.  0.
     999903    2    3    3    0    0 -0.40102438396E-01 -0.11778060897E+00  0.30875542187E-01  0.12970073361E+00  0.19710499254E-01 0.  0.
         14    1    1    2    0    0 -0.20291096505E-01  0.12255567575E-01 -0.97124190176E-02  0.25617545104E-01  0.00000000000E+00 0.  1.
     999901    1    3    3    0    0  0.60393534901E-01  0.10552504139E+00 -0.21163123169E-01  0.88861172128E+00  0.88000000000E+00 0. -1.
        -11    1    4    4    0    0 -0.67988459636E-02 -0.49143963140E-01  0.10117794753E-01  0.50635800687E-01  0.51100000000E-03 0.  1.
         11    1    4    4    0    0 -0.33303592433E-01 -0.68636645826E-01  0.20757747433E-01  0.79064932926E-01  0.51100000000E-03 0. -1.
</event>
<event>
 8    1  0.1108957E+005  0.1043930E+01  0.7957747E-01            NaN
         13   -1    0    0    0    0  0.00000000000E+00  0.00000000000E+00  0.74505805969E-08  0.10566000000E+00  0.10566000000E+00 0.  1.
     999900   -1    0    0    0    0 -0.00000000000E+00 -0.00000000000E+00 -0.74505805969E-08  0.93827000000E+00  0.93827000000E+00 0.  1.
     999902    2    1    2    0    0 -0.23673767123E-01  0.20822950972E-01  0.81626078860E-02  0.10113620602E+01  0.10108375468E+01 0.  0.
     999903    2    3    3    0    0 -0.36380215426E-02 -0.98837244796E-01  0.66914377596E-01  0.12109706367E+00  0.20122841288E-01 0.  0.
         14    1    1    2    0    0  0.23673767123E-01 -0.20822950972E-01 -0.81626078860E-02  0.32567939826E-01  0.00000000000E+00 0. -1.
     999901    1    3    3    0    0 -0.20035745581E-01  0.11966019577E+00 -0.58751769710E-01  0.89026499650E+00  0.88000000000E+00 0. -1.
        -11    1    4    4    0    0 -0.72299055389E-02 -0.81502587030E-01  0.46665439699E-01  0.94195900176E-01  0.51100000000E-03 0.  1.
         11    1    4    4    0    0  0.35918839963E-02 -0.17334657765E-01  0.20248937897E-01  0.26901163496E-01  0.51100000000E-03 0. -1.
</event>
<event>
 8    1  0.1108957E+005  0.1043930E+01  0.7957747E-01            NaN
         13   -1    0    0    0    0  0.00000000000E+00  0.00000000000E+00  0.74505805969E-08  0.10566000000E+00  0.10566000000E+00 0.  1.
     999900   -1    0    0    0    0 -0.00000000000E+00 -0.00000000000E+00 -0.74505805969E-08  0.93827000000E+00  0.93827000000E+00 0.  1.
     999902    2    1    2    0    0 -0.89264008278E-02 -0.14708476025E-01  0.16494317531E-01  0.10200955206E+01  0.10198170369E+01 0.  0.
     999903    2    3    3    0    0 -0.92881342363E-01  0.85644921784E-01 -0.22127395801E-01  0.12958394097E+00  0.18449382826E-01 0.  0.
         14    1    1    2    0    0  0.89264008278E-02  0.14708476025E-01 -0.16494317531E-01  0.23834479427E-01  0.00000000000E+00 0. -1.
     999901    1    3    3    0    0  0.83954941536E-01 -0.10035339781E+00  0.38621713332E-01  0.89051157960E+00  0.88000000000E+00 0.  1.
        -11    1    4    4    0    0 -0.26672354306E-01  0.32469636367E-01 -0.13915270085E-01  0.44267229782E-01  0.51100000000E-03 0.  1.
         11    1    4    4    0    0 -0.66208988057E-01  0.53175285418E-01 -0.82121257160E-02  0.85316711192E-01  0.51100000000E-03 0. -1.
</event>
<event>
 8    1  0.1108957E+005  0.1043930E+01  0.7957747E-01            NaN
         13   -1    0    0    0    0  0.00000000000E+00  0.00000000000E+00  0.74505805969E-08  0.10566000000E+00  0.10566000000E+00 0. -1.
     999900   -1    0    0    0    0 -0.00000000000E+00 -0.00000000000E+00 -0.74505805969E-08  0.93827000000E+00  0.93827000000E+00 0. -1.
     999902    2    1    2    0    0  0.10884118633E-02  0.12307380874E-01  0.19293990170E-01  0.10210189913E+01  0.10207619048E+01 0.  0.
     999903    2    3    3    0    0  0.11831645221E+00  0.46360059497E-01  0.31201175273E-01  0.13251250316E+00  0.20928740405E-01 0.  0.
         14    1    1    2    0    0 -0.10884118633E-02 -0.12307380874E-01 -0.19293990170E-01  0.22911008731E-01  0.00000000000E+00 0.  1.
     999901    1    3    3    0    0 -0.11722804034E+00 -0.34052678622E-01 -0.11907185103E-01  0.88850648811E+00  0.88000000000E+00 0.  1.
        -11    1    4    4    0    0  0.87516651012E-01  0.34107314488E-01  0.13389068390E-01  0.94878877413E-01  0.51100000000E-03 0. -1.
         11    1    4    4    0    0  0.30799801194E-01  0.12252745009E-01  0.17812106884E-01  0.37633625742E-01  0.51100000000E-03 0.  1.
</event>
<event>
 8    1  0.1108957E+005  0.1043930E+01  0.7957747E-01            NaN
         13   -1    0    0    0    0  0.00000000000E+00  0.00000000000E+00  0.74505805969E-08  0.10566000000E+00  0.10566000000E+00 0. -1.
     999900   -1    0    0    0    0 -0.00000000000E+00 -0.00000000000E+00 -0.74505805969E-08  0.93827000000E+00  0.93827000000E+00 0.  1.
     999902    2    1    2    0    0  0.71381042737E-02 -0.15328846730E-01 -0.18914980071E-01  0.10185587063E+01  0.10182426703E+01 0.  0.
     999903    2    3    3    0    0  0.12527486364E+00  0.23307202435E-01  0.15253437163E-01  0.12916761178E+00  0.14648803476E-01 0.  0.
         14    1    1    2    0    0 -0.71381042737E-02  0.15328846730E-01  0.18914980071E-01  0.25371293734E-01  0.00000000000E+00 0. -1.
     999901    1    3    3    0    0 -0.11813675937E+00 -0.38636049165E-01 -0.34168417234E-01  0.88939109448E+00  0.88000000000E+00 0.  1.
        -11    1    4    4    0    0  0.21052974601E-01  0.56004428270E-02  0.79610351665E-02  0.23199825459E-01  0.51100000000E-03 0.  1.
         11    1    4    4    0    0  0.10422188904E+00  0.17706759608E-01  0.72924019969E-02  0.10596778632E+00  0.51100000000E-03 0. -1.
</event>
<event>
 8    1  0.1108957E+005  0.1043930E+01  0.7957747E-01            NaN
         13   -1    0    0    0    0  0.00000000000E+00  0.00000000000E+00  0.74505805969E-08  0.10566000000E+00  0.10566000000E+00 0.  1.
     999900   -1    0    0    0    0 -0.00000000000E+00 -0.00000000000E+00 -0.74505805969E-08  0.93827000000E+00  0.93827000000E+00 0.  1.
     999902    2    1    2    0    0 -0.14618647884E-01 -0.30104586241E-02  0.18515873852E-01  0.10201475419E+01  0.10198702869E+01 0.  0.
     999903    2    3    3    0    0 -0.42061873798E-01  0.30380276413E-01  0.12093649606E+00  0.13315371124E+00  0.20300549628E-01 0.  0.
         14    1    1    2    0    0  0.14618647884E-01  0.30104586241E-02 -0.18515873852E-01  0.23782458064E-01  0.00000000000E+00 0. -1.
     999901    1    3    3    0    0  0.27443225915E-01 -0.33390735037E-01 -0.10242062221E+00  0.88699383069E+00  0.88000000000E+00 0.  1.
        -11    1    4    4    0    0 -0.64844741619E-02  0.15641655437E-01  0.43122822884E-01  0.46330861901E-01  0.51100000000E-03 0.  1.
         11    1    4    4    0    0 -0.35577399636E-01  0.14738620976E-01  0.77813673178E-01  0.86822849341E-01  0.51100000000E-03 0. -1.
</event>
<event>
 8    1  0.1108957E+005  0.1043930E+01  0.7957747E-01            NaN
         13   -1    0    0    0    0  0.00000000000E+00  0.00000000000E+00  0.74505805969E-08  0.10566000000E+00  0.10566000000E+00 0. -1.
     999900   -1    0    0    0    0 -0.00000000000E+00 -0.00000000000E+00 -0.74505805969E-08  0.93827000000E+00  0.93827000000E+00 0. -1.
     999902    2    1    2    0    0  0.20406801697E-01 -0.12414327438E-01  0.30216638295E-03  0.10200418359E+01  0.10197620813E+01 0.  0.
     999903    2    3    3    0    0  0.18445961357E-01  0.70947595276E-01  0.10496732969E+00  0.12992507304E+00  0.22103609140E-01 0.  0.
         14    1    1    2    0    0 -0.20406801697E-01  0.12414327438E-01 -0.30216638295E-03  0.23888164135E-01  0.00000000000E+00 0.  1.
     999901    1    3    3    0    0  0.19608403404E-02 -0.83361922713E-01 -0.10466516330E+00  0.89011676283E+00  0.88000000000E+00 0. -1.
        -11    1    4    4    0    0  0.44097730236E-02  0.35064255813E-01  0.67420172312E-01  0.76122853923E-01  0.51100000000E-03 0. -1.
         11    1    4    4    0    0  0.14036188333E-01  0.35883339463E-01  0.37547157374E-01  0.53802219116E-01  0.51100000000E-03 0.  1.
</event>
<event>
 8    1  0.1108957E+005  0.1043930E+01  0.7957747E-01            NaN
         13   -1    0    0    0    0  0.00000000000E+00  0.00000000000E+00  0.74505805969E-08  0.10566000000E+00  0.10566000000E+00 0.  1.
     999900   -1    0    0    0    0 -0.00000000000E+00 -0.00000000000E+00 -0.74505805969E-08  0.93827000000E+00  0.93827000000E+00 0. -1.
     999902    2    1    2    0    0 -0.12927532553E-01 -0.19528224949E-01  0.41846425338E-02  0.10201395838E+01  0.10198621410E+01 0.  0.
     999903    2    3    3    0    0 -0.91598890572E-01  0.88059818845E-01 -0.17499387716E-01  0.12983931601E+00  0.20177486538E-01 0.  0.
         14    1    1    2    0    0  0.12927532553E-01  0.19528224949E-01 -0.41846425338E-02  0.23790416152E-01  0.00000000000E+00 0. -1.
     999901    1    3    3    0    0  0.78671358019E-01 -0.10758804379E+00  0.21684030250E-01  0.89030026784E+00  0.88000000000E+00 0. -1.
        -11    1    4    4    0    0 -0.32737703121E-01  0.22377618666E-01 -0.12152661815E-01  0.41478468306E-01  0.51100000000E-03 0.  1.
         11    1    4    4    0    0 -0.58861187451E-01  0.65682200179E-01 -0.53467259006E-02  0.88360847706E-01  0.51100000000E-03 0. -1.
</event>
<event>
 8    1  0.1108957E+005  0.1043930E+01  0.7957747E-01            NaN
         13   -1    0    0    0    0  0.00000000000E+00  0.00000000000E+00  0.74505805969E-08  0.10566000000E+00  0.10566000000E+00 0.  1.
     999900   -1    0    0    0    0 -0.00000000000E+00 -0.00000000000E+00 -0.74505805969E-08  0.93827000000E+00  0.93827000000E+00 0. -1.
     999902    2    1    2    0    0  0.71288741519E-02 -0.75114385589E-04  0.21347049496E-01  0.10214239339E+01  0.10211759544E+01 0.  0.
     999903    2    3    3    0    0  0.90343296128E-01 -0.45596387838E-01 -0.79245301355E-01  0.13062898140E+00  0.23306034743E-01 0.  0.
         14    1    1    2    0    0 -0.71288741519E-02  0.75114385589E-04 -0.21347049496E-01  0.22506066094E-01  0.00000000000E+00 0. -1.
     999901    1    3    3    0    0 -0.83214421976E-01  0.45521273452E-01  0.10059235085E+00  0.89079495251E+00  0.88000000000E+00 0.  1.
        -11    1    4    4    0    0  0.78208047319E-01 -0.40357027254E-01 -0.77535447620E-01  0.11729106988E+00  0.51100000000E-03 0. -1.
         11    1    4    4    0    0  0.12135248809E-01 -0.52393605841E-02 -0.17098537351E-02  0.13337911523E-01  0.51100000000E-03 0.  1.
</event>
<event>
 8    1  0.1108957E+005  0.1043930E+01  0.7957747E-01            NaN
         13   -1    0    0    0    0  0.00000000000E+00  0.00000000000E+00  0.74505805969E-08  0.10566000000E+00  0.10566000000E+00 0. -1.
     999900   -1    0    0    0    0 -0.00000000000E+00 -0.00000000000E+00 -0.74505805969E-08  0.93827000000E+00  0.93827000000E+00 0.  1.
     999902    2    1    2    0    0  0.16136668857E-01  0.54248071746E-02 -0.20949969902E-01  0.10169351514E+01  0.10165767950E+01 0.  0.
     999903    2    3    3    0    0  0.30557030785E-01  0.94714593294E-01  0.76349242152E-01  0.12696450610E+00  0.19651786657E-01 0.  0.
         14    1    1    2    0    0 -0.16136668857E-01 -0.54248071746E-02  0.20949969902E-01  0.26994848649E-01  0.00000000000E+00 0. -1.
     999901    1    3    3    0    0 -0.14420361928E-01 -0.89289786119E-01 -0.97299212054E-01  0.88997064525E+00  0.88000000000E+00 0.  1.
        -11    1    4    4    0    0  0.14041645884E-01  0.17331215905E-01  0.16312662433E-01  0.27638794122E-01  0.51100000000E-03 0.  1.
         11    1    4    4    0    0  0.16515384901E-01  0.77383377389E-01  0.60036579718E-01  0.99325711978E-01  0.51100000000E-03 0. -1.
</event>
<event>
 8    1  0.1108957E+005  0.1043930E+01  0.7957747E-01            NaN
         13   -1    0    0    0    0  0.00000000000E+00  0.00000000000E+00  0.74505805969E-08  0.10566000000E+00  0.10566000000E+00 0.  1.
     999900   -1    0    0    0    0 -0.00000000000E+00 -0.00000000000E+00 -0.74505805969E-08  0.93827000000E+00  0.93827000000E+00 0. -1.
     999902    2    1    2    0    0  0.77076637706E-02 -0.12890229486E-01 -0.31788012432E-01  0.10087725850E+01  0.10081597514E+01 0.  0.
     999903    2    3    3    0    0 -0.99414120727E-01  0.47228288912E-01  0.36027270650E-01  0.11765630435E+00  0.20769281401E-01 0.  0.
         14    1    1    2    0    0 -0.77076637706E-02  0.12890229486E-01  0.31788012432E-01  0.35157415027E-01  0.00000000000E+00 0.  1.
     999901    1    3    3    0    0  0.10712178450E+00 -0.60118518398E-01 -0.67815283082E-01  0.89111628062E+00  0.88000000000E+00 0.  1.
        -11    1    4    4    0    0 -0.30144690168E-01  0.18640258722E-01  0.24248935294E-02  0.35528901196E-01  0.51100000000E-03 0.  1.
         11    1    4    4    0    0 -0.69269430559E-01  0.28588030190E-01  0.33602377121E-01  0.82127403157E-01  0.51100000000E-03 0. -1.
</event>
<event>
 8    1  0.1108957E+005  0.1043930E+01  0.7957747E-01            NaN
         13   -1    0    0    0    0  0.00000000000E+00  0.00000000000E+00  0.74505805969E-08  0.10566000000E+00  0.10566000000E+00 0. -1.
     999900   -1    0    0    0    0 -0.00000000000E+00 -0.00000000000E+00 -0.74505805969E-08  0.93827000000E+00  0.93827000000E+00 0. -1.
     999902    2    1    2    0    0  0.11827666980E-01  0.18917398292E-01 -0.74790132605E-02  0.10203992265E+01  0.10201278763E+01 0.  0.
     999903    2    3    3    0    0  0.30640728575E-02 -0.95482965922E-01  0.83323031681E-01  0.12831780905E+00  0.19908470226E-01 0.  0.
         14    1    1    2    0    0 -0.11827666980E-01 -0.18917398292E-01  0.74790132605E-02  0.23530773546E-01  0.00000000000E+00 0. -1.
     999901    1    3    3    0    0  0.87635941228E-02  0.11440036421E+00 -0.90802044941E-01  0.89208141741E+00  0.88000000000E+00 0. -1.
        -11    1    4    4    0    0  0.93124380200E-02 -0.28043820710E-01  0.20782546684E-01  0.36129665783E-01  0.51100000000E-03 0. -1.
         11    1    4    4    0    0 -0.62483651625E-02 -0.67439145212E-01  0.62540484997E-01  0.92188143266E-01  0.51100000000E-03 0.  1.
</event>
<event>
 8    1  0.1108957E+005  0.1043930E+01  0.7957747E-01            NaN
         13   -1    0    0    0    0  0.00000000000E+00  0.00000000000E+00  0.74505805969E-08  0.10566000000E+00  0.10566000000E+00 0.  1.
     999900   -1    0    0    0    0 -0.00000000000E+00 -0.00000000000E+00 -0.74505805969E-08  0.93827000000E+00  0.93827000000E+00 0.  1.
     999902    2    1    2    0    0 -0.22003810115E-01 -0.81607387850E-02 -0.18505239824E-02  0.10203887648E+01  0.10201171705E+01 0.  0.
     999903    2    3    3    0    0 -0.10230893940E+00 -0.32786801502E-01 -0.76186187481E-01  0.13326918567E+00  0.20353064956E-01 0.  0.
         14    1    1    2    0    0  0.22003810115E-01  0.81607387850E-02  0.18505239824E-02  0.23541235229E-01  0.00000000000E+00 0.  1.
     999901    1    3    3    0    0  0.80305129283E-01  0.24626062717E-01  0.74335663498E-01  0.88711957910E+00  0.88000000000E+00 0. -1.
        -11    1    4    4    0    0 -0.66802175222E-01 -0.25122114188E-01 -0.61025798469E-01  0.93904528301E-01  0.51100000000E-03 0.  1.
         11    1    4    4    0    0 -0.35506764176E-01 -0.76646873140E-02 -0.15160389012E-01  0.39364657370E-01  0.51100000000E-03 0. -1.
</event>
<event>
 8    1  0.1108957E+005  0.1043930E+01  0.7957747E-01            NaN
         13   -1    0    0    0    0  0.00000000000E+00  0.00000000000E+00  0.74505805969E-08  0.10566000000E+00  0.10566000000E+00 0.  1.
     999900   -1    0    0    0    0 -0.00000000000E+00 -0.00000000000E+00 -0.74505805969E-08  0.93827000000E+00  0.93827000000E+00 0. -1.
     999902    2    1    2    0    0 -0.44726374981E-02  0.68206814793E-02  0.22754844044E-01  0.10197575134E+01  0.10194709790E+01 0.  0.
     999903    2    3    3    0    0  0.80064150595E-01  0.80607405529E-01  0.62898732424E-01  0.13172458552E+00  0.22074733360E-01 0.  0.
         14    1    1    2    0    0  0.44726374981E-02 -0.68206814793E-02 -0.22754844044E-01  0.24172486622E-01  0.00000000000E+00 0. -1.
     999901    1    3    3    0    0 -0.84536788093E-01 -0.73786724050E-01 -0.40143888380E-01  0.88803292786E+00  0.88000000000E+00 0. -1.
        -11    1    4    4    0    0  0.11589054942E-01  0.23800872553E-01  0.18415188276E-01  0.32251635756E-01  0.51100000000E-03 0.  1.
         11    1    4    4    0    0  0.68475095653E-01  0.56806532977E-01  0.44483544148E-01  0.99472949763E-01  0.51100000000E-03 0. -1.
</event>
<event>
 8    1  0.1108957E+005  0.1043930E+01  0.7957747E-01            NaN
         13   -1    0    0    0    0  0.00000000000E+00  0.00000000000E+00  0.74505805969E-08  0.10566000000E+00  0.10566000000E+00 0. -1.
     999900   -1    0    0    0    0 -0.00000000000E+00 -0.00000000000E+00 -0.74505805969E-08  0.93827000000E+00  0.93827000000E+00 0. -1.
     999902    2    1    2    0    0  0.16403801897E-01  0.69720581416E-02  0.15474329456E-01  0.10203259922E+01  0.10200529306E+01 0.  0.
     999903    2    3    3    0    0 -0.65058210359E-01  0.32455954790E-01  0.10758974133E+00  0.13141050831E+00  0.20179433007E-01 0.  0.
         14    1    1    2    0    0 -0.16403801897E-01 -0.69720581416E-02 -0.15474329456E-01  0.23604007785E-01  0.00000000000E+00 0.  1.
     999901    1    3    3    0    0  0.81462012256E-01 -0.25483896648E-01 -0.92115411877E-01  0.88891548391E+00  0.88000000000E+00 0. -1.
        -11    1    4    4    0    0 -0.24134742917E-01  0.44643821859E-02  0.24715039100E-01  0.34835481950E-01  0.51100000000E-03 0.  1.
         11    1    4    4    0    0 -0.40923467443E-01  0.27991572604E-01  0.82874702233E-01  0.96575026355E-01  0.51100000000E-03 0. -1.
</event>
<event>
 8    1  0.1108957E+005  0.1043930E+01  0.7957747E-01            NaN
         13   -1    0    0    0    0  0.00000000000E+00  0.00000000000E+00  0.74505805969E-08  0.10566000000E+00  0.10566000000E+00 0.  1.
     999900   -1    0    0    0    0 -0.00000000000E+00 -0.00000000000E+00 -0.74505805969E-08  0.93827000000E+00  0.93827000000E+00 0. -1.
     999902    2    1    2    0    0  0.54878263599E-02 -0.10348006505E-01  0.19910779860E-01  0.10208294236E+01  0.10205680161E+01 0.  0.
     999903    2    3    3    0    0  0.12039463335E+00  0.47580402623E-01 -0.43637108270E-02  0.13113929449E+00  0.20486828347E-01 0.  0.
         14    1    1    2    0    0 -0.54878263599E-02  0.10348006505E-01 -0.19910779860E-01  0.23100576431E-01  0.00000000000E+00 0. -1.
     999901    1    3    3    0    0 -0.11490680699E+00 -0.57928409128E-01  0.24274490687E-01  0.88969012908E+00  0.88000000000E+00 0. -1.
        -11    1    4    4    0    0  0.67823880413E-01  0.28327506762E-01 -0.12514648038E-01  0.74561410463E-01  0.51100000000E-03 0. -1.
         11    1    4    4    0    0  0.52570752934E-01  0.19252895861E-01  0.81509372111E-02  0.56577884031E-01  0.51100000000E-03 0.  1.
</event>
<event>
 8    1  0.1108957E+005  0.1043930E+01  0.7957747E-01            NaN
         13   -1    0    0    0    0  0.00000000000E+00  0.00000000000E+00  0.74505805969E-08  0.10566000000E+00  0.10566000000E+00 0.  1.
     999900   -1    0    0    0    0 -0.00000000000E+00 -0.00000000000E+00 -0.74505805969E-08  0.93827000000E+00  0.93827000000E+00 0. -1.
     999902    2    1    2    0    0 -0.11104723512E-01 -0.12930137277E-01 -0.16249948964E-01  0.10203808137E+01  0.10201090338E+01 0.  0.
     999903    2    3    3    0    0  0.70379601861E-01  0.61838604935E-01  0.84400991294E-01  0.12776629899E+00  0.20576647126E-01 0.  0.
         14    1    1    2    0    0  0.11104723512E-01  0.12930137277E-01  0.16249948964E-01  0.23549186305E-01  0.00000000000E+00 0.  1.
     999901    1    3    3    0    0 -0.81484325373E-01 -0.74768742212E-01 -0.10065094026E+00  0.89261451471E+00  0.88000000000E+00 0. -1.
        -11    1    4    4    0    0  0.33744609264E-01  0.27789176686E-01  0.53021920347E-01  0.68720609380E-01  0.51100000000E-03 0.  1.
         11    1    4    4    0    0  0.36634992597E-01  0.34049428248E-01  0.31379070947E-01  0.59045689607E-01  0.51100000000E-03 0. -1.
</event>
<event>
 8    1  0.1108957E+005  0.1043930E+01  0.7957747E-01            NaN
         13   -1    0    0    0    0  0.00000000000E+00  0.00000000000E+00  0.74505805969E-08  0.10566000000E+00  0.10566000000E+00 0. -1.
     999900   -1    0    0    0    0 -0.00000000000E+00 -0.00000000000E+00 -0.74505805969E-08  0.93827000000E+00  0.93827000000E+00 0.  1.
     999902    2    1    2    0    0  0.18554817710E-01 -0.10840015689E-01  0.10311957697E-01  0.10200946550E+01  0.10198161508E+01 0.  0.
     999903    2    3    3    0    0 -0.83174150738E-01  0.88945848842E-01  0.35015902407E-01  0.12828958286E+00  0.20069884708E-01 0.  0.
         14    1    1    2    0    0 -0.18554817710E-01  0.10840015689E-01 -0.10311957697E-01  0.23835345014E-01  0.00000000000E+00 0.  1.
     999901    1    3    3    0    0  0.10172896845E+00 -0.99785864531E-01 -0.24703944710E-01  0.89180507212E+00  0.88000000000E+00 0. -1.
        -11    1    4    4    0    0 -0.27598365593E-01  0.16769914858E-01  0.80239589747E-02  0.33279796670E-01  0.51100000000E-03 0.  1.
         11    1    4    4    0    0 -0.55575785145E-01  0.72175933984E-01  0.26991943432E-01  0.95009786192E-01  0.51100000000E-03 0. -1.
</event>
<event>
 8    1  0.1108957E+005  0.1043930E+01  0.7957747E-01            NaN
         13   -1    0    0    0    0  0.00000000000E+00  0.00000000000E+00  0.74505805969E-08  0.10566000000E+00  0.10566000000E+00 0.  1.
     999900   -1    0    0    0    0 -0.00000000000E+00 -0.00000000000E+00 -0.74505805969E-08  0.93827000000E+00  0.93827000000E+00 0.  1.
     999902    2    1    2    0    0 -0.18020038973E-01 -0.56577859139E-02 -0.14041121468E-01  0.10203952292E+01  0.10201237858E+01 0.  0.
     999903    2    3    3    0    0  0.56355581096E-01 -0.11394910448E+00  0.20692914076E-01  0.12996544768E+00  0.17391692446E-01 0.  0.
         14    1    1    2    0    0  0.18020038973E-01  0.56577859139E-02  0.14041121468E-01  0.23534770832E-01  0.00000000000E+00 0.  1.
     999901    1    3    3    0    0 -0.74375620068E-01  0.10829131856E+00 -0.34734035544E-01  0.89042978149E+00  0.88000000000E+00 0.  1.
        -11    1    4    4    0    0  0.34039861481E-01 -0.85640930799E-01  0.12582067058E-01  0.93014250146E-01  0.51100000000E-03 0. -1.
         11    1    4    4    0    0  0.22315719614E-01 -0.28308173677E-01  0.81108470173E-02  0.36951197534E-01  0.51100000000E-03 0.  1.
</event>
<event>
 8    1  0.1108957E+005  0.1043930E+01  0.7957747E-01            NaN
         13   -1    0    0    0    0  0.00000000000E+00  0.00000000000E+00  0.74505805969E-08  0.10566000000E+00  0.10566000000E+00 0.  1.
     999900   -1    0    0    0    0 -0.00000000000E+00 -0.00000000000E+00 -0.74505805969E-08  0.93827000000E+00  0.93827000000E+00 0. -1.
     999902    2    1    2    0    0 -0.18965077549E-01 -0.93898984238E-02 -0.97727783993E-02  0.10206200975E+01  0.10203538758E+01 0.  0.
     999903    2    3    3    0    0  0.10944674949E+00  0.61493530440E-01  0.17025391081E-01  0.12807754962E+00  0.18813546094E-01 0.  0.
         14    1    1    2    0    0  0.18965077549E-01  0.93898984238E-02  0.97727783993E-02  0.23309902542E-01  0.00000000000E+00 0.  1.
     999901    1    3    3    0    0 -0.12841182704E+00 -0.70883428864E-01 -0.26798169481E-01  0.89254254784E+00  0.88000000000E+00 0.  1.
        -11    1    4    4    0    0  0.52785744147E-01  0.40404258196E-01  0.84104008208E-02  0.67006229774E-01  0.51100000000E-03 0. -1.
         11    1    4    4    0    0  0.56661005339E-01  0.21089272244E-01  0.86149902604E-02  0.61071319848E-01  0.51100000000E-03 0.  1.
</event>
<event>
 8    1  0.1108957E+005  0.1043930E+01  0.7957747E-01            NaN
         13   -1    0    0    0    0  0.00000000000E+00  0.00000000000E+00  0.74505805969E-08  0.10566000000E+00  0.10566000000E+00 0. -1.
     999900   -1    0    0    0    0 -0.00000000000E+00 -0.00000000000E+00 -0.74505805969E-08  0.93827000000E+00  0.93827000000E+00 0.  1.
     999902    2    1    2    0    0  0.64326507572E-02 -0.21384665405E-01  0.71809556267E-02  0.10204726124E+01  0.10202029718E+01 0.  0.
     999903    2    3    3    0    0 -0.79053418263E-01 -0.60427924027E-01 -0.83047924783E-01  0.13088085494E+00  0.18217119375E-01 0.  0.
         14    1    1    2    0    0 -0.64326507572E-02  0.21384665405E-01 -0.71809556267E-02  0.23457387620E-01  0.00000000000E+00 0. -1.
     999901    1    3    3    0    0  0.85486069021E-01  0.39043258622E-01  0.90228880410E-01  0.88959175744E+00  0.88000000000E+00 0. -1.
        -11    1    4    4    0    0 -0.94364089814E-02 -0.15932600817E-01 -0.14513993235E-01  0.23533183038E-01  0.51100000000E-03 0. -1.
         11    1    4    4    0    0 -0.69617009282E-01 -0.44495323210E-01 -0.68533931548E-01  0.10734767190E+00  0.51100000000E-03 0.  1.
</event>
<event>
 8    1  0.1108957E+005  0.1043930E+01  0.7957747E-01            NaN
         13   -1    0    0    0    0  0.00000000000E+00  0.00000000000E+00  0.74505805969E-08  0.10566000000E+00  0.10566000000E+00 0.  1.
     999900   -1    0    0    0    0 -0.00000000000E+00 -0.00000000000E+00 -0.74505805969E-08  0.93827000000E+00  0.93827000000E+00 0. -1.
     999902    2    1    2    0    0 -0.20375748363E-01 -0.32147791974E-02 -0.12149274473E-01  0.10199902674E+01  0.10197092894E+01 0.  0.
     999903    2    3    3    0    0  0.95235167753E-02 -0.11672235197E+00  0.52382690742E-01  0.12985414878E+00  0.20083546635E-01 0.  0.
         14    1    1    2    0    0  0.20375748363E-01  0.32147791974E-02  0.12149274473E-01  0.23939732598E-01  0.00000000000E+00 0.  1.
     999901    1    3    3    0    0 -0.29899265138E-01  0.11350757278E+00 -0.64531965214E-01  0.89013611862E+00  0.88000000000E+00 0. -1.
        -11    1    4    4    0    0 -0.36383399802E-02 -0.71063129859E-01  0.28300488146E-01  0.76579270651E-01  0.51100000000E-03 0.  1.
         11    1    4    4    0    0  0.13161856756E-01 -0.45659222113E-01  0.24082202595E-01  0.53274878133E-01  0.51100000000E-03 0. -1.
</event>
<event>
 8    1  0.1108957E+005  0.1043930E+01  0.7957747E-01            NaN
         13   -1    0    0    0    0  0.00000000000E+00  0.00000000000E+00  0.74505805969E-08  0.10566000000E+00  0.10566000000E+00 0.  1.
     999900   -1    0    0    0    0 -0.00000000000E+00 -0.00000000000E+00 -0.74505805969E-08  0.93827000000E+00  0.93827000000E+00 0.  1.
     999902    2    1    2    0    0 -0.22318652376E-01  0.36010035608E-02  0.40684839550E-02  0.10209595400E+01  0.10207011023E+01 0.  0.
     999903    2    3    3    0    0 -0.44588652232E-01 -0.11422496020E+00  0.44545931132E-01  0.13190536035E+00  0.19472921418E-01 0.  0.
         14    1    1    2    0    0  0.22318652376E-01 -0.36010035608E-02 -0.40684839550E-02  0.22970459992E-01  0.00000000000E+00 0.  1.
     999901    1    3    3    0    0  0.22269999855E-01  0.11782596376E+00 -0.40477447177E-01  0.88905417965E+00  0.88000000000E+00 0.  1.
        -11    1    4    4    0    0  0.16351669320E-02 -0.59745187935E-02  0.53206420049E-03  0.62380172349E-02  0.51100000000E-03 0. -1.
         11    1    4    4    0    0 -0.46223819164E-01 -0.10825044141E+00  0.44013866932E-01  0.12566734312E+00  0.51100000000E-03 0.  1.
</event>
<event>
 8    1  0.1108957E+005  0.1043930E+01  0.7957747E-01            NaN
         13   -1    0    0    0    0  0.00000000000E+00  0.00000000000E+00  0.74505805969E-08  0.10566000000E+00  0.10566000000E+00 0. -1.
     999900   -1    0    0    0    0 -0.00000000000E+00 -0.00000000000E+00 -0.74505805969E-08  0.93827000000E+00  0.93827000000E+00 0. -1.
     999902    2    1    2    0    0 -0.69576204600E-02 -0.18162013450E-01  0.12982560096E-01  0.10205459439E+01  0.10202780060E+01 0.  0.
     999903    2    3    3    0    0  0.33543806678E-01  0.10189589502E+00 -0.66785009436E-01  0.12789980337E+00  0.19752514433E-01 0.  0.
         14    1    1    2    0    0  0.69576204600E-02  0.18162013450E-01 -0.12982560096E-01  0.23384056142E-01  0.00000000000E+00 0.  1.
     999901    1    3    3    0    0 -0.40501427138E-01 -0.12005790847E+00  0.79767569532E-01  0.89264614049E+00  0.88000000000E+00 0.  1.
        -11    1    4    4    0    0  0.26631166390E-01  0.94953563033E-01 -0.56371912736E-01  0.11359336170E+00  0.51100000000E-03 0.  1.
         11    1    4    4    0    0  0.69126402879E-02  0.69423319902E-02 -0.10413096700E-01  0.14306441664E-01  0.51100000000E-03 0. -1.
</event>
<event>
 8    1  0.1108957E+005  0.1043930E+01  0.7957747E-01            NaN
         13   -1    0    0    0    0  0.00000000000E+00  0.00000000000E+00  0.74505805969E-08  0.10566000000E+00  0.10566000000E+00 0.  1.
     999900   -1    0    0    0    0 -0.00000000000E+00 -0.00000000000E+00 -0.74505805969E-08  0.93827000000E+00  0.93827000000E+00 0.  1.
     999902    2    1    2    0    0 -0.94282435893E-02 -0.22635089464E-01  0.65757938068E-02  0.10185433871E+01  0.10182269645E+01 0.  0.
     999903    2    3    3    0    0  0.26852655501E-01 -0.12645661110E+00  0.14465616159E-01  0.13166263900E+00  0.20333638625E-01 0.  0.
         14    1    1    2    0    0  0.94282435893E-02  0.22635089464E-01 -0.65757938068E-02  0.25386612937E-01  0.00000000000E+00 0.  1.
     999901    1    3    3    0    0 -0.36280899091E-01  0.10382152163E+00 -0.78898223524E-02  0.88688074807E+00  0.88000000000E+00 0. -1.
        -11    1    4    4    0    0  0.12923214816E-01 -0.94924115530E-01  0.50978194479E-02  0.95936677420E-01  0.51100000000E-03 0.  1.
         11    1    4    4    0    0  0.13929440685E-01 -0.31532495565E-01  0.93677967113E-02  0.35725961577E-01  0.51100000000E-03 0. -1.
</event>
<event>
 8    1  0.1108957E+005  0.1043930E+01  0.7957747E-01            NaN
         13   -1    0    0    0    0  0.00000000000E+00  0.00000000000E+00  0.74505805969E-08  0.10566000000E+00  0.10566000000E+00 0. -1.
     999900   -1    0    0    0    0 -0.00000000000E+00 -0.00000000000E+00 -0.74505805969E-08  0.93827000000E+00  0.93827000000E+00 0.  1.
     999902    2    1    2    0    0 -0.32381475010E-02 -0.70156543836E-03  0.30263049841E-01  0.10134861175E+01  0.10130287659E+01 0.  0.
     999903    2    3    3    0    0 -0.25839926095E-02  0.82832195379E-01 -0.87065688456E-01  0.12177744878E+00  0.19531085898E-01 0.  0.
         14    1    1    2    0    0  0.32381475010E-02  0.70156543836E-03 -0.30263049841E-01  0.30443882456E-01  0.00000000000E+00 0.  1.
     999901    1    3    3    0    0 -0.65415489147E-03 -0.83533760817E-01  0.11732873830E+00  0.89170866876E+00  0.88000000000E+00 0. -1.
        -11    1    4    4    0    0  0.19007590240E-02  0.54281157899E-01 -0.43959189620E-01  0.69876522959E-01  0.51100000000E-03 0.  1.
         11    1    4    4    0    0 -0.44847516335E-02  0.28551037480E-01 -0.43106498836E-01  0.51900925823E-01  0.51100000000E-03 0. -1.
</event>
<event>
 8    1  0.1108957E+005  0.1043930E+01  0.7957747E-01            NaN
         13   -1    0    0    0    0  0.00000000000E+00  0.00000000000E+00  0.74505805969E-08  0.10566000000E+00  0.10566000000E+00 0. -1.
     999900   -1    0    0    0    0 -0.00000000000E+00 -0.00000000000E+00 -0.74505805969E-08  0.93827000000E+00  0.93827000000E+00 0. -1.
     999902    2    1    2    0    0 -0.96133027031E-02  0.44881420841E-02 -0.17386351271E-01  0.10235622751E+01  0.10233596077E+01 0.  0.
     999903    2    3    3    0    0 -0.62698881071E-02  0.12752203022E+00  0.37561860285E-01  0.13329949252E+00  0.75287229203E-02 0.  0.
         14    1    1    2    0    0  0.96133027031E-02 -0.44881420841E-02  0.17386351271E-01  0.20367724929E-01  0.00000000000E+00 0. -1.
     999901    1    3    3    0    0 -0.33434145960E-02 -0.12303388814E+00 -0.54948211556E-01  0.89026278256E+00  0.88000000000E+00 0.  1.
        -11    1    4    4    0    0  0.16139981065E-03  0.47775254195E-01  0.16754483125E-01  0.50630769193E-01  0.51100000000E-03 0. -1.
         11    1    4    4    0    0 -0.64312879177E-02  0.79746776024E-01  0.20807377159E-01  0.82668723322E-01  0.51100000000E-03 0.  1.
</event>
<event>
 8    1  0.1108957E+005  0.1043930E+01  0.7957747E-01            NaN
         13   -1    0    0    0    0  0.00000000000E+00  0.00000000000E+00  0.74505805969E-08  0.10566000000E+00  0.10566000000E+00 0. -1.
     999900   -1    0    0    0    0 -0.00000000000E+00 -0.00000000000E+00 -0.74505805969E-08  0.93827000000E+00  0.93827000000E+00 0.  1.
     999902    2    1    2    0    0  0.10682957135E-01  0.87509971401E-02  0.11350536650E-01  0.10260543124E+01  0.10258985875E+01 0.  0.
     999903    2    3    3    0    0  0.10948997251E+00 -0.20074850134E-01  0.78162116272E-01  0.13754007904E+00  0.20418208385E-01 0.  0.
         14    1    1    2    0    0 -0.10682957135E-01 -0.87509971401E-02 -0.11350536650E-01  0.17875687576E-01  0.00000000000E+00 0. -1.
     999901    1    3    3    0    0 -0.98807015374E-01  0.28825847274E-01 -0.66811579623E-01  0.88851423339E+00  0.88000000000E+00 0.  1.
        -11    1    4    4    0    0  0.88544701817E-01 -0.14603057570E-01  0.52531789974E-01  0.10398684335E+00  0.51100000000E-03 0.  1.
         11    1    4    4    0    0  0.20945270692E-01 -0.54717925637E-02  0.25630326298E-01  0.33553235691E-01  0.51100000000E-03 0. -1.
</event>
<event>
 8    1  0.1108957E+005  0.1043930E+01  0.7957747E-01            NaN
         13   -1    0    0    0    0  0.00000000000E+00  0.00000000000E+00  0.74505805969E-08  0.10566000000E+00  0.10566000000E+00 0.  1.
     999900   -1    0    0    0    0 -0.00000000000E+00 -0.00000000000E+00 -0.74505805969E-08  0.93827000000E+00  0.93827000000E+00 0.  1.
     999902    2    1    2    0    0 -0.53586108705E-02 -0.20762496579E-01  0.59402704465E-02  0.10216795441E+01  0.10214372267E+01 0.  0.
     999903    2    3    3    0    0  0.89188160330E-01 -0.71724766216E-01  0.64875503084E-01  0.13319228673E+00  0.20793852742E-01 0.  0.
         14    1    1    2    0    0  0.53586108705E-02  0.20762496579E-01 -0.59402704465E-02  0.22250455897E-01  0.00000000000E+00 0. -1.
     999901    1    3    3    0    0 -0.94546771200E-01  0.50962269637E-01 -0.58935232638E-01  0.88848725737E+00  0.88000000000E+00 0.  1.
        -11    1    4    4    0    0  0.52585084370E-01 -0.54723074248E-01  0.40187283312E-01  0.85878313994E-01  0.51100000000E-03 0. -1.
         11    1    4    4    0    0  0.36603075959E-01 -0.17001691968E-01  0.24688219772E-01  0.47313972735E-01  0.51100000000E-03 0.  1.
</event>
<event>
 7    1  0.1108957E+005  0.1043930E+01  0.7957747E-01            NaN
         13   -1    0    0    0    0  0.00000000000E+00  0.00000000000E+00  0.74505805969E-08  0.10566000000E+00  0.10566000000E+00 0. -1.
     999900   -1    0    0    0    0 -0.00000000000E+00 -0.00000000000E+00 -0.74505805969E-08  0.93827000000E+00  0.93827000000E+00 0. -1.
     999903    2    1    2    0    0  0.49385264428E-01  0.94468124702E-01 -0.30142948299E-01  0.11314331846E+00  0.23014826819E-01 0.  0.
         14    1    1    2    0    0 -0.91911704450E-02  0.20191655087E-01  0.36154154120E-01  0.42418196678E-01  0.00000000000E+00 0. -1.
     999901    1    1    2    0    0 -0.40194093983E-01 -0.11465977979E+00 -0.60112058207E-02  0.88836848486E+00  0.88000000000E+00 0. -1.
        -11    1    3    3    0    0  0.98960861673E-02  0.28224728042E-01 -0.18433489487E-01  0.35137194682E-01  0.51100000000E-03 0.  1.
         11    1    3    3    0    0  0.39489178261E-01  0.66243396661E-01 -0.11709458812E-01  0.78006123782E-01  0.51100000000E-03 0. -1.
</event>
<event>
 8    1  0.1108957E+005  0.1043930E+01  0.7957747E-01            NaN
         13   -1    0    0    0    0  0.00000000000E+00  0.00000000000E+00  0.74505805969E-08  0.10566000000E+00  0.10566000000E+00 0. -1.
     999900   -1    0    0    0    0 -0.00000000000E+00 -0.00000000000E+00 -0.74505805969E-08  0.93827000000E+00  0.93827000000E+00 0.  1.
     999902    2    1    2    0    0  0.18564630067E-02 -0.20863936471E-02  0.22803929377E-01  0.10209556950E+01  0.10206971699E+01 0.  0.
     999903    2    3    3    0    0 -0.29893227919E-01  0.94008359669E-01 -0.80789068329E-01  0.12911840401E+00  0.20334992764E-01 0.  0.
         14    1    1    2    0    0 -0.18564630067E-02  0.20863936471E-02 -0.22803929377E-01  0.22974304960E-01  0.00000000000E+00 0.  1.
     999901    1    3    3    0    0  0.31749690926E-01 -0.96094753317E-01  0.10359299771E+00  0.89183729102E+00  0.88000000000E+00 0. -1.
        -11    1    4    4    0    0 -0.21510674100E-01  0.49458997102E-01 -0.32919128190E-01  0.63188856742E-01  0.51100000000E-03 0. -1.
         11    1    4    4    0    0 -0.83825538197E-02  0.44549362568E-01 -0.47869940139E-01  0.65929547273E-01  0.51100000000E-03 0.  1.
</event>
<event>
 8    1  0.1108957E+005  0.1043930E+01  0.7957747E-01            NaN
         13   -1    0    0    0    0  0.00000000000E+00  0.00000000000E+00  0.74505805969E-08  0.10566000000E+00  0.10566000000E+00 0.  1.
     999900   -1    0    0    0    0 -0.00000000000E+00 -0.00000000000E+00 -0.74505805969E-08  0.93827000000E+00  0.93827000000E+00 0.  1.
     999902    2    1    2    0    0  0.37686882212E-02 -0.15908932049E-01  0.16389129496E-01  0.10207804709E+01  0.10205179416E+01 0.  0.
     999903    2    3    3    0    0 -0.10949668887E+00 -0.69429633773E-01  0.14133426420E-01  0.13190556447E+00  0.19731327280E-01 0.  0.
         14    1    1    2    0    0 -0.37686882212E-02  0.15908932049E-01 -0.16389129496E-01  0.23149529055E-01  0.00000000000E+00 0.  1.
     999901    1    3    3    0    0  0.11326537709E+00  0.53520701724E-01  0.22557030760E-02  0.88887490647E+00  0.88000000000E+00 0. -1.
        -11    1    4    4    0    0 -0.35601110049E-01 -0.20572516392E-01 -0.45403053169E-02  0.41370798407E-01  0.51100000000E-03 0. -1.
         11    1    4    4    0    0 -0.73895578824E-01 -0.48857117381E-01  0.18673731737E-01  0.90534766065E-01  0.51100000000E-03 0.  1.
</event>
<event>
 8    1  0.1108957E+005  0.1043930E+01  0.7957747E-01            NaN
         13   -1    0    0    0    0  0.00000000000E+00  0.00000000000E+00  0.74505805969E-08  0.10566000000E+00  0.10566000000E+00 0. -1.
     999900   -1    0    0    0    0 -0.00000000000E+00 -0.00000000000E+00 -0.74505805969E-08  0.93827000000E+00  0.93827000000E+00 0. -1.
     999902    2    1    2    0    0 -0.41069353339E-02 -0.20315656595E-01  0.10728978496E-01  0.10205911097E+01  0.10203242178E+01 0.  0.
     999903    2    3    3    0    0  0.12103506238E-01 -0.40446531643E-01  0.12444559926E+00  0.13289775027E+00  0.19816358547E-01 0.  0.
         14    1    1    2    0    0  0.41069353339E-02  0.20315656595E-01 -0.10728978496E-01  0.23338890297E-01  0.00000000000E+00 0.  1.
     999901    1    3    3    0    0 -0.16210441572E-01  0.20130875048E-01 -0.11371662076E+00  0.88769335943E+00  0.88000000000E+00 0. -1.
        -11    1    4    4    0    0  0.14770943793E-01 -0.15433510354E-01  0.52652313493E-01  0.56823421751E-01  0.51100000000E-03 0.  1.
         11    1    4    4    0    0 -0.26674375549E-02 -0.25013021289E-01  0.71793285767E-01  0.76074328517E-01  0.51100000000E-03 0. -1.
</event>
<event>
 8    1  0.1108957E+005  0.1043930E+01  0.7957747E-01            NaN
         13   -1    0    0    0    0  0.00000000000E+00  0.00000000000E+00  0.74505805969E-08  0.10566000000E+00  0.10566000000E+00 0.  1.
     999900   -1    0    0    0    0 -0.00000000000E+00 -0.00000000000E+00 -0.74505805969E-08  0.93827000000E+00  0.93827000000E+00 0. -1.
     999902    2    1    2    0    0  0.73150871805E-02 -0.13034293454E-01  0.19945343246E-01  0.10190057142E+01  0.10187008518E+01 0.  0.
     999903    2    3    3    0    0  0.11363980733E+00  0.44715178602E-01 -0.35844951334E-01  0.12897621770E+00  0.20893807413E-01 0.  0.
         14    1    1    2    0    0 -0.73150871805E-02  0.13034293454E-01 -0.19945343246E-01  0.24924285817E-01  0.00000000000E+00 0. -1.
     999901    1    3    3    0    0 -0.10632472015E+00 -0.57749472055E-01  0.55790294580E-01  0.89002949648E+00  0.88000000000E+00 0.  1.
        -11    1    4    4    0    0  0.84582431213E-01  0.32521842184E-01 -0.35865559810E-01  0.97460029707E-01  0.51100000000E-03 0. -1.
         11    1    4    4    0    0  0.29057376120E-01  0.12193336418E-01  0.20608475867E-04  0.31516187994E-01  0.51100000000E-03 0.  1.
</event>
<event>
 8    1  0.1108957E+005  0.1043930E+01  0.7957747E-01            NaN
         13   -1    0    0    0    0  0.00000000000E+00  0.00000000000E+00  0.74505805969E-08  0.10566000000E+00  0.10566000000E+00 0.  1.
     999900   -1    0    0    0    0 -0.00000000000E+00 -0.00000000000E+00 -0.74505805969E-08  0.93827000000E+00  0.93827000000E+00 0.  1.
     999902    2    1    2    0    0  0.13998106073E-02  0.59322459759E-02  0.23046984302E-01  0.10200906523E+01  0.10198120535E+01 0.  0.
     999903    2    3    3    0    0 -0.51599748460E-01 -0.10923579905E+00  0.45919590939E-01  0.13071121250E+00  0.19540174162E-01 0.  0.
         14    1    1    2    0    0 -0.13998106073E-02 -0.59322459759E-02 -0.23046984302E-01  0.23839347673E-01  0.00000000000E+00 0. -1.
     999901    1    3    3    0    0  0.52999559067E-01  0.11516804502E+00 -0.22872606637E-01  0.88937943983E+00  0.88000000000E+00 0. -1.
        -11    1    4    4    0    0 -0.51044444470E-01 -0.93199568797E-01  0.41283349452E-01  0.11400118858E+00  0.51100000000E-03 0. -1.
         11    1    4    4    0    0 -0.55530398925E-03 -0.16036230250E-01  0.46362414873E-02  0.16710023916E-01  0.51100000000E-03 0.  1.
</event>
<event>
 8    1  0.1108957E+005  0.1043930E+01  0.7957747E-01            NaN
         13   -1    0    0    0    0  0.00000000000E+00  0.00000000000E+00  0.74505805969E-08  0.10566000000E+00  0.10566000000E+00 0. -1.
     999900   -1    0    0    0    0 -0.00000000000E+00 -0.00000000000E+00 -0.74505805969E-08  0.93827000000E+00  0.93827000000E+00 0. -1.
     999902    2    1    2    0    0 -0.23339185213E-01 -0.61674057052E-02 -0.40460622149E-02  0.10194529683E+01  0.10191590796E+01 0.  0.
     999903    2    3    3    0    0 -0.84282450541E-01  0.78746756023E-01  0.58795701160E-01  0.13104226170E+00  0.20262201814E-01 0.  0.
         14    1    1    2    0    0  0.23339185213E-01  0.61674057052E-02  0.40460622149E-02  0.24477031662E-01  0.00000000000E+00 0.  1.
     999901    1    3    3    0    0  0.60943265328E-01 -0.84914161728E-01 -0.62841763375E-01  0.88841070664E+00  0.88000000000E+00 0. -1.
        -11    1    4    4    0    0 -0.59637075843E-01  0.66601358959E-01  0.48395607692E-01  0.10165981406E+00  0.51100000000E-03 0.  1.
         11    1    4    4    0    0 -0.24645374698E-01  0.12145397064E-01  0.10400093468E-01  0.29382447634E-01  0.51100000000E-03 0. -1.
</event>
<event>
 8    1  0.1108957E+005  0.1043930E+01  0.7957747E-01            NaN
         13   -1    0    0    0    0  0.00000000000E+00  0.00000000000E+00  0.74505805969E-08  0.10566000000E+00  0.10566000000E+00 0. -1.
     999900   -1    0    0    0    0 -0.00000000000E+00 -0.00000000000E+00 -0.74505805969E-08  0.93827000000E+00  0.93827000000E+00 0. -1.
     999902    2    1    2    0    0 -0.43906076296E-02  0.20914907538E-01 -0.90590518797E-02  0.10207184250E+01  0.10204544703E+01 0.  0.
     999903    2    3    3    0    0  0.32359899995E-01 -0.10601695942E+00  0.61243025838E-01  0.12807925894E+00  0.19152794724E-01 0.  0.
         14    1    1    2    0    0  0.43906076296E-02 -0.20914907538E-01  0.90590518797E-02  0.23211574993E-01  0.00000000000E+00 0. -1.
     999901    1    3    3    0    0 -0.36750507624E-01  0.12693186696E+00 -0.70302077718E-01  0.89263916606E+00  0.88000000000E+00 0. -1.
        -11    1    4    4    0    0  0.61620454175E-03 -0.29309030700E-01  0.18927922025E-01  0.34898801438E-01  0.51100000000E-03 0. -1.
         11    1    4    4    0    0  0.31743695453E-01 -0.76707928719E-01  0.42315103813E-01  0.93180457506E-01  0.51100000000E-03 0.  1.
</event>
<event>
 8    1  0.1108957E+005  0.1043930E+01  0.7957747E-01            NaN
         13   -1    0    0    0    0  0.00000000000E+00  0.00000000000E+00  0.74505805969E-08  0.10566000000E+00  0.10566000000E+00 0. -1.
     999900   -1    0    0    0    0 -0.00000000000E+00 -0.00000000000E+00 -0.74505805969E-08  0.93827000000E+00  0.93827000000E+00 0. -1.
     999902    2    1    2    0    0  0.14285876637E-01  0.13826958202E-01  0.12956733568E-01  0.10201992607E+01  0.10199232243E+01 0.  0.
     999903    2    3    3    0    0 -0.44780861110E-01  0.68613471557E-01  0.10166821535E+00  0.13207755248E+00  0.19872590570E-01 0.  0.
         14    1    1    2    0    0 -0.14285876637E-01 -0.13826958202E-01 -0.12956733568E-01  0.23730739330E-01  0.00000000000E+00 0.  1.
     999901    1    3    3    0    0  0.59066737747E-01 -0.54786513355E-01 -0.88711481784E-01  0.88812170819E+00  0.88000000000E+00 0.  1.
        -11    1    4    4    0    0 -0.45137046125E-02  0.14257074133E-01  0.30000858564E-01  0.33525368421E-01  0.51100000000E-03 0. -1.
         11    1    4    4    0    0 -0.40267156497E-01  0.54356397424E-01  0.71667356788E-01  0.98552184061E-01  0.51100000000E-03 0.  1.
</event>
<event>
 8    1  0.1108957E+005  0.1043930E+01  0.7957747E-01            NaN
         13   -1    0    0    0    0  0.00000000000E+00  0.00000000000E+00  0.74505805969E-08  0.10566000000E+00  0.10566000000E+00 0. -1.
     999900   -1    0    0    0    0 -0.00000000000E+00 -0.00000000000E+00 -0.74505805969E-08  0.93827000000E+00  0.93827000000E+00 0.  1.
     999902    2    1    2    0    0 -0.23170466242E-01 -0.81100836732E-03  0.66394919943E-02  0.10198133855E+01  0.10195281900E+01 0.  0.
     999903    2    3    3    0    0 -0.22779024874E-01 -0.11745046252E+00 -0.48577301552E-01  0.13040132703E+00  0.18200459991E-01 0.  0.
         14    1    1    2    0    0  0.23170466242E-01  0.81100836732E-03 -0.66394919943E-02  0.24116614488E-01  0.00000000000E+00 0. -1.
     999901    1    3    3    0    0 -0.39144136752E-03  0.11663945415E+00  0.55216793546E-01  0.88941205849E+00  0.88000000000E+00 0. -1.
        -11    1    4    4    0    0 -0.10764067288E-01 -0.34000936366E-01 -0.22404827549E-01  0.42120852756E-01  0.51100000000E-03 0.  1.
         11    1    4    4    0    0 -0.12014957586E-01 -0.83449526153E-01 -0.26172474002E-01  0.88280474270E-01  0.51100000000E-03 0. -1.
</event>
<event>
 8    1  0.1108957E+005  0.1043930E+01  0.7957747E-01            NaN
         13   -1    0    0    0    0  0.00000000000E+00  0.00000000000E+00  0.74505805969E-08  0.10566000000E+00  0.10566000000E+00 0. -1.
     999900   -1    0    0    0    0 -0.00000000000E+00 -0.00000000000E+00 -0.74505805969E-08  0.93827000000E+00  0.93827000000E+00 0. -1.
     999902    2    1    2    0    0 -0.16957294375E-01 -0.22553815841E-01  0.13307233936E-01  0.10127321328E+01  0.10122514835E+01 0.  0.
     999903    2    3    3    0    0  0.63242942883E-01 -0.99770121532E-01  0.37731635950E-01  0.12538158916E+00  0.18523487086E-01 0.  0.
         14    1    1    2    0    0  0.16957294375E-01  0.22553815841E-01 -0.13307233936E-01  0.31197867179E-01  0.00000000000E+00 0.  1.
     999901    1    3    3    0    0 -0.80200237258E-01  0.77216305692E-01 -0.24424402013E-01  0.88735054366E+00  0.88000000000E+00 0. -1.
        -11    1    4    4    0    0  0.44001094538E-01 -0.55276021276E-01  0.27617444013E-01  0.75858547202E-01  0.51100000000E-03 0.  1.
         11    1    4    4    0    0  0.19241848345E-01 -0.44494100256E-01  0.10114191936E-01  0.49523041959E-01  0.51100000000E-03 0. -1.
</event>
<event>
 8    1  0.1108957E+005  0.1043930E+01  0.7957747E-01            NaN
         13   -1    0    0    0    0  0.00000000000E+00  0.00000000000E+00  0.74505805969E-08  0.10566000000E+00  0.10566000000E+00 0.  1.
     999900   -1    0    0    0    0 -0.00000000000E+00 -0.00000000000E+00 -0.74505805969E-08  0.93827000000E+00  0.93827000000E+00 0.  1.
     999902    2    1    2    0    0 -0.23403326566E-02  0.24403158657E-01  0.33184694520E-03  0.10194126300E+01  0.10191177600E+01 0.  0.
     999903    2    3    3    0    0 -0.30772316516E-01  0.85227440008E-01 -0.94039612422E-01  0.13182379318E+00  0.17983652275E-01 0.  0.
         14    1    1    2    0    0  0.23403326566E-02 -0.24403158657E-01 -0.33184694520E-03  0.24517370001E-01  0.00000000000E+00 0.  1.
     999901    1    3    3    0    0  0.28431983860E-01 -0.60824281351E-01  0.94371459367E-01  0.88758883682E+00  0.88000000000E+00 0. -1.
        -11    1    4    4    0    0 -0.13398709533E-01  0.60463128981E-01 -0.67107339696E-01  0.91317969456E-01  0.51100000000E-03 0. -1.
         11    1    4    4    0    0 -0.17373606983E-01  0.24764311026E-01 -0.26932272725E-01  0.40505823721E-01  0.51100000000E-03 0.  1.
</event>
<event>
 8    1  0.1108957E+005  0.1043930E+01  0.7957747E-01            NaN
         13   -1    0    0    0    0  0.00000000000E+00  0.00000000000E+00  0.74505805969E-08  0.10566000000E+00  0.10566000000E+00 0. -1.
     999900   -1    0    0    0    0 -0.00000000000E+00 -0.00000000000E+00 -0.74505805969E-08  0.93827000000E+00  0.93827000000E+00 0.  1.
     999902    2    1    2    0    0  0.68364900005E-02 -0.14775172353E-01  0.23986754764E-01  0.10149402136E+01  0.10145261107E+01 0.  0.
     999903    2    3    3    0    0  0.79305189546E-01  0.11854409684E-01 -0.92335133003E-01  0.12393424915E+00  0.20101771229E-01 0.  0.
         14    1    1    2    0    0 -0.68364900005E-02  0.14775172353E-01 -0.23986754764E-01  0.28989786437E-01  0.00000000000E+00 0.  1.
     999901    1    3    3    0    0 -0.72468699546E-01 -0.26629582037E-01  0.11632188777E+00  0.89100596442E+00  0.88000000000E+00 0. -1.
        -11    1    4    4    0    0  0.29516205776E-01 -0.30772788076E-02 -0.43138402638E-01  0.52362763023E-01  0.51100000000E-03 0.  1.
         11    1    4    4    0    0  0.49788983770E-01  0.14931688492E-01 -0.49196730366E-01  0.71571486122E-01  0.51100000000E-03 0. -1.
</event>
<event>
 8    1  0.1108957E+005  0.1043930E+01  0.7957747E-01            NaN
         13   -1    0    0    0    0  0.00000000000E+00  0.00000000000E+00  0.74505805969E-08  0.10566000000E+00  0.10566000000E+00 0.  1.
     999900   -1    0    0    0    0 -0.00000000000E+00 -0.00000000000E+00 -0.74505805969E-08  0.93827000000E+00  0.93827000000E+00 0. -1.
     999902    2    1    2    0    0  0.23827884779E-01 -0.12833818641E-02 -0.41034305499E-02  0.10197173317E+01  0.10194298325E+01 0.  0.
     999903    2    3    3    0    0  0.85183855205E-01 -0.63245834937E-01  0.71323992437E-01  0.13219651686E+00  0.33652375090E-01 0.  0.
         14    1    1    2    0    0 -0.23827884779E-01  0.12833818641E-02  0.41034305499E-02  0.24212668261E-01  0.00000000000E+00 0. -1.
     999901    1    3    3    0    0 -0.61355970426E-01  0.61962453073E-01 -0.75427422987E-01  0.88752081487E+00  0.88000000000E+00 0. -1.
        -11    1    4    4    0    0  0.44160452435E-01 -0.33330757119E-01  0.57004776693E-01  0.79441114143E-01  0.51100000000E-03 0. -1.
         11    1    4    4    0    0  0.41023402771E-01 -0.29915077818E-01  0.14319215744E-01  0.52755402721E-01  0.51100000000E-03 0.  1.
</event>
<event>
 8    1  0.1108957E+005  0.1043930E+01  0.7957747E-01            NaN
         13   -1    0    0    0    0  0.00000000000E+00  0.00000000000E+00  0.74505805969E-08  0.10566000000E+00  0.10566000000E+00 0.  1.
     999900   -1    0    0    0    0 -0.00000000000E+00 -0.00000000000E+00 -0.74505805969E-08  0.93827000000E+00  0.93827000000E+00 0.  1.
     999902    2    1    2    0    0 -0.20601991519E-01  0.96948864622E-02  0.16796608452E-02  0.10210990093E+01  0.10208437356E+01 0.  0.
     999903    2    3    3    0    0  0.11501296549E+00  0.53474027509E-01  0.20189524759E-01  0.12944288449E+00  0.16136591592E-01 0.  0.
         14    1    1    2    0    0  0.20601991519E-01 -0.96948864622E-02 -0.16796608452E-02  0.22830990750E-01  0.00000000000E+00 0. -1.
     999901    1    3    3    0    0 -0.13561495700E+00 -0.43779141047E-01 -0.18509863914E-01  0.89165612476E+00  0.88000000000E+00 0. -1.
        -11    1    4    4    0    0  0.98859797715E-01  0.39494123355E-01  0.17890601801E-01  0.10795082277E+00  0.51100000000E-03 0.  1.
         11    1    4    4    0    0  0.16153167771E-01  0.13979904154E-01  0.22989229577E-02  0.21492061720E-01  0.51100000000E-03 0. -1.
</event>
<event>
 8    1  0.1108957E+005  0.1043930E+01  0.7957747E-01            NaN
         13   -1    0    0    0    0  0.00000000000E+00  0.00000000000E+00  0.74505805969E-08  0.10566000000E+00  0.10566000000E+00 0. -1.
     999900   -1    0    0    0    0 -0.00000000000E+00 -0.00000000000E+00 -0.74505805969E-08  0.93827000000E+00  0.93827000000E+00 0. -1.
     999902    2    1    2    0    0 -0.22900138437E-01 -0.42414507710E-02  0.29664637616E-03  0.10206384942E+01  0.10203726974E+01 0.  0.
     999903    2    3    3    0    0 -0.54121264831E-02 -0.12072256102E+00 -0.48557091283E-01  0.13144764441E+00  0.17817526638E-01 0.  0.
         14    1    1    2    0    0  0.22900138437E-01  0.42414507710E-02 -0.29664637616E-03  0.23291505836E-01  0.00000000000E+00 0.  1.
     999901    1    3    3    0    0 -0.17488011953E-01  0.11648111024E+00  0.48853737659E-01  0.88919084976E+00  0.88000000000E+00 0.  1.
        -11    1    4    4    0    0 -0.50095910885E-02 -0.68543386121E-01 -0.18282572621E-01  0.71118249180E-01  0.51100000000E-03 0.  1.
         11    1    4    4    0    0 -0.40253539454E-03 -0.52179174894E-01 -0.30274518662E-01  0.60329395228E-01  0.51100000000E-03 0. -1.
</event>
<event>
 8    1  0.1108957E+005  0.1043930E+01  0.7957747E-01            NaN
         13   -1    0    0    0    0  0.00000000000E+00  0.00000000000E+00  0.74505805969E-08  0.10566000000E+00  0.10566000000E+00 0.  1.
     999900   -1    0    0    0    0 -0.00000000000E+00 -0.00000000000E+00 -0.74505805969E-08  0.93827000000E+00  0.93827000000E+00 0.  1.
     999902    2    1    2    0    0  0.31202548393E-02 -0.39766690569E-02  0.23250619111E-01  0.10201362786E+01  0.10198587578E+01 0.  0.
     999903    2    3    3    0    0  0.31042556470E-02  0.89969165488E-01 -0.88801168558E-01  0.12807046089E+00  0.20305375472E-01 0.  0.
         14    1    1    2    0    0 -0.31202548393E-02  0.39766690569E-02 -0.23250619111E-01  0.23793721358E-01  0.00000000000E+00 0. -1.
     999901    1    3    3    0    0  0.15999192368E-04 -0.93945834545E-01  0.11205178767E+00  0.89206581775E+00  0.88000000000E+00 0. -1.
        -11    1    4    4    0    0 -0.47692969790E-02  0.45454357276E-01 -0.33648192113E-01  0.56756556824E-01  0.51100000000E-03 0. -1.
         11    1    4    4    0    0  0.78735526259E-02  0.44514808212E-01 -0.55152976445E-01  0.71313904064E-01  0.51100000000E-03 0.  1.
</event>
<event>
 8    1  0.1108957E+005  0.1043930E+01  0.7957747E-01            NaN
         13   -1    0    0    0    0  0.00000000000E+00  0.00000000000E+00  0.74505805969E-08  0.10566000000E+00  0.10566000000E+00 0. -1.
     999900   -1    0    0    0    0 -0.00000000000E+00 -0.00000000000E+00 -0.74505805969E-08  0.93827000000E+00  0.93827000000E+00 0. -1.
     999902    2    1    2    0    0 -0.23621601883E-01  0.42794230428E-02  0.24252817506E-02  0.10198016862E+01  0.10195162105E+01 0.  0.
     999903    2    3    3    0    0  0.14806925471E-01 -0.10631523312E+00 -0.68807934749E-01  0.12919397183E+00  0.20841704290E-01 0.  0.
         14    1    1    2    0    0  0.23621601883E-01 -0.42794230428E-02 -0.24252817506E-02  0.24128313838E-01  0.00000000000E+00 0.  1.
     999901    1    3    3    0    0 -0.38428527354E-01  0.11059465617E+00  0.71233216500E-01  0.89060771433E+00  0.88000000000E+00 0.  1.
        -11    1    4    4    0    0 -0.68034225213E-04 -0.65477019814E-01 -0.46718981019E-01  0.80437361101E-01  0.51100000000E-03 0. -1.
         11    1    4    4    0    0  0.14874959696E-01 -0.40838213310E-01 -0.22088953730E-01  0.48756610733E-01  0.51100000000E-03 0.  1.
</event>
<event>
 8    1  0.1108957E+005  0.1043930E+01  0.7957747E-01            NaN
         13   -1    0    0    0    0  0.00000000000E+00  0.00000000000E+00  0.74505805969E-08  0.10566000000E+00  0.10566000000E+00 0. -1.
     999900   -1    0    0    0    0 -0.00000000000E+00 -0.00000000000E+00 -0.74505805969E-08  0.93827000000E+00  0.93827000000E+00 0. -1.
     999902    2    1    2    0    0 -0.19078811060E-01 -0.81212112807E-02  0.10895004285E-01  0.10205065882E+01  0.10202377371E+01 0.  0.
     999903    2    3    3    0    0  0.69446845120E-01  0.10151390941E+00  0.37221079396E-01  0.12890706274E+00  0.10182532726E-01 0.  0.
         14    1    1    2    0    0  0.19078811060E-01  0.81212112807E-02 -0.10895004285E-01  0.23423411846E-01  0.00000000000E+00 0.  1.
     999901    1    3    3    0    0 -0.88525656180E-01 -0.10963512069E+00 -0.26326075112E-01  0.89159952542E+00  0.88000000000E+00 0. -1.
        -11    1    4    4    0    0  0.33610820202E-01  0.56981242148E-01  0.17434578445E-01  0.68416188420E-01  0.51100000000E-03 0. -1.
         11    1    4    4    0    0  0.35836024918E-01  0.44532667257E-01  0.19786500951E-01  0.60490874319E-01  0.51100000000E-03 0.  1.
</event>
<event>
 8    1  0.1108957E+005  0.1043930E+01  0.7957747E-01            NaN
         13   -1    0    0    0    0  0.00000000000E+00  0.00000000000E+00  0.74505805969E-08  0.10566000000E+00  0.10566000000E+00 0. -1.
     999900   -1    0    0    0    0 -0.00000000000E+00 -0.00000000000E+00 -0.74505805969E-08  0.93827000000E+00  0.93827000000E+00 0.  1.
     999902    2    1    2    0    0  0.11951037467E-01  0.13989836625E-01  0.10069407627E-01  0.10229553535E+01  0.10227402991E+01 0.  0.
     999903    2    3    3    0    0  0.47339399096E-01 -0.12111304436E+00  0.79322628785E-02  0.13193925266E+00  0.20872407083E-01 0.  0.
         14    1    1    2    0    0 -0.11951037467E-01 -0.13989836625E-01 -0.10069407627E-01  0.20974646488E-01  0.00000000000E+00 0. -1.
     999901    1    3    3    0    0 -0.35388361629E-01  0.13510288098E+00  0.21371447481E-02  0.89101610085E+00  0.88000000000E+00 0. -1.
        -11    1    4    4    0    0  0.34797636842E-01 -0.60585723504E-01  0.52284299101E-02  0.70064991420E-01  0.51100000000E-03 0. -1.
         11    1    4    4    0    0  0.12541762253E-01 -0.60527320856E-01  0.27038329684E-02  0.61874261241E-01  0.51100000000E-03 0.  1.
</event>
<event>
 8    1  0.1108957E+005  0.1043930E+01  0.7957747E-01            NaN
         13   -1    0    0    0    0  0.00000000000E+00  0.00000000000E+00  0.74505805969E-08  0.10566000000E+00  0.10566000000E+00 0.  1.
     999900   -1    0    0    0    0 -0.00000000000E+00 -0.00000000000E+00 -0.74505805969E-08  0.93827000000E+00  0.93827000000E+00 0.  1.
     999902    2    1    2    0    0  0.16088221192E-01 -0.22842393830E-01  0.11126991658E-01  0.10138564940E+01  0.10134103684E+01 0.  0.
     999903    2    3    3    0    0 -0.11264251466E+00  0.55607584076E-02 -0.42838487322E-01  0.12240228079E+00  0.20686328889E-01 0.  0.
         14    1    1    2    0    0 -0.16088221192E-01  0.22842393830E-01 -0.11126991658E-01  0.30073505954E-01  0.00000000000E+00 0.  1.
     999901    1    3    3    0    0  0.12873073585E+00 -0.28403152237E-01  0.53965478980E-01  0.89145421326E+00  0.88000000000E+00 0. -1.
        -11    1    4    4    0    0 -0.60709244047E-01  0.12675367449E-01 -0.26984000701E-01  0.67636341323E-01  0.51100000000E-03 0. -1.
         11    1    4    4    0    0 -0.51933270616E-01 -0.71146090418E-02 -0.15854486621E-01  0.54765939467E-01  0.51100000000E-03 0.  1.
</event>
<event>
 8    1  0.1108957E+005  0.1043930E+01  0.7957747E-01            NaN
         13   -1    0    0    0    0  0.00000000000E+00  0.00000000000E+00  0.74505805969E-08  0.10566000000E+00  0.10566000000E+00 0.  1.
     999900   -1    0    0    0    0 -0.00000000000E+00 -0.00000000000E+00 -0.74505805969E-08  0.93827000000E+00  0.93827000000E+00 0. -1.
     999902    2    1    2    0    0 -0.13428763169E-01  0.81994722777E-03 -0.17693535639E-01  0.10217024226E+01  0.10214606087E+01 0.  0.
     999903    2    3    3    0    0 -0.53270100029E-01  0.10240817225E+00 -0.64272227745E-01  0.13374010688E+00  0.20745110901E-01 0.  0.
         14    1    1    2    0    0  0.13428763169E-01 -0.81994722777E-03  0.17693535639E-01  0.22227577401E-01  0.00000000000E+00 0.  1.
     999901    1    3    3    0    0  0.39841336860E-01 -0.10158822503E+00  0.46578692106E-01  0.88796231572E+00  0.88000000000E+00 0.  1.
        -11    1    4    4    0    0 -0.43507315099E-01  0.83840834281E-01 -0.42752562442E-01  0.10368324202E+00  0.51100000000E-03 0.  1.
         11    1    4    4    0    0 -0.97627849304E-02  0.18567337972E-01 -0.21519665303E-01  0.30056864852E-01  0.51100000000E-03 0. -1.
</event>
<event>
 8    1  0.1108957E+005  0.1043930E+01  0.7957747E-01            NaN
         13   -1    0    0    0    0  0.00000000000E+00  0.00000000000E+00  0.74505805969E-08  0.10566000000E+00  0.10566000000E+00 0.  1.
     999900   -1    0    0    0    0 -0.00000000000E+00 -0.00000000000E+00 -0.74505805969E-08  0.93827000000E+00  0.93827000000E+00 0. -1.
     999902    2    1    2    0    0 -0.31928861892E-02 -0.12305800190E-01  0.18696409914E-01  0.10213206439E+01  0.10210703573E+01 0.  0.
     999903    2    3    3    0    0  0.60927297157E-01  0.75964624138E-01  0.86809701175E-01  0.13197117029E+00  0.19942565298E-01 0.  0.
         14    1    1    2    0    0  0.31928861892E-02  0.12305800190E-01 -0.18696409914E-01  0.22609356121E-01  0.00000000000E+00 0. -1.
     999901    1    3    3    0    0 -0.64120183346E-01 -0.88270424328E-01 -0.68113291261E-01  0.88934947359E+00  0.88000000000E+00 0.  1.
        -11    1    4    4    0    0  0.32648441204E-01  0.55179341970E-01  0.59893446107E-01  0.87739195920E-01  0.51100000000E-03 0.  1.
         11    1    4    4    0    0  0.28278855953E-01  0.20785282169E-01  0.26916255068E-01  0.44231974371E-01  0.51100000000E-03 0. -1.
</event>
<event>
 8    1  0.1108957E+005  0.1043930E+01  0.7957747E-01            NaN
         13   -1    0    0    0    0  0.00000000000E+00  0.00000000000E+00  0.74505805969E-08  0.10566000000E+00  0.10566000000E+00 0. -1.
     999900   -1    0    0    0    0 -0.00000000000E+00 -0.00000000000E+00 -0.74505805969E-08  0.93827000000E+00  0.93827000000E+00 0.  1.
     999902    2    1    2    0    0 -0.23704322545E-01  0.20055232703E-02  0.49061122589E-02  0.10196403526E+01  0.10193510003E+01 0.  0.
     999903    2    3    3    0    0 -0.60517720963E-01  0.35355180841E-01  0.11002347239E+00  0.13199341531E+00  0.20117500980E-01 0.  0.
         14    1    1    2    0    0  0.23704322545E-01 -0.20055232703E-02 -0.49061122589E-02  0.24289647350E-01  0.00000000000E+00 0.  1.
     999901    1    3    3    0    0  0.36813398418E-01 -0.33349657571E-01 -0.10511736013E+00  0.88764693734E+00  0.88000000000E+00 0.  1.
        -11    1    4    4    0    0 -0.12241619790E-01  0.17547755637E-01  0.34758512673E-01  0.40819067937E-01  0.51100000000E-03 0. -1.
         11    1    4    4    0    0 -0.48276101172E-01  0.17807425205E-01  0.75264959719E-01  0.91174347375E-01  0.51100000000E-03 0.  1.
</event>
<event>
 8    1  0.1108957E+005  0.1043930E+01  0.7957747E-01            NaN
         13   -1    0    0    0    0  0.00000000000E+00  0.00000000000E+00  0.74505805969E-08  0.10566000000E+00  0.10566000000E+00 0. -1.
     999900   -1    0    0    0    0 -0.00000000000E+00 -0.00000000000E+00 -0.74505805969E-08  0.93827000000E+00  0.93827000000E+00 0. -1.
     999902    2    1    2    0    0  0.13552322687E-01 -0.15728825818E-01  0.68457058540E-02  0.10220685019E+01  0.10218346723E+01 0.  0.
     999903    2    3    3    0    0  0.24337982313E-01 -0.42004396249E-01  0.12345198801E+00  0.13392225204E+00  0.18386667990E-01 0.  0.
         14    1    1    2    0    0 -0.13552322687E-01  0.15728825818E-01 -0.68457058540E-02  0.21861498129E-01  0.00000000000E+00 0.  1.
     999901    1    3    3    0    0 -0.10785659626E-01  0.26275570430E-01 -0.11660628216E+00  0.88814624983E+00  0.88000000000E+00 0. -1.
        -11    1    4    4    0    0  0.63818607716E-02 -0.39464188168E-03  0.11980686521E-01  0.13589770404E-01  0.51100000000E-03 0. -1.
         11    1    4    4    0    0  0.17956121541E-01 -0.41609754367E-01  0.11147130149E+00  0.12033248163E+00  0.51100000000E-03 0.  1.
</event>
<event>
 8    1  0.1108957E+005  0.1043930E+01  0.7957747E-01            NaN
         13   -1    0    0    0    0  0.00000000000E+00  0.00000000000E+00  0.74505805969E-08  0.10566000000E+00  0.10566000000E+00 0.  1.
     999900   -1    0    0    0    0 -0.00000000000E+00 -0.00000000000E+00 -0.74505805969E-08  0.93827000000E+00  0.93827000000E+00 0.  1.
     999902    2    1    2    0    0  0.20607503764E-01  0.55068117596E-02 -0.45456094815E-02  0.10221204435E+01  0.10218877357E+01 0.  0.
     999903    2    3    3    0    0 -0.52036005169E-01 -0.92229538430E-01  0.73399426484E-01  0.13032175428E+00  0.19551220902E-01 0.  0.
         14    1    1    2    0    0 -0.20607503764E-01 -0.55068117596E-02  0.45456094815E-02  0.21809556453E-01  0.00000000000E+00 0.  1.
     999901    1    3    3    0    0  0.72643508933E-01  0.97736350189E-01 -0.77945035965E-01  0.89179868926E+00  0.88000000000E+00 0.  1.
        -11    1    4    4    0    0 -0.16420458121E-01 -0.22282316056E-01  0.29206872353E-01  0.40242211263E-01  0.51100000000E-03 0. -1.
         11    1    4    4    0    0 -0.35615547049E-01 -0.69947222374E-01  0.44192554131E-01  0.90079543022E-01  0.51100000000E-03 0.  1.
</event>
<event>
 8    1  0.1108957E+005  0.1043930E+01  0.7957747E-01            NaN
         13   -1    0    0    0    0  0.00000000000E+00  0.00000000000E+00  0.74505805969E-08  0.10566000000E+00  0.10566000000E+00 0. -1.
     999900   -1    0    0    0    0 -0.00000000000E+00 -0.00000000000E+00 -0.74505805969E-08  0.93827000000E+00  0.93827000000E+00 0.  1.
     999902    2    1    2    0    0 -0.31218035922E-02  0.78757979410E-02 -0.22377950135E-01  0.10200020560E+01  0.10197213579E+01 0.  0.
     999903    2    3    3    0    0 -0.11681689805E+00  0.52135304201E-01 -0.24126813172E-01  0.13158293369E+00  0.19175184739E-01 0.  0.
         14    1    1    2    0    0  0.31218035922E-02 -0.78757979410E-02  0.22377950135E-01  0.23927943980E-01  0.00000000000E+00 0. -1.
     999901    1    3    3    0    0  0.11369509446E+00 -0.44259506260E-01  0.17488630368E-02  0.88841912233E+00  0.88000000000E+00 0. -1.
        -11    1    4    4    0    0 -0.89748997958E-01  0.45627695664E-01 -0.12680793487E-01  0.10147823851E+00  0.51100000000E-03 0.  1.
         11    1    4    4    0    0 -0.27067900095E-01  0.65076085370E-02 -0.11446019685E-01  0.30104695183E-01  0.51100000000E-03 0. -1.
</event>
<event>
 8    1  0.1108957E+005  0.1043930E+01  0.7957747E-01            NaN
         13   -1    0    0    0    0  0.00000000000E+00  0.00000000000E+00  0.74505805969E-08  0.10566000000E+00  0.10566000000E+00 0.  1.
     999900   -1    0    0    0    0 -0.00000000000E+00 -0.00000000000E+00 -0.74505805969E-08  0.93827000000E+00  0.93827000000E+00 0. -1.
     999902    2    1    2    0    0  0.23995015201E-01  0.87676979284E-03 -0.43346814231E-02  0.10195308414E+01  0.10192388422E+01 0.  0.
     999903    2    3    3    0    0  0.89269979369E-01  0.30135395704E-01 -0.92005342402E-01  0.13228621165E+00  0.12545416336E-01 0.  0.
         14    1    1    2    0    0 -0.23995015201E-01 -0.87676979284E-03  0.43346814231E-02  0.24399158650E-01  0.00000000000E+00 0. -1.
     999901    1    3    3    0    0 -0.65274964168E-01 -0.29258625911E-01  0.87670660979E-01  0.88724462970E+00  0.88000000000E+00 0. -1.
        -11    1    4    4    0    0  0.80786262286E-01  0.30777358615E-01 -0.85199065831E-01  0.12137877869E+00  0.51100000000E-03 0. -1.
         11    1    4    4    0    0  0.84837170836E-02 -0.64196291114E-03 -0.68062765714E-02  0.10907432956E-01  0.51100000000E-03 0.  1.
</event>
<event>
 8    1  0.1108957E+005  0.1043930E+01  0.7957747E-01            NaN
         13   -1    0    0    0    0  0.00000000000E+00  0.00000000000E+00  0.74505805969E-08  0.10566000000E+00  0.10566000000E+00 0.  1.
     999900   -1    0    0    0    0 -0.00000000000E+00 -0.00000000000E+00 -0.74505805969E-08  0.93827000000E+00  0.93827000000E+00 0. -1.
     999902    2    1    2    0    0 -0.11201293606E-01 -0.10208636163E-01 -0.19363354528E-01  0.10193408819E+01  0.10190442624E+01 0.  0.
     999903    2    3    3    0    0 -0.25348807479E-01  0.78865942661E-01 -0.99550979048E-01  0.13110415226E+00  0.20383874949E-01 0.  0.
         14    1    1    2    0    0  0.11201293606E-01  0.10208636163E-01  0.19363354528E-01  0.24589118108E-01  0.00000000000E+00 0.  1.
     999901    1    3    3    0    0  0.14147513873E-01 -0.89074578824E-01  0.80187624520E-01  0.88823672963E+00  0.88000000000E+00 0. -1.
        -11    1    4    4    0    0 -0.23264128571E-01  0.39590497970E-01 -0.51293687865E-01  0.68847154942E-01  0.51100000000E-03 0. -1.
         11    1    4    4    0    0 -0.20846789079E-02  0.39275444691E-01 -0.48257291182E-01  0.62256997318E-01  0.51100000000E-03 0.  1.
</event>
<event>
 8    1  0.1108957E+005  0.1043930E+01  0.7957747E-01            NaN
         13   -1    0    0    0    0  0.00000000000E+00  0.00000000000E+00  0.74505805969E-08  0.10566000000E+00  0.10566000000E+00 0. -1.
     999900   -1    0    0    0    0 -0.00000000000E+00 -0.00000000000E+00 -0.74505805969E-08  0.93827000000E+00  0.93827000000E+00 0. -1.
     999902    2    1    2    0    0  0.54205033258E-03  0.99530894413E-02 -0.20297153005E-01  0.10213173436E+01  0.10210669832E+01 0.  0.
     999903    2    3    3    0    0  0.51088588253E-02  0.11331561877E+00  0.62763358619E-01  0.13137143696E+00  0.21276403996E-01 0.  0.
         14    1    1    2    0    0 -0.54205033258E-03 -0.99530894413E-02  0.20297153005E-01  0.22612656370E-01  0.00000000000E+00 0.  1.
     999901    1    3    3    0    0 -0.45668084928E-02 -0.10336252933E+00 -0.83060511624E-01  0.88994590667E+00  0.88000000000E+00 0. -1.
        -11    1    4    4    0    0 -0.73635907573E-02  0.58265881064E-01  0.36146108494E-01  0.68963306513E-01  0.51100000000E-03 0. -1.
         11    1    4    4    0    0  0.12472449583E-01  0.55049737710E-01  0.26617250125E-01  0.62408130446E-01  0.51100000000E-03 0.  1.
</event>
<event>
 8    1  0.1108957E+005  0.1043930E+01  0.7957747E-01            NaN
         13   -1    0    0    0    0  0.00000000000E+00  0.00000000000E+00  0.74505805969E-08  0.10566000000E+00  0.10566000000E+00 0.  1.
     999900   -1    0    0    0    0 -0.00000000000E+00 -0.00000000000E+00 -0.74505805969E-08  0.93827000000E+00  0.93827000000E+00 0. -1.
     999902    2    1    2    0    0  0.52638359377E-02 -0.23394342422E-01 -0.14535160637E-02  0.10199067626E+01  0.10196237975E+01 0.  0.
     999903    2    3    3    0    0 -0.48517289781E-02 -0.53609600391E-02  0.12826924477E+00  0.13015650426E+00  0.20867133990E-01 0.  0.
         14    1    1    2    0    0 -0.52638359377E-02  0.23394342422E-01  0.14535160637E-02  0.24023237398E-01  0.00000000000E+00 0.  1.
     999901    1    3    3    0    0  0.10115564916E-01 -0.18033382383E-01 -0.12972276084E+00  0.88975025834E+00  0.88000000000E+00 0. -1.
        -11    1    4    4    0    0 -0.10122168838E-01  0.22245761693E-02  0.37245569023E-01  0.38663944108E-01  0.51100000000E-03 0.  1.
         11    1    4    4    0    0  0.52704398602E-02 -0.75855362085E-02  0.91023675750E-01  0.91492560156E-01  0.51100000000E-03 0. -1.
</event>
<event>
 8    1  0.1108957E+005  0.1043930E+01  0.7957747E-01            NaN
         13   -1    0    0    0    0  0.00000000000E+00  0.00000000000E+00  0.74505805969E-08  0.10566000000E+00  0.10566000000E+00 0.  1.
     999900   -1    0    0    0    0 -0.00000000000E+00 -0.00000000000E+00 -0.74505805969E-08  0.93827000000E+00  0.93827000000E+00 0.  1.
     999902    2    1    2    0    0 -0.18782140114E-01  0.10449292473E-01 -0.10309615701E-01  0.10200921168E+01  0.10198135526E+01 0.  0.
     999903    2    3    3    0    0  0.67634331224E-01 -0.10470878458E+00  0.20025340642E-01  0.12787611221E+00  0.20321256806E-01 0.  0.
         14    1    1    2    0    0  0.18782140114E-01 -0.10449292473E-01  0.10309615701E-01  0.23837883219E-01  0.00000000000E+00 0. -1.
     999901    1    3    3    0    0 -0.86416471338E-01  0.11515807706E+00 -0.30334956343E-01  0.89221600457E+00  0.88000000000E+00 0.  1.
        -11    1    4    4    0    0  0.33392091333E-01 -0.34187607554E-01  0.50038086923E-02  0.48053340116E-01  0.51100000000E-03 0.  1.
         11    1    4    4    0    0  0.34242239891E-01 -0.70521177029E-01  0.15021531950E-01  0.79822772098E-01  0.51100000000E-03 0. -1.
</event>
<event>
 8    1  0.1108957E+005  0.1043930E+01  0.7957747E-01            NaN
         13   -1    0    0    0    0  0.00000000000E+00  0.00000000000E+00  0.74505805969E-08  0.10566000000E+00  0.10566000000E+00 0. -1.
     999900   -1    0    0    0    0 -0.00000000000E+00 -0.00000000000E+00 -0.74505805969E-08  0.93827000000E+00  0.93827000000E+00 0.  1.
     999902    2    1    2    0    0 -0.62512497878E-02  0.17188929200E-01 -0.15403462251E-01  0.10200175752E+01  0.10197372454E+01 0.  0.
     999903    2    3    3    0    0  0.46271517180E-02 -0.11117399077E+00 -0.62925794920E-01  0.12936963636E+00  0.19894230049E-01 0.  0.
         14    1    1    2    0    0  0.62512497878E-02 -0.17188929200E-01  0.15403462251E-01  0.23912424810E-01  0.00000000000E+00 0. -1.
     999901    1    3    3    0    0 -0.10878401506E-01  0.12836291997E+00  0.47522332669E-01  0.89064793883E+00  0.88000000000E+00 0. -1.
        -11    1    4    4    0    0  0.17938953034E-03 -0.10143768792E+00 -0.61322214338E-01  0.11853401117E+00  0.51100000000E-03 0. -1.
         11    1    4    4    0    0  0.44477621877E-02 -0.97363028433E-02 -0.16035805817E-02  0.10835625188E-01  0.51100000000E-03 0.  1.
</event>
<event>
 8    1  0.1108957E+005  0.1043930E+01  0.7957747E-01            NaN
         13   -1    0    0    0    0  0.00000000000E+00  0.00000000000E+00  0.74505805969E-08  0.10566000000E+00  0.10566000000E+00 0.  1.
     999900   -1    0    0    0    0 -0.00000000000E+00 -0.00000000000E+00 -0.74505805969E-08  0.93827000000E+00  0.93827000000E+00 0.  1.
     999902    2    1    2    0    0  0.88968101819E-02 -0.22100962562E-01  0.78709414486E-02  0.10188390156E+01  0.10185300105E+01 0.  0.
     999903    2    3    3    0    0 -0.40296009686E-01  0.11198985530E+00 -0.36744449900E-01  0.12620761683E+00  0.20315311020E-01 0.  0.
         14    1    1    2    0    0 -0.88968101819E-02  0.22100962562E-01 -0.78709414486E-02  0.25090984375E-01  0.00000000000E+00 0.  1.
     999901    1    3    3    0    0  0.49192819868E-01 -0.13409081786E+00  0.44615391348E-01  0.89263139879E+00  0.88000000000E+00 0. -1.
        -11    1    4    4    0    0 -0.15775201868E-01  0.66400259297E-01 -0.27690101746E-01  0.73653610125E-01  0.51100000000E-03 0. -1.
         11    1    4    4    0    0 -0.24520807818E-01  0.45589596003E-01 -0.90543481541E-02  0.52554006710E-01  0.51100000000E-03 0.  1.
</event>
<event>
 8    1  0.1108957E+005  0.1043930E+01  0.7957747E-01            NaN
         13   -1    0    0    0    0  0.00000000000E+00  0.00000000000E+00  0.74505805969E-08  0.10566000000E+00  0.10566000000E+00 0. -1.
     999900   -1    0    0    0    0 -0.00000000000E+00 -0.00000000000E+00 -0.74505805969E-08  0.93827000000E+00  0.93827000000E+00 0.  1.
     999902    2    1    2    0    0  0.12046866931E-01  0.28808917944E-02  0.19653739271E-01  0.10206986417E+01  0.10204342317E+01 0.  0.
     999903    2    3    3    0    0 -0.10917037918E-01  0.98599681826E-01  0.86040897901E-01  0.13272528484E+00  0.19284349898E-01 0.  0.
         14    1    1    2    0    0 -0.12046866931E-01 -0.28808917944E-02 -0.19653739271E-01  0.23231358284E-01  0.00000000000E+00 0.  1.
     999901    1    3    3    0    0  0.22963904848E-01 -0.95718790032E-01 -0.66387158630E-01  0.88797335688E+00  0.88000000000E+00 0.  1.
        -11    1    4    4    0    0 -0.14504106519E-01  0.89997715454E-01  0.81770984634E-01  0.12246106705E+00  0.51100000000E-03 0. -1.
         11    1    4    4    0    0  0.35870686016E-02  0.86019663720E-02  0.42699132673E-02  0.10264217794E-01  0.51100000000E-03 0.  1.
</event>
<event>
 8    1  0.1108957E+005  0.1043930E+01  0.7957747E-01            NaN
         13   -1    0    0    0    0  0.00000000000E+00  0.00000000000E+00  0.74505805969E-08  0.10566000000E+00  0.10566000000E+00 0.  1.
     999900   -1    0    0    0    0 -0.00000000000E+00 -0.00000000000E+00 -0.74505805969E-08  0.93827000000E+00  0.93827000000E+00 0. -1.
     999902    2    1    2    0    0  0.14582204844E-01 -0.18743674510E-01  0.84964896499E-03  0.10201668366E+01  0.10198900365E+01 0.  0.
     999903    2    3    3    0    0 -0.11185430642E+00 -0.62537255658E-01 -0.76084748535E-02  0.13001201354E+00  0.20565518842E-01 0.  0.
         14    1    1    2    0    0 -0.14582204844E-01  0.18743674510E-01 -0.84964896499E-03  0.23763163418E-01  0.00000000000E+00 0. -1.
     999901    1    3    3    0    0  0.12643651126E+00  0.43793581147E-01  0.84581238185E-02  0.89015482304E+00  0.88000000000E+00 0.  1.
        -11    1    4    4    0    0 -0.60149274365E-01 -0.21986617878E-01 -0.52367892099E-02  0.64257541617E-01  0.51100000000E-03 0. -1.
         11    1    4    4    0    0 -0.51705032052E-01 -0.40550637780E-01 -0.23716856436E-02  0.65754471921E-01  0.51100000000E-03 0.  1.
</event>
<event>
 8    1  0.1108957E+005  0.1043930E+01  0.7957747E-01            NaN
         13   -1    0    0    0    0  0.00000000000E+00  0.00000000000E+00  0.74505805969E-08  0.10566000000E+00  0.10566000000E+00 0.  1.
     999900   -1    0    0    0    0 -0.00000000000E+00 -0.00000000000E+00 -0.74505805969E-08  0.93827000000E+00  0.93827000000E+00 0. -1.
     999902    2    1    2    0    0 -0.13616908641E-01  0.56645617847E-02  0.18953020710E-01  0.10199149119E+01  0.10196321411E+01 0.  0.
     999903    2    3    3    0    0  0.29506732349E-01 -0.65089583596E-01 -0.10378990596E+00  0.12754076195E+00  0.19672321456E-01 0.  0.
         14    1    1    2    0    0  0.13616908641E-01 -0.56645617847E-02 -0.18953020710E-01  0.24015088074E-01  0.00000000000E+00 0. -1.
     999901    1    3    3    0    0 -0.43123640990E-01  0.70754145381E-01  0.12274292667E+00  0.89237414998E+00  0.88000000000E+00 0.  1.
        -11    1    4    4    0    0  0.11330810353E-01 -0.31363376469E-01 -0.32289372041E-01  0.46421043877E-01  0.51100000000E-03 0. -1.
         11    1    4    4    0    0  0.18175921996E-01 -0.33726207127E-01 -0.71500533924E-01  0.81119718071E-01  0.51100000000E-03 0.  1.
</event>
<event>
 8    1  0.1108957E+005  0.1043930E+01  0.7957747E-01            NaN
         13   -1    0    0    0    0  0.00000000000E+00  0.00000000000E+00  0.74505805969E-08  0.10566000000E+00  0.10566000000E+00 0. -1.
     999900   -1    0    0    0    0 -0.00000000000E+00 -0.00000000000E+00 -0.74505805969E-08  0.93827000000E+00  0.93827000000E+00 0.  1.
     999902    2    1    2    0    0  0.19516164991E-02 -0.83865124350E-02 -0.21776984351E-01  0.10205124970E+01  0.10202437832E+01 0.  0.
     999903    2    3    3    0    0 -0.74388933305E-01  0.66337484918E-01 -0.83988838380E-01  0.13187203537E+00  0.20043289065E-01 0.  0.
         14    1    1    2    0    0 -0.19516164991E-02  0.83865124350E-02  0.21776984351E-01  0.23417502967E-01  0.00000000000E+00 0. -1.
     999901    1    3    3    0    0  0.76340549804E-01 -0.74723997353E-01  0.62211854029E-01  0.88864046166E+00  0.88000000000E+00 0. -1.
        -11    1    4    4    0    0 -0.43414873720E-01  0.48416412926E-01 -0.45846969200E-01  0.79568875866E-01  0.51100000000E-03 0.  1.
         11    1    4    4    0    0 -0.30974059585E-01  0.17921071993E-01 -0.38141869180E-01  0.52303159504E-01  0.51100000000E-03 0. -1.
</event>
<event>
 8    1  0.1108957E+005  0.1043930E+01  0.7957747E-01            NaN
         13   -1    0    0    0    0  0.00000000000E+00  0.00000000000E+00  0.74505805969E-08  0.10566000000E+00  0.10566000000E+00 0. -1.
     999900   -1    0    0    0    0 -0.00000000000E+00 -0.00000000000E+00 -0.74505805969E-08  0.93827000000E+00  0.93827000000E+00 0.  1.
     999902    2    1    2    0    0 -0.42802068345E-02  0.66862107484E-02 -0.21948367957E-01  0.10205899820E+01  0.10203230640E+01 0.  0.
     999903    2    3    3    0    0 -0.47432521964E-01  0.11774026369E+00  0.26506151996E-01  0.13124023893E+00  0.20219059989E-01 0.  0.
         14    1    1    2    0    0  0.42802068345E-02 -0.66862107484E-02  0.21948367957E-01  0.23340018010E-01  0.00000000000E+00 0. -1.
     999901    1    3    3    0    0  0.43152315130E-01 -0.11105405294E+00 -0.48454519953E-01  0.88934974306E+00  0.88000000000E+00 0.  1.
        -11    1    4    4    0    0 -0.18482140252E-01  0.41005017538E-01  0.19173708161E-01  0.48896760396E-01  0.51100000000E-03 0.  1.
         11    1    4    4    0    0 -0.28950381712E-01  0.76735246153E-01  0.73324438346E-02  0.82343478534E-01  0.51100000000E-03 0. -1.
</event>
<event>
 8    1  0.1108957E+005  0.1043930E+01  0.7957747E-01            NaN
         13   -1    0    0    0    0  0.00000000000E+00  0.00000000000E+00  0.74505805969E-08  0.10566000000E+00  0.10566000000E+00 0.  1.
     999900   -1    0    0    0    0 -0.00000000000E+00 -0.00000000000E+00 -0.74505805969E-08  0.93827000000E+00  0.93827000000E+00 0. -1.
     999902    2    1    2    0    0  0.21355621653E-01  0.21119070025E-02  0.49183044487E-02  0.10219138140E+01  0.10216766273E+01 0.  0.
     999903    2    3    3    0    0 -0.75376382397E-01 -0.22965855019E-02 -0.10396342394E+00  0.12993189367E+00  0.19673081789E-01 0.  0.
         14    1    1    2    0    0 -0.21355621653E-01 -0.21119070025E-02 -0.49183044487E-02  0.22016186001E-01  0.00000000000E+00 0. -1.
     999901    1    3    3    0    0  0.96732004050E-01  0.44084925044E-02  0.10888172839E+00  0.89198192033E+00  0.88000000000E+00 0.  1.
        -11    1    4    4    0    0 -0.62731673289E-01  0.56504976438E-02 -0.84550480460E-01  0.10543356119E+00  0.51100000000E-03 0.  1.
         11    1    4    4    0    0 -0.12644709108E-01 -0.79470831457E-02 -0.19412943483E-01  0.24498332486E-01  0.51100000000E-03 0. -1.
</event>
<event>
 8    1  0.1108957E+005  0.1043930E+01  0.7957747E-01            NaN
         13   -1    0    0    0    0  0.00000000000E+00  0.00000000000E+00  0.74505805969E-08  0.10566000000E+00  0.10566000000E+00 0. -1.
     999900   -1    0    0    0    0 -0.00000000000E+00 -0.00000000000E+00 -0.74505805969E-08  0.93827000000E+00  0.93827000000E+00 0. -1.
     999902    2    1    2    0    0 -0.19764772964E-01  0.90175935294E-02  0.91941199025E-02  0.10203398520E+01  0.10200671147E+01 0.  0.
     999903    2    3    3    0    0 -0.40505593767E-01  0.93874145964E-01  0.83946294967E-01  0.13286100500E+00  0.12329144501E-01 0.  0.
         14    1    1    2    0    0  0.19764772964E-01 -0.90175935294E-02 -0.91941199025E-02  0.23590148032E-01  0.00000000000E+00 0.  1.
     999901    1    3    3    0    0  0.20740820803E-01 -0.84856552434E-01 -0.74752175065E-01  0.88747884697E+00  0.88000000000E+00 0. -1.
        -11    1    4    4    0    0 -0.21561926017E-01  0.59320225778E-01  0.45543784038E-01  0.77835102784E-01  0.51100000000E-03 0.  1.
         11    1    4    4    0    0 -0.18943667750E-01  0.34553920185E-01  0.38402510929E-01  0.55025902216E-01  0.51100000000E-03 0. -1.
</event>
<event>
 8    1  0.1108957E+005  0.1043930E+01  0.7957747E-01            NaN
         13   -1    0    0    0    0  0.00000000000E+00  0.00000000000E+00  0.74505805969E-08  0.10566000000E+00  0.10566000000E+00 0. -1.
     999900   -1    0    0    0    0 -0.00000000000E+00 -0.00000000000E+00 -0.74505805969E-08  0.93827000000E+00  0.93827000000E+00 0. -1.
     999902    2    1    2    0    0  0.21361712175E-01 -0.86990461524E-03  0.11666713812E-02  0.10225187739E+01  0.10222945771E+01 0.  0.
     999903    2    3    3    0    0 -0.11147124584E+00  0.30135687151E-03 -0.63359245407E-01  0.13021301883E+00  0.22695965021E-01 0.  0.
         14    1    1    2    0    0 -0.21361712175E-01  0.86990461524E-03 -0.11666713812E-02  0.21411226102E-01  0.00000000000E+00 0.  1.
     999901    1    3    3    0    0  0.13283295802E+00 -0.11712614867E-02  0.64525916788E-01  0.89230575507E+00  0.88000000000E+00 0.  1.
        -11    1    4    4    0    0 -0.10544835392E+00  0.42149417115E-02 -0.54434486065E-01  0.11874550717E+00  0.51100000000E-03 0.  1.
         11    1    4    4    0    0 -0.60228919230E-02 -0.39135848400E-02 -0.89247593414E-02  0.11467511662E-01  0.51100000000E-03 0. -1.
</event>
<event>
 8    1  0.1108957E+005  0.1043930E+01  0.7957747E-01            NaN
         13   -1    0    0    0    0  0.00000000000E+00  0.00000000000E+00  0.74505805969E-08  0.10566000000E+00  0.10566000000E+00 0. -1.
     999900   -1    0    0    0    0 -0.00000000000E+00 -0.00000000000E+00 -0.74505805969E-08  0.93827000000E+00  0.93827000000E+00 0. -1.
     999902    2    1    2    0    0 -0.12519212011E-01 -0.64558346726E-02 -0.18052819258E-01  0.10210321234E+01  0.10207753348E+01 0.  0.
     999903    2    3    3    0    0  0.61126303340E-01 -0.23766868145E-01 -0.11349698351E+00  0.13264430136E+00  0.20289318299E-01 0.  0.
         14    1    1    2    0    0  0.12519212011E-01  0.64558346726E-02  0.18052819258E-01  0.22897876624E-01  0.00000000000E+00 0. -1.
     999901    1    3    3    0    0 -0.73645515352E-01  0.17311033472E-01  0.95444164251E-01  0.88838782201E+00  0.88000000000E+00 0.  1.
        -11    1    4    4    0    0  0.27409589984E-01 -0.82915573964E-02 -0.69003412102E-01  0.74711227737E-01  0.51100000000E-03 0. -1.
         11    1    4    4    0    0  0.33716713356E-01 -0.15475310748E-01 -0.44493571407E-01  0.57933073627E-01  0.51100000000E-03 0.  1.
</event>
<event>
 8    1  0.1108957E+005  0.1043930E+01  0.7957747E-01            NaN
         13   -1    0    0    0    0  0.00000000000E+00  0.00000000000E+00  0.74505805969E-08  0.10566000000E+00  0.10566000000E+00 0. -1.
     999900   -1    0    0    0    0 -0.00000000000E+00 -0.00000000000E+00 -0.74505805969E-08  0.93827000000E+00  0.93827000000E+00 0. -1.
     999902    2    1    2    0    0  0.51042652533E-02  0.77514665569E-02 -0.21154440050E-01  0.10208291539E+01  0.10205677402E+01 0.  0.
     999903    2    3    3    0    0  0.10218573994E+00 -0.49933980590E-01  0.59691363225E-01  0.12993720339E+00  0.19628808346E-01 0.  0.
         14    1    1    2    0    0 -0.51042652533E-02 -0.77514665569E-02  0.21154440050E-01  0.23100846119E-01  0.00000000000E+00 0. -1.
     999901    1    3    3    0    0 -0.97081474686E-01  0.57685447147E-01 -0.80845803276E-01  0.89089195049E+00  0.88000000000E+00 0. -1.
        -11    1    4    4    0    0  0.34720644379E-01 -0.26845406218E-01  0.18917323936E-01  0.47794615251E-01  0.51100000000E-03 0. -1.
         11    1    4    4    0    0  0.67465095560E-01 -0.23088574372E-01  0.40774039289E-01  0.82142588140E-01  0.51100000000E-03 0.  1.
</event>
<event>
 8    1  0.1108957E+005  0.1043930E+01  0.7957747E-01            NaN
         13   -1    0    0    0    0  0.00000000000E+00  0.00000000000E+00  0.74505805969E-08  0.10566000000E+00  0.10566000000E+00 0. -1.
     999900   -1    0    0    0    0 -0.00000000000E+00 -0.00000000000E+00 -0.74505805969E-08  0.93827000000E+00  0.93827000000E+00 0. -1.
     999902    2    1    2    0    0  0.20237606045E-01 -0.29497930124E-02  0.11173827677E-01  0.10206251421E+01  0.10203590369E+01 0.  0.
     999903    2    3    3    0    0 -0.10477678431E+00  0.37880862099E-01  0.62839064328E-01  0.12935355785E+00  0.19247355113E-01 0.  0.
         14    1    1    2    0    0 -0.20237606045E-01  0.29497930124E-02 -0.11173827677E-01  0.23304857910E-01  0.00000000000E+00 0.  1.
     999901    1    3    3    0    0  0.12501439036E+00 -0.40830655111E-01 -0.51665236651E-01  0.89127158424E+00  0.88000000000E+00 0. -1.
        -11    1    4    4    0    0 -0.85362529999E-01  0.25349969759E-01  0.42967953552E-01  0.98873093651E-01  0.51100000000E-03 0.  1.
         11    1    4    4    0    0 -0.19414254314E-01  0.12530892340E-01  0.19871110776E-01  0.30480464201E-01  0.51100000000E-03 0. -1.
</event>
<event>
 8    1  0.1108957E+005  0.1043930E+01  0.7957747E-01            NaN
         13   -1    0    0    0    0  0.00000000000E+00  0.00000000000E+00  0.74505805969E-08  0.10566000000E+00  0.10566000000E+00 0. -1.
     999900   -1    0    0    0    0 -0.00000000000E+00 -0.00000000000E+00 -0.74505805969E-08  0.93827000000E+00  0.93827000000E+00 0. -1.
     999902    2    1    2    0    0 -0.12415332402E-01  0.17120850291E-01  0.12412719312E-01  0.10194077735E+01  0.10191127852E+01 0.  0.
     999903    2    3    3    0    0  0.43747018968E-01  0.12152809839E+00  0.14486991789E-01  0.13145541789E+00  0.19691967765E-01 0.  0.
         14    1    1    2    0    0  0.12415332402E-01 -0.17120850291E-01 -0.12412719312E-01  0.24522226531E-01  0.00000000000E+00 0. -1.
     999901    1    3    3    0    0 -0.56162351370E-01 -0.10440724810E+00 -0.20742724770E-02  0.88795235558E+00  0.88000000000E+00 0.  1.
        -11    1    4    4    0    0  0.22629694418E-01  0.89275046167E-01  0.10131999416E-01  0.92655574418E-01  0.51100000000E-03 0. -1.
         11    1    4    4    0    0  0.21117324550E-01  0.32253052227E-01  0.43549923728E-02  0.38799843475E-01  0.51100000000E-03 0.  1.
</event>
<event>
 8    1  0.1108957E+005  0.1043930E+01  0.7957747E-01            NaN
         13   -1    0    0    0    0  0.00000000000E+00  0.00000000000E+00  0.74505805969E-08  0.10566000000E+00  0.10566000000E+00 0.  1.
     999900   -1    0    0    0    0 -0.00000000000E+00 -0.00000000000E+00 -0.74505805969E-08  0.93827000000E+00  0.93827000000E+00 0. -1.
     999902    2    1    2    0    0  0.77850872587E-02 -0.19126536631E-01 -0.10350109286E-01  0.10208311526E+01  0.10205697847E+01 0.  0.
     999903    2    3    3    0    0  0.76224891709E-01 -0.10810165998E+00 -0.13209720131E-02  0.13365467373E+00  0.19121292767E-01 0.  0.
         14    1    1    2    0    0 -0.77850872587E-02  0.19126536631E-01  0.10350109286E-01  0.23098847360E-01  0.00000000000E+00 0.  1.
     999901    1    3    3    0    0 -0.68439804450E-01  0.88975123349E-01 -0.90291372734E-02  0.88717647891E+00  0.88000000000E+00 0. -1.
        -11    1    4    4    0    0  0.68100995083E-01 -0.88460196370E-01  0.40967301523E-02  0.11171390331E+00  0.51100000000E-03 0. -1.
         11    1    4    4    0    0  0.81238966256E-02 -0.19641463609E-01 -0.54177021653E-02  0.21940770425E-01  0.51100000000E-03 0.  1.
</event>
<event>
 8    1  0.1108957E+005  0.1043930E+01  0.7957747E-01            NaN
         13   -1    0    0    0    0  0.00000000000E+00  0.00000000000E+00  0.74505805969E-08  0.10566000000E+00  0.10566000000E+00 0. -1.
     999900   -1    0    0    0    0 -0.00000000000E+00 -0.00000000000E+00 -0.74505805969E-08  0.93827000000E+00  0.93827000000E+00 0.  1.
     999902    2    1    2    0    0  0.23126804360E-01 -0.20890576212E-02  0.63053970560E-02  0.10198681781E+01  0.10195842924E+01 0.  0.
     999903    2    3    3    0    0  0.91030362025E-01  0.24899043288E-01  0.91195205290E-01  0.13276867393E+00  0.20111343631E-01 0.  0.
         14    1    1    2    0    0 -0.23126804360E-01  0.20890576212E-02 -0.63053970560E-02  0.24061821911E-01  0.00000000000E+00 0.  1.
     999901    1    3    3    0    0 -0.67903557665E-01 -0.26988100909E-01 -0.84889808234E-01  0.88709950416E+00  0.88000000000E+00 0.  1.
        -11    1    4    4    0    0  0.82304064492E-01  0.17615600169E-01  0.85744083497E-01  0.12015230908E+00  0.51100000000E-03 0. -1.
         11    1    4    4    0    0  0.87262975333E-02  0.72834431185E-02  0.54511217926E-02  0.12616364853E-01  0.51100000000E-03 0.  1.
</event>
<event>
 7    1  0.1108957E+005  0.1043930E+01  0.7957747E-01            NaN
         13   -1    0    0    0    0  0.00000000000E+00  0.00000000000E+00  0.74505805969E-08  0.10566000000E+00  0.10566000000E+00 0. -1.
     999900   -1    0    0    0    0 -0.00000000000E+00 -0.00000000000E+00 -0.74505805969E-08  0.93827000000E+00  0.93827000000E+00 0. -1.
     999902    2    1    2    0    0  0.12238201942E-01 -0.19971478752E-01  0.53718598287E-02  0.10198989695E+01  0.10196158186E+01 0.  0.
         14    1    1    2    0    0 -0.12238201942E-01  0.19971478752E-01 -0.53718598287E-02  0.24031030530E-01  0.00000000000E+00 0.  1.
     999901    1    3    3    0    0 -0.71510186253E-01  0.51434057208E-01 -0.50483764572E-01  0.88583733239E+00  0.88000000000E+00 0.  1.
        -11    1    3    3    0    0  0.90063895911E-01 -0.65455028237E-01  0.57352379030E-01  0.12524145707E+00  0.51100000000E-03 0.  1.
         11    1    3    3    0    0 -0.63155077157E-02 -0.59505077235E-02 -0.14967546292E-02  0.88201800035E-02  0.51100000000E-03 0. -1.
</event>
<event>
 8    1  0.1108957E+005  0.1043930E+01  0.7957747E-01            NaN
         13   -1    0    0    0    0  0.00000000000E+00  0.00000000000E+00  0.74505805969E-08  0.10566000000E+00  0.10566000000E+00 0.  1.
     999900   -1    0    0    0    0 -0.00000000000E+00 -0.00000000000E+00 -0.74505805969E-08  0.93827000000E+00  0.93827000000E+00 0. -1.
     999902    2    1    2    0    0  0.22077598937E-01  0.18193325763E-01 -0.53160583314E-02  0.10148322689E+01  0.10144150315E+01 0.  0.
     999903    2    3    3    0    0 -0.98050031921E-02  0.20966494966E-01  0.12041673143E+00  0.12531952298E+00  0.25866225724E-01 0.  0.
         14    1    1    2    0    0 -0.22077598937E-01 -0.18193325763E-01  0.53160583314E-02  0.29097731068E-01  0.00000000000E+00 0. -1.
     999901    1    3    3    0    0  0.31882602129E-01 -0.27731692028E-02 -0.12573278976E+00  0.88951274595E+00  0.88000000000E+00 0. -1.
        -11    1    4    4    0    0  0.71533326542E-02  0.40111482773E-02  0.55660134501E-01  0.56263408822E-01  0.51100000000E-03 0.  1.
         11    1    4    4    0    0 -0.16958335846E-01  0.16955346688E-01  0.64756596929E-01  0.69056114160E-01  0.51100000000E-03 0. -1.
</event>
<event>
 8    1  0.1108957E+005  0.1043930E+01  0.7957747E-01            NaN
         13   -1    0    0    0    0  0.00000000000E+00  0.00000000000E+00  0.74505805969E-08  0.10566000000E+00  0.10566000000E+00 0.  1.
     999900   -1    0    0    0    0 -0.00000000000E+00 -0.00000000000E+00 -0.74505805969E-08  0.93827000000E+00  0.93827000000E+00 0. -1.
     999902    2    1    2    0    0 -0.13544380230E-02 -0.15156241722E-01  0.19545977167E-01  0.10191592231E+01  0.10188581504E+01 0.  0.
     999903    2    3    3    0    0  0.33936509681E-01 -0.53762984383E-02  0.12601025955E+00  0.13198633029E+00  0.19005646467E-01 0.  0.
         14    1    1    2    0    0  0.13544380230E-02  0.15156241722E-01 -0.19545977167E-01  0.24770776914E-01  0.00000000000E+00 0. -1.
     999901    1    3    3    0    0 -0.35290947704E-01 -0.97799432839E-02 -0.10646428239E+00  0.88717289279E+00  0.88000000000E+00 0. -1.
        -11    1    4    4    0    0  0.25134936532E-01  0.23400288197E-02  0.10434127944E+00  0.10735271066E+00  0.51100000000E-03 0. -1.
         11    1    4    4    0    0  0.88015731492E-02 -0.77163272580E-02  0.21668980112E-01  0.24633619636E-01  0.51100000000E-03 0.  1.
</event>
<event>
 8    1  0.1108957E+005  0.1043930E+01  0.7957747E-01            NaN
         13   -1    0    0    0    0  0.00000000000E+00  0.00000000000E+00  0.74505805969E-08  0.10566000000E+00  0.10566000000E+00 0. -1.
     999900   -1    0    0    0    0 -0.00000000000E+00 -0.00000000000E+00 -0.74505805969E-08  0.93827000000E+00  0.93827000000E+00 0. -1.
     999902    2    1    2    0    0  0.97947764283E-02 -0.20859980459E-01  0.54169408149E-02  0.10202568152E+01  0.10199821319E+01 0.  0.
     999903    2    3    3    0    0  0.39683400547E-01 -0.12506512993E+00 -0.12053128719E-02  0.13357993085E+00  0.25021713433E-01 0.  0.
         14    1    1    2    0    0 -0.97947764283E-02  0.20859980459E-01 -0.54169408149E-02  0.23673184784E-01  0.00000000000E+00 0.  1.
     999901    1    3    3    0    0 -0.29888624118E-01  0.10420514947E+00  0.66222536867E-02  0.88667688437E+00  0.88000000000E+00 0.  1.
        -11    1    4    4    0    0  0.36563211324E-01 -0.10947148250E+00 -0.91811729174E-02  0.11578181619E+00  0.51100000000E-03 0.  1.
         11    1    4    4    0    0  0.31201892225E-02 -0.15593647431E-01  0.79758600455E-02  0.17798114660E-01  0.51100000000E-03 0. -1.
</event>
<event>
 8    1  0.1108957E+005  0.1043930E+01  0.7957747E-01            NaN
         13   -1    0    0    0    0  0.00000000000E+00  0.00000000000E+00  0.74505805969E-08  0.10566000000E+00  0.10566000000E+00 0. -1.
     999900   -1    0    0    0    0 -0.00000000000E+00 -0.00000000000E+00 -0.74505805969E-08  0.93827000000E+00  0.93827000000E+00 0.  1.
     999902    2    1    2    0    0 -0.38686243699E-02  0.15320829583E-01  0.17010867682E-01  0.10207122548E+01  0.10204481581E+01 0.  0.
     999903    2    3    3    0    0 -0.12493424922E+00  0.28579844783E-01  0.26124696706E-01  0.13227781776E+00  0.19736948585E-01 0.  0.
         14    1    1    2    0    0  0.38686243699E-02 -0.15320829583E-01 -0.17010867682E-01  0.23217745216E-01  0.00000000000E+00 0. -1.
     999901    1    3    3    0    0  0.12106562485E+00 -0.13259015200E-01 -0.91138290236E-02  0.88843443702E+00  0.88000000000E+00 0.  1.
        -11    1    4    4    0    0 -0.49620412761E-01  0.13057382703E-01  0.80624512183E-03  0.51318532304E-01  0.51100000000E-03 0. -1.
         11    1    4    4    0    0 -0.75313836455E-01  0.15522462080E-01  0.25318451584E-01  0.80959285460E-01  0.51100000000E-03 0.  1.
</event>
<event>
 8    1  0.1108957E+005  0.1043930E+01  0.7957747E-01            NaN
         13   -1    0    0    0    0  0.00000000000E+00  0.00000000000E+00  0.74505805969E-08  0.10566000000E+00  0.10566000000E+00 0.  1.
     999900   -1    0    0    0    0 -0.00000000000E+00 -0.00000000000E+00 -0.74505805969E-08  0.93827000000E+00  0.93827000000E+00 0.  1.
     999902    2    1    2    0    0  0.63897628455E-02  0.22094213821E-01 -0.58340843873E-02  0.10202019597E+01  0.10199259869E+01 0.  0.
     999903    2    3    3    0    0  0.81579729340E-01 -0.93375641702E-01  0.28153262532E-01  0.12883112875E+00  0.20750682943E-01 0.  0.
         14    1    1    2    0    0 -0.63897628455E-02 -0.22094213821E-01  0.58340843873E-02  0.23728040252E-01  0.00000000000E+00 0.  1.
     999901    1    3    3    0    0 -0.75189966494E-01  0.11546985552E+00 -0.33987346919E-01  0.89137083099E+00  0.88000000000E+00 0.  1.
        -11    1    4    4    0    0  0.58994083608E-01 -0.52336580402E-01  0.17048454244E-01  0.80686618854E-01  0.51100000000E-03 0.  1.
         11    1    4    4    0    0  0.22585645731E-01 -0.41039061299E-01  0.11104808288E-01  0.48144509900E-01  0.51100000000E-03 0. -1.
</event>
<event>
 8    1  0.1108957E+005  0.1043930E+01  0.7957747E-01            NaN
         13   -1    0    0    0    0  0.00000000000E+00  0.00000000000E+00  0.74505805969E-08  0.10566000000E+00  0.10566000000E+00 0. -1.
     999900   -1    0    0    0    0 -0.00000000000E+00 -0.00000000000E+00 -0.74505805969E-08  0.93827000000E+00  0.93827000000E+00 0.  1.
     999902    2    1    2    0    0 -0.71643948523E-02 -0.42385225170E-02  0.22199743484E-01  0.10202208828E+01  0.10199453552E+01 0.  0.
     999903    2    3    3    0    0 -0.22575457913E-01 -0.96219603767E-01  0.86625926087E-01  0.13295048819E+00  0.20097706131E-01 0.  0.
         14    1    1    2    0    0  0.71643948523E-02  0.42385225170E-02 -0.22199743484E-01  0.23709117181E-01  0.00000000000E+00 0.  1.
     999901    1    3    3    0    0  0.15411063060E-01  0.91981081250E-01 -0.64426182603E-01  0.88727039462E+00  0.88000000000E+00 0. -1.
        -11    1    4    4    0    0 -0.21717815396E-01 -0.50004020527E-01  0.43779389934E-01  0.69921110392E-01  0.51100000000E-03 0. -1.
         11    1    4    4    0    0 -0.85764251687E-03 -0.46215583240E-01  0.42846536153E-01  0.63029377802E-01  0.51100000000E-03 0.  1.
</event>
<event>
 8    1  0.1108957E+005  0.1043930E+01  0.7957747E-01            NaN
         13   -1    0    0    0    0  0.00000000000E+00  0.00000000000E+00  0.74505805969E-08  0.10566000000E+00  0.10566000000E+00 0.  1.
     999900   -1    0    0    0    0 -0.00000000000E+00 -0.00000000000E+00 -0.74505805969E-08  0.93827000000E+00  0.93827000000E+00 0. -1.
     999902    2    1    2    0    0  0.49883295937E-02 -0.23391890804E-01 -0.52163435249E-02  0.10194499218E+01  0.10191559591E+01 0.  0.
     999903    2    3    3    0    0 -0.34776691943E-01  0.10287556170E+00  0.62432525038E-01  0.12698082101E+00  0.20820884304E-01 0.  0.
         14    1    1    2    0    0 -0.49883295937E-02  0.23391890804E-01  0.52163435249E-02  0.24480078171E-01  0.00000000000E+00 0.  1.
     999901    1    3    3    0    0  0.39765021536E-01 -0.12626745251E+00 -0.67648868562E-01  0.89246910082E+00  0.88000000000E+00 0.  1.
        -11    1    4    4    0    0 -0.26966028985E-01  0.97128267218E-01  0.55749304801E-01  0.11519250461E+00  0.51100000000E-03 0. -1.
         11    1    4    4    0    0 -0.78106629574E-02  0.57472944856E-02  0.66832202369E-02  0.11788316397E-01  0.51100000000E-03 0.  1.
</event>
<event>
 8    1  0.1108957E+005  0.1043930E+01  0.7957747E-01            NaN
         13   -1    0    0    0    0  0.00000000000E+00  0.00000000000E+00  0.74505805969E-08  0.10566000000E+00  0.10566000000E+00 0.  1.
     999900   -1    0    0    0    0 -0.00000000000E+00 -0.00000000000E+00 -0.74505805969E-08  0.93827000000E+00  0.93827000000E+00 0.  1.
     999902    2    1    2    0    0 -0.27687331635E-02  0.80445115541E-02 -0.22007655144E-01  0.10203351503E+01  0.10200623030E+01 0.  0.
     999903    2    3    3    0    0 -0.73076441548E-01 -0.35120359697E-01 -0.10321518503E+00  0.13275358055E+00  0.19913130176E-01 0.  0.
         14    1    1    2    0    0  0.27687331635E-02 -0.80445115541E-02  0.22007655144E-01  0.23594849744E-01  0.00000000000E+00 0.  1.
     999901    1    3    3    0    0  0.70307708385E-01  0.43164871251E-01  0.81207529889E-01  0.88758156970E+00  0.88000000000E+00 0. -1.
        -11    1    4    4    0    0 -0.20873303686E-01 -0.36992857277E-02 -0.37905974299E-01  0.43433898400E-01  0.51100000000E-03 0. -1.
         11    1    4    4    0    0 -0.52203137862E-01 -0.31421073969E-01 -0.65309210734E-01  0.89319682152E-01  0.51100000000E-03 0.  1.
</event>
<event>
 8    1  0.1108957E+005  0.1043930E+01  0.7957747E-01            NaN
         13   -1    0    0    0    0  0.00000000000E+00  0.00000000000E+00  0.74505805969E-08  0.10566000000E+00  0.10566000000E+00 0. -1.
     999900   -1    0    0    0    0 -0.00000000000E+00 -0.00000000000E+00 -0.74505805969E-08  0.93827000000E+00  0.93827000000E+00 0. -1.
     999902    2    1    2    0    0  0.31739769863E-02  0.20205136605E-01 -0.12285501225E-01  0.10200709301E+01  0.10197918647E+01 0.  0.
     999903    2    3    3    0    0 -0.59571480285E-01  0.11166710389E+00  0.31641643761E-01  0.13202145068E+00  0.20252566863E-01 0.  0.
         14    1    1    2    0    0 -0.31739769863E-02 -0.20205136605E-01  0.12285501225E-01  0.23859069879E-01  0.00000000000E+00 0. -1.
     999901    1    3    3    0    0  0.62745457272E-01 -0.91461967288E-01 -0.43927144987E-01  0.88804947944E+00  0.88000000000E+00 0. -1.
        -11    1    4    4    0    0 -0.28995834463E-01  0.34154445810E-01  0.94709598816E-02  0.45795685243E-01  0.51100000000E-03 0. -1.
         11    1    4    4    0    0 -0.30575645823E-01  0.77512658083E-01  0.22170683880E-01  0.86225765438E-01  0.51100000000E-03 0.  1.
</event>
<event>
 8    1  0.1108957E+005  0.1043930E+01  0.7957747E-01            NaN
         13   -1    0    0    0    0  0.00000000000E+00  0.00000000000E+00  0.74505805969E-08  0.10566000000E+00  0.10566000000E+00 0.  1.
     999900   -1    0    0    0    0 -0.00000000000E+00 -0.00000000000E+00 -0.74505805969E-08  0.93827000000E+00  0.93827000000E+00 0.  1.
     999902    2    1    2    0    0 -0.42280402057E-02  0.16573690904E-01  0.15126857863E-01  0.10210961352E+01  0.10208407965E+01 0.  0.
     999903    2    3    3    0    0  0.12881478196E+00  0.13295252121E-01  0.44989416222E-02  0.13102642257E+00  0.19433763293E-01 0.  0.
         14    1    1    2    0    0  0.42280402057E-02 -0.16573690904E-01 -0.15126857863E-01  0.22833864828E-01  0.00000000000E+00 0. -1.
     999901    1    3    3    0    0 -0.13304282216E+00  0.32784387835E-02  0.10627916241E-01  0.89006971260E+00  0.88000000000E+00 0. -1.
        -11    1    4    4    0    0  0.39316252293E-01 -0.34155652321E-02  0.62696084111E-02  0.39962518575E-01  0.51100000000E-03 0. -1.
         11    1    4    4    0    0  0.89498529664E-01  0.16710817353E-01 -0.17706667889E-02  0.91063903993E-01  0.51100000000E-03 0.  1.
</event>
<event>
 8    1  0.1108957E+005  0.1043930E+01  0.7957747E-01            NaN
         13   -1    0    0    0    0  0.00000000000E+00  0.00000000000E+00  0.74505805969E-08  0.10566000000E+00  0.10566000000E+00 0.  1.
     999900   -1    0    0    0    0 -0.00000000000E+00 -0.00000000000E+00 -0.74505805969E-08  0.93827000000E+00  0.93827000000E+00 0.  1.
     999902    2    1    2    0    0  0.20763165502E-01 -0.64936164672E-02 -0.95008983755E-02  0.10201909359E+01  0.10199147035E+01 0.  0.
     999903    2    3    3    0    0 -0.42634309192E-01  0.11298335487E+00  0.39103168727E-01  0.12853161649E+00  0.20208805848E-01 0.  0.
         14    1    1    2    0    0 -0.20763165502E-01  0.64936164672E-02  0.95008983755E-02  0.23739064144E-01  0.00000000000E+00 0. -1.
     999901    1    3    3    0    0  0.63397474694E-01 -0.11947697134E+00 -0.48604067102E-01  0.89165931937E+00  0.88000000000E+00 0.  1.
        -11    1    4    4    0    0 -0.27780196296E-01  0.73358701562E-01  0.15120775415E-01  0.79888280562E-01  0.51100000000E-03 0.  1.
         11    1    4    4    0    0 -0.14854112896E-01  0.39624653312E-01  0.23982393312E-01  0.48643335925E-01  0.51100000000E-03 0. -1.
</event>
<event>
 8    1  0.1108957E+005  0.1043930E+01  0.7957747E-01            NaN
         13   -1    0    0    0    0  0.00000000000E+00  0.00000000000E+00  0.74505805969E-08  0.10566000000E+00  0.10566000000E+00 0.  1.
     999900   -1    0    0    0    0 -0.00000000000E+00 -0.00000000000E+00 -0.74505805969E-08  0.93827000000E+00  0.93827000000E+00 0. -1.
     999902    2    1    2    0    0  0.12376069108E-01  0.20390742321E-01 -0.27169092514E-02  0.10199231040E+01  0.10196405283E+01 0.  0.
     999903    2    3    3    0    0 -0.54806705682E-01  0.70393527246E-01 -0.94012723651E-01  0.13124502425E+00  0.20684306032E-01 0.  0.
         14    1    1    2    0    0 -0.12376069108E-01 -0.20390742321E-01  0.27169092514E-02  0.24006895985E-01  0.00000000000E+00 0.  1.
     999901    1    3    3    0    0  0.67182774791E-01 -0.50002784925E-01  0.91295814400E-01  0.88867807977E+00  0.88000000000E+00 0.  1.
        -11    1    4    4    0    0 -0.44916142886E-01  0.46097814207E-01 -0.57666147268E-01  0.86418250550E-01  0.51100000000E-03 0. -1.
         11    1    4    4    0    0 -0.98905627963E-02  0.24295713039E-01 -0.36346576384E-01  0.44826773699E-01  0.51100000000E-03 0.  1.
</event>
<event>
 8    1  0.1242615E+005  0.1043930E+01  0.7957747E-01            NaN
         13   -1    0    0    0    0  0.00000000000E+00  0.00000000000E+00  0.74505805969E-08  0.10566000000E+00  0.10566000000E+00 0. -1.
     999900   -1    0    0    0    0 -0.00000000000E+00 -0.00000000000E+00 -0.74505805969E-08  0.93827000000E+00  0.93827000000E+00 0. -1.
     999902    2    1    2    0    0 -0.82874059002E-02  0.32213258305E-02  0.24800004339E-01  0.10175842555E+01  0.10172431464E+01 0.  0.
     999903    2    3    3    0    0 -0.85124976280E-01  0.74000624857E-01 -0.56173836619E-01  0.12771320627E+00  0.20804063746E-01 0.  0.
         14    1    1    2    0    0  0.82874059002E-02 -0.32213258305E-02 -0.24800004339E-01  0.26345744474E-01  0.00000000000E+00 0.  1.
     999901    1    3    3    0    0  0.76837570380E-01 -0.70779299026E-01  0.80973840958E-01  0.88987104926E+00  0.88000000000E+00 0.  1.
        -11    1    4    4    0    0 -0.48139774313E-01  0.30825817827E-01 -0.21233052013E-01  0.60981739352E-01  0.51100000000E-03 0.  1.
         11    1    4    4    0    0 -0.36985201967E-01  0.43174807030E-01 -0.34940784606E-01  0.66731466914E-01  0.51100000000E-03 0. -1.
</event>
<event>
 8    1  0.1108957E+005  0.1043930E+01  0.7957747E-01            NaN
         13   -1    0    0    0    0  0.00000000000E+00  0.00000000000E+00  0.74505805969E-08  0.10566000000E+00  0.10566000000E+00 0.  1.
     999900   -1    0    0    0    0 -0.00000000000E+00 -0.00000000000E+00 -0.74505805969E-08  0.93827000000E+00  0.93827000000E+00 0.  1.
     999902    2    1    2    0    0 -0.18704676655E-01 -0.77512018913E-02  0.12015642239E-01  0.10203859622E+01  0.10201143024E+01 0.  0.
     999903    2    3    3    0    0  0.67091698407E-01 -0.15792253863E-01 -0.10608331671E+00  0.12832484284E+00  0.21515202248E-01 0.  0.
         14    1    1    2    0    0  0.18704676655E-01  0.77512018913E-02 -0.12015642239E-01  0.23544037843E-01  0.00000000000E+00 0. -1.
     999901    1    3    3    0    0 -0.85796375062E-01  0.80410519714E-02  0.11809895895E+00  0.89206111932E+00  0.88000000000E+00 0. -1.
        -11    1    4    4    0    0  0.39188181596E-01 -0.87982848652E-02 -0.42191444614E-01  0.58253776813E-01  0.51100000000E-03 0.  1.
         11    1    4    4    0    0  0.27903516811E-01 -0.69939689975E-02 -0.63891872100E-01  0.70071066027E-01  0.51100000000E-03 0. -1.
</event>
<event>
 8    1  0.1108957E+005  0.1043930E+01  0.7957747E-01            NaN
         13   -1    0    0    0    0  0.00000000000E+00  0.00000000000E+00  0.74505805969E-08  0.10566000000E+00  0.10566000000E+00 0. -1.
     999900   -1    0    0    0    0 -0.00000000000E+00 -0.00000000000E+00 -0.74505805969E-08  0.93827000000E+00  0.93827000000E+00 0.  1.
     999902    2    1    2    0    0  0.80800686975E-02  0.12350648537E-01  0.18703796768E-01  0.10201044246E+01  0.10198261514E+01 0.  0.
     999903    2    3    3    0    0 -0.18311527685E-01 -0.12039038413E+00  0.39697704234E-01  0.12951055405E+00  0.19181221337E-01 0.  0.
         14    1    1    2    0    0 -0.80800686975E-02 -0.12350648537E-01 -0.18703796768E-01  0.23825575397E-01  0.00000000000E+00 0. -1.
     999901    1    3    3    0    0  0.26391596382E-01  0.13274103267E+00 -0.20993907466E-01  0.89059387055E+00  0.88000000000E+00 0. -1.
        -11    1    4    4    0    0 -0.13141696198E-01 -0.62821893073E-01  0.30197320232E-01  0.70932599687E-01  0.51100000000E-03 0.  1.
         11    1    4    4    0    0 -0.51698314870E-02 -0.57568491059E-01  0.95003840015E-02  0.58577954365E-01  0.51100000000E-03 0. -1.
</event>
<event>
 8    1  0.1108957E+005  0.1043930E+01  0.7957747E-01            NaN
         13   -1    0    0    0    0  0.00000000000E+00  0.00000000000E+00  0.74505805969E-08  0.10566000000E+00  0.10566000000E+00 0. -1.
     999900   -1    0    0    0    0 -0.00000000000E+00 -0.00000000000E+00 -0.74505805969E-08  0.93827000000E+00  0.93827000000E+00 0. -1.
     999902    2    1    2    0    0  0.58430667501E-02  0.12497937783E-01  0.19306209483E-01  0.10202009123E+01  0.10199249148E+01 0.  0.
     999903    2    3    3    0    0 -0.78956100307E-01 -0.24050804487E-01  0.10044922080E+00  0.13165665479E+00  0.20758656470E-01 0.  0.
         14    1    1    2    0    0 -0.58430667501E-02 -0.12497937783E-01 -0.19306209483E-01  0.23729087687E-01  0.00000000000E+00 0.  1.
     999901    1    3    3    0    0  0.84799167057E-01  0.36548742269E-01 -0.81143011317E-01  0.88854425752E+00  0.88000000000E+00 0. -1.
        -11    1    4    4    0    0 -0.41929682130E-01 -0.15356113894E-01  0.69543646921E-01  0.82646768996E-01  0.51100000000E-03 0. -1.
         11    1    4    4    0    0 -0.37026418177E-01 -0.86946905930E-02  0.30905573879E-01  0.49009885792E-01  0.51100000000E-03 0.  1.
</event>
<event>
 8    1  0.1108957E+005  0.1043930E+01  0.7957747E-01            NaN
         13   -1    0    0    0    0  0.00000000000E+00  0.00000000000E+00  0.74505805969E-08  0.10566000000E+00  0.10566000000E+00 0.  1.
     999900   -1    0    0    0    0 -0.00000000000E+00 -0.00000000000E+00 -0.74505805969E-08  0.93827000000E+00  0.93827000000E+00 0. -1.
     999902    2    1    2    0    0  0.82249511295E-03  0.17773868023E-01  0.15616103504E-01  0.10202561838E+01  0.10199814857E+01 0.  0.
     999903    2    3    3    0    0 -0.67381730035E-01  0.18244209556E-01  0.11086533234E+00  0.13249244661E+00  0.19747854819E-01 0.  0.
         14    1    1    2    0    0 -0.82249511295E-03 -0.17773868023E-01 -0.15616103504E-01  0.23673816155E-01  0.00000000000E+00 0.  1.
     999901    1    3    3    0    0  0.68204225147E-01 -0.47034153305E-03 -0.95249228836E-01  0.88776373723E+00  0.88000000000E+00 0. -1.
        -11    1    4    4    0    0 -0.45710859088E-01  0.15951441296E-01  0.59616267669E-01  0.76800336000E-01  0.51100000000E-03 0.  1.
         11    1    4    4    0    0 -0.21670870947E-01  0.22927682598E-02  0.51249064671E-01  0.55692110613E-01  0.51100000000E-03 0. -1.
</event>
<event>
 8    1  0.1108957E+005  0.1043930E+01  0.7957747E-01            NaN
         13   -1    0    0    0    0  0.00000000000E+00  0.00000000000E+00  0.74505805969E-08  0.10566000000E+00  0.10566000000E+00 0. -1.
     999900   -1    0    0    0    0 -0.00000000000E+00 -0.00000000000E+00 -0.74505805969E-08  0.93827000000E+00  0.93827000000E+00 0.  1.
     999902    2    1    2    0    0  0.20160918701E-01  0.18552520910E-01  0.11475186483E-02  0.10165078288E+01  0.10161378797E+01 0.  0.
     999903    2    3    3    0    0  0.48978610982E-01 -0.10803763348E-02 -0.11651884225E+00  0.12799149099E+00  0.20127335119E-01 0.  0.
         14    1    1    2    0    0 -0.20160918701E-01 -0.18552520910E-01 -0.11475186483E-02  0.27422171213E-01  0.00000000000E+00 0.  1.
     999901    1    3    3    0    0 -0.28817692280E-01  0.19632897245E-01  0.11766636090E+00  0.88851633780E+00  0.88000000000E+00 0. -1.
        -11    1    4    4    0    0  0.35888124828E-01 -0.67865098134E-02 -0.98099088703E-01  0.10467906450E+00  0.51100000000E-03 0.  1.
         11    1    4    4    0    0  0.13090486154E-01  0.57061334786E-02 -0.18419753551E-01  0.23312426491E-01  0.51100000000E-03 0. -1.
</event>
<event>
 8    1  0.1108957E+005  0.1043930E+01  0.7957747E-01            NaN
         13   -1    0    0    0    0  0.00000000000E+00  0.00000000000E+00  0.74505805969E-08  0.10566000000E+00  0.10566000000E+00 0. -1.
     999900   -1    0    0    0    0 -0.00000000000E+00 -0.00000000000E+00 -0.74505805969E-08  0.93827000000E+00  0.93827000000E+00 0. -1.
     999902    2    1    2    0    0 -0.10012205012E-01 -0.19660611498E-03  0.20898992202E-01  0.10207556440E+01  0.10204925447E+01 0.  0.
     999903    2    3    3    0    0  0.53201787872E-01  0.97548286822E-02 -0.11440345689E+00  0.12811809563E+00  0.20012710051E-01 0.  0.
         14    1    1    2    0    0  0.10012205012E-01  0.19660611498E-03 -0.20898992202E-01  0.23174356048E-01  0.00000000000E+00 0.  1.
     999901    1    3    3    0    0 -0.63213992885E-01 -0.99514347971E-02  0.13530244909E+00  0.89263754833E+00  0.88000000000E+00 0.  1.
        -11    1    4    4    0    0  0.29498653309E-01  0.15193295836E-01 -0.70714715577E-01  0.78114268258E-01  0.51100000000E-03 0.  1.
         11    1    4    4    0    0  0.23703134563E-01 -0.54384671543E-02 -0.43688741311E-01  0.50003827368E-01  0.51100000000E-03 0. -1.
</event>
<event>
 8    1  0.1108957E+005  0.1043930E+01  0.7957747E-01            NaN
         13   -1    0    0    0    0  0.00000000000E+00  0.00000000000E+00  0.74505805969E-08  0.10566000000E+00  0.10566000000E+00 0.  1.
     999900   -1    0    0    0    0 -0.00000000000E+00 -0.00000000000E+00 -0.74505805969E-08  0.93827000000E+00  0.93827000000E+00 0.  1.
     999902    2    1    2    0    0 -0.64248788428E-02  0.17812713600E-01  0.12000806834E-01  0.10215114541E+01  0.10212654208E+01 0.  0.
     999903    2    3    3    0    0 -0.62903522257E-01 -0.66231764393E-01  0.93025401192E-01  0.13200693120E+00  0.20702774931E-01 0.  0.
         14    1    1    2    0    0  0.64248788428E-02 -0.17812713600E-01 -0.12000806834E-01  0.22418545862E-01  0.00000000000E+00 0.  1.
     999901    1    3    3    0    0  0.56478643415E-01  0.84044477992E-01 -0.81024594359E-01  0.88950452294E+00  0.88000000000E+00 0.  1.
        -11    1    4    4    0    0 -0.13561456488E-01 -0.27664111640E-01  0.26524674864E-01  0.40657541398E-01  0.51100000000E-03 0. -1.
         11    1    4    4    0    0 -0.49342065770E-01 -0.38567652753E-01  0.66500726328E-01  0.91349389798E-01  0.51100000000E-03 0.  1.
</event>
<event>
 8    1  0.1108957E+005  0.1043930E+01  0.7957747E-01            NaN
         13   -1    0    0    0    0  0.00000000000E+00  0.00000000000E+00  0.74505805969E-08  0.10566000000E+00  0.10566000000E+00 0.  1.
     999900   -1    0    0    0    0 -0.00000000000E+00 -0.00000000000E+00 -0.74505805969E-08  0.93827000000E+00  0.93827000000E+00 0. -1.
     999902    2    1    2    0    0 -0.11736600016E-01  0.10940655991E-01 -0.17238861924E-01  0.10203795415E+01  0.10201077319E+01 0.  0.
     999903    2    3    3    0    0  0.48249070815E-01 -0.36908439902E-01  0.11074928446E+00  0.12781650046E+00  0.19530694067E-01 0.  0.
         14    1    1    2    0    0  0.11736600016E-01 -0.10940655991E-01  0.17238861924E-01  0.23550458464E-01  0.00000000000E+00 0.  1.
     999901    1    3    3    0    0 -0.59985670831E-01  0.47849095893E-01 -0.12798814638E+00  0.89256304108E+00  0.88000000000E+00 0. -1.
        -11    1    4    4    0    0  0.26428594537E-01 -0.81088962966E-02  0.49757200851E-01  0.56923325324E-01  0.51100000000E-03 0.  1.
         11    1    4    4    0    0  0.21820476278E-01 -0.28799543605E-01  0.60992083608E-01  0.70893175135E-01  0.51100000000E-03 0. -1.
</event>
<event>
 8    1  0.1108957E+005  0.1043930E+01  0.7957747E-01            NaN
         13   -1    0    0    0    0  0.00000000000E+00  0.00000000000E+00  0.74505805969E-08  0.10566000000E+00  0.10566000000E+00 0. -1.
     999900   -1    0    0    0    0 -0.00000000000E+00 -0.00000000000E+00 -0.74505805969E-08  0.93827000000E+00  0.93827000000E+00 0.  1.
     999902    2    1    2    0    0  0.68917897721E-02 -0.61186090086E-02  0.20484766474E-01  0.10214675914E+01  0.10212205837E+01 0.  0.
     999903    2    3    3    0    0 -0.83452475724E-01  0.89616441226E-01 -0.38077940884E-01  0.12975189857E+00  0.19753565706E-01 0.  0.
         14    1    1    2    0    0 -0.68917897721E-02  0.61186090086E-02 -0.20484766474E-01  0.22462408597E-01  0.00000000000E+00 0.  1.
     999901    1    3    3    0    0  0.90344265497E-01 -0.95735050235E-01  0.58562707358E-01  0.89171569283E+00  0.88000000000E+00 0. -1.
        -11    1    4    4    0    0 -0.61813220996E-01  0.73620121284E-01 -0.22777067280E-01  0.98791965577E-01  0.51100000000E-03 0. -1.
         11    1    4    4    0    0 -0.21639254729E-01  0.15996319942E-01 -0.15300873604E-01  0.30959932993E-01  0.51100000000E-03 0.  1.
</event>
<event>
 8    1  0.1108957E+005  0.1043930E+01  0.7957747E-01            NaN
         13   -1    0    0    0    0  0.00000000000E+00  0.00000000000E+00  0.74505805969E-08  0.10566000000E+00  0.10566000000E+00 0.  1.
     999900   -1    0    0    0    0 -0.00000000000E+00 -0.00000000000E+00 -0.74505805969E-08  0.93827000000E+00  0.93827000000E+00 0. -1.
     999902    2    1    2    0    0  0.22921516194E-01  0.30512232902E-02  0.36728464728E-02  0.10205164213E+01  0.10202477985E+01 0.  0.
     999903    2    3    3    0    0 -0.83105223140E-01 -0.42279365721E-01  0.87156265951E-01  0.12907600649E+00  0.19245204036E-01 0.  0.
         14    1    1    2    0    0 -0.22921516194E-01 -0.30512232902E-02 -0.36728464728E-02  0.23413578740E-01  0.00000000000E+00 0.  1.
     999901    1    3    3    0    0  0.10602673933E+00  0.45330589011E-01 -0.83483419479E-01  0.89144041477E+00  0.88000000000E+00 0. -1.
        -11    1    4    4    0    0 -0.33889234446E-01 -0.27595614098E-01  0.43545370259E-01  0.61696503311E-01  0.51100000000E-03 0. -1.
         11    1    4    4    0    0 -0.49215988694E-01 -0.14683751623E-01  0.43610895692E-01  0.67379503181E-01  0.51100000000E-03 0.  1.
</event>
<event>
 8    1  0.1108957E+005  0.1043930E+01  0.7957747E-01            NaN
         13   -1    0    0    0    0  0.00000000000E+00  0.00000000000E+00  0.74505805969E-08  0.10566000000E+00  0.10566000000E+00 0. -1.
     999900   -1    0    0    0    0 -0.00000000000E+00 -0.00000000000E+00 -0.74505805969E-08  0.93827000000E+00  0.93827000000E+00 0.  1.
     999902    2    1    2    0    0 -0.36803248846E-02 -0.31929985107E-02 -0.23829019411E-01  0.10196079483E+01  0.10193178141E+01 0.  0.
     999903    2    3    3    0    0 -0.73362062652E-01 -0.10625431846E+00 -0.16043692628E-01  0.13082350228E+00  0.13616763506E-01 0.  0.
         14    1    1    2    0    0  0.36803248846E-02  0.31929985107E-02  0.23829019411E-01  0.24322051657E-01  0.00000000000E+00 0. -1.
     999901    1    3    3    0    0  0.69681737767E-01  0.10306131995E+00 -0.77853267830E-02  0.88878444606E+00  0.88000000000E+00 0. -1.
        -11    1    4    4    0    0 -0.70306756790E-01 -0.97153393346E-01 -0.17153851059E-01  0.12114593520E+00  0.51100000000E-03 0.  1.
         11    1    4    4    0    0 -0.30553058612E-02 -0.91009251129E-02  0.11101584315E-02  0.96775670785E-02  0.51100000000E-03 0. -1.
</event>
<event>
 8    1  0.1108957E+005  0.1043930E+01  0.7957747E-01            NaN
         13   -1    0    0    0    0  0.00000000000E+00  0.00000000000E+00  0.74505805969E-08  0.10566000000E+00  0.10566000000E+00 0.  1.
     999900   -1    0    0    0    0 -0.00000000000E+00 -0.00000000000E+00 -0.74505805969E-08  0.93827000000E+00  0.93827000000E+00 0.  1.
     999902    2    1    2    0    0 -0.15123922909E-01 -0.34146938951E-02 -0.18450279926E-01  0.10198300828E+01  0.10195452868E+01 0.  0.
     999903    2    3    3    0    0 -0.32265594867E-01 -0.68544502469E-01 -0.10730734218E+00  0.13279496154E+00  0.19499197225E-01 0.  0.
         14    1    1    2    0    0  0.15123922909E-01  0.34146938951E-02  0.18450279926E-01  0.24099917176E-01  0.00000000000E+00 0.  1.
     999901    1    3    3    0    0  0.17141671957E-01  0.65129808573E-01  0.88857062258E-01  0.88703512129E+00  0.88000000000E+00 0. -1.
        -11    1    4    4    0    0 -0.19777120899E-01 -0.57398403069E-01 -0.91192940996E-01  0.10955420939E+00  0.51100000000E-03 0. -1.
         11    1    4    4    0    0 -0.12488473968E-01 -0.11146099400E-01 -0.16114401188E-01  0.23240752151E-01  0.51100000000E-03 0.  1.
</event>
<event>
 8    1  0.1108957E+005  0.1043930E+01  0.7957747E-01            NaN
         13   -1    0    0    0    0  0.00000000000E+00  0.00000000000E+00  0.74505805969E-08  0.10566000000E+00  0.10566000000E+00 0. -1.
     999900   -1    0    0    0    0 -0.00000000000E+00 -0.00000000000E+00 -0.74505805969E-08  0.93827000000E+00  0.93827000000E+00 0. -1.
     999902    2    1    2    0    0 -0.22518986319E-01 -0.47742996771E-02 -0.75035042133E-02  0.10197184065E+01  0.10194309331E+01 0.  0.
     999903    2    3    3    0    0  0.19236034134E-01  0.57960657473E-01  0.11142151191E+00  0.12852689175E+00  0.19363516241E-01 0.  0.
         14    1    1    2    0    0  0.22518986319E-01  0.47742996771E-02  0.75035042133E-02  0.24211593457E-01  0.00000000000E+00 0. -1.
     999901    1    3    3    0    0 -0.41755020454E-01 -0.62734957150E-01 -0.11892501613E+00  0.89119151480E+00  0.88000000000E+00 0. -1.
        -11    1    4    4    0    0  0.87128330533E-02  0.32800300963E-01  0.42407342241E-01  0.54317741117E-01  0.51100000000E-03 0.  1.
         11    1    4    4    0    0  0.10523201081E-01  0.25160356509E-01  0.69014169673E-01  0.74209150631E-01  0.51100000000E-03 0. -1.
</event>
<event>
 8    1  0.1108957E+005  0.1043930E+01  0.7957747E-01            NaN
         13   -1    0    0    0    0  0.00000000000E+00  0.00000000000E+00  0.74505805969E-08  0.10566000000E+00  0.10566000000E+00 0. -1.
     999900   -1    0    0    0    0 -0.00000000000E+00 -0.00000000000E+00 -0.74505805969E-08  0.93827000000E+00  0.93827000000E+00 0. -1.
     999902    2    1    2    0    0  0.18781153672E-01  0.14831730477E-01 -0.10264068886E-02  0.10199765979E+01  0.10196952950E+01 0.  0.
     999903    2    3    3    0    0  0.87585650208E-01  0.96329837769E-01 -0.20252848956E-01  0.13332804500E+00  0.20383962488E-01 0.  0.
         14    1    1    2    0    0 -0.18781153672E-01 -0.14831730477E-01  0.10264068886E-02  0.23953402124E-01  0.00000000000E+00 0. -1.
     999901    1    3    3    0    0 -0.68804496535E-01 -0.81498107292E-01  0.19226442067E-01  0.88664855287E+00  0.88000000000E+00 0.  1.
        -11    1    4    4    0    0  0.87991634599E-01  0.91717069546E-01 -0.19969166660E-01  0.12866070629E+00  0.51100000000E-03 0.  1.
         11    1    4    4    0    0 -0.40598439088E-03  0.46127682228E-02 -0.28368229607E-03  0.46673387115E-02  0.51100000000E-03 0. -1.
</event>
<event>
 8    1  0.1108957E+005  0.1043930E+01  0.7957747E-01            NaN
         13   -1    0    0    0    0  0.00000000000E+00  0.00000000000E+00  0.74505805969E-08  0.10566000000E+00  0.10566000000E+00 0.  1.
     999900   -1    0    0    0    0 -0.00000000000E+00 -0.00000000000E+00 -0.74505805969E-08  0.93827000000E+00  0.93827000000E+00 0. -1.
     999902    2    1    2    0    0  0.21651237506E-01 -0.60624868689E-02 -0.62303358859E-02  0.10205987566E+01  0.10203320416E+01 0.  0.
     999903    2    3    3    0    0  0.41775631318E-02  0.72756862493E-01 -0.10715988114E+00  0.13115815026E+00  0.20204137682E-01 0.  0.
         14    1    1    2    0    0 -0.21651237506E-01  0.60624868689E-02  0.62303358859E-02  0.23331243384E-01  0.00000000000E+00 0.  1.
     999901    1    3    3    0    0  0.17473674374E-01 -0.78819349362E-01  0.10092954526E+00  0.88944060636E+00  0.88000000000E+00 0.  1.
        -11    1    4    4    0    0  0.20578622718E-02  0.13938789877E-01 -0.90707270728E-02  0.16764959618E-01  0.51100000000E-03 0. -1.
         11    1    4    4    0    0  0.21197008600E-02  0.58818072616E-01 -0.98089154070E-01  0.11439319064E+00  0.51100000000E-03 0.  1.
</event>
<event>
 8    1  0.1108957E+005  0.1043930E+01  0.7957747E-01            NaN
         13   -1    0    0    0    0  0.00000000000E+00  0.00000000000E+00  0.74505805969E-08  0.10566000000E+00  0.10566000000E+00 0.  1.
     999900   -1    0    0    0    0 -0.00000000000E+00 -0.00000000000E+00 -0.74505805969E-08  0.93827000000E+00  0.93827000000E+00 0.  1.
     999902    2    1    2    0    0 -0.21100727401E-01  0.57671007772E-02 -0.75398258204E-02  0.10207923873E+01  0.10205301313E+01 0.  0.
     999903    2    3    3    0    0  0.40558068830E-01 -0.16837135179E-01  0.11981362567E+00  0.12920298615E+00  0.20240075706E-01 0.  0.
         14    1    1    2    0    0  0.21100727401E-01 -0.57671007772E-02  0.75398258204E-02  0.23137612704E-01  0.00000000000E+00 0.  1.
     999901    1    3    3    0    0 -0.61658796231E-01  0.22604235957E-01 -0.12735345149E+00  0.89158940115E+00  0.88000000000E+00 0.  1.
        -11    1    4    4    0    0  0.61996369717E-02 -0.11928051922E-01  0.28532096055E-01  0.31544501067E-01  0.51100000000E-03 0. -1.
         11    1    4    4    0    0  0.34358431858E-01 -0.49090832572E-02  0.91281529615E-01  0.97658485080E-01  0.51100000000E-03 0.  1.
</event>
<event>
 8    1  0.1108957E+005  0.1043930E+01  0.7957747E-01            NaN
         13   -1    0    0    0    0  0.00000000000E+00  0.00000000000E+00  0.74505805969E-08  0.10566000000E+00  0.10566000000E+00 0.  1.
     999900   -1    0    0    0    0 -0.00000000000E+00 -0.00000000000E+00 -0.74505805969E-08  0.93827000000E+00  0.93827000000E+00 0. -1.
     999902    2    1    2    0    0 -0.17639754449E-01  0.14789390348E-01 -0.63012626630E-02  0.10200638542E+01  0.10197846213E+01 0.  0.
     999903    2    3    3    0    0 -0.12074246485E+00 -0.34864333887E-01 -0.36252527134E-01  0.13214902751E+00  0.18837599476E-01 0.  0.
         14    1    1    2    0    0  0.17639754449E-01 -0.14789390348E-01  0.63012626630E-02  0.23866145794E-01  0.00000000000E+00 0.  1.
     999901    1    3    3    0    0  0.10310271040E+00  0.49653724235E-01  0.29951264471E-01  0.88791482670E+00  0.88000000000E+00 0. -1.
        -11    1    4    4    0    0 -0.27316160698E-01 -0.16129639815E-01 -0.10889649864E-01  0.33543755172E-01  0.51100000000E-03 0. -1.
         11    1    4    4    0    0 -0.93426304148E-01 -0.18734694072E-01 -0.25362877270E-01  0.98605272340E-01  0.51100000000E-03 0.  1.
</event>
<event>
 8    1  0.1108957E+005  0.1043930E+01  0.7957747E-01            NaN
         13   -1    0    0    0    0  0.00000000000E+00  0.00000000000E+00  0.74505805969E-08  0.10566000000E+00  0.10566000000E+00 0. -1.
     999900   -1    0    0    0    0 -0.00000000000E+00 -0.00000000000E+00 -0.74505805969E-08  0.93827000000E+00  0.93827000000E+00 0. -1.
     999902    2    1    2    0    0  0.12440067276E-01  0.10841141173E-01  0.16945542909E-01  0.10202775786E+01  0.10200033825E+01 0.  0.
     999903    2    3    3    0    0 -0.85099824651E-02 -0.94452214360E-01 -0.84103257456E-01  0.12801278862E+00  0.17896243637E-01 0.  0.
         14    1    1    2    0    0 -0.12440067276E-01 -0.10841141173E-01 -0.16945542909E-01  0.23652421445E-01  0.00000000000E+00 0.  1.
     999901    1    3    3    0    0  0.20950049741E-01  0.10529335553E+00  0.10104880036E+00  0.89226478994E+00  0.88000000000E+00 0.  1.
        -11    1    4    4    0    0 -0.46255751354E-02 -0.15456688552E-01 -0.22841183924E-01  0.27969375581E-01  0.51100000000E-03 0. -1.
         11    1    4    4    0    0 -0.38844073297E-02 -0.78995525808E-01 -0.61262073532E-01  0.10004341304E+00  0.51100000000E-03 0.  1.
</event>
<event>
 8    1  0.1108957E+005  0.1043930E+01  0.7957747E-01            NaN
         13   -1    0    0    0    0  0.00000000000E+00  0.00000000000E+00  0.74505805969E-08  0.10566000000E+00  0.10566000000E+00 0.  1.
     999900   -1    0    0    0    0 -0.00000000000E+00 -0.00000000000E+00 -0.74505805969E-08  0.93827000000E+00  0.93827000000E+00 0.  1.
     999902    2    1    2    0    0 -0.17428910800E-02 -0.83937619738E-02 -0.19764960260E-01  0.10223859390E+01  0.10221589220E+01 0.  0.
     999903    2    3    3    0    0  0.20676836799E-01 -0.75505573177E-01  0.10321441752E+00  0.13102149798E+00  0.19616161369E-01 0.  0.
         14    1    1    2    0    0  0.17428910800E-02  0.83937619738E-02  0.19764960260E-01  0.21544060979E-01  0.00000000000E+00 0.  1.
     999901    1    3    3    0    0 -0.22419727879E-01  0.67111811203E-01 -0.12297937778E+00  0.89136444105E+00  0.88000000000E+00 0.  1.
        -11    1    4    4    0    0  0.82163160408E-02 -0.48027361264E-01  0.76603606689E-01  0.90788264429E-01  0.51100000000E-03 0. -1.
         11    1    4    4    0    0  0.12460520758E-01 -0.27478211913E-01  0.26610810832E-01  0.40233233547E-01  0.51100000000E-03 0.  1.
</event>
<event>
 8    1  0.1108957E+005  0.1043930E+01  0.7957747E-01            NaN
         13   -1    0    0    0    0  0.00000000000E+00  0.00000000000E+00  0.74505805969E-08  0.10566000000E+00  0.10566000000E+00 0. -1.
     999900   -1    0    0    0    0 -0.00000000000E+00 -0.00000000000E+00 -0.74505805969E-08  0.93827000000E+00  0.93827000000E+00 0.  1.
     999902    2    1    2    0    0  0.57541400556E-02  0.93432312641E-02 -0.13606710067E-01  0.10264500499E+01  0.10263012015E+01 0.  0.
     999903    2    3    3    0    0  0.40175849825E-01 -0.26206171029E-01  0.12392692060E+00  0.13439393409E+00  0.20074500305E-01 0.  0.
         14    1    1    2    0    0 -0.57541400556E-02 -0.93432312641E-02  0.13606710067E-01  0.17479950145E-01  0.00000000000E+00 0. -1.
     999901    1    3    3    0    0 -0.34421709770E-01  0.35549402293E-01 -0.13753363066E+00  0.89205611576E+00  0.88000000000E+00 0.  1.
        -11    1    4    4    0    0  0.29447605341E-01 -0.96586792783E-02  0.89502598889E-01  0.94717621774E-01  0.51100000000E-03 0.  1.
         11    1    4    4    0    0  0.10728244485E-01 -0.16547491751E-01  0.34424321709E-01  0.39676312317E-01  0.51100000000E-03 0. -1.
</event>
<event>
 8    1  0.1108957E+005  0.1043930E+01  0.7957747E-01            NaN
         13   -1    0    0    0    0  0.00000000000E+00  0.00000000000E+00  0.74505805969E-08  0.10566000000E+00  0.10566000000E+00 0. -1.
     999900   -1    0    0    0    0 -0.00000000000E+00 -0.00000000000E+00 -0.74505805969E-08  0.93827000000E+00  0.93827000000E+00 0.  1.
     999902    2    1    2    0    0  0.18681121591E-01  0.35378883158E-02 -0.22740679099E-01  0.10142881471E+01  0.10138549235E+01 0.  0.
     999903    2    3    3    0    0 -0.11287706035E+00 -0.23971889276E-01 -0.40555463973E-01  0.12390524651E+00  0.19796015416E-01 0.  0.
         14    1    1    2    0    0 -0.18681121591E-01 -0.35378883158E-02  0.22740679099E-01  0.29641852904E-01  0.00000000000E+00 0. -1.
     999901    1    3    3    0    0  0.13155818194E+00  0.27509777592E-01  0.17814784873E-01  0.89038290059E+00  0.88000000000E+00 0.  1.
        -11    1    4    4    0    0 -0.42845533058E-01 -0.25579950567E-02 -0.75776833416E-02  0.43588593090E-01  0.51100000000E-03 0.  1.
         11    1    4    4    0    0 -0.70031527289E-01 -0.21413894219E-01 -0.32977780631E-01  0.80316653419E-01  0.51100000000E-03 0. -1.
</event>
<event>
 7    1  0.1108957E+005  0.1043930E+01  0.7957747E-01            NaN
         13   -1    0    0    0    0  0.00000000000E+00  0.00000000000E+00  0.74505805969E-08  0.10566000000E+00  0.10566000000E+00 0. -1.
     999900   -1    0    0    0    0 -0.00000000000E+00 -0.00000000000E+00 -0.74505805969E-08  0.93827000000E+00  0.93827000000E+00 0.  1.
     999902    2    1    2    0    0 -0.18005485625E-01  0.35008635874E-02 -0.14773070344E-01  0.10203779902E+01  0.10201061443E+01 0.  0.
         14    1    1    2    0    0  0.18005485625E-01 -0.35008635874E-02  0.14773070344E-01  0.23552009805E-01  0.00000000000E+00 0. -1.
     999901    1    3    3    0    0 -0.12581241546E+00 -0.17912411930E-01 -0.79726740052E-01  0.89269590089E+00  0.88000000000E+00 0.  1.
        -11    1    3    3    0    0  0.77799854063E-01  0.15397982077E-01  0.46214336420E-01  0.91792925414E-01  0.51100000000E-03 0. -1.
         11    1    3    3    0    0  0.30007075775E-01  0.60152934402E-02  0.18739333288E-01  0.35889163891E-01  0.51100000000E-03 0.  1.
</event>
<event>
 8    1  0.1108957E+005  0.1043930E+01  0.7957747E-01            NaN
         13   -1    0    0    0    0  0.00000000000E+00  0.00000000000E+00  0.74505805969E-08  0.10566000000E+00  0.10566000000E+00 0.  1.
     999900   -1    0    0    0    0 -0.00000000000E+00 -0.00000000000E+00 -0.74505805969E-08  0.93827000000E+00  0.93827000000E+00 0.  1.
     999902    2    1    2    0    0 -0.15885202790E-01 -0.17501850592E-01 -0.57646618266E-02  0.10196012974E+01  0.10193110026E+01 0.  0.
     999903    2    3    3    0    0 -0.64435262288E-01 -0.33841030422E-01 -0.10835866407E+00  0.13216138040E+00  0.20686034532E-01 0.  0.
         14    1    1    2    0    0  0.15885202790E-01  0.17501850592E-01  0.57646618266E-02  0.24328702551E-01  0.00000000000E+00 0. -1.
     999901    1    3    3    0    0  0.48550059498E-01  0.16339179830E-01  0.10259400224E+00  0.88743991705E+00  0.88000000000E+00 0. -1.
        -11    1    4    4    0    0 -0.58515581079E-01 -0.30690496708E-01 -0.83907599466E-01  0.10680227613E+00  0.51100000000E-03 0. -1.
         11    1    4    4    0    0 -0.59196812093E-02 -0.31505337143E-02 -0.24451064602E-01  0.25359104272E-01  0.51100000000E-03 0.  1.
</event>
<event>
 8    1  0.1108957E+005  0.1043930E+01  0.7957747E-01            NaN
         13   -1    0    0    0    0  0.00000000000E+00  0.00000000000E+00  0.74505805969E-08  0.10566000000E+00  0.10566000000E+00 0.  1.
     999900   -1    0    0    0    0 -0.00000000000E+00 -0.00000000000E+00 -0.74505805969E-08  0.93827000000E+00  0.93827000000E+00 0.  1.
     999902    2    1    2    0    0  0.71406006884E-02  0.16589846406E-01 -0.10843831798E-01  0.10228634419E+01  0.10226464790E+01 0.  0.
     999903    2    3    3    0    0 -0.94626638358E-01 -0.87335562069E-01 -0.15140938982E-01  0.13091303600E+00  0.18090712299E-01 0.  0.
         14    1    1    2    0    0 -0.71406006884E-02 -0.16589846406E-01  0.10843831798E-01  0.21066558096E-01  0.00000000000E+00 0.  1.
     999901    1    3    3    0    0  0.10176723905E+00  0.10392540847E+00  0.42971071840E-02  0.89195040591E+00  0.88000000000E+00 0.  1.
        -11    1    4    4    0    0 -0.43951286478E-01 -0.30064479350E-01 -0.17908800851E-02  0.53282800922E-01  0.51100000000E-03 0. -1.
         11    1    4    4    0    0 -0.50675351880E-01 -0.57271082719E-01 -0.13350058897E-01  0.77630235074E-01  0.51100000000E-03 0.  1.
</event>
<event>
 8    1  0.1108957E+005  0.1043930E+01  0.7957747E-01            NaN
         13   -1    0    0    0    0  0.00000000000E+00  0.00000000000E+00  0.74505805969E-08  0.10566000000E+00  0.10566000000E+00 0.  1.
     999900   -1    0    0    0    0 -0.00000000000E+00 -0.00000000000E+00 -0.74505805969E-08  0.93827000000E+00  0.93827000000E+00 0. -1.
     999902    2    1    2    0    0  0.11864045108E-01 -0.25575623010E-03  0.20348344114E-01  0.10203741921E+01  0.10201022575E+01 0.  0.
     999903    2    3    3    0    0 -0.94362678799E-01 -0.77221428974E-02 -0.83663437602E-01  0.12787303550E+00  0.19697608362E-01 0.  0.
         14    1    1    2    0    0 -0.11864045108E-01  0.25575623010E-03 -0.20348344114E-01  0.23555807898E-01  0.00000000000E+00 0. -1.
     999901    1    3    3    0    0  0.10622672391E+00  0.74663866673E-02  0.10401178172E+00  0.89250115660E+00  0.88000000000E+00 0.  1.
        -11    1    4    4    0    0 -0.37834696337E-01  0.64686384033E-02 -0.31566057930E-01  0.49698940270E-01  0.51100000000E-03 0.  1.
         11    1    4    4    0    0 -0.56527982462E-01 -0.14190781301E-01 -0.52097379672E-01  0.78174095229E-01  0.51100000000E-03 0. -1.
</event>
<event>
 8    1  0.1108957E+005  0.1043930E+01  0.7957747E-01            NaN
         13   -1    0    0    0    0  0.00000000000E+00  0.00000000000E+00  0.74505805969E-08  0.10566000000E+00  0.10566000000E+00 0.  1.
     999900   -1    0    0    0    0 -0.00000000000E+00 -0.00000000000E+00 -0.74505805969E-08  0.93827000000E+00  0.93827000000E+00 0.  1.
     999902    2    1    2    0    0  0.21251223247E-01  0.54755542834E-02 -0.83175150091E-02  0.10204613562E+01  0.10201914538E+01 0.  0.
     999903    2    3    3    0    0  0.59717645845E-02  0.78532018423E-01 -0.10418529259E+00  0.13211382312E+00  0.19913492358E-01 0.  0.
         14    1    1    2    0    0 -0.21251223247E-01 -0.54755542834E-02  0.83175150091E-02  0.23468643764E-01  0.00000000000E+00 0.  1.
     999901    1    3    3    0    0  0.15279458663E-01 -0.73056464139E-01  0.95867777583E-01  0.88834753311E+00  0.88000000000E+00 0. -1.
        -11    1    4    4    0    0  0.12317762063E-01  0.36791377516E-01 -0.54667804449E-01  0.67038516436E-01  0.51100000000E-03 0. -1.
         11    1    4    4    0    0 -0.63459974789E-02  0.41740640906E-01 -0.49517488143E-01  0.65075306686E-01  0.51100000000E-03 0.  1.
</event>
<event>
 8    1  0.1108957E+005  0.1043930E+01  0.7957747E-01            NaN
         13   -1    0    0    0    0  0.00000000000E+00  0.00000000000E+00  0.74505805969E-08  0.10566000000E+00  0.10566000000E+00 0.  1.
     999900   -1    0    0    0    0 -0.00000000000E+00 -0.00000000000E+00 -0.74505805969E-08  0.93827000000E+00  0.93827000000E+00 0.  1.
     999902    2    1    2    0    0  0.66811913343E-04  0.23339796443E-01 -0.16065319811E-02  0.10205348828E+01  0.10202666885E+01 0.  0.
     999903    2    3    3    0    0 -0.27040774326E-01 -0.17856860359E-01 -0.12480646384E+00  0.13058532867E+00  0.20635011730E-01 0.  0.
         14    1    1    2    0    0 -0.66811913343E-04 -0.23339796443E-01  0.16065319811E-02  0.23395117158E-01  0.00000000000E+00 0.  1.
     999901    1    3    3    0    0  0.27107586240E-01  0.41196656803E-01  0.12319993186E+00  0.88994955417E+00  0.88000000000E+00 0. -1.
        -11    1    4    4    0    0 -0.18277410725E-01 -0.21078028769E-01 -0.77666404647E-01  0.82526835462E-01  0.51100000000E-03 0. -1.
         11    1    4    4    0    0 -0.87633636011E-02  0.32211684094E-02 -0.47140059193E-01  0.48058493206E-01  0.51100000000E-03 0.  1.
</event>
<event>
 8    1  0.1108957E+005  0.1043930E+01  0.7957747E-01            NaN
         13   -1    0    0    0    0  0.00000000000E+00  0.00000000000E+00  0.74505805969E-08  0.10566000000E+00  0.10566000000E+00 0. -1.
     999900   -1    0    0    0    0 -0.00000000000E+00 -0.00000000000E+00 -0.74505805969E-08  0.93827000000E+00  0.93827000000E+00 0. -1.
     999902    2    1    2    0    0 -0.35021650642E-02 -0.22468618163E-01  0.65288137844E-02  0.10202713996E+01  0.10199970586E+01 0.  0.
     999903    2    3    3    0    0  0.55559512649E-01 -0.10348950107E+00 -0.57391887936E-01  0.13227448446E+00  0.20143836760E-01 0.  0.
         14    1    1    2    0    0  0.35021650642E-02  0.22468618163E-01 -0.65288137844E-02  0.23658600375E-01  0.00000000000E+00 0. -1.
     999901    1    3    3    0    0 -0.59061677713E-01  0.81020882908E-01  0.63920701721E-01  0.88799691517E+00  0.88000000000E+00 0.  1.
        -11    1    4    4    0    0  0.13702127888E-01 -0.26626700329E-01 -0.52771765490E-02  0.30411168876E-01  0.51100000000E-03 0. -1.
         11    1    4    4    0    0  0.41857384761E-01 -0.76862800742E-01 -0.52114711388E-01  0.10186331558E+00  0.51100000000E-03 0.  1.
</event>
<event>
 7    1  0.1108957E+005  0.1043930E+01  0.7957747E-01            NaN
         13   -1    0    0    0    0  0.00000000000E+00  0.00000000000E+00  0.74505805969E-08  0.10566000000E+00  0.10566000000E+00 0. -1.
     999900   -1    0    0    0    0 -0.00000000000E+00 -0.00000000000E+00 -0.74505805969E-08  0.93827000000E+00  0.93827000000E+00 0. -1.
     999902    2    1    2    0    0 -0.31477148553E-02 -0.16338333416E-01 -0.17071864613E-01  0.10200910023E+01  0.10198124118E+01 0.  0.
         14    1    1    2    0    0  0.31477148553E-02  0.16338333416E-01  0.17071864613E-01  0.23838997651E-01  0.00000000000E+00 0. -1.
     999901    1    3    3    0    0  0.10065305628E+00 -0.43447178848E-03  0.54178501943E-01  0.88739311276E+00  0.88000000000E+00 0.  1.
        -11    1    3    3    0    0 -0.32273640767E-01  0.18256035490E-02 -0.42948937539E-01  0.53756795602E-01  0.51100000000E-03 0. -1.
         11    1    3    3    0    0 -0.71527130368E-01 -0.17729465177E-01 -0.28301429017E-01  0.78941093985E-01  0.51100000000E-03 0.  1.
</event>
<event>
 8    1  0.1108957E+005  0.1043930E+01  0.7957747E-01            NaN
         13   -1    0    0    0    0  0.00000000000E+00  0.00000000000E+00  0.74505805969E-08  0.10566000000E+00  0.10566000000E+00 0. -1.
     999900   -1    0    0    0    0 -0.00000000000E+00 -0.00000000000E+00 -0.74505805969E-08  0.93827000000E+00  0.93827000000E+00 0. -1.
     999902    2    1    2    0    0 -0.87762059701E-02  0.22556223025E-01 -0.25836516944E-02  0.10195890829E+01  0.10192984930E+01 0.  0.
     999903    2    3    3    0    0 -0.60833456977E-01  0.91616831051E-01 -0.72097649635E-01  0.13262148437E+00  0.17205633196E-01 0.  0.
         14    1    1    2    0    0  0.87762059701E-02 -0.22556223025E-01  0.25836516944E-02  0.24340917084E-01  0.00000000000E+00 0.  1.
     999901    1    3    3    0    0  0.52057251007E-01 -0.69060608026E-01  0.69513997940E-01  0.88696759855E+00  0.88000000000E+00 0.  1.
        -11    1    4    4    0    0 -0.30311524803E-01  0.52556483461E-01 -0.48714919110E-01  0.77809876973E-01  0.51100000000E-03 0. -1.
         11    1    4    4    0    0 -0.30521932175E-01  0.39060347590E-01 -0.23382730525E-01  0.54811607396E-01  0.51100000000E-03 0.  1.
</event>
<event>
 8    1  0.1108957E+005  0.1043930E+01  0.7957747E-01            NaN
         13   -1    0    0    0    0  0.00000000000E+00  0.00000000000E+00  0.74505805969E-08  0.10566000000E+00  0.10566000000E+00 0.  1.
     999900   -1    0    0    0    0 -0.00000000000E+00 -0.00000000000E+00 -0.74505805969E-08  0.93827000000E+00  0.93827000000E+00 0. -1.
     999902    2    1    2    0    0  0.24750697710E-01 -0.25409309337E-03  0.10416642548E-01  0.10170754279E+01  0.10167208358E+01 0.  0.
     999903    2    3    3    0    0  0.83415371754E-01  0.61661096435E-01 -0.74281124887E-01  0.12890385299E+00  0.18393008001E-01 0.  0.
         14    1    1    2    0    0 -0.24750697710E-01  0.25409309337E-03 -0.10416642548E-01  0.26854572095E-01  0.00000000000E+00 0. -1.
     999901    1    3    3    0    0 -0.58664674043E-01 -0.61915189528E-01  0.84697767435E-01  0.88817157491E+00  0.88000000000E+00 0.  1.
        -11    1    4    4    0    0  0.69533622994E-01  0.55175938835E-01 -0.55618869305E-01  0.10475222526E+00  0.51100000000E-03 0.  1.
         11    1    4    4    0    0  0.13881748760E-01  0.64851575994E-02 -0.18662255582E-01  0.24151627733E-01  0.51100000000E-03 0. -1.
</event>
<event>
 8    1  0.1108957E+005  0.1043930E+01  0.7957747E-01            NaN
         13   -1    0    0    0    0  0.00000000000E+00  0.00000000000E+00  0.74505805969E-08  0.10566000000E+00  0.10566000000E+00 0. -1.
     999900   -1    0    0    0    0 -0.00000000000E+00 -0.00000000000E+00 -0.74505805969E-08  0.93827000000E+00  0.93827000000E+00 0.  1.
     999902    2    1    2    0    0  0.20039142574E-01  0.55438907340E-02 -0.98092858680E-02  0.10209403491E+01  0.10206814745E+01 0.  0.
     999903    2    3    3    0    0  0.11199770980E+00 -0.27884485325E-01  0.61539888987E-01  0.13264730107E+00  0.22070727749E-01 0.  0.
         14    1    1    2    0    0 -0.20039142574E-01 -0.55438907340E-02  0.98092858680E-02  0.22989650907E-01  0.00000000000E+00 0. -1.
     999901    1    3    3    0    0 -0.91958567223E-01  0.33428376059E-01 -0.71349174855E-01  0.88829304802E+00  0.88000000000E+00 0.  1.
        -11    1    4    4    0    0  0.79301460065E-01 -0.22690739498E-01  0.32674541632E-01  0.88721350414E-01  0.51100000000E-03 0. -1.
         11    1    4    4    0    0  0.32696249732E-01 -0.51937458273E-02  0.28865347354E-01  0.43925950658E-01  0.51100000000E-03 0.  1.
</event>
<event>
 8    1  0.1108957E+005  0.1043930E+01  0.7957747E-01            NaN
         13   -1    0    0    0    0  0.00000000000E+00  0.00000000000E+00  0.74505805969E-08  0.10566000000E+00  0.10566000000E+00 0. -1.
     999900   -1    0    0    0    0 -0.00000000000E+00 -0.00000000000E+00 -0.74505805969E-08  0.93827000000E+00  0.93827000000E+00 0. -1.
     999902    2    1    2    0    0 -0.13385785034E-02 -0.12186168080E-01 -0.20119522177E-01  0.10203696592E+01  0.10200976188E+01 0.  0.
     999903    2    3    3    0    0  0.64101740534E-01 -0.19503268032E-01 -0.11314421227E+00  0.13301991517E+00  0.20081694599E-01 0.  0.
         14    1    1    2    0    0  0.13385785034E-02  0.12186168080E-01  0.20119522177E-01  0.23560340776E-01  0.00000000000E+00 0. -1.
     999901    1    3    3    0    0 -0.65440319037E-01  0.73170999525E-02  0.93024690093E-01  0.88734974405E+00  0.88000000000E+00 0.  1.
        -11    1    4    4    0    0  0.65475121698E-01 -0.18246822657E-01 -0.10916095967E+00  0.12859360145E+00  0.51100000000E-03 0.  1.
         11    1    4    4    0    0 -0.13733811644E-02 -0.12564453749E-02 -0.39832526048E-02  0.44263137164E-02  0.51100000000E-03 0. -1.
</event>
<event>
 8    1  0.1108957E+005  0.1043930E+01  0.7957747E-01            NaN
         13   -1    0    0    0    0  0.00000000000E+00  0.00000000000E+00  0.74505805969E-08  0.10566000000E+00  0.10566000000E+00 0.  1.
     999900   -1    0    0    0    0 -0.00000000000E+00 -0.00000000000E+00 -0.74505805969E-08  0.93827000000E+00  0.93827000000E+00 0.  1.
     999902    2    1    2    0    0  0.13508254250E-01  0.19794917697E-01  0.64611864665E-02  0.10191094716E+01  0.10188071734E+01 0.  0.
     999903    2    3    3    0    0  0.74425237773E-01 -0.10232509672E+00  0.14295872760E-01  0.12855595883E+00  0.17683923072E-01 0.  0.
         14    1    1    2    0    0 -0.13508254250E-01 -0.19794917697E-01 -0.64611864665E-02  0.24820528400E-01  0.00000000000E+00 0. -1.
     999901    1    3    3    0    0 -0.60916983523E-01  0.12212001442E+00 -0.78346862939E-02  0.89055351277E+00  0.88000000000E+00 0. -1.
        -11    1    4    4    0    0  0.21519524067E-01 -0.35091546463E-01  0.12345867814E-01  0.42978926491E-01  0.51100000000E-03 0.  1.
         11    1    4    4    0    0  0.52905713706E-01 -0.67233550258E-01  0.19500049468E-02  0.85577032336E-01  0.51100000000E-03 0. -1.
</event>
<event>
 8    1  0.1108957E+005  0.1043930E+01  0.7957747E-01            NaN
         13   -1    0    0    0    0  0.00000000000E+00  0.00000000000E+00  0.74505805969E-08  0.10566000000E+00  0.10566000000E+00 0. -1.
     999900   -1    0    0    0    0 -0.00000000000E+00 -0.00000000000E+00 -0.74505805969E-08  0.93827000000E+00  0.93827000000E+00 0. -1.
     999902    2    1    2    0    0  0.54193388567E-02 -0.21752231508E-01  0.10072016660E-01  0.10193541108E+01  0.10190578143E+01 0.  0.
     999903    2    3    3    0    0 -0.12523127031E+00  0.29557688327E-02  0.24757235682E-01  0.12924416109E+00  0.19988117065E-01 0.  0.
         14    1    1    2    0    0 -0.54193388567E-02  0.21752231508E-01 -0.10072016660E-01  0.24575889177E-01  0.00000000000E+00 0.  1.
     999901    1    3    3    0    0  0.13065060917E+00 -0.24708000340E-01 -0.14685219022E-01  0.89010994973E+00  0.88000000000E+00 0. -1.
        -11    1    4    4    0    0 -0.77411656284E-01  0.11481944487E-01  0.14336291337E-01  0.79562490837E-01  0.51100000000E-03 0. -1.
         11    1    4    4    0    0 -0.47819614028E-01 -0.85261756547E-02  0.10420944345E-01  0.49681670253E-01  0.51100000000E-03 0.  1.
</event>
<event>
 8    1  0.1108957E+005  0.1043930E+01  0.7957747E-01            NaN
         13   -1    0    0    0    0  0.00000000000E+00  0.00000000000E+00  0.74505805969E-08  0.10566000000E+00  0.10566000000E+00 0. -1.
     999900   -1    0    0    0    0 -0.00000000000E+00 -0.00000000000E+00 -0.74505805969E-08  0.93827000000E+00  0.93827000000E+00 0.  1.
     999902    2    1    2    0    0  0.20714252798E-01  0.93946252653E-02  0.55790036957E-02  0.10205106803E+01  0.10202419243E+01 0.  0.
     999903    2    3    3    0    0 -0.10672515304E+00 -0.47735076240E-01 -0.46701460908E-01  0.12796496610E+00  0.22915285400E-01 0.  0.
         14    1    1    2    0    0 -0.20714252798E-01 -0.93946252653E-02 -0.55790036957E-02  0.23419319697E-01  0.00000000000E+00 0. -1.
     999901    1    3    3    0    0  0.12743940583E+00  0.57129701506E-01  0.52280464604E-01  0.89254571420E+00  0.88000000000E+00 0.  1.
        -11    1    4    4    0    0 -0.63530001934E-01 -0.16886008775E-01 -0.30472200234E-01  0.72456984109E-01  0.51100000000E-03 0.  1.
         11    1    4    4    0    0 -0.43195151103E-01 -0.30849067465E-01 -0.16229260674E-01  0.55507981996E-01  0.51100000000E-03 0. -1.
</event>
<event>
 8    1  0.1108957E+005  0.1043930E+01  0.7957747E-01            NaN
         13   -1    0    0    0    0  0.00000000000E+00  0.00000000000E+00  0.74505805969E-08  0.10566000000E+00  0.10566000000E+00 0.  1.
     999900   -1    0    0    0    0 -0.00000000000E+00 -0.00000000000E+00 -0.74505805969E-08  0.93827000000E+00  0.93827000000E+00 0. -1.
     999902    2    1    2    0    0  0.41609107516E-03 -0.39566642332E-02 -0.23899350385E-01  0.10197017670E+01  0.10194138936E+01 0.  0.
     999903    2    3    3    0    0  0.11966942607E+00 -0.21094988250E-01  0.39917535320E-01  0.12920321288E+00  0.18283613606E-01 0.  0.
         14    1    1    2    0    0 -0.41609107516E-03  0.39566642332E-02  0.23899350385E-01  0.24228232962E-01  0.00000000000E+00 0.  1.
     999901    1    3    3    0    0 -0.11925333500E+00  0.17138324017E-01 -0.63816885706E-01  0.89049855416E+00  0.88000000000E+00 0. -1.
        -11    1    4    4    0    0  0.13325671715E-01 -0.76545233251E-02  0.20110686281E-02  0.15507120043E-01  0.51100000000E-03 0.  1.
         11    1    4    4    0    0  0.10634375436E+00 -0.13440464925E-01  0.37906466692E-01  0.11369609284E+00  0.51100000000E-03 0. -1.
</event>
<event>
 8    1  0.1108957E+005  0.1043930E+01  0.7957747E-01            NaN
         13   -1    0    0    0    0  0.00000000000E+00  0.00000000000E+00  0.74505805969E-08  0.10566000000E+00  0.10566000000E+00 0. -1.
     999900   -1    0    0    0    0 -0.00000000000E+00 -0.00000000000E+00 -0.74505805969E-08  0.93827000000E+00  0.93827000000E+00 0.  1.
     999902    2    1    2    0    0  0.23549019012E-01  0.15018226101E-02  0.61409089447E-02  0.10195471673E+01  0.10192555636E+01 0.  0.
     999903    2    3    3    0    0 -0.59870663097E-01 -0.11196745810E+00  0.11107368325E-02  0.12833483365E+00  0.18638342675E-01 0.  0.
         14    1    1    2    0    0 -0.23549019012E-01 -0.15018226101E-02 -0.61409089447E-02  0.24382832696E-01  0.00000000000E+00 0.  1.
     999901    1    3    3    0    0  0.83419682109E-01  0.11346928071E+00  0.50301721122E-02  0.89121233366E+00  0.88000000000E+00 0. -1.
        -11    1    4    4    0    0 -0.23139076786E-01 -0.59096907125E-01 -0.50085770040E-02  0.63664811873E-01  0.51100000000E-03 0. -1.
         11    1    4    4    0    0 -0.36731586311E-01 -0.52870550978E-01  0.61193138365E-02  0.64670021776E-01  0.51100000000E-03 0.  1.
</event>
<event>
 8    1  0.1108957E+005  0.1043930E+01  0.7957747E-01            NaN
         13   -1    0    0    0    0  0.00000000000E+00  0.00000000000E+00  0.74505805969E-08  0.10566000000E+00  0.10566000000E+00 0.  1.
     999900   -1    0    0    0    0 -0.00000000000E+00 -0.00000000000E+00 -0.74505805969E-08  0.93827000000E+00  0.93827000000E+00 0. -1.
     999902    2    1    2    0    0  0.43273096243E-02  0.22318660398E-01 -0.89378530005E-02  0.10195018722E+01  0.10192091709E+01 0.  0.
     999903    2    3    3    0    0 -0.75097792814E-02 -0.67694350041E-01 -0.10810890782E+00  0.12928989924E+00  0.19733734626E-01 0.  0.
         14    1    1    2    0    0 -0.43273096243E-02 -0.22318660398E-01  0.89378530005E-02  0.24428127780E-01  0.00000000000E+00 0. -1.
     999901    1    3    3    0    0  0.11837088906E-01  0.90013010439E-01  0.99171054824E-01  0.89021197298E+00  0.88000000000E+00 0.  1.
        -11    1    4    4    0    0 -0.34413338713E-02 -0.51601473503E-01 -0.94870522866E-01  0.10805198784E+00  0.51100000000E-03 0. -1.
         11    1    4    4    0    0 -0.40684454101E-02 -0.16092876537E-01 -0.13238384959E-01  0.21237911400E-01  0.51100000000E-03 0.  1.
</event>
<event>
 8    1  0.1108957E+005  0.1043930E+01  0.7957747E-01            NaN
         13   -1    0    0    0    0  0.00000000000E+00  0.00000000000E+00  0.74505805969E-08  0.10566000000E+00  0.10566000000E+00 0.  1.
     999900   -1    0    0    0    0 -0.00000000000E+00 -0.00000000000E+00 -0.74505805969E-08  0.93827000000E+00  0.93827000000E+00 0. -1.
     999902    2    1    2    0    0 -0.15030399894E-01 -0.41730827881E-02  0.16598782702E-01  0.10211517839E+01  0.10208977023E+01 0.  0.
     999903    2    3    3    0    0 -0.76773608067E-01 -0.97989752023E-01  0.44078879499E-01  0.13358829497E+00  0.20166966513E-01 0.  0.
         14    1    1    2    0    0  0.15030399894E-01  0.41730827881E-02 -0.16598782702E-01  0.22778216087E-01  0.00000000000E+00 0. -1.
     999901    1    3    3    0    0  0.61743208173E-01  0.93816669235E-01 -0.27480096797E-01  0.88756348894E+00  0.88000000000E+00 0. -1.
        -11    1    4    4    0    0 -0.54357670575E-01 -0.56010130137E-01  0.32887276604E-01  0.84697845968E-01  0.51100000000E-03 0. -1.
         11    1    4    4    0    0 -0.22415937492E-01 -0.41979621886E-01  0.11191602896E-01  0.48890449003E-01  0.51100000000E-03 0.  1.
</event>
<event>
 8    1  0.1108957E+005  0.1043930E+01  0.7957747E-01            NaN
         13   -1    0    0    0    0  0.00000000000E+00  0.00000000000E+00  0.74505805969E-08  0.10566000000E+00  0.10566000000E+00 0. -1.
     999900   -1    0    0    0    0 -0.00000000000E+00 -0.00000000000E+00 -0.74505805969E-08  0.93827000000E+00  0.93827000000E+00 0. -1.
     999902    2    1    2    0    0  0.18950980792E-01  0.46480379694E-02 -0.14459115924E-01  0.10196439966E+01  0.10193547320E+01 0.  0.
     999903    2    3    3    0    0 -0.66427583803E-01  0.15161546669E-01 -0.10929542169E+00  0.13037803069E+00  0.20259449546E-01 0.  0.
         14    1    1    2    0    0 -0.18950980792E-01 -0.46480379694E-02  0.14459115924E-01  0.24286003443E-01  0.00000000000E+00 0. -1.
     999901    1    3    3    0    0  0.85378564595E-01 -0.10513508700E-01  0.94836305771E-01  0.88926596587E+00  0.88000000000E+00 0.  1.
        -11    1    4    4    0    0 -0.12892160602E-01  0.10372587288E-01 -0.34559229849E-01  0.38319705907E-01  0.51100000000E-03 0. -1.
         11    1    4    4    0    0 -0.53535423202E-01  0.47889593809E-02 -0.74736191845E-01  0.92058324783E-01  0.51100000000E-03 0.  1.
</event>
<event>
 8    1  0.1108957E+005  0.1043930E+01  0.7957747E-01            NaN
         13   -1    0    0    0    0  0.00000000000E+00  0.00000000000E+00  0.74505805969E-08  0.10566000000E+00  0.10566000000E+00 0. -1.
     999900   -1    0    0    0    0 -0.00000000000E+00 -0.00000000000E+00 -0.74505805969E-08  0.93827000000E+00  0.93827000000E+00 0.  1.
     999902    2    1    2    0    0  0.11562272133E-01  0.31054460696E-02 -0.21550281079E-01  0.10192775245E+01  0.10189793558E+01 0.  0.
     999903    2    3    3    0    0 -0.85889332089E-01  0.59580246762E-01  0.69890321207E-01  0.12739883209E+00  0.20470032954E-01 0.  0.
         14    1    1    2    0    0 -0.11562272133E-01 -0.31054460696E-02  0.21550281079E-01  0.24652475469E-01  0.00000000000E+00 0. -1.
     999901    1    3    3    0    0  0.97451604222E-01 -0.56474800692E-01 -0.91440602287E-01  0.89187869244E+00  0.88000000000E+00 0. -1.
        -11    1    4    4    0    0 -0.73494893851E-01  0.44243375062E-01  0.63261266343E-01  0.10658904540E+00  0.51100000000E-03 0.  1.
         11    1    4    4    0    0 -0.12394438238E-01  0.15336871700E-01  0.66290548642E-02  0.20809786692E-01  0.51100000000E-03 0. -1.
</event>
<event>
 8    1  0.1108957E+005  0.1043930E+01  0.7957747E-01            NaN
         13   -1    0    0    0    0  0.00000000000E+00  0.00000000000E+00  0.74505805969E-08  0.10566000000E+00  0.10566000000E+00 0.  1.
     999900   -1    0    0    0    0 -0.00000000000E+00 -0.00000000000E+00 -0.74505805969E-08  0.93827000000E+00  0.93827000000E+00 0.  1.
     999902    2    1    2    0    0 -0.20486527878E-01 -0.11302249235E-01  0.38173731438E-02  0.10202232288E+01  0.10199477563E+01 0.  0.
     999903    2    3    3    0    0 -0.68017369478E-01 -0.11246606301E+00 -0.14770454593E-02  0.13313736545E+00  0.21175422928E-01 0.  0.
         14    1    1    2    0    0  0.20486527878E-01  0.11302249235E-01 -0.38173731438E-02  0.23706771184E-01  0.00000000000E+00 0. -1.
     999901    1    3    3    0    0  0.47530841601E-01  0.10116381377E+00  0.52944186031E-02  0.88708586337E+00  0.88000000000E+00 0. -1.
        -11    1    4    4    0    0 -0.58809319640E-02 -0.20541900781E-01 -0.56343466501E-02  0.22103439362E-01  0.51100000000E-03 0. -1.
         11    1    4    4    0    0 -0.62136437514E-01 -0.91924162225E-01  0.41573011908E-02  0.11103392609E+00  0.51100000000E-03 0.  1.
</event>
<event>
 8    1  0.1108957E+005  0.1043930E+01  0.7957747E-01            NaN
         13   -1    0    0    0    0  0.00000000000E+00  0.00000000000E+00  0.74505805969E-08  0.10566000000E+00  0.10566000000E+00 0.  1.
     999900   -1    0    0    0    0 -0.00000000000E+00 -0.00000000000E+00 -0.74505805969E-08  0.93827000000E+00  0.93827000000E+00 0. -1.
     999902    2    1    2    0    0  0.74109386680E-02 -0.23845593114E-02  0.22547170508E-01  0.10200766348E+01  0.10197977043E+01 0.  0.
     999903    2    3    3    0    0 -0.46749396813E-01  0.10194555307E+00  0.65410352226E-01  0.13122604741E+00  0.19061989601E-01 0.  0.
         14    1    1    2    0    0 -0.74109386680E-02  0.23845593114E-02 -0.22547170508E-01  0.23853365234E-01  0.00000000000E+00 0. -1.
     999901    1    3    3    0    0  0.54160335481E-01 -0.10433011239E+00 -0.42863181718E-01  0.88885058735E+00  0.88000000000E+00 0.  1.
        -11    1    4    4    0    0 -0.29388785163E-02  0.19265678656E-01  0.17036717046E-01  0.25890427376E-01  0.51100000000E-03 0. -1.
         11    1    4    4    0    0 -0.43810518297E-01  0.82679874418E-01  0.48373635181E-01  0.10533562004E+00  0.51100000000E-03 0.  1.
</event>
<event>
 8    1  0.1108957E+005  0.1043930E+01  0.7957747E-01            NaN
         13   -1    0    0    0    0  0.00000000000E+00  0.00000000000E+00  0.74505805969E-08  0.10566000000E+00  0.10566000000E+00 0. -1.
     999900   -1    0    0    0    0 -0.00000000000E+00 -0.00000000000E+00 -0.74505805969E-08  0.93827000000E+00  0.93827000000E+00 0. -1.
     999902    2    1    2    0    0 -0.85549350708E-02  0.87485052561E-02  0.20629103691E-01  0.10199449385E+01  0.10196628827E+01 0.  0.
     999903    2    3    3    0    0  0.10573238420E+00  0.71805124928E-01 -0.71606035725E-02  0.12988314484E+00  0.21978262779E-01 0.  0.
         14    1    1    2    0    0  0.85549350708E-02 -0.87485052561E-02 -0.20629103691E-01  0.23985061546E-01  0.00000000000E+00 0.  1.
     999901    1    3    3    0    0 -0.11428731927E+00 -0.63056619672E-01  0.27789707263E-01  0.89006179362E+00  0.88000000000E+00 0.  1.
        -11    1    4    4    0    0  0.28866128149E-01  0.29454127050E-01  0.38924050927E-02  0.41427175779E-01  0.51100000000E-03 0.  1.
         11    1    4    4    0    0  0.76866256049E-01  0.42350997877E-01 -0.11053008665E-01  0.88455969057E-01  0.51100000000E-03 0. -1.
</event>
<event>
 8    1  0.1108957E+005  0.1043930E+01  0.7957747E-01            NaN
         13   -1    0    0    0    0  0.00000000000E+00  0.00000000000E+00  0.74505805969E-08  0.10566000000E+00  0.10566000000E+00 0. -1.
     999900   -1    0    0    0    0 -0.00000000000E+00 -0.00000000000E+00 -0.74505805969E-08  0.93827000000E+00  0.93827000000E+00 0.  1.
     999902    2    1    2    0    0 -0.84132913643E-02  0.16282928036E-01 -0.13905631994E-01  0.10209238309E+01  0.10206645799E+01 0.  0.
     999903    2    3    3    0    0 -0.11573997072E+00 -0.27624744167E-01 -0.54842134570E-01  0.13237293361E+00  0.18869724857E-01 0.  0.
         14    1    1    2    0    0  0.84132913643E-02 -0.16282928036E-01  0.13905631994E-01  0.23006169132E-01  0.00000000000E+00 0. -1.
     999901    1    3    3    0    0  0.10732667935E+00  0.43907672202E-01  0.40936502576E-01  0.88855089726E+00  0.88000000000E+00 0.  1.
        -11    1    4    4    0    0 -0.81868051805E-01 -0.28184403471E-01 -0.40266967524E-01  0.95490461827E-01  0.51100000000E-03 0. -1.
         11    1    4    4    0    0 -0.33871918911E-01  0.55965930465E-03 -0.14575167046E-01  0.36882471781E-01  0.51100000000E-03 0.  1.
</event>
<event>
 8    1  0.1108957E+005  0.1043930E+01  0.7957747E-01            NaN
         13   -1    0    0    0    0  0.00000000000E+00  0.00000000000E+00  0.74505805969E-08  0.10566000000E+00  0.10566000000E+00 0.  1.
     999900   -1    0    0    0    0 -0.00000000000E+00 -0.00000000000E+00 -0.74505805969E-08  0.93827000000E+00  0.93827000000E+00 0.  1.
     999902    2    1    2    0    0 -0.14007646607E-01  0.14610328821E-01  0.14346950655E-01  0.10191205086E+01  0.10188184824E+01 0.  0.
     999903    2    3    3    0    0 -0.35604757349E-01 -0.85896436448E-01 -0.85002327126E-01  0.12758345155E+00  0.20155519131E-01 0.  0.
         14    1    1    2    0    0  0.14007646607E-01 -0.14610328821E-01 -0.14346950655E-01  0.24809491426E-01  0.00000000000E+00 0. -1.
     999901    1    3    3    0    0  0.21597110742E-01  0.10050676527E+00  0.99349277781E-01  0.89153705703E+00  0.88000000000E+00 0. -1.
        -11    1    4    4    0    0 -0.23222035604E-01 -0.33252498868E-01 -0.30040677237E-01  0.50474696913E-01  0.51100000000E-03 0. -1.
         11    1    4    4    0    0 -0.12382721745E-01 -0.52643937580E-01 -0.54961649889E-01  0.77108754634E-01  0.51100000000E-03 0.  1.
</event>
<event>
 8    1  0.1108957E+005  0.1043930E+01  0.7957747E-01            NaN
         13   -1    0    0    0    0  0.00000000000E+00  0.00000000000E+00  0.74505805969E-08  0.10566000000E+00  0.10566000000E+00 0. -1.
     999900   -1    0    0    0    0 -0.00000000000E+00 -0.00000000000E+00 -0.74505805969E-08  0.93827000000E+00  0.93827000000E+00 0.  1.
     999902    2    1    2    0    0  0.21003404590E-01  0.10310986660E-01 -0.56988847247E-02  0.10198481243E+01  0.10195637596E+01 0.  0.
     999903    2    3    3    0    0 -0.86660947233E-01  0.68060575377E-01  0.63357996183E-01  0.12872777302E+00  0.20352940121E-01 0.  0.
         14    1    1    2    0    0 -0.21003404590E-01 -0.10310986660E-01  0.56988847247E-02  0.24081875704E-01  0.00000000000E+00 0.  1.
     999901    1    3    3    0    0  0.10766435182E+00 -0.57749588717E-01 -0.69056880907E-01  0.89112035127E+00  0.88000000000E+00 0. -1.
        -11    1    4    4    0    0 -0.47803615281E-01  0.45484368119E-01  0.46510943338E-01  0.80731297205E-01  0.51100000000E-03 0.  1.
         11    1    4    4    0    0 -0.38857331952E-01  0.22576207258E-01  0.16847052844E-01  0.47996475820E-01  0.51100000000E-03 0. -1.
</event>
<event>
 8    1  0.1108957E+005  0.1043930E+01  0.7957747E-01            NaN
         13   -1    0    0    0    0  0.00000000000E+00  0.00000000000E+00  0.74505805969E-08  0.10566000000E+00  0.10566000000E+00 0.  1.
     999900   -1    0    0    0    0 -0.00000000000E+00 -0.00000000000E+00 -0.74505805969E-08  0.93827000000E+00  0.93827000000E+00 0. -1.
     999902    2    1    2    0    0 -0.12686765889E-01  0.19823403268E-01  0.21781631929E-02  0.10202938891E+01  0.10200200754E+01 0.  0.
     999903    2    3    3    0    0  0.80835816206E-02 -0.33060755015E-01 -0.12347797078E+00  0.12955396880E+00  0.19469559554E-01 0.  0.
         14    1    1    2    0    0  0.12686765889E-01 -0.19823403268E-01 -0.21781631929E-02  0.23636110948E-01  0.00000000000E+00 0. -1.
     999901    1    3    3    0    0 -0.20770347509E-01  0.52884158283E-01  0.12565613397E+00  0.89073992026E+00  0.88000000000E+00 0.  1.
        -11    1    4    4    0    0  0.11998508430E-01 -0.22376664477E-01 -0.10337185034E+00  0.10644566634E+00  0.51100000000E-03 0.  1.
         11    1    4    4    0    0 -0.39149268097E-02 -0.10684090538E-01 -0.20106120435E-01  0.23108302458E-01  0.51100000000E-03 0. -1.
</event>
<event>
 8    1  0.1108957E+005  0.1043930E+01  0.7957747E-01            NaN
         13   -1    0    0    0    0  0.00000000000E+00  0.00000000000E+00  0.74505805969E-08  0.10566000000E+00  0.10566000000E+00 0. -1.
     999900   -1    0    0    0    0 -0.00000000000E+00 -0.00000000000E+00 -0.74505805969E-08  0.93827000000E+00  0.93827000000E+00 0.  1.
     999902    2    1    2    0    0  0.16131170206E-01  0.12235904797E-02  0.16601180507E-01  0.10207500298E+01  0.10204868016E+01 0.  0.
     999903    2    3    3    0    0  0.81688452790E-01 -0.81821754587E-01  0.62803268262E-01  0.13320909012E+00  0.20799238995E-01 0.  0.
         14    1    1    2    0    0 -0.16131170206E-01 -0.12235904797E-02 -0.16601180507E-01  0.23179970235E-01  0.00000000000E+00 0. -1.
     999901    1    3    3    0    0 -0.65557282584E-01  0.83045345067E-01 -0.46202087755E-01  0.88754093965E+00  0.88000000000E+00 0.  1.
        -11    1    4    4    0    0  0.22443345068E-01 -0.26393023164E-01  0.29502461119E-01  0.45507710805E-01  0.51100000000E-03 0. -1.
         11    1    4    4    0    0  0.59245107722E-01 -0.55428731423E-01  0.33300807143E-01  0.87701379313E-01  0.51100000000E-03 0.  1.
</event>
<event>
 8    1  0.1108957E+005  0.1043930E+01  0.7957747E-01            NaN
         13   -1    0    0    0    0  0.00000000000E+00  0.00000000000E+00  0.74505805969E-08  0.10566000000E+00  0.10566000000E+00 0.  1.
     999900   -1    0    0    0    0 -0.00000000000E+00 -0.00000000000E+00 -0.74505805969E-08  0.93827000000E+00  0.93827000000E+00 0.  1.
     999902    2    1    2    0    0 -0.23109001566E-01  0.60293298353E-02  0.73052393135E-03  0.10200362260E+01  0.10197563385E+01 0.  0.
     999903    2    3    3    0    0  0.88043124768E-01 -0.84681320697E-01  0.31998286453E-01  0.12786982318E+00  0.20106801113E-01 0.  0.
         14    1    1    2    0    0  0.23109001566E-01 -0.60293298353E-02 -0.73052393135E-03  0.23893774019E-01  0.00000000000E+00 0. -1.
     999901    1    3    3    0    0 -0.11115212633E+00  0.90710650532E-01 -0.31267762522E-01  0.89216640280E+00  0.88000000000E+00 0. -1.
        -11    1    4    4    0    0  0.24946276294E-01 -0.13159832917E-01  0.10498752546E-01  0.30099548657E-01  0.51100000000E-03 0.  1.
         11    1    4    4    0    0  0.63096848475E-01 -0.71521487780E-01  0.21499533907E-01  0.97770274526E-01  0.51100000000E-03 0. -1.
</event>
<event>
 8    1  0.1108957E+005  0.1043930E+01  0.7957747E-01            NaN
         13   -1    0    0    0    0  0.00000000000E+00  0.00000000000E+00  0.74505805969E-08  0.10566000000E+00  0.10566000000E+00 0. -1.
     999900   -1    0    0    0    0 -0.00000000000E+00 -0.00000000000E+00 -0.74505805969E-08  0.93827000000E+00  0.93827000000E+00 0. -1.
     999902    2    1    2    0    0 -0.20972045290E-01 -0.65319063963E-02 -0.56278765723E-02  0.10212547827E+01  0.10210030194E+01 0.  0.
     999903    2    3    3    0    0  0.58866365725E-01  0.10365957369E+00 -0.47676465060E-01  0.12980404489E+00  0.19117753960E-01 0.  0.
         14    1    1    2    0    0  0.20972045290E-01  0.65319063963E-02  0.56278765723E-02  0.22675217298E-01  0.00000000000E+00 0.  1.
     999901    1    3    3    0    0 -0.79838411015E-01 -0.11019148009E+00  0.42048588487E-01  0.89145073782E+00  0.88000000000E+00 0.  1.
        -11    1    4    4    0    0  0.51653724989E-01  0.84457675654E-01 -0.32212558272E-01  0.10411107681E+00  0.51100000000E-03 0.  1.
         11    1    4    4    0    0  0.72126407357E-02  0.19201898039E-01 -0.15463906788E-01  0.25692968081E-01  0.51100000000E-03 0. -1.
</event>
<event>
 8    1  0.1108957E+005  0.1043930E+01  0.7957747E-01            NaN
         13   -1    0    0    0    0  0.00000000000E+00  0.00000000000E+00  0.74505805969E-08  0.10566000000E+00  0.10566000000E+00 0. -1.
     999900   -1    0    0    0    0 -0.00000000000E+00 -0.00000000000E+00 -0.74505805969E-08  0.93827000000E+00  0.93827000000E+00 0. -1.
     999902    2    1    2    0    0 -0.49572045793E-02  0.86072330054E-02 -0.21510083900E-01  0.10202373419E+01  0.10199622012E+01 0.  0.
     999903    2    3    3    0    0  0.95831786253E-01 -0.34375578027E-01 -0.80624505027E-01  0.13147389899E+00  0.20485694595E-01 0.  0.
         14    1    1    2    0    0  0.49572045793E-02 -0.86072330054E-02  0.21510083900E-01  0.23692658074E-01  0.00000000000E+00 0. -1.
     999901    1    3    3    0    0 -0.10078899083E+00  0.42982811032E-01  0.59114421128E-01  0.88876344294E+00  0.88000000000E+00 0.  1.
        -11    1    4    4    0    0  0.34125270518E-01 -0.13244407034E-01 -0.41809955467E-01  0.55572312376E-01  0.51100000000E-03 0. -1.
         11    1    4    4    0    0  0.61706515735E-01 -0.21131170993E-01 -0.38814549560E-01  0.75901586612E-01  0.51100000000E-03 0.  1.
</event>
<event>
 8    1  0.1108957E+005  0.1043930E+01  0.7957747E-01            NaN
         13   -1    0    0    0    0  0.00000000000E+00  0.00000000000E+00  0.74505805969E-08  0.10566000000E+00  0.10566000000E+00 0.  1.
     999900   -1    0    0    0    0 -0.00000000000E+00 -0.00000000000E+00 -0.74505805969E-08  0.93827000000E+00  0.93827000000E+00 0. -1.
     999902    2    1    2    0    0 -0.23556170538E-01  0.33428735490E-02 -0.25557115202E-02  0.10200009458E+01  0.10197202213E+01 0.  0.
     999903    2    3    3    0    0  0.60473846108E-01  0.10908554056E+00 -0.27873141841E-01  0.12933629083E+00  0.19855046352E-01 0.  0.
         14    1    1    2    0    0  0.23556170538E-01 -0.33428735490E-02  0.25557115202E-02  0.23929054209E-01  0.00000000000E+00 0. -1.
     999901    1    3    3    0    0 -0.84030016646E-01 -0.10574266701E+00  0.25317430321E-01  0.89066465496E+00  0.88000000000E+00 0. -1.
        -11    1    4    4    0    0  0.40623691284E-01  0.58726370960E-01 -0.22825460775E-01  0.74968885013E-01  0.51100000000E-03 0. -1.
         11    1    4    4    0    0  0.19850154825E-01  0.50359169603E-01 -0.50476810667E-02  0.54367405813E-01  0.51100000000E-03 0.  1.
</event>
<event>
 8    1  0.1108957E+005  0.1043930E+01  0.7957747E-01            NaN
         13   -1    0    0    0    0  0.00000000000E+00  0.00000000000E+00  0.74505805969E-08  0.10566000000E+00  0.10566000000E+00 0.  1.
     999900   -1    0    0    0    0 -0.00000000000E+00 -0.00000000000E+00 -0.74505805969E-08  0.93827000000E+00  0.93827000000E+00 0. -1.
     999902    2    1    2    0    0  0.77007274002E-02  0.76567245314E-02  0.18367857695E-01  0.10225921269E+01  0.10223694798E+01 0.  0.
     999903    2    3    3    0    0 -0.58075900806E-01  0.13820734269E-01  0.11882939785E+00  0.13441586009E+00  0.19579956601E-01 0.  0.
         14    1    1    2    0    0 -0.77007274002E-02 -0.76567245314E-02 -0.18367857695E-01  0.21337873121E-01  0.00000000000E+00 0. -1.
     999901    1    3    3    0    0  0.65776628206E-01 -0.61640097373E-02 -0.10046154016E+00  0.88817626679E+00  0.88000000000E+00 0. -1.
        -11    1    4    4    0    0 -0.38715965687E-01  0.26260647154E-02  0.59788468193E-01  0.71279339677E-01  0.51100000000E-03 0.  1.
         11    1    4    4    0    0 -0.19359935119E-01  0.11194669553E-01  0.59040929657E-01  0.63136520414E-01  0.51100000000E-03 0. -1.
</event>
<event>
 8    1  0.1108957E+005  0.1043930E+01  0.7957747E-01            NaN
         13   -1    0    0    0    0  0.00000000000E+00  0.00000000000E+00  0.74505805969E-08  0.10566000000E+00  0.10566000000E+00 0.  1.
     999900   -1    0    0    0    0 -0.00000000000E+00 -0.00000000000E+00 -0.74505805969E-08  0.93827000000E+00  0.93827000000E+00 0.  1.
     999902    2    1    2    0    0 -0.14303618514E-01  0.17639805037E-01 -0.86422888565E-02  0.10196309181E+01  0.10193413382E+01 0.  0.
     999903    2    3    3    0    0  0.77094672862E-02  0.11332843035E+00  0.62810124608E-01  0.13129182949E+00  0.19739901883E-01 0.  0.
         14    1    1    2    0    0  0.14303618514E-01 -0.17639805037E-01  0.86422888565E-02  0.24299081897E-01  0.00000000000E+00 0. -1.
     999901    1    3    3    0    0 -0.22013085800E-01 -0.95688625316E-01 -0.71452413465E-01  0.88833908861E+00  0.88000000000E+00 0.  1.
        -11    1    4    4    0    0  0.20768761795E-02  0.69363782571E-01  0.48676356049E-01  0.84766128296E-01  0.51100000000E-03 0.  1.
         11    1    4    4    0    0  0.56325911067E-02  0.43964647783E-01  0.14133768560E-01  0.46525701198E-01  0.51100000000E-03 0. -1.
</event>
<event>
 8    1  0.1108957E+005  0.1043930E+01  0.7957747E-01            NaN
         13   -1    0    0    0    0  0.00000000000E+00  0.00000000000E+00  0.74505805969E-08  0.10566000000E+00  0.10566000000E+00 0.  1.
     999900   -1    0    0    0    0 -0.00000000000E+00 -0.00000000000E+00 -0.74505805969E-08  0.93827000000E+00  0.93827000000E+00 0. -1.
     999902    2    1    2    0    0  0.69593248864E-02  0.73979687969E-02 -0.20312640396E-01  0.10212195287E+01  0.10209669732E+01 0.  0.
     999903    2    3    3    0    0  0.41481017549E-03  0.26736604518E-01 -0.13000930998E+00  0.13417377297E+00  0.19625559417E-01 0.  0.
         14    1    1    2    0    0 -0.69593248864E-02 -0.73979687969E-02  0.20312640396E-01  0.22710471264E-01  0.00000000000E+00 0.  1.
     999901    1    3    3    0    0  0.65445147109E-02 -0.19338635721E-01  0.10969666959E+00  0.88704575577E+00  0.88000000000E+00 0.  1.
        -11    1    4    4    0    0  0.27462054696E-02  0.94001609221E-02 -0.89636916396E-01  0.90171739319E-01  0.51100000000E-03 0.  1.
         11    1    4    4    0    0 -0.23313952941E-02  0.17336443596E-01 -0.40372393585E-01  0.44002033651E-01  0.51100000000E-03 0. -1.
</event>
<event>
 8    1  0.1108957E+005  0.1043930E+01  0.7957747E-01            NaN
         13   -1    0    0    0    0  0.00000000000E+00  0.00000000000E+00  0.74505805969E-08  0.10566000000E+00  0.10566000000E+00 0. -1.
     999900   -1    0    0    0    0 -0.00000000000E+00 -0.00000000000E+00 -0.74505805969E-08  0.93827000000E+00  0.93827000000E+00 0.  1.
     999902    2    1    2    0    0  0.17023058584E-01  0.15703002231E-01  0.57633208949E-02  0.10200640269E+01  0.10197847981E+01 0.  0.
     999903    2    3    3    0    0 -0.75781531526E-01  0.74530960219E-01  0.73259007922E-01  0.13066586618E+00  0.20223298227E-01 0.  0.
         14    1    1    2    0    0 -0.17023058584E-01 -0.15703002231E-01 -0.57633208949E-02  0.23865973065E-01  0.00000000000E+00 0. -1.
     999901    1    3    3    0    0  0.92804590109E-01 -0.58827957988E-01 -0.67495687027E-01  0.88939816075E+00  0.88000000000E+00 0.  1.
        -11    1    4    4    0    0 -0.59983254357E-01  0.56920469894E-01  0.46218203007E-01  0.94732856530E-01  0.51100000000E-03 0. -1.
         11    1    4    4    0    0 -0.15798277168E-01  0.17610490326E-01  0.27040804915E-01  0.35933009650E-01  0.51100000000E-03 0.  1.
</event>
<event>
 8    1  0.1108957E+005  0.1043930E+01  0.7957747E-01            NaN
         13   -1    0    0    0    0  0.00000000000E+00  0.00000000000E+00  0.74505805969E-08  0.10566000000E+00  0.10566000000E+00 0. -1.
     999900   -1    0    0    0    0 -0.00000000000E+00 -0.00000000000E+00 -0.74505805969E-08  0.93827000000E+00  0.93827000000E+00 0. -1.
     999902    2    1    2    0    0  0.36356364841E-02 -0.18600798152E-01 -0.12708255677E-01  0.10211109880E+01  0.10208559852E+01 0.  0.
     999903    2    3    3    0    0  0.96745966672E-01 -0.89246342163E-01  0.49293215769E-02  0.13320817207E+00  0.19885352345E-01 0.  0.
         14    1    1    2    0    0 -0.36356364841E-02  0.18600798152E-01  0.12708255677E-01  0.22819011961E-01  0.00000000000E+00 0. -1.
     999901    1    3    3    0    0 -0.93110330188E-01  0.70645544011E-01 -0.17637577254E-01  0.88790281597E+00  0.88000000000E+00 0. -1.
        -11    1    4    4    0    0  0.20655276683E-01 -0.31128993154E-01  0.19964467460E-02  0.37415258788E-01  0.51100000000E-03 0. -1.
         11    1    4    4    0    0  0.76090689990E-01 -0.58117349009E-01  0.29328748308E-02  0.95792913280E-01  0.51100000000E-03 0.  1.
</event>
<event>
 8    1  0.1108957E+005  0.1043930E+01  0.7957747E-01            NaN
         13   -1    0    0    0    0  0.00000000000E+00  0.00000000000E+00  0.74505805969E-08  0.10566000000E+00  0.10566000000E+00 0. -1.
     999900   -1    0    0    0    0 -0.00000000000E+00 -0.00000000000E+00 -0.74505805969E-08  0.93827000000E+00  0.93827000000E+00 0. -1.
     999902    2    1    2    0    0 -0.63506022660E-02 -0.10358480091E-01  0.20332864228E-01  0.10202434294E+01  0.10199684317E+01 0.  0.
     999903    2    3    3    0    0  0.98030320017E-01  0.80965517637E-01 -0.57409980067E-02  0.12899975016E+00  0.21038483656E-01 0.  0.
         14    1    1    2    0    0  0.63506022660E-02  0.10358480091E-01 -0.20332864228E-01  0.23686570597E-01  0.00000000000E+00 0.  1.
     999901    1    3    3    0    0 -0.10438092228E+00 -0.91323997728E-01  0.26073862235E-01  0.89124367924E+00  0.88000000000E+00 0. -1.
        -11    1    4    4    0    0  0.53110939020E-01  0.46833312127E-01  0.70100773015E-02  0.71158508087E-01  0.51100000000E-03 0.  1.
         11    1    4    4    0    0  0.44919380997E-01  0.34132205510E-01 -0.12751075308E-01  0.57841242074E-01  0.51100000000E-03 0. -1.
</event>
<event>
 8    1  0.1108957E+005  0.1043930E+01  0.7957747E-01            NaN
         13   -1    0    0    0    0  0.00000000000E+00  0.00000000000E+00  0.74505805969E-08  0.10566000000E+00  0.10566000000E+00 0.  1.
     999900   -1    0    0    0    0 -0.00000000000E+00 -0.00000000000E+00 -0.74505805969E-08  0.93827000000E+00  0.93827000000E+00 0.  1.
     999902    2    1    2    0    0 -0.21381137901E-01  0.31824772688E-02 -0.88645609209E-02  0.10205663175E+01  0.10202988517E+01 0.  0.
     999903    2    3    3    0    0  0.15436096622E-01 -0.95827095407E-01  0.83765535532E-01  0.12942169456E+00  0.17669317633E-01 0.  0.
         14    1    1    2    0    0  0.21381137901E-01 -0.31824772688E-02  0.88645609209E-02  0.23363682497E-01  0.00000000000E+00 0.  1.
     999901    1    3    3    0    0 -0.36817234523E-01  0.99009572675E-01 -0.92630096453E-01  0.89114462295E+00  0.88000000000E+00 0.  1.
        -11    1    4    4    0    0 -0.24939255151E-02 -0.22698804059E-01  0.14109991848E-01  0.26847874425E-01  0.51100000000E-03 0. -1.
         11    1    4    4    0    0  0.17930022137E-01 -0.73128291347E-01  0.69655543683E-01  0.10257382013E+00  0.51100000000E-03 0.  1.
</event>
<event>
 8    1  0.1108957E+005  0.1043930E+01  0.7957747E-01            NaN
         13   -1    0    0    0    0  0.00000000000E+00  0.00000000000E+00  0.74505805969E-08  0.10566000000E+00  0.10566000000E+00 0. -1.
     999900   -1    0    0    0    0 -0.00000000000E+00 -0.00000000000E+00 -0.74505805969E-08  0.93827000000E+00  0.93827000000E+00 0. -1.
     999902    2    1    2    0    0 -0.83085864241E-02  0.15881764667E-01  0.15394365749E-01  0.10203026947E+01  0.10200290875E+01 0.  0.
     999903    2    3    3    0    0 -0.12721941940E+00  0.27126947663E-01 -0.87655808508E-02  0.13190529303E+00  0.20037938000E-01 0.  0.
         14    1    1    2    0    0  0.83085864241E-02 -0.15881764667E-01 -0.15394365749E-01  0.23627305266E-01  0.00000000000E+00 0.  1.
     999901    1    3    3    0    0  0.11891083297E+00 -0.11245182995E-01  0.24159946600E-01  0.88839740171E+00  0.88000000000E+00 0. -1.
        -11    1    4    4    0    0 -0.90062496547E-01  0.98778685213E-02 -0.45091794046E-02  0.90716147354E-01  0.51100000000E-03 0.  1.
         11    1    4    4    0    0 -0.37156922852E-01  0.17249079141E-01 -0.42564014462E-02  0.41189145673E-01  0.51100000000E-03 0. -1.
</event>
<event>
 8    1  0.1108957E+005  0.1043930E+01  0.7957747E-01            NaN
         13   -1    0    0    0    0  0.00000000000E+00  0.00000000000E+00  0.74505805969E-08  0.10566000000E+00  0.10566000000E+00 0. -1.
     999900   -1    0    0    0    0 -0.00000000000E+00 -0.00000000000E+00 -0.74505805969E-08  0.93827000000E+00  0.93827000000E+00 0. -1.
     999902    2    1    2    0    0  0.79547663892E-02 -0.21594671667E-01  0.54129055700E-03  0.10209104182E+01  0.10206508613E+01 0.  0.
     999903    2    3    3    0    0 -0.82508226587E-01 -0.82109914339E-01 -0.59678575444E-01  0.13216293999E+00  0.18864380505E-01 0.  0.
         14    1    1    2    0    0 -0.79547663892E-02  0.21594671667E-01 -0.54129055700E-03  0.23019581842E-01  0.00000000000E+00 0.  1.
     999901    1    3    3    0    0  0.90462992976E-01  0.60515242672E-01  0.60219866001E-01  0.88874747817E+00  0.88000000000E+00 0.  1.
        -11    1    4    4    0    0 -0.52471284449E-01 -0.39024193042E-01 -0.33541956764E-01  0.73494539381E-01  0.51100000000E-03 0.  1.
         11    1    4    4    0    0 -0.30036942138E-01 -0.43085721297E-01 -0.26136618680E-01  0.58668400606E-01  0.51100000000E-03 0. -1.
</event>
<event>
 8    1  0.1108957E+005  0.1043930E+01  0.7957747E-01            NaN
         13   -1    0    0    0    0  0.00000000000E+00  0.00000000000E+00  0.74505805969E-08  0.10566000000E+00  0.10566000000E+00 0.  1.
     999900   -1    0    0    0    0 -0.00000000000E+00 -0.00000000000E+00 -0.74505805969E-08  0.93827000000E+00  0.93827000000E+00 0. -1.
     999902    2    1    2    0    0 -0.22709357538E-01 -0.79548600480E-02  0.20877185100E-02  0.10197772924E+01  0.10194912323E+01 0.  0.
     999903    2    3    3    0    0 -0.72446010112E-01 -0.21594097248E-01  0.10641664517E+00  0.13211503206E+00  0.20375227894E-01 0.  0.
         14    1    1    2    0    0  0.22709357538E-01  0.79548600480E-02 -0.20877185100E-02  0.24152707648E-01  0.00000000000E+00 0. -1.
     999901    1    3    3    0    0  0.49736652574E-01  0.13639237200E-01 -0.10432892666E+00  0.88766226029E+00  0.88000000000E+00 0. -1.
        -11    1    4    4    0    0 -0.40393031418E-01 -0.11367463621E-01  0.41629582403E-01  0.59110908201E-01  0.51100000000E-03 0.  1.
         11    1    4    4    0    0 -0.32052978694E-01 -0.10226633626E-01  0.64787062764E-01  0.73004123863E-01  0.51100000000E-03 0. -1.
</event>
<event>
 8    1  0.1108957E+005  0.1043930E+01  0.7957747E-01            NaN
         13   -1    0    0    0    0  0.00000000000E+00  0.00000000000E+00  0.74505805969E-08  0.10566000000E+00  0.10566000000E+00 0. -1.
     999900   -1    0    0    0    0 -0.00000000000E+00 -0.00000000000E+00 -0.74505805969E-08  0.93827000000E+00  0.93827000000E+00 0. -1.
     999902    2    1    2    0    0 -0.10043419919E-01 -0.10334063429E-01 -0.96946429814E-03  0.10294869044E+01  0.10293855853E+01 0.  0.
     999903    2    3    3    0    0 -0.11389021339E+00 -0.79423200539E-01  0.98725392737E-02  0.14062526472E+00  0.19974297381E-01 0.  0.
         14    1    1    2    0    0  0.10043419919E-01  0.10334063429E-01  0.96946429814E-03  0.14443095640E-01  0.00000000000E+00 0.  1.
     999901    1    3    3    0    0  0.10384679347E+00  0.69089137110E-01 -0.10842003572E-01  0.88886163964E+00  0.88000000000E+00 0. -1.
        -11    1    4    4    0    0 -0.33443377964E-01 -0.13768166672E-01 -0.12534651169E-02  0.36191908474E-01  0.51100000000E-03 0. -1.
         11    1    4    4    0    0 -0.80446835428E-01 -0.65655033867E-01  0.11126004391E-01  0.10443335625E+00  0.51100000000E-03 0.  1.
</event>
<event>
 8    1  0.1108957E+005  0.1043930E+01  0.7957747E-01            NaN
         13   -1    0    0    0    0  0.00000000000E+00  0.00000000000E+00  0.74505805969E-08  0.10566000000E+00  0.10566000000E+00 0. -1.
     999900   -1    0    0    0    0 -0.00000000000E+00 -0.00000000000E+00 -0.74505805969E-08  0.93827000000E+00  0.93827000000E+00 0. -1.
     999902    2    1    2    0    0 -0.22015875599E-01  0.79660708097E-02 -0.42476124996E-02  0.10201350578E+01  0.10198575081E+01 0.  0.
     999903    2    3    3    0    0  0.10027923270E+00 -0.74691318196E-01  0.16283287419E-01  0.12760502731E+00  0.19574984567E-01 0.  0.
         14    1    1    2    0    0  0.22015875599E-01 -0.79660708097E-02  0.42476124996E-02  0.23794942204E-01  0.00000000000E+00 0.  1.
     999901    1    3    3    0    0 -0.12229510830E+00  0.82657389006E-01 -0.20530899919E-01  0.89253003049E+00  0.88000000000E+00 0.  1.
        -11    1    4    4    0    0  0.20569019126E-01 -0.77394228072E-02 -0.13465918629E-02  0.22024024243E-01  0.51100000000E-03 0.  1.
         11    1    4    4    0    0  0.79710213572E-01 -0.66951895389E-01  0.17629879282E-01  0.10558100307E+00  0.51100000000E-03 0. -1.
</event>
<event>
 8    1  0.1108957E+005  0.1043930E+01  0.7957747E-01            NaN
         13   -1    0    0    0    0  0.00000000000E+00  0.00000000000E+00  0.74505805969E-08  0.10566000000E+00  0.10566000000E+00 0. -1.
     999900   -1    0    0    0    0 -0.00000000000E+00 -0.00000000000E+00 -0.74505805969E-08  0.93827000000E+00  0.93827000000E+00 0.  1.
     999902    2    1    2    0    0  0.13414880273E-02  0.24255719100E-01  0.12295541856E-01  0.10167028105E+01  0.10163381745E+01 0.  0.
     999903    2    3    3    0    0 -0.86523585959E-01  0.52812773462E-01  0.78045662957E-01  0.12942672324E+00  0.19612017080E-01 0.  0.
         14    1    1    2    0    0 -0.13414880273E-02 -0.24255719100E-01 -0.12295541856E-01  0.27227189512E-01  0.00000000000E+00 0.  1.
     999901    1    3    3    0    0  0.87865073986E-01 -0.28557054361E-01 -0.65750121101E-01  0.88727608725E+00  0.88000000000E+00 0.  1.
        -11    1    4    4    0    0 -0.25553274298E-01  0.18185084232E-01  0.13595066998E-01  0.34187045552E-01  0.51100000000E-03 0.  1.
         11    1    4    4    0    0 -0.60970311660E-01  0.34627689229E-01  0.64450595959E-01  0.95239677686E-01  0.51100000000E-03 0. -1.
</event>
<event>
 8    1  0.1108957E+005  0.1043930E+01  0.7957747E-01            NaN
         13   -1    0    0    0    0  0.00000000000E+00  0.00000000000E+00  0.74505805969E-08  0.10566000000E+00  0.10566000000E+00 0. -1.
     999900   -1    0    0    0    0 -0.00000000000E+00 -0.00000000000E+00 -0.74505805969E-08  0.93827000000E+00  0.93827000000E+00 0.  1.
     999902    2    1    2    0    0  0.19526224390E-01 -0.18668776744E-02 -0.13972737808E-01  0.10198468924E+01  0.10195624982E+01 0.  0.
     999903    2    3    3    0    0  0.23086707171E-02 -0.12317733785E+00 -0.39352862149E-01  0.13099548600E+00  0.20813050540E-01 0.  0.
         14    1    1    2    0    0 -0.19526224390E-01  0.18668776744E-02  0.13972737808E-01  0.24083107628E-01  0.00000000000E+00 0. -1.
     999901    1    3    3    0    0  0.17217553673E-01  0.12131046017E+00  0.25380124341E-01  0.88885140637E+00  0.88000000000E+00 0. -1.
        -11    1    4    4    0    0  0.11042198680E-01 -0.48188050986E-01 -0.16257700045E-01  0.52044138395E-01  0.51100000000E-03 0.  1.
         11    1    4    4    0    0 -0.87335279629E-02 -0.74989286862E-01 -0.23095162104E-01  0.78951347603E-01  0.51100000000E-03 0. -1.
</event>
<event>
 8    1  0.1108957E+005  0.1043930E+01  0.7957747E-01            NaN
         13   -1    0    0    0    0  0.00000000000E+00  0.00000000000E+00  0.74505805969E-08  0.10566000000E+00  0.10566000000E+00 0. -1.
     999900   -1    0    0    0    0 -0.00000000000E+00 -0.00000000000E+00 -0.74505805969E-08  0.93827000000E+00  0.93827000000E+00 0. -1.
     999902    2    1    2    0    0  0.17664025514E-01 -0.15445200511E-01 -0.22520736635E-02  0.10203579010E+01  0.10200855857E+01 0.  0.
     999903    2    3    3    0    0 -0.77023075873E-01 -0.10206862791E+00 -0.20103419711E-01  0.13087044413E+00  0.19296803940E-01 0.  0.
         14    1    1    2    0    0 -0.17664025514E-01  0.15445200511E-01  0.22520736635E-02  0.23572099015E-01  0.00000000000E+00 0. -1.
     999901    1    3    3    0    0  0.94687101387E-01  0.86623427401E-01  0.17851346047E-01  0.88948745685E+00  0.88000000000E+00 0.  1.
        -11    1    4    4    0    0 -0.64167680631E-01 -0.94368101284E-01 -0.15382697528E-01  0.11515085011E+00  0.51100000000E-03 0. -1.
         11    1    4    4    0    0 -0.12855395242E-01 -0.77005266286E-02 -0.47207221832E-02  0.15719594019E-01  0.51100000000E-03 0.  1.
</event>
<event>
 8    1  0.1108957E+005  0.1043930E+01  0.7957747E-01            NaN
         13   -1    0    0    0    0  0.00000000000E+00  0.00000000000E+00  0.74505805969E-08  0.10566000000E+00  0.10566000000E+00 0. -1.
     999900   -1    0    0    0    0 -0.00000000000E+00 -0.00000000000E+00 -0.74505805969E-08  0.93827000000E+00  0.93827000000E+00 0.  1.
     999902    2    1    2    0    0  0.14649054412E-01 -0.10944031695E-01  0.15769807986E-01  0.10197834999E+01  0.10194975886E+01 0.  0.
     999903    2    3    3    0    0  0.61913056819E-01  0.34915880385E-01 -0.10578229950E+00  0.12899063264E+00  0.19908367958E-01 0.  0.
         14    1    1    2    0    0 -0.14649054412E-01  0.10944031695E-01 -0.15769807986E-01  0.24146500136E-01  0.00000000000E+00 0.  1.
     999901    1    3    3    0    0 -0.47264002407E-01 -0.45859912080E-01  0.12155210748E+00  0.89079286722E+00  0.88000000000E+00 0. -1.
        -11    1    4    4    0    0  0.20503833928E-01  0.16038164794E-02 -0.32511024842E-01  0.38473462157E-01  0.51100000000E-03 0.  1.
         11    1    4    4    0    0  0.41409222891E-01  0.33312063905E-01 -0.73271274655E-01  0.90517170485E-01  0.51100000000E-03 0. -1.
</event>
<event>
 8    1  0.1108957E+005  0.1043930E+01  0.7957747E-01            NaN
         13   -1    0    0    0    0  0.00000000000E+00  0.00000000000E+00  0.74505805969E-08  0.10566000000E+00  0.10566000000E+00 0.  1.
     999900   -1    0    0    0    0 -0.00000000000E+00 -0.00000000000E+00 -0.74505805969E-08  0.93827000000E+00  0.93827000000E+00 0. -1.
     999902    2    1    2    0    0 -0.14437941400E-01 -0.11520425508E-01  0.15220590395E-01  0.10199959087E+01  0.10197150646E+01 0.  0.
     999903    2    3    3    0    0  0.74201726787E-01  0.10232522352E+00 -0.48986169996E-02  0.12801911240E+00  0.19711647924E-01 0.  0.
         14    1    1    2    0    0  0.14437941400E-01  0.11520425508E-01 -0.15220590395E-01  0.23934091329E-01  0.00000000000E+00 0. -1.
     999901    1    3    3    0    0 -0.88639668187E-01 -0.11384564903E+00  0.20119207395E-01  0.89197679627E+00  0.88000000000E+00 0.  1.
        -11    1    4    4    0    0  0.46589110964E-01  0.79212507973E-01 -0.43599213567E-02  0.92002373420E-01  0.51100000000E-03 0. -1.
         11    1    4    4    0    0  0.27612615824E-01  0.23112715550E-01 -0.53869564290E-03  0.36016738980E-01  0.51100000000E-03 0.  1.
</event>
<event>
 8    1  0.1108957E+005  0.1043930E+01  0.7957747E-01            NaN
         13   -1    0    0    0    0  0.00000000000E+00  0.00000000000E+00  0.74505805969E-08  0.10566000000E+00  0.10566000000E+00 0. -1.
     999900   -1    0    0    0    0 -0.00000000000E+00 -0.00000000000E+00 -0.74505805969E-08  0.93827000000E+00  0.93827000000E+00 0.  1.
     999902    2    1    2    0    0 -0.23521885679E-01  0.79336204263E-03 -0.97204605988E-04  0.10203945379E+01  0.10201230783E+01 0.  0.
     999903    2    3    3    0    0 -0.31309566471E-01  0.34532831310E-01  0.12122423701E+00  0.13139628592E+00  0.19921418750E-01 0.  0.
         14    1    1    2    0    0  0.23521885679E-01 -0.79336204263E-03  0.97204605988E-04  0.23535462136E-01  0.00000000000E+00 0.  1.
     999901    1    3    3    0    0  0.77876807920E-02 -0.33739469268E-01 -0.12132144162E+00  0.88899825194E+00  0.88000000000E+00 0.  1.
        -11    1    4    4    0    0 -0.63768853739E-02  0.15847324316E-01  0.25249063890E-01  0.30488993151E-01  0.51100000000E-03 0.  1.
         11    1    4    4    0    0 -0.24932681097E-01  0.18685506995E-01  0.95975173119E-01  0.10090729277E+00  0.51100000000E-03 0. -1.
</event>
<event>
 8    1  0.1108957E+005  0.1043930E+01  0.7957747E-01            NaN
         13   -1    0    0    0    0  0.00000000000E+00  0.00000000000E+00  0.74505805969E-08  0.10566000000E+00  0.10566000000E+00 0. -1.
     999900   -1    0    0    0    0 -0.00000000000E+00 -0.00000000000E+00 -0.74505805969E-08  0.93827000000E+00  0.93827000000E+00 0.  1.
     999902    2    1    2    0    0 -0.12520728686E-01  0.18876837547E-01 -0.33356633842E-02  0.10210339241E+01  0.10207771764E+01 0.  0.
     999903    2    3    3    0    0 -0.10311510332E+00 -0.64089686850E-01 -0.46437006924E-01  0.13145620926E+00  0.19599154211E-01 0.  0.
         14    1    1    2    0    0  0.12520728686E-01 -0.18876837547E-01  0.33356633842E-02  0.22896075927E-01  0.00000000000E+00 0. -1.
     999901    1    3    3    0    0  0.90594374637E-01  0.82966524397E-01  0.43101343540E-01  0.88957771482E+00  0.88000000000E+00 0. -1.
        -11    1    4    4    0    0 -0.49466970690E-01 -0.40739982617E-01 -0.29450986249E-01  0.70529065533E-01  0.51100000000E-03 0. -1.
         11    1    4    4    0    0 -0.53648132633E-01 -0.23349704233E-01 -0.16986020675E-01  0.60927143722E-01  0.51100000000E-03 0.  1.
</event>
<event>
 8    1  0.1108957E+005  0.1043930E+01  0.7957747E-01            NaN
         13   -1    0    0    0    0  0.00000000000E+00  0.00000000000E+00  0.74505805969E-08  0.10566000000E+00  0.10566000000E+00 0. -1.
     999900   -1    0    0    0    0 -0.00000000000E+00 -0.00000000000E+00 -0.74505805969E-08  0.93827000000E+00  0.93827000000E+00 0. -1.
     999902    2    1    2    0    0 -0.13018261466E-01  0.12506168718E-01 -0.15250319139E-01  0.10202984190E+01  0.10200247115E+01 0.  0.
     999903    2    3    3    0    0 -0.10951364020E+00 -0.50676034837E-01 -0.49768792219E-01  0.13210087680E+00  0.20307906705E-01 0.  0.
         14    1    1    2    0    0  0.13018261466E-01 -0.12506168718E-01  0.15250319139E-01  0.23631581018E-01  0.00000000000E+00 0.  1.
     999901    1    3    3    0    0  0.96495378733E-01  0.63182203555E-01  0.34518473080E-01  0.88819754219E+00  0.88000000000E+00 0.  1.
        -11    1    4    4    0    0 -0.62732588039E-01 -0.39795703554E-01 -0.28522834091E-01  0.79579449665E-01  0.51100000000E-03 0. -1.
         11    1    4    4    0    0 -0.46781052160E-01 -0.10880331283E-01 -0.21245958127E-01  0.52521427130E-01  0.51100000000E-03 0.  1.
</event>
<event>
 8    1  0.1108957E+005  0.1043930E+01  0.7957747E-01            NaN
         13   -1    0    0    0    0  0.00000000000E+00  0.00000000000E+00  0.74505805969E-08  0.10566000000E+00  0.10566000000E+00 0.  1.
     999900   -1    0    0    0    0 -0.00000000000E+00 -0.00000000000E+00 -0.74505805969E-08  0.93827000000E+00  0.93827000000E+00 0.  1.
     999902    2    1    2    0    0  0.89239625212E-02  0.12571317169E-01  0.17720112914E-01  0.10204421835E+01  0.10201718347E+01 0.  0.
     999903    2    3    3    0    0  0.13931486595E-01 -0.11733455573E+00 -0.46457981304E-01  0.12857927986E+00  0.20317551361E-01 0.  0.
         14    1    1    2    0    0 -0.89239625212E-02 -0.12571317169E-01 -0.17720112914E-01  0.23487816504E-01  0.00000000000E+00 0.  1.
     999901    1    3    3    0    0 -0.50075240733E-02  0.12990587290E+00  0.64178094217E-01  0.89186290364E+00  0.88000000000E+00 0. -1.
        -11    1    4    4    0    0  0.90769981961E-02 -0.74057553321E-01 -0.39664599278E-01  0.84501210980E-01  0.51100000000E-03 0. -1.
         11    1    4    4    0    0  0.48544883984E-02 -0.43277002413E-01 -0.67933820252E-02  0.44078068876E-01  0.51100000000E-03 0.  1.
</event>
<event>
 8    1  0.1108957E+005  0.1043930E+01  0.7957747E-01            NaN
         13   -1    0    0    0    0  0.00000000000E+00  0.00000000000E+00  0.74505805969E-08  0.10566000000E+00  0.10566000000E+00 0. -1.
     999900   -1    0    0    0    0 -0.00000000000E+00 -0.00000000000E+00 -0.74505805969E-08  0.93827000000E+00  0.93827000000E+00 0. -1.
     999902    2    1    2    0    0  0.12530112087E-01  0.19989780246E-01  0.64873232574E-02  0.10194620539E+01  0.10191683860E+01 0.  0.
     999903    2    3    3    0    0 -0.24445973251E-01  0.12061011465E+00  0.43483260831E-01  0.13218510617E+00  0.20921351659E-01 0.  0.
         14    1    1    2    0    0 -0.12530112087E-01 -0.19989780246E-01 -0.64873232574E-02  0.24467946098E-01  0.00000000000E+00 0. -1.
     999901    1    3    3    0    0  0.36976085337E-01 -0.10062033441E+00 -0.36995937573E-01  0.88727694773E+00  0.88000000000E+00 0.  1.
        -11    1    4    4    0    0 -0.12225042162E-01  0.99210868790E-01  0.37946152025E-01  0.10692249397E+00  0.51100000000E-03 0.  1.
         11    1    4    4    0    0 -0.12220931089E-01  0.21399245864E-01  0.55371088053E-02  0.25262612200E-01  0.51100000000E-03 0. -1.
</event>
<event>
 8    1  0.1108957E+005  0.1043930E+01  0.7957747E-01            NaN
         13   -1    0    0    0    0  0.00000000000E+00  0.00000000000E+00  0.74505805969E-08  0.10566000000E+00  0.10566000000E+00 0.  1.
     999900   -1    0    0    0    0 -0.00000000000E+00 -0.00000000000E+00 -0.74505805969E-08  0.93827000000E+00  0.93827000000E+00 0. -1.
     999902    2    1    2    0    0 -0.16141941607E-01 -0.21460249574E-02 -0.18660619302E-01  0.10191633609E+01  0.10188623900E+01 0.  0.
     999903    2    3    3    0    0  0.32918708046E-01  0.69200347558E-01 -0.10396406301E+00  0.13080874150E+00  0.20738153556E-01 0.  0.
         14    1    1    2    0    0  0.16141941607E-01  0.21460249574E-02  0.18660619302E-01  0.24766639148E-01  0.00000000000E+00 0.  1.
     999901    1    3    3    0    0 -0.49060649654E-01 -0.71346372516E-01  0.85303443711E-01  0.88835461935E+00  0.88000000000E+00 0.  1.
        -11    1    4    4    0    0  0.10118768585E-01  0.58835166727E-02 -0.20278827573E-01  0.23420017396E-01  0.51100000000E-03 0.  1.
         11    1    4    4    0    0  0.22799939461E-01  0.63316830886E-01 -0.83685235440E-01  0.10738872410E+00  0.51100000000E-03 0. -1.
</event>
<event>
 8    1  0.1108957E+005  0.1043930E+01  0.7957747E-01            NaN
         13   -1    0    0    0    0  0.00000000000E+00  0.00000000000E+00  0.74505805969E-08  0.10566000000E+00  0.10566000000E+00 0. -1.
     999900   -1    0    0    0    0 -0.00000000000E+00 -0.00000000000E+00 -0.74505805969E-08  0.93827000000E+00  0.93827000000E+00 0. -1.
     999902    2    1    2    0    0  0.79544429843E-02  0.20642659744E-01  0.26767540975E-02  0.10216464281E+01  0.10214033809E+01 0.  0.
     999903    2    3    3    0    0  0.10901488646E-01 -0.11639594948E+00 -0.51605141624E-01  0.12938257155E+00  0.20245979050E-01 0.  0.
         14    1    1    2    0    0 -0.79544429843E-02 -0.20642659744E-01 -0.26767540975E-02  0.22283571908E-01  0.00000000000E+00 0.  1.
     999901    1    3    3    0    0 -0.29470456616E-02  0.13703860922E+00  0.54281895721E-01  0.89226385655E+00  0.88000000000E+00 0.  1.
        -11    1    4    4    0    0  0.13153319042E-01 -0.76603806433E-01 -0.42140750143E-01  0.88415252674E-01  0.51100000000E-03 0.  1.
         11    1    4    4    0    0 -0.22518303961E-02 -0.39792143047E-01 -0.94643914811E-02  0.40967318871E-01  0.51100000000E-03 0. -1.
</event>
<event>
 8    1  0.1108957E+005  0.1043930E+01  0.7957747E-01            NaN
         13   -1    0    0    0    0  0.00000000000E+00  0.00000000000E+00  0.74505805969E-08  0.10566000000E+00  0.10566000000E+00 0. -1.
     999900   -1    0    0    0    0 -0.00000000000E+00 -0.00000000000E+00 -0.74505805969E-08  0.93827000000E+00  0.93827000000E+00 0.  1.
     999902    2    1    2    0    0  0.89992047140E-02  0.28125295955E-02 -0.20277632619E-01  0.10215675674E+01  0.10213227777E+01 0.  0.
     999903    2    3    3    0    0  0.45010967681E-01 -0.36342489554E-01 -0.11974032771E+00  0.13436815895E+00  0.19242980593E-01 0.  0.
         14    1    1    2    0    0 -0.89992047140E-02 -0.28125295955E-02  0.20277632619E-01  0.22362432623E-01  0.00000000000E+00 0. -1.
     999901    1    3    3    0    0 -0.36011762967E-01  0.39155019149E-01  0.99462695087E-01  0.88719940843E+00  0.88000000000E+00 0. -1.
        -11    1    4    4    0    0  0.22296929770E-01 -0.24324724101E-01 -0.48765339053E-01  0.58882634909E-01  0.51100000000E-03 0. -1.
         11    1    4    4    0    0  0.22714037911E-01 -0.12017765453E-01 -0.70974988653E-01  0.75485524042E-01  0.51100000000E-03 0.  1.
</event>
<event>
 8    1  0.1108957E+005  0.1043930E+01  0.7957747E-01            NaN
         13   -1    0    0    0    0  0.00000000000E+00  0.00000000000E+00  0.74505805969E-08  0.10566000000E+00  0.10566000000E+00 0. -1.
     999900   -1    0    0    0    0 -0.00000000000E+00 -0.00000000000E+00 -0.74505805969E-08  0.93827000000E+00  0.93827000000E+00 0.  1.
     999902    2    1    2    0    0 -0.14893594159E-01  0.19444325888E-01 -0.28794781801E-01  0.10061273491E+01  0.10054169295E+01 0.  0.
     999903    2    3    3    0    0  0.50062812663E-01 -0.95315881427E-01  0.31559555605E-01  0.11425746733E+00  0.21618529681E-01 0.  0.
         14    1    1    2    0    0  0.14893594159E-01 -0.19444325888E-01  0.28794781801E-01  0.37802650902E-01  0.00000000000E+00 0. -1.
     999901    1    3    3    0    0 -0.64956406822E-01  0.11476020732E+00 -0.60354337407E-01  0.89186988177E+00  0.88000000000E+00 0.  1.
        -11    1    4    4    0    0  0.30099680266E-01 -0.72807895719E-01  0.29390774666E-01  0.84089590246E-01  0.51100000000E-03 0.  1.
         11    1    4    4    0    0  0.19963132397E-01 -0.22507985708E-01  0.21687809392E-02  0.30167877080E-01  0.51100000000E-03 0. -1.
</event>
<event>
 8    1  0.1108957E+005  0.1043930E+01  0.7957747E-01            NaN
         13   -1    0    0    0    0  0.00000000000E+00  0.00000000000E+00  0.74505805969E-08  0.10566000000E+00  0.10566000000E+00 0.  1.
     999900   -1    0    0    0    0 -0.00000000000E+00 -0.00000000000E+00 -0.74505805969E-08  0.93827000000E+00  0.93827000000E+00 0.  1.
     999902    2    1    2    0    0 -0.94316230854E-02 -0.20466137282E-01 -0.49224018553E-02  0.10208638272E+01  0.10206032066E+01 0.  0.
     999903    2    3    3    0    0 -0.15750471093E-01 -0.12856706406E+00  0.26017660529E-01  0.13368682923E+00  0.20437278411E-01 0.  0.
         14    1    1    2    0    0  0.94316230854E-02  0.20466137282E-01  0.49224018553E-02  0.23066172836E-01  0.00000000000E+00 0.  1.
     999901    1    3    3    0    0  0.63188480076E-02  0.10810092678E+00 -0.30940062384E-01  0.88717699794E+00  0.88000000000E+00 0.  1.
        -11    1    4    4    0    0 -0.42309369976E-02 -0.10105056017E+00  0.17343957111E-01  0.10261671652E+00  0.51100000000E-03 0. -1.
         11    1    4    4    0    0 -0.11519534095E-01 -0.27516503884E-01  0.86737034178E-02  0.31070112709E-01  0.51100000000E-03 0.  1.
</event>
<event>
 8    1  0.1108957E+005  0.1043930E+01  0.7957747E-01            NaN
         13   -1    0    0    0    0  0.00000000000E+00  0.00000000000E+00  0.74505805969E-08  0.10566000000E+00  0.10566000000E+00 0. -1.
     999900   -1    0    0    0    0 -0.00000000000E+00 -0.00000000000E+00 -0.74505805969E-08  0.93827000000E+00  0.93827000000E+00 0. -1.
     999902    2    1    2    0    0  0.15648932369E-01 -0.41498356796E-02  0.60690876839E-02  0.10266400016E+01  0.10264943978E+01 0.  0.
     999903    2    3    3    0    0 -0.44898645433E-01  0.83960368979E-01 -0.92968102422E-01  0.13465469767E+00  0.20581244282E-01 0.  0.
         14    1    1    2    0    0 -0.15648932369E-01  0.41498356796E-02 -0.60690876839E-02  0.17289998432E-01  0.00000000000E+00 0.  1.
     999901    1    3    3    0    0  0.60547577802E-01 -0.88110204659E-01  0.99037190106E-01  0.89198530390E+00  0.88000000000E+00 0.  1.
        -11    1    4    4    0    0 -0.26350955317E-01  0.52379921593E-01 -0.70445536640E-01  0.91656226116E-01  0.51100000000E-03 0.  1.
         11    1    4    4    0    0 -0.18547690116E-01  0.31580447386E-01 -0.22522565782E-01  0.42998471556E-01  0.51100000000E-03 0. -1.
</event>
<event>
 8    1  0.1108957E+005  0.1043930E+01  0.7957747E-01            NaN
         13   -1    0    0    0    0  0.00000000000E+00  0.00000000000E+00  0.74505805969E-08  0.10566000000E+00  0.10566000000E+00 0.  1.
     999900   -1    0    0    0    0 -0.00000000000E+00 -0.00000000000E+00 -0.74505805969E-08  0.93827000000E+00  0.93827000000E+00 0. -1.
     999902    2    1    2    0    0 -0.64243183028E-02 -0.74100653696E-02 -0.20980556263E-01  0.10207704517E+01  0.10205076925E+01 0.  0.
     999903    2    3    3    0    0  0.61127912813E-01 -0.72552844530E-01 -0.91041369562E-01  0.13301181159E+00  0.20076704812E-01 0.  0.
         14    1    1    2    0    0  0.64243183028E-02  0.74100653696E-02  0.20980556263E-01  0.23159548258E-01  0.00000000000E+00 0.  1.
     999901    1    3    3    0    0 -0.67552231116E-01  0.65142779161E-01  0.70060813300E-01  0.88775864015E+00  0.88000000000E+00 0.  1.
        -11    1    4    4    0    0  0.33118855931E-01 -0.27248602016E-01 -0.49250530636E-01  0.65308658070E-01  0.51100000000E-03 0.  1.
         11    1    4    4    0    0  0.28009056882E-01 -0.45304242515E-01 -0.41790838927E-01  0.67703153519E-01  0.51100000000E-03 0. -1.
</event>
<event>
 8    1  0.1108957E+005  0.1043930E+01  0.7957747E-01            NaN
         13   -1    0    0    0    0  0.00000000000E+00  0.00000000000E+00  0.74505805969E-08  0.10566000000E+00  0.10566000000E+00 0. -1.
     999900   -1    0    0    0    0 -0.00000000000E+00 -0.00000000000E+00 -0.74505805969E-08  0.93827000000E+00  0.93827000000E+00 0. -1.
     999902    2    1    2    0    0  0.12247775728E-01  0.16276308318E-01 -0.10656901132E-01  0.10209409643E+01  0.10206821037E+01 0.  0.
     999903    2    3    3    0    0  0.11040676929E+00 -0.38881891113E-01 -0.58740284549E-01  0.13246495066E+00  0.19876769395E-01 0.  0.
         14    1    1    2    0    0 -0.12247775728E-01 -0.16276308318E-01  0.10656901132E-01  0.22989035745E-01  0.00000000000E+00 0.  1.
     999901    1    3    3    0    0 -0.98158993562E-01  0.55158199431E-01  0.48083383417E-01  0.88847601360E+00  0.88000000000E+00 0.  1.
        -11    1    4    4    0    0  0.48863190299E-01 -0.16602367158E-01 -0.15014063359E-01  0.53748797019E-01  0.51100000000E-03 0. -1.
         11    1    4    4    0    0  0.61543578991E-01 -0.22279523954E-01 -0.43726221190E-01  0.78716153636E-01  0.51100000000E-03 0.  1.
</event>
<event>
 7    1  0.1108957E+005  0.1043930E+01  0.7957747E-01            NaN
         13   -1    0    0    0    0  0.00000000000E+00  0.00000000000E+00  0.74505805969E-08  0.10566000000E+00  0.10566000000E+00 0. -1.
     999900   -1    0    0    0    0 -0.00000000000E+00 -0.00000000000E+00 -0.74505805969E-08  0.93827000000E+00  0.93827000000E+00 0. -1.
     999903    2    1    2    0    0  0.58348893581E-01 -0.66676307323E-02  0.94037803380E-01  0.11262920747E+00  0.19828747537E-01 0.  0.
         14    1    1    2    0    0 -0.71559116165E-02 -0.28288018532E-01  0.28335120435E-01  0.40673063735E-01  0.00000000000E+00 0. -1.
     999901    1    1    2    0    0 -0.51192981964E-01  0.34955649264E-01 -0.12237292381E+00  0.89062772880E+00  0.88000000000E+00 0.  1.
        -11    1    3    3    0    0  0.24053761208E-01 -0.22425024841E-02  0.21817827600E-01  0.32555966701E-01  0.51100000000E-03 0.  1.
         11    1    3    3    0    0  0.34295132373E-01 -0.44251282482E-02  0.72219975780E-01  0.80073240768E-01  0.51100000000E-03 0. -1.
</event>
<event>
 8    1  0.1108957E+005  0.1043930E+01  0.7957747E-01            NaN
         13   -1    0    0    0    0  0.00000000000E+00  0.00000000000E+00  0.74505805969E-08  0.10566000000E+00  0.10566000000E+00 0. -1.
     999900   -1    0    0    0    0 -0.00000000000E+00 -0.00000000000E+00 -0.74505805969E-08  0.93827000000E+00  0.93827000000E+00 0.  1.
     999902    2    1    2    0    0 -0.23866759695E-02 -0.21667835789E-01  0.11701517467E-01  0.10191890049E+01  0.10188886646E+01 0.  0.
     999903    2    3    3    0    0 -0.51125421409E-01 -0.10256584595E+00  0.63724265747E-01  0.13260775099E+00  0.19760367135E-01 0.  0.
         14    1    1    2    0    0  0.23866759695E-02  0.21667835789E-01 -0.11701517467E-01  0.24740995149E-01  0.00000000000E+00 0.  1.
     999901    1    3    3    0    0  0.48738745440E-01  0.80898010157E-01 -0.52022748281E-01  0.88658125386E+00  0.88000000000E+00 0.  1.
        -11    1    4    4    0    0 -0.86447353052E-02 -0.33528786463E-01  0.13027957768E-01  0.36998645580E-01  0.51100000000E-03 0.  1.
         11    1    4    4    0    0 -0.42480686104E-01 -0.69037059483E-01  0.50696307980E-01  0.95609105412E-01  0.51100000000E-03 0. -1.
</event>
<event>
 8    1  0.1108957E+005  0.1043930E+01  0.7957747E-01            NaN
         13   -1    0    0    0    0  0.00000000000E+00  0.00000000000E+00  0.74505805969E-08  0.10566000000E+00  0.10566000000E+00 0. -1.
     999900   -1    0    0    0    0 -0.00000000000E+00 -0.00000000000E+00 -0.74505805969E-08  0.93827000000E+00  0.93827000000E+00 0. -1.
     999902    2    1    2    0    0  0.10176395849E-02 -0.20486997534E-01 -0.11054064160E-01  0.10206288199E+01  0.10203627997E+01 0.  0.
     999903    2    3    3    0    0 -0.49398078905E-01 -0.10059715663E+00 -0.70354657462E-01  0.13356853865E+00  0.18188418537E-01 0.  0.
         14    1    1    2    0    0 -0.10176395849E-02  0.20486997534E-01  0.11054064160E-01  0.23301180072E-01  0.00000000000E+00 0. -1.
     999901    1    3    3    0    0  0.50415718490E-01  0.80110159092E-01  0.59300593303E-01  0.88706028128E+00  0.88000000000E+00 0.  1.
        -11    1    4    4    0    0 -0.29495285412E-01 -0.76577797608E-01 -0.55061273916E-01  0.98823762094E-01  0.51100000000E-03 0. -1.
         11    1    4    4    0    0 -0.19902793493E-01 -0.24019359018E-01 -0.15293383547E-01  0.34744776553E-01  0.51100000000E-03 0.  1.
</event>
<event>
 8    1  0.1108957E+005  0.1043930E+01  0.7957747E-01            NaN
         13   -1    0    0    0    0  0.00000000000E+00  0.00000000000E+00  0.74505805969E-08  0.10566000000E+00  0.10566000000E+00 0. -1.
     999900   -1    0    0    0    0 -0.00000000000E+00 -0.00000000000E+00 -0.74505805969E-08  0.93827000000E+00  0.93827000000E+00 0. -1.
     999902    2    1    2    0    0  0.88690772572E-02  0.21959381233E-01 -0.69883213501E-02  0.10192376613E+01  0.10189385156E+01 0.  0.
     999903    2    3    3    0    0 -0.98640249219E-01 -0.40488464524E-01 -0.69069952788E-01  0.12833243756E+00  0.18147771914E-01 0.  0.
         14    1    1    2    0    0 -0.88690772572E-02 -0.21959381233E-01  0.69883213501E-02  0.24692338707E-01  0.00000000000E+00 0. -1.
     999901    1    3    3    0    0  0.10750932648E+00  0.62447845757E-01  0.62081631438E-01  0.89090522374E+00  0.88000000000E+00 0.  1.
        -11    1    4    4    0    0 -0.46389429227E-01 -0.93278492333E-02 -0.30139730853E-01  0.56103942929E-01  0.51100000000E-03 0. -1.
         11    1    4    4    0    0 -0.52250819992E-01 -0.31160615291E-01 -0.38930221935E-01  0.72228494627E-01  0.51100000000E-03 0.  1.
</event>
<event>
 8    1  0.1108957E+005  0.1043930E+01  0.7957747E-01            NaN
         13   -1    0    0    0    0  0.00000000000E+00  0.00000000000E+00  0.74505805969E-08  0.10566000000E+00  0.10566000000E+00 0.  1.
     999900   -1    0    0    0    0 -0.00000000000E+00 -0.00000000000E+00 -0.74505805969E-08  0.93827000000E+00  0.93827000000E+00 0. -1.
     999902    2    1    2    0    0 -0.22501032230E-01 -0.60335670610E-02 -0.56026545494E-03  0.10206273332E+01  0.10203612787E+01 0.  0.
     999903    2    3    3    0    0  0.92416709427E-01  0.23977075130E-01  0.83897336447E-01  0.12864089131E+00  0.19848615576E-01 0.  0.
         14    1    1    2    0    0  0.22501032230E-01  0.60335670610E-02  0.56026545494E-03  0.23302666806E-01  0.00000000000E+00 0.  1.
     999901    1    3    3    0    0 -0.11491774166E+00 -0.30010642191E-01 -0.84457601902E-01  0.89198644189E+00  0.88000000000E+00 0. -1.
        -11    1    4    4    0    0  0.13880939021E-01  0.89358644097E-02  0.22048451555E-01  0.27548602103E-01  0.51100000000E-03 0.  1.
         11    1    4    4    0    0  0.78535770405E-01  0.15041210720E-01  0.61848884892E-01  0.10109228920E+00  0.51100000000E-03 0. -1.
</event>
<event>
 8    1  0.1108957E+005  0.1043930E+01  0.7957747E-01            NaN
         13   -1    0    0    0    0  0.00000000000E+00  0.00000000000E+00  0.74505805969E-08  0.10566000000E+00  0.10566000000E+00 0.  1.
     999900   -1    0    0    0    0 -0.00000000000E+00 -0.00000000000E+00 -0.74505805969E-08  0.93827000000E+00  0.93827000000E+00 0.  1.
     999902    2    1    2    0    0 -0.16445591165E-01  0.14357194140E-01 -0.44231785435E-02  0.10216555527E+01  0.10214127067E+01 0.  0.
     999903    2    3    3    0    0  0.17320952211E-01  0.56412253201E-02  0.12826269164E+00  0.13102561404E+00  0.19610065213E-01 0.  0.
         14    1    1    2    0    0  0.16445591165E-01 -0.14357194140E-01  0.44231785435E-02  0.22274447261E-01  0.00000000000E+00 0. -1.
     999901    1    3    3    0    0 -0.33766543376E-01  0.87159688198E-02 -0.13268587019E+00  0.89062993870E+00  0.88000000000E+00 0.  1.
        -11    1    4    4    0    0  0.10434396469E-02  0.56854700665E-02  0.77446224136E-01  0.77663325258E-01  0.51100000000E-03 0. -1.
         11    1    4    4    0    0  0.16277512564E-01 -0.44244746366E-04  0.50816467508E-01  0.53362288780E-01  0.51100000000E-03 0.  1.
</event>
<event>
 8    1  0.1108957E+005  0.1043930E+01  0.7957747E-01            NaN
         13   -1    0    0    0    0  0.00000000000E+00  0.00000000000E+00  0.74505805969E-08  0.10566000000E+00  0.10566000000E+00 0. -1.
     999900   -1    0    0    0    0 -0.00000000000E+00 -0.00000000000E+00 -0.74505805969E-08  0.93827000000E+00  0.93827000000E+00 0.  1.
     999902    2    1    2    0    0  0.93300107477E-02  0.19951214986E-01 -0.11620310727E-01  0.10190275563E+01  0.10187232347E+01 0.  0.
     999903    2    3    3    0    0  0.11211224627E+00  0.60908683288E-01 -0.26615495000E-01  0.13197256496E+00  0.20720759248E-01 0.  0.
         14    1    1    2    0    0 -0.93300107477E-02 -0.19951214986E-01  0.11620310727E-01  0.24902443683E-01  0.00000000000E+00 0. -1.
     999901    1    3    3    0    0 -0.10278223552E+00 -0.40957468302E-01  0.14995184273E-01  0.88705499136E+00  0.88000000000E+00 0. -1.
        -11    1    4    4    0    0  0.69686770662E-01  0.29488751892E-01 -0.22836301940E-01  0.79041699758E-01  0.51100000000E-03 0. -1.
         11    1    4    4    0    0  0.42425475606E-01  0.31419931396E-01 -0.37791930598E-02  0.52930865197E-01  0.51100000000E-03 0.  1.
</event>
<event>
 8    1  0.1108957E+005  0.1043930E+01  0.7957747E-01            NaN
         13   -1    0    0    0    0  0.00000000000E+00  0.00000000000E+00  0.74505805969E-08  0.10566000000E+00  0.10566000000E+00 0.  1.
     999900   -1    0    0    0    0 -0.00000000000E+00 -0.00000000000E+00 -0.74505805969E-08  0.93827000000E+00  0.93827000000E+00 0. -1.
     999902    2    1    2    0    0  0.30840345399E-02 -0.16906847128E-01  0.14313198872E-01  0.10215643922E+01  0.10213195323E+01 0.  0.
     999903    2    3    3    0    0  0.54625457424E-01 -0.18412537525E-01 -0.11549601903E+00  0.13054855712E+00  0.19509823556E-01 0.  0.
         14    1    1    2    0    0 -0.30840345399E-02  0.16906847128E-01 -0.14313198872E-01  0.22365607767E-01  0.00000000000E+00 0. -1.
     999901    1    3    3    0    0 -0.51541422884E-01  0.15056903976E-02  0.12980921791E+00  0.89101583512E+00  0.88000000000E+00 0.  1.
        -11    1    4    4    0    0  0.22007936589E-01 -0.87312835742E-02 -0.68856338847E-01  0.72815115918E-01  0.51100000000E-03 0. -1.
         11    1    4    4    0    0  0.32617520835E-01 -0.96812539510E-02 -0.46639680188E-01  0.57733441197E-01  0.51100000000E-03 0.  1.
</event>
<event>
 8    1  0.1108957E+005  0.1043930E+01  0.7957747E-01            NaN
         13   -1    0    0    0    0  0.00000000000E+00  0.00000000000E+00  0.74505805969E-08  0.10566000000E+00  0.10566000000E+00 0. -1.
     999900   -1    0    0    0    0 -0.00000000000E+00 -0.00000000000E+00 -0.74505805969E-08  0.93827000000E+00  0.93827000000E+00 0.  1.
     999902    2    1    2    0    0 -0.19474185788E-01  0.12414954699E-01  0.62950508850E-02  0.10199925257E+01  0.10197116012E+01 0.  0.
     999903    2    3    3    0    0  0.85877148758E-01 -0.58821225710E-01  0.72502184157E-01  0.12838898058E+00  0.19807633758E-01 0.  0.
         14    1    1    2    0    0  0.19474185788E-01 -0.12414954699E-01 -0.62950508850E-02  0.23937474343E-01  0.00000000000E+00 0. -1.
     999901    1    3    3    0    0 -0.10535133455E+00  0.71236180409E-01 -0.66207133272E-01  0.89160354507E+00  0.88000000000E+00 0. -1.
        -11    1    4    4    0    0  0.43016578489E-01 -0.41201623209E-01  0.38869993354E-01  0.71127612671E-01  0.51100000000E-03 0.  1.
         11    1    4    4    0    0  0.42860570268E-01 -0.17619602501E-01  0.33632190803E-01  0.57261367913E-01  0.51100000000E-03 0. -1.
</event>
<event>
 8    1  0.1108957E+005  0.1043930E+01  0.7957747E-01            NaN
         13   -1    0    0    0    0  0.00000000000E+00  0.00000000000E+00  0.74505805969E-08  0.10566000000E+00  0.10566000000E+00 0. -1.
     999900   -1    0    0    0    0 -0.00000000000E+00 -0.00000000000E+00 -0.74505805969E-08  0.93827000000E+00  0.93827000000E+00 0. -1.
     999902    2    1    2    0    0 -0.23301885812E-01 -0.50474796548E-02 -0.18583108269E-02  0.10200153967E+01  0.10197350152E+01 0.  0.
     999903    2    3    3    0    0 -0.35681911650E-01 -0.54737964231E-01  0.11195923257E+00  0.13120898216E+00  0.20285060839E-01 0.  0.
         14    1    1    2    0    0  0.23301885812E-01  0.50474796548E-02  0.18583108269E-02  0.23914603329E-01  0.00000000000E+00 0. -1.
     999901    1    3    3    0    0  0.12380025839E-01  0.49690484577E-01 -0.11381754340E+00  0.88880641451E+00  0.88000000000E+00 0. -1.
        -11    1    4    4    0    0 -0.18158630713E-01 -0.27999994468E-01  0.37655174150E-01  0.50318076482E-01  0.51100000000E-03 0.  1.
         11    1    4    4    0    0 -0.17523280937E-01 -0.26737969763E-01  0.74304058422E-01  0.80890905675E-01  0.51100000000E-03 0. -1.
</event>
<event>
 8    1  0.1108957E+005  0.1043930E+01  0.7957747E-01            NaN
         13   -1    0    0    0    0  0.00000000000E+00  0.00000000000E+00  0.74505805969E-08  0.10566000000E+00  0.10566000000E+00 0.  1.
     999900   -1    0    0    0    0 -0.00000000000E+00 -0.00000000000E+00 -0.74505805969E-08  0.93827000000E+00  0.93827000000E+00 0.  1.
     999902    2    1    2    0    0 -0.18915128767E-02  0.12900215468E-01  0.19815282998E-01  0.10202099911E+01  0.10199342073E+01 0.  0.
     999903    2    3    3    0    0 -0.40662047612E-01 -0.11050217409E+00 -0.46825359277E-01  0.12826140556E+00  0.19855510356E-01 0.  0.
         14    1    1    2    0    0  0.18915128767E-02 -0.12900215468E-01 -0.19815282998E-01  0.23720008861E-01  0.00000000000E+00 0. -1.
     999901    1    3    3    0    0  0.38770534735E-01  0.12340238955E+00  0.66640642275E-01  0.89194858558E+00  0.88000000000E+00 0. -1.
        -11    1    4    4    0    0 -0.12549562285E-01 -0.37608746776E-01 -0.59756805492E-02  0.40098369376E-01  0.51100000000E-03 0. -1.
         11    1    4    4    0    0 -0.28112485327E-01 -0.72893427310E-01 -0.40849678728E-01  0.88163036185E-01  0.51100000000E-03 0.  1.
</event>
<event>
 8    1  0.1108957E+005  0.1043930E+01  0.7957747E-01            NaN
         13   -1    0    0    0    0  0.00000000000E+00  0.00000000000E+00  0.74505805969E-08  0.10566000000E+00  0.10566000000E+00 0.  1.
     999900   -1    0    0    0    0 -0.00000000000E+00 -0.00000000000E+00 -0.74505805969E-08  0.93827000000E+00  0.93827000000E+00 0. -1.
     999902    2    1    2    0    0 -0.15693736770E-01  0.94666246841E-02 -0.13675876929E-01  0.10210621193E+01  0.10208060107E+01 0.  0.
     999903    2    3    3    0    0 -0.42695656608E-01 -0.96130903366E-01  0.73758642564E-01  0.13003757600E+00  0.20133657018E-01 0.  0.
         14    1    1    2    0    0  0.15693736770E-01 -0.94666246841E-02  0.13675876929E-01  0.22867880674E-01  0.00000000000E+00 0.  1.
     999901    1    3    3    0    0  0.27001919837E-01  0.10559752805E+00 -0.87434519493E-01  0.89102454332E+00  0.88000000000E+00 0.  1.
        -11    1    4    4    0    0 -0.32663234219E-01 -0.88630107855E-01  0.63255079677E-01  0.11368222866E+00  0.51100000000E-03 0.  1.
         11    1    4    4    0    0 -0.10032422388E-01 -0.75007955103E-02  0.10503562887E-01  0.16355347339E-01  0.51100000000E-03 0. -1.
</event>
<event>
 8    1  0.1108957E+005  0.1043930E+01  0.7957747E-01            NaN
         13   -1    0    0    0    0  0.00000000000E+00  0.00000000000E+00  0.74505805969E-08  0.10566000000E+00  0.10566000000E+00 0. -1.
     999900   -1    0    0    0    0 -0.00000000000E+00 -0.00000000000E+00 -0.74505805969E-08  0.93827000000E+00  0.93827000000E+00 0. -1.
     999902    2    1    2    0    0 -0.23316369692E-01 -0.53242528878E-02 -0.16771918298E-03  0.10200128745E+01  0.10197324331E+01 0.  0.
     999903    2    3    3    0    0 -0.28854893345E-01 -0.12330672290E+00  0.29541213793E-01  0.13162491913E+00  0.20378499499E-01 0.  0.
         14    1    1    2    0    0  0.23316369692E-01  0.53242528878E-02  0.16771918298E-03  0.23917125541E-01  0.00000000000E+00 0.  1.
     999901    1    3    3    0    0  0.55385236527E-02  0.11798247001E+00 -0.29708932976E-01  0.88838795533E+00  0.88000000000E+00 0. -1.
        -11    1    4    4    0    0 -0.30300394059E-01 -0.10543343587E+00  0.20749019652E-01  0.11164724008E+00  0.51100000000E-03 0. -1.
         11    1    4    4    0    0  0.14455007141E-02 -0.17873287027E-01  0.87921941409E-02  0.19977679051E-01  0.51100000000E-03 0.  1.
</event>
<event>
 8    1  0.1108957E+005  0.1043930E+01  0.7957747E-01            NaN
         13   -1    0    0    0    0  0.00000000000E+00  0.00000000000E+00  0.74505805969E-08  0.10566000000E+00  0.10566000000E+00 0.  1.
     999900   -1    0    0    0    0 -0.00000000000E+00 -0.00000000000E+00 -0.74505805969E-08  0.93827000000E+00  0.93827000000E+00 0.  1.
     999902    2    1    2    0    0  0.18534310912E-01 -0.11263656203E-01  0.84399163295E-02  0.10206572086E+01  0.10203918437E+01 0.  0.
     999903    2    3    3    0    0 -0.66594823148E-01 -0.56127796705E-01  0.96834295840E-01  0.13100934180E+00  0.14190375425E-01 0.  0.
         14    1    1    2    0    0 -0.18534310912E-01  0.11263656203E-01 -0.84399163295E-02  0.23272791403E-01  0.00000000000E+00 0. -1.
     999901    1    3    3    0    0  0.85129134060E-01  0.44864140502E-01 -0.88394379511E-01  0.88964786680E+00  0.88000000000E+00 0. -1.
        -11    1    4    4    0    0 -0.49711531703E-01 -0.49323535800E-01  0.76633028786E-01  0.10381199252E+00  0.51100000000E-03 0. -1.
         11    1    4    4    0    0 -0.16883291445E-01 -0.68042609051E-02  0.20201267054E-01  0.27197349284E-01  0.51100000000E-03 0.  1.
</event>
<event>
 8    1  0.1108957E+005  0.1043930E+01  0.7957747E-01            NaN
         13   -1    0    0    0    0  0.00000000000E+00  0.00000000000E+00  0.74505805969E-08  0.10566000000E+00  0.10566000000E+00 0. -1.
     999900   -1    0    0    0    0 -0.00000000000E+00 -0.00000000000E+00 -0.74505805969E-08  0.93827000000E+00  0.93827000000E+00 0. -1.
     999902    2    1    2    0    0 -0.29324026602E-02 -0.21671074795E-01 -0.90338585755E-02  0.10202689546E+01  0.10199945562E+01 0.  0.
     999903    2    3    3    0    0  0.91641062157E-01  0.29940025091E-01  0.83420344445E-01  0.12889045726E+00  0.18955387904E-01 0.  0.
         14    1    1    2    0    0  0.29324026602E-02  0.21671074795E-01  0.90338585755E-02  0.23661045389E-01  0.00000000000E+00 0.  1.
     999901    1    3    3    0    0 -0.94573464817E-01 -0.51611099886E-01 -0.92454203020E-01  0.89137849735E+00  0.88000000000E+00 0. -1.
        -11    1    4    4    0    0  0.49352666797E-01  0.69380292305E-02  0.47212215186E-01  0.68651848870E-01  0.51100000000E-03 0. -1.
         11    1    4    4    0    0  0.42288395360E-01  0.23001995861E-01  0.36208129259E-01  0.60238608393E-01  0.51100000000E-03 0.  1.
</event>
<event>
 8    1  0.1108957E+005  0.1043930E+01  0.7957747E-01            NaN
         13   -1    0    0    0    0  0.00000000000E+00  0.00000000000E+00  0.74505805969E-08  0.10566000000E+00  0.10566000000E+00 0.  1.
     999900   -1    0    0    0    0 -0.00000000000E+00 -0.00000000000E+00 -0.74505805969E-08  0.93827000000E+00  0.93827000000E+00 0.  1.
     999902    2    1    2    0    0 -0.98415518118E-04  0.50241664905E-02  0.24382855679E-01  0.10190347076E+01  0.10187305628E+01 0.  0.
     999903    2    3    3    0    0  0.28881462166E-01  0.51893842987E-01  0.11683425456E+00  0.13247739918E+00  0.19310837850E-01 0.  0.
         14    1    1    2    0    0  0.98415518118E-04 -0.50241664905E-02 -0.24382855679E-01  0.24895292438E-01  0.00000000000E+00 0. -1.
     999901    1    3    3    0    0 -0.28979877684E-01 -0.46869676496E-01 -0.92451398883E-01  0.88655730838E+00  0.88000000000E+00 0.  1.
        -11    1    4    4    0    0  0.26658545981E-01  0.41315189504E-01  0.10739747496E+00  0.11811901501E+00  0.51100000000E-03 0.  1.
         11    1    4    4    0    0  0.22229161845E-02  0.10578653483E-01  0.94367796026E-02  0.14358384176E-01  0.51100000000E-03 0. -1.
</event>
<event>
 8    1  0.1108957E+005  0.1043930E+01  0.7957747E-01            NaN
         13   -1    0    0    0    0  0.00000000000E+00  0.00000000000E+00  0.74505805969E-08  0.10566000000E+00  0.10566000000E+00 0. -1.
     999900   -1    0    0    0    0 -0.00000000000E+00 -0.00000000000E+00 -0.74505805969E-08  0.93827000000E+00  0.93827000000E+00 0.  1.
     999902    2    1    2    0    0  0.15739115652E-01 -0.10229087653E-01 -0.16027119974E-01  0.10192475655E+01  0.10189486627E+01 0.  0.
     999903    2    3    3    0    0  0.69747296166E-01  0.97078016441E-01  0.44505741967E-01  0.12902516327E+00  0.19439781104E-01 0.  0.
         14    1    1    2    0    0 -0.15739115652E-01  0.10229087653E-01  0.16027119974E-01  0.24682434450E-01  0.00000000000E+00 0. -1.
     999901    1    3    3    0    0 -0.54008180514E-01 -0.10730710409E+00 -0.60532861941E-01  0.89022240228E+00  0.88000000000E+00 0. -1.
        -11    1    4    4    0    0  0.43318137995E-01  0.51084687839E-01  0.16260955376E-01  0.68925947231E-01  0.51100000000E-03 0. -1.
         11    1    4    4    0    0  0.26429158171E-01  0.45993328602E-01  0.28244786591E-01  0.60099216036E-01  0.51100000000E-03 0.  1.
</event>
<event>
 8    1  0.1108957E+005  0.1043930E+01  0.7957747E-01            NaN
         13   -1    0    0    0    0  0.00000000000E+00  0.00000000000E+00  0.74505805969E-08  0.10566000000E+00  0.10566000000E+00 0.  1.
     999900   -1    0    0    0    0 -0.00000000000E+00 -0.00000000000E+00 -0.74505805969E-08  0.93827000000E+00  0.93827000000E+00 0.  1.
     999902    2    1    2    0    0 -0.40065206717E-02  0.40793405607E-02  0.22809675823E-01  0.10204145893E+01  0.10201435975E+01 0.  0.
     999903    2    3    3    0    0 -0.13889564999E-01  0.57258658907E-01 -0.11260254521E+00  0.12841560724E+00  0.18432605892E-01 0.  0.
         14    1    1    2    0    0  0.40065206717E-02 -0.40793405607E-02 -0.22809675823E-01  0.23515410659E-01  0.00000000000E+00 0. -1.
     999901    1    3    3    0    0  0.98830443270E-02 -0.53179318346E-01  0.13541222103E+00  0.89199898210E+00  0.88000000000E+00 0. -1.
        -11    1    4    4    0    0  0.18131265141E-03  0.29094755794E-01 -0.41848798922E-01  0.50971764548E-01  0.51100000000E-03 0.  1.
         11    1    4    4    0    0 -0.14070877650E-01  0.28163903113E-01 -0.70753746285E-01  0.77443842691E-01  0.51100000000E-03 0. -1.
</event>
<event>
 8    1  0.1108957E+005  0.1043930E+01  0.7957747E-01            NaN
         13   -1    0    0    0    0  0.00000000000E+00  0.00000000000E+00  0.74505805969E-08  0.10566000000E+00  0.10566000000E+00 0. -1.
     999900   -1    0    0    0    0 -0.00000000000E+00 -0.00000000000E+00 -0.74505805969E-08  0.93827000000E+00  0.93827000000E+00 0. -1.
     999902    2    1    2    0    0  0.16444923505E-01  0.15500793168E-01 -0.65339345622E-02  0.10204054937E+01  0.10201342897E+01 0.  0.
     999903    2    3    3    0    0 -0.36494901596E-01 -0.69093044224E-01  0.99997139956E-01  0.12838104766E+00  0.19404607634E-01 0.  0.
         14    1    1    2    0    0 -0.16444923505E-01 -0.15500793168E-01  0.65339345622E-02  0.23524506345E-01  0.00000000000E+00 0.  1.
     999901    1    3    3    0    0  0.52939825102E-01  0.84593837392E-01 -0.10653107452E+00  0.89202444599E+00  0.88000000000E+00 0. -1.
        -11    1    4    4    0    0 -0.32915314242E-01 -0.59779642976E-01  0.95615535437E-01  0.11747176411E+00  0.51100000000E-03 0. -1.
         11    1    4    4    0    0 -0.35795873549E-02 -0.93134012484E-02  0.43816045185E-02  0.10909283551E-01  0.51100000000E-03 0.  1.
</event>
<event>
 8    1  0.1108957E+005  0.1043930E+01  0.7957747E-01            NaN
         13   -1    0    0    0    0  0.00000000000E+00  0.00000000000E+00  0.74505805969E-08  0.10566000000E+00  0.10566000000E+00 0.  1.
     999900   -1    0    0    0    0 -0.00000000000E+00 -0.00000000000E+00 -0.74505805969E-08  0.93827000000E+00  0.93827000000E+00 0.  1.
     999902    2    1    2    0    0  0.63116026274E-02 -0.21921462456E-01 -0.65179287270E-02  0.10202051135E+01  0.10199292149E+01 0.  0.
     999903    2    3    3    0    0 -0.83127681495E-02 -0.12616936986E+00  0.36068645912E-01  0.13290859331E+00  0.19389042084E-01 0.  0.
         14    1    1    2    0    0 -0.63116026274E-02  0.21921462456E-01  0.65179287270E-02  0.23724886487E-01  0.00000000000E+00 0. -1.
     999901    1    3    3    0    0  0.14624370777E-01  0.10424790741E+00 -0.42586574639E-01  0.88729652020E+00  0.88000000000E+00 0.  1.
        -11    1    4    4    0    0 -0.10864523251E-01 -0.50581441338E-01  0.86297758402E-02  0.52452399615E-01  0.51100000000E-03 0. -1.
         11    1    4    4    0    0  0.25517551016E-02 -0.75587928524E-01  0.27438870072E-01  0.80456193698E-01  0.51100000000E-03 0.  1.
</event>
<event>
 8    1  0.1108957E+005  0.1043930E+01  0.7957747E-01            NaN
         13   -1    0    0    0    0  0.00000000000E+00  0.00000000000E+00  0.74505805969E-08  0.10566000000E+00  0.10566000000E+00 0. -1.
     999900   -1    0    0    0    0 -0.00000000000E+00 -0.00000000000E+00 -0.74505805969E-08  0.93827000000E+00  0.93827000000E+00 0.  1.
     999902    2    1    2    0    0 -0.30872685945E-02 -0.23293663123E-01  0.11143469483E-02  0.10204062304E+01  0.10201350436E+01 0.  0.
     999903    2    3    3    0    0  0.57862818791E-01 -0.87076314877E-01  0.79114106176E-01  0.13256215494E+00  0.19577862879E-01 0.  0.
         14    1    1    2    0    0  0.30872685945E-02  0.23293663123E-01 -0.11143469483E-02  0.23523769642E-01  0.00000000000E+00 0.  1.
     999901    1    3    3    0    0 -0.60950087385E-01  0.63782651754E-01 -0.77999759228E-01  0.88784407542E+00  0.88000000000E+00 0.  1.
        -11    1    4    4    0    0  0.23068239798E-01 -0.19488110501E-01  0.25640872171E-01  0.39618752946E-01  0.51100000000E-03 0.  1.
         11    1    4    4    0    0  0.34794578993E-01 -0.67588204376E-01  0.53473234005E-01  0.92943401993E-01  0.51100000000E-03 0. -1.
</event>
<event>
 8    1  0.1108957E+005  0.1043930E+01  0.7957747E-01            NaN
         13   -1    0    0    0    0  0.00000000000E+00  0.00000000000E+00  0.74505805969E-08  0.10566000000E+00  0.10566000000E+00 0.  1.
     999900   -1    0    0    0    0 -0.00000000000E+00 -0.00000000000E+00 -0.74505805969E-08  0.93827000000E+00  0.93827000000E+00 0.  1.
     999902    2    1    2    0    0 -0.16753421919E-01 -0.64103391845E-02  0.15225958341E-01  0.10204013068E+01  0.10201300052E+01 0.  0.
     999903    2    3    3    0    0  0.21358278038E-01  0.68740316451E-02 -0.12483540889E+00  0.12841130534E+00  0.20053819463E-01 0.  0.
         14    1    1    2    0    0  0.16753421919E-01  0.64103391845E-02 -0.15225958341E-01  0.23528693161E-01  0.00000000000E+00 0. -1.
     999901    1    3    3    0    0 -0.38111699958E-01 -0.13284370830E-01  0.14006136723E+00  0.89199000150E+00  0.88000000000E+00 0. -1.
        -11    1    4    4    0    0  0.95111754786E-02 -0.27023678874E-02 -0.87880507362E-01  0.88436474072E-01  0.51100000000E-03 0.  1.
         11    1    4    4    0    0  0.11847102560E-01  0.95763995324E-02 -0.36954901527E-01  0.39974831269E-01  0.51100000000E-03 0. -1.
</event>
<event>
 8    1  0.1108957E+005  0.1043930E+01  0.7957747E-01            NaN
         13   -1    0    0    0    0  0.00000000000E+00  0.00000000000E+00  0.74505805969E-08  0.10566000000E+00  0.10566000000E+00 0.  1.
     999900   -1    0    0    0    0 -0.00000000000E+00 -0.00000000000E+00 -0.74505805969E-08  0.93827000000E+00  0.93827000000E+00 0.  1.
     999902    2    1    2    0    0 -0.19430543555E-01  0.12098847171E-01 -0.73940041231E-02  0.10198759063E+01  0.10195922052E+01 0.  0.
     999903    2    3    3    0    0  0.23212910079E-01 -0.69755555250E-01 -0.10479649192E+00  0.12970409596E+00  0.20884709918E-01 0.  0.
         14    1    1    2    0    0  0.19430543555E-01 -0.12098847171E-01  0.73940041231E-02  0.24054093678E-01  0.00000000000E+00 0.  1.
     999901    1    3    3    0    0 -0.42643453634E-01  0.81854402421E-01  0.97402487794E-01  0.89017181036E+00  0.88000000000E+00 0. -1.
        -11    1    4    4    0    0  0.21024278499E-02 -0.33090240196E-01 -0.56339354060E-01  0.65374063175E-01  0.51100000000E-03 0. -1.
         11    1    4    4    0    0  0.21110482229E-01 -0.36665315053E-01 -0.48457137857E-01  0.64330032786E-01  0.51100000000E-03 0.  1.
</event>
<event>
 8    1  0.1108957E+005  0.1043930E+01  0.7957747E-01            NaN
         13   -1    0    0    0    0  0.00000000000E+00  0.00000000000E+00  0.74505805969E-08  0.10566000000E+00  0.10566000000E+00 0.  1.
     999900   -1    0    0    0    0 -0.00000000000E+00 -0.00000000000E+00 -0.74505805969E-08  0.93827000000E+00  0.93827000000E+00 0. -1.
     999902    2    1    2    0    0 -0.15176755074E-01  0.97540700989E-02  0.16014959437E-01  0.10198062626E+01  0.10195208966E+01 0.  0.
     999903    2    3    3    0    0 -0.96560353100E-01 -0.17344882567E-01 -0.83091733279E-01  0.13009856919E+00  0.19916194991E-01 0.  0.
         14    1    1    2    0    0  0.15176755074E-01 -0.97540700989E-02 -0.16014959437E-01  0.24123737353E-01  0.00000000000E+00 0.  1.
     999901    1    3    3    0    0  0.81383598026E-01  0.27098952666E-01  0.99106692716E-01  0.88970769346E+00  0.88000000000E+00 0.  1.
        -11    1    4    4    0    0 -0.37719649888E-01 -0.10905866002E-01 -0.44920510597E-01  0.59664254745E-01  0.51100000000E-03 0.  1.
         11    1    4    4    0    0 -0.58840703212E-01 -0.64390165651E-02 -0.38171222681E-01  0.70434314441E-01  0.51100000000E-03 0. -1.
</event>
<event>
 8    1  0.1108957E+005  0.1043930E+01  0.7957747E-01            NaN
         13   -1    0    0    0    0  0.00000000000E+00  0.00000000000E+00  0.74505805969E-08  0.10566000000E+00  0.10566000000E+00 0.  1.
     999900   -1    0    0    0    0 -0.00000000000E+00 -0.00000000000E+00 -0.74505805969E-08  0.93827000000E+00  0.93827000000E+00 0. -1.
     999902    2    1    2    0    0 -0.20107074986E-01 -0.10995912842E-01  0.28043068889E-02  0.10208417194E+01  0.10205805933E+01 0.  0.
     999903    2    3    3    0    0 -0.97581790503E-02 -0.18833519689E-01  0.12854111568E+00  0.13180950806E+00  0.20025096035E-01 0.  0.
         14    1    1    2    0    0  0.20107074986E-01  0.10995912842E-01 -0.28043068889E-02  0.23088280596E-01  0.00000000000E+00 0.  1.
     999901    1    3    3    0    0 -0.10348895936E-01  0.78376068470E-02 -0.12573680879E+00  0.88903221135E+00  0.88000000000E+00 0. -1.
        -11    1    4    4    0    0 -0.63522905183E-02 -0.10684752066E-01  0.25333653959E-01  0.28223583498E-01  0.51100000000E-03 0.  1.
         11    1    4    4    0    0 -0.34058885320E-02 -0.81487676223E-02  0.10320746172E+00  0.10358592456E+00  0.51100000000E-03 0. -1.
</event>
<event>
 8    1  0.1108957E+005  0.1043930E+01  0.7957747E-01            NaN
         13   -1    0    0    0    0  0.00000000000E+00  0.00000000000E+00  0.74505805969E-08  0.10566000000E+00  0.10566000000E+00 0. -1.
     999900   -1    0    0    0    0 -0.00000000000E+00 -0.00000000000E+00 -0.74505805969E-08  0.93827000000E+00  0.93827000000E+00 0.  1.
     999902    2    1    2    0    0  0.13678692833E-01 -0.18901045648E-01  0.41320873602E-02  0.10202354793E+01  0.10199602948E+01 0.  0.
     999903    2    3    3    0    0 -0.56660450673E-01 -0.11030716763E+00 -0.39191965618E-01  0.13165253564E+00  0.20452434339E-01 0.  0.
         14    1    1    2    0    0 -0.13678692833E-01  0.18901045648E-01 -0.41320873602E-02  0.23694520678E-01  0.00000000000E+00 0.  1.
     999901    1    3    3    0    0  0.70339143506E-01  0.91406121977E-01  0.43324052978E-01  0.88858294369E+00  0.88000000000E+00 0.  1.
        -11    1    4    4    0    0 -0.36007230441E-01 -0.69725967165E-01 -0.14341358258E-01  0.79775728256E-01  0.51100000000E-03 0.  1.
         11    1    4    4    0    0 -0.20653220232E-01 -0.40581200460E-01 -0.24850607360E-01  0.51876807380E-01  0.51100000000E-03 0. -1.
</event>
<event>
 8    1  0.1108957E+005  0.1043930E+01  0.7957747E-01            NaN
         13   -1    0    0    0    0  0.00000000000E+00  0.00000000000E+00  0.74505805969E-08  0.10566000000E+00  0.10566000000E+00 0.  1.
     999900   -1    0    0    0    0 -0.00000000000E+00 -0.00000000000E+00 -0.74505805969E-08  0.93827000000E+00  0.93827000000E+00 0. -1.
     999902    2    1    2    0    0  0.19656458516E-02 -0.86260381377E-02 -0.20949942923E-01  0.10211885751E+01  0.10209353229E+01 0.  0.
     999903    2    3    3    0    0  0.12933140041E+00 -0.11036088667E-01  0.75560250242E-02  0.13155919498E+00  0.20057963142E-01 0.  0.
         14    1    1    2    0    0 -0.19656458516E-02  0.86260381377E-02  0.20949942923E-01  0.22741424890E-01  0.00000000000E+00 0.  1.
     999901    1    3    3    0    0 -0.12736575456E+00  0.24100505290E-02 -0.28505967947E-01  0.88962938013E+00  0.88000000000E+00 0.  1.
        -11    1    4    4    0    0  0.65203329780E-01  0.36461761091E-02  0.77839420650E-02  0.65769443434E-01  0.51100000000E-03 0.  1.
         11    1    4    4    0    0  0.64128070629E-01 -0.14682264776E-01 -0.22791704071E-03  0.65789751548E-01  0.51100000000E-03 0. -1.
</event>
<event>
 8    1  0.1108957E+005  0.1043930E+01  0.7957747E-01            NaN
         13   -1    0    0    0    0  0.00000000000E+00  0.00000000000E+00  0.74505805969E-08  0.10566000000E+00  0.10566000000E+00 0.  1.
     999900   -1    0    0    0    0 -0.00000000000E+00 -0.00000000000E+00 -0.74505805969E-08  0.93827000000E+00  0.93827000000E+00 0.  1.
     999902    2    1    2    0    0  0.22953035694E-01  0.60909441987E-02 -0.94761610810E-03  0.10201636493E+01  0.10198867741E+01 0.  0.
     999903    2    3    3    0    0 -0.89865015460E-01  0.60512164771E-01 -0.67363519702E-01  0.12881598753E+00  0.17840172854E-01 0.  0.
         14    1    1    2    0    0 -0.22953035694E-01 -0.60909441987E-02  0.94761610810E-03  0.23766350689E-01  0.00000000000E+00 0. -1.
     999901    1    3    3    0    0  0.11281805115E+00 -0.54421220573E-01  0.66415903594E-01  0.89134766178E+00  0.88000000000E+00 0. -1.
        -11    1    4    4    0    0 -0.45255435396E-01  0.21104624262E-01 -0.25731551219E-01  0.56176805242E-01  0.51100000000E-03 0.  1.
         11    1    4    4    0    0 -0.44609580064E-01  0.39407540509E-01 -0.41631968483E-01  0.72639182286E-01  0.51100000000E-03 0. -1.
</event>
<event>
 8    1  0.1108957E+005  0.1043930E+01  0.7957747E-01            NaN
         13   -1    0    0    0    0  0.00000000000E+00  0.00000000000E+00  0.74505805969E-08  0.10566000000E+00  0.10566000000E+00 0. -1.
     999900   -1    0    0    0    0 -0.00000000000E+00 -0.00000000000E+00 -0.74505805969E-08  0.93827000000E+00  0.93827000000E+00 0. -1.
     999902    2    1    2    0    0  0.55830426247E-02 -0.21988029043E-01  0.47610226737E-02  0.10207500275E+01  0.10204867993E+01 0.  0.
     999903    2    3    3    0    0  0.53006318012E-01 -0.86064128463E-01  0.85188840675E-01  0.13349394981E+00  0.18622354938E-01 0.  0.
         14    1    1    2    0    0 -0.55830426247E-02  0.21988029043E-01 -0.47610226737E-02  0.23179972456E-01  0.00000000000E+00 0. -1.
     999901    1    3    3    0    0 -0.47423275387E-01  0.64076099420E-01 -0.80427818001E-01  0.88725607773E+00  0.88000000000E+00 0. -1.
        -11    1    4    4    0    0  0.21596799893E-01 -0.31353191204E-01  0.20956798268E-01  0.43461395271E-01  0.51100000000E-03 0. -1.
         11    1    4    4    0    0  0.31409518119E-01 -0.54710937259E-01  0.64232042407E-01  0.90032554540E-01  0.51100000000E-03 0.  1.
</event>
<event>
 8    1  0.1108957E+005  0.1043930E+01  0.7957747E-01            NaN
         13   -1    0    0    0    0  0.00000000000E+00  0.00000000000E+00  0.74505805969E-08  0.10566000000E+00  0.10566000000E+00 0.  1.
     999900   -1    0    0    0    0 -0.00000000000E+00 -0.00000000000E+00 -0.74505805969E-08  0.93827000000E+00  0.93827000000E+00 0.  1.
     999902    2    1    2    0    0 -0.15056548872E-01 -0.32140049980E-02  0.17533577834E-01  0.10205964224E+01  0.10203296534E+01 0.  0.
     999903    2    3    3    0    0 -0.88296077947E-01  0.95727271030E-01 -0.30294316665E-02  0.13179034564E+00  0.19990246326E-01 0.  0.
         14    1    1    2    0    0  0.15056548872E-01  0.32140049980E-02 -0.17533577834E-01  0.23333577602E-01  0.00000000000E+00 0. -1.
     999901    1    3    3    0    0  0.73239529075E-01 -0.98941276028E-01  0.20563009501E-01  0.88880607676E+00  0.88000000000E+00 0. -1.
        -11    1    4    4    0    0 -0.53771564499E-01  0.61610738784E-01 -0.11288107365E-01  0.82552690877E-01  0.51100000000E-03 0. -1.
         11    1    4    4    0    0 -0.34524513448E-01  0.34116532246E-01  0.82586756982E-02  0.49237654763E-01  0.51100000000E-03 0.  1.
</event>
<event>
 8    1  0.1108957E+005  0.1043930E+01  0.7957747E-01            NaN
         13   -1    0    0    0    0  0.00000000000E+00  0.00000000000E+00  0.74505805969E-08  0.10566000000E+00  0.10566000000E+00 0. -1.
     999900   -1    0    0    0    0 -0.00000000000E+00 -0.00000000000E+00 -0.74505805969E-08  0.93827000000E+00  0.93827000000E+00 0.  1.
     999902    2    1    2    0    0  0.21334940472E-01 -0.36428672087E-02  0.95345463156E-02  0.10202792550E+01  0.10200050982E+01 0.  0.
     999903    2    3    3    0    0 -0.17238664455E-01  0.44472561959E-01 -0.11817090286E+00  0.12892539749E+00  0.19555447216E-01 0.  0.
         14    1    1    2    0    0 -0.21334940472E-01  0.36428672087E-02 -0.95345463156E-02  0.23650745018E-01  0.00000000000E+00 0.  1.
     999901    1    3    3    0    0  0.38573604926E-01 -0.48115429168E-01  0.12770544917E+00  0.89135385749E+00  0.88000000000E+00 0. -1.
        -11    1    4    4    0    0 -0.19564545761E-01  0.24133202454E-01 -0.71139934030E-01  0.77629467642E-01  0.51100000000E-03 0. -1.
         11    1    4    4    0    0  0.23258813064E-02  0.20339359505E-01 -0.47030968828E-01  0.51295929846E-01  0.51100000000E-03 0.  1.
</event>
<event>
 8    1  0.1108957E+005  0.1043930E+01  0.7957747E-01            NaN
         13   -1    0    0    0    0  0.00000000000E+00  0.00000000000E+00  0.74505805969E-08  0.10566000000E+00  0.10566000000E+00 0. -1.
     999900   -1    0    0    0    0 -0.00000000000E+00 -0.00000000000E+00 -0.74505805969E-08  0.93827000000E+00  0.93827000000E+00 0. -1.
     999902    2    1    2    0    0  0.10073312488E-01 -0.34875253170E-02 -0.21031753488E-01  0.10203510027E+01  0.10200785262E+01 0.  0.
     999903    2    3    3    0    0 -0.85768374558E-01  0.80905187196E-01 -0.52383370569E-01  0.13058098593E+00  0.20137352998E-01 0.  0.
         14    1    1    2    0    0 -0.10073312488E-01  0.34875253170E-02  0.21031753488E-01  0.23578997267E-01  0.00000000000E+00 0. -1.
     999901    1    3    3    0    0  0.95841687047E-01 -0.84392712513E-01  0.31351617081E-01  0.88977001680E+00  0.88000000000E+00 0.  1.
        -11    1    4    4    0    0 -0.28295824696E-01  0.16967456473E-01 -0.85916909355E-02  0.34097309989E-01  0.51100000000E-03 0.  1.
         11    1    4    4    0    0 -0.57472549863E-01  0.63937730723E-01 -0.43791679633E-01  0.96483675945E-01  0.51100000000E-03 0. -1.
</event>
<event>
 8    1  0.1108957E+005  0.1043930E+01  0.7957747E-01            NaN
         13   -1    0    0    0    0  0.00000000000E+00  0.00000000000E+00  0.74505805969E-08  0.10566000000E+00  0.10566000000E+00 0. -1.
     999900   -1    0    0    0    0 -0.00000000000E+00 -0.00000000000E+00 -0.74505805969E-08  0.93827000000E+00  0.93827000000E+00 0.  1.
     999902    2    1    2    0    0 -0.94201226625E-02  0.92208591529E-02  0.19965665953E-01  0.10200053104E+01  0.10197246896E+01 0.  0.
     999903    2    3    3    0    0 -0.76711426550E-01  0.10176521449E-01  0.10653593005E+00  0.13320012128E+00  0.20103814691E-01 0.  0.
         14    1    1    2    0    0  0.94201226625E-02 -0.92208591529E-02 -0.19965665953E-01  0.23924689578E-01  0.00000000000E+00 0.  1.
     999901    1    3    3    0    0  0.67291303887E-01 -0.95566229596E-03 -0.86570264094E-01  0.88680518915E+00  0.88000000000E+00 0.  1.
        -11    1    4    4    0    0 -0.36670496983E-01  0.10558461765E-02  0.34960255345E-01  0.50678602337E-01  0.51100000000E-03 0.  1.
         11    1    4    4    0    0 -0.40040929567E-01  0.91206752723E-02  0.71575674702E-01  0.82521518939E-01  0.51100000000E-03 0. -1.
</event>
<event>
 8    1  0.1108957E+005  0.1043930E+01  0.7957747E-01            NaN
         13   -1    0    0    0    0  0.00000000000E+00  0.00000000000E+00  0.74505805969E-08  0.10566000000E+00  0.10566000000E+00 0. -1.
     999900   -1    0    0    0    0 -0.00000000000E+00 -0.00000000000E+00 -0.74505805969E-08  0.93827000000E+00  0.93827000000E+00 0.  1.
     999902    2    1    2    0    0  0.21143644903E-01 -0.98184461519E-03  0.90728514983E-02  0.10209010102E+01  0.10206412387E+01 0.  0.
     999903    2    3    3    0    0  0.48454769974E-01  0.19429920222E-02  0.12240529547E+00  0.13320810432E+00  0.20241115269E-01 0.  0.
         14    1    1    2    0    0 -0.21143644903E-01  0.98184461519E-03 -0.90728514983E-02  0.23028989838E-01  0.00000000000E+00 0.  1.
     999901    1    3    3    0    0 -0.27311125071E-01 -0.29248366374E-02 -0.11333244397E+00  0.88769290584E+00  0.88000000000E+00 0.  1.
        -11    1    4    4    0    0  0.30508493235E-01 -0.37713444145E-02  0.52811195228E-01  0.61108711822E-01  0.51100000000E-03 0. -1.
         11    1    4    4    0    0  0.17946276739E-01  0.57143364368E-02  0.69594100240E-01  0.72099392500E-01  0.51100000000E-03 0.  1.
</event>
<event>
 8    1  0.1108957E+005  0.1043930E+01  0.7957747E-01            NaN
         13   -1    0    0    0    0  0.00000000000E+00  0.00000000000E+00  0.74505805969E-08  0.10566000000E+00  0.10566000000E+00 0. -1.
     999900   -1    0    0    0    0 -0.00000000000E+00 -0.00000000000E+00 -0.74505805969E-08  0.93827000000E+00  0.93827000000E+00 0.  1.
     999902    2    1    2    0    0 -0.22062800082E-01 -0.53913530522E-02 -0.56353775464E-02  0.10205293309E+01  0.10202610077E+01 0.  0.
     999903    2    3    3    0    0 -0.70186265812E-01  0.39161051580E-01  0.10218061052E+00  0.13152704067E+00  0.19969611705E-01 0.  0.
         14    1    1    2    0    0  0.22062800082E-01  0.53913530522E-02  0.56353775464E-02  0.23400669120E-01  0.00000000000E+00 0.  1.
     999901    1    3    3    0    0  0.48123465731E-01 -0.44552404632E-01 -0.10781598807E+00  0.88900229021E+00  0.88000000000E+00 0.  1.
        -11    1    4    4    0    0 -0.26334651978E-01  0.70047031637E-02  0.24142011008E-01  0.36409855503E-01  0.51100000000E-03 0.  1.
         11    1    4    4    0    0 -0.43851613834E-01  0.32156348416E-01  0.78038599514E-01  0.95117185169E-01  0.51100000000E-03 0. -1.
</event>
<event>
 8    1  0.1108957E+005  0.1043930E+01  0.7957747E-01            NaN
         13   -1    0    0    0    0  0.00000000000E+00  0.00000000000E+00  0.74505805969E-08  0.10566000000E+00  0.10566000000E+00 0. -1.
     999900   -1    0    0    0    0 -0.00000000000E+00 -0.00000000000E+00 -0.74505805969E-08  0.93827000000E+00  0.93827000000E+00 0.  1.
     999902    2    1    2    0    0  0.70228794179E-02 -0.21356819631E-01  0.73784105026E-02  0.10202683111E+01  0.10199938976E+01 0.  0.
     999903    2    3    3    0    0 -0.30920251816E-01 -0.10947122111E-01  0.12574153190E+00  0.13147256881E+00  0.19955000623E-01 0.  0.
         14    1    1    2    0    0 -0.70228794179E-02  0.21356819631E-01 -0.73784105026E-02  0.23661688900E-01  0.00000000000E+00 0. -1.
     999901    1    3    3    0    0  0.37943131234E-01 -0.10409697519E-01 -0.11836312140E+00  0.88879574229E+00  0.88000000000E+00 0.  1.
        -11    1    4    4    0    0 -0.67686597034E-02  0.24836340713E-02  0.55825371434E-01  0.56291352880E-01  0.51100000000E-03 0. -1.
         11    1    4    4    0    0 -0.24151592113E-01 -0.13430756183E-01  0.69916160465E-01  0.75181215927E-01  0.51100000000E-03 0.  1.
</event>
<event>
 8    1  0.1108957E+005  0.1043930E+01  0.7957747E-01            NaN
         13   -1    0    0    0    0  0.00000000000E+00  0.00000000000E+00  0.74505805969E-08  0.10566000000E+00  0.10566000000E+00 0. -1.
     999900   -1    0    0    0    0 -0.00000000000E+00 -0.00000000000E+00 -0.74505805969E-08  0.93827000000E+00  0.93827000000E+00 0. -1.
     999902    2    1    2    0    0 -0.65355191856E-02 -0.67097867574E-03 -0.22636330806E-01  0.10203595376E+01  0.10200872607E+01 0.  0.
     999903    2    3    3    0    0  0.57476424494E-01 -0.17150258606E-01 -0.11670283184E+00  0.13288131131E+00  0.20981448750E-01 0.  0.
         14    1    1    2    0    0  0.65355191856E-02  0.67097867574E-03  0.22636330806E-01  0.23570462358E-01  0.00000000000E+00 0. -1.
     999901    1    3    3    0    0 -0.64011943680E-01  0.16479279930E-01  0.94066501037E-01  0.88747822633E+00  0.88000000000E+00 0.  1.
        -11    1    4    4    0    0  0.29135453537E-01 -0.19571819895E-02 -0.38502686944E-01  0.48326216871E-01  0.51100000000E-03 0.  1.
         11    1    4    4    0    0  0.28340970957E-01 -0.15193076617E-01 -0.78200144899E-01  0.84555094436E-01  0.51100000000E-03 0. -1.
</event>
<event>
 8    1  0.1108957E+005  0.1043930E+01  0.7957747E-01            NaN
         13   -1    0    0    0    0  0.00000000000E+00  0.00000000000E+00  0.74505805969E-08  0.10566000000E+00  0.10566000000E+00 0. -1.
     999900   -1    0    0    0    0 -0.00000000000E+00 -0.00000000000E+00 -0.74505805969E-08  0.93827000000E+00  0.93827000000E+00 0.  1.
     999902    2    1    2    0    0 -0.17036527463E-01 -0.80602273615E-02  0.15286178495E-01  0.10196631958E+01  0.10193743940E+01 0.  0.
     999903    2    3    3    0    0  0.22275840108E-01  0.65878714494E-01  0.10875181380E+00  0.13076035839E+00  0.20858960804E-01 0.  0.
         14    1    1    2    0    0  0.17036527463E-01  0.80602273615E-02 -0.15286178495E-01  0.24266804200E-01  0.00000000000E+00 0. -1.
     999901    1    3    3    0    0 -0.39312367571E-01 -0.73938941856E-01 -0.93465635307E-01  0.88890283741E+00  0.88000000000E+00 0.  1.
        -11    1    4    4    0    0 -0.20794594747E-02  0.13923477791E-01  0.31695479013E-01  0.34685038509E-01  0.51100000000E-03 0.  1.
         11    1    4    4    0    0  0.24355299583E-01  0.51955236703E-01  0.77056334789E-01  0.96075319883E-01  0.51100000000E-03 0. -1.
</event>
<event>
 7    1  0.2028919E+005  0.1043930E+01  0.7957747E-01            NaN
         13   -1    0    0    0    0  0.00000000000E+00  0.00000000000E+00  0.74505805969E-08  0.10566000000E+00  0.10566000000E+00 0. -1.
     999900   -1    0    0    0    0 -0.00000000000E+00 -0.00000000000E+00 -0.74505805969E-08  0.93827000000E+00  0.93827000000E+00 0.  1.
     999903    2    1    2    0    0  0.10852967702E-02  0.21740766019E-01  0.10437895659E+00  0.10835254723E+00  0.19273534606E-01 0.  0.
         14    1    1    2    0    0 -0.16809261668E-01  0.22582244958E-01 -0.44026517764E-01  0.52257471539E-01  0.00000000000E+00 0.  1.
     999901    1    1    2    0    0  0.15723964898E-01 -0.44323010977E-01 -0.60352438823E-01  0.88331998123E+00  0.88000000000E+00 0.  1.
        -11    1    3    3    0    0 -0.82010066735E-02  0.12594539523E-01  0.41647827519E-01  0.44279584396E-01  0.51100000000E-03 0.  1.
         11    1    3    3    0    0  0.92863034437E-02  0.91462264963E-02  0.62731129069E-01  0.64072962832E-01  0.51100000000E-03 0. -1.
</event>
<event>
 8    1  0.1108957E+005  0.1043930E+01  0.7957747E-01            NaN
         13   -1    0    0    0    0  0.00000000000E+00  0.00000000000E+00  0.74505805969E-08  0.10566000000E+00  0.10566000000E+00 0. -1.
     999900   -1    0    0    0    0 -0.00000000000E+00 -0.00000000000E+00 -0.74505805969E-08  0.93827000000E+00  0.93827000000E+00 0.  1.
     999902    2    1    2    0    0  0.14016587732E-01 -0.20345253092E-01  0.12177060605E-02  0.10191938551E+01  0.10188936340E+01 0.  0.
     999903    2    3    3    0    0  0.65775228212E-01  0.50814583416E-01  0.97446202250E-01  0.12958573765E+00  0.19702754538E-01 0.  0.
         14    1    1    2    0    0 -0.14016587732E-01  0.20345253092E-01 -0.12177060605E-02  0.24736144871E-01  0.00000000000E+00 0. -1.
     999901    1    3    3    0    0 -0.51758640479E-01 -0.71159836509E-01 -0.96228496190E-01  0.88960811747E+00  0.88000000000E+00 0.  1.
        -11    1    4    4    0    0  0.25679662039E-01  0.19599950677E-01  0.53016887530E-01  0.62085864683E-01  0.51100000000E-03 0.  1.
         11    1    4    4    0    0  0.40095566172E-01  0.31214632740E-01  0.44429314720E-01  0.67499872972E-01  0.51100000000E-03 0. -1.
</event>
<event>
 8    1  0.1108957E+005  0.1043930E+01  0.7957747E-01            NaN
         13   -1    0    0    0    0  0.00000000000E+00  0.00000000000E+00  0.74505805969E-08  0.10566000000E+00  0.10566000000E+00 0. -1.
     999900   -1    0    0    0    0 -0.00000000000E+00 -0.00000000000E+00 -0.74505805969E-08  0.93827000000E+00  0.93827000000E+00 0.  1.
     999902    2    1    2    0    0 -0.11866285792E-01  0.20674522739E-01 -0.41643145592E-02  0.10197311127E+01  0.10194439446E+01 0.  0.
     999903    2    3    3    0    0  0.12486854503E+00 -0.17078740692E-01 -0.13538738413E-01  0.12832233856E+00  0.19987201223E-01 0.  0.
         14    1    1    2    0    0  0.11866285792E-01 -0.20674522739E-01  0.41643145592E-02  0.24198887262E-01  0.00000000000E+00 0.  1.
     999901    1    3    3    0    0 -0.13673483083E+00  0.37753263431E-01  0.93744238541E-02  0.89140877418E+00  0.88000000000E+00 0.  1.
        -11    1    4    4    0    0  0.38372331921E-01  0.18760072162E-02  0.17527148811E-02  0.38461518308E-01  0.51100000000E-03 0.  1.
         11    1    4    4    0    0  0.86496213114E-01 -0.18954747908E-01 -0.15291453294E-01  0.89860820251E-01  0.51100000000E-03 0. -1.
</event>
<event>
 7    1  0.1108957E+005  0.1043930E+01  0.7957747E-01            NaN
         13   -1    0    0    0    0  0.00000000000E+00  0.00000000000E+00  0.74505805969E-08  0.10566000000E+00  0.10566000000E+00 0. -1.
     999900   -1    0    0    0    0 -0.00000000000E+00 -0.00000000000E+00 -0.74505805969E-08  0.93827000000E+00  0.93827000000E+00 0. -1.
     999902    2    1    2    0    0 -0.22400377320E-01 -0.49815002672E-02  0.49997630446E-02  0.10204440493E+01  0.10201737440E+01 0.  0.
         14    1    1    2    0    0  0.22400377320E-01  0.49815002672E-02 -0.49997630446E-02  0.23485950683E-01  0.00000000000E+00 0.  1.
     999901    1    3    3    0    0 -0.48138612832E-01  0.59386585410E-01  0.11459038426E+00  0.89071603148E+00  0.88000000000E+00 0.  1.
        -11    1    3    3    0    0  0.11320760639E-01 -0.25596171748E-01 -0.46877782899E-01  0.54599553845E-01  0.51100000000E-03 0. -1.
         11    1    3    3    0    0  0.14417474873E-01 -0.38771913929E-01 -0.62712838313E-01  0.75128463991E-01  0.51100000000E-03 0.  1.
</event>
<event>
 8    1  0.1108957E+005  0.1043930E+01  0.7957747E-01            NaN
         13   -1    0    0    0    0  0.00000000000E+00  0.00000000000E+00  0.74505805969E-08  0.10566000000E+00  0.10566000000E+00 0.  1.
     999900   -1    0    0    0    0 -0.00000000000E+00 -0.00000000000E+00 -0.74505805969E-08  0.93827000000E+00  0.93827000000E+00 0.  1.
     999902    2    1    2    0    0  0.31556083375E-02  0.57080801823E-02  0.22626412098E-01  0.10203822917E+01  0.10201105463E+01 0.  0.
     999903    2    3    3    0    0  0.87268822526E-02 -0.12400652372E+00  0.34440860464E-01  0.13077760488E+00  0.21513546185E-01 0.  0.
         14    1    1    2    0    0 -0.31556083375E-02 -0.57080801823E-02 -0.22626412098E-01  0.23547708334E-01  0.00000000000E+00 0. -1.
     999901    1    3    3    0    0 -0.55712739151E-02  0.12971460390E+00 -0.11814448366E-01  0.88960468678E+00  0.88000000000E+00 0.  1.
        -11    1    4    4    0    0 -0.68337061823E-02 -0.47925536835E-01  0.15639160879E-01  0.50876331384E-01  0.51100000000E-03 0. -1.
         11    1    4    4    0    0  0.15560588435E-01 -0.76080986888E-01  0.18801699585E-01  0.79901273497E-01  0.51100000000E-03 0.  1.
</event>
<event>
 8    1  0.1108957E+005  0.1043930E+01  0.7957747E-01            NaN
         13   -1    0    0    0    0  0.00000000000E+00  0.00000000000E+00  0.74505805969E-08  0.10566000000E+00  0.10566000000E+00 0.  1.
     999900   -1    0    0    0    0 -0.00000000000E+00 -0.00000000000E+00 -0.74505805969E-08  0.93827000000E+00  0.93827000000E+00 0.  1.
     999902    2    1    2    0    0  0.17427397040E-01 -0.15580919198E-01 -0.28591160715E-02  0.10203789118E+01  0.10201070875E+01 0.  0.
     999903    2    3    3    0    0  0.23811629527E-01  0.10735317369E+00 -0.65572916658E-01  0.12960028026E+00  0.20117843882E-01 0.  0.
         14    1    1    2    0    0 -0.17427397040E-01  0.15580919198E-01  0.28591160715E-02  0.23551088199E-01  0.00000000000E+00 0.  1.
     999901    1    3    3    0    0 -0.63842324869E-02 -0.12293409289E+00  0.62713800586E-01  0.89077863154E+00  0.88000000000E+00 0. -1.
        -11    1    4    4    0    0  0.20644380257E-02  0.85518025553E-02  0.40146932173E-03  0.88214244837E-02  0.51100000000E-03 0.  1.
         11    1    4    4    0    0  0.21747191501E-01  0.98801371139E-01 -0.65974385980E-01  0.12077885578E+00  0.51100000000E-03 0. -1.
</event>
<event>
 8    1  0.1108957E+005  0.1043930E+01  0.7957747E-01            NaN
         13   -1    0    0    0    0  0.00000000000E+00  0.00000000000E+00  0.74505805969E-08  0.10566000000E+00  0.10566000000E+00 0. -1.
     999900   -1    0    0    0    0 -0.00000000000E+00 -0.00000000000E+00 -0.74505805969E-08  0.93827000000E+00  0.93827000000E+00 0.  1.
     999902    2    1    2    0    0  0.10597236705E-01  0.20751445473E-01  0.31665658742E-02  0.10204150887E+01  0.10201441085E+01 0.  0.
     999903    2    3    3    0    0 -0.11783658676E+00 -0.26874228694E-01  0.39223128329E-01  0.12908825326E+00  0.22751658974E-01 0.  0.
         14    1    1    2    0    0 -0.10597236705E-01 -0.20751445473E-01 -0.31665658742E-02  0.23514911321E-01  0.00000000000E+00 0. -1.
     999901    1    3    3    0    0  0.12843382346E+00  0.47625674167E-01 -0.36056562455E-01  0.89132683542E+00  0.88000000000E+00 0. -1.
        -11    1    4    4    0    0 -0.64393757006E-01 -0.70048620246E-02  0.29776458597E-01  0.71291813281E-01  0.51100000000E-03 0.  1.
         11    1    4    4    0    0 -0.53442829752E-01 -0.19869366670E-01  0.94466697328E-02  0.57796439975E-01  0.51100000000E-03 0. -1.
</event>
<event>
 8    1  0.1108957E+005  0.1043930E+01  0.7957747E-01            NaN
         13   -1    0    0    0    0  0.00000000000E+00  0.00000000000E+00  0.74505805969E-08  0.10566000000E+00  0.10566000000E+00 0.  1.
     999900   -1    0    0    0    0 -0.00000000000E+00 -0.00000000000E+00 -0.74505805969E-08  0.93827000000E+00  0.93827000000E+00 0.  1.
     999902    2    1    2    0    0  0.78340236265E-02 -0.11601160647E-02  0.20433638902E-01  0.10220153612E+01  0.10217803811E+01 0.  0.
     999903    2    3    3    0    0  0.56662274522E-01  0.57212140393E-01 -0.10085477243E+00  0.13044237083E+00  0.18965353275E-01 0.  0.
         14    1    1    2    0    0 -0.78340236265E-02  0.11601160647E-02 -0.20433638902E-01  0.21914638812E-01  0.00000000000E+00 0. -1.
     999901    1    3    3    0    0 -0.48828250895E-01 -0.58372256458E-01  0.12128841133E+00  0.89157299036E+00  0.88000000000E+00 0. -1.
        -11    1    4    4    0    0  0.30104230499E-01  0.23193609320E-01 -0.59921039832E-01  0.70957736314E-01  0.51100000000E-03 0.  1.
         11    1    4    4    0    0  0.26558044023E-01  0.34018531074E-01 -0.40933732594E-01  0.59484634519E-01  0.51100000000E-03 0. -1.
</event>
<event>
 8    1  0.1108957E+005  0.1043930E+01  0.7957747E-01            NaN
         13   -1    0    0    0    0  0.00000000000E+00  0.00000000000E+00  0.74505805969E-08  0.10566000000E+00  0.10566000000E+00 0.  1.
     999900   -1    0    0    0    0 -0.00000000000E+00 -0.00000000000E+00 -0.74505805969E-08  0.93827000000E+00  0.93827000000E+00 0. -1.
     999902    2    1    2    0    0 -0.59365150435E-02  0.22868299810E-01 -0.14184545569E-02  0.10202611732E+01  0.10199865922E+01 0.  0.
     999903    2    3    3    0    0  0.59309066415E-01  0.11716527645E+00 -0.21456778791E-02  0.13282135299E+00  0.19789909334E-01 0.  0.
         14    1    1    2    0    0  0.59365150435E-02 -0.22868299810E-01  0.14184545569E-02  0.23668826764E-01  0.00000000000E+00 0.  1.
     999901    1    3    3    0    0 -0.65245581459E-01 -0.94296976643E-01  0.72722332212E-03  0.88743982025E+00  0.88000000000E+00 0. -1.
        -11    1    4    4    0    0  0.14216869819E-01  0.38160240031E-01 -0.85992922378E-02  0.41623698234E-01  0.51100000000E-03 0. -1.
         11    1    4    4    0    0  0.45092196596E-01  0.79005036421E-01  0.64536143587E-02  0.91197654757E-01  0.51100000000E-03 0.  1.
</event>
<event>
 8    1  0.1108957E+005  0.1043930E+01  0.7957747E-01            NaN
         13   -1    0    0    0    0  0.00000000000E+00  0.00000000000E+00  0.74505805969E-08  0.10566000000E+00  0.10566000000E+00 0. -1.
     999900   -1    0    0    0    0 -0.00000000000E+00 -0.00000000000E+00 -0.74505805969E-08  0.93827000000E+00  0.93827000000E+00 0.  1.
     999902    2    1    2    0    0 -0.21319434911E-01 -0.11812284946E-01 -0.48568870207E-02  0.10190776816E+01  0.10187745989E+01 0.  0.
     999903    2    3    3    0    0 -0.54396326946E-01  0.14650602109E-01  0.11341144785E+00  0.13015599535E+00  0.30080327371E-01 0.  0.
         14    1    1    2    0    0  0.21319434911E-01  0.11812284946E-01  0.48568870207E-02  0.24852318445E-01  0.00000000000E+00 0. -1.
     999901    1    3    3    0    0  0.33076892036E-01 -0.26462887055E-01 -0.11826833487E+00  0.88892168621E+00  0.88000000000E+00 0.  1.
        -11    1    4    4    0    0 -0.21198231715E-01 -0.72265674507E-02  0.56051250161E-01  0.60362174171E-01  0.51100000000E-03 0.  1.
         11    1    4    4    0    0 -0.33198095232E-01  0.21877169559E-01  0.57360197686E-01  0.69793821177E-01  0.51100000000E-03 0. -1.
</event>
<event>
 8    1  0.1108957E+005  0.1043930E+01  0.7957747E-01            NaN
         13   -1    0    0    0    0  0.00000000000E+00  0.00000000000E+00  0.74505805969E-08  0.10566000000E+00  0.10566000000E+00 0. -1.
     999900   -1    0    0    0    0 -0.00000000000E+00 -0.00000000000E+00 -0.74505805969E-08  0.93827000000E+00  0.93827000000E+00 0. -1.
     999902    2    1    2    0    0  0.15102360651E-01 -0.17783376145E-01  0.34977472909E-02  0.10203383913E+01  0.10200656198E+01 0.  0.
     999903    2    3    3    0    0 -0.11172192724E+00 -0.60023286024E-02 -0.61895798822E-01  0.12876702067E+00  0.15232817400E-01 0.  0.
         14    1    1    2    0    0 -0.15102360651E-01  0.17783376145E-01 -0.34977472909E-02  0.23591608687E-01  0.00000000000E+00 0.  1.
     999901    1    3    3    0    0  0.12682428789E+00 -0.11781047542E-01  0.65393546113E-01  0.89157137064E+00  0.88000000000E+00 0. -1.
        -11    1    4    4    0    0 -0.45901881685E-01  0.49830170260E-02 -0.24539835437E-01  0.52290322672E-01  0.51100000000E-03 0.  1.
         11    1    4    4    0    0 -0.65820045552E-01 -0.10985345628E-01 -0.37355963385E-01  0.76476697997E-01  0.51100000000E-03 0. -1.
</event>
<event>
 8    1  0.1108957E+005  0.1043930E+01  0.7957747E-01            NaN
         13   -1    0    0    0    0  0.00000000000E+00  0.00000000000E+00  0.74505805969E-08  0.10566000000E+00  0.10566000000E+00 0. -1.
     999900   -1    0    0    0    0 -0.00000000000E+00 -0.00000000000E+00 -0.74505805969E-08  0.93827000000E+00  0.93827000000E+00 0. -1.
     999902    2    1    2    0    0  0.19331708035E-01 -0.39989332824E-02 -0.71398448778E-02  0.10229375302E+01  0.10227221064E+01 0.  0.
     999903    2    3    3    0    0 -0.86925408307E-01  0.82278929568E-01 -0.50584212047E-01  0.13129754825E+00  0.18826439071E-01 0.  0.
         14    1    1    2    0    0 -0.19331708035E-01  0.39989332824E-02  0.71398448778E-02  0.20992469789E-01  0.00000000000E+00 0. -1.
     999901    1    3    3    0    0  0.10625711634E+00 -0.86277862851E-01  0.43444367169E-01  0.89163998196E+00  0.88000000000E+00 0.  1.
        -11    1    4    4    0    0 -0.76775133111E-01  0.71696543988E-01 -0.37207306576E-01  0.11144263218E+00  0.51100000000E-03 0. -1.
         11    1    4    4    0    0 -0.10150275196E-01  0.10582385580E-01 -0.13376905471E-01  0.19854916069E-01  0.51100000000E-03 0.  1.
</event>
<event>
 8    1  0.1108957E+005  0.1043930E+01  0.7957747E-01            NaN
         13   -1    0    0    0    0  0.00000000000E+00  0.00000000000E+00  0.74505805969E-08  0.10566000000E+00  0.10566000000E+00 0. -1.
     999900   -1    0    0    0    0 -0.00000000000E+00 -0.00000000000E+00 -0.74505805969E-08  0.93827000000E+00  0.93827000000E+00 0. -1.
     999902    2    1    2    0    0 -0.13693821267E-01 -0.84994037163E-02 -0.12553511195E-01  0.10235008236E+01  0.10232969191E+01 0.  0.
     999903    2    3    3    0    0 -0.84722480067E-01 -0.49971928015E-01 -0.91862712128E-01  0.13611421678E+00  0.20328057239E-01 0.  0.
         14    1    1    2    0    0  0.13693821267E-01  0.84994037163E-02  0.12553511195E-01  0.20429176384E-01  0.00000000000E+00 0. -1.
     999901    1    3    3    0    0  0.71028658800E-01  0.41472524299E-01  0.79309200934E-01  0.88738660684E+00  0.88000000000E+00 0.  1.
        -11    1    4    4    0    0 -0.29234268991E-01 -0.16294644670E-01 -0.18833181424E-01  0.38407131784E-01  0.51100000000E-03 0. -1.
         11    1    4    4    0    0 -0.55488211077E-01 -0.33677283345E-01 -0.73029530705E-01  0.97707084994E-01  0.51100000000E-03 0.  1.
</event>
<event>
 8    1  0.1108957E+005  0.1043930E+01  0.7957747E-01            NaN
         13   -1    0    0    0    0  0.00000000000E+00  0.00000000000E+00  0.74505805969E-08  0.10566000000E+00  0.10566000000E+00 0.  1.
     999900   -1    0    0    0    0 -0.00000000000E+00 -0.00000000000E+00 -0.74505805969E-08  0.93827000000E+00  0.93827000000E+00 0. -1.
     999902    2    1    2    0    0 -0.20467647000E-01 -0.59940512466E-02  0.11351452961E-01  0.10197699357E+01  0.10194836992E+01 0.  0.
     999903    2    3    3    0    0 -0.19009609107E-01 -0.12831547270E+00  0.25950645148E-02  0.13126482575E+00  0.19937260280E-01 0.  0.
         14    1    1    2    0    0  0.20467647000E-01  0.59940512466E-02 -0.11351452961E-01  0.24160064329E-01  0.00000000000E+00 0.  1.
     999901    1    3    3    0    0 -0.14580378925E-02  0.12232142145E+00  0.87563884463E-02  0.88850510992E+00  0.88000000000E+00 0. -1.
        -11    1    4    4    0    0 -0.40352464590E-02 -0.80368270807E-01 -0.41619708126E-02  0.80578690040E-01  0.51100000000E-03 0.  1.
         11    1    4    4    0    0 -0.14974362648E-01 -0.47947201888E-01  0.67570353274E-02  0.50686135708E-01  0.51100000000E-03 0. -1.
</event>
<event>
 7    1  0.1108957E+005  0.1043930E+01  0.7957747E-01            NaN
         13   -1    0    0    0    0  0.00000000000E+00  0.00000000000E+00  0.74505805969E-08  0.10566000000E+00  0.10566000000E+00 0. -1.
     999900   -1    0    0    0    0 -0.00000000000E+00 -0.00000000000E+00 -0.74505805969E-08  0.93827000000E+00  0.93827000000E+00 0.  1.
     999902    2    1    2    0    0 -0.18623964559E-01  0.10551255422E-01 -0.90260691616E-02  0.10206996110E+01  0.10204352233E+01 0.  0.
         14    1    1    2    0    0  0.18623964559E-01 -0.10551255422E-01  0.90260691616E-02  0.23230388963E-01  0.00000000000E+00 0. -1.
     999901    1    3    3    0    0  0.10791907380E-01  0.11473520003E+00 -0.80116184811E-01  0.89112245761E+00  0.88000000000E+00 0.  1.
        -11    1    3    3    0    0 -0.22542868082E-01 -0.83606005324E-01  0.58239608127E-01  0.10435639944E+00  0.51100000000E-03 0.  1.
         11    1    3    3    0    0 -0.68730038557E-02 -0.20577939284E-01  0.12850507523E-01  0.25220753988E-01  0.51100000000E-03 0. -1.
</event>
<event>
 8    1  0.1108957E+005  0.1043930E+01  0.7957747E-01            NaN
         13   -1    0    0    0    0  0.00000000000E+00  0.00000000000E+00  0.74505805969E-08  0.10566000000E+00  0.10566000000E+00 0. -1.
     999900   -1    0    0    0    0 -0.00000000000E+00 -0.00000000000E+00 -0.74505805969E-08  0.93827000000E+00  0.93827000000E+00 0.  1.
     999902    2    1    2    0    0  0.23398203674E-01 -0.17284605377E-02 -0.68580327319E-03  0.10204580202E+01  0.10201880401E+01 0.  0.
     999903    2    3    3    0    0 -0.68629107351E-01  0.45545354509E-01  0.97515644651E-01  0.12897197769E+00  0.18442786776E-01 0.  0.
         14    1    1    2    0    0 -0.23398203674E-01  0.17284605377E-02  0.68580327319E-03  0.23471979830E-01  0.00000000000E+00 0. -1.
     999901    1    3    3    0    0  0.92027311026E-01 -0.47273815047E-01 -0.98201447925E-01  0.89148604248E+00  0.88000000000E+00 0.  1.
        -11    1    4    4    0    0 -0.39868955786E-01  0.33858447588E-01  0.70698110000E-01  0.87945505782E-01  0.51100000000E-03 0.  1.
         11    1    4    4    0    0 -0.28760151565E-01  0.11686906921E-01  0.26817534651E-01  0.41026471907E-01  0.51100000000E-03 0. -1.
</event>
<event>
 8    1  0.1108957E+005  0.1043930E+01  0.7957747E-01            NaN
         13   -1    0    0    0    0  0.00000000000E+00  0.00000000000E+00  0.74505805969E-08  0.10566000000E+00  0.10566000000E+00 0. -1.
     999900   -1    0    0    0    0 -0.00000000000E+00 -0.00000000000E+00 -0.74505805969E-08  0.93827000000E+00  0.93827000000E+00 0. -1.
     999902    2    1    2    0    0 -0.76468300558E-02 -0.10427748359E-02  0.22896361332E-01  0.10197679481E+01  0.10194816640E+01 0.  0.
     999903    2    3    3    0    0  0.77558157622E-01  0.96911592523E-01 -0.27722263192E-01  0.12880375514E+00  0.20365629921E-01 0.  0.
         14    1    1    2    0    0  0.76468300558E-02  0.10427748359E-02 -0.22896361332E-01  0.24162051889E-01  0.00000000000E+00 0.  1.
     999901    1    3    3    0    0 -0.85204987678E-01 -0.97954367359E-01  0.50618624524E-01  0.89096419297E+00  0.88000000000E+00 0. -1.
        -11    1    4    4    0    0  0.50033806567E-01  0.46670167222E-01 -0.17266231459E-01  0.70568195229E-01  0.51100000000E-03 0. -1.
         11    1    4    4    0    0  0.27524351055E-01  0.50241425301E-01 -0.10456031733E-01  0.58235559909E-01  0.51100000000E-03 0.  1.
</event>
<event>
 8    1  0.1108957E+005  0.1043930E+01  0.7957747E-01            NaN
         13   -1    0    0    0    0  0.00000000000E+00  0.00000000000E+00  0.74505805969E-08  0.10566000000E+00  0.10566000000E+00 0. -1.
     999900   -1    0    0    0    0 -0.00000000000E+00 -0.00000000000E+00 -0.74505805969E-08  0.93827000000E+00  0.93827000000E+00 0.  1.
     999902    2    1    2    0    0 -0.60428339811E-02  0.21855850042E-01 -0.10267227407E-01  0.10190380338E+01  0.10187339713E+01 0.  0.
     999903    2    3    3    0    0 -0.37051049967E-01  0.95127386708E-01 -0.82074982527E-01  0.13253559090E+00  0.20183659044E-01 0.  0.
         14    1    1    2    0    0  0.60428339811E-02 -0.21855850042E-01  0.10267227407E-01  0.24891966218E-01  0.00000000000E+00 0. -1.
     999901    1    3    3    0    0  0.31008215986E-01 -0.73271536666E-01  0.71807755121E-01  0.88650244288E+00  0.88000000000E+00 0. -1.
        -11    1    4    4    0    0 -0.33076779268E-01  0.74623223396E-01 -0.55393479524E-01  0.98647845853E-01  0.51100000000E-03 0. -1.
         11    1    4    4    0    0 -0.39742706989E-02  0.20504163312E-01 -0.26681503003E-01  0.33887745045E-01  0.51100000000E-03 0.  1.
</event>
<event>
 8    1  0.1108957E+005  0.1043930E+01  0.7957747E-01            NaN
         13   -1    0    0    0    0  0.00000000000E+00  0.00000000000E+00  0.74505805969E-08  0.10566000000E+00  0.10566000000E+00 0. -1.
     999900   -1    0    0    0    0 -0.00000000000E+00 -0.00000000000E+00 -0.74505805969E-08  0.93827000000E+00  0.93827000000E+00 0.  1.
     999902    2    1    2    0    0  0.17582869089E-01  0.13351196566E-02 -0.15286745965E-01  0.10205928101E+01  0.10203259575E+01 0.  0.
     999903    2    3    3    0    0 -0.16739112469E-01  0.88507911532E-01 -0.94405194800E-01  0.13209023667E+00  0.20533911657E-01 0.  0.
         14    1    1    2    0    0 -0.17582869089E-01 -0.13351196566E-02  0.15286745965E-01  0.23337189893E-01  0.00000000000E+00 0. -1.
     999901    1    3    3    0    0  0.34321981558E-01 -0.87172791875E-01  0.79118448835E-01  0.88850257344E+00  0.88000000000E+00 0. -1.
        -11    1    4    4    0    0 -0.20313956281E-01  0.73199692525E-01 -0.83864832722E-01  0.11315663080E+00  0.51100000000E-03 0.  1.
         11    1    4    4    0    0  0.35748438123E-02  0.15308219006E-01 -0.10540362078E-01  0.18933605868E-01  0.51100000000E-03 0. -1.
</event>
<event>
 8    1  0.1108957E+005  0.1043930E+01  0.7957747E-01            NaN
         13   -1    0    0    0    0  0.00000000000E+00  0.00000000000E+00  0.74505805969E-08  0.10566000000E+00  0.10566000000E+00 0. -1.
     999900   -1    0    0    0    0 -0.00000000000E+00 -0.00000000000E+00 -0.74505805969E-08  0.93827000000E+00  0.93827000000E+00 0. -1.
     999902    2    1    2    0    0  0.32282022826E-02 -0.20160152998E-01  0.11252492880E-01  0.10206175215E+01  0.10203512403E+01 0.  0.
     999903    2    3    3    0    0  0.64166527800E-01 -0.45223650682E-01 -0.10269845802E+00  0.13082739024E+00  0.20157154740E-01 0.  0.
         14    1    1    2    0    0 -0.32282022826E-02  0.20160152998E-01 -0.11252492880E-01  0.23312478523E-01  0.00000000000E+00 0.  1.
     999901    1    3    3    0    0 -0.60938325518E-01  0.25063497684E-01  0.11395095090E+00  0.88979013124E+00  0.88000000000E+00 0.  1.
        -11    1    4    4    0    0  0.14894611147E-01 -0.19798885009E-01 -0.23526034059E-01  0.34169879841E-01  0.51100000000E-03 0. -1.
         11    1    4    4    0    0  0.49271916653E-01 -0.25424765672E-01 -0.79172423959E-01  0.96657510400E-01  0.51100000000E-03 0.  1.
</event>
<event>
 8    1  0.1108957E+005  0.1043930E+01  0.7957747E-01            NaN
         13   -1    0    0    0    0  0.00000000000E+00  0.00000000000E+00  0.74505805969E-08  0.10566000000E+00  0.10566000000E+00 0. -1.
     999900   -1    0    0    0    0 -0.00000000000E+00 -0.00000000000E+00 -0.74505805969E-08  0.93827000000E+00  0.93827000000E+00 0. -1.
     999902    2    1    2    0    0  0.71567386284E-02 -0.45065113313E-02  0.21385164768E-01  0.10209331997E+01  0.10206741622E+01 0.  0.
     999903    2    3    3    0    0  0.71585604706E-01  0.15162861599E-01  0.11010039771E+00  0.13391101532E+00  0.21345989696E-01 0.  0.
         14    1    1    2    0    0 -0.71567386284E-02  0.45065113313E-02 -0.21385164768E-01  0.22996800307E-01  0.00000000000E+00 0.  1.
     999901    1    3    3    0    0 -0.64428866078E-01 -0.19669372930E-01 -0.88715232937E-01  0.88702218437E+00  0.88000000000E+00 0. -1.
        -11    1    4    4    0    0  0.47719422930E-01 -0.57599389718E-04  0.64459707116E-01  0.80202628417E-01  0.51100000000E-03 0.  1.
         11    1    4    4    0    0  0.23866181777E-01  0.15220460989E-01  0.45640690589E-01  0.53708386903E-01  0.51100000000E-03 0. -1.
</event>
<event>
 8    1  0.1108957E+005  0.1043930E+01  0.7957747E-01            NaN
         13   -1    0    0    0    0  0.00000000000E+00  0.00000000000E+00  0.74505805969E-08  0.10566000000E+00  0.10566000000E+00 0.  1.
     999900   -1    0    0    0    0 -0.00000000000E+00 -0.00000000000E+00 -0.74505805969E-08  0.93827000000E+00  0.93827000000E+00 0.  1.
     999902    2    1    2    0    0 -0.16998137099E-01  0.18417427553E-02 -0.20722798967E-01  0.10170643513E+01  0.10167094628E+01 0.  0.
     999903    2    3    3    0    0  0.39566959450E-01 -0.11225459490E+00 -0.42430700050E-01  0.12763261287E+00  0.17974459786E-01 0.  0.
         14    1    1    2    0    0  0.16998137099E-01 -0.18417427553E-02  0.20722798967E-01  0.26865648665E-01  0.00000000000E+00 0.  1.
     999901    1    3    3    0    0 -0.56565096549E-01  0.11409633766E+00  0.21707901083E-01  0.88943173846E+00  0.88000000000E+00 0.  1.
        -11    1    4    4    0    0  0.33003749371E-01 -0.93998854475E-01 -0.28113717067E-01  0.10351654130E+00  0.51100000000E-03 0.  1.
         11    1    4    4    0    0  0.65632100795E-02 -0.18255740429E-01 -0.14316982983E-01  0.24116071568E-01  0.51100000000E-03 0. -1.
</event>
<event>
 8    1  0.1108957E+005  0.1043930E+01  0.7957747E-01            NaN
         13   -1    0    0    0    0  0.00000000000E+00  0.00000000000E+00  0.74505805969E-08  0.10566000000E+00  0.10566000000E+00 0.  1.
     999900   -1    0    0    0    0 -0.00000000000E+00 -0.00000000000E+00 -0.74505805969E-08  0.93827000000E+00  0.93827000000E+00 0.  1.
     999902    2    1    2    0    0 -0.18939324231E-01  0.37851798637E-02 -0.14188260197E-01  0.10199647686E+01  0.10196831846E+01 0.  0.
     999903    2    3    3    0    0  0.12329486430E-01 -0.20345006913E-01  0.12475036591E+00  0.12818904216E+00  0.17431041082E-01 0.  0.
         14    1    1    2    0    0  0.18939324231E-01 -0.37851798637E-02  0.14188260197E-01  0.23965231406E-01  0.00000000000E+00 0.  1.
     999901    1    3    3    0    0 -0.31268810661E-01  0.24130186776E-01 -0.13893862611E+00  0.89177572643E+00  0.88000000000E+00 0.  1.
        -11    1    4    4    0    0  0.15780845875E-01 -0.10495852371E-01  0.84944005990E-01  0.87034150126E-01  0.51100000000E-03 0.  1.
         11    1    4    4    0    0 -0.34513594455E-02 -0.98491545413E-02  0.39806359919E-01  0.41154892033E-01  0.51100000000E-03 0. -1.
</event>
<event>
 8    1  0.1108957E+005  0.1043930E+01  0.7957747E-01            NaN
         13   -1    0    0    0    0  0.00000000000E+00  0.00000000000E+00  0.74505805969E-08  0.10566000000E+00  0.10566000000E+00 0. -1.
     999900   -1    0    0    0    0 -0.00000000000E+00 -0.00000000000E+00 -0.74505805969E-08  0.93827000000E+00  0.93827000000E+00 0.  1.
     999902    2    1    2    0    0 -0.81401448851E-02  0.19763707733E-01  0.88140683893E-03  0.10225374083E+01  0.10223136057E+01 0.  0.
     999903    2    3    3    0    0 -0.11474581770E+00 -0.32086084877E-01 -0.55082969602E-01  0.13282667895E+00  0.20314368791E-01 0.  0.
         14    1    1    2    0    0  0.81401448851E-02 -0.19763707733E-01 -0.88140683893E-03  0.21392591711E-01  0.00000000000E+00 0. -1.
     999901    1    3    3    0    0  0.10660567281E+00  0.51849792610E-01  0.55964376441E-01  0.88971072934E+00  0.88000000000E+00 0.  1.
        -11    1    4    4    0    0 -0.96543011378E-01 -0.20624581734E-01 -0.39843426279E-01  0.10645978657E+00  0.51100000000E-03 0. -1.
         11    1    4    4    0    0 -0.18202806317E-01 -0.11461503144E-01 -0.15239543324E-01  0.26366892381E-01  0.51100000000E-03 0.  1.
</event>
<event>
 8    1  0.1108957E+005  0.1043930E+01  0.7957747E-01            NaN
         13   -1    0    0    0    0  0.00000000000E+00  0.00000000000E+00  0.74505805969E-08  0.10566000000E+00  0.10566000000E+00 0.  1.
     999900   -1    0    0    0    0 -0.00000000000E+00 -0.00000000000E+00 -0.74505805969E-08  0.93827000000E+00  0.93827000000E+00 0. -1.
     999902    2    1    2    0    0  0.14659252392E-03  0.23234372096E-01 -0.93501802969E-02  0.10188843735E+01  0.10185764984E+01 0.  0.
     999903    2    3    3    0    0  0.73497258517E-01  0.36758942629E-01  0.97455930471E-01  0.12929414225E+00  0.21592822033E-01 0.  0.
         14    1    1    2    0    0 -0.14659252392E-03 -0.23234372096E-01  0.93501802969E-02  0.25045626517E-01  0.00000000000E+00 0.  1.
     999901    1    3    3    0    0 -0.73350665993E-01 -0.13524570533E-01 -0.10680611077E+00  0.88959023123E+00  0.88000000000E+00 0. -1.
        -11    1    4    4    0    0  0.33072911511E-01  0.50546957310E-02  0.34985693174E-01  0.48411024288E-01  0.51100000000E-03 0. -1.
         11    1    4    4    0    0  0.40424347006E-01  0.31704246898E-01  0.62470237297E-01  0.80883117961E-01  0.51100000000E-03 0.  1.
</event>
<event>
 8    1  0.1108957E+005  0.1043930E+01  0.7957747E-01            NaN
         13   -1    0    0    0    0  0.00000000000E+00  0.00000000000E+00  0.74505805969E-08  0.10566000000E+00  0.10566000000E+00 0. -1.
     999900   -1    0    0    0    0 -0.00000000000E+00 -0.00000000000E+00 -0.74505805969E-08  0.93827000000E+00  0.93827000000E+00 0. -1.
     999902    2    1    2    0    0  0.14399281611E-01 -0.16133690462E-01 -0.11071158042E-01  0.10196358480E+01  0.10193463871E+01 0.  0.
     999903    2    3    3    0    0  0.26548963039E-01  0.91054618515E-01  0.83667024187E-01  0.12800124154E+00  0.19706747794E-01 0.  0.
         14    1    1    2    0    0 -0.14399281611E-01  0.16133690462E-01  0.11071158042E-01  0.24294151956E-01  0.00000000000E+00 0. -1.
     999901    1    3    3    0    0 -0.12149681428E-01 -0.10718830898E+00 -0.94738182230E-01  0.89163460650E+00  0.88000000000E+00 0. -1.
        -11    1    4    4    0    0  0.24227516543E-01  0.65396437725E-01  0.70085067633E-01  0.98872870147E-01  0.51100000000E-03 0. -1.
         11    1    4    4    0    0  0.23214464957E-02  0.25658180790E-01  0.13581956554E-01  0.29128371395E-01  0.51100000000E-03 0.  1.
</event>
<event>
 8    1  0.1108957E+005  0.1043930E+01  0.7957747E-01            NaN
         13   -1    0    0    0    0  0.00000000000E+00  0.00000000000E+00  0.74505805969E-08  0.10566000000E+00  0.10566000000E+00 0.  1.
     999900   -1    0    0    0    0 -0.00000000000E+00 -0.00000000000E+00 -0.74505805969E-08  0.93827000000E+00  0.93827000000E+00 0.  1.
     999902    2    1    2    0    0 -0.23679597568E-01 -0.37494746608E-02 -0.58204291032E-02  0.10192589786E+01  0.10189603556E+01 0.  0.
     999903    2    3    3    0    0  0.84784629902E-01 -0.92434354376E-01  0.93001920534E-02  0.12804737091E+00  0.24022745211E-01 0.  0.
         14    1    1    2    0    0  0.23679597568E-01  0.37494746608E-02  0.58204291032E-02  0.24671021384E-01  0.00000000000E+00 0.  1.
     999901    1    3    3    0    0 -0.10846422747E+00  0.88684879715E-01 -0.15120621157E-01  0.89121160771E+00  0.88000000000E+00 0. -1.
        -11    1    4    4    0    0  0.27208459794E-01 -0.15583558109E-01 -0.16174020182E-02  0.31401029888E-01  0.51100000000E-03 0.  1.
         11    1    4    4    0    0  0.57576170108E-01 -0.76850796267E-01  0.10917594072E-01  0.96646341019E-01  0.51100000000E-03 0. -1.
</event>
<event>
 8    1  0.1108957E+005  0.1043930E+01  0.7957747E-01            NaN
         13   -1    0    0    0    0  0.00000000000E+00  0.00000000000E+00  0.74505805969E-08  0.10566000000E+00  0.10566000000E+00 0. -1.
     999900   -1    0    0    0    0 -0.00000000000E+00 -0.00000000000E+00 -0.74505805969E-08  0.93827000000E+00  0.93827000000E+00 0. -1.
     999902    2    1    2    0    0  0.21894730954E-01 -0.94407910480E-02  0.39869767062E-02  0.10197555556E+01  0.10194689742E+01 0.  0.
     999903    2    3    3    0    0 -0.67766608939E-01 -0.18797759847E-01 -0.10597565547E+00  0.12834179689E+00  0.17178713989E-01 0.  0.
         14    1    1    2    0    0 -0.21894730954E-01  0.94407910480E-02 -0.39869767062E-02  0.24174444407E-01  0.00000000000E+00 0.  1.
     999901    1    3    3    0    0  0.89661339893E-01  0.93569687990E-02  0.10996263217E+00  0.89141375871E+00  0.88000000000E+00 0.  1.
        -11    1    4    4    0    0 -0.30958797377E-01 -0.14633126337E-01 -0.62107254576E-01  0.70923534271E-01  0.51100000000E-03 0.  1.
         11    1    4    4    0    0 -0.36807811562E-01 -0.41646335102E-02 -0.43868400890E-01  0.57418262616E-01  0.51100000000E-03 0. -1.
</event>
<event>
 8    1  0.1108957E+005  0.1043930E+01  0.7957747E-01            NaN
         13   -1    0    0    0    0  0.00000000000E+00  0.00000000000E+00  0.74505805969E-08  0.10566000000E+00  0.10566000000E+00 0. -1.
     999900   -1    0    0    0    0 -0.00000000000E+00 -0.00000000000E+00 -0.74505805969E-08  0.93827000000E+00  0.93827000000E+00 0. -1.
     999902    2    1    2    0    0  0.18488140497E-01  0.51168670377E-02  0.12736953561E-01  0.10209034142E+01  0.10206436976E+01 0.  0.
     999903    2    3    3    0    0 -0.10224519507E+00  0.68815543166E-01 -0.32952281688E-01  0.12920752105E+00  0.20471241581E-01 0.  0.
         14    1    1    2    0    0 -0.18488140497E-01 -0.51168670377E-02 -0.12736953561E-01  0.23026585794E-01  0.00000000000E+00 0.  1.
     999901    1    3    3    0    0  0.12073333556E+00 -0.63698676128E-01  0.45689235249E-01  0.89169589316E+00  0.88000000000E+00 0.  1.
        -11    1    4    4    0    0 -0.41919277613E-01  0.16638809799E-01 -0.98331594953E-02  0.46163058540E-01  0.51100000000E-03 0.  1.
         11    1    4    4    0    0 -0.60325917453E-01  0.52176733367E-01 -0.23119122193E-01  0.83044462509E-01  0.51100000000E-03 0. -1.
</event>
<event>
 8    1  0.1108957E+005  0.1043930E+01  0.7957747E-01            NaN
         13   -1    0    0    0    0  0.00000000000E+00  0.00000000000E+00  0.74505805969E-08  0.10566000000E+00  0.10566000000E+00 0.  1.
     999900   -1    0    0    0    0 -0.00000000000E+00 -0.00000000000E+00 -0.74505805969E-08  0.93827000000E+00  0.93827000000E+00 0.  1.
     999902    2    1    2    0    0  0.15512649089E-01  0.19404276552E-01 -0.14747417338E-01  0.10150396115E+01  0.10146283844E+01 0.  0.
     999903    2    3    3    0    0 -0.74404671521E-01 -0.36694944181E-01  0.88308726628E-01  0.12270961876E+00  0.19407350800E-01 0.  0.
         14    1    1    2    0    0 -0.15512649089E-01 -0.19404276552E-01  0.14747417338E-01  0.28890388512E-01  0.00000000000E+00 0. -1.
     999901    1    3    3    0    0  0.89917320609E-01  0.56099220733E-01 -0.10305614397E+00  0.89232999273E+00  0.88000000000E+00 0. -1.
        -11    1    4    4    0    0 -0.42622551883E-01 -0.30515398676E-01  0.48741498931E-01  0.71581186945E-01  0.51100000000E-03 0. -1.
         11    1    4    4    0    0 -0.31782119637E-01 -0.61795455054E-02  0.39567227696E-01  0.51128431815E-01  0.51100000000E-03 0.  1.
</event>
<event>
 8    1  0.1108957E+005  0.1043930E+01  0.7957747E-01            NaN
         13   -1    0    0    0    0  0.00000000000E+00  0.00000000000E+00  0.74505805969E-08  0.10566000000E+00  0.10566000000E+00 0. -1.
     999900   -1    0    0    0    0 -0.00000000000E+00 -0.00000000000E+00 -0.74505805969E-08  0.93827000000E+00  0.93827000000E+00 0. -1.
     999902    2    1    2    0    0 -0.72900002124E-02 -0.16308157266E-01 -0.14361862455E-01  0.10210091974E+01  0.10207518886E+01 0.  0.
     999903    2    3    3    0    0  0.45510272452E-01 -0.11553064631E+00  0.40395546509E-01  0.13217212297E+00  0.20473269805E-01 0.  0.
         14    1    1    2    0    0  0.72900002124E-02  0.16308157266E-01  0.14361862455E-01  0.22920802553E-01  0.00000000000E+00 0.  1.
     999901    1    3    3    0    0 -0.52800272664E-01  0.99222489049E-01 -0.54757408964E-01  0.88883707448E+00  0.88000000000E+00 0. -1.
        -11    1    4    4    0    0  0.34939944498E-01 -0.10515527287E+00  0.38092562343E-01  0.11717395427E+00  0.51100000000E-03 0. -1.
         11    1    4    4    0    0  0.10570327954E-01 -0.10375373449E-01  0.23029841660E-02  0.14998168699E-01  0.51100000000E-03 0.  1.
</event>
<event>
 7    1  0.1108957E+005  0.1043930E+01  0.7957747E-01            NaN
         13   -1    0    0    0    0  0.00000000000E+00  0.00000000000E+00  0.74505805969E-08  0.10566000000E+00  0.10566000000E+00 0.  1.
     999900   -1    0    0    0    0 -0.00000000000E+00 -0.00000000000E+00 -0.74505805969E-08  0.93827000000E+00  0.93827000000E+00 0.  1.
     999903    2    1    2    0    0  0.45603429129E-01 -0.99820643179E-01  0.24716935937E-01  0.11430137213E+00  0.20249523357E-01 0.  0.
         14    1    1    2    0    0  0.11733221465E-01  0.28220454605E-01  0.30450291137E-01  0.43142586552E-01  0.00000000000E+00 0.  1.
     999901    1    1    2    0    0 -0.57336650594E-01  0.71600188574E-01 -0.55167227074E-01  0.88648604132E+00  0.88000000000E+00 0.  1.
        -11    1    3    3    0    0  0.18406361035E-01 -0.58000338253E-01  0.65357821136E-02  0.61203030422E-01  0.51100000000E-03 0.  1.
         11    1    3    3    0    0  0.27197068094E-01 -0.41820304926E-01  0.18181153823E-01  0.53098341710E-01  0.51100000000E-03 0. -1.
</event>
<event>
 8    1  0.1108957E+005  0.1043930E+01  0.7957747E-01            NaN
         13   -1    0    0    0    0  0.00000000000E+00  0.00000000000E+00  0.74505805969E-08  0.10566000000E+00  0.10566000000E+00 0. -1.
     999900   -1    0    0    0    0 -0.00000000000E+00 -0.00000000000E+00 -0.74505805969E-08  0.93827000000E+00  0.93827000000E+00 0. -1.
     999902    2    1    2    0    0 -0.11575514980E-01  0.16430487773E-01 -0.15340895548E-01  0.10186456857E+01  0.10183318400E+01 0.  0.
     999903    2    3    3    0    0 -0.11963077580E+00  0.42944136125E-01 -0.25709162842E-01  0.13157950216E+00  0.22281898200E-01 0.  0.
         14    1    1    2    0    0  0.11575514980E-01 -0.16430487773E-01  0.15340895548E-01  0.25284314342E-01  0.00000000000E+00 0. -1.
     999901    1    3    3    0    0  0.10805526082E+00 -0.26513648351E-01  0.10368267294E-01  0.88706618350E+00  0.88000000000E+00 0.  1.
        -11    1    4    4    0    0 -0.33519704733E-01  0.17924974636E-02 -0.79730497528E-02  0.34505279246E-01  0.51100000000E-03 0. -1.
         11    1    4    4    0    0 -0.86111071072E-01  0.41151638661E-01 -0.17736113089E-01  0.97074222913E-01  0.51100000000E-03 0.  1.
</event>
<event>
 8    1  0.1108957E+005  0.1043930E+01  0.7957747E-01            NaN
         13   -1    0    0    0    0  0.00000000000E+00  0.00000000000E+00  0.74505805969E-08  0.10566000000E+00  0.10566000000E+00 0. -1.
     999900   -1    0    0    0    0 -0.00000000000E+00 -0.00000000000E+00 -0.74505805969E-08  0.93827000000E+00  0.93827000000E+00 0. -1.
     999902    2    1    2    0    0  0.55798358775E-02  0.14378936237E-01  0.17958057887E-01  0.10202576486E+01  0.10199829849E+01 0.  0.
     999903    2    3    3    0    0  0.19117598491E-01 -0.11532869259E+00 -0.48738421454E-01  0.12815016613E+00  0.19515159422E-01 0.  0.
         14    1    1    2    0    0 -0.55798358775E-02 -0.14378936237E-01 -0.17958057887E-01  0.23672351358E-01  0.00000000000E+00 0.  1.
     999901    1    3    3    0    0 -0.13537762614E-01  0.12970762883E+00  0.66696479341E-01  0.89210748251E+00  0.88000000000E+00 0.  1.
        -11    1    4    4    0    0  0.15769750895E-01 -0.97711175342E-01 -0.33141310416E-01  0.10437799772E+00  0.51100000000E-03 0. -1.
         11    1    4    4    0    0  0.33478475961E-02 -0.17617517249E-01 -0.15597111038E-01  0.23772168418E-01  0.51100000000E-03 0.  1.
</event>
<event>
 8    1  0.1108957E+005  0.1043930E+01  0.7957747E-01            NaN
         13   -1    0    0    0    0  0.00000000000E+00  0.00000000000E+00  0.74505805969E-08  0.10566000000E+00  0.10566000000E+00 0.  1.
     999900   -1    0    0    0    0 -0.00000000000E+00 -0.00000000000E+00 -0.74505805969E-08  0.93827000000E+00  0.93827000000E+00 0.  1.
     999902    2    1    2    0    0  0.24610022131E-01  0.43517755794E-02  0.40390662907E-02  0.10186138945E+01  0.10182992492E+01 0.  0.
     999903    2    3    3    0    0 -0.31516535911E-01  0.45560139392E-01 -0.11386001261E+00  0.12802503732E+00  0.18902099694E-01 0.  0.
         14    1    1    2    0    0 -0.24610022131E-01 -0.43517755794E-02 -0.40390662907E-02  0.25316105476E-01  0.00000000000E+00 0. -1.
     999901    1    3    3    0    0  0.56126558042E-01 -0.41208363813E-01  0.11789907890E+00  0.89058885720E+00  0.88000000000E+00 0. -1.
        -11    1    4    4    0    0 -0.21245045488E-01  0.14297538147E-01 -0.48612344881E-01  0.54947181462E-01  0.51100000000E-03 0. -1.
         11    1    4    4    0    0 -0.10271490423E-01  0.31262601246E-01 -0.65247667729E-01  0.73077855860E-01  0.51100000000E-03 0.  1.
</event>
<event>
 8    1  0.1108957E+005  0.1043930E+01  0.7957747E-01            NaN
         13   -1    0    0    0    0  0.00000000000E+00  0.00000000000E+00  0.74505805969E-08  0.10566000000E+00  0.10566000000E+00 0. -1.
     999900   -1    0    0    0    0 -0.00000000000E+00 -0.00000000000E+00 -0.74505805969E-08  0.93827000000E+00  0.93827000000E+00 0. -1.
     999902    2    1    2    0    0 -0.19556425207E-01  0.10640427062E-01 -0.95872353980E-02  0.10196897950E+01  0.10194016336E+01 0.  0.
     999903    2    3    3    0    0 -0.31794312883E-02 -0.13218546765E-01  0.12656749329E+00  0.12874896269E+00  0.19290574773E-01 0.  0.
         14    1    1    2    0    0  0.19556425207E-01 -0.10640427062E-01  0.95872353980E-02  0.24240204981E-01  0.00000000000E+00 0.  1.
     999901    1    3    3    0    0 -0.16376993918E-01  0.23858973827E-01 -0.13615472869E+00  0.89094083233E+00  0.88000000000E+00 0. -1.
        -11    1    4    4    0    0 -0.10746388058E-01 -0.88258633907E-02  0.59186945733E-01  0.60800792652E-01  0.51100000000E-03 0. -1.
         11    1    4    4    0    0  0.75669567693E-02 -0.43926833747E-02  0.67380547556E-01  0.67948170041E-01  0.51100000000E-03 0.  1.
</event>
<event>
 8    1  0.1108957E+005  0.1043930E+01  0.7957747E-01            NaN
         13   -1    0    0    0    0  0.00000000000E+00  0.00000000000E+00  0.74505805969E-08  0.10566000000E+00  0.10566000000E+00 0.  1.
     999900   -1    0    0    0    0 -0.00000000000E+00 -0.00000000000E+00 -0.74505805969E-08  0.93827000000E+00  0.93827000000E+00 0.  1.
     999902    2    1    2    0    0  0.10388659877E-03  0.23522513560E-01 -0.18467494260E-02  0.10203348751E+01  0.10200620213E+01 0.  0.
     999903    2    3    3    0    0  0.97117795687E-01 -0.55053344905E-01 -0.62325426434E-01  0.12946814292E+00  0.20366743170E-01 0.  0.
         14    1    1    2    0    0 -0.10388659877E-03 -0.23522513560E-01  0.18467494260E-02  0.23595124921E-01  0.00000000000E+00 0.  1.
     999901    1    3    3    0    0 -0.97013909088E-01  0.78575858465E-01  0.60478677008E-01  0.89086673216E+00  0.88000000000E+00 0. -1.
        -11    1    4    4    0    0  0.75995085807E-01 -0.51559958139E-01 -0.53671630398E-01  0.10637004927E+00  0.51100000000E-03 0. -1.
         11    1    4    4    0    0  0.21122709880E-01 -0.34933867660E-02 -0.86537960355E-02  0.23098093657E-01  0.51100000000E-03 0.  1.
</event>
<event>
 8    1  0.1108957E+005  0.1043930E+01  0.7957747E-01            NaN
         13   -1    0    0    0    0  0.00000000000E+00  0.00000000000E+00  0.74505805969E-08  0.10566000000E+00  0.10566000000E+00 0. -1.
     999900   -1    0    0    0    0 -0.00000000000E+00 -0.00000000000E+00 -0.74505805969E-08  0.93827000000E+00  0.93827000000E+00 0.  1.
     999902    2    1    2    0    0 -0.11397612065E-01  0.42323003221E-02  0.21045670668E-01  0.10196248939E+01  0.10193351687E+01 0.  0.
     999903    2    3    3    0    0 -0.50249074139E-01 -0.43050548409E-01 -0.10791475634E+00  0.12812284928E+00  0.19787640134E-01 0.  0.
         14    1    1    2    0    0  0.11397612065E-01 -0.42323003221E-02 -0.21045670668E-01  0.24305106062E-01  0.00000000000E+00 0. -1.
     999901    1    3    3    0    0  0.38851462074E-01  0.47282848731E-01  0.12896042701E+00  0.89150204465E+00  0.88000000000E+00 0. -1.
        -11    1    4    4    0    0 -0.30653984952E-01 -0.33858789313E-01 -0.58867812216E-01  0.74510166039E-01  0.51100000000E-03 0.  1.
         11    1    4    4    0    0 -0.19595089188E-01 -0.91917590961E-02 -0.49046944126E-01  0.53612683244E-01  0.51100000000E-03 0. -1.
</event>
<event>
 8    1  0.1108957E+005  0.1043930E+01  0.7957747E-01            NaN
         13   -1    0    0    0    0  0.00000000000E+00  0.00000000000E+00  0.74505805969E-08  0.10566000000E+00  0.10566000000E+00 0. -1.
     999900   -1    0    0    0    0 -0.00000000000E+00 -0.00000000000E+00 -0.74505805969E-08  0.93827000000E+00  0.93827000000E+00 0.  1.
     999902    2    1    2    0    0 -0.11554544938E-01  0.21147037976E-01 -0.14395252264E-02  0.10197892263E+01  0.10195034522E+01 0.  0.
     999903    2    3    3    0    0  0.12535225239E+00  0.15304443320E-02  0.19454291023E-01  0.12874218291E+00  0.21921468570E-01 0.  0.
         14    1    1    2    0    0  0.11554544938E-01 -0.21147037976E-01  0.14395252264E-02  0.24140773740E-01  0.00000000000E+00 0. -1.
     999901    1    3    3    0    0 -0.13690679732E+00  0.19616593644E-01 -0.20893816249E-01  0.89104704335E+00  0.88000000000E+00 0. -1.
        -11    1    4    4    0    0  0.27887241119E-01 -0.39687890311E-02  0.12654121188E-01  0.30884258250E-01  0.51100000000E-03 0.  1.
         11    1    4    4    0    0  0.97465011266E-01  0.54992333631E-02  0.68001698343E-02  0.97857924663E-01  0.51100000000E-03 0. -1.
</event>
<event>
 8    1  0.1108957E+005  0.1043930E+01  0.7957747E-01            NaN
         13   -1    0    0    0    0  0.00000000000E+00  0.00000000000E+00  0.74505805969E-08  0.10566000000E+00  0.10566000000E+00 0. -1.
     999900   -1    0    0    0    0 -0.00000000000E+00 -0.00000000000E+00 -0.74505805969E-08  0.93827000000E+00  0.93827000000E+00 0.  1.
     999902    2    1    2    0    0 -0.10547359309E-01  0.92248224801E-02  0.19259499208E-01  0.10201125180E+01  0.10198344361E+01 0.  0.
     999903    2    3    3    0    0  0.97678752670E-01  0.83456994246E-01 -0.34230115320E-02  0.13009128067E+00  0.20144867497E-01 0.  0.
         14    1    1    2    0    0  0.10547359309E-01 -0.92248224801E-02 -0.19259499208E-01  0.23817481982E-01  0.00000000000E+00 0.  1.
     999901    1    3    3    0    0 -0.10822611198E+00 -0.74232171766E-01  0.22682510740E-01  0.89002123735E+00  0.88000000000E+00 0.  1.
        -11    1    4    4    0    0  0.23778025326E-01  0.26287688824E-01 -0.87220627716E-02  0.36507157820E-01  0.51100000000E-03 0.  1.
         11    1    4    4    0    0  0.73900727344E-01  0.57169305422E-01  0.52990512396E-02  0.93584122849E-01  0.51100000000E-03 0. -1.
</event>
<event>
 8    1  0.1108957E+005  0.1043930E+01  0.7957747E-01            NaN
         13   -1    0    0    0    0  0.00000000000E+00  0.00000000000E+00  0.74505805969E-08  0.10566000000E+00  0.10566000000E+00 0. -1.
     999900   -1    0    0    0    0 -0.00000000000E+00 -0.00000000000E+00 -0.74505805969E-08  0.93827000000E+00  0.93827000000E+00 0.  1.
     999902    2    1    2    0    0 -0.21511809007E-01 -0.53447880155E-02  0.10592713803E-01  0.10193631469E+01  0.10190670709E+01 0.  0.
     999903    2    3    3    0    0  0.41337347335E-04 -0.12352048576E+00  0.37504827259E-01  0.13079446891E+00  0.21053952544E-01 0.  0.
         14    1    1    2    0    0  0.21511809007E-01  0.53447880155E-02 -0.10592713803E-01  0.24566853103E-01  0.00000000000E+00 0.  1.
     999901    1    3    3    0    0 -0.21553146354E-01  0.11817569774E+00 -0.26912113456E-01  0.88856867799E+00  0.88000000000E+00 0.  1.
        -11    1    4    4    0    0 -0.81761929287E-02 -0.48247776816E-01  0.21223299804E-01  0.53342175378E-01  0.51100000000E-03 0. -1.
         11    1    4    4    0    0  0.82175302760E-02 -0.75272708943E-01  0.16281527455E-01  0.77452293528E-01  0.51100000000E-03 0.  1.
</event>
<event>
 8    1  0.1108957E+005  0.1043930E+01  0.7957747E-01            NaN
         13   -1    0    0    0    0  0.00000000000E+00  0.00000000000E+00  0.74505805969E-08  0.10566000000E+00  0.10566000000E+00 0. -1.
     999900   -1    0    0    0    0 -0.00000000000E+00 -0.00000000000E+00 -0.74505805969E-08  0.93827000000E+00  0.93827000000E+00 0. -1.
     999902    2    1    2    0    0  0.23495961151E-02  0.21142446170E-01 -0.10506690206E-01  0.10202041877E+01  0.10199282673E+01 0.  0.
     999903    2    3    3    0    0 -0.58069035671E-02 -0.12150965091E+00 -0.37179068871E-01  0.12828066792E+00  0.16593107232E-01 0.  0.
         14    1    1    2    0    0 -0.23495961151E-02 -0.21142446170E-01  0.10506690206E-01  0.23725812336E-01  0.00000000000E+00 0. -1.
     999901    1    3    3    0    0  0.81564996822E-02  0.14265209708E+00  0.26672378665E-01  0.89192351974E+00  0.88000000000E+00 0. -1.
        -11    1    4    4    0    0 -0.86587534834E-02 -0.32088465663E-01 -0.11957876336E-01  0.35325565360E-01  0.51100000000E-03 0. -1.
         11    1    4    4    0    0  0.28518499164E-02 -0.89421185243E-01 -0.25221192535E-01  0.92955102561E-01  0.51100000000E-03 0.  1.
</event>
<event>
 8    1  0.1108957E+005  0.1043930E+01  0.7957747E-01            NaN
         13   -1    0    0    0    0  0.00000000000E+00  0.00000000000E+00  0.74505805969E-08  0.10566000000E+00  0.10566000000E+00 0.  1.
     999900   -1    0    0    0    0 -0.00000000000E+00 -0.00000000000E+00 -0.74505805969E-08  0.93827000000E+00  0.93827000000E+00 0. -1.
     999902    2    1    2    0    0  0.10712972834E-01  0.12946152662E-01 -0.41106142619E-02  0.10266306415E+01  0.10264848787E+01 0.  0.
     999903    2    3    3    0    0 -0.33539401903E-01  0.70691423642E-01  0.10972314991E+00  0.13632119255E+00  0.20545779504E-01 0.  0.
         14    1    1    2    0    0 -0.10712972834E-01 -0.12946152662E-01  0.41106142619E-02  0.17299358523E-01  0.00000000000E+00 0.  1.
     999901    1    3    3    0    0  0.44252374736E-01 -0.57745270980E-01 -0.11383376417E+00  0.89030944893E+00  0.88000000000E+00 0. -1.
        -11    1    4    4    0    0  0.19151017096E-02  0.10829728953E-01  0.11171633045E-01  0.15684933842E-01  0.51100000000E-03 0.  1.
         11    1    4    4    0    0 -0.35454503612E-01  0.59861694689E-01  0.98551516862E-01  0.12063625870E+00  0.51100000000E-03 0. -1.
</event>
<event>
 8    1  0.1108957E+005  0.1043930E+01  0.7957747E-01            NaN
         13   -1    0    0    0    0  0.00000000000E+00  0.00000000000E+00  0.74505805969E-08  0.10566000000E+00  0.10566000000E+00 0.  1.
     999900   -1    0    0    0    0 -0.00000000000E+00 -0.00000000000E+00 -0.74505805969E-08  0.93827000000E+00  0.93827000000E+00 0.  1.
     999902    2    1    2    0    0 -0.17563856712E-01 -0.71046000377E-02 -0.14729266502E-01  0.10199317564E+01  0.10196493868E+01 0.  0.
     999903    2    3    3    0    0 -0.78564269967E-01 -0.10427431189E+00 -0.84140388119E-02  0.13246182146E+00  0.20733100569E-01 0.  0.
         14    1    1    2    0    0  0.17563856712E-01  0.71046000377E-02  0.14729266502E-01  0.23998243601E-01  0.00000000000E+00 0.  1.
     999901    1    3    3    0    0  0.61000413256E-01  0.97169711855E-01 -0.63152276896E-02  0.88746993494E+00  0.88000000000E+00 0. -1.
        -11    1    4    4    0    0 -0.59169905737E-02 -0.18377723855E-01 -0.48158806006E-02  0.19904907397E-01  0.51100000000E-03 0. -1.
         11    1    4    4    0    0 -0.72647279394E-01 -0.85896588037E-01 -0.35981582113E-02  0.11255691406E+00  0.51100000000E-03 0.  1.
</event>
<event>
 8    1  0.1108957E+005  0.1043930E+01  0.7957747E-01            NaN
         13   -1    0    0    0    0  0.00000000000E+00  0.00000000000E+00  0.74505805969E-08  0.10566000000E+00  0.10566000000E+00 0. -1.
     999900   -1    0    0    0    0 -0.00000000000E+00 -0.00000000000E+00 -0.74505805969E-08  0.93827000000E+00  0.93827000000E+00 0. -1.
     999902    2    1    2    0    0  0.15144654134E-01  0.56187700202E-02  0.15839412393E-01  0.10213066026E+01  0.10210560016E+01 0.  0.
     999903    2    3    3    0    0 -0.45487655432E-01  0.78009481243E-01  0.95262585142E-01  0.13269829045E+00  0.19474860725E-01 0.  0.
         14    1    1    2    0    0 -0.15144654134E-01 -0.56187700202E-02 -0.15839412393E-01  0.22623397409E-01  0.00000000000E+00 0.  1.
     999901    1    3    3    0    0  0.60632309566E-01 -0.72390711223E-01 -0.79423172749E-01  0.88860831214E+00  0.88000000000E+00 0.  1.
        -11    1    4    4    0    0 -0.26688973942E-01  0.33643712696E-01  0.55804565867E-01  0.70417408548E-01  0.51100000000E-03 0. -1.
         11    1    4    4    0    0 -0.18798681490E-01  0.44365768547E-01  0.39458019275E-01  0.62280881903E-01  0.51100000000E-03 0.  1.
</event>
<event>
 8    1  0.1108957E+005  0.1043930E+01  0.7957747E-01            NaN
         13   -1    0    0    0    0  0.00000000000E+00  0.00000000000E+00  0.74505805969E-08  0.10566000000E+00  0.10566000000E+00 0.  1.
     999900   -1    0    0    0    0 -0.00000000000E+00 -0.00000000000E+00 -0.74505805969E-08  0.93827000000E+00  0.93827000000E+00 0.  1.
     999902    2    1    2    0    0  0.10129495345E-01  0.19290490265E-01 -0.78369076973E-02  0.10207751557E+01  0.10205125045E+01 0.  0.
     999903    2    3    3    0    0  0.95999874062E-01 -0.59174315510E-01  0.62517497912E-01  0.13033695458E+00  0.19018642135E-01 0.  0.
         14    1    1    2    0    0 -0.10129495345E-01 -0.19290490265E-01  0.78369076973E-02  0.23154844264E-01  0.00000000000E+00 0.  1.
     999901    1    3    3    0    0 -0.85870378716E-01  0.78464805775E-01 -0.70354405609E-01  0.89043820115E+00  0.88000000000E+00 0.  1.
        -11    1    4    4    0    0  0.42932696884E-01 -0.29068659460E-01  0.39273455296E-01  0.65045129229E-01  0.51100000000E-03 0.  1.
         11    1    4    4    0    0  0.53067177178E-01 -0.30105656050E-01  0.23244042616E-01  0.65291825353E-01  0.51100000000E-03 0. -1.
</event>
<event>
 8    1  0.1108957E+005  0.1043930E+01  0.7957747E-01            NaN
         13   -1    0    0    0    0  0.00000000000E+00  0.00000000000E+00  0.74505805969E-08  0.10566000000E+00  0.10566000000E+00 0.  1.
     999900   -1    0    0    0    0 -0.00000000000E+00 -0.00000000000E+00 -0.74505805969E-08  0.93827000000E+00  0.93827000000E+00 0. -1.
     999902    2    1    2    0    0 -0.66467108911E-02 -0.17520738729E-02 -0.22111878931E-01  0.10207743588E+01  0.10205116893E+01 0.  0.
     999903    2    3    3    0    0  0.95026214798E-01 -0.72356579982E-01  0.45606461072E-01  0.12953468641E+00  0.20828574778E-01 0.  0.
         14    1    1    2    0    0  0.66467108911E-02  0.17520738729E-02  0.22111878931E-01  0.23155641179E-01  0.00000000000E+00 0.  1.
     999901    1    3    3    0    0 -0.10167292569E+00  0.70604506109E-01 -0.67718340004E-01  0.89123967241E+00  0.88000000000E+00 0. -1.
        -11    1    4    4    0    0  0.10799257421E-01 -0.23965880503E-02  0.41459035250E-03  0.11081543272E-01  0.51100000000E-03 0. -1.
         11    1    4    4    0    0  0.84226957377E-01 -0.69959991931E-01  0.45191870720E-01  0.11845314314E+00  0.51100000000E-03 0.  1.
</event>
<event>
 8    1  0.1108957E+005  0.1043930E+01  0.7957747E-01            NaN
         13   -1    0    0    0    0  0.00000000000E+00  0.00000000000E+00  0.74505805969E-08  0.10566000000E+00  0.10566000000E+00 0.  1.
     999900   -1    0    0    0    0 -0.00000000000E+00 -0.00000000000E+00 -0.74505805969E-08  0.93827000000E+00  0.93827000000E+00 0. -1.
     999902    2    1    2    0    0  0.23955036879E-01 -0.39206505241E-03  0.38216975248E-02  0.10196688607E+01  0.10193801953E+01 0.  0.
     999903    2    3    3    0    0 -0.92424085489E-01 -0.85871506549E-01 -0.39962578251E-02  0.12786621694E+00  0.20437028695E-01 0.  0.
         14    1    1    2    0    0 -0.23955036879E-01  0.39206505241E-03 -0.38216975248E-02  0.24261139274E-01  0.00000000000E+00 0. -1.
     999901    1    3    3    0    0  0.11637912237E+00  0.85479441496E-01  0.78179553500E-02  0.89180264379E+00  0.88000000000E+00 0. -1.
        -11    1    4    4    0    0 -0.66492730227E-01 -0.69889615615E-01 -0.94023247794E-02  0.96925261805E-01  0.51100000000E-03 0. -1.
         11    1    4    4    0    0 -0.25931355263E-01 -0.15981890934E-01  0.54060669543E-02  0.30940955132E-01  0.51100000000E-03 0.  1.
</event>
<event>
 8    1  0.1108957E+005  0.1043930E+01  0.7957747E-01            NaN
         13   -1    0    0    0    0  0.00000000000E+00  0.00000000000E+00  0.74505805969E-08  0.10566000000E+00  0.10566000000E+00 0. -1.
     999900   -1    0    0    0    0 -0.00000000000E+00 -0.00000000000E+00 -0.74505805969E-08  0.93827000000E+00  0.93827000000E+00 0. -1.
     999902    2    1    2    0    0 -0.20133634283E-01  0.92123464178E-02 -0.86859363520E-02  0.10201460549E+01  0.10198687647E+01 0.  0.
     999903    2    3    3    0    0  0.90428491997E-02  0.12942504619E+00  0.11947985576E-01  0.13125454342E+00  0.15886632957E-01 0.  0.
         14    1    1    2    0    0  0.20133634283E-01 -0.92123464178E-02  0.86859363520E-02  0.23783945137E-01  0.00000000000E+00 0.  1.
     999901    1    3    3    0    0 -0.29176483483E-01 -0.12021269977E+00 -0.20633921928E-01  0.88889151144E+00  0.88000000000E+00 0. -1.
        -11    1    4    4    0    0  0.11405968013E-01  0.12060370203E+00  0.83658742895E-02  0.12143145401E+00  0.51100000000E-03 0. -1.
         11    1    4    4    0    0 -0.23631188135E-02  0.88213441661E-02  0.35821112866E-02  0.98230894169E-02  0.51100000000E-03 0.  1.
</event>
<event>
 8    1  0.1108957E+005  0.1043930E+01  0.7957747E-01            NaN
         13   -1    0    0    0    0  0.00000000000E+00  0.00000000000E+00  0.74505805969E-08  0.10566000000E+00  0.10566000000E+00 0.  1.
     999900   -1    0    0    0    0 -0.00000000000E+00 -0.00000000000E+00 -0.74505805969E-08  0.93827000000E+00  0.93827000000E+00 0.  1.
     999902    2    1    2    0    0 -0.23140052334E-01 -0.42951451692E-02 -0.39960187686E-02  0.10200578727E+01  0.10197784981E+01 0.  0.
     999903    2    3    3    0    0  0.68314503319E-01 -0.12472109716E-01  0.10568596816E+00  0.12850813394E+00  0.22855890638E-01 0.  0.
         14    1    1    2    0    0  0.23140052334E-01  0.42951451692E-02  0.39960187686E-02  0.23872127263E-01  0.00000000000E+00 0. -1.
     999901    1    3    3    0    0 -0.91454555654E-01  0.81769645470E-02 -0.10968198693E+00  0.89154973880E+00  0.88000000000E+00 0.  1.
        -11    1    4    4    0    0  0.28667130257E-02 -0.97463955418E-03  0.19183419193E-01  0.19427626174E-01  0.51100000000E-03 0.  1.
         11    1    4    4    0    0  0.65447790294E-01 -0.11497470162E-01  0.86502548969E-01  0.10908050776E+00  0.51100000000E-03 0. -1.
</event>
<event>
 8    1  0.1108957E+005  0.1043930E+01  0.7957747E-01            NaN
         13   -1    0    0    0    0  0.00000000000E+00  0.00000000000E+00  0.74505805969E-08  0.10566000000E+00  0.10566000000E+00 0.  1.
     999900   -1    0    0    0    0 -0.00000000000E+00 -0.00000000000E+00 -0.74505805969E-08  0.93827000000E+00  0.93827000000E+00 0.  1.
     999902    2    1    2    0    0  0.16084337599E-01  0.14097799467E-01  0.12383488591E-01  0.10192155375E+01  0.10189158490E+01 0.  0.
     999903    2    3    3    0    0 -0.85010389083E-01  0.75745447742E-01 -0.56477211229E-01  0.12861889915E+00  0.19723253403E-01 0.  0.
         14    1    1    2    0    0 -0.16084337599E-01 -0.14097799467E-01 -0.12383488591E-01  0.24714462476E-01  0.00000000000E+00 0.  1.
     999901    1    3    3    0    0  0.10109472668E+00 -0.61647648275E-01  0.68860699821E-01  0.89059663837E+00  0.88000000000E+00 0. -1.
        -11    1    4    4    0    0 -0.47755965144E-01  0.40500493651E-01 -0.20193649996E-01  0.65794884406E-01  0.51100000000E-03 0. -1.
         11    1    4    4    0    0 -0.37254423940E-01  0.35244954091E-01 -0.36283561233E-01  0.62824014745E-01  0.51100000000E-03 0.  1.
</event>
<event>
 8    1  0.1108957E+005  0.1043930E+01  0.7957747E-01            NaN
         13   -1    0    0    0    0  0.00000000000E+00  0.00000000000E+00  0.74505805969E-08  0.10566000000E+00  0.10566000000E+00 0.  1.
     999900   -1    0    0    0    0 -0.00000000000E+00 -0.00000000000E+00 -0.74505805969E-08  0.93827000000E+00  0.93827000000E+00 0.  1.
     999902    2    1    2    0    0 -0.19249794247E-01 -0.11852938226E-01  0.16470110709E-01  0.10159601722E+01  0.10155750884E+01 0.  0.
     999903    2    3    3    0    0  0.20346136492E-01 -0.11250816349E+00 -0.50914909798E-01  0.12678074532E+00  0.20223185300E-01 0.  0.
         14    1    1    2    0    0  0.19249794247E-01  0.11852938226E-01 -0.16470110709E-01  0.27969827849E-01  0.00000000000E+00 0. -1.
     999901    1    3    3    0    0 -0.39595930739E-01  0.10065522526E+00  0.67385020507E-01  0.88917942683E+00  0.88000000000E+00 0. -1.
        -11    1    4    4    0    0 -0.40118231543E-02 -0.21652054781E-01 -0.88556157673E-02  0.23740034812E-01  0.51100000000E-03 0.  1.
         11    1    4    4    0    0  0.24357959646E-01 -0.90856108706E-01 -0.42059294030E-01  0.10304071051E+00  0.51100000000E-03 0. -1.
</event>
<event>
 8    1  0.1108957E+005  0.1043930E+01  0.7957747E-01            NaN
         13   -1    0    0    0    0  0.00000000000E+00  0.00000000000E+00  0.74505805969E-08  0.10566000000E+00  0.10566000000E+00 0.  1.
     999900   -1    0    0    0    0 -0.00000000000E+00 -0.00000000000E+00 -0.74505805969E-08  0.93827000000E+00  0.93827000000E+00 0. -1.
     999902    2    1    2    0    0  0.68689546646E-03 -0.14643554711E-01 -0.22152914852E-01  0.10173657918E+01  0.10170189267E+01 0.  0.
     999903    2    3    3    0    0  0.77350295597E-01 -0.76412230993E-01 -0.69420756830E-01  0.13061504038E+00  0.20473153647E-01 0.  0.
         14    1    1    2    0    0 -0.68689546646E-03  0.14643554711E-01  0.22152914852E-01  0.26564208183E-01  0.00000000000E+00 0.  1.
     999901    1    3    3    0    0 -0.76663400130E-01  0.61768676283E-01  0.47267841978E-01  0.88675075144E+00  0.88000000000E+00 0.  1.
        -11    1    4    4    0    0  0.28113175215E-01 -0.16991992008E-01 -0.14582350932E-01  0.35944185799E-01  0.51100000000E-03 0.  1.
         11    1    4    4    0    0  0.49237120382E-01 -0.59420238985E-01 -0.54838405898E-01  0.94670854581E-01  0.51100000000E-03 0. -1.
</event>
<event>
 8    1  0.1108957E+005  0.1043930E+01  0.7957747E-01            NaN
         13   -1    0    0    0    0  0.00000000000E+00  0.00000000000E+00  0.74505805969E-08  0.10566000000E+00  0.10566000000E+00 0.  1.
     999900   -1    0    0    0    0 -0.00000000000E+00 -0.00000000000E+00 -0.74505805969E-08  0.93827000000E+00  0.93827000000E+00 0. -1.
     999902    2    1    2    0    0 -0.16137982612E-01 -0.15274701230E-01 -0.55589109002E-02  0.10210247065E+01  0.10207677497E+01 0.  0.
     999903    2    3    3    0    0 -0.49862047640E-01 -0.66268299515E-01 -0.10299401844E+00  0.13353878558E+00  0.18631374176E-01 0.  0.
         14    1    1    2    0    0  0.16137982612E-01  0.15274701230E-01  0.55589109002E-02  0.22905293511E-01  0.00000000000E+00 0. -1.
     999901    1    3    3    0    0  0.33724065029E-01  0.50993598286E-01  0.97435107543E-01  0.88748592091E+00  0.88000000000E+00 0.  1.
        -11    1    4    4    0    0 -0.34995975640E-01 -0.38886011663E-01 -0.51909767430E-01  0.73700239414E-01  0.51100000000E-03 0.  1.
         11    1    4    4    0    0 -0.14866072001E-01 -0.27382287852E-01 -0.51084251013E-01  0.59838546167E-01  0.51100000000E-03 0. -1.
</event>
<event>
 8    1  0.1108957E+005  0.1043930E+01  0.7957747E-01            NaN
         13   -1    0    0    0    0  0.00000000000E+00  0.00000000000E+00  0.74505805969E-08  0.10566000000E+00  0.10566000000E+00 0. -1.
     999900   -1    0    0    0    0 -0.00000000000E+00 -0.00000000000E+00 -0.74505805969E-08  0.93827000000E+00  0.93827000000E+00 0. -1.
     999902    2    1    2    0    0  0.14360077285E-01 -0.14185677884E-01  0.12678368929E-01  0.10200933409E+01  0.10198148057E+01 0.  0.
     999903    2    3    3    0    0 -0.67624719884E-01 -0.10460583411E+00  0.36550643200E-01  0.13134860981E+00  0.20025596424E-01 0.  0.
         14    1    1    2    0    0 -0.14360077285E-01  0.14185677884E-01 -0.12678368929E-01  0.23836659064E-01  0.00000000000E+00 0.  1.
     999901    1    3    3    0    0  0.81984797169E-01  0.90420156228E-01 -0.23872274271E-01  0.88874473112E+00  0.88000000000E+00 0.  1.
        -11    1    4    4    0    0 -0.33699555917E-01 -0.69505652403E-01  0.19887689225E-01  0.79765137051E-01  0.51100000000E-03 0. -1.
         11    1    4    4    0    0 -0.33925163966E-01 -0.35100181708E-01  0.16662953974E-01  0.51583472762E-01  0.51100000000E-03 0.  1.
</event>
<event>
 8    1  0.1108957E+005  0.1043930E+01  0.7957747E-01            NaN
         13   -1    0    0    0    0  0.00000000000E+00  0.00000000000E+00  0.74505805969E-08  0.10566000000E+00  0.10566000000E+00 0. -1.
     999900   -1    0    0    0    0 -0.00000000000E+00 -0.00000000000E+00 -0.74505805969E-08  0.93827000000E+00  0.93827000000E+00 0.  1.
     999902    2    1    2    0    0 -0.20489181807E-01  0.97993319757E-02  0.51815845896E-02  0.10206344576E+01  0.10203685676E+01 0.  0.
     999903    2    3    3    0    0  0.75385423884E-02  0.40475366004E-01 -0.12217962135E+00  0.13049545204E+00  0.20152375906E-01 0.  0.
         14    1    1    2    0    0  0.20489181807E-01 -0.97993319757E-02 -0.51815845896E-02  0.23295542431E-01  0.00000000000E+00 0. -1.
     999901    1    3    3    0    0 -0.28027724196E-01 -0.30676034028E-01  0.12736120594E+00  0.89013900553E+00  0.88000000000E+00 0. -1.
        -11    1    4    4    0    0 -0.28798439307E-02  0.25878332173E-01 -0.53366990065E-01  0.59382474913E-01  0.51100000000E-03 0. -1.
         11    1    4    4    0    0  0.10418386319E-01  0.14597033830E-01 -0.68812631286E-01  0.71112977126E-01  0.51100000000E-03 0.  1.
</event>
<event>
 8    1  0.1108957E+005  0.1043930E+01  0.7957747E-01            NaN
         13   -1    0    0    0    0  0.00000000000E+00  0.00000000000E+00  0.74505805969E-08  0.10566000000E+00  0.10566000000E+00 0. -1.
     999900   -1    0    0    0    0 -0.00000000000E+00 -0.00000000000E+00 -0.74505805969E-08  0.93827000000E+00  0.93827000000E+00 0. -1.
     999902    2    1    2    0    0  0.72449259087E-02 -0.71152500721E-02 -0.21358946715E-01  0.10202800457E+01  0.10200059075E+01 0.  0.
     999903    2    3    3    0    0  0.12348482075E+00  0.35417237336E-01  0.14437102397E-01  0.13089706699E+00  0.20560412550E-01 0.  0.
         14    1    1    2    0    0 -0.72449259087E-02  0.71152500721E-02  0.21358946715E-01  0.23649954330E-01  0.00000000000E+00 0. -1.
     999901    1    3    3    0    0 -0.11623989484E+00 -0.42532487408E-01 -0.35796049112E-01  0.88938297868E+00  0.88000000000E+00 0. -1.
        -11    1    4    4    0    0  0.10507496594E+00  0.22242209318E-01  0.13291407434E-01  0.10822378193E+00  0.51100000000E-03 0.  1.
         11    1    4    4    0    0  0.18409854814E-01  0.13175028018E-01  0.11456949627E-02  0.22673285061E-01  0.51100000000E-03 0. -1.
</event>
<event>
 8    1  0.1108957E+005  0.1043930E+01  0.7957747E-01            NaN
         13   -1    0    0    0    0  0.00000000000E+00  0.00000000000E+00  0.74505805969E-08  0.10566000000E+00  0.10566000000E+00 0.  1.
     999900   -1    0    0    0    0 -0.00000000000E+00 -0.00000000000E+00 -0.74505805969E-08  0.93827000000E+00  0.93827000000E+00 0. -1.
     999902    2    1    2    0    0 -0.20761282961E-01  0.85868905515E-02  0.50177499252E-02  0.10209095010E+01  0.10206499233E+01 0.  0.
     999903    2    3    3    0    0 -0.13510447609E-01  0.35280827334E-01  0.12501244857E+00  0.13233543624E+00  0.21384256263E-01 0.  0.
         14    1    1    2    0    0  0.20761282961E-01 -0.85868905515E-02 -0.50177499252E-02  0.23020498992E-01  0.00000000000E+00 0.  1.
     999901    1    3    3    0    0 -0.72508353521E-02 -0.26693936783E-01 -0.11999469864E+00  0.88857406477E+00  0.88000000000E+00 0. -1.
        -11    1    4    4    0    0 -0.30742450037E-03  0.22072963905E-01  0.89787894441E-01  0.92463167556E-01  0.51100000000E-03 0. -1.
         11    1    4    4    0    0 -0.13203023108E-01  0.13207863429E-01  0.35224554128E-01  0.39872268685E-01  0.51100000000E-03 0.  1.
</event>
<event>
 8    1  0.1108957E+005  0.1043930E+01  0.7957747E-01            NaN
         13   -1    0    0    0    0  0.00000000000E+00  0.00000000000E+00  0.74505805969E-08  0.10566000000E+00  0.10566000000E+00 0.  1.
     999900   -1    0    0    0    0 -0.00000000000E+00 -0.00000000000E+00 -0.74505805969E-08  0.93827000000E+00  0.93827000000E+00 0. -1.
     999902    2    1    2    0    0  0.25491213442E-02  0.16395494583E-01 -0.12527023039E-01  0.10231397001E+01  0.10229284479E+01 0.  0.
     999903    2    3    3    0    0  0.53660692016E-01  0.12054564752E+00  0.20447687220E-01  0.13491282679E+00  0.19303883456E-01 0.  0.
         14    1    1    2    0    0 -0.25491213442E-02 -0.16395494583E-01  0.12527023039E-01  0.20790299865E-01  0.00000000000E+00 0.  1.
     999901    1    3    3    0    0 -0.51111570671E-01 -0.10415015294E+00 -0.32974710260E-01  0.88822687334E+00  0.88000000000E+00 0. -1.
        -11    1    4    4    0    0  0.18249263182E-01  0.64694111568E-01  0.10197951624E-01  0.67989874368E-01  0.51100000000E-03 0. -1.
         11    1    4    4    0    0  0.35411428833E-01  0.55851535953E-01  0.10249735597E-01  0.66922952424E-01  0.51100000000E-03 0.  1.
</event>
<event>
 8    1  0.1108957E+005  0.1043930E+01  0.7957747E-01            NaN
         13   -1    0    0    0    0  0.00000000000E+00  0.00000000000E+00  0.74505805969E-08  0.10566000000E+00  0.10566000000E+00 0.  1.
     999900   -1    0    0    0    0 -0.00000000000E+00 -0.00000000000E+00 -0.74505805969E-08  0.93827000000E+00  0.93827000000E+00 0.  1.
     999902    2    1    2    0    0  0.23729345437E-01 -0.24612005010E-02 -0.17781255987E-02  0.10200071851E+01  0.10197266087E+01 0.  0.
     999903    2    3    3    0    0  0.70962605507E-01  0.92657160791E-01  0.57217330531E-01  0.13166099842E+00  0.20970330633E-01 0.  0.
         14    1    1    2    0    0 -0.23729345437E-01  0.24612005010E-02  0.17781255987E-02  0.23922814914E-01  0.00000000000E+00 0.  1.
     999901    1    3    3    0    0 -0.47233260070E-01 -0.95118361292E-01 -0.58995456130E-01  0.88834618666E+00  0.88000000000E+00 0.  1.
        -11    1    4    4    0    0  0.47525635214E-01  0.53914656447E-01  0.25040233078E-01  0.76110121376E-01  0.51100000000E-03 0. -1.
         11    1    4    4    0    0  0.23436970294E-01  0.38742504344E-01  0.32177097453E-01  0.55550877049E-01  0.51100000000E-03 0.  1.
</event>
<event>
 8    1  0.1108957E+005  0.1043930E+01  0.7957747E-01            NaN
         13   -1    0    0    0    0  0.00000000000E+00  0.00000000000E+00  0.74505805969E-08  0.10566000000E+00  0.10566000000E+00 0. -1.
     999900   -1    0    0    0    0 -0.00000000000E+00 -0.00000000000E+00 -0.74505805969E-08  0.93827000000E+00  0.93827000000E+00 0.  1.
     999902    2    1    2    0    0  0.27769427457E-02  0.14595371663E-01  0.17119675893E-01  0.10212624111E+01  0.10210108191E+01 0.  0.
     999903    2    3    3    0    0  0.90110552684E-02 -0.95442847138E-01  0.87816596362E-01  0.13157407895E+00  0.20234808324E-01 0.  0.
         14    1    1    2    0    0 -0.27769427457E-02 -0.14595371663E-01 -0.17119675893E-01  0.22667588925E-01  0.00000000000E+00 0.  1.
     999901    1    3    3    0    0 -0.62341125228E-02  0.11003821880E+00 -0.70696920468E-01  0.88968833213E+00  0.88000000000E+00 0. -1.
        -11    1    4    4    0    0  0.81580437444E-02 -0.82063050045E-01  0.64595253281E-01  0.10475545679E+00  0.51100000000E-03 0. -1.
         11    1    4    4    0    0  0.85301152403E-03 -0.13379797094E-01  0.23221343080E-01  0.26818622157E-01  0.51100000000E-03 0.  1.
</event>
<event>
 8    1  0.1184620E+005  0.1043930E+01  0.7957747E-01            NaN
         13   -1    0    0    0    0  0.00000000000E+00  0.00000000000E+00  0.74505805969E-08  0.10566000000E+00  0.10566000000E+00 0. -1.
     999900   -1    0    0    0    0 -0.00000000000E+00 -0.00000000000E+00 -0.74505805969E-08  0.93827000000E+00  0.93827000000E+00 0. -1.
     999902    2    1    2    0    0  0.11381073186E-03 -0.21589396076E-01 -0.92060079323E-02  0.10204594747E+01  0.10201895284E+01 0.  0.
     999903    2    3    3    0    0 -0.48221991886E-01  0.69419639290E-01 -0.96902233294E-01  0.13011705615E+00  0.19898710066E-01 0.  0.
         14    1    1    2    0    0 -0.11381073186E-03  0.21589396076E-01  0.92060079323E-02  0.23470525300E-01  0.00000000000E+00 0.  1.
     999901    1    3    3    0    0  0.48335802617E-01 -0.91009035366E-01  0.87696225362E-01  0.89034241855E+00  0.88000000000E+00 0.  1.
        -11    1    4    4    0    0 -0.40302942092E-01  0.41683931979E-01 -0.64201471845E-01  0.86509926798E-01  0.51100000000E-03 0. -1.
         11    1    4    4    0    0 -0.79190497934E-02  0.27735707311E-01 -0.32700761449E-01  0.43607129348E-01  0.51100000000E-03 0.  1.
</event>
<event>
 8    1  0.1108957E+005  0.1043930E+01  0.7957747E-01            NaN
         13   -1    0    0    0    0  0.00000000000E+00  0.00000000000E+00  0.74505805969E-08  0.10566000000E+00  0.10566000000E+00 0. -1.
     999900   -1    0    0    0    0 -0.00000000000E+00 -0.00000000000E+00 -0.74505805969E-08  0.93827000000E+00  0.93827000000E+00 0.  1.
     999902    2    1    2    0    0 -0.12579354069E-01  0.19603069798E-01 -0.23539400347E-02  0.10205192860E+01  0.10202507298E+01 0.  0.
     999903    2    3    3    0    0 -0.64461735202E-01 -0.63928672367E-01  0.91598399859E-01  0.13007199642E+00  0.16919424957E-01 0.  0.
         14    1    1    2    0    0  0.12579354069E-01 -0.19603069798E-01  0.23539400347E-02  0.23410713957E-01  0.00000000000E+00 0.  1.
     999901    1    3    3    0    0  0.51882381133E-01  0.83531742165E-01 -0.93952339893E-01  0.89044728962E+00  0.88000000000E+00 0.  1.
        -11    1    4    4    0    0 -0.27072646163E-01 -0.25839255826E-01  0.49692900646E-01  0.62211259491E-01  0.51100000000E-03 0. -1.
         11    1    4    4    0    0 -0.37389089039E-01 -0.38089416541E-01  0.41905499213E-01  0.67860736932E-01  0.51100000000E-03 0.  1.
</event>
<event>
 8    1  0.1108957E+005  0.1043930E+01  0.7957747E-01            NaN
         13   -1    0    0    0    0  0.00000000000E+00  0.00000000000E+00  0.74505805969E-08  0.10566000000E+00  0.10566000000E+00 0.  1.
     999900   -1    0    0    0    0 -0.00000000000E+00 -0.00000000000E+00 -0.74505805969E-08  0.93827000000E+00  0.93827000000E+00 0. -1.
     999902    2    1    2    0    0  0.16282177204E-01 -0.31107831010E-02 -0.21518010536E-01  0.10167673226E+01  0.10164044359E+01 0.  0.
     999903    2    3    3    0    0  0.11675363334E+00 -0.51898575007E-01  0.21810463613E-02  0.12939118621E+00  0.20308843425E-01 0.  0.
         14    1    1    2    0    0 -0.16282177204E-01  0.31107831010E-02  0.21518010536E-01  0.27162677398E-01  0.00000000000E+00 0.  1.
     999901    1    3    3    0    0 -0.10047145613E+00  0.48787791906E-01 -0.23699056897E-01  0.88737613639E+00  0.88000000000E+00 0. -1.
        -11    1    4    4    0    0  0.10520050345E+00 -0.39383005300E-01  0.20292606669E-02  0.11235010481E+00  0.51100000000E-03 0.  1.
         11    1    4    4    0    0  0.11553129890E-01 -0.12515569707E-01  0.15178569444E-03  0.17041081399E-01  0.51100000000E-03 0. -1.
</event>
<event>
 8    1  0.1108957E+005  0.1043930E+01  0.7957747E-01            NaN
         13   -1    0    0    0    0  0.00000000000E+00  0.00000000000E+00  0.74505805969E-08  0.10566000000E+00  0.10566000000E+00 0. -1.
     999900   -1    0    0    0    0 -0.00000000000E+00 -0.00000000000E+00 -0.74505805969E-08  0.93827000000E+00  0.93827000000E+00 0. -1.
     999902    2    1    2    0    0 -0.10328353870E-01  0.68443020270E-03  0.21400117576E-01  0.10201579919E+01  0.10198809833E+01 0.  0.
     999903    2    3    3    0    0 -0.95873371774E-01 -0.81546731494E-01 -0.29145897990E-01  0.13075661244E+00  0.20155284522E-01 0.  0.
         14    1    1    2    0    0  0.10328353870E-01 -0.68443020270E-03 -0.21400117576E-01  0.23772008132E-01  0.00000000000E+00 0.  1.
     999901    1    3    3    0    0  0.85545017904E-01  0.82231161696E-01  0.50546015565E-01  0.88940137943E+00  0.88000000000E+00 0. -1.
        -11    1    4    4    0    0 -0.46906141572E-01 -0.52712658137E-01 -0.13897086111E-01  0.71918012823E-01  0.51100000000E-03 0. -1.
         11    1    4    4    0    0 -0.48967230202E-01 -0.28834073357E-01 -0.15248811879E-01  0.58838599616E-01  0.51100000000E-03 0.  1.
</event>
<event>
 8    1  0.1108957E+005  0.1043930E+01  0.7957747E-01            NaN
         13   -1    0    0    0    0  0.00000000000E+00  0.00000000000E+00  0.74505805969E-08  0.10566000000E+00  0.10566000000E+00 0. -1.
     999900   -1    0    0    0    0 -0.00000000000E+00 -0.00000000000E+00 -0.74505805969E-08  0.93827000000E+00  0.93827000000E+00 0.  1.
     999902    2    1    2    0    0  0.93267964781E-02 -0.18196231085E-01  0.84337658537E-02  0.10218116736E+01  0.10215722568E+01 0.  0.
     999903    2    3    3    0    0  0.12939790453E-01 -0.12470397915E+00 -0.42379698979E-01  0.13392713020E+00  0.20540611580E-01 0.  0.
         14    1    1    2    0    0 -0.93267964781E-02  0.18196231085E-01 -0.84337658537E-02  0.22118326445E-01  0.00000000000E+00 0.  1.
     999901    1    3    3    0    0 -0.36129939747E-02  0.10650774807E+00  0.50813464832E-01  0.88788454336E+00  0.88000000000E+00 0. -1.
        -11    1    4    4    0    0 -0.56614787219E-03 -0.15856749463E-01  0.11619099945E-02  0.15917543240E-01  0.51100000000E-03 0. -1.
         11    1    4    4    0    0  0.13505938325E-01 -0.10884722969E+00 -0.43541608973E-01  0.11800958696E+00  0.51100000000E-03 0.  1.
</event>
<event>
 8    1  0.1108957E+005  0.1043930E+01  0.7957747E-01            NaN
         13   -1    0    0    0    0  0.00000000000E+00  0.00000000000E+00  0.74505805969E-08  0.10566000000E+00  0.10566000000E+00 0. -1.
     999900   -1    0    0    0    0 -0.00000000000E+00 -0.00000000000E+00 -0.74505805969E-08  0.93827000000E+00  0.93827000000E+00 0.  1.
     999902    2    1    2    0    0  0.20689489493E-01 -0.13521553700E-01  0.95277427043E-03  0.10191955065E+01  0.10188953260E+01 0.  0.
     999903    2    3    3    0    0  0.10817280572E+00  0.15592915320E-01  0.70655033359E-01  0.13163740257E+00  0.19793360277E-01 0.  0.
         14    1    1    2    0    0 -0.20689489493E-01  0.13521553700E-01 -0.95277427043E-03  0.24734493501E-01  0.00000000000E+00 0. -1.
     999901    1    3    3    0    0 -0.87483316228E-01 -0.29114469021E-01 -0.69702259088E-01  0.88755810393E+00  0.88000000000E+00 0.  1.
        -11    1    4    4    0    0  0.35588870424E-01 -0.41174766440E-02  0.21508710837E-01  0.41790035593E-01  0.51100000000E-03 0. -1.
         11    1    4    4    0    0  0.72583935297E-01  0.19710391964E-01  0.49146322522E-01  0.89847366979E-01  0.51100000000E-03 0.  1.
</event>
<event>
 8    1  0.1108957E+005  0.1043930E+01  0.7957747E-01            NaN
         13   -1    0    0    0    0  0.00000000000E+00  0.00000000000E+00  0.74505805969E-08  0.10566000000E+00  0.10566000000E+00 0. -1.
     999900   -1    0    0    0    0 -0.00000000000E+00 -0.00000000000E+00 -0.74505805969E-08  0.93827000000E+00  0.93827000000E+00 0. -1.
     999902    2    1    2    0    0 -0.39056114774E-02  0.14607754749E-01 -0.18379790292E-01  0.10201296430E+01  0.10198519655E+01 0.  0.
     999903    2    3    3    0    0 -0.23931687136E-01  0.10848424478E+00  0.66319990692E-01  0.13086708790E+00  0.19654427386E-01 0.  0.
         14    1    1    2    0    0  0.39056114774E-02 -0.14607754749E-01  0.18379790292E-01  0.23800356951E-01  0.00000000000E+00 0. -1.
     999901    1    3    3    0    0  0.20026075658E-01 -0.93876490032E-01 -0.84699780983E-01  0.88926255515E+00  0.88000000000E+00 0. -1.
        -11    1    4    4    0    0 -0.26186270716E-01  0.81589873936E-01  0.47673633703E-01  0.98059496095E-01  0.51100000000E-03 0. -1.
         11    1    4    4    0    0  0.22545835807E-02  0.26894370845E-01  0.18646356988E-01  0.32807591807E-01  0.51100000000E-03 0.  1.
</event>
<event>
 8    1  0.1108957E+005  0.1043930E+01  0.7957747E-01            NaN
         13   -1    0    0    0    0  0.00000000000E+00  0.00000000000E+00  0.74505805969E-08  0.10566000000E+00  0.10566000000E+00 0.  1.
     999900   -1    0    0    0    0 -0.00000000000E+00 -0.00000000000E+00 -0.74505805969E-08  0.93827000000E+00  0.93827000000E+00 0. -1.
     999902    2    1    2    0    0  0.22430790913E-01  0.24618917858E-02 -0.57359822971E-02  0.10206468992E+01  0.10203812964E+01 0.  0.
     999903    2    3    3    0    0  0.31214383020E-01  0.44443360484E-01  0.11724300687E+00  0.13106080046E+00  0.21942214083E-01 0.  0.
         14    1    1    2    0    0 -0.22430790913E-01 -0.24618917858E-02  0.57359822971E-02  0.23283100847E-01  0.00000000000E+00 0.  1.
     999901    1    3    3    0    0 -0.87835921068E-02 -0.41981468698E-01 -0.12297898917E+00  0.88958609869E+00  0.88000000000E+00 0. -1.
        -11    1    4    4    0    0  0.21555298736E-01  0.16943613624E-01  0.39974254210E-01  0.48475963806E-01  0.51100000000E-03 0. -1.
         11    1    4    4    0    0  0.96590842839E-02  0.27499746860E-01  0.77268752663E-01  0.82584836657E-01  0.51100000000E-03 0.  1.
</event>
<event>
 8    1  0.1108957E+005  0.1043930E+01  0.7957747E-01            NaN
         13   -1    0    0    0    0  0.00000000000E+00  0.00000000000E+00  0.74505805969E-08  0.10566000000E+00  0.10566000000E+00 0.  1.
     999900   -1    0    0    0    0 -0.00000000000E+00 -0.00000000000E+00 -0.74505805969E-08  0.93827000000E+00  0.93827000000E+00 0. -1.
     999902    2    1    2    0    0  0.10540558737E-01 -0.12245334342E-01  0.15155391942E-01  0.10217774043E+01  0.10215372369E+01 0.  0.
     999903    2    3    3    0    0  0.12418254765E+00 -0.45329009308E-01  0.11879758971E-02  0.13374355364E+00  0.20246052155E-01 0.  0.
         14    1    1    2    0    0 -0.10540558737E-01  0.12245334342E-01 -0.15155391942E-01  0.22152595707E-01  0.00000000000E+00 0. -1.
     999901    1    3    3    0    0 -0.11364198891E+00  0.33083674966E-01  0.13967416045E-01  0.88803385065E+00  0.88000000000E+00 0. -1.
        -11    1    4    4    0    0  0.39517689441E-01 -0.24665579766E-01  0.26939430120E-03  0.46587254675E-01  0.51100000000E-03 0. -1.
         11    1    4    4    0    0  0.84664858210E-01 -0.20663429542E-01  0.91858159586E-03  0.87156298965E-01  0.51100000000E-03 0.  1.
</event>
<event>
 8    1  0.1108957E+005  0.1043930E+01  0.7957747E-01            NaN
         13   -1    0    0    0    0  0.00000000000E+00  0.00000000000E+00  0.74505805969E-08  0.10566000000E+00  0.10566000000E+00 0.  1.
     999900   -1    0    0    0    0 -0.00000000000E+00 -0.00000000000E+00 -0.74505805969E-08  0.93827000000E+00  0.93827000000E+00 0.  1.
     999902    2    1    2    0    0 -0.15625407602E-01  0.16257845634E-01  0.70433863536E-02  0.10203062789E+01  0.10200327556E+01 0.  0.
     999903    2    3    3    0    0  0.12149075540E+00 -0.12782192384E-02 -0.36616956929E-01  0.12844609854E+00  0.19898773917E-01 0.  0.
         14    1    1    2    0    0  0.15625407602E-01 -0.16257845634E-01 -0.70433863536E-02  0.23623721103E-01  0.00000000000E+00 0. -1.
     999901    1    3    3    0    0 -0.13711616300E+00  0.17536064873E-01  0.43660343282E-01  0.89186018036E+00  0.88000000000E+00 0. -1.
        -11    1    4    4    0    0  0.99244090914E-02 -0.57076121996E-02 -0.35414935113E-02  0.11994750107E-01  0.51100000000E-03 0. -1.
         11    1    4    4    0    0  0.11156634631E+00  0.44293929613E-02 -0.33075463418E-01  0.11645134843E+00  0.51100000000E-03 0.  1.
</event>
<event>
 8    1  0.1108957E+005  0.1043930E+01  0.7957747E-01            NaN
         13   -1    0    0    0    0  0.00000000000E+00  0.00000000000E+00  0.74505805969E-08  0.10566000000E+00  0.10566000000E+00 0. -1.
     999900   -1    0    0    0    0 -0.00000000000E+00 -0.00000000000E+00 -0.74505805969E-08  0.93827000000E+00  0.93827000000E+00 0. -1.
     999902    2    1    2    0    0 -0.50296278153E-02 -0.23964571293E-02 -0.23242340270E-01  0.10200292355E+01  0.10197491823E+01 0.  0.
     999903    2    3    3    0    0  0.23697911907E-01  0.71749308212E-02 -0.12955841436E+00  0.13311323574E+00  0.17907544146E-01 0.  0.
         14    1    1    2    0    0  0.50296278153E-02  0.23964571293E-02  0.23242340270E-01  0.23900764505E-01  0.00000000000E+00 0. -1.
     999901    1    3    3    0    0 -0.28727539722E-01 -0.95713879506E-02  0.10631607409E+00  0.88691599975E+00  0.88000000000E+00 0.  1.
        -11    1    4    4    0    0  0.12445776865E-01 -0.54411950646E-02 -0.61605537575E-01  0.63087299407E-01  0.51100000000E-03 0.  1.
         11    1    4    4    0    0  0.11252135041E-01  0.12616125886E-01 -0.67952876785E-01  0.70025936336E-01  0.51100000000E-03 0. -1.
</event>
<event>
 8    1  0.1108957E+005  0.1043930E+01  0.7957747E-01            NaN
         13   -1    0    0    0    0  0.00000000000E+00  0.00000000000E+00  0.74505805969E-08  0.10566000000E+00  0.10566000000E+00 0.  1.
     999900   -1    0    0    0    0 -0.00000000000E+00 -0.00000000000E+00 -0.74505805969E-08  0.93827000000E+00  0.93827000000E+00 0. -1.
     999902    2    1    2    0    0  0.21320968277E-01 -0.72889139707E-02  0.10311542499E-01  0.10191501722E+01  0.10188488768E+01 0.  0.
     999903    2    3    3    0    0  0.70000423260E-01  0.10188001908E+00 -0.34485239511E-01  0.12994024373E+00  0.20387193365E-01 0.  0.
         14    1    1    2    0    0 -0.21320968277E-01  0.72889139707E-02 -0.10311542499E-01  0.24779827761E-01  0.00000000000E+00 0.  1.
     999901    1    3    3    0    0 -0.48679454982E-01 -0.10916893305E+00  0.44796782010E-01  0.88920992851E+00  0.88000000000E+00 0. -1.
        -11    1    4    4    0    0  0.46321174894E-01  0.82592477147E-01 -0.27469321207E-01  0.98600168627E-01  0.51100000000E-03 0.  1.
         11    1    4    4    0    0  0.23679248366E-01  0.19287541928E-01 -0.70159183043E-02  0.31340075103E-01  0.51100000000E-03 0. -1.
</event>
<event>
 8    1  0.1108957E+005  0.1043930E+01  0.7957747E-01            NaN
         13   -1    0    0    0    0  0.00000000000E+00  0.00000000000E+00  0.74505805969E-08  0.10566000000E+00  0.10566000000E+00 0.  1.
     999900   -1    0    0    0    0 -0.00000000000E+00 -0.00000000000E+00 -0.74505805969E-08  0.93827000000E+00  0.93827000000E+00 0.  1.
     999902    2    1    2    0    0  0.11449458020E-02 -0.70238192142E-02  0.22218574261E-01  0.10205995482E+01  0.10203328515E+01 0.  0.
     999903    2    3    3    0    0 -0.44540989767E-01 -0.97162974093E-01 -0.71508656722E-01  0.12987115766E+00  0.18124191077E-01 0.  0.
         14    1    1    2    0    0 -0.11449458020E-02  0.70238192142E-02 -0.22218574261E-01  0.23330451762E-01  0.00000000000E+00 0. -1.
     999901    1    3    3    0    0  0.45685935569E-01  0.90139154879E-01  0.93727230983E-01  0.89072839058E+00  0.88000000000E+00 0.  1.
        -11    1    4    4    0    0 -0.28328321823E-01 -0.40219789655E-01 -0.31799220501E-01  0.58579662364E-01  0.51100000000E-03 0. -1.
         11    1    4    4    0    0 -0.16212667944E-01 -0.56943184438E-01 -0.39709436221E-01  0.71291495298E-01  0.51100000000E-03 0.  1.
</event>
<event>
 8    1  0.1108957E+005  0.1043930E+01  0.7957747E-01            NaN
         13   -1    0    0    0    0  0.00000000000E+00  0.00000000000E+00  0.74505805969E-08  0.10566000000E+00  0.10566000000E+00 0. -1.
     999900   -1    0    0    0    0 -0.00000000000E+00 -0.00000000000E+00 -0.74505805969E-08  0.93827000000E+00  0.93827000000E+00 0.  1.
     999902    2    1    2    0    0 -0.81817820024E-02 -0.85172368775E-02  0.20058110778E-01  0.10206531297E+01  0.10203876707E+01 0.  0.
     999903    2    3    3    0    0  0.60813683103E-01  0.71594416092E-01 -0.84958514181E-01  0.12812484299E+00  0.19338091706E-01 0.  0.
         14    1    1    2    0    0  0.81817820024E-02  0.85172368775E-02 -0.20058110778E-01  0.23276870253E-01  0.00000000000E+00 0.  1.
     999901    1    3    3    0    0 -0.68995465105E-01 -0.80111652969E-01  0.10501662496E+00  0.89252828676E+00  0.88000000000E+00 0. -1.
        -11    1    4    4    0    0  0.45039851953E-01  0.38992479728E-01 -0.55782050762E-01  0.81614337267E-01  0.51100000000E-03 0. -1.
         11    1    4    4    0    0  0.15773831150E-01  0.32601936364E-01 -0.29176463419E-01  0.46510505721E-01  0.51100000000E-03 0.  1.
</event>
<event>
 8    1  0.1108957E+005  0.1043930E+01  0.7957747E-01            NaN
         13   -1    0    0    0    0  0.00000000000E+00  0.00000000000E+00  0.74505805969E-08  0.10566000000E+00  0.10566000000E+00 0. -1.
     999900   -1    0    0    0    0 -0.00000000000E+00 -0.00000000000E+00 -0.74505805969E-08  0.93827000000E+00  0.93827000000E+00 0. -1.
     999902    2    1    2    0    0  0.13628829119E-01  0.11601396640E-01  0.15538651639E-01  0.10202279519E+01  0.10199525905E+01 0.  0.
     999903    2    3    3    0    0  0.81925992763E-01 -0.39683949648E-01  0.94292273584E-01  0.13259242862E+00  0.20075734589E-01 0.  0.
         14    1    1    2    0    0 -0.13628829119E-01 -0.11601396640E-01 -0.15538651639E-01  0.23702048053E-01  0.00000000000E+00 0. -1.
     999901    1    3    3    0    0 -0.68297163644E-01  0.51285346288E-01 -0.78753621945E-01  0.88763552333E+00  0.88000000000E+00 0. -1.
        -11    1    4    4    0    0  0.11358307398E-01 -0.14159034502E-01  0.19347107182E-01  0.26534149361E-01  0.51100000000E-03 0. -1.
         11    1    4    4    0    0  0.70567685365E-01 -0.25524915146E-01  0.74945166402E-01  0.10605827926E+00  0.51100000000E-03 0.  1.
</event>
<event>
 8    1  0.1108957E+005  0.1043930E+01  0.7957747E-01            NaN
         13   -1    0    0    0    0  0.00000000000E+00  0.00000000000E+00  0.74505805969E-08  0.10566000000E+00  0.10566000000E+00 0.  1.
     999900   -1    0    0    0    0 -0.00000000000E+00 -0.00000000000E+00 -0.74505805969E-08  0.93827000000E+00  0.93827000000E+00 0.  1.
     999902    2    1    2    0    0  0.13870566134E-01 -0.70643533717E-02 -0.18004322244E-01  0.10201297203E+01  0.10198520446E+01 0.  0.
     999903    2    3    3    0    0  0.74222865516E-01  0.73094652616E-01  0.74425113677E-01  0.12961803207E+00  0.20245362076E-01 0.  0.
         14    1    1    2    0    0 -0.13870566134E-01  0.70643533717E-02  0.18004322244E-01  0.23800279682E-01  0.00000000000E+00 0.  1.
     999901    1    3    3    0    0 -0.60352299382E-01 -0.80159005987E-01 -0.92429435921E-01  0.89051168825E+00  0.88000000000E+00 0.  1.
        -11    1    4    4    0    0  0.40939575247E-01  0.26416714162E-01  0.31939003288E-01  0.58260215075E-01  0.51100000000E-03 0. -1.
         11    1    4    4    0    0  0.33283290269E-01  0.46677938454E-01  0.42486110389E-01  0.71357816996E-01  0.51100000000E-03 0.  1.
</event>
<event>
 8    1  0.1108957E+005  0.1043930E+01  0.7957747E-01            NaN
         13   -1    0    0    0    0  0.00000000000E+00  0.00000000000E+00  0.74505805969E-08  0.10566000000E+00  0.10566000000E+00 0.  1.
     999900   -1    0    0    0    0 -0.00000000000E+00 -0.00000000000E+00 -0.74505805969E-08  0.93827000000E+00  0.93827000000E+00 0. -1.
     999902    2    1    2    0    0  0.91678162103E-02 -0.14546681215E-01 -0.17093351793E-01  0.10196846404E+01  0.10193963549E+01 0.  0.
     999903    2    3    3    0    0 -0.10783116964E+00  0.58190781719E-01  0.29154010016E-01  0.12776630347E+00  0.21460283811E-01 0.  0.
         14    1    1    2    0    0 -0.91678162103E-02  0.14546681215E-01  0.17093351793E-01  0.24245359638E-01  0.00000000000E+00 0.  1.
     999901    1    3    3    0    0  0.11699898585E+00 -0.72737462934E-01 -0.46247361810E-01  0.89191833689E+00  0.88000000000E+00 0. -1.
        -11    1    4    4    0    0 -0.39071947035E-01  0.29070176090E-01  0.35759415852E-02  0.48833806551E-01  0.51100000000E-03 0. -1.
         11    1    4    4    0    0 -0.68759222600E-01  0.29120605629E-01  0.25578068431E-01  0.78932496923E-01  0.51100000000E-03 0.  1.
</event>
<event>
 8    1  0.1108957E+005  0.1043930E+01  0.7957747E-01            NaN
         13   -1    0    0    0    0  0.00000000000E+00  0.00000000000E+00  0.74505805969E-08  0.10566000000E+00  0.10566000000E+00 0.  1.
     999900   -1    0    0    0    0 -0.00000000000E+00 -0.00000000000E+00 -0.74505805969E-08  0.93827000000E+00  0.93827000000E+00 0.  1.
     999902    2    1    2    0    0 -0.23265923581E-01  0.21335814745E-03  0.55318318831E-02  0.10200145262E+01  0.10197341241E+01 0.  0.
     999903    2    3    3    0    0  0.26088668831E-01 -0.11238517727E+00 -0.55216763297E-01  0.12939412573E+00  0.19567884736E-01 0.  0.
         14    1    1    2    0    0  0.23265923581E-01 -0.21335814745E-03 -0.55318318831E-02  0.23915473772E-01  0.00000000000E+00 0.  1.
     999901    1    3    3    0    0 -0.49354592412E-01  0.11259853542E+00  0.60748595180E-01  0.89062040050E+00  0.88000000000E+00 0. -1.
        -11    1    4    4    0    0  0.78131886707E-02 -0.58829798444E-01 -0.37030486061E-01  0.69953621215E-01  0.51100000000E-03 0.  1.
         11    1    4    4    0    0  0.18275480160E-01 -0.53555378824E-01 -0.18186277235E-01  0.59440504513E-01  0.51100000000E-03 0. -1.
</event>
<event>
 8    1  0.1108957E+005  0.1043930E+01  0.7957747E-01            NaN
         13   -1    0    0    0    0  0.00000000000E+00  0.00000000000E+00  0.74505805969E-08  0.10566000000E+00  0.10566000000E+00 0. -1.
     999900   -1    0    0    0    0 -0.00000000000E+00 -0.00000000000E+00 -0.74505805969E-08  0.93827000000E+00  0.93827000000E+00 0. -1.
     999902    2    1    2    0    0 -0.18188074808E-01 -0.62026057538E-02  0.13423552698E-01  0.10204892204E+01  0.10202199658E+01 0.  0.
     999903    2    3    3    0    0 -0.63113630056E-01 -0.81475764558E-01 -0.78580423309E-01  0.13136094752E+00  0.21428604641E-01 0.  0.
         14    1    1    2    0    0  0.18188074808E-01  0.62026057538E-02 -0.13423552698E-01  0.23440779646E-01  0.00000000000E+00 0. -1.
     999901    1    3    3    0    0  0.44925555248E-01  0.75273158804E-01  0.92003976007E-01  0.88912827283E+00  0.88000000000E+00 0.  1.
        -11    1    4    4    0    0 -0.43921886638E-01 -0.67070926312E-01 -0.68010730666E-01  0.10513496987E+00  0.51100000000E-03 0.  1.
         11    1    4    4    0    0 -0.19191743418E-01 -0.14404838246E-01 -0.10569692644E-01  0.26225977654E-01  0.51100000000E-03 0. -1.
</event>
<event>
 8    1  0.1108957E+005  0.1043930E+01  0.7957747E-01            NaN
         13   -1    0    0    0    0  0.00000000000E+00  0.00000000000E+00  0.74505805969E-08  0.10566000000E+00  0.10566000000E+00 0.  1.
     999900   -1    0    0    0    0 -0.00000000000E+00 -0.00000000000E+00 -0.74505805969E-08  0.93827000000E+00  0.93827000000E+00 0. -1.
     999902    2    1    2    0    0  0.65076227683E-02 -0.22365982009E-01 -0.42780647329E-02  0.10202469229E+01  0.10199720072E+01 0.  0.
     999903    2    3    3    0    0 -0.56760904911E-01  0.11011230703E+00  0.23776508527E-01  0.12764372840E+00  0.19521233476E-01 0.  0.
         14    1    1    2    0    0 -0.65076227683E-02  0.22365982009E-01  0.42780647329E-02  0.23683077148E-01  0.00000000000E+00 0. -1.
     999901    1    3    3    0    0  0.63268527679E-01 -0.13247828904E+00 -0.28054573259E-01  0.89260319445E+00  0.88000000000E+00 0. -1.
        -11    1    4    4    0    0 -0.30855312870E-01  0.55280648167E-01  0.24517246855E-02  0.63358286506E-01  0.51100000000E-03 0. -1.
         11    1    4    4    0    0 -0.25905592041E-01  0.54831658865E-01  0.21324783841E-01  0.64285441896E-01  0.51100000000E-03 0.  1.
</event>
<event>
 7    1  0.1108957E+005  0.1043930E+01  0.7957747E-01            NaN
         13   -1    0    0    0    0  0.00000000000E+00  0.00000000000E+00  0.74505805969E-08  0.10566000000E+00  0.10566000000E+00 0. -1.
     999900   -1    0    0    0    0 -0.00000000000E+00 -0.00000000000E+00 -0.74505805969E-08  0.93827000000E+00  0.93827000000E+00 0. -1.
     999903    2    1    2    0    0 -0.21038639380E-01 -0.71249628242E-01 -0.12540519363E+00  0.14705860013E+00  0.19509879844E-01 0.  0.
         14    1    1    2    0    0 -0.31882672724E-02 -0.23161967014E-02  0.31604220410E-02  0.50515426195E-02  0.00000000000E+00 0. -1.
     999901    1    1    2    0    0  0.24226906653E-01  0.73565824943E-01  0.12224477159E+00  0.89181985725E+00  0.88000000000E+00 0.  1.
        -11    1    3    3    0    0 -0.22311607073E-01 -0.58600553880E-01 -0.92235492140E-01  0.11153241617E+00  0.51100000000E-03 0.  1.
         11    1    3    3    0    0  0.12729676928E-02 -0.12649074362E-01 -0.33169701489E-01  0.35526183961E-01  0.51100000000E-03 0. -1.
</event>
<event>
 8    1  0.1108957E+005  0.1043930E+01  0.7957747E-01            NaN
         13   -1    0    0    0    0  0.00000000000E+00  0.00000000000E+00  0.74505805969E-08  0.10566000000E+00  0.10566000000E+00 0. -1.
     999900   -1    0    0    0    0 -0.00000000000E+00 -0.00000000000E+00 -0.74505805969E-08  0.93827000000E+00  0.93827000000E+00 0. -1.
     999902    2    1    2    0    0  0.18927605011E-01 -0.17794374603E-01 -0.62781053759E-02  0.10172034475E+01  0.10168522730E+01 0.  0.
     999903    2    3    3    0    0 -0.39375528209E-01  0.11248104772E+00 -0.32568357995E-01  0.12531661706E+00  0.21003291472E-01 0.  0.
         14    1    1    2    0    0 -0.18927605011E-01  0.17794374603E-01  0.62781053759E-02  0.26726552454E-01  0.00000000000E+00 0. -1.
     999901    1    3    3    0    0  0.58303133220E-01 -0.13027542232E+00  0.26290252619E-01  0.89188683048E+00  0.88000000000E+00 0.  1.
        -11    1    4    4    0    0 -0.17483904162E-01  0.42997055945E-01 -0.23107118322E-01  0.51852037210E-01  0.51100000000E-03 0. -1.
         11    1    4    4    0    0 -0.21891624048E-01  0.69483991772E-01 -0.94612396732E-02  0.73464579854E-01  0.51100000000E-03 0.  1.
</event>
<event>
 8    1  0.1108957E+005  0.1043930E+01  0.7957747E-01            NaN
         13   -1    0    0    0    0  0.00000000000E+00  0.00000000000E+00  0.74505805969E-08  0.10566000000E+00  0.10566000000E+00 0. -1.
     999900   -1    0    0    0    0 -0.00000000000E+00 -0.00000000000E+00 -0.74505805969E-08  0.93827000000E+00  0.93827000000E+00 0. -1.
     999902    2    1    2    0    0 -0.17409169222E-02 -0.11741066792E-01 -0.20352461765E-01  0.10203693094E+01  0.10200972608E+01 0.  0.
     999903    2    3    3    0    0  0.54865157156E-01  0.11524601934E+00 -0.11814156499E-01  0.12941315430E+00  0.17786505260E-01 0.  0.
         14    1    1    2    0    0  0.17409169222E-02  0.11741066792E-01  0.20352461765E-01  0.23560690589E-01  0.00000000000E+00 0. -1.
     999901    1    3    3    0    0 -0.56606074078E-01 -0.12698708613E+00 -0.85383052664E-02  0.89095615511E+00  0.88000000000E+00 0. -1.
        -11    1    4    4    0    0  0.46263774500E-01  0.96534294919E-01 -0.32349544322E-02  0.10709777298E+00  0.51100000000E-03 0. -1.
         11    1    4    4    0    0  0.86013826561E-02  0.18711724421E-01 -0.85792020664E-02  0.22315381321E-01  0.51100000000E-03 0.  1.
</event>
<event>
 8    1  0.1108957E+005  0.1043930E+01  0.7957747E-01            NaN
         13   -1    0    0    0    0  0.00000000000E+00  0.00000000000E+00  0.74505805969E-08  0.10566000000E+00  0.10566000000E+00 0.  1.
     999900   -1    0    0    0    0 -0.00000000000E+00 -0.00000000000E+00 -0.74505805969E-08  0.93827000000E+00  0.93827000000E+00 0. -1.
     999902    2    1    2    0    0 -0.12405973602E-01  0.45317777909E-02 -0.20805269910E-01  0.10192864522E+01  0.10189885020E+01 0.  0.
     999903    2    3    3    0    0 -0.10715208905E+00  0.63973901152E-01  0.33041231957E-01  0.13057410383E+00  0.19586816125E-01 0.  0.
         14    1    1    2    0    0  0.12405973602E-01 -0.45317777909E-02  0.20805269910E-01  0.24643547776E-01  0.00000000000E+00 0.  1.
     999901    1    3    3    0    0  0.94746115448E-01 -0.59442123362E-01 -0.53846501867E-01  0.88871234839E+00  0.88000000000E+00 0. -1.
        -11    1    4    4    0    0 -0.31955399472E-01  0.20063314561E-01  0.88217349449E-03  0.37745509636E-01  0.51100000000E-03 0. -1.
         11    1    4    4    0    0 -0.75196689578E-01  0.43910586591E-01  0.32159058462E-01  0.92828594196E-01  0.51100000000E-03 0.  1.
</event>
<event>
 8    1  0.1108957E+005  0.1043930E+01  0.7957747E-01            NaN
         13   -1    0    0    0    0  0.00000000000E+00  0.00000000000E+00  0.74505805969E-08  0.10566000000E+00  0.10566000000E+00 0. -1.
     999900   -1    0    0    0    0 -0.00000000000E+00 -0.00000000000E+00 -0.74505805969E-08  0.93827000000E+00  0.93827000000E+00 0. -1.
     999902    2    1    2    0    0 -0.13678612086E-01  0.14783275469E-01 -0.12944453631E-01  0.10199882260E+01  0.10197071995E+01 0.  0.
     999903    2    3    3    0    0 -0.29319269793E-01  0.10161167562E+00 -0.78395427765E-01  0.13315812319E+00  0.20017254402E-01 0.  0.
         14    1    1    2    0    0  0.13678612086E-01 -0.14783275469E-01  0.12944453631E-01  0.23941773995E-01  0.00000000000E+00 0. -1.
     999901    1    3    3    0    0  0.15640657707E-01 -0.86828400148E-01  0.65450974134E-01  0.88683010282E+00  0.88000000000E+00 0.  1.
        -11    1    4    4    0    0 -0.19758114174E-01  0.47958925002E-01 -0.28087761051E-01  0.58988346348E-01  0.51100000000E-03 0.  1.
         11    1    4    4    0    0 -0.95611556184E-02  0.53652750616E-01 -0.50307666714E-01  0.74169776841E-01  0.51100000000E-03 0. -1.
</event>
<event>
 8    1  0.1108957E+005  0.1043930E+01  0.7957747E-01            NaN
         13   -1    0    0    0    0  0.00000000000E+00  0.00000000000E+00  0.74505805969E-08  0.10566000000E+00  0.10566000000E+00 0. -1.
     999900   -1    0    0    0    0 -0.00000000000E+00 -0.00000000000E+00 -0.74505805969E-08  0.93827000000E+00  0.93827000000E+00 0.  1.
     999902    2    1    2    0    0 -0.21916478529E-01 -0.93818985748E-02  0.17918423639E-01  0.10141068218E+01  0.10136682022E+01 0.  0.
     999903    2    3    3    0    0 -0.55202626794E-01 -0.93748852279E-01 -0.60333202755E-01  0.12599136333E+00  0.19938680274E-01 0.  0.
         14    1    1    2    0    0  0.21916478529E-01  0.93818985748E-02 -0.17918423639E-01  0.29823178195E-01  0.00000000000E+00 0.  1.
     999901    1    3    3    0    0  0.33286148265E-01  0.84366953704E-01  0.78251626394E-01  0.88811545847E+00  0.88000000000E+00 0. -1.
        -11    1    4    4    0    0 -0.43674415416E-01 -0.80173018714E-01 -0.57640424082E-01  0.10797151060E+00  0.51100000000E-03 0.  1.
         11    1    4    4    0    0 -0.11528211378E-01 -0.13575833565E-01 -0.26927786735E-02  0.18019852734E-01  0.51100000000E-03 0. -1.
</event>
<event>
 8    1  0.1108957E+005  0.1043930E+01  0.7957747E-01            NaN
         13   -1    0    0    0    0  0.00000000000E+00  0.00000000000E+00  0.74505805969E-08  0.10566000000E+00  0.10566000000E+00 0.  1.
     999900   -1    0    0    0    0 -0.00000000000E+00 -0.00000000000E+00 -0.74505805969E-08  0.93827000000E+00  0.93827000000E+00 0. -1.
     999902    2    1    2    0    0 -0.78366249169E-02 -0.19796239146E-01 -0.55662045236E-02  0.10219234917E+01  0.10216865158E+01 0.  0.
     999903    2    3    3    0    0  0.70186605062E-01 -0.83775395586E-01  0.72089409945E-01  0.13276020449E+00  0.21998009785E-01 0.  0.
         14    1    1    2    0    0  0.78366249169E-02  0.19796239146E-01  0.55662045236E-02  0.22006508292E-01  0.00000000000E+00 0.  1.
     999901    1    3    3    0    0 -0.78023229979E-01  0.63979156440E-01 -0.77655614469E-01  0.88916328722E+00  0.88000000000E+00 0. -1.
        -11    1    4    4    0    0  0.53455880155E-01 -0.53301690579E-01  0.39936152094E-01  0.85403505238E-01  0.51100000000E-03 0. -1.
         11    1    4    4    0    0  0.16730724907E-01 -0.30473705007E-01  0.32153257851E-01  0.47356699254E-01  0.51100000000E-03 0.  1.
</event>
<event>
 8    1  0.1108957E+005  0.1043930E+01  0.7957747E-01            NaN
         13   -1    0    0    0    0  0.00000000000E+00  0.00000000000E+00  0.74505805969E-08  0.10566000000E+00  0.10566000000E+00 0.  1.
     999900   -1    0    0    0    0 -0.00000000000E+00 -0.00000000000E+00 -0.74505805969E-08  0.93827000000E+00  0.93827000000E+00 0. -1.
     999902    2    1    2    0    0  0.40980700021E-02 -0.14813296657E-01  0.17981104559E-01  0.10202752318E+01  0.10200009807E+01 0.  0.
     999903    2    3    3    0    0  0.94010811428E-01  0.87162024395E-01  0.14783174470E-02  0.12968239044E+00  0.19495789414E-01 0.  0.
         14    1    1    2    0    0 -0.40980700021E-02  0.14813296657E-01 -0.17981104559E-01  0.23654768161E-01  0.00000000000E+00 0. -1.
     999901    1    3    3    0    0 -0.89912741426E-01 -0.10197532105E+00  0.16502787112E-01  0.89059284140E+00  0.88000000000E+00 0.  1.
        -11    1    4    4    0    0  0.52153055390E-01  0.61206139737E-01  0.35214676472E-03  0.80414661949E-01  0.51100000000E-03 0. -1.
         11    1    4    4    0    0  0.41857756038E-01  0.25955884658E-01  0.11261706823E-02  0.49267728487E-01  0.51100000000E-03 0.  1.
</event>
<event>
 8    1  0.1108957E+005  0.1043930E+01  0.7957747E-01            NaN
         13   -1    0    0    0    0  0.00000000000E+00  0.00000000000E+00  0.74505805969E-08  0.10566000000E+00  0.10566000000E+00 0.  1.
     999900   -1    0    0    0    0 -0.00000000000E+00 -0.00000000000E+00 -0.74505805969E-08  0.93827000000E+00  0.93827000000E+00 0.  1.
     999902    2    1    2    0    0 -0.12263061144E-01  0.16410232629E-01  0.13738379480E-01  0.10192637989E+01  0.10189652940E+01 0.  0.
     999903    2    3    3    0    0  0.83446470640E-01  0.48115779481E-01  0.85929678711E-01  0.13056973468E+00  0.19649535225E-01 0.  0.
         14    1    1    2    0    0  0.12263061144E-01 -0.16410232629E-01 -0.13738379480E-01  0.24666201052E-01  0.00000000000E+00 0.  1.
     999901    1    3    3    0    0 -0.95709531784E-01 -0.31705546852E-01 -0.72191299230E-01  0.88869406427E+00  0.88000000000E+00 0. -1.
        -11    1    4    4    0    0  0.36828896131E-01  0.16069432903E-01  0.24527232680E-01  0.47079088011E-01  0.51100000000E-03 0.  1.
         11    1    4    4    0    0  0.46617574509E-01  0.32046346579E-01  0.61402446031E-01  0.83490646672E-01  0.51100000000E-03 0. -1.
</event>
<event>
 8    1  0.1108957E+005  0.1043930E+01  0.7957747E-01            NaN
         13   -1    0    0    0    0  0.00000000000E+00  0.00000000000E+00  0.74505805969E-08  0.10566000000E+00  0.10566000000E+00 0.  1.
     999900   -1    0    0    0    0 -0.00000000000E+00 -0.00000000000E+00 -0.74505805969E-08  0.93827000000E+00  0.93827000000E+00 0. -1.
     999902    2    1    2    0    0 -0.16497463308E-01  0.94292829684E-02  0.14751054671E-01  0.10198744126E+01  0.10195906758E+01 0.  0.
     999903    2    3    3    0    0 -0.24117248230E-01  0.10867311646E+00 -0.65504793667E-01  0.13063406215E+00  0.19567633960E-01 0.  0.
         14    1    1    2    0    0  0.16497463308E-01 -0.94292829684E-02 -0.14751054671E-01  0.24055587434E-01  0.00000000000E+00 0.  1.
     999901    1    3    3    0    0  0.76197849214E-02 -0.99243833490E-01  0.80255848337E-01  0.88924035041E+00  0.88000000000E+00 0.  1.
        -11    1    4    4    0    0 -0.90871675835E-02  0.70108219562E-01 -0.49266312816E-01  0.86169424765E-01  0.51100000000E-03 0.  1.
         11    1    4    4    0    0 -0.15030080646E-01  0.38564896896E-01 -0.16238480850E-01  0.44464637389E-01  0.51100000000E-03 0. -1.
</event>
<event>
 8    1  0.1108957E+005  0.1043930E+01  0.7957747E-01            NaN
         13   -1    0    0    0    0  0.00000000000E+00  0.00000000000E+00  0.74505805969E-08  0.10566000000E+00  0.10566000000E+00 0. -1.
     999900   -1    0    0    0    0 -0.00000000000E+00 -0.00000000000E+00 -0.74505805969E-08  0.93827000000E+00  0.93827000000E+00 0.  1.
     999902    2    1    2    0    0  0.44649543400E-02 -0.10957073098E-01 -0.20038925042E-01  0.10206587348E+01  0.10203934051E+01 0.  0.
     999903    2    3    3    0    0 -0.61581173283E-01 -0.74695661514E-01  0.84015223613E-01  0.12978727128E+00  0.20359156056E-01 0.  0.
         14    1    1    2    0    0 -0.44649543400E-02  0.10957073098E-01  0.20038925042E-01  0.23271265221E-01  0.00000000000E+00 0. -1.
     999901    1    3    3    0    0  0.66046127623E-01  0.63738588416E-01 -0.10405414866E+00  0.89087146350E+00  0.88000000000E+00 0.  1.
        -11    1    4    4    0    0 -0.29455338355E-01 -0.24637889704E-01  0.23987732612E-01  0.45280404189E-01  0.51100000000E-03 0. -1.
         11    1    4    4    0    0 -0.32125834928E-01 -0.50057771810E-01  0.60027491001E-01  0.84506867089E-01  0.51100000000E-03 0.  1.
</event>
<event>
 8    1  0.1108957E+005  0.1043930E+01  0.7957747E-01            NaN
         13   -1    0    0    0    0  0.00000000000E+00  0.00000000000E+00  0.74505805969E-08  0.10566000000E+00  0.10566000000E+00 0.  1.
     999900   -1    0    0    0    0 -0.00000000000E+00 -0.00000000000E+00 -0.74505805969E-08  0.93827000000E+00  0.93827000000E+00 0. -1.
     999902    2    1    2    0    0  0.19619772260E-01  0.19573426344E-01  0.19633397946E-01  0.10099664195E+01  0.10093951871E+01 0.  0.
     999903    2    3    3    0    0  0.28924278020E-01 -0.94649861060E-01  0.67014132745E-01  0.12127160846E+00  0.20510947672E-01 0.  0.
         14    1    1    2    0    0 -0.19619772260E-01 -0.19573426344E-01 -0.19633397946E-01  0.33963580454E-01  0.00000000000E+00 0. -1.
     999901    1    3    3    0    0 -0.93045057595E-02  0.11422328740E+00 -0.47380734799E-01  0.88869481108E+00  0.88000000000E+00 0. -1.
        -11    1    4    4    0    0  0.49846970127E-02 -0.14703536892E-01  0.23819516442E-02  0.15715470596E-01  0.51100000000E-03 0.  1.
         11    1    4    4    0    0  0.23939581007E-01 -0.79946324169E-01  0.64632181100E-01  0.10555613787E+00  0.51100000000E-03 0. -1.
</event>
<event>
 8    1  0.1108957E+005  0.1043930E+01  0.7957747E-01            NaN
         13   -1    0    0    0    0  0.00000000000E+00  0.00000000000E+00  0.74505805969E-08  0.10566000000E+00  0.10566000000E+00 0. -1.
     999900   -1    0    0    0    0 -0.00000000000E+00 -0.00000000000E+00 -0.74505805969E-08  0.93827000000E+00  0.93827000000E+00 0.  1.
     999902    2    1    2    0    0  0.10599023698E-01  0.53272988224E-02  0.19132642376E-01  0.10214182826E+01  0.10211701771E+01 0.  0.
     999903    2    3    3    0    0  0.56044568919E-01  0.11741423526E+00 -0.14146867439E-01  0.13252216680E+00  0.20854124024E-01 0.  0.
         14    1    1    2    0    0 -0.10599023698E-01 -0.53272988224E-02 -0.19132642376E-01  0.22511717401E-01  0.00000000000E+00 0.  1.
     999901    1    3    3    0    0 -0.45445545222E-01 -0.11208693644E+00  0.33279509815E-01  0.88889611579E+00  0.88000000000E+00 0.  1.
        -11    1    4    4    0    0  0.56053120275E-01  0.10609504034E+00 -0.15950774964E-01  0.12104874316E+00  0.51100000000E-03 0. -1.
         11    1    4    4    0    0 -0.85513552444E-05  0.11319194925E-01  0.18039075247E-02  0.11473423649E-01  0.51100000000E-03 0.  1.
</event>
<event>
 8    1  0.1108957E+005  0.1043930E+01  0.7957747E-01            NaN
         13   -1    0    0    0    0  0.00000000000E+00  0.00000000000E+00  0.74505805969E-08  0.10566000000E+00  0.10566000000E+00 0.  1.
     999900   -1    0    0    0    0 -0.00000000000E+00 -0.00000000000E+00 -0.74505805969E-08  0.93827000000E+00  0.93827000000E+00 0.  1.
     999902    2    1    2    0    0  0.16327257004E-01 -0.43158003584E-02  0.18459916684E-01  0.10189105280E+01  0.10186033036E+01 0.  0.
     999903    2    3    3    0    0  0.11809653527E-01 -0.10322761861E+00  0.75959705039E-01  0.13149282356E+00  0.26927248265E-01 0.  0.
         14    1    1    2    0    0 -0.16327257004E-01  0.43158003584E-02 -0.18459916684E-01  0.25019471977E-01  0.00000000000E+00 0. -1.
     999901    1    3    3    0    0  0.45176034768E-02  0.98911818248E-01 -0.57499788354E-01  0.88741770446E+00  0.88000000000E+00 0. -1.
        -11    1    4    4    0    0 -0.52491524352E-02 -0.34716857493E-01  0.36330458268E-01  0.50526993919E-01  0.51100000000E-03 0. -1.
         11    1    4    4    0    0  0.17058805962E-01 -0.68510761114E-01  0.39629246770E-01  0.80965829643E-01  0.51100000000E-03 0.  1.
</event>
<event>
 8    1  0.1108957E+005  0.1043930E+01  0.7957747E-01            NaN
         13   -1    0    0    0    0  0.00000000000E+00  0.00000000000E+00  0.74505805969E-08  0.10566000000E+00  0.10566000000E+00 0.  1.
     999900   -1    0    0    0    0 -0.00000000000E+00 -0.00000000000E+00 -0.74505805969E-08  0.93827000000E+00  0.93827000000E+00 0. -1.
     999902    2    1    2    0    0 -0.94475688743E-02 -0.21086349488E-01  0.10673850093E-01  0.10184776569E+01  0.10181595729E+01 0.  0.
     999903    2    3    3    0    0  0.86437670518E-01 -0.95037812330E-01  0.10847002061E-02  0.13013383284E+00  0.20735988472E-01 0.  0.
         14    1    1    2    0    0  0.94475688743E-02  0.21086349488E-01 -0.10673850093E-01  0.25452343078E-01  0.00000000000E+00 0. -1.
     999901    1    3    3    0    0 -0.95885239393E-01  0.73951462842E-01  0.95891498870E-02  0.88834382408E+00  0.88000000000E+00 0. -1.
        -11    1    4    4    0    0  0.52905146582E-01 -0.56413574376E-01  0.10724372401E-01  0.78081490720E-01  0.51100000000E-03 0.  1.
         11    1    4    4    0    0  0.33532523936E-01 -0.38624237954E-01 -0.96396721951E-02  0.52052342119E-01  0.51100000000E-03 0. -1.
</event>
<event>
 8    1  0.1108957E+005  0.1043930E+01  0.7957747E-01            NaN
         13   -1    0    0    0    0  0.00000000000E+00  0.00000000000E+00  0.74505805969E-08  0.10566000000E+00  0.10566000000E+00 0.  1.
     999900   -1    0    0    0    0 -0.00000000000E+00 -0.00000000000E+00 -0.74505805969E-08  0.93827000000E+00  0.93827000000E+00 0.  1.
     999902    2    1    2    0    0  0.18648103387E-01 -0.15707732513E-01  0.32318191368E-02  0.10193346900E+01  0.10190379193E+01 0.  0.
     999903    2    3    3    0    0 -0.96292296322E-01  0.64188749670E-01  0.48776065135E-01  0.12710768876E+00  0.19617800473E-01 0.  0.
         14    1    1    2    0    0 -0.18648103387E-01  0.15707732513E-01 -0.32318191368E-02  0.24595310032E-01  0.00000000000E+00 0. -1.
     999901    1    3    3    0    0  0.11494039971E+00 -0.79896482183E-01 -0.45544245998E-01  0.89222700121E+00  0.88000000000E+00 0.  1.
        -11    1    4    4    0    0 -0.40156770529E-01  0.22675351831E-01  0.29234873503E-01  0.54604731935E-01  0.51100000000E-03 0.  1.
         11    1    4    4    0    0 -0.56135525793E-01  0.41513397839E-01  0.19541191631E-01  0.72502956820E-01  0.51100000000E-03 0. -1.
</event>
<event>
 8    1  0.1108957E+005  0.1043930E+01  0.7957747E-01            NaN
         13   -1    0    0    0    0  0.00000000000E+00  0.00000000000E+00  0.74505805969E-08  0.10566000000E+00  0.10566000000E+00 0. -1.
     999900   -1    0    0    0    0 -0.00000000000E+00 -0.00000000000E+00 -0.74505805969E-08  0.93827000000E+00  0.93827000000E+00 0.  1.
     999902    2    1    2    0    0 -0.23153810236E-01 -0.32502190083E-02 -0.13995248565E-01  0.10166805994E+01  0.10163153602E+01 0.  0.
     999903    2    3    3    0    0  0.28307758736E-02 -0.48870672398E-01 -0.11775263490E+00  0.12903088259E+00  0.19670529312E-01 0.  0.
         14    1    1    2    0    0  0.23153810236E-01  0.32502190083E-02  0.13995248565E-01  0.27249400625E-01  0.00000000000E+00 0. -1.
     999901    1    3    3    0    0 -0.25984586109E-01  0.45620453389E-01  0.10375738634E+00  0.88764971678E+00  0.88000000000E+00 0. -1.
        -11    1    4    4    0    0  0.82681982778E-02 -0.31489854311E-01 -0.57446102706E-01  0.66032490976E-01  0.51100000000E-03 0. -1.
         11    1    4    4    0    0 -0.54374224042E-02 -0.17380818087E-01 -0.60306532197E-01  0.62998391618E-01  0.51100000000E-03 0.  1.
</event>
<event>
 8    1  0.1108957E+005  0.1043930E+01  0.7957747E-01            NaN
         13   -1    0    0    0    0  0.00000000000E+00  0.00000000000E+00  0.74505805969E-08  0.10566000000E+00  0.10566000000E+00 0.  1.
     999900   -1    0    0    0    0 -0.00000000000E+00 -0.00000000000E+00 -0.74505805969E-08  0.93827000000E+00  0.93827000000E+00 0. -1.
     999902    2    1    2    0    0  0.19539618121E-01  0.12716500906E-01 -0.40616808712E-02  0.10202656107E+01  0.10199911338E+01 0.  0.
     999903    2    3    3    0    0 -0.78726609382E-01  0.88897550585E-01  0.48487335428E-01  0.12997284818E+00  0.21006333393E-01 0.  0.
         14    1    1    2    0    0 -0.19539618121E-01 -0.12716500906E-01  0.40616808712E-02  0.23664389346E-01  0.00000000000E+00 0. -1.
     999901    1    3    3    0    0  0.98266227503E-01 -0.76181049678E-01 -0.52549016299E-01  0.89029276247E+00  0.88000000000E+00 0. -1.
        -11    1    4    4    0    0 -0.40585345197E-01  0.60144943043E-01  0.25017582145E-01  0.76751058336E-01  0.51100000000E-03 0.  1.
         11    1    4    4    0    0 -0.38141264185E-01  0.28752607542E-01  0.23469753282E-01  0.53221789845E-01  0.51100000000E-03 0. -1.
</event>
<event>
 8    1  0.1108957E+005  0.1043930E+01  0.7957747E-01            NaN
         13   -1    0    0    0    0  0.00000000000E+00  0.00000000000E+00  0.74505805969E-08  0.10566000000E+00  0.10566000000E+00 0.  1.
     999900   -1    0    0    0    0 -0.00000000000E+00 -0.00000000000E+00 -0.74505805969E-08  0.93827000000E+00  0.93827000000E+00 0. -1.
     999902    2    1    2    0    0 -0.18121882417E-01  0.16299708372E-01  0.24974550229E-02  0.10194285634E+01  0.10191340812E+01 0.  0.
     999903    2    3    3    0    0  0.34030335785E-01  0.90052670100E-01 -0.85144328973E-01  0.13047387638E+00  0.22501744701E-01 0.  0.
         14    1    1    2    0    0  0.18121882417E-01 -0.16299708372E-01 -0.24974550229E-02  0.24501436630E-01  0.00000000000E+00 0.  1.
     999901    1    3    3    0    0 -0.52152218202E-01 -0.73752961728E-01  0.87641783996E-01  0.88895468699E+00  0.88000000000E+00 0.  1.
        -11    1    4    4    0    0  0.43058103246E-02  0.38058190358E-01 -0.40709549676E-01  0.55897177135E-01  0.51100000000E-03 0. -1.
         11    1    4    4    0    0  0.29724525460E-01  0.51994479742E-01 -0.44434779297E-01  0.74576699241E-01  0.51100000000E-03 0.  1.
</event>
<event>
 8    1  0.1108957E+005  0.1043930E+01  0.7957747E-01            NaN
         13   -1    0    0    0    0  0.00000000000E+00  0.00000000000E+00  0.74505805969E-08  0.10566000000E+00  0.10566000000E+00 0.  1.
     999900   -1    0    0    0    0 -0.00000000000E+00 -0.00000000000E+00 -0.74505805969E-08  0.93827000000E+00  0.93827000000E+00 0.  1.
     999902    2    1    2    0    0 -0.12269137675E-01 -0.63709233127E-03 -0.19105483813E-01  0.10212153101E+01  0.10209626597E+01 0.  0.
     999903    2    3    3    0    0  0.12679068269E+00  0.70587355189E-02  0.15509540224E-01  0.12959035570E+00  0.20673932551E-01 0.  0.
         14    1    1    2    0    0  0.12269137675E-01  0.63709233127E-03  0.19105483813E-01  0.22714689909E-01  0.00000000000E+00 0.  1.
     999901    1    3    3    0    0 -0.13905982037E+00 -0.76958278501E-02 -0.34615024037E-01  0.89162495439E+00  0.88000000000E+00 0.  1.
        -11    1    4    4    0    0  0.53315003070E-01  0.22078329673E-02  0.16788801892E-01  0.55941836480E-01  0.51100000000E-03 0.  1.
         11    1    4    4    0    0  0.73475679623E-01  0.48509025516E-02 -0.12792616684E-02  0.73648519218E-01  0.51100000000E-03 0. -1.
</event>
<event>
 8    1  0.1108957E+005  0.1043930E+01  0.7957747E-01            NaN
         13   -1    0    0    0    0  0.00000000000E+00  0.00000000000E+00  0.74505805969E-08  0.10566000000E+00  0.10566000000E+00 0. -1.
     999900   -1    0    0    0    0 -0.00000000000E+00 -0.00000000000E+00 -0.74505805969E-08  0.93827000000E+00  0.93827000000E+00 0. -1.
     999902    2    1    2    0    0  0.19684379650E-01  0.12908735593E-01  0.18879408495E-03  0.10203896963E+01  0.10201181237E+01 0.  0.
     999903    2    3    3    0    0 -0.49415918005E-01 -0.80347037770E-01 -0.84782405065E-01  0.12871060876E+00  0.21926813923E-01 0.  0.
         14    1    1    2    0    0 -0.19684379650E-01 -0.12908735593E-01 -0.18879408495E-03  0.23540303737E-01  0.00000000000E+00 0. -1.
     999901    1    3    3    0    0  0.69100297654E-01  0.93255773363E-01  0.84971199150E-01  0.89167908750E+00  0.88000000000E+00 0.  1.
        -11    1    4    4    0    0 -0.28685136463E-01 -0.35105168299E-01 -0.28366187151E-01  0.53480011123E-01  0.51100000000E-03 0. -1.
         11    1    4    4    0    0 -0.20730781541E-01 -0.45241869471E-01 -0.56416217913E-01  0.75230597639E-01  0.51100000000E-03 0.  1.
</event>
<event>
 8    1  0.1108957E+005  0.1043930E+01  0.7957747E-01            NaN
         13   -1    0    0    0    0  0.00000000000E+00  0.00000000000E+00  0.74505805969E-08  0.10566000000E+00  0.10566000000E+00 0.  1.
     999900   -1    0    0    0    0 -0.00000000000E+00 -0.00000000000E+00 -0.74505805969E-08  0.93827000000E+00  0.93827000000E+00 0.  1.
     999902    2    1    2    0    0  0.71551363075E-02 -0.94551940660E-02 -0.19131458261E-01  0.10214220155E+01  0.10211739932E+01 0.  0.
     999903    2    3    3    0    0  0.23301101924E-01 -0.12976005722E+00  0.13273621745E-02  0.13285433906E+00  0.16367642335E-01 0.  0.
         14    1    1    2    0    0 -0.71551363075E-02  0.94551940660E-02  0.19131458261E-01  0.22507984485E-01  0.00000000000E+00 0.  1.
     999901    1    3    3    0    0 -0.16145965617E-01  0.12030486316E+00 -0.20458820435E-01  0.88856767645E+00  0.88000000000E+00 0. -1.
        -11    1    4    4    0    0  0.18820070328E-01 -0.59306949570E-01 -0.71068636000E-03  0.62227610516E-01  0.51100000000E-03 0.  1.
         11    1    4    4    0    0  0.44810315967E-02 -0.70453107653E-01  0.20380485345E-02  0.70626728545E-01  0.51100000000E-03 0. -1.
</event>
<event>
 8    1  0.1108957E+005  0.1043930E+01  0.7957747E-01            NaN
         13   -1    0    0    0    0  0.00000000000E+00  0.00000000000E+00  0.74505805969E-08  0.10566000000E+00  0.10566000000E+00 0.  1.
     999900   -1    0    0    0    0 -0.00000000000E+00 -0.00000000000E+00 -0.74505805969E-08  0.93827000000E+00  0.93827000000E+00 0.  1.
     999902    2    1    2    0    0 -0.55694170319E-02 -0.96088677278E-02  0.54908960371E-03  0.10328101869E+01  0.10327503240E+01 0.  0.
     999903    2    3    3    0    0  0.10445516133E-01  0.35975433488E-01 -0.13462357667E+00  0.14117906564E+00  0.20116673649E-01 0.  0.
         14    1    1    2    0    0  0.55694170319E-02  0.96088677278E-02 -0.54908960371E-03  0.11119813149E-01  0.00000000000E+00 0.  1.
     999901    1    3    3    0    0 -0.16014933165E-01 -0.45584301216E-01  0.13517266627E+00  0.89163112121E+00  0.88000000000E+00 0. -1.
        -11    1    4    4    0    0  0.82524892151E-02  0.11967445617E-01 -0.82180967923E-01  0.83458348549E-01  0.51100000000E-03 0.  1.
         11    1    4    4    0    0  0.21930269178E-02  0.24007987871E-01 -0.52442608745E-01  0.57720717093E-01  0.51100000000E-03 0. -1.
</event>
<event>
 8    1  0.1108957E+005  0.1043930E+01  0.7957747E-01            NaN
         13   -1    0    0    0    0  0.00000000000E+00  0.00000000000E+00  0.74505805969E-08  0.10566000000E+00  0.10566000000E+00 0. -1.
     999900   -1    0    0    0    0 -0.00000000000E+00 -0.00000000000E+00 -0.74505805969E-08  0.93827000000E+00  0.93827000000E+00 0.  1.
     999902    2    1    2    0    0  0.20654795798E-02  0.24367443768E-01 -0.25138259475E-02  0.10193463094E+01  0.10190498225E+01 0.  0.
     999903    2    3    3    0    0  0.34641629775E-02  0.93779474432E-02  0.12772077509E+00  0.12963416911E+00  0.19810983999E-01 0.  0.
         14    1    1    2    0    0 -0.20654795798E-02 -0.24367443768E-01  0.25138259475E-02  0.24583690581E-01  0.00000000000E+00 0. -1.
     999901    1    3    3    0    0 -0.13986833977E-02  0.14989496325E-01 -0.13023460104E+00  0.88971214031E+00  0.88000000000E+00 0.  1.
        -11    1    4    4    0    0  0.84923077548E-02  0.32430382116E-02  0.25000508265E-01  0.26606824733E-01  0.51100000000E-03 0. -1.
         11    1    4    4    0    0 -0.50281447773E-02  0.61349092316E-02  0.10272026682E+00  0.10302734437E+00  0.51100000000E-03 0.  1.
</event>
<event>
 8    1  0.1108957E+005  0.1043930E+01  0.7957747E-01            NaN
         13   -1    0    0    0    0  0.00000000000E+00  0.00000000000E+00  0.74505805969E-08  0.10566000000E+00  0.10566000000E+00 0.  1.
     999900   -1    0    0    0    0 -0.00000000000E+00 -0.00000000000E+00 -0.74505805969E-08  0.93827000000E+00  0.93827000000E+00 0. -1.
     999902    2    1    2    0    0 -0.12372753776E-01 -0.20517658593E-01  0.12744407850E-02  0.10199365936E+01  0.10196543392E+01 0.  0.
     999903    2    3    3    0    0 -0.11366530947E+00  0.54515235903E-01 -0.27343009470E-01  0.13049346697E+00  0.19727930254E-01 0.  0.
         14    1    1    2    0    0  0.12372753776E-01  0.20517658593E-01 -0.12744407850E-02  0.23993406374E-01  0.00000000000E+00 0.  1.
     999901    1    3    3    0    0  0.10129255570E+00 -0.75032894495E-01  0.28617450255E-01  0.88944312666E+00  0.88000000000E+00 0.  1.
        -11    1    4    4    0    0 -0.11027240609E+00  0.48375216605E-01 -0.27233836614E-01  0.12345893287E+00  0.51100000000E-03 0.  1.
         11    1    4    4    0    0 -0.33929033775E-02  0.61400192982E-02 -0.10917285694E-03  0.70345341014E-02  0.51100000000E-03 0. -1.
</event>
<event>
 8    1  0.1108957E+005  0.1043930E+01  0.7957747E-01            NaN
         13   -1    0    0    0    0  0.00000000000E+00  0.00000000000E+00  0.74505805969E-08  0.10566000000E+00  0.10566000000E+00 0.  1.
     999900   -1    0    0    0    0 -0.00000000000E+00 -0.00000000000E+00 -0.74505805969E-08  0.93827000000E+00  0.93827000000E+00 0.  1.
     999902    2    1    2    0    0 -0.11594509813E-01 -0.18283729639E-01 -0.10752253037E-01  0.10197569081E+01  0.10194703592E+01 0.  0.
     999903    2    3    3    0    0  0.85861370695E-01 -0.95836569080E-01  0.10768010881E-01  0.13072641743E+00  0.20411349925E-01 0.  0.
         14    1    1    2    0    0  0.11594509813E-01  0.18283729639E-01  0.10752253037E-01  0.24173091915E-01  0.00000000000E+00 0.  1.
     999901    1    3    3    0    0 -0.97455880508E-01  0.77552839441E-01 -0.21520263918E-01  0.88903049065E+00  0.88000000000E+00 0.  1.
        -11    1    4    4    0    0  0.60276374756E-01 -0.74680817487E-01  0.15406542819E-01  0.97201278474E-01  0.51100000000E-03 0. -1.
         11    1    4    4    0    0  0.25584995939E-01 -0.21155751593E-01 -0.46385319386E-02  0.33525138959E-01  0.51100000000E-03 0.  1.
</event>
<event>
 8    1  0.1108957E+005  0.1043930E+01  0.7957747E-01            NaN
         13   -1    0    0    0    0  0.00000000000E+00  0.00000000000E+00  0.74505805969E-08  0.10566000000E+00  0.10566000000E+00 0. -1.
     999900   -1    0    0    0    0 -0.00000000000E+00 -0.00000000000E+00 -0.74505805969E-08  0.93827000000E+00  0.93827000000E+00 0. -1.
     999902    2    1    2    0    0 -0.14047785418E-01 -0.19148363355E-01 -0.68873844459E-03  0.10201713288E+01  0.10198946346E+01 0.  0.
     999903    2    3    3    0    0 -0.36161929200E-01 -0.12396840405E+00 -0.22677313640E-01  0.13340203882E+00  0.24616926760E-01 0.  0.
         14    1    1    2    0    0  0.14047785418E-01  0.19148363355E-01  0.68873844459E-03  0.23758671154E-01  0.00000000000E+00 0. -1.
     999901    1    3    3    0    0  0.22114143781E-01  0.10482004069E+00  0.21988575196E-01  0.88676929002E+00  0.88000000000E+00 0. -1.
        -11    1    4    4    0    0  0.15384499113E-02 -0.30950240770E-01 -0.31648550168E-02  0.31153838610E-01  0.51100000000E-03 0.  1.
         11    1    4    4    0    0 -0.37700379111E-01 -0.93018163278E-01 -0.19512458623E-01  0.10224820022E+00  0.51100000000E-03 0. -1.
</event>
<event>
 8    1  0.1108957E+005  0.1043930E+01  0.7957747E-01            NaN
         13   -1    0    0    0    0  0.00000000000E+00  0.00000000000E+00  0.74505805969E-08  0.10566000000E+00  0.10566000000E+00 0. -1.
     999900   -1    0    0    0    0 -0.00000000000E+00 -0.00000000000E+00 -0.74505805969E-08  0.93827000000E+00  0.93827000000E+00 0.  1.
     999902    2    1    2    0    0 -0.10826403230E-01  0.15062183902E-01 -0.11837491497E-01  0.10219253051E+01  0.10216883687E+01 0.  0.
     999903    2    3    3    0    0 -0.12133955741E-01 -0.88493306303E-01  0.91494479870E-01  0.12984742427E+00  0.22601230042E-01 0.  0.
         14    1    1    2    0    0  0.10826403230E-01 -0.15062183902E-01  0.11837491497E-01  0.22004694857E-01  0.00000000000E+00 0. -1.
     999901    1    3    3    0    0  0.13075525116E-02  0.10355549020E+00 -0.10333197137E+00  0.89207788088E+00  0.88000000000E+00 0.  1.
        -11    1    4    4    0    0  0.23613605330E-02 -0.22533158776E-01  0.35504253093E-01  0.42120450813E-01  0.51100000000E-03 0. -1.
         11    1    4    4    0    0 -0.14495316274E-01 -0.65960147526E-01  0.55990226777E-01  0.87726973452E-01  0.51100000000E-03 0.  1.
</event>
<event>
 8    1  0.1108957E+005  0.1043930E+01  0.7957747E-01            NaN
         13   -1    0    0    0    0  0.00000000000E+00  0.00000000000E+00  0.74505805969E-08  0.10566000000E+00  0.10566000000E+00 0. -1.
     999900   -1    0    0    0    0 -0.00000000000E+00 -0.00000000000E+00 -0.74505805969E-08  0.93827000000E+00  0.93827000000E+00 0.  1.
     999902    2    1    2    0    0  0.16943418449E-01 -0.16245560865E-01  0.21730211064E-02  0.10203562922E+01  0.10200839394E+01 0.  0.
     999903    2    3    3    0    0 -0.39331365699E-01 -0.10812339774E+00 -0.60388116303E-01  0.13158057017E+00  0.20714641890E-01 0.  0.
         14    1    1    2    0    0 -0.16943418449E-01  0.16245560865E-01 -0.21730211064E-02  0.23573707755E-01  0.00000000000E+00 0. -1.
     999901    1    3    3    0    0  0.56274784149E-01  0.91877836874E-01  0.62561137410E-01  0.88877572208E+00  0.88000000000E+00 0. -1.
        -11    1    4    4    0    0 -0.23371126947E-01 -0.61601708293E-01 -0.45918815069E-01  0.80310514491E-01  0.51100000000E-03 0.  1.
         11    1    4    4    0    0 -0.15960238752E-01 -0.46521689446E-01 -0.14469301234E-01  0.51270055677E-01  0.51100000000E-03 0. -1.
</event>
<event>
 8    1  0.1108957E+005  0.1043930E+01  0.7957747E-01            NaN
         13   -1    0    0    0    0  0.00000000000E+00  0.00000000000E+00  0.74505805969E-08  0.10566000000E+00  0.10566000000E+00 0.  1.
     999900   -1    0    0    0    0 -0.00000000000E+00 -0.00000000000E+00 -0.74505805969E-08  0.93827000000E+00  0.93827000000E+00 0.  1.
     999902    2    1    2    0    0  0.65182575834E-02  0.87366325271E-02  0.20567706368E-01  0.10206523933E+01  0.10203869173E+01 0.  0.
     999903    2    3    3    0    0 -0.19853074913E-01  0.11945264365E+00 -0.44517222246E-01  0.13093922026E+00  0.22365546399E-01 0.  0.
         14    1    1    2    0    0 -0.65182575834E-02 -0.87366325271E-02 -0.20567706368E-01  0.23277606730E-01  0.00000000000E+00 0. -1.
     999901    1    3    3    0    0  0.26371332496E-01 -0.11071601113E+00  0.65084928615E-01  0.88971317301E+00  0.88000000000E+00 0. -1.
        -11    1    4    4    0    0 -0.18860268130E-01  0.77495751741E-01 -0.38407454561E-01  0.88525109086E-01  0.51100000000E-03 0. -1.
         11    1    4    4    0    0 -0.99280678242E-03  0.41956891913E-01 -0.61097676854E-02  0.42414111172E-01  0.51100000000E-03 0.  1.
</event>
<event>
 8    1  0.1108957E+005  0.1043930E+01  0.7957747E-01            NaN
         13   -1    0    0    0    0  0.00000000000E+00  0.00000000000E+00  0.74505805969E-08  0.10566000000E+00  0.10566000000E+00 0. -1.
     999900   -1    0    0    0    0 -0.00000000000E+00 -0.00000000000E+00 -0.74505805969E-08  0.93827000000E+00  0.93827000000E+00 0. -1.
     999902    2    1    2    0    0 -0.19078032039E-01  0.14504967393E-01 -0.22268086563E-04  0.10199640683E+01  0.10196824676E+01 0.  0.
     999903    2    3    3    0    0 -0.63450807229E-01 -0.82618935542E-01  0.75276956245E-01  0.13031696475E+00  0.21540606124E-01 0.  0.
         14    1    1    2    0    0  0.19078032039E-01 -0.14504967393E-01  0.22268086563E-04  0.23965931683E-01  0.00000000000E+00 0. -1.
     999901    1    3    3    0    0  0.44372775190E-01  0.97123902935E-01 -0.75299224332E-01  0.88964710357E+00  0.88000000000E+00 0. -1.
        -11    1    4    4    0    0 -0.26162527458E-01 -0.45485762974E-01  0.47639936060E-01  0.70874939895E-01  0.51100000000E-03 0.  1.
         11    1    4    4    0    0 -0.37288279770E-01 -0.37133172568E-01  0.27637020185E-01  0.59442024855E-01  0.51100000000E-03 0. -1.
</event>
<event>
 8    1  0.1108957E+005  0.1043930E+01  0.7957747E-01            NaN
         13   -1    0    0    0    0  0.00000000000E+00  0.00000000000E+00  0.74505805969E-08  0.10566000000E+00  0.10566000000E+00 0.  1.
     999900   -1    0    0    0    0 -0.00000000000E+00 -0.00000000000E+00 -0.74505805969E-08  0.93827000000E+00  0.93827000000E+00 0. -1.
     999902    2    1    2    0    0  0.16730792507E-01  0.26649724860E-01  0.20326352293E-01  0.10064695161E+01  0.10057721407E+01 0.  0.
     999903    2    3    3    0    0 -0.49355345762E-01  0.10709242806E+00  0.43994102889E-02  0.12018960909E+00  0.22835258229E-01 0.  0.
         14    1    1    2    0    0 -0.16730792507E-01 -0.26649724860E-01 -0.20326352293E-01  0.37460483853E-01  0.00000000000E+00 0.  1.
     999901    1    3    3    0    0  0.66086138269E-01 -0.80442703205E-01  0.15926942004E-01  0.88627990706E+00  0.88000000000E+00 0.  1.
        -11    1    4    4    0    0 -0.51583309115E-01  0.98241984520E-01  0.37428442041E-02  0.11102520122E+00  0.51100000000E-03 0.  1.
         11    1    4    4    0    0  0.22279633528E-02  0.88504435441E-02  0.65656608476E-03  0.91644078725E-02  0.51100000000E-03 0. -1.
</event>
<event>
 8    1  0.1108957E+005  0.1043930E+01  0.7957747E-01            NaN
         13   -1    0    0    0    0  0.00000000000E+00  0.00000000000E+00  0.74505805969E-08  0.10566000000E+00  0.10566000000E+00 0. -1.
     999900   -1    0    0    0    0 -0.00000000000E+00 -0.00000000000E+00 -0.74505805969E-08  0.93827000000E+00  0.93827000000E+00 0.  1.
     999902    2    1    2    0    0  0.14579057364E-01  0.16494819293E-01 -0.83576466088E-02  0.10203826385E+01  0.10201109012E+01 0.  0.
     999903    2    3    3    0    0 -0.35257970169E-01  0.59328026376E-02  0.12250265666E+00  0.12924869543E+00  0.20493944779E-01 0.  0.
         14    1    1    2    0    0 -0.14579057364E-01 -0.16494819293E-01  0.83576466088E-02  0.23547361507E-01  0.00000000000E+00 0.  1.
     999901    1    3    3    0    0  0.49837027533E-01  0.10562016655E-01 -0.13086030327E+00  0.89113394306E+00  0.88000000000E+00 0.  1.
        -11    1    4    4    0    0 -0.71407871809E-02  0.43968554154E-02  0.61346505384E-01  0.61919124856E-01  0.51100000000E-03 0. -1.
         11    1    4    4    0    0 -0.28117182988E-01  0.15359472223E-02  0.61156151280E-01  0.67329570572E-01  0.51100000000E-03 0.  1.
</event>
<event>
 8    1  0.1108957E+005  0.1043930E+01  0.7957747E-01            NaN
         13   -1    0    0    0    0  0.00000000000E+00  0.00000000000E+00  0.74505805969E-08  0.10566000000E+00  0.10566000000E+00 0. -1.
     999900   -1    0    0    0    0 -0.00000000000E+00 -0.00000000000E+00 -0.74505805969E-08  0.93827000000E+00  0.93827000000E+00 0.  1.
     999902    2    1    2    0    0 -0.97605548030E-02 -0.53988918355E-03  0.20226233747E-01  0.10214653513E+01  0.10212182937E+01 0.  0.
     999903    2    3    3    0    0 -0.87897927003E-01 -0.73400964974E-01  0.66400934859E-01  0.13380196445E+00  0.19497033369E-01 0.  0.
         14    1    1    2    0    0  0.97605548030E-02  0.53988918355E-03 -0.20226233747E-01  0.22464648717E-01  0.00000000000E+00 0.  1.
     999901    1    3    3    0    0  0.78137372200E-01  0.72861075790E-01 -0.46174701112E-01  0.88766338683E+00  0.88000000000E+00 0.  1.
        -11    1    4    4    0    0 -0.55541003479E-01 -0.56613939078E-01  0.50539785549E-01  0.94045054149E-01  0.51100000000E-03 0.  1.
         11    1    4    4    0    0 -0.32356923524E-01 -0.16787025895E-01  0.15861149310E-01  0.39756910302E-01  0.51100000000E-03 0. -1.
</event>
<event>
 8    1  0.1108957E+005  0.1043930E+01  0.7957747E-01            NaN
         13   -1    0    0    0    0  0.00000000000E+00  0.00000000000E+00  0.74505805969E-08  0.10566000000E+00  0.10566000000E+00 0.  1.
     999900   -1    0    0    0    0 -0.00000000000E+00 -0.00000000000E+00 -0.74505805969E-08  0.93827000000E+00  0.93827000000E+00 0.  1.
     999902    2    1    2    0    0 -0.17336794364E-01  0.64588933534E-02  0.40694208805E-02  0.10249868765E+01  0.10248118145E+01 0.  0.
     999903    2    3    3    0    0  0.11810643930E-01 -0.12428948365E+00 -0.42826777525E-01  0.13361492008E+00  0.20771300855E-01 0.  0.
         14    1    1    2    0    0  0.17336794364E-01 -0.64588933534E-02 -0.40694208805E-02  0.18943123514E-01  0.00000000000E+00 0.  1.
     999901    1    3    3    0    0 -0.29147438294E-01  0.13074837700E+00  0.46896198406E-01  0.89137195641E+00  0.88000000000E+00 0. -1.
        -11    1    4    4    0    0 -0.39478017982E-02 -0.46004008271E-01 -0.21637930602E-01  0.50994265146E-01  0.51100000000E-03 0.  1.
         11    1    4    4    0    0  0.15758445729E-01 -0.78285475374E-01 -0.21188846923E-01  0.82620654931E-01  0.51100000000E-03 0. -1.
</event>
<event>
 8    1  0.1108957E+005  0.1043930E+01  0.7957747E-01            NaN
         13   -1    0    0    0    0  0.00000000000E+00  0.00000000000E+00  0.74505805969E-08  0.10566000000E+00  0.10566000000E+00 0. -1.
     999900   -1    0    0    0    0 -0.00000000000E+00 -0.00000000000E+00 -0.74505805969E-08  0.93827000000E+00  0.93827000000E+00 0.  1.
     999902    2    1    2    0    0 -0.14664041469E-01  0.83896261786E-02 -0.17766493792E-01  0.10194133069E+01  0.10191184534E+01 0.  0.
     999903    2    3    3    0    0 -0.48181447352E-02 -0.11507386617E+00  0.52005913878E-01  0.12800522722E+00  0.20384158644E-01 0.  0.
         14    1    1    2    0    0  0.14664041469E-01 -0.83896261786E-02  0.17766493792E-01  0.24516693115E-01  0.00000000000E+00 0. -1.
     999901    1    3    3    0    0 -0.98458967338E-02  0.12346349234E+00 -0.69772407670E-01  0.89140807967E+00  0.88000000000E+00 0.  1.
        -11    1    4    4    0    0  0.51810121205E-02 -0.26860125252E-01  0.18900541302E-01  0.33253583230E-01  0.51100000000E-03 0.  1.
         11    1    4    4    0    0 -0.99991568557E-02 -0.88213740914E-01  0.33105372576E-01  0.94751643987E-01  0.51100000000E-03 0. -1.
</event>
<event>
 8    1  0.1108957E+005  0.1043930E+01  0.7957747E-01            NaN
         13   -1    0    0    0    0  0.00000000000E+00  0.00000000000E+00  0.74505805969E-08  0.10566000000E+00  0.10566000000E+00 0.  1.
     999900   -1    0    0    0    0 -0.00000000000E+00 -0.00000000000E+00 -0.74505805969E-08  0.93827000000E+00  0.93827000000E+00 0. -1.
     999902    2    1    2    0    0  0.88619269988E-02  0.94162041284E-02  0.19431025167E-01  0.10205898331E+01  0.10203229117E+01 0.  0.
     999903    2    3    3    0    0 -0.45751180209E-01  0.10163810896E+00  0.69371168493E-01  0.13268134172E+00  0.19196451220E-01 0.  0.
         14    1    1    2    0    0 -0.88619269988E-02 -0.94162041284E-02 -0.19431025167E-01  0.23340166866E-01  0.00000000000E+00 0. -1.
     999901    1    3    3    0    0  0.54613107208E-01 -0.92221904829E-01 -0.49940143326E-01  0.88790849141E+00  0.88000000000E+00 0. -1.
        -11    1    4    4    0    0 -0.25706661083E-01  0.77616967159E-01  0.48449389029E-01  0.95041203871E-01  0.51100000000E-03 0.  1.
         11    1    4    4    0    0 -0.20044519127E-01  0.24021141799E-01  0.20921779464E-01  0.37640137849E-01  0.51100000000E-03 0. -1.
</event>
<event>
 8    1  0.1108957E+005  0.1043930E+01  0.7957747E-01            NaN
         13   -1    0    0    0    0  0.00000000000E+00  0.00000000000E+00  0.74505805969E-08  0.10566000000E+00  0.10566000000E+00 0. -1.
     999900   -1    0    0    0    0 -0.00000000000E+00 -0.00000000000E+00 -0.74505805969E-08  0.93827000000E+00  0.93827000000E+00 0.  1.
     999902    2    1    2    0    0 -0.14514027318E-01  0.12992180607E-01  0.34381088109E-02  0.10241493443E+01  0.10239583025E+01 0.  0.
     999903    2    3    3    0    0 -0.63317221700E-01 -0.38390751656E-01 -0.10991837089E+00  0.13405291755E+00  0.20129979305E-01 0.  0.
         14    1    1    2    0    0  0.14514027318E-01 -0.12992180607E-01 -0.34381088109E-02  0.19780655654E-01  0.00000000000E+00 0.  1.
     999901    1    3    3    0    0  0.48803194382E-01  0.51382932262E-01  0.11335647970E+00  0.89009642680E+00  0.88000000000E+00 0. -1.
        -11    1    4    4    0    0 -0.33513607513E-01 -0.12587466826E-01 -0.65615801651E-01  0.74748249190E-01  0.51100000000E-03 0.  1.
         11    1    4    4    0    0 -0.29803614187E-01 -0.25803284829E-01 -0.44302569241E-01  0.59304668357E-01  0.51100000000E-03 0. -1.
</event>
<event>
 8    1  0.1108957E+005  0.1043930E+01  0.7957747E-01            NaN
         13   -1    0    0    0    0  0.00000000000E+00  0.00000000000E+00  0.74505805969E-08  0.10566000000E+00  0.10566000000E+00 0. -1.
     999900   -1    0    0    0    0 -0.00000000000E+00 -0.00000000000E+00 -0.74505805969E-08  0.93827000000E+00  0.93827000000E+00 0.  1.
     999902    2    1    2    0    0 -0.22681090027E-02 -0.18204378410E-01 -0.14248162516E-01  0.10207017016E+01  0.10204373620E+01 0.  0.
     999903    2    3    3    0    0 -0.86383846864E-01 -0.96088439413E-01 -0.24588542033E-01  0.13320617610E+00  0.21074433925E-01 0.  0.
         14    1    1    2    0    0  0.22681090027E-02  0.18204378410E-01  0.14248162516E-01  0.23228298406E-01  0.00000000000E+00 0. -1.
     999901    1    3    3    0    0  0.84115737862E-01  0.77884061003E-01  0.10340379517E-01  0.88749552549E+00  0.88000000000E+00 0.  1.
        -11    1    4    4    0    0 -0.26107234115E-01 -0.31918137706E-01 -0.17759038107E-01  0.44899885782E-01  0.51100000000E-03 0.  1.
         11    1    4    4    0    0 -0.60276612750E-01 -0.64170301707E-01 -0.68295039259E-02  0.88306290323E-01  0.51100000000E-03 0. -1.
</event>
<event>
 8    1  0.1108957E+005  0.1043930E+01  0.7957747E-01            NaN
         13   -1    0    0    0    0  0.00000000000E+00  0.00000000000E+00  0.74505805969E-08  0.10566000000E+00  0.10566000000E+00 0. -1.
     999900   -1    0    0    0    0 -0.00000000000E+00 -0.00000000000E+00 -0.74505805969E-08  0.93827000000E+00  0.93827000000E+00 0. -1.
     999902    2    1    2    0    0  0.11575943220E-01 -0.97071808203E-02  0.15542989325E-01  0.10222547529E+01  0.10220249329E+01 0.  0.
     999903    2    3    3    0    0 -0.11224113697E+00 -0.61673285268E-01  0.25588696750E-01  0.13201205473E+00  0.19254460471E-01 0.  0.
         14    1    1    2    0    0 -0.11575943220E-01  0.97071808203E-02 -0.15542989325E-01  0.21675247128E-01  0.00000000000E+00 0.  1.
     999901    1    3    3    0    0  0.12381708019E+00  0.51966104448E-01 -0.10045707425E-01  0.89024269814E+00  0.88000000000E+00 0. -1.
        -11    1    4    4    0    0 -0.88954937001E-01 -0.40095292456E-01  0.16271655506E-01  0.98922399829E-01  0.51100000000E-03 0.  1.
         11    1    4    4    0    0 -0.23286199970E-01 -0.21577992812E-01  0.93170412445E-02  0.33089654900E-01  0.51100000000E-03 0. -1.
</event>
<event>
 8    1  0.1108957E+005  0.1043930E+01  0.7957747E-01            NaN
         13   -1    0    0    0    0  0.00000000000E+00  0.00000000000E+00  0.74505805969E-08  0.10566000000E+00  0.10566000000E+00 0. -1.
     999900   -1    0    0    0    0 -0.00000000000E+00 -0.00000000000E+00 -0.74505805969E-08  0.93827000000E+00  0.93827000000E+00 0.  1.
     999902    2    1    2    0    0 -0.18740516568E-02 -0.22385764512E-01  0.84205593959E-02  0.10199395781E+01  0.10196573947E+01 0.  0.
     999903    2    3    3    0    0  0.28884724311E-01 -0.10596665513E+00 -0.70310337088E-01  0.13194722361E+00  0.20081509351E-01 0.  0.
         14    1    1    2    0    0  0.18740516568E-02  0.22385764512E-01 -0.84205593959E-02  0.23990421900E-01  0.00000000000E+00 0. -1.
     999901    1    3    3    0    0 -0.30758775967E-01  0.83580890620E-01  0.78730896484E-01  0.88799235449E+00  0.88000000000E+00 0. -1.
        -11    1    4    4    0    0  0.19894645067E-01 -0.42621672665E-01 -0.36783779274E-01  0.59713578203E-01  0.51100000000E-03 0.  1.
         11    1    4    4    0    0  0.89900792437E-02 -0.63344982467E-01 -0.33526557815E-01  0.72233645405E-01  0.51100000000E-03 0. -1.
</event>
<event>
 8    1  0.1108957E+005  0.1043930E+01  0.7957747E-01            NaN
         13   -1    0    0    0    0  0.00000000000E+00  0.00000000000E+00  0.74505805969E-08  0.10566000000E+00  0.10566000000E+00 0. -1.
     999900   -1    0    0    0    0 -0.00000000000E+00 -0.00000000000E+00 -0.74505805969E-08  0.93827000000E+00  0.93827000000E+00 0. -1.
     999902    2    1    2    0    0  0.79917815544E-02 -0.29167907092E-02  0.22045954335E-01  0.10202995040E+01  0.10200258219E+01 0.  0.
     999903    2    3    3    0    0 -0.35689379146E-01 -0.78949406235E-01 -0.91850041777E-01  0.12863740409E+00  0.24584772260E-01 0.  0.
         14    1    1    2    0    0 -0.79917815544E-02  0.29167907092E-02 -0.22045954335E-01  0.23630496038E-01  0.00000000000E+00 0.  1.
     999901    1    3    3    0    0  0.43681160700E-01  0.76032615525E-01  0.11389599611E+00  0.89166209988E+00  0.88000000000E+00 0.  1.
        -11    1    4    4    0    0 -0.38536851924E-01 -0.77784321368E-01 -0.89835142095E-01  0.12492439107E+00  0.51100000000E-03 0. -1.
         11    1    4    4    0    0  0.28474727778E-02 -0.11650848668E-02 -0.20148996823E-02  0.37130130214E-02  0.51100000000E-03 0.  1.
</event>
<event>
 8    1  0.1108957E+005  0.1043930E+01  0.7957747E-01            NaN
         13   -1    0    0    0    0  0.00000000000E+00  0.00000000000E+00  0.74505805969E-08  0.10566000000E+00  0.10566000000E+00 0. -1.
     999900   -1    0    0    0    0 -0.00000000000E+00 -0.00000000000E+00 -0.74505805969E-08  0.93827000000E+00  0.93827000000E+00 0. -1.
     999902    2    1    2    0    0  0.13170228542E-01 -0.18539525170E-01  0.72277340037E-02  0.10200677065E+01  0.10197885647E+01 0.  0.
     999903    2    3    3    0    0 -0.44321463040E-01 -0.83049900336E-01  0.90038738715E-01  0.13196605373E+00  0.21127868714E-01 0.  0.
         14    1    1    2    0    0 -0.13170228542E-01  0.18539525170E-01 -0.72277340037E-02  0.23862293524E-01  0.00000000000E+00 0.  1.
     999901    1    3    3    0    0  0.57491691582E-01  0.64510375166E-01 -0.82811004712E-01  0.88810165274E+00  0.88000000000E+00 0. -1.
        -11    1    4    4    0    0 -0.66216854327E-02 -0.16152896183E-01  0.29080368344E-01  0.33921847194E-01  0.51100000000E-03 0. -1.
         11    1    4    4    0    0 -0.37699777607E-01 -0.66897004153E-01  0.60958370371E-01  0.98044206538E-01  0.51100000000E-03 0.  1.
</event>
<event>
 8    1  0.1108957E+005  0.1043930E+01  0.7957747E-01            NaN
         13   -1    0    0    0    0  0.00000000000E+00  0.00000000000E+00  0.74505805969E-08  0.10566000000E+00  0.10566000000E+00 0. -1.
     999900   -1    0    0    0    0 -0.00000000000E+00 -0.00000000000E+00 -0.74505805969E-08  0.93827000000E+00  0.93827000000E+00 0.  1.
     999902    2    1    2    0    0 -0.23846774833E-01 -0.15666203934E-02  0.24682602453E-02  0.10199046950E+01  0.10196216807E+01 0.  0.
     999903    2    3    3    0    0  0.35057881362E-01  0.10324456809E-01  0.12280969838E+00  0.12968381349E+00  0.20000500229E-01 0.  0.
         14    1    1    2    0    0  0.23846774833E-01  0.15666203934E-02 -0.24682602453E-02  0.24025304951E-01  0.00000000000E+00 0. -1.
     999901    1    3    3    0    0 -0.58904656194E-01 -0.11891077202E-01 -0.12034143814E+00  0.89022088156E+00  0.88000000000E+00 0.  1.
        -11    1    4    4    0    0  0.11941924925E-01  0.13629854828E-01  0.59641186204E-01  0.62335501333E-01  0.51100000000E-03 0.  1.
         11    1    4    4    0    0  0.23115956437E-01 -0.33053980187E-02  0.63168512178E-01  0.67348312153E-01  0.51100000000E-03 0. -1.
</event>
<event>
 8    1  0.1108957E+005  0.1043930E+01  0.7957747E-01            NaN
         13   -1    0    0    0    0  0.00000000000E+00  0.00000000000E+00  0.74505805969E-08  0.10566000000E+00  0.10566000000E+00 0.  1.
     999900   -1    0    0    0    0 -0.00000000000E+00 -0.00000000000E+00 -0.74505805969E-08  0.93827000000E+00  0.93827000000E+00 0. -1.
     999902    2    1    2    0    0  0.80435882884E-02 -0.26471689403E-01 -0.32177447875E-02  0.10160767500E+01  0.10156949140E+01 0.  0.
     999903    2    3    3    0    0 -0.66133779685E-01 -0.13285526748E-01  0.10481802481E+00  0.12627458982E+00  0.20205733674E-01 0.  0.
         14    1    1    2    0    0 -0.80435882884E-02  0.26471689403E-01  0.32177447875E-02  0.27853249970E-01  0.00000000000E+00 0.  1.
     999901    1    3    3    0    0  0.74177367973E-01 -0.13186162655E-01 -0.10803576959E+00  0.88980216021E+00  0.88000000000E+00 0. -1.
        -11    1    4    4    0    0 -0.19631191722E-01 -0.25297940524E-03  0.16660679275E-01  0.25754359668E-01  0.51100000000E-03 0. -1.
         11    1    4    4    0    0 -0.46502587963E-01 -0.13032547343E-01  0.88157345531E-01  0.10052023015E+00  0.51100000000E-03 0.  1.
</event>
<event>
 8    1  0.1108957E+005  0.1043930E+01  0.7957747E-01            NaN
         13   -1    0    0    0    0  0.00000000000E+00  0.00000000000E+00  0.74505805969E-08  0.10566000000E+00  0.10566000000E+00 0. -1.
     999900   -1    0    0    0    0 -0.00000000000E+00 -0.00000000000E+00 -0.74505805969E-08  0.93827000000E+00  0.93827000000E+00 0.  1.
     999902    2    1    2    0    0  0.21861254557E-01 -0.81634574822E-02  0.34963038656E-02  0.10203338005E+01  0.10200609216E+01 0.  0.
     999903    2    3    3    0    0  0.33948796403E-01  0.59190547230E-01  0.11035261229E+00  0.13123260197E+00  0.19704190513E-01 0.  0.
         14    1    1    2    0    0 -0.21861254557E-01  0.81634574822E-02 -0.34963038656E-02  0.23596199474E-01  0.00000000000E+00 0.  1.
     999901    1    3    3    0    0 -0.12087541846E-01 -0.67354004712E-01 -0.10685630842E+00  0.88910119855E+00  0.88000000000E+00 0.  1.
        -11    1    4    4    0    0  0.34290330925E-01  0.50258440785E-01  0.86505014768E-01  0.10575971051E+00  0.51100000000E-03 0. -1.
         11    1    4    4    0    0 -0.34153452203E-03  0.89321064445E-02  0.23847597518E-01  0.25472891468E-01  0.51100000000E-03 0.  1.
</event>
<event>
 8    1  0.1108957E+005  0.1043930E+01  0.7957747E-01            NaN
         13   -1    0    0    0    0  0.00000000000E+00  0.00000000000E+00  0.74505805969E-08  0.10566000000E+00  0.10566000000E+00 0.  1.
     999900   -1    0    0    0    0 -0.00000000000E+00 -0.00000000000E+00 -0.74505805969E-08  0.93827000000E+00  0.93827000000E+00 0. -1.
     999902    2    1    2    0    0  0.17421214900E-01 -0.13459390645E-01 -0.30742833117E-02  0.10217015241E+01  0.10214596904E+01 0.  0.
     999903    2    3    3    0    0  0.77834837285E-01  0.21893823420E-02 -0.10775693001E+00  0.13330231965E+00  0.97415177146E-02 0.  0.
         14    1    1    2    0    0 -0.17421214900E-01  0.13459390645E-01  0.30742833117E-02  0.22228475949E-01  0.00000000000E+00 0. -1.
     999901    1    3    3    0    0 -0.60413622386E-01 -0.15648772987E-01  0.10468264670E+00  0.88839920440E+00  0.88000000000E+00 0.  1.
        -11    1    4    4    0    0  0.77019757731E-01  0.15103465059E-02 -0.10440603746E+00  0.12975055301E+00  0.51100000000E-03 0.  1.
         11    1    4    4    0    0  0.81507955430E-03  0.67903583613E-03 -0.33508925482E-02  0.35517666331E-02  0.51100000000E-03 0. -1.
</event>
<event>
 8    1  0.1108957E+005  0.1043930E+01  0.7957747E-01            NaN
         13   -1    0    0    0    0  0.00000000000E+00  0.00000000000E+00  0.74505805969E-08  0.10566000000E+00  0.10566000000E+00 0. -1.
     999900   -1    0    0    0    0 -0.00000000000E+00 -0.00000000000E+00 -0.74505805969E-08  0.93827000000E+00  0.93827000000E+00 0. -1.
     999902    2    1    2    0    0  0.11114122864E-01  0.12067107445E-01  0.16630110809E-01  0.10205697904E+01  0.10203024050E+01 0.  0.
     999903    2    3    3    0    0  0.53725744246E-01  0.76801399243E-01  0.93398350349E-01  0.13383440626E+00  0.20086959190E-01 0.  0.
         14    1    1    2    0    0 -0.11114122864E-01 -0.12067107445E-01 -0.16630110809E-01  0.23360209645E-01  0.00000000000E+00 0.  1.
     999901    1    3    3    0    0 -0.42611621382E-01 -0.64734291798E-01 -0.76768239540E-01  0.88673538410E+00  0.88000000000E+00 0. -1.
        -11    1    4    4    0    0  0.27301555394E-01  0.34497744285E-01  0.30392181872E-01  0.53473499302E-01  0.51100000000E-03 0.  1.
         11    1    4    4    0    0  0.26424188852E-01  0.42303654959E-01  0.63006168476E-01  0.80360906954E-01  0.51100000000E-03 0. -1.
</event>
<event>
 8    1  0.1108957E+005  0.1043930E+01  0.7957747E-01            NaN
         13   -1    0    0    0    0  0.00000000000E+00  0.00000000000E+00  0.74505805969E-08  0.10566000000E+00  0.10566000000E+00 0.  1.
     999900   -1    0    0    0    0 -0.00000000000E+00 -0.00000000000E+00 -0.74505805969E-08  0.93827000000E+00  0.93827000000E+00 0.  1.
     999902    2    1    2    0    0  0.54588905441E-02  0.72585670202E-02  0.21794948329E-01  0.10203184339E+01  0.10200451953E+01 0.  0.
     999903    2    3    3    0    0 -0.99690379511E-03 -0.97085367175E-01 -0.81066752894E-01  0.12818062870E+00  0.20782030995E-01 0.  0.
         14    1    1    2    0    0 -0.54588905441E-02 -0.72585670202E-02 -0.21794948329E-01  0.23611566103E-01  0.00000000000E+00 0. -1.
     999901    1    3    3    0    0  0.64557943392E-02  0.10434393420E+00  0.10286170122E+00  0.89213780520E+00  0.88000000000E+00 0. -1.
        -11    1    4    4    0    0 -0.85976182410E-02 -0.44336208533E-01 -0.45475153428E-01  0.64092660475E-01  0.51100000000E-03 0. -1.
         11    1    4    4    0    0  0.76007144459E-02 -0.52749158642E-01 -0.35591599466E-01  0.64087968224E-01  0.51100000000E-03 0.  1.
</event>
<event>
 8    1  0.1108957E+005  0.1043930E+01  0.7957747E-01            NaN
         13   -1    0    0    0    0  0.00000000000E+00  0.00000000000E+00  0.74505805969E-08  0.10566000000E+00  0.10566000000E+00 0.  1.
     999900   -1    0    0    0    0 -0.00000000000E+00 -0.00000000000E+00 -0.74505805969E-08  0.93827000000E+00  0.93827000000E+00 0. -1.
     999902    2    1    2    0    0 -0.11896401955E-01  0.15952145806E-01 -0.73327623967E-02  0.10227223424E+01  0.10225024327E+01 0.  0.
     999903    2    3    3    0    0  0.52047240266E-01  0.11634971659E+00 -0.36989394842E-01  0.13421349191E+00  0.19971837912E-01 0.  0.
         14    1    1    2    0    0  0.11896401955E-01 -0.15952145806E-01  0.73327623967E-02  0.21207657571E-01  0.00000000000E+00 0.  1.
     999901    1    3    3    0    0 -0.63943642222E-01 -0.10039757079E+00  0.29656632445E-01  0.88850885052E+00  0.88000000000E+00 0.  1.
        -11    1    4    4    0    0  0.10555663842E-01  0.30865852921E-01 -0.11134987079E-02  0.32643895540E-01  0.51100000000E-03 0. -1.
         11    1    4    4    0    0  0.41491576425E-01  0.85483863672E-01 -0.35875896134E-01  0.10156959637E+00  0.51100000000E-03 0.  1.
</event>
<event>
 8    1  0.1108957E+005  0.1043930E+01  0.7957747E-01            NaN
         13   -1    0    0    0    0  0.00000000000E+00  0.00000000000E+00  0.74505805969E-08  0.10566000000E+00  0.10566000000E+00 0. -1.
     999900   -1    0    0    0    0 -0.00000000000E+00 -0.00000000000E+00 -0.74505805969E-08  0.93827000000E+00  0.93827000000E+00 0. -1.
     999902    2    1    2    0    0  0.94009916355E-02  0.15943485422E-01 -0.15474994568E-01  0.10198043119E+01  0.10195188991E+01 0.  0.
     999903    2    3    3    0    0  0.11595657186E+00  0.51571716410E-01  0.28576401614E-01  0.13156786360E+00  0.19695773980E-01 0.  0.
         14    1    1    2    0    0 -0.94009916355E-02 -0.15943485422E-01  0.15474994568E-01  0.24125688135E-01  0.00000000000E+00 0. -1.
     999901    1    3    3    0    0 -0.10655558022E+00 -0.35628230988E-01 -0.44051396181E-01  0.88823644826E+00  0.88000000000E+00 0. -1.
        -11    1    4    4    0    0  0.55449694255E-01  0.22683681359E-01  0.23390727605E-01  0.64316446201E-01  0.51100000000E-03 0.  1.
         11    1    4    4    0    0  0.60506877603E-01  0.28888035052E-01  0.51856740089E-02  0.67251417400E-01  0.51100000000E-03 0. -1.
</event>
<event>
 8    1  0.1108957E+005  0.1043930E+01  0.7957747E-01            NaN
         13   -1    0    0    0    0  0.00000000000E+00  0.00000000000E+00  0.74505805969E-08  0.10566000000E+00  0.10566000000E+00 0. -1.
     999900   -1    0    0    0    0 -0.00000000000E+00 -0.00000000000E+00 -0.74505805969E-08  0.93827000000E+00  0.93827000000E+00 0. -1.
     999902    2    1    2    0    0 -0.85407052281E-03  0.23131908291E-01 -0.90169415762E-02  0.10190881029E+01  0.10187852775E+01 0.  0.
     999903    2    3    3    0    0  0.26445691291E-02 -0.12241919179E+00 -0.26956970710E-01  0.12694506060E+00  0.19872540770E-01 0.  0.
         14    1    1    2    0    0  0.85407052281E-03 -0.23131908291E-01  0.90169415762E-02  0.24841897131E-01  0.00000000000E+00 0. -1.
     999901    1    3    3    0    0 -0.34986396519E-02  0.14555110009E+00  0.17940029134E-01  0.89214304226E+00  0.88000000000E+00 0.  1.
        -11    1    4    4    0    0 -0.16061366689E-02 -0.50411165778E-01 -0.20758858504E-01  0.54544079766E-01  0.51100000000E-03 0.  1.
         11    1    4    4    0    0  0.42507057981E-02 -0.72008026016E-01 -0.61981122058E-02  0.72400980839E-01  0.51100000000E-03 0. -1.
</event>
<event>
 8    1  0.1108957E+005  0.1043930E+01  0.7957747E-01            NaN
         13   -1    0    0    0    0  0.00000000000E+00  0.00000000000E+00  0.74505805969E-08  0.10566000000E+00  0.10566000000E+00 0. -1.
     999900   -1    0    0    0    0 -0.00000000000E+00 -0.00000000000E+00 -0.74505805969E-08  0.93827000000E+00  0.93827000000E+00 0.  1.
     999902    2    1    2    0    0  0.21050666836E-01  0.10396896556E-01 -0.42979868559E-02  0.10200616376E+01  0.10197823522E+01 0.  0.
     999903    2    3    3    0    0 -0.23801129676E-01 -0.16929415887E-01  0.12424828649E+00  0.12917300518E+00  0.19872837622E-01 0.  0.
         14    1    1    2    0    0 -0.21050666836E-01 -0.10396896556E-01  0.42979868559E-02  0.23868362391E-01  0.00000000000E+00 0. -1.
     999901    1    3    3    0    0  0.44851796511E-01  0.27326312443E-01 -0.12854627335E+00  0.89088863243E+00  0.88000000000E+00 0.  1.
        -11    1    4    4    0    0 -0.94280380287E-02 -0.49829539056E-02  0.85345068606E-01  0.86010229549E-01  0.51100000000E-03 0.  1.
         11    1    4    4    0    0 -0.14373091647E-01 -0.11946461981E-01  0.38903217883E-01  0.43162775629E-01  0.51100000000E-03 0. -1.
</event>
<event>
 8    1  0.1108957E+005  0.1043930E+01  0.7957747E-01            NaN
         13   -1    0    0    0    0  0.00000000000E+00  0.00000000000E+00  0.74505805969E-08  0.10566000000E+00  0.10566000000E+00 0.  1.
     999900   -1    0    0    0    0 -0.00000000000E+00 -0.00000000000E+00 -0.74505805969E-08  0.93827000000E+00  0.93827000000E+00 0. -1.
     999902    2    1    2    0    0 -0.98500265374E-02 -0.20792504061E-01  0.64881297239E-02  0.10200250408E+01  0.10197448881E+01 0.  0.
     999903    2    3    3    0    0  0.81837857312E-01 -0.92545727868E-01 -0.38075511539E-01  0.13123872715E+00  0.22621058544E-01 0.  0.
         14    1    1    2    0    0  0.98500265374E-02  0.20792504061E-01 -0.64881297239E-02  0.23904959218E-01  0.00000000000E+00 0.  1.
     999901    1    3    3    0    0 -0.91687883850E-01  0.71753223807E-01  0.44563641263E-01  0.88878631363E+00  0.88000000000E+00 0.  1.
        -11    1    4    4    0    0  0.44870504501E-01 -0.37288861914E-01 -0.25028552477E-01  0.63486305273E-01  0.51100000000E-03 0. -1.
         11    1    4    4    0    0  0.36967352811E-01 -0.55256865954E-01 -0.13046959062E-01  0.67752421880E-01  0.51100000000E-03 0.  1.
</event>
<event>
 7    1  0.1108957E+005  0.1043930E+01  0.7957747E-01            NaN
         13   -1    0    0    0    0  0.00000000000E+00  0.00000000000E+00  0.74505805969E-08  0.10566000000E+00  0.10566000000E+00 0.  1.
     999900   -1    0    0    0    0 -0.00000000000E+00 -0.00000000000E+00 -0.74505805969E-08  0.93827000000E+00  0.93827000000E+00 0.  1.
     999903    2    1    2    0    0 -0.10098723200E+00  0.20015046757E-01  0.55050111045E-01  0.11848530308E+00  0.20229414117E-01 0.  0.
         14    1    1    2    0    0  0.60263173603E-02  0.19067391894E-01 -0.33735748571E-01  0.39217122105E-01  0.00000000000E+00 0. -1.
     999901    1    1    2    0    0  0.94960914639E-01 -0.39082438651E-01 -0.21314362474E-01  0.88622757482E+00  0.88000000000E+00 0.  1.
        -11    1    3    3    0    0 -0.23312048020E-01  0.13019116987E-01  0.10731812572E-01  0.28781624556E-01  0.51100000000E-03 0. -1.
         11    1    3    3    0    0 -0.77675183979E-01  0.69959297701E-02  0.44318298473E-01  0.89703678520E-01  0.51100000000E-03 0.  1.
</event>
<event>
 8    1  0.1108957E+005  0.1043930E+01  0.7957747E-01            NaN
         13   -1    0    0    0    0  0.00000000000E+00  0.00000000000E+00  0.74505805969E-08  0.10566000000E+00  0.10566000000E+00 0.  1.
     999900   -1    0    0    0    0 -0.00000000000E+00 -0.00000000000E+00 -0.74505805969E-08  0.93827000000E+00  0.93827000000E+00 0. -1.
     999902    2    1    2    0    0  0.18944420682E-01 -0.12578337357E-01  0.28553349355E-02  0.10210114795E+01  0.10207542224E+01 0.  0.
     999903    2    3    3    0    0 -0.86881566213E-01 -0.25308965499E-01  0.91822101724E-01  0.13012636118E+00  0.17681098029E-01 0.  0.
         14    1    1    2    0    0 -0.18944420682E-01  0.12578337357E-01 -0.28553349355E-02  0.22918520529E-01  0.00000000000E+00 0.  1.
     999901    1    3    3    0    0  0.10582598689E+00  0.12730628142E-01 -0.88966766788E-01  0.89088511829E+00  0.88000000000E+00 0. -1.
        -11    1    4    4    0    0 -0.65630836328E-01 -0.12555191038E-01  0.73256334700E-01  0.99155389131E-01  0.51100000000E-03 0. -1.
         11    1    4    4    0    0 -0.21250729885E-01 -0.12753774461E-01  0.18565767024E-01  0.30970972051E-01  0.51100000000E-03 0.  1.
</event>
<event>
 8    1  0.1108957E+005  0.1043930E+01  0.7957747E-01            NaN
         13   -1    0    0    0    0  0.00000000000E+00  0.00000000000E+00  0.74505805969E-08  0.10566000000E+00  0.10566000000E+00 0. -1.
     999900   -1    0    0    0    0 -0.00000000000E+00 -0.00000000000E+00 -0.74505805969E-08  0.93827000000E+00  0.93827000000E+00 0.  1.
     999902    2    1    2    0    0  0.26870269879E-03 -0.21188093044E-01  0.94992560235E-02  0.10207083861E+01  0.10204442004E+01 0.  0.
     999903    2    3    3    0    0  0.95695656460E-01 -0.87294047954E-01  0.21545113041E-01  0.13300268966E+00  0.21156892224E-01 0.  0.
         14    1    1    2    0    0 -0.26870269879E-03  0.21188093044E-01 -0.94992560235E-02  0.23221613919E-01  0.00000000000E+00 0. -1.
     999901    1    3    3    0    0 -0.95426953761E-01  0.66105954910E-01 -0.12045857017E-01  0.88770569642E+00  0.88000000000E+00 0.  1.
        -11    1    4    4    0    0  0.49272909077E-01 -0.31943747926E-01  0.53492383959E-02  0.58966923549E-01  0.51100000000E-03 0.  1.
         11    1    4    4    0    0  0.46422747384E-01 -0.55350300028E-01  0.16195874645E-01  0.74035766115E-01  0.51100000000E-03 0. -1.
</event>
<event>
 8    1  0.1108957E+005  0.1043930E+01  0.7957747E-01            NaN
         13   -1    0    0    0    0  0.00000000000E+00  0.00000000000E+00  0.74505805969E-08  0.10566000000E+00  0.10566000000E+00 0. -1.
     999900   -1    0    0    0    0 -0.00000000000E+00 -0.00000000000E+00 -0.74505805969E-08  0.93827000000E+00  0.93827000000E+00 0. -1.
     999902    2    1    2    0    0  0.20403495637E-01  0.90512666398E-02  0.31521931427E-02  0.10213874983E+01  0.10211387062E+01 0.  0.
     999903    2    3    3    0    0  0.12512921565E+00 -0.39236649821E-01 -0.16917179332E-01  0.13363641886E+00  0.19382110081E-01 0.  0.
         14    1    1    2    0    0 -0.20403495637E-01 -0.90512666398E-02 -0.31521931427E-02  0.22542501716E-01  0.00000000000E+00 0.  1.
     999901    1    3    3    0    0 -0.10472572001E+00  0.48287916461E-01  0.20069372475E-01  0.88775107942E+00  0.88000000000E+00 0. -1.
        -11    1    4    4    0    0  0.11842570471E-01 -0.16567973420E-02 -0.70034410883E-02  0.13867254987E-01  0.51100000000E-03 0.  1.
         11    1    4    4    0    0  0.11328664518E+00 -0.37579852479E-01 -0.99137382441E-02  0.11976916387E+00  0.51100000000E-03 0. -1.
</event>
<event>
 8    1  0.1108957E+005  0.1043930E+01  0.7957747E-01            NaN
         13   -1    0    0    0    0  0.00000000000E+00  0.00000000000E+00  0.74505805969E-08  0.10566000000E+00  0.10566000000E+00 0.  1.
     999900   -1    0    0    0    0 -0.00000000000E+00 -0.00000000000E+00 -0.74505805969E-08  0.93827000000E+00  0.93827000000E+00 0. -1.
     999902    2    1    2    0    0  0.43735977014E-02  0.22298677338E-01 -0.28253740541E-02  0.10210314824E+01  0.10207746794E+01 0.  0.
     999903    2    3    3    0    0  0.22288734782E-01 -0.54641543343E-01 -0.11479651154E+00  0.13042591019E+00  0.18713445169E-01 0.  0.
         14    1    1    2    0    0 -0.43735977014E-02 -0.22298677338E-01  0.28253740541E-02  0.22898517560E-01  0.00000000000E+00 0.  1.
     999901    1    3    3    0    0 -0.17915137081E-01  0.76940220681E-01  0.11197113749E+00  0.89060557225E+00  0.88000000000E+00 0.  1.
        -11    1    4    4    0    0  0.20197927406E-01 -0.28056551898E-01 -0.74081990727E-01  0.81752852225E-01  0.51100000000E-03 0.  1.
         11    1    4    4    0    0  0.20908073763E-02 -0.26584991445E-01 -0.40714520812E-01  0.48673057964E-01  0.51100000000E-03 0. -1.
</event>
<event>
 8    1  0.1108957E+005  0.1043930E+01  0.7957747E-01            NaN
         13   -1    0    0    0    0  0.00000000000E+00  0.00000000000E+00  0.74505805969E-08  0.10566000000E+00  0.10566000000E+00 0. -1.
     999900   -1    0    0    0    0 -0.00000000000E+00 -0.00000000000E+00 -0.74505805969E-08  0.93827000000E+00  0.93827000000E+00 0.  1.
     999902    2    1    2    0    0  0.20684015615E-01 -0.83926483895E-02  0.92734527787E-02  0.10197584884E+01  0.10194719773E+01 0.  0.
     999903    2    3    3    0    0  0.59178315672E-01 -0.82594103996E-01 -0.80952261269E-01  0.13120441199E+00  0.18370358165E-01 0.  0.
         14    1    1    2    0    0 -0.20684015615E-01  0.83926483895E-02 -0.92734527787E-02  0.24171511649E-01  0.00000000000E+00 0.  1.
     999901    1    3    3    0    0 -0.38494300057E-01  0.74201455606E-01  0.90225714048E-01  0.88855407637E+00  0.88000000000E+00 0. -1.
        -11    1    4    4    0    0  0.20387586638E-01 -0.25636422122E-01 -0.15808798967E-01  0.36373879006E-01  0.51100000000E-03 0.  1.
         11    1    4    4    0    0  0.38790729034E-01 -0.56957681874E-01 -0.65143462302E-01  0.94830532979E-01  0.51100000000E-03 0. -1.
</event>
<event>
 8    1  0.1108957E+005  0.1043930E+01  0.7957747E-01            NaN
         13   -1    0    0    0    0  0.00000000000E+00  0.00000000000E+00  0.74505805969E-08  0.10566000000E+00  0.10566000000E+00 0.  1.
     999900   -1    0    0    0    0 -0.00000000000E+00 -0.00000000000E+00 -0.74505805969E-08  0.93827000000E+00  0.93827000000E+00 0. -1.
     999902    2    1    2    0    0 -0.21977899466E-01  0.38105834261E-02 -0.90470803869E-02  0.10198593067E+01  0.10195752092E+01 0.  0.
     999903    2    3    3    0    0 -0.10709217232E+00  0.70909288729E-01 -0.27714797503E-01  0.13301368355E+00  0.20680169497E-01 0.  0.
         14    1    1    2    0    0  0.21977899466E-01 -0.38105834261E-02  0.90470803869E-02  0.24070693270E-01  0.00000000000E+00 0.  1.
     999901    1    3    3    0    0  0.85114272851E-01 -0.67098705303E-01  0.18667717116E-01  0.88684562318E+00  0.88000000000E+00 0.  1.
        -11    1    4    4    0    0 -0.55913080616E-01  0.37177420823E-01 -0.25020205597E-01  0.71656856002E-01  0.51100000000E-03 0. -1.
         11    1    4    4    0    0 -0.51179091701E-01  0.33731867906E-01 -0.26945919054E-02  0.61356827544E-01  0.51100000000E-03 0.  1.
</event>
<event>
 8    1  0.1108957E+005  0.1043930E+01  0.7957747E-01            NaN
         13   -1    0    0    0    0  0.00000000000E+00  0.00000000000E+00  0.74505805969E-08  0.10566000000E+00  0.10566000000E+00 0.  1.
     999900   -1    0    0    0    0 -0.00000000000E+00 -0.00000000000E+00 -0.74505805969E-08  0.93827000000E+00  0.93827000000E+00 0. -1.
     999902    2    1    2    0    0  0.22399873757E-01  0.65027818734E-02 -0.18981394277E-02  0.10205282170E+01  0.10202598680E+01 0.  0.
     999903    2    3    3    0    0 -0.13788788170E-01 -0.60741616635E-01  0.11220239994E+00  0.12988218094E+00  0.20008190874E-01 0.  0.
         14    1    1    2    0    0 -0.22399873757E-01 -0.65027818734E-02  0.18981394277E-02  0.23401783045E-01  0.00000000000E+00 0. -1.
     999901    1    3    3    0    0  0.36188661927E-01  0.67244398509E-01 -0.11410053937E+00  0.89064603601E+00  0.88000000000E+00 0. -1.
        -11    1    4    4    0    0 -0.91971073069E-02 -0.54220223218E-01  0.82708216511E-01  0.99324365530E-01  0.51100000000E-03 0.  1.
         11    1    4    4    0    0 -0.45916808636E-02 -0.65213934173E-02  0.29494183433E-01  0.30557815410E-01  0.51100000000E-03 0. -1.
</event>
<event>
 8    1  0.1108957E+005  0.1043930E+01  0.7957747E-01            NaN
         13   -1    0    0    0    0  0.00000000000E+00  0.00000000000E+00  0.74505805969E-08  0.10566000000E+00  0.10566000000E+00 0.  1.
     999900   -1    0    0    0    0 -0.00000000000E+00 -0.00000000000E+00 -0.74505805969E-08  0.93827000000E+00  0.93827000000E+00 0.  1.
     999902    2    1    2    0    0 -0.22715259534E-01 -0.30119143271E-02 -0.44082951932E-02  0.10205957396E+01  0.10203289548E+01 0.  0.
     999903    2    3    3    0    0 -0.66411967549E-01  0.10940160388E+00 -0.26706773340E-01  0.13208945174E+00  0.18844393153E-01 0.  0.
         14    1    1    2    0    0  0.22715259534E-01  0.30119143271E-02  0.44082951932E-02  0.23334260436E-01  0.00000000000E+00 0.  1.
     999901    1    3    3    0    0  0.43696708015E-01 -0.11241351821E+00  0.22298478147E-01  0.88850628782E+00  0.88000000000E+00 0.  1.
        -11    1    4    4    0    0 -0.23401570587E-01  0.26811883215E-01 -0.13368849901E-01  0.38019703525E-01  0.51100000000E-03 0. -1.
         11    1    4    4    0    0 -0.43010396962E-01  0.82589720670E-01 -0.13337923439E-01  0.94069748218E-01  0.51100000000E-03 0.  1.
</event>
<event>
 8    1  0.1108957E+005  0.1043930E+01  0.7957747E-01            NaN
         13   -1    0    0    0    0  0.00000000000E+00  0.00000000000E+00  0.74505805969E-08  0.10566000000E+00  0.10566000000E+00 0.  1.
     999900   -1    0    0    0    0 -0.00000000000E+00 -0.00000000000E+00 -0.74505805969E-08  0.93827000000E+00  0.93827000000E+00 0.  1.
     999902    2    1    2    0    0 -0.26157332338E-02  0.20751069319E-01  0.11627380107E-01  0.10199999999E+01  0.10197192529E+01 0.  0.
     999903    2    3    3    0    0  0.10432310072E+00  0.68847440407E-01 -0.33351050244E-01  0.13108367404E+00  0.21150831045E-01 0.  0.
         14    1    1    2    0    0  0.26157332338E-02 -0.20751069319E-01 -0.11627380107E-01  0.23930000134E-01  0.00000000000E+00 0.  1.
     999901    1    3    3    0    0 -0.10693883395E+00 -0.48096371088E-01  0.44978430351E-01  0.88891632582E+00  0.88000000000E+00 0.  1.
        -11    1    4    4    0    0  0.48761792292E-01  0.44637596094E-01 -0.15533202876E-01  0.67910005781E-01  0.51100000000E-03 0.  1.
         11    1    4    4    0    0  0.55561308427E-01  0.24209844313E-01 -0.17817847368E-01  0.63173668261E-01  0.51100000000E-03 0. -1.
</event>
<event>
 8    1  0.1108957E+005  0.1043930E+01  0.7957747E-01            NaN
         13   -1    0    0    0    0  0.00000000000E+00  0.00000000000E+00  0.74505805969E-08  0.10566000000E+00  0.10566000000E+00 0.  1.
     999900   -1    0    0    0    0 -0.00000000000E+00 -0.00000000000E+00 -0.74505805969E-08  0.93827000000E+00  0.93827000000E+00 0.  1.
     999902    2    1    2    0    0 -0.70308328317E-02 -0.81665977392E-02  0.20957819973E-01  0.10203640044E+01  0.10200918318E+01 0.  0.
     999903    2    3    3    0    0 -0.37137109886E-01 -0.12415843799E+00 -0.11180816143E-01  0.13166079928E+00  0.20373334590E-01 0.  0.
         14    1    1    2    0    0  0.70308328317E-02  0.81665977392E-02 -0.20957819973E-01  0.23565995565E-01  0.00000000000E+00 0. -1.
     999901    1    3    3    0    0  0.30106277054E-01  0.11599184025E+00  0.32138636116E-01  0.88870320516E+00  0.88000000000E+00 0.  1.
        -11    1    4    4    0    0 -0.28335001735E-01 -0.59616916133E-01 -0.71326397990E-02  0.66394161521E-01  0.51100000000E-03 0.  1.
         11    1    4    4    0    0 -0.88021081505E-02 -0.64541521857E-01 -0.40481763439E-02  0.65266637758E-01  0.51100000000E-03 0. -1.
</event>
<event>
 8    1  0.1108957E+005  0.1043930E+01  0.7957747E-01            NaN
         13   -1    0    0    0    0  0.00000000000E+00  0.00000000000E+00  0.74505805969E-08  0.10566000000E+00  0.10566000000E+00 0.  1.
     999900   -1    0    0    0    0 -0.00000000000E+00 -0.00000000000E+00 -0.74505805969E-08  0.93827000000E+00  0.93827000000E+00 0.  1.
     999902    2    1    2    0    0 -0.59121255715E-02  0.24770389825E-01 -0.85322423925E-03  0.10184495480E+01  0.10181307521E+01 0.  0.
     999903    2    3    3    0    0  0.77797997878E-01 -0.11167161569E-01 -0.99414313147E-01  0.12827362125E+00  0.19841428378E-01 0.  0.
         14    1    1    2    0    0  0.59121255715E-02 -0.24770389825E-01  0.85322423925E-03  0.25480451967E-01  0.00000000000E+00 0.  1.
     999901    1    3    3    0    0 -0.83710123449E-01  0.35937551394E-01  0.98561088908E-01  0.89017592678E+00  0.88000000000E+00 0. -1.
        -11    1    4    4    0    0  0.42159282324E-01 -0.33396748447E-02 -0.68214989731E-01  0.80262721478E-01  0.51100000000E-03 0.  1.
         11    1    4    4    0    0  0.35638715553E-01 -0.78274867246E-02 -0.31199323416E-01  0.48010899776E-01  0.51100000000E-03 0. -1.
</event>
<event>
 8    1  0.1108957E+005  0.1043930E+01  0.7957747E-01            NaN
         13   -1    0    0    0    0  0.00000000000E+00  0.00000000000E+00  0.74505805969E-08  0.10566000000E+00  0.10566000000E+00 0. -1.
     999900   -1    0    0    0    0 -0.00000000000E+00 -0.00000000000E+00 -0.74505805969E-08  0.93827000000E+00  0.93827000000E+00 0.  1.
     999902    2    1    2    0    0  0.49200030320E-03  0.20425083107E-01  0.12165658517E-01  0.10201512420E+01  0.10198740742E+01 0.  0.
     999903    2    3    3    0    0 -0.10397260466E+00 -0.46485694746E-01 -0.56686075500E-01  0.12878685684E+00  0.20037988989E-01 0.  0.
         14    1    1    2    0    0 -0.49200030320E-03 -0.20425083107E-01 -0.12165658517E-01  0.23778757987E-01  0.00000000000E+00 0.  1.
     999901    1    3    3    0    0  0.10446460496E+00  0.66910777853E-01  0.68851734017E-01  0.89136438518E+00  0.88000000000E+00 0. -1.
        -11    1    4    4    0    0 -0.96380413920E-01 -0.44952882869E-01 -0.57641767079E-01  0.12096602952E+00  0.51100000000E-03 0.  1.
         11    1    4    4    0    0 -0.75921907396E-02 -0.15328118773E-02  0.95569157962E-03  0.78208273138E-02  0.51100000000E-03 0. -1.
</event>
<event>
 8    1  0.1108957E+005  0.1043930E+01  0.7957747E-01            NaN
         13   -1    0    0    0    0  0.00000000000E+00  0.00000000000E+00  0.74505805969E-08  0.10566000000E+00  0.10566000000E+00 0.  1.
     999900   -1    0    0    0    0 -0.00000000000E+00 -0.00000000000E+00 -0.74505805969E-08  0.93827000000E+00  0.93827000000E+00 0.  1.
     999902    2    1    2    0    0  0.21190127953E-01  0.88205481157E-02 -0.50073947524E-02  0.10204374992E+01  0.10201670413E+01 0.  0.
     999903    2    3    3    0    0  0.81510371068E-01  0.88087747349E-01  0.53616320808E-01  0.13287986128E+00  0.19466788432E-01 0.  0.
         14    1    1    2    0    0 -0.21190127953E-01 -0.88205481157E-02  0.50073947524E-02  0.23492500802E-01  0.00000000000E+00 0. -1.
     999901    1    3    3    0    0 -0.60320243115E-01 -0.79267199233E-01 -0.58623715560E-01  0.88755763792E+00  0.88000000000E+00 0.  1.
        -11    1    4    4    0    0  0.56044822998E-01  0.72802413823E-01  0.40486412039E-01  0.10040231234E+00  0.51100000000E-03 0.  1.
         11    1    4    4    0    0  0.25465548070E-01  0.15285333526E-01  0.13129908769E-01  0.32477548934E-01  0.51100000000E-03 0. -1.
</event>
<event>
 8    1  0.1108957E+005  0.1043930E+01  0.7957747E-01            NaN
         13   -1    0    0    0    0  0.00000000000E+00  0.00000000000E+00  0.74505805969E-08  0.10566000000E+00  0.10566000000E+00 0.  1.
     999900   -1    0    0    0    0 -0.00000000000E+00 -0.00000000000E+00 -0.74505805969E-08  0.93827000000E+00  0.93827000000E+00 0. -1.
     999902    2    1    2    0    0  0.10259101359E-01  0.35853038732E-02  0.20755106901E-01  0.10205018540E+01  0.10202328930E+01 0.  0.
     999903    2    3    3    0    0  0.10721652790E+00 -0.69643883869E-01  0.27371988276E-01  0.13212859928E+00  0.19054831191E-01 0.  0.
         14    1    1    2    0    0 -0.10259101359E-01 -0.35853038732E-02 -0.20755106901E-01  0.23428146043E-01  0.00000000000E+00 0. -1.
     999901    1    3    3    0    0 -0.96957426539E-01  0.73229187742E-01 -0.66168813745E-02  0.88837325467E+00  0.88000000000E+00 0.  1.
        -11    1    4    4    0    0  0.82497812905E-01 -0.55859320320E-01  0.13295124858E-01  0.10051454754E+00  0.51100000000E-03 0. -1.
         11    1    4    4    0    0  0.24718714993E-01 -0.13784563549E-01  0.14076863417E-01  0.31614051746E-01  0.51100000000E-03 0.  1.
</event>
<event>
 8    1  0.1108957E+005  0.1043930E+01  0.7957747E-01            NaN
         13   -1    0    0    0    0  0.00000000000E+00  0.00000000000E+00  0.74505805969E-08  0.10566000000E+00  0.10566000000E+00 0. -1.
     999900   -1    0    0    0    0 -0.00000000000E+00 -0.00000000000E+00 -0.74505805969E-08  0.93827000000E+00  0.93827000000E+00 0. -1.
     999902    2    1    2    0    0 -0.16348229317E-01 -0.67566921384E-02  0.23877946873E-01  0.10142134417E+01  0.10137779991E+01 0.  0.
     999903    2    3    3    0    0  0.94390267627E-01 -0.32064945733E-01  0.73962251748E-01  0.12549978703E+00  0.18495904746E-01 0.  0.
         14    1    1    2    0    0  0.16348229317E-01  0.67566921384E-02 -0.23877946873E-01  0.29716558302E-01  0.00000000000E+00 0. -1.
     999901    1    3    3    0    0 -0.11073849694E+00  0.25308253594E-01 -0.50084304875E-01  0.88871365467E+00  0.88000000000E+00 0. -1.
        -11    1    4    4    0    0  0.74455563620E-01 -0.32197079820E-01  0.55208076529E-01  0.98124796753E-01  0.51100000000E-03 0. -1.
         11    1    4    4    0    0  0.19934704007E-01  0.13213408697E-03  0.18754175220E-01  0.27374990273E-01  0.51100000000E-03 0.  1.
</event>
<event>
 8    1  0.1108957E+005  0.1043930E+01  0.7957747E-01            NaN
         13   -1    0    0    0    0  0.00000000000E+00  0.00000000000E+00  0.74505805969E-08  0.10566000000E+00  0.10566000000E+00 0.  1.
     999900   -1    0    0    0    0 -0.00000000000E+00 -0.00000000000E+00 -0.74505805969E-08  0.93827000000E+00  0.93827000000E+00 0. -1.
     999902    2    1    2    0    0  0.15811384783E-01 -0.32584745125E-02  0.20685978949E-01  0.10176901968E+01  0.10173518612E+01 0.  0.
     999903    2    3    3    0    0  0.14721545039E-01  0.12156488876E+00 -0.28996697588E-01  0.12749334888E+00  0.20469476539E-01 0.  0.
         14    1    1    2    0    0 -0.15811384783E-01  0.32584745125E-02 -0.20685978949E-01  0.26239803162E-01  0.00000000000E+00 0. -1.
     999901    1    3    3    0    0  0.10898397440E-02 -0.12482336327E+00  0.49682676537E-01  0.89019684796E+00  0.88000000000E+00 0. -1.
        -11    1    4    4    0    0  0.55684937203E-02  0.69606897121E-02 -0.23901327576E-04  0.89286626017E-02  0.51100000000E-03 0.  1.
         11    1    4    4    0    0  0.91530513183E-02  0.11460419905E+00 -0.28972796261E-01  0.11856468628E+00  0.51100000000E-03 0. -1.
</event>
<event>
 8    1  0.1108957E+005  0.1043930E+01  0.7957747E-01            NaN
         13   -1    0    0    0    0  0.00000000000E+00  0.00000000000E+00  0.74505805969E-08  0.10566000000E+00  0.10566000000E+00 0. -1.
     999900   -1    0    0    0    0 -0.00000000000E+00 -0.00000000000E+00 -0.74505805969E-08  0.93827000000E+00  0.93827000000E+00 0.  1.
     999902    2    1    2    0    0 -0.14611261071E-01  0.16756776218E-01 -0.95616024238E-02  0.10197287037E+01  0.10194414777E+01 0.  0.
     999903    2    3    3    0    0  0.95734348573E-01 -0.82133650523E-01 -0.18216984172E-02  0.12730762815E+00  0.17114659034E-01 0.  0.
         14    1    1    2    0    0  0.14611261071E-01 -0.16756776218E-01  0.95616024238E-02  0.24201296251E-01  0.00000000000E+00 0.  1.
     999901    1    3    3    0    0 -0.11034560964E+00  0.98890426741E-01 -0.77399040066E-02  0.89242107560E+00  0.88000000000E+00 0.  1.
        -11    1    4    4    0    0  0.35388785406E-01 -0.40714404527E-01  0.23129559793E-02  0.53996664294E-01  0.51100000000E-03 0. -1.
         11    1    4    4    0    0  0.60345563166E-01 -0.41419245996E-01 -0.41346543965E-02  0.73310963851E-01  0.51100000000E-03 0.  1.
</event>
<event>
 8    1  0.1108957E+005  0.1043930E+01  0.7957747E-01            NaN
         13   -1    0    0    0    0  0.00000000000E+00  0.00000000000E+00  0.74505805969E-08  0.10566000000E+00  0.10566000000E+00 0.  1.
     999900   -1    0    0    0    0 -0.00000000000E+00 -0.00000000000E+00 -0.74505805969E-08  0.93827000000E+00  0.93827000000E+00 0. -1.
     999902    2    1    2    0    0  0.10535423410E-01 -0.84961966036E-02  0.19061174512E-01  0.10205524707E+01  0.10202846841E+01 0.  0.
     999903    2    3    3    0    0 -0.43909213432E-01  0.58377656476E-02  0.12324177960E+00  0.13262044658E+00  0.20917649954E-01 0.  0.
         14    1    1    2    0    0 -0.10535423410E-01  0.84961966036E-02 -0.19061174512E-01  0.23377529317E-01  0.00000000000E+00 0. -1.
     999901    1    3    3    0    0  0.54444636842E-01 -0.14333962251E-01 -0.10418060509E+00  0.88793202410E+00  0.88000000000E+00 0. -1.
        -11    1    4    4    0    0 -0.29973681607E-01  0.13635050596E-01  0.79449649119E-01  0.86004907185E-01  0.51100000000E-03 0.  1.
         11    1    4    4    0    0 -0.13935531825E-01 -0.77972849481E-02  0.43792130482E-01  0.46615539393E-01  0.51100000000E-03 0. -1.
</event>
<event>
 8    1  0.1108957E+005  0.1043930E+01  0.7957747E-01            NaN
         13   -1    0    0    0    0  0.00000000000E+00  0.00000000000E+00  0.74505805969E-08  0.10566000000E+00  0.10566000000E+00 0.  1.
     999900   -1    0    0    0    0 -0.00000000000E+00 -0.00000000000E+00 -0.74505805969E-08  0.93827000000E+00  0.93827000000E+00 0. -1.
     999902    2    1    2    0    0  0.81143544533E-02  0.14818382401E-01  0.16573793215E-01  0.10202631915E+01  0.10199886578E+01 0.  0.
     999903    2    3    3    0    0  0.20880907845E-01 -0.10764056401E+00 -0.63097806437E-01  0.12812713556E+00  0.20315667780E-01 0.  0.
         14    1    1    2    0    0 -0.81143544533E-02 -0.14818382401E-01 -0.16573793215E-01  0.23666808545E-01  0.00000000000E+00 0. -1.
     999901    1    3    3    0    0 -0.12766553391E-01  0.12245894641E+00  0.79671599651E-01  0.89213605590E+00  0.88000000000E+00 0. -1.
        -11    1    4    4    0    0  0.19861728850E-01 -0.50704074259E-01 -0.33658688725E-01  0.64019995838E-01  0.51100000000E-03 0.  1.
         11    1    4    4    0    0  0.10191789945E-02 -0.56936489747E-01 -0.29439117711E-01  0.64107139720E-01  0.51100000000E-03 0. -1.
</event>
<event>
 8    1  0.1108957E+005  0.1043930E+01  0.7957747E-01            NaN
         13   -1    0    0    0    0  0.00000000000E+00  0.00000000000E+00  0.74505805969E-08  0.10566000000E+00  0.10566000000E+00 0.  1.
     999900   -1    0    0    0    0 -0.00000000000E+00 -0.00000000000E+00 -0.74505805969E-08  0.93827000000E+00  0.93827000000E+00 0. -1.
     999902    2    1    2    0    0 -0.18959304727E-01 -0.74801899135E-02 -0.15109257012E-01  0.10185587934E+01  0.10182427596E+01 0.  0.
     999903    2    3    3    0    0 -0.11800359068E-03 -0.12687008099E+00 -0.21833437513E-01  0.13027159023E+00  0.19948855869E-01 0.  0.
         14    1    1    2    0    0  0.18959304727E-01  0.74801899135E-02  0.15109257012E-01  0.25371206600E-01  0.00000000000E+00 0.  1.
     999901    1    3    3    0    0 -0.18841301136E-01  0.11938989108E+00  0.67241805005E-02  0.88828720317E+00  0.88000000000E+00 0.  1.
        -11    1    4    4    0    0  0.96571286480E-02 -0.56384601916E-01 -0.77668822829E-02  0.57732738099E-01  0.51100000000E-03 0. -1.
         11    1    4    4    0    0 -0.97751322387E-02 -0.70485479076E-01 -0.14066555230E-01  0.72538852127E-01  0.51100000000E-03 0.  1.
</event>
<event>
 8    1  0.1108957E+005  0.1043930E+01  0.7957747E-01            NaN
         13   -1    0    0    0    0  0.00000000000E+00  0.00000000000E+00  0.74505805969E-08  0.10566000000E+00  0.10566000000E+00 0.  1.
     999900   -1    0    0    0    0 -0.00000000000E+00 -0.00000000000E+00 -0.74505805969E-08  0.93827000000E+00  0.93827000000E+00 0. -1.
     999902    2    1    2    0    0 -0.47112763902E-02 -0.16320498962E-01 -0.16637959520E-01  0.10201523528E+01  0.10198752112E+01 0.  0.
     999903    2    3    3    0    0  0.14601065701E-02 -0.29360796327E-01 -0.12814182644E+00  0.13299890060E+00  0.20104517050E-01 0.  0.
         14    1    1    2    0    0  0.47112763902E-02  0.16320498962E-01  0.16637959520E-01  0.23777647246E-01  0.00000000000E+00 0.  1.
     999901    1    3    3    0    0 -0.61713829603E-02  0.13040297365E-01  0.11150386692E+00  0.88715345215E+00  0.88000000000E+00 0.  1.
        -11    1    4    4    0    0 -0.57341729689E-02 -0.11876205614E-01 -0.83185199110E-01  0.84225669908E-01  0.51100000000E-03 0. -1.
         11    1    4    4    0    0  0.71942795390E-02 -0.17484590713E-01 -0.44956627332E-01  0.48773230696E-01  0.51100000000E-03 0.  1.
</event>
<event>
 8    1  0.1108957E+005  0.1043930E+01  0.7957747E-01            NaN
         13   -1    0    0    0    0  0.00000000000E+00  0.00000000000E+00  0.74505805969E-08  0.10566000000E+00  0.10566000000E+00 0. -1.
     999900   -1    0    0    0    0 -0.00000000000E+00 -0.00000000000E+00 -0.74505805969E-08  0.93827000000E+00  0.93827000000E+00 0. -1.
     999902    2    1    2    0    0  0.28330290288E-02 -0.45048938915E-03  0.24476415765E-01  0.10192860571E+01  0.10189880972E+01 0.  0.
     999903    2    3    3    0    0  0.17650579661E-02  0.12805707801E+00  0.10656451731E-01  0.12984447561E+00  0.18555247879E-01 0.  0.
         14    1    1    2    0    0 -0.28330290288E-02  0.45048938915E-03 -0.24476415765E-01  0.24643942924E-01  0.00000000000E+00 0.  1.
     999901    1    3    3    0    0  0.10679710628E-02 -0.12850756740E+00  0.13819964033E-01  0.88944158147E+00  0.88000000000E+00 0.  1.
        -11    1    4    4    0    0  0.86831563354E-02  0.66287170416E-01  0.10572416423E-01  0.67686211858E-01  0.51100000000E-03 0. -1.
         11    1    4    4    0    0 -0.69180983694E-02  0.61769907594E-01  0.84035308212E-04  0.62158263748E-01  0.51100000000E-03 0.  1.
</event>
<event>
 7    1  0.1108957E+005  0.1043930E+01  0.7957747E-01            NaN
         13   -1    0    0    0    0  0.00000000000E+00  0.00000000000E+00  0.74505805969E-08  0.10566000000E+00  0.10566000000E+00 0.  1.
     999900   -1    0    0    0    0 -0.00000000000E+00 -0.00000000000E+00 -0.74505805969E-08  0.93827000000E+00  0.93827000000E+00 0.  1.
     999902    2    1    2    0    0  0.65578341840E-02  0.21777438997E-01  0.64616510140E-02  0.10202865025E+01  0.10200125157E+01 0.  0.
         14    1    1    2    0    0 -0.65578341840E-02 -0.21777438997E-01 -0.64616510140E-02  0.23643497463E-01  0.00000000000E+00 0. -1.
     999901    1    3    3    0    0  0.80182665391E-01 -0.56920081416E-01  0.13434658225E-01  0.88557870658E+00  0.88000000000E+00 0. -1.
        -11    1    3    3    0    0 -0.15043267718E-01  0.60969027489E-01  0.22584562852E-01  0.66737139711E-01  0.51100000000E-03 0. -1.
         11    1    3    3    0    0 -0.58581563489E-01  0.17728492925E-01 -0.29557570062E-01  0.67970656251E-01  0.51100000000E-03 0.  1.
</event>
<event>
 8    1  0.1108957E+005  0.1043930E+01  0.7957747E-01            NaN
         13   -1    0    0    0    0  0.00000000000E+00  0.00000000000E+00  0.74505805969E-08  0.10566000000E+00  0.10566000000E+00 0. -1.
     999900   -1    0    0    0    0 -0.00000000000E+00 -0.00000000000E+00 -0.74505805969E-08  0.93827000000E+00  0.93827000000E+00 0. -1.
     999902    2    1    2    0    0 -0.44739569542E-02 -0.13067520870E-01 -0.20472376140E-01  0.10192339562E+01  0.10189347197E+01 0.  0.
     999903    2    3    3    0    0  0.34618979869E-01  0.68381964683E-01 -0.10401353826E+00  0.13067253339E+00  0.19542977778E-01 0.  0.
         14    1    1    2    0    0  0.44739569542E-02  0.13067520870E-01  0.20472376140E-01  0.24696043759E-01  0.00000000000E+00 0. -1.
     999901    1    3    3    0    0 -0.39092936824E-01 -0.81449485553E-01  0.83541162122E-01  0.88856142285E+00  0.88000000000E+00 0.  1.
        -11    1    4    4    0    0  0.16365189826E-01  0.43090090242E-01 -0.75216813685E-01  0.88217943170E-01  0.51100000000E-03 0. -1.
         11    1    4    4    0    0  0.18253790043E-01  0.25291874440E-01 -0.28796724576E-01  0.42454590223E-01  0.51100000000E-03 0.  1.
</event>
<event>
 8    1  0.1108957E+005  0.1043930E+01  0.7957747E-01            NaN
         13   -1    0    0    0    0  0.00000000000E+00  0.00000000000E+00  0.74505805969E-08  0.10566000000E+00  0.10566000000E+00 0.  1.
     999900   -1    0    0    0    0 -0.00000000000E+00 -0.00000000000E+00 -0.74505805969E-08  0.93827000000E+00  0.93827000000E+00 0.  1.
     999902    2    1    2    0    0 -0.20307927308E-01 -0.12377471267E-01  0.35290698385E-02  0.10198869544E+01  0.10196035169E+01 0.  0.
     999903    2    3    3    0    0 -0.11112861234E-01  0.58465220634E-01  0.11412480531E+00  0.13009222926E+00  0.18916638670E-01 0.  0.
         14    1    1    2    0    0  0.20307927308E-01  0.12377471267E-01 -0.35290698385E-02  0.24043045574E-01  0.00000000000E+00 0.  1.
     999901    1    3    3    0    0 -0.91950660741E-02 -0.70842691901E-01 -0.11059573547E+00  0.88979472517E+00  0.88000000000E+00 0.  1.
        -11    1    4    4    0    0 -0.29273573526E-03  0.18391832381E-01  0.53837993878E-01  0.56895833752E-01  0.51100000000E-03 0.  1.
         11    1    4    4    0    0 -0.10820125499E-01  0.40073388253E-01  0.60286811427E-01  0.73196395505E-01  0.51100000000E-03 0. -1.
</event>
<event>
 8    1  0.1108957E+005  0.1043930E+01  0.7957747E-01            NaN
         13   -1    0    0    0    0  0.00000000000E+00  0.00000000000E+00  0.74505805969E-08  0.10566000000E+00  0.10566000000E+00 0. -1.
     999900   -1    0    0    0    0 -0.00000000000E+00 -0.00000000000E+00 -0.74505805969E-08  0.93827000000E+00  0.93827000000E+00 0. -1.
     999902    2    1    2    0    0  0.12666193088E-01  0.62111967081E-02 -0.19044297008E-01  0.10202298595E+01  0.10199545429E+01 0.  0.
     999903    2    3    3    0    0 -0.94415026221E-01 -0.85212052980E-01 -0.29122504464E-03  0.12883977887E+00  0.20598850884E-01 0.  0.
         14    1    1    2    0    0 -0.12666193088E-01 -0.62111967081E-02  0.19044297008E-01  0.23700140514E-01  0.00000000000E+00 0.  1.
     999901    1    3    3    0    0  0.10708121931E+00  0.91423249688E-01 -0.18753071963E-01  0.89139008062E+00  0.88000000000E+00 0. -1.
        -11    1    4    4    0    0 -0.18707095028E-01 -0.26660446332E-01  0.51430997857E-02  0.32976467358E-01  0.51100000000E-03 0. -1.
         11    1    4    4    0    0 -0.75707931193E-01 -0.58551606649E-01 -0.54343248304E-02  0.95863311512E-01  0.51100000000E-03 0.  1.
</event>
<event>
 8    1  0.1108957E+005  0.1043930E+01  0.7957747E-01            NaN
         13   -1    0    0    0    0  0.00000000000E+00  0.00000000000E+00  0.74505805969E-08  0.10566000000E+00  0.10566000000E+00 0.  1.
     999900   -1    0    0    0    0 -0.00000000000E+00 -0.00000000000E+00 -0.74505805969E-08  0.93827000000E+00  0.93827000000E+00 0. -1.
     999902    2    1    2    0    0  0.20342647468E-01  0.14557351398E-01 -0.50482405791E-02  0.10184108989E+01  0.10180911229E+01 0.  0.
     999903    2    3    3    0    0  0.57869690593E-01 -0.27135270869E-01  0.11039899220E+00  0.12909958266E+00  0.19837861537E-01 0.  0.
         14    1    1    2    0    0 -0.20342647468E-01 -0.14557351398E-01  0.50482405791E-02  0.25519101055E-01  0.00000000000E+00 0. -1.
     999901    1    3    3    0    0 -0.37527043125E-01  0.41692622267E-01 -0.11544723278E+00  0.88931131629E+00  0.88000000000E+00 0. -1.
        -11    1    4    4    0    0  0.36941929124E-01 -0.13373908821E-01  0.83835080616E-01  0.92585902963E-01  0.51100000000E-03 0. -1.
         11    1    4    4    0    0  0.20927761469E-01 -0.13761362048E-01  0.26563911581E-01  0.36513679697E-01  0.51100000000E-03 0.  1.
</event>
<event>
 8    1  0.1108957E+005  0.1043930E+01  0.7957747E-01            NaN
         13   -1    0    0    0    0  0.00000000000E+00  0.00000000000E+00  0.74505805969E-08  0.10566000000E+00  0.10566000000E+00 0. -1.
     999900   -1    0    0    0    0 -0.00000000000E+00 -0.00000000000E+00 -0.74505805969E-08  0.93827000000E+00  0.93827000000E+00 0. -1.
     999902    2    1    2    0    0 -0.15827088535E-01 -0.15192419690E-01 -0.91614991319E-02  0.10201552358E+01  0.10198781622E+01 0.  0.
     999903    2    3    3    0    0  0.45762893852E-04  0.98618947432E-01  0.80207957386E-01  0.12819566581E+00  0.16586543265E-01 0.  0.
         14    1    1    2    0    0  0.15827088535E-01  0.15192419690E-01  0.91614991319E-02  0.23774764223E-01  0.00000000000E+00 0. -1.
     999901    1    3    3    0    0 -0.15872851428E-01 -0.11381136712E+00 -0.89369456518E-01  0.89195956997E+00  0.88000000000E+00 0. -1.
        -11    1    4    4    0    0 -0.80811463398E-02  0.44675648843E-01  0.34498102322E-01  0.57022791149E-01  0.51100000000E-03 0. -1.
         11    1    4    4    0    0  0.81269092336E-02  0.53943298590E-01  0.45709855064E-01  0.71172874660E-01  0.51100000000E-03 0.  1.
</event>
<event>
 8    1  0.1108957E+005  0.1043930E+01  0.7957747E-01            NaN
         13   -1    0    0    0    0  0.00000000000E+00  0.00000000000E+00  0.74505805969E-08  0.10566000000E+00  0.10566000000E+00 0.  1.
     999900   -1    0    0    0    0 -0.00000000000E+00 -0.00000000000E+00 -0.74505805969E-08  0.93827000000E+00  0.93827000000E+00 0. -1.
     999902    2    1    2    0    0  0.12940298283E-01 -0.18172655364E-01 -0.67325442921E-02  0.10206271273E+01  0.10203610680E+01 0.  0.
     999903    2    3    3    0    0  0.11825611843E+00 -0.37126399550E-01 -0.44733409584E-01  0.13333082272E+00  0.20326122691E-01 0.  0.
         14    1    1    2    0    0 -0.12940298283E-01  0.18172655364E-01  0.67325442921E-02  0.23302872683E-01  0.00000000000E+00 0. -1.
     999901    1    3    3    0    0 -0.10531582015E+00  0.18953744186E-01  0.38000865292E-01  0.88729630460E+00  0.88000000000E+00 0. -1.
        -11    1    4    4    0    0  0.38565478224E-01 -0.29389799082E-02 -0.10299259856E-01  0.40028359799E-01  0.51100000000E-03 0.  1.
         11    1    4    4    0    0  0.79690640207E-01 -0.34187419642E-01 -0.34434149728E-01  0.93302462919E-01  0.51100000000E-03 0. -1.
</event>
<event>
 8    1  0.1108957E+005  0.1043930E+01  0.7957747E-01            NaN
         13   -1    0    0    0    0  0.00000000000E+00  0.00000000000E+00  0.74505805969E-08  0.10566000000E+00  0.10566000000E+00 0.  1.
     999900   -1    0    0    0    0 -0.00000000000E+00 -0.00000000000E+00 -0.74505805969E-08  0.93827000000E+00  0.93827000000E+00 0. -1.
     999902    2    1    2    0    0  0.14938988746E-01  0.11694800780E-01  0.14999778184E-01  0.10197445685E+01  0.10194577235E+01 0.  0.
     999903    2    3    3    0    0  0.94492225242E-01 -0.51076474686E-01 -0.70080741813E-01  0.12985263950E+00  0.20317743838E-01 0.  0.
         14    1    1    2    0    0 -0.14938988746E-01 -0.11694800780E-01 -0.14999778184E-01  0.24185431474E-01  0.00000000000E+00 0. -1.
     999901    1    3    3    0    0 -0.79553236496E-01  0.62771275466E-01  0.85080519997E-01  0.88989192902E+00  0.88000000000E+00 0.  1.
        -11    1    4    4    0    0  0.60560147137E-01 -0.28879820605E-01 -0.32446475457E-01  0.74529258349E-01  0.51100000000E-03 0.  1.
         11    1    4    4    0    0  0.33932078105E-01 -0.22196654082E-01 -0.37634266356E-01  0.55323381152E-01  0.51100000000E-03 0. -1.
</event>
<event>
 8    1  0.1108957E+005  0.1043930E+01  0.7957747E-01            NaN
         13   -1    0    0    0    0  0.00000000000E+00  0.00000000000E+00  0.74505805969E-08  0.10566000000E+00  0.10566000000E+00 0. -1.
     999900   -1    0    0    0    0 -0.00000000000E+00 -0.00000000000E+00 -0.74505805969E-08  0.93827000000E+00  0.93827000000E+00 0. -1.
     999902    2    1    2    0    0  0.16092117585E-01 -0.11833141800E-01 -0.13831260943E-01  0.10196342540E+01  0.10193447546E+01 0.  0.
     999903    2    3    3    0    0 -0.11910123132E+00 -0.40887046154E-02 -0.44449444210E-01  0.12875003537E+00  0.19974927073E-01 0.  0.
         14    1    1    2    0    0 -0.16092117585E-01  0.11833141800E-01  0.13831260943E-01  0.24295745975E-01  0.00000000000E+00 0. -1.
     999901    1    3    3    0    0  0.13519334890E+00 -0.77444371845E-02  0.30618183267E-01  0.89088421865E+00  0.88000000000E+00 0.  1.
        -11    1    4    4    0    0 -0.10959964417E+00  0.18383184948E-02 -0.40733674335E-01  0.11693996221E+00  0.51100000000E-03 0.  1.
         11    1    4    4    0    0 -0.95015871496E-02 -0.59270231102E-02 -0.37157698758E-02  0.11810073162E-01  0.51100000000E-03 0. -1.
</event>
<event>
 8    1  0.1108957E+005  0.1043930E+01  0.7957747E-01            NaN
         13   -1    0    0    0    0  0.00000000000E+00  0.00000000000E+00  0.74505805969E-08  0.10566000000E+00  0.10566000000E+00 0. -1.
     999900   -1    0    0    0    0 -0.00000000000E+00 -0.00000000000E+00 -0.74505805969E-08  0.93827000000E+00  0.93827000000E+00 0.  1.
     999902    2    1    2    0    0 -0.21754811125E-01 -0.83834287652E-02  0.51642863346E-02  0.10200506462E+01  0.10197711004E+01 0.  0.
     999903    2    3    3    0    0  0.79620924310E-01 -0.10021371770E+00  0.36512121053E-02  0.12948221474E+00  0.19236210148E-01 0.  0.
         14    1    1    2    0    0  0.21754811125E-01  0.83834287652E-02 -0.51642863346E-02  0.23879353808E-01  0.00000000000E+00 0. -1.
     999901    1    3    3    0    0 -0.10137573544E+00  0.91830288937E-01  0.15130742293E-02  0.89056843145E+00  0.88000000000E+00 0. -1.
        -11    1    4    4    0    0  0.22208358010E-01 -0.32123283516E-01  0.95968740047E-02  0.40217876883E-01  0.51100000000E-03 0.  1.
         11    1    4    4    0    0  0.57412566301E-01 -0.68090434186E-01 -0.59456618994E-02  0.89264337858E-01  0.51100000000E-03 0. -1.
</event>
<event>
 8    1  0.1108957E+005  0.1043930E+01  0.7957747E-01            NaN
         13   -1    0    0    0    0  0.00000000000E+00  0.00000000000E+00  0.74505805969E-08  0.10566000000E+00  0.10566000000E+00 0.  1.
     999900   -1    0    0    0    0 -0.00000000000E+00 -0.00000000000E+00 -0.74505805969E-08  0.93827000000E+00  0.93827000000E+00 0.  1.
     999902    2    1    2    0    0 -0.76462946710E-02 -0.17869427751E-01 -0.12769596400E-01  0.10206739285E+01  0.10204089491E+01 0.  0.
     999903    2    3    3    0    0 -0.89342909038E-01  0.90958277603E-01  0.16473078928E-01  0.12973457010E+00  0.17439400491E-01 0.  0.
         14    1    1    2    0    0  0.76462946710E-02  0.17869427751E-01  0.12769596400E-01  0.23256071521E-01  0.00000000000E+00 0.  1.
     999901    1    3    3    0    0  0.81696614367E-01 -0.10882770535E+00 -0.29242675328E-01  0.89093935838E+00  0.88000000000E+00 0. -1.
        -11    1    4    4    0    0 -0.75534472222E-01  0.75568204433E-01  0.20141289447E-01  0.10872875736E+00  0.51100000000E-03 0. -1.
         11    1    4    4    0    0 -0.13808436816E-01  0.15390073170E-01 -0.36682105191E-02  0.21005812740E-01  0.51100000000E-03 0.  1.
</event>
<event>
 8    1  0.1108957E+005  0.1043930E+01  0.7957747E-01            NaN
         13   -1    0    0    0    0  0.00000000000E+00  0.00000000000E+00  0.74505805969E-08  0.10566000000E+00  0.10566000000E+00 0.  1.
     999900   -1    0    0    0    0 -0.00000000000E+00 -0.00000000000E+00 -0.74505805969E-08  0.93827000000E+00  0.93827000000E+00 0.  1.
     999902    2    1    2    0    0 -0.13420034453E-01  0.18976875327E-01 -0.49242653380E-02  0.10201714750E+01  0.10198947842E+01 0.  0.
     999903    2    3    3    0    0 -0.11291567458E+00 -0.50481142658E-01 -0.38909650973E-01  0.13119520696E+00  0.19998151446E-01 0.  0.
         14    1    1    2    0    0  0.13420034453E-01 -0.18976875327E-01  0.49242653380E-02  0.23758525018E-01  0.00000000000E+00 0. -1.
     999901    1    3    3    0    0  0.99495640126E-01  0.69458017986E-01  0.33985385635E-01  0.88897626802E+00  0.88000000000E+00 0. -1.
        -11    1    4    4    0    0 -0.23613034098E-01 -0.10538026307E-01  0.13087269530E-03  0.25863171237E-01  0.51100000000E-03 0. -1.
         11    1    4    4    0    0 -0.89302640481E-01 -0.39943116351E-01 -0.39040523668E-01  0.10533203573E+00  0.51100000000E-03 0.  1.
</event>
<event>
 8    1  0.1108957E+005  0.1043930E+01  0.7957747E-01            NaN
         13   -1    0    0    0    0  0.00000000000E+00  0.00000000000E+00  0.74505805969E-08  0.10566000000E+00  0.10566000000E+00 0. -1.
     999900   -1    0    0    0    0 -0.00000000000E+00 -0.00000000000E+00 -0.74505805969E-08  0.93827000000E+00  0.93827000000E+00 0.  1.
     999902    2    1    2    0    0 -0.10344136293E-01 -0.97752785927E-02 -0.18771846129E-01  0.10203728475E+01  0.10201008815E+01 0.  0.
     999903    2    3    3    0    0 -0.78287827778E-02  0.62987185271E-01 -0.11169878603E+00  0.13248990514E+00  0.32377165047E-01 0.  0.
         14    1    1    2    0    0  0.10344136293E-01  0.97752785927E-02  0.18771846129E-01  0.23557152509E-01  0.00000000000E+00 0. -1.
     999901    1    3    3    0    0 -0.25153535157E-02 -0.72762463864E-01  0.92926939901E-01  0.88788294235E+00  0.88000000000E+00 0. -1.
        -11    1    4    4    0    0 -0.10592981449E-01  0.66121988817E-01 -0.10642746848E+00  0.12574337291E+00  0.51100000000E-03 0. -1.
         11    1    4    4    0    0  0.27641986714E-02 -0.31348035457E-02 -0.52713175475E-02  0.67465322390E-02  0.51100000000E-03 0.  1.
</event>
<event>
 8    1  0.1108957E+005  0.1043930E+01  0.7957747E-01            NaN
         13   -1    0    0    0    0  0.00000000000E+00  0.00000000000E+00  0.74505805969E-08  0.10566000000E+00  0.10566000000E+00 0. -1.
     999900   -1    0    0    0    0 -0.00000000000E+00 -0.00000000000E+00 -0.74505805969E-08  0.93827000000E+00  0.93827000000E+00 0.  1.
     999902    2    1    2    0    0 -0.12787838488E-01  0.17183509118E-01 -0.13597245720E-01  0.10185590148E+01  0.10182429866E+01 0.  0.
     999903    2    3    3    0    0 -0.21939328123E-01 -0.10056287804E+00  0.71146100189E-01  0.12663446859E+00  0.19501141137E-01 0.  0.
         14    1    1    2    0    0  0.12787838488E-01 -0.17183509118E-01  0.13597245720E-01  0.25370985199E-01  0.00000000000E+00 0.  1.
     999901    1    3    3    0    0  0.91514896347E-02  0.11774638716E+00 -0.84743345908E-01  0.89192454621E+00  0.88000000000E+00 0.  1.
        -11    1    4    4    0    0 -0.19127407462E-01 -0.64387938881E-01  0.36424773042E-01  0.76411318545E-01  0.51100000000E-03 0.  1.
         11    1    4    4    0    0 -0.28119206608E-02 -0.36174939159E-01  0.34721327147E-01  0.50223150049E-01  0.51100000000E-03 0. -1.
</event>
<event>
 8    1  0.1108957E+005  0.1043930E+01  0.7957747E-01            NaN
         13   -1    0    0    0    0  0.00000000000E+00  0.00000000000E+00  0.74505805969E-08  0.10566000000E+00  0.10566000000E+00 0. -1.
     999900   -1    0    0    0    0 -0.00000000000E+00 -0.00000000000E+00 -0.74505805969E-08  0.93827000000E+00  0.93827000000E+00 0. -1.
     999902    2    1    2    0    0 -0.16243472372E-02  0.22287223484E-01  0.68139231181E-02  0.10205678857E+01  0.10203004562E+01 0.  0.
     999903    2    3    3    0    0 -0.39220318702E-01 -0.11922813508E+00 -0.16637571831E-01  0.12816101306E+00  0.19870955701E-01 0.  0.
         14    1    1    2    0    0  0.16243472372E-02 -0.22287223484E-01 -0.68139231181E-02  0.23362114263E-01  0.00000000000E+00 0. -1.
     999901    1    3    3    0    0  0.37595971465E-01  0.14151535856E+00  0.23451494949E-01  0.89240687267E+00  0.88000000000E+00 0. -1.
        -11    1    4    4    0    0 -0.11141861635E-01 -0.54114302400E-01 -0.14910177892E-01  0.57228256401E-01  0.51100000000E-03 0.  1.
         11    1    4    4    0    0 -0.28078457067E-01 -0.65113832676E-01 -0.17273939385E-02  0.70932756663E-01  0.51100000000E-03 0. -1.
</event>
<event>
 8    1  0.1108957E+005  0.1043930E+01  0.7957747E-01            NaN
         13   -1    0    0    0    0  0.00000000000E+00  0.00000000000E+00  0.74505805969E-08  0.10566000000E+00  0.10566000000E+00 0.  1.
     999900   -1    0    0    0    0 -0.00000000000E+00 -0.00000000000E+00 -0.74505805969E-08  0.93827000000E+00  0.93827000000E+00 0.  1.
     999902    2    1    2    0    0  0.19515730162E-01 -0.12736409328E-01  0.35651726327E-02  0.10203547948E+01  0.10200824069E+01 0.  0.
     999903    2    3    3    0    0 -0.22668066607E-02 -0.12318876521E+00  0.40947057951E-01  0.13239555742E+00  0.25909685132E-01 0.  0.
         14    1    1    2    0    0 -0.19515730162E-01  0.12736409328E-01 -0.35651726327E-02  0.23575205242E-01  0.00000000000E+00 0.  1.
     999901    1    3    3    0    0  0.21782536823E-01  0.11045235588E+00 -0.37381885318E-01  0.88795923734E+00  0.88000000000E+00 0.  1.
        -11    1    4    4    0    0 -0.92784380957E-02 -0.31470240590E-01  0.32168717732E-02  0.32970818025E-01  0.51100000000E-03 0. -1.
         11    1    4    4    0    0  0.70116314350E-02 -0.91718524616E-01  0.37730186178E-01  0.99424739391E-01  0.51100000000E-03 0.  1.
</event>
<event>
 8    1  0.1108957E+005  0.1043930E+01  0.7957747E-01            NaN
         13   -1    0    0    0    0  0.00000000000E+00  0.00000000000E+00  0.74505805969E-08  0.10566000000E+00  0.10566000000E+00 0. -1.
     999900   -1    0    0    0    0 -0.00000000000E+00 -0.00000000000E+00 -0.74505805969E-08  0.93827000000E+00  0.93827000000E+00 0.  1.
     999902    2    1    2    0    0 -0.48516873447E-03  0.27993357524E-02 -0.23965224682E-01  0.10197969591E+01  0.10195113703E+01 0.  0.
     999903    2    3    3    0    0  0.21361860229E-01 -0.61850003411E-01 -0.11355351575E+00  0.13262003670E+00  0.20295841955E-01 0.  0.
         14    1    1    2    0    0  0.48516873447E-03 -0.27993357524E-02  0.23965224682E-01  0.24133040907E-01  0.00000000000E+00 0. -1.
     999901    1    3    3    0    0 -0.21847028963E-01  0.64649339163E-01  0.89588291070E-01  0.88717692239E+00  0.88000000000E+00 0. -1.
        -11    1    4    4    0    0  0.15662742459E-01 -0.51148817859E-01 -0.74447512865E-01  0.91674513157E-01  0.51100000000E-03 0. -1.
         11    1    4    4    0    0  0.56991177697E-02 -0.10701185552E-01 -0.39106002886E-01  0.40945523544E-01  0.51100000000E-03 0.  1.
</event>
<event>
 7    1  0.1108957E+005  0.1043930E+01  0.7957747E-01            NaN
         13   -1    0    0    0    0  0.00000000000E+00  0.00000000000E+00  0.74505805969E-08  0.10566000000E+00  0.10566000000E+00 0.  1.
     999900   -1    0    0    0    0 -0.00000000000E+00 -0.00000000000E+00 -0.74505805969E-08  0.93827000000E+00  0.93827000000E+00 0.  1.
     999903    2    1    2    0    0  0.48955648771E-01 -0.66372321353E-01 -0.80078625769E-01  0.11733967768E+00  0.23538756644E-01 0.  0.
         14    1    1    2    0    0 -0.27947037161E-01 -0.11602449390E-02  0.31918473090E-01  0.42440216526E-01  0.00000000000E+00 0.  1.
     999901    1    1    2    0    0 -0.21008611610E-01  0.67532566292E-01  0.48160152679E-01  0.88415010580E+00  0.88000000000E+00 0. -1.
        -11    1    3    3    0    0  0.40140169903E-01 -0.57809499994E-01 -0.77654352309E-01  0.10480282001E+00  0.51100000000E-03 0. -1.
         11    1    3    3    0    0  0.88154788681E-02 -0.85628213590E-02 -0.24242734604E-02  0.12536857665E-01  0.51100000000E-03 0.  1.
</event>
<event>
 8    1  0.1108957E+005  0.1043930E+01  0.7957747E-01            NaN
         13   -1    0    0    0    0  0.00000000000E+00  0.00000000000E+00  0.74505805969E-08  0.10566000000E+00  0.10566000000E+00 0.  1.
     999900   -1    0    0    0    0 -0.00000000000E+00 -0.00000000000E+00 -0.74505805969E-08  0.93827000000E+00  0.93827000000E+00 0.  1.
     999902    2    1    2    0    0 -0.22643432803E-01  0.10283385029E-02  0.13863820850E-01  0.10173595642E+01  0.10170125343E+01 0.  0.
     999903    2    3    3    0    0 -0.10084974444E+00  0.60541593556E-01 -0.50299267777E-01  0.12956738321E+00  0.20536186371E-01 0.  0.
         14    1    1    2    0    0  0.22643432803E-01 -0.10283385029E-02 -0.13863820850E-01  0.26570435784E-01  0.00000000000E+00 0.  1.
     999901    1    3    3    0    0  0.78206311634E-01 -0.59513255053E-01  0.64163088627E-01  0.88779218100E+00  0.88000000000E+00 0. -1.
        -11    1    4    4    0    0 -0.45712177173E-01  0.33655089774E-01 -0.14696467816E-01  0.58638856544E-01  0.51100000000E-03 0.  1.
         11    1    4    4    0    0 -0.55137567264E-01  0.26886503782E-01 -0.35602799961E-01  0.70928526670E-01  0.51100000000E-03 0. -1.
</event>
<event>
 8    1  0.1108957E+005  0.1043930E+01  0.7957747E-01            NaN
         13   -1    0    0    0    0  0.00000000000E+00  0.00000000000E+00  0.74505805969E-08  0.10566000000E+00  0.10566000000E+00 0. -1.
     999900   -1    0    0    0    0 -0.00000000000E+00 -0.00000000000E+00 -0.74505805969E-08  0.93827000000E+00  0.93827000000E+00 0. -1.
     999902    2    1    2    0    0 -0.11397257532E-01  0.18529231314E-01 -0.93311419742E-02  0.10202593409E+01  0.10199847168E+01 0.  0.
     999903    2    3    3    0    0 -0.85719673094E-01 -0.88539494810E-01  0.34892609639E-01  0.12956114634E+00  0.19531818552E-01 0.  0.
         14    1    1    2    0    0  0.11397257532E-01 -0.18529231314E-01  0.93311419742E-02  0.23670659113E-01  0.00000000000E+00 0. -1.
     999901    1    3    3    0    0  0.74322415562E-01  0.10706872612E+00 -0.44223751613E-01  0.89069819455E+00  0.88000000000E+00 0.  1.
        -11    1    4    4    0    0 -0.26921749903E-01 -0.40221189214E-01  0.94595330332E-02  0.49318034894E-01  0.51100000000E-03 0.  1.
         11    1    4    4    0    0 -0.58797923191E-01 -0.48318305597E-01  0.25433076606E-01  0.80243111442E-01  0.51100000000E-03 0. -1.
</event>
<event>
 8    1  0.1108957E+005  0.1043930E+01  0.7957747E-01            NaN
         13   -1    0    0    0    0  0.00000000000E+00  0.00000000000E+00  0.74505805969E-08  0.10566000000E+00  0.10566000000E+00 0.  1.
     999900   -1    0    0    0    0 -0.00000000000E+00 -0.00000000000E+00 -0.74505805969E-08  0.93827000000E+00  0.93827000000E+00 0. -1.
     999902    2    1    2    0    0 -0.17663956019E-01  0.64791679663E-02  0.13962732944E-01  0.10205002567E+01  0.10202312586E+01 0.  0.
     999903    2    3    3    0    0 -0.88900145812E-01 -0.95025406472E-01  0.42703019594E-02  0.13175298296E+00  0.20187848788E-01 0.  0.
         14    1    1    2    0    0  0.17663956019E-01 -0.64791679663E-02 -0.13962732944E-01  0.23429743299E-01  0.00000000000E+00 0. -1.
     999901    1    3    3    0    0  0.71236189793E-01  0.10150457444E+00  0.96924309847E-02  0.88874727374E+00  0.88000000000E+00 0. -1.
        -11    1    4    4    0    0 -0.79671578364E-02 -0.16875713911E-01 -0.34364810226E-02  0.18982514239E-01  0.51100000000E-03 0.  1.
         11    1    4    4    0    0 -0.80932987976E-01 -0.78149692561E-01  0.77067829819E-02  0.11277046872E+00  0.51100000000E-03 0. -1.
</event>
<event>
 8    1  0.1108957E+005  0.1043930E+01  0.7957747E-01            NaN
         13   -1    0    0    0    0  0.00000000000E+00  0.00000000000E+00  0.74505805969E-08  0.10566000000E+00  0.10566000000E+00 0.  1.
     999900   -1    0    0    0    0 -0.00000000000E+00 -0.00000000000E+00 -0.74505805969E-08  0.93827000000E+00  0.93827000000E+00 0.  1.
     999902    2    1    2    0    0  0.10484049016E-01  0.21074701714E-01  0.95440771837E-03  0.10203722151E+01  0.10201002343E+01 0.  0.
     999903    2    3    3    0    0 -0.13431088101E-01 -0.14051713499E-01 -0.12710192749E+00  0.13008898834E+00  0.19758545918E-01 0.  0.
         14    1    1    2    0    0 -0.10484049016E-01 -0.21074701714E-01 -0.95440771837E-03  0.23557784917E-01  0.00000000000E+00 0. -1.
     999901    1    3    3    0    0  0.23915137117E-01  0.35126415213E-01  0.12805633521E+00  0.89028322674E+00  0.88000000000E+00 0. -1.
        -11    1    4    4    0    0 -0.10639286171E-01  0.11360601275E-02 -0.32134127184E-01  0.33872530076E-01  0.51100000000E-03 0. -1.
         11    1    4    4    0    0 -0.27918019303E-02 -0.15187773627E-01 -0.94967800304E-01  0.96216458267E-01  0.51100000000E-03 0.  1.
</event>
<event>
 8    1  0.1108957E+005  0.1043930E+01  0.7957747E-01            NaN
         13   -1    0    0    0    0  0.00000000000E+00  0.00000000000E+00  0.74505805969E-08  0.10566000000E+00  0.10566000000E+00 0. -1.
     999900   -1    0    0    0    0 -0.00000000000E+00 -0.00000000000E+00 -0.74505805969E-08  0.93827000000E+00  0.93827000000E+00 0. -1.
     999902    2    1    2    0    0  0.20892994488E-01 -0.70196876983E-02 -0.11706636692E-02  0.10218582151E+01  0.10216198158E+01 0.  0.
     999903    2    3    3    0    0  0.17886583124E-01  0.16821731997E-01 -0.12845545975E+00  0.13237585380E+00  0.20485629261E-01 0.  0.
         14    1    1    2    0    0 -0.20892994488E-01  0.70196876983E-02  0.11706636692E-02  0.22071784873E-01  0.00000000000E+00 0. -1.
     999901    1    3    3    0    0  0.30064113640E-02 -0.23841419696E-01  0.12728479608E+00  0.88948236133E+00  0.88000000000E+00 0.  1.
        -11    1    4    4    0    0  0.11891979575E-01  0.21236079509E-01 -0.92149753983E-01  0.95311219336E-01  0.51100000000E-03 0. -1.
         11    1    4    4    0    0  0.59946035482E-02 -0.44143475120E-02 -0.36305705766E-01  0.37064634462E-01  0.51100000000E-03 0.  1.
</event>
<event>
 8    1  0.1108957E+005  0.1043930E+01  0.7957747E-01            NaN
         13   -1    0    0    0    0  0.00000000000E+00  0.00000000000E+00  0.74505805969E-08  0.10566000000E+00  0.10566000000E+00 0.  1.
     999900   -1    0    0    0    0 -0.00000000000E+00 -0.00000000000E+00 -0.74505805969E-08  0.93827000000E+00  0.93827000000E+00 0.  1.
     999902    2    1    2    0    0  0.46611342948E-03 -0.16549952652E-01  0.16109000035E-01  0.10208298252E+01  0.10205684269E+01 0.  0.
     999903    2    3    3    0    0  0.82613335282E-01  0.97600375487E-01  0.78062004683E-02  0.12962423725E+00  0.19766376912E-01 0.  0.
         14    1    1    2    0    0 -0.46611342948E-03  0.16549952652E-01 -0.16109000035E-01  0.23100174818E-01  0.00000000000E+00 0. -1.
     999901    1    3    3    0    0 -0.82147221853E-01 -0.11415032814E+00  0.83027995663E-02  0.89120558793E+00  0.88000000000E+00 0.  1.
        -11    1    4    4    0    0  0.26820101948E-01  0.40337951098E-01  0.10741194885E-01  0.49619578352E-01  0.51100000000E-03 0. -1.
         11    1    4    4    0    0  0.55793233334E-01  0.57262424390E-01 -0.29349944162E-02  0.80004658902E-01  0.51100000000E-03 0.  1.
</event>
<event>
 8    1  0.1108957E+005  0.1043930E+01  0.7957747E-01            NaN
         13   -1    0    0    0    0  0.00000000000E+00  0.00000000000E+00  0.74505805969E-08  0.10566000000E+00  0.10566000000E+00 0. -1.
     999900   -1    0    0    0    0 -0.00000000000E+00 -0.00000000000E+00 -0.74505805969E-08  0.93827000000E+00  0.93827000000E+00 0. -1.
     999902    2    1    2    0    0  0.12675774059E-01 -0.25754072686E-02 -0.19952355298E-01  0.10201517652E+01  0.10198746097E+01 0.  0.
     999903    2    3    3    0    0 -0.38024678689E-01 -0.76450182434E-01 -0.98667131381E-01  0.13210670194E+00  0.20651181557E-01 0.  0.
         14    1    1    2    0    0 -0.12675774059E-01  0.25754072686E-02  0.19952355298E-01  0.23778234849E-01  0.00000000000E+00 0. -1.
     999901    1    3    3    0    0  0.50700452749E-01  0.73874775165E-01  0.78714776083E-01  0.88804506321E+00  0.88000000000E+00 0.  1.
        -11    1    4    4    0    0 -0.22830529179E-01 -0.49251259059E-01 -0.76758097388E-01  0.94015882792E-01  0.51100000000E-03 0. -1.
         11    1    4    4    0    0 -0.15194149510E-01 -0.27198923375E-01 -0.21909033993E-01  0.38090819151E-01  0.51100000000E-03 0.  1.
</event>
<event>
 8    1  0.1108957E+005  0.1043930E+01  0.7957747E-01            NaN
         13   -1    0    0    0    0  0.00000000000E+00  0.00000000000E+00  0.74505805969E-08  0.10566000000E+00  0.10566000000E+00 0. -1.
     999900   -1    0    0    0    0 -0.00000000000E+00 -0.00000000000E+00 -0.74505805969E-08  0.93827000000E+00  0.93827000000E+00 0.  1.
     999902    2    1    2    0    0 -0.15510277790E-04 -0.22409457972E-01  0.77319488563E-02  0.10202241551E+01  0.10199487044E+01 0.  0.
     999903    2    3    3    0    0  0.93486988739E-01  0.65277507076E-01 -0.56239786396E-01  0.12863899148E+00  0.19598636703E-01 0.  0.
         14    1    1    2    0    0  0.15510277790E-04  0.22409457972E-01 -0.77319488563E-02  0.23705844855E-01  0.00000000000E+00 0.  1.
     999901    1    3    3    0    0 -0.93502499017E-01 -0.87686965049E-01  0.63971735253E-01  0.89158516367E+00  0.88000000000E+00 0. -1.
        -11    1    4    4    0    0  0.73229036113E-01  0.60187900981E-01 -0.45458734051E-01  0.10512769748E+00  0.51100000000E-03 0.  1.
         11    1    4    4    0    0  0.20257952626E-01  0.50896060950E-02 -0.10781052345E-01  0.23511293998E-01  0.51100000000E-03 0. -1.
</event>
<event>
 8    1  0.1108957E+005  0.1043930E+01  0.7957747E-01            NaN
         13   -1    0    0    0    0  0.00000000000E+00  0.00000000000E+00  0.74505805969E-08  0.10566000000E+00  0.10566000000E+00 0. -1.
     999900   -1    0    0    0    0 -0.00000000000E+00 -0.00000000000E+00 -0.74505805969E-08  0.93827000000E+00  0.93827000000E+00 0. -1.
     999902    2    1    2    0    0  0.70171886502E-02 -0.21208218284E-01 -0.52334331249E-02  0.10209861930E+01  0.10207283615E+01 0.  0.
     999903    2    3    3    0    0 -0.27206859978E-01  0.12319554174E+00  0.12202134705E-01  0.12839013065E+00  0.20439638532E-01 0.  0.
         14    1    1    2    0    0 -0.70171886502E-02  0.21208218284E-01  0.52334331249E-02  0.22943807042E-01  0.00000000000E+00 0.  1.
     999901    1    3    3    0    0  0.34224048628E-01 -0.14440376002E+00 -0.17435567830E-01  0.89259606230E+00  0.88000000000E+00 0. -1.
        -11    1    4    4    0    0 -0.13341191773E-01  0.98103898505E-01  0.11856672834E-01  0.99715616186E-01  0.51100000000E-03 0.  1.
         11    1    4    4    0    0 -0.13865668204E-01  0.25091643237E-01  0.34546187058E-03  0.28674514468E-01  0.51100000000E-03 0. -1.
</event>
<event>
 7    1  0.1108957E+005  0.1043930E+01  0.7957747E-01            NaN
         13   -1    0    0    0    0  0.00000000000E+00  0.00000000000E+00  0.74505805969E-08  0.10566000000E+00  0.10566000000E+00 0.  1.
     999900   -1    0    0    0    0 -0.00000000000E+00 -0.00000000000E+00 -0.74505805969E-08  0.93827000000E+00  0.93827000000E+00 0.  1.
     999902    2    1    2    0    0 -0.15375903590E-01  0.17140268308E-01 -0.77462689871E-02  0.10196357231E+01  0.10193462591E+01 0.  0.
         14    1    1    2    0    0  0.15375903590E-01 -0.17140268308E-01  0.77462689871E-02  0.24294276942E-01  0.00000000000E+00 0.  1.
     999901    1    3    3    0    0 -0.84175574109E-01 -0.69194981496E-01  0.53235316133E-01  0.88831721340E+00  0.88000000000E+00 0. -1.
        -11    1    3    3    0    0  0.29954120166E-01  0.46623625867E-01 -0.10812362982E-01  0.56463971860E-01  0.51100000000E-03 0.  1.
         11    1    3    3    0    0  0.38845550353E-01  0.39711623937E-01 -0.50169222138E-01  0.74854537797E-01  0.51100000000E-03 0. -1.
</event>
<event>
 8    1  0.1108957E+005  0.1043930E+01  0.7957747E-01            NaN
         13   -1    0    0    0    0  0.00000000000E+00  0.00000000000E+00  0.74505805969E-08  0.10566000000E+00  0.10566000000E+00 0. -1.
     999900   -1    0    0    0    0 -0.00000000000E+00 -0.00000000000E+00 -0.74505805969E-08  0.93827000000E+00  0.93827000000E+00 0.  1.
     999902    2    1    2    0    0  0.19928867972E-01 -0.84168428354E-02  0.91132105249E-02  0.10204554685E+01  0.10201854290E+01 0.  0.
     999903    2    3    3    0    0  0.12874569129E+00 -0.10132464259E-01  0.27831808587E-01  0.13355387854E+00  0.19593597110E-01 0.  0.
         14    1    1    2    0    0 -0.19928867972E-01  0.84168428354E-02 -0.91132105249E-02  0.23474531476E-01  0.00000000000E+00 0.  1.
     999901    1    3    3    0    0 -0.10881682332E+00  0.17156214236E-02 -0.18718598062E-01  0.88690158998E+00  0.88000000000E+00 0.  1.
        -11    1    4    4    0    0  0.51792327942E-01 -0.59718501028E-02  0.16623073491E-02  0.52164476553E-01  0.51100000000E-03 0. -1.
         11    1    4    4    0    0  0.76953363347E-01 -0.41606141561E-02  0.26169501238E-01  0.81389401992E-01  0.51100000000E-03 0.  1.
</event>
<event>
 8    1  0.1108957E+005  0.1043930E+01  0.7957747E-01            NaN
         13   -1    0    0    0    0  0.00000000000E+00  0.00000000000E+00  0.74505805969E-08  0.10566000000E+00  0.10566000000E+00 0. -1.
     999900   -1    0    0    0    0 -0.00000000000E+00 -0.00000000000E+00 -0.74505805969E-08  0.93827000000E+00  0.93827000000E+00 0. -1.
     999902    2    1    2    0    0 -0.22178513881E-01  0.29453026107E-01 -0.77248945005E-02  0.10062598365E+01  0.10055544825E+01 0.  0.
     999903    2    3    3    0    0 -0.46709738965E-01  0.11066972332E+00 -0.10481379044E-01  0.12217526410E+00  0.19681170618E-01 0.  0.
         14    1    1    2    0    0  0.22178513881E-01 -0.29453026107E-01  0.77248945005E-02  0.37670163523E-01  0.00000000000E+00 0.  1.
     999901    1    3    3    0    0  0.24531225084E-01 -0.81216697213E-01  0.27564845440E-02  0.88408457238E+00  0.88000000000E+00 0.  1.
        -11    1    4    4    0    0 -0.33290914391E-01  0.67590403512E-01 -0.15004379949E-01  0.76825387514E-01  0.51100000000E-03 0.  1.
         11    1    4    4    0    0 -0.13418824574E-01  0.43079319808E-01  0.45230009050E-02  0.45349876585E-01  0.51100000000E-03 0. -1.
</event>
<event>
 8    1  0.1108957E+005  0.1043930E+01  0.7957747E-01            NaN
         13   -1    0    0    0    0  0.00000000000E+00  0.00000000000E+00  0.74505805969E-08  0.10566000000E+00  0.10566000000E+00 0. -1.
     999900   -1    0    0    0    0 -0.00000000000E+00 -0.00000000000E+00 -0.74505805969E-08  0.93827000000E+00  0.93827000000E+00 0.  1.
     999902    2    1    2    0    0  0.20306543310E-01 -0.11582732298E-01  0.32533007721E-02  0.10203270478E+01  0.10200540108E+01 0.  0.
     999903    2    3    3    0    0 -0.26136747680E-01 -0.23924394096E-01 -0.12335085004E+00  0.12996874522E+00  0.20516732573E-01 0.  0.
         14    1    1    2    0    0 -0.20306543310E-01  0.11582732298E-01 -0.32533007721E-02  0.23602952243E-01  0.00000000000E+00 0. -1.
     999901    1    3    3    0    0  0.46443290990E-01  0.12341661798E-01  0.12660415081E+00  0.89035830254E+00  0.88000000000E+00 0. -1.
        -11    1    4    4    0    0  0.22196278939E-02 -0.81548623038E-02 -0.23657111402E-01  0.25126650555E-01  0.51100000000E-03 0. -1.
         11    1    4    4    0    0 -0.28356375574E-01 -0.15769531792E-01 -0.99693738640E-01  0.10484209466E+00  0.51100000000E-03 0.  1.
</event>
<event>
 8    1  0.1108957E+005  0.1043930E+01  0.7957747E-01            NaN
         13   -1    0    0    0    0  0.00000000000E+00  0.00000000000E+00  0.74505805969E-08  0.10566000000E+00  0.10566000000E+00 0.  1.
     999900   -1    0    0    0    0 -0.00000000000E+00 -0.00000000000E+00 -0.74505805969E-08  0.93827000000E+00  0.93827000000E+00 0.  1.
     999902    2    1    2    0    0  0.10201254547E-02 -0.40827592064E-02 -0.22988674957E-01  0.10205593185E+01  0.10202916905E+01 0.  0.
     999903    2    3    3    0    0 -0.10855009786E+00  0.13338950468E-01  0.65700976837E-01  0.12916995117E+00  0.20179360318E-01 0.  0.
         14    1    1    2    0    0 -0.10201254547E-02  0.40827592064E-02  0.22988674957E-01  0.23370681525E-01  0.00000000000E+00 0.  1.
     999901    1    3    3    0    0  0.10957022332E+00 -0.17421709675E-01 -0.88689651794E-01  0.89138936730E+00  0.88000000000E+00 0.  1.
        -11    1    4    4    0    0 -0.25996463862E-01  0.32498128225E-02  0.26348862978E-01  0.37160477903E-01  0.51100000000E-03 0. -1.
         11    1    4    4    0    0 -0.82553634000E-01  0.10089137646E-01  0.39352113859E-01  0.92009473269E-01  0.51100000000E-03 0.  1.
</event>
<event>
 8    1  0.1108957E+005  0.1043930E+01  0.7957747E-01            NaN
         13   -1    0    0    0    0  0.00000000000E+00  0.00000000000E+00  0.74505805969E-08  0.10566000000E+00  0.10566000000E+00 0.  1.
     999900   -1    0    0    0    0 -0.00000000000E+00 -0.00000000000E+00 -0.74505805969E-08  0.93827000000E+00  0.93827000000E+00 0.  1.
     999902    2    1    2    0    0  0.13192223498E-01  0.44824143749E-02 -0.18235730153E-01  0.10209807374E+01  0.10207227819E+01 0.  0.
     999903    2    3    3    0    0  0.10256284403E+00  0.64249853435E-01  0.48597928508E-01  0.13192168846E+00  0.19859319950E-01 0.  0.
         14    1    1    2    0    0 -0.13192223498E-01 -0.44824143749E-02  0.18235730153E-01  0.22949262595E-01  0.00000000000E+00 0.  1.
     999901    1    3    3    0    0 -0.89370620529E-01 -0.59767439060E-01 -0.66833658661E-01  0.88905904895E+00  0.88000000000E+00 0.  1.
        -11    1    4    4    0    0  0.68513521664E-01  0.43393089931E-01  0.22311564071E-01  0.84113791478E-01  0.51100000000E-03 0. -1.
         11    1    4    4    0    0  0.34049322363E-01  0.20856763504E-01  0.26286364437E-01  0.47807896979E-01  0.51100000000E-03 0.  1.
</event>
<event>
 8    1  0.1108957E+005  0.1043930E+01  0.7957747E-01            NaN
         13   -1    0    0    0    0  0.00000000000E+00  0.00000000000E+00  0.74505805969E-08  0.10566000000E+00  0.10566000000E+00 0.  1.
     999900   -1    0    0    0    0 -0.00000000000E+00 -0.00000000000E+00 -0.74505805969E-08  0.93827000000E+00  0.93827000000E+00 0. -1.
     999902    2    1    2    0    0 -0.12939620920E-01 -0.19238231520E-01  0.71091113704E-02  0.10196795813E+01  0.10193911741E+01 0.  0.
     999903    2    3    3    0    0 -0.48283108848E-01  0.36446128273E-01 -0.11213821463E+00  0.12919104416E+00  0.21348719984E-01 0.  0.
         14    1    1    2    0    0  0.12939620920E-01  0.19238231520E-01 -0.71091113704E-02  0.24250418678E-01  0.00000000000E+00 0. -1.
     999901    1    3    3    0    0  0.35343487928E-01 -0.55684359792E-01  0.11924732600E+00  0.89048853716E+00  0.88000000000E+00 0.  1.
        -11    1    4    4    0    0 -0.43398495852E-01  0.23536510816E-01 -0.95976621914E-01  0.10793132010E+00  0.51100000000E-03 0. -1.
         11    1    4    4    0    0 -0.48846129962E-02  0.12909617457E-01 -0.16161592712E-01  0.21259724057E-01  0.51100000000E-03 0.  1.
</event>
<event>
 8    1  0.1108957E+005  0.1043930E+01  0.7957747E-01            NaN
         13   -1    0    0    0    0  0.00000000000E+00  0.00000000000E+00  0.74505805969E-08  0.10566000000E+00  0.10566000000E+00 0. -1.
     999900   -1    0    0    0    0 -0.00000000000E+00 -0.00000000000E+00 -0.74505805969E-08  0.93827000000E+00  0.93827000000E+00 0.  1.
     999902    2    1    2    0    0 -0.23316496019E-01  0.48023020107E-02 -0.12359650157E-02  0.10200920324E+01  0.10198134662E+01 0.  0.
     999903    2    3    3    0    0 -0.17795496278E-01  0.10356544931E+00 -0.76889721955E-01  0.13132427213E+00  0.17074926923E-01 0.  0.
         14    1    1    2    0    0  0.23316496019E-01 -0.48023020107E-02  0.12359650157E-02  0.23837967630E-01  0.00000000000E+00 0. -1.
     999901    1    3    3    0    0 -0.55209997408E-02 -0.98763147300E-01  0.75653756939E-01  0.88876776024E+00  0.88000000000E+00 0.  1.
        -11    1    4    4    0    0 -0.16022669461E-01  0.47425626303E-01 -0.40546390752E-01  0.64421944172E-01  0.51100000000E-03 0. -1.
         11    1    4    4    0    0 -0.17728268171E-02  0.56139823008E-01 -0.36343331203E-01  0.66902327958E-01  0.51100000000E-03 0.  1.
</event>
<event>
 8    1  0.1108957E+005  0.1043930E+01  0.7957747E-01            NaN
         13   -1    0    0    0    0  0.00000000000E+00  0.00000000000E+00  0.74505805969E-08  0.10566000000E+00  0.10566000000E+00 0. -1.
     999900   -1    0    0    0    0 -0.00000000000E+00 -0.00000000000E+00 -0.74505805969E-08  0.93827000000E+00  0.93827000000E+00 0. -1.
     999902    2    1    2    0    0 -0.19119297959E-01  0.37845470251E-02  0.12539246385E-01  0.10207545162E+01  0.10204913911E+01 0.  0.
     999903    2    3    3    0    0  0.11824546729E+00 -0.34899750438E-01 -0.29351204513E-01  0.12827462090E+00  0.19821756850E-01 0.  0.
         14    1    1    2    0    0  0.19119297959E-01 -0.37845470251E-02 -0.12539246385E-01  0.23175483825E-01  0.00000000000E+00 0.  1.
     999901    1    3    3    0    0 -0.13736476525E+00  0.38684297463E-01  0.41890450897E-01  0.89247989528E+00  0.88000000000E+00 0.  1.
        -11    1    4    4    0    0  0.73954154879E-01 -0.30988406710E-01 -0.22505003564E-01  0.83284060184E-01  0.51100000000E-03 0.  1.
         11    1    4    4    0    0  0.44291312409E-01 -0.39113437274E-02 -0.68462009489E-02  0.44990560711E-01  0.51100000000E-03 0. -1.
</event>
<event>
 8    1  0.1108957E+005  0.1043930E+01  0.7957747E-01            NaN
         13   -1    0    0    0    0  0.00000000000E+00  0.00000000000E+00  0.74505805969E-08  0.10566000000E+00  0.10566000000E+00 0.  1.
     999900   -1    0    0    0    0 -0.00000000000E+00 -0.00000000000E+00 -0.74505805969E-08  0.93827000000E+00  0.93827000000E+00 0.  1.
     999902    2    1    2    0    0  0.13521866657E-01  0.17588668505E-01  0.81020230008E-02  0.10203112593E+01  0.10200378527E+01 0.  0.
     999903    2    3    3    0    0  0.12092595965E+00  0.48544117259E-01 -0.21345286524E-01  0.13275223415E+00  0.13708222995E-01 0.  0.
         14    1    1    2    0    0 -0.13521866657E-01 -0.17588668505E-01 -0.81020230008E-02  0.23618740745E-01  0.00000000000E+00 0.  1.
     999901    1    3    3    0    0 -0.10740409300E+00 -0.30955448753E-01  0.29447309524E-01  0.88755902510E+00  0.88000000000E+00 0.  1.
        -11    1    4    4    0    0  0.86090177034E-01  0.27968053614E-01 -0.13189490678E-01  0.91476523710E-01  0.51100000000E-03 0. -1.
         11    1    4    4    0    0  0.34835782619E-01  0.20576063645E-01 -0.81557958452E-02  0.41275710444E-01  0.51100000000E-03 0.  1.
</event>
<event>
 8    1  0.1108957E+005  0.1043930E+01  0.7957747E-01            NaN
         13   -1    0    0    0    0  0.00000000000E+00  0.00000000000E+00  0.74505805969E-08  0.10566000000E+00  0.10566000000E+00 0. -1.
     999900   -1    0    0    0    0 -0.00000000000E+00 -0.00000000000E+00 -0.74505805969E-08  0.93827000000E+00  0.93827000000E+00 0. -1.
     999902    2    1    2    0    0 -0.77429127134E-02 -0.15273770027E-01 -0.16627985115E-01  0.10200609691E+01  0.10197816678E+01 0.  0.
     999903    2    3    3    0    0  0.68414481892E-02 -0.62497546229E-01  0.11144397897E+00  0.12941782134E+00  0.19402663092E-01 0.  0.
         14    1    1    2    0    0  0.77429127134E-02  0.15273770027E-01  0.16627985115E-01  0.23869030921E-01  0.00000000000E+00 0. -1.
     999901    1    3    3    0    0 -0.14584360903E-01  0.47223776201E-01 -0.12807196408E+00  0.89064314773E+00  0.88000000000E+00 0. -1.
        -11    1    4    4    0    0  0.73156940200E-02 -0.27027164482E-01  0.32712190945E-01  0.43061996660E-01  0.51100000000E-03 0.  1.
         11    1    4    4    0    0 -0.47424583089E-03 -0.35470381746E-01  0.78731788025E-01  0.86355824685E-01  0.51100000000E-03 0. -1.
</event>
<event>
 8    1  0.1108957E+005  0.1043930E+01  0.7957747E-01            NaN
         13   -1    0    0    0    0  0.00000000000E+00  0.00000000000E+00  0.74505805969E-08  0.10566000000E+00  0.10566000000E+00 0.  1.
     999900   -1    0    0    0    0 -0.00000000000E+00 -0.00000000000E+00 -0.74505805969E-08  0.93827000000E+00  0.93827000000E+00 0. -1.
     999902    2    1    2    0    0 -0.10012891434E-01  0.10420289751E-01 -0.18507974647E-01  0.10204483996E+01  0.10201781955E+01 0.  0.
     999903    2    3    3    0    0  0.10080284110E-01  0.12682607864E+00 -0.30663818267E-01  0.13247215668E+00  0.20545953245E-01 0.  0.
         14    1    1    2    0    0  0.10012891434E-01 -0.10420289751E-01  0.18507974647E-01  0.23481600433E-01  0.00000000000E+00 0.  1.
     999901    1    3    3    0    0 -0.20093175544E-01 -0.11640578889E+00  0.12155843620E-01  0.88797624288E+00  0.88000000000E+00 0.  1.
        -11    1    4    4    0    0 -0.35950239009E-03  0.88887744261E-01 -0.27247520699E-01  0.92972301397E-01  0.51100000000E-03 0. -1.
         11    1    4    4    0    0  0.10439786500E-01  0.37938334379E-01 -0.34162975683E-02  0.39499855287E-01  0.51100000000E-03 0.  1.
</event>
<event>
 8    1  0.1108957E+005  0.1043930E+01  0.7957747E-01            NaN
         13   -1    0    0    0    0  0.00000000000E+00  0.00000000000E+00  0.74505805969E-08  0.10566000000E+00  0.10566000000E+00 0. -1.
     999900   -1    0    0    0    0 -0.00000000000E+00 -0.00000000000E+00 -0.74505805969E-08  0.93827000000E+00  0.93827000000E+00 0.  1.
     999902    2    1    2    0    0 -0.20883124813E-01  0.12375963537E-01  0.21739185896E-02  0.10195579813E+01  0.10192666392E+01 0.  0.
     999903    2    3    3    0    0  0.18597135267E-01 -0.25533031820E-01 -0.12333193574E+00  0.12896969123E+00  0.20606448702E-01 0.  0.
         14    1    1    2    0    0  0.20883124813E-01 -0.12375963537E-01 -0.21739185896E-02  0.24372018740E-01  0.00000000000E+00 0. -1.
     999901    1    3    3    0    0 -0.39480260080E-01  0.37908995357E-01  0.12550585433E+00  0.89058829003E+00  0.88000000000E+00 0. -1.
        -11    1    4    4    0    0  0.48864066261E-02 -0.18263645222E-01 -0.40544221302E-01  0.44738492470E-01  0.51100000000E-03 0.  1.
         11    1    4    4    0    0  0.13710728641E-01 -0.72693865980E-02 -0.82787714441E-01  0.84231198761E-01  0.51100000000E-03 0. -1.
</event>
<event>
 8    1  0.1108957E+005  0.1043930E+01  0.7957747E-01            NaN
         13   -1    0    0    0    0  0.00000000000E+00  0.00000000000E+00  0.74505805969E-08  0.10566000000E+00  0.10566000000E+00 0. -1.
     999900   -1    0    0    0    0 -0.00000000000E+00 -0.00000000000E+00 -0.74505805969E-08  0.93827000000E+00  0.93827000000E+00 0.  1.
     999902    2    1    2    0    0 -0.42472114231E-02  0.20981294518E-01 -0.21544073713E-02  0.10224150053E+01  0.10221886069E+01 0.  0.
     999903    2    3    3    0    0 -0.10933880453E+00 -0.40189690828E-01 -0.59315999599E-01  0.13221638703E+00  0.19814130505E-01 0.  0.
         14    1    1    2    0    0  0.42472114231E-02 -0.20981294518E-01  0.21544073713E-02  0.21514994670E-01  0.00000000000E+00 0. -1.
     999901    1    3    3    0    0  0.10509159310E+00  0.61170985346E-01  0.57161592228E-01  0.89019861830E+00  0.88000000000E+00 0. -1.
        -11    1    4    4    0    0 -0.53786139172E-01 -0.93455098031E-02 -0.28814984077E-01  0.61732096586E-01  0.51100000000E-03 0. -1.
         11    1    4    4    0    0 -0.55552665356E-01 -0.30844181025E-01 -0.30501015521E-01  0.70484290449E-01  0.51100000000E-03 0.  1.
</event>
<event>
 8    1  0.1108957E+005  0.1043930E+01  0.7957747E-01            NaN
         13   -1    0    0    0    0  0.00000000000E+00  0.00000000000E+00  0.74505805969E-08  0.10566000000E+00  0.10566000000E+00 0. -1.
     999900   -1    0    0    0    0 -0.00000000000E+00 -0.00000000000E+00 -0.74505805969E-08  0.93827000000E+00  0.93827000000E+00 0.  1.
     999902    2    1    2    0    0 -0.76853063489E-02  0.48818550773E-02 -0.27106490076E-01  0.10153352759E+01  0.10149325417E+01 0.  0.
     999903    2    3    3    0    0  0.38813943265E-01  0.69927758095E-01  0.91949448306E-01  0.12372579513E+00  0.21376571130E-01 0.  0.
         14    1    1    2    0    0  0.76853063489E-02 -0.48818550773E-02  0.27106490076E-01  0.28594724110E-01  0.00000000000E+00 0. -1.
     999901    1    3    3    0    0 -0.46499249614E-01 -0.65045903018E-01 -0.11905593838E+00  0.89160948076E+00  0.88000000000E+00 0.  1.
        -11    1    4    4    0    0  0.79750925827E-02  0.27746637226E-01  0.21440019588E-01  0.35964059004E-01  0.51100000000E-03 0. -1.
         11    1    4    4    0    0  0.30838850682E-01  0.42181120869E-01  0.70509428717E-01  0.87761736128E-01  0.51100000000E-03 0.  1.
</event>
<event>
 8    1  0.1108957E+005  0.1043930E+01  0.7957747E-01            NaN
         13   -1    0    0    0    0  0.00000000000E+00  0.00000000000E+00  0.74505805969E-08  0.10566000000E+00  0.10566000000E+00 0.  1.
     999900   -1    0    0    0    0 -0.00000000000E+00 -0.00000000000E+00 -0.74505805969E-08  0.93827000000E+00  0.93827000000E+00 0.  1.
     999902    2    1    2    0    0 -0.22100951663E-01 -0.84395982963E-02 -0.63193183889E-02  0.10194430102E+01  0.10191488794E+01 0.  0.
     999903    2    3    3    0    0  0.36157227934E-01 -0.84344499144E-01 -0.90159244914E-01  0.13029470833E+00  0.20656280111E-01 0.  0.
         14    1    1    2    0    0  0.22100951663E-01  0.84395982963E-02  0.63193183889E-02  0.24486989785E-01  0.00000000000E+00 0.  1.
     999901    1    3    3    0    0 -0.58258179597E-01  0.75904900848E-01  0.83839926525E-01  0.88914830188E+00  0.88000000000E+00 0.  1.
        -11    1    4    4    0    0  0.29086241174E-01 -0.62381717269E-01 -0.54392682934E-01  0.87728633597E-01  0.51100000000E-03 0.  1.
         11    1    4    4    0    0  0.70709867605E-02 -0.21962781876E-01 -0.35766561980E-01  0.42566074735E-01  0.51100000000E-03 0. -1.
</event>
<event>
 7    1  0.1108957E+005  0.1043930E+01  0.7957747E-01            NaN
         13   -1    0    0    0    0  0.00000000000E+00  0.00000000000E+00  0.74505805969E-08  0.10566000000E+00  0.10566000000E+00 0. -1.
     999900   -1    0    0    0    0 -0.00000000000E+00 -0.00000000000E+00 -0.74505805969E-08  0.93827000000E+00  0.93827000000E+00 0. -1.
     999902    2    1    2    0    0 -0.44888375212E-02 -0.30121510457E-02  0.22968272833E-01  0.10203341471E+01  0.10200612763E+01 0.  0.
         14    1    1    2    0    0  0.44888375212E-02  0.30121510457E-02 -0.22968272833E-01  0.23595852880E-01  0.00000000000E+00 0.  1.
     999901    1    3    3    0    0 -0.24114945880E-01 -0.64948330746E-02 -0.10879310182E+00  0.88705109913E+00  0.88000000000E+00 0. -1.
        -11    1    3    3    0    0  0.12396096188E-01  0.12658580632E-02  0.85554184555E-01  0.86458343803E-01  0.51100000000E-03 0. -1.
         11    1    3    3    0    0  0.72300121703E-02  0.22168239657E-02  0.46207190094E-01  0.46824704183E-01  0.51100000000E-03 0.  1.
</event>
<event>
 8    1  0.1108957E+005  0.1043930E+01  0.7957747E-01            NaN
         13   -1    0    0    0    0  0.00000000000E+00  0.00000000000E+00  0.74505805969E-08  0.10566000000E+00  0.10566000000E+00 0.  1.
     999900   -1    0    0    0    0 -0.00000000000E+00 -0.00000000000E+00 -0.74505805969E-08  0.93827000000E+00  0.93827000000E+00 0.  1.
     999902    2    1    2    0    0  0.15400905936E-02 -0.12389429291E-01 -0.21406758081E-01  0.10191485729E+01  0.10188472381E+01 0.  0.
     999903    2    3    3    0    0  0.70396448909E-01  0.53216111278E-01 -0.94624067649E-01  0.13100102917E+00  0.20492460699E-01 0.  0.
         14    1    1    2    0    0 -0.15400905936E-02  0.12389429291E-01  0.21406758081E-01  0.24781427092E-01  0.00000000000E+00 0.  1.
     999901    1    3    3    0    0 -0.68856358316E-01 -0.65605540569E-01  0.73217309568E-01  0.88814754374E+00  0.88000000000E+00 0. -1.
        -11    1    4    4    0    0  0.47017973168E-01  0.45194030758E-01 -0.61273483658E-01  0.89486821027E-01  0.51100000000E-03 0. -1.
         11    1    4    4    0    0  0.23378475741E-01  0.80220805206E-02 -0.33350583991E-01  0.41514208139E-01  0.51100000000E-03 0.  1.
</event>
<event>
 8    1  0.1108957E+005  0.1043930E+01  0.7957747E-01            NaN
         13   -1    0    0    0    0  0.00000000000E+00  0.00000000000E+00  0.74505805969E-08  0.10566000000E+00  0.10566000000E+00 0. -1.
     999900   -1    0    0    0    0 -0.00000000000E+00 -0.00000000000E+00 -0.74505805969E-08  0.93827000000E+00  0.93827000000E+00 0. -1.
     999902    2    1    2    0    0  0.14681365911E-01 -0.20185257970E-01 -0.23920500265E-02  0.10188559288E+01  0.10185473453E+01 0.  0.
     999903    2    3    3    0    0 -0.30843528870E-02 -0.11181243086E+00  0.66938808629E-01  0.13120851705E+00  0.14944494631E-01 0.  0.
         14    1    1    2    0    0 -0.14681365911E-01  0.20185257970E-01  0.23920500265E-02  0.25074071222E-01  0.00000000000E+00 0.  1.
     999901    1    3    3    0    0  0.17765718798E-01  0.91627172889E-01 -0.69330858656E-01  0.88764741172E+00  0.88000000000E+00 0. -1.
        -11    1    4    4    0    0  0.23145743071E-02 -0.63928320080E-01  0.45275530605E-01  0.78372968268E-01  0.51100000000E-03 0. -1.
         11    1    4    4    0    0 -0.53989271941E-02 -0.47884110779E-01  0.21663278024E-01  0.52835548787E-01  0.51100000000E-03 0.  1.
</event>
<event>
 8    1  0.1108957E+005  0.1043930E+01  0.7957747E-01            NaN
         13   -1    0    0    0    0  0.00000000000E+00  0.00000000000E+00  0.74505805969E-08  0.10566000000E+00  0.10566000000E+00 0.  1.
     999900   -1    0    0    0    0 -0.00000000000E+00 -0.00000000000E+00 -0.74505805969E-08  0.93827000000E+00  0.93827000000E+00 0.  1.
     999902    2    1    2    0    0  0.15570802180E-02  0.20217163588E-01 -0.13289270675E-01  0.10196861777E+01  0.10193979293E+01 0.  0.
     999903    2    3    3    0    0  0.78926637267E-01  0.88266427570E-01  0.52707809600E-01  0.13121987828E+00  0.20497974446E-01 0.  0.
         14    1    1    2    0    0 -0.15570802180E-02 -0.20217163588E-01  0.13289270675E-01  0.24243822252E-01  0.00000000000E+00 0.  1.
     999901    1    3    3    0    0 -0.77369557049E-01 -0.68049263982E-01 -0.65997080275E-01  0.88846629947E+00  0.88000000000E+00 0.  1.
        -11    1    4    4    0    0  0.19006832611E-01  0.33985781532E-01  0.12344403867E-01  0.40852643245E-01  0.51100000000E-03 0.  1.
         11    1    4    4    0    0  0.59919804656E-01  0.54280646038E-01  0.40363405733E-01  0.90367235034E-01  0.51100000000E-03 0. -1.
</event>
<event>
 8    1  0.1108957E+005  0.1043930E+01  0.7957747E-01            NaN
         13   -1    0    0    0    0  0.00000000000E+00  0.00000000000E+00  0.74505805969E-08  0.10566000000E+00  0.10566000000E+00 0. -1.
     999900   -1    0    0    0    0 -0.00000000000E+00 -0.00000000000E+00 -0.74505805969E-08  0.93827000000E+00  0.93827000000E+00 0. -1.
     999902    2    1    2    0    0  0.21884008288E-01  0.23331929825E-03  0.81611011451E-02  0.10205726066E+01  0.10203052864E+01 0.  0.
     999903    2    3    3    0    0  0.43052382014E-01 -0.12119553190E+00 -0.19105255567E-01  0.13156387760E+00  0.20054389764E-01 0.  0.
         14    1    1    2    0    0 -0.21884008288E-01 -0.23331929825E-03 -0.81611011451E-02  0.23357393445E-01  0.00000000000E+00 0.  1.
     999901    1    3    3    0    0 -0.21168373726E-01  0.12142885120E+00  0.27266356712E-01  0.88900872896E+00  0.88000000000E+00 0. -1.
        -11    1    4    4    0    0  0.32905273116E-01 -0.66457244967E-01 -0.62238586969E-02  0.74419889448E-01  0.51100000000E-03 0. -1.
         11    1    4    4    0    0  0.10147108899E-01 -0.54738286935E-01 -0.12881396870E-01  0.57143988152E-01  0.51100000000E-03 0.  1.
</event>
<event>
 8    1  0.1108957E+005  0.1043930E+01  0.7957747E-01            NaN
         13   -1    0    0    0    0  0.00000000000E+00  0.00000000000E+00  0.74505805969E-08  0.10566000000E+00  0.10566000000E+00 0.  1.
     999900   -1    0    0    0    0 -0.00000000000E+00 -0.00000000000E+00 -0.74505805969E-08  0.93827000000E+00  0.93827000000E+00 0. -1.
     999902    2    1    2    0    0  0.21781920841E-01  0.36591525929E-02 -0.91821399488E-02  0.10200102766E+01  0.10197297736E+01 0.  0.
     999903    2    3    3    0    0 -0.40319104648E-01  0.96866005496E-01  0.72670798329E-01  0.12914330657E+00  0.19705214587E-01 0.  0.
         14    1    1    2    0    0 -0.21781920841E-01 -0.36591525929E-02  0.91821399488E-02  0.23919723394E-01  0.00000000000E+00 0. -1.
     999901    1    3    3    0    0  0.62101025489E-01 -0.93206852903E-01 -0.81852938278E-01  0.89086697004E+00  0.88000000000E+00 0. -1.
        -11    1    4    4    0    0 -0.11862020106E-01  0.15847501632E-01  0.21279591710E-01  0.29067730790E-01  0.51100000000E-03 0.  1.
         11    1    4    4    0    0 -0.28457084542E-01  0.81018503864E-01  0.51391206620E-01  0.10007557578E+00  0.51100000000E-03 0. -1.
</event>
<event>
 8    1  0.1108957E+005  0.1043930E+01  0.7957747E-01            NaN
         13   -1    0    0    0    0  0.00000000000E+00  0.00000000000E+00  0.74505805969E-08  0.10566000000E+00  0.10566000000E+00 0.  1.
     999900   -1    0    0    0    0 -0.00000000000E+00 -0.00000000000E+00 -0.74505805969E-08  0.93827000000E+00  0.93827000000E+00 0. -1.
     999902    2    1    2    0    0 -0.21397895723E-01 -0.24383381465E-02  0.13022472327E-01  0.10187625564E+01  0.10184516415E+01 0.  0.
     999903    2    3    3    0    0  0.64678417513E-01  0.18412211532E-01  0.10861350952E+00  0.12916628640E+00  0.19097849810E-01 0.  0.
         14    1    1    2    0    0  0.21397895723E-01  0.24383381465E-02 -0.13022472327E-01  0.25167443649E-01  0.00000000000E+00 0. -1.
     999901    1    3    3    0    0 -0.86076313237E-01 -0.20850549679E-01 -0.95591037188E-01  0.88959626995E+00  0.88000000000E+00 0. -1.
        -11    1    4    4    0    0  0.30563749106E-01 -0.10202096805E-02  0.44961754785E-01  0.54378342210E-01  0.51100000000E-03 0. -1.
         11    1    4    4    0    0  0.34114668408E-01  0.19432421213E-01  0.63651754731E-01  0.74787944189E-01  0.51100000000E-03 0.  1.
</event>
<event>
 8    1  0.1108957E+005  0.1043930E+01  0.7957747E-01            NaN
         13   -1    0    0    0    0  0.00000000000E+00  0.00000000000E+00  0.74505805969E-08  0.10566000000E+00  0.10566000000E+00 0. -1.
     999900   -1    0    0    0    0 -0.00000000000E+00 -0.00000000000E+00 -0.74505805969E-08  0.93827000000E+00  0.93827000000E+00 0.  1.
     999902    2    1    2    0    0  0.18282508319E-01  0.11594955357E-01 -0.11130598686E-01  0.10195869655E+01  0.10192963244E+01 0.  0.
     999903    2    3    3    0    0  0.21839500470E-01 -0.12576291402E+00  0.52239062177E-02  0.12877424318E+00  0.16193893480E-01 0.  0.
         14    1    1    2    0    0 -0.18282508319E-01 -0.11594955357E-01  0.11130598686E-01  0.24343034472E-01  0.00000000000E+00 0. -1.
     999901    1    3    3    0    0 -0.35569921505E-02  0.13735786938E+00 -0.16354504904E-01  0.89081272235E+00  0.88000000000E+00 0. -1.
        -11    1    4    4    0    0  0.79331353453E-02 -0.47240024298E-01  0.98009860328E-02  0.48896574321E-01  0.51100000000E-03 0.  1.
         11    1    4    4    0    0  0.13906365125E-01 -0.78522889722E-01 -0.45770798151E-02  0.79877668856E-01  0.51100000000E-03 0. -1.
</event>
<event>
 8    1  0.1108957E+005  0.1043930E+01  0.7957747E-01            NaN
         13   -1    0    0    0    0  0.00000000000E+00  0.00000000000E+00  0.74505805969E-08  0.10566000000E+00  0.10566000000E+00 0. -1.
     999900   -1    0    0    0    0 -0.00000000000E+00 -0.00000000000E+00 -0.74505805969E-08  0.93827000000E+00  0.93827000000E+00 0. -1.
     999902    2    1    2    0    0 -0.15596391696E-01  0.15570470302E-01  0.60935882156E-02  0.10210647688E+01  0.10208087203E+01 0.  0.
     999903    2    3    3    0    0  0.81369329802E-01 -0.36988588703E-01  0.92167807124E-01  0.13001281917E+00  0.20476937047E-01 0.  0.
         14    1    1    2    0    0  0.15596391696E-01 -0.15570470302E-01 -0.60935882156E-02  0.22865231175E-01  0.00000000000E+00 0.  1.
     999901    1    3    3    0    0 -0.96965721498E-01  0.52559059005E-01 -0.86074218909E-01  0.89105194966E+00  0.88000000000E+00 0. -1.
        -11    1    4    4    0    0  0.30527671142E-01 -0.11578515076E-01  0.20556714967E-01  0.38585494268E-01  0.51100000000E-03 0.  1.
         11    1    4    4    0    0  0.50841658660E-01 -0.25410073628E-01  0.71611092157E-01  0.91427324898E-01  0.51100000000E-03 0. -1.
</event>
<event>
 8    1  0.1108957E+005  0.1043930E+01  0.7957747E-01            NaN
         13   -1    0    0    0    0  0.00000000000E+00  0.00000000000E+00  0.74505805969E-08  0.10566000000E+00  0.10566000000E+00 0. -1.
     999900   -1    0    0    0    0 -0.00000000000E+00 -0.00000000000E+00 -0.74505805969E-08  0.93827000000E+00  0.93827000000E+00 0. -1.
     999902    2    1    2    0    0  0.61428281576E-02  0.19035870230E-01  0.56122543458E-02  0.10231551091E+01  0.10229441731E+01 0.  0.
     999903    2    3    3    0    0 -0.98037690109E-01 -0.46052769333E-01 -0.71430113747E-01  0.13128873017E+00  0.20055504816E-01 0.  0.
         14    1    1    2    0    0 -0.61428281576E-02 -0.19035870230E-01 -0.56122543458E-02  0.20774890903E-01  0.00000000000E+00 0. -1.
     999901    1    3    3    0    0  0.10418051827E+00  0.65088639564E-01  0.77042368092E-01  0.89186637893E+00  0.88000000000E+00 0.  1.
        -11    1    4    4    0    0 -0.47377962454E-01 -0.20877288786E-01 -0.46017005998E-01  0.69270184606E-01  0.51100000000E-03 0.  1.
         11    1    4    4    0    0 -0.50659727655E-01 -0.25175480547E-01 -0.25413107749E-01  0.62018545560E-01  0.51100000000E-03 0. -1.
</event>
<event>
 8    1  0.1108957E+005  0.1043930E+01  0.7957747E-01            NaN
         13   -1    0    0    0    0  0.00000000000E+00  0.00000000000E+00  0.74505805969E-08  0.10566000000E+00  0.10566000000E+00 0. -1.
     999900   -1    0    0    0    0 -0.00000000000E+00 -0.00000000000E+00 -0.74505805969E-08  0.93827000000E+00  0.93827000000E+00 0. -1.
     999902    2    1    2    0    0 -0.77240847435E-03  0.14906803956E-01  0.19172339454E-01  0.10196320985E+01  0.10193425470E+01 0.  0.
     999903    2    3    3    0    0 -0.11203988186E+00  0.33930338234E-01  0.56653810054E-01  0.13163029321E+00  0.20314450940E-01 0.  0.
         14    1    1    2    0    0  0.77240847435E-03 -0.14906803956E-01 -0.19172339454E-01  0.24297901538E-01  0.00000000000E+00 0.  1.
     999901    1    3    3    0    0  0.11126747339E+00 -0.19023534278E-01 -0.37481470600E-01  0.88800180525E+00  0.88000000000E+00 0.  1.
        -11    1    4    4    0    0 -0.10863055227E+00  0.32087696056E-01  0.49790458015E-01  0.12373183889E+00  0.51100000000E-03 0. -1.
         11    1    4    4    0    0 -0.34093295922E-02  0.18426421780E-02  0.68633520393E-02  0.78984543221E-02  0.51100000000E-03 0.  1.
</event>
<event>
 8    1  0.1108957E+005  0.1043930E+01  0.7957747E-01            NaN
         13   -1    0    0    0    0  0.00000000000E+00  0.00000000000E+00  0.74505805969E-08  0.10566000000E+00  0.10566000000E+00 0. -1.
     999900   -1    0    0    0    0 -0.00000000000E+00 -0.00000000000E+00 -0.74505805969E-08  0.93827000000E+00  0.93827000000E+00 0.  1.
     999902    2    1    2    0    0  0.35126556205E-02 -0.21611896787E-01 -0.93372223963E-02  0.10201267113E+01  0.10198489646E+01 0.  0.
     999903    2    3    3    0    0  0.83755565594E-02 -0.86155422000E-01 -0.99280010886E-01  0.13317732170E+00  0.19666513848E-01 0.  0.
         14    1    1    2    0    0 -0.35126556205E-02  0.21611896787E-01  0.93372223963E-02  0.23803288729E-01  0.00000000000E+00 0. -1.
     999901    1    3    3    0    0 -0.48629009389E-02  0.64543525213E-01  0.89942788489E-01  0.88694938957E+00  0.88000000000E+00 0. -1.
        -11    1    4    4    0    0  0.81466443898E-02 -0.13152109954E-01 -0.21618323354E-01  0.26588697536E-01  0.51100000000E-03 0. -1.
         11    1    4    4    0    0  0.22891216951E-03 -0.73003312046E-01 -0.77661687532E-01  0.10658862417E+00  0.51100000000E-03 0.  1.
</event>
<event>
 8    1  0.1108957E+005  0.1043930E+01  0.7957747E-01            NaN
         13   -1    0    0    0    0  0.00000000000E+00  0.00000000000E+00  0.74505805969E-08  0.10566000000E+00  0.10566000000E+00 0.  1.
     999900   -1    0    0    0    0 -0.00000000000E+00 -0.00000000000E+00 -0.74505805969E-08  0.93827000000E+00  0.93827000000E+00 0. -1.
     999902    2    1    2    0    0  0.10222306144E-01  0.12964498604E-01 -0.12303438262E-01  0.10233399937E+01  0.10231328332E+01 0.  0.
     999903    2    3    3    0    0 -0.81647457424E-01  0.41762336792E-01  0.92691377683E-01  0.13188428513E+00  0.19783151646E-01 0.  0.
         14    1    1    2    0    0 -0.10222306144E-01 -0.12964498604E-01  0.12303438262E-01  0.20590006314E-01  0.00000000000E+00 0.  1.
     999901    1    3    3    0    0  0.91869763569E-01 -0.28797838188E-01 -0.10499481595E+00  0.89145570856E+00  0.88000000000E+00 0. -1.
        -11    1    4    4    0    0 -0.32072463498E-01  0.65944709392E-02  0.37449236093E-01  0.49747727252E-01  0.51100000000E-03 0.  1.
         11    1    4    4    0    0 -0.49574993926E-01  0.35167865853E-01  0.55242141591E-01  0.82136557877E-01  0.51100000000E-03 0. -1.
</event>
<event>
 8    1  0.1108957E+005  0.1043930E+01  0.7957747E-01            NaN
         13   -1    0    0    0    0  0.00000000000E+00  0.00000000000E+00  0.74505805969E-08  0.10566000000E+00  0.10566000000E+00 0.  1.
     999900   -1    0    0    0    0 -0.00000000000E+00 -0.00000000000E+00 -0.74505805969E-08  0.93827000000E+00  0.93827000000E+00 0. -1.
     999902    2    1    2    0    0  0.20680706733E-01  0.26035504881E-02 -0.11115810848E-01  0.10203073127E+01  0.10200338136E+01 0.  0.
     999903    2    3    3    0    0  0.22448459117E-01 -0.12613816144E+00 -0.17379124555E-01  0.13091607005E+00  0.20547854833E-01 0.  0.
         14    1    1    2    0    0 -0.20680706733E-01 -0.26035504881E-02  0.11115810848E-01  0.23622687336E-01  0.00000000000E+00 0. -1.
     999901    1    3    3    0    0 -0.17677523837E-02  0.12874171193E+00  0.62633137064E-02  0.88939124261E+00  0.88000000000E+00 0. -1.
        -11    1    4    4    0    0  0.34123138512E-02 -0.76623258930E-01 -0.10889188316E-01  0.77470015090E-01  0.51100000000E-03 0.  1.
         11    1    4    4    0    0  0.19036145266E-01 -0.49514902513E-01 -0.64899362391E-02  0.53446054961E-01  0.51100000000E-03 0. -1.
</event>
<event>
 8    1  0.1108957E+005  0.1043930E+01  0.7957747E-01            NaN
         13   -1    0    0    0    0  0.00000000000E+00  0.00000000000E+00  0.74505805969E-08  0.10566000000E+00  0.10566000000E+00 0. -1.
     999900   -1    0    0    0    0 -0.00000000000E+00 -0.00000000000E+00 -0.74505805969E-08  0.93827000000E+00  0.93827000000E+00 0.  1.
     999902    2    1    2    0    0  0.20886380008E-01 -0.13643985520E-01 -0.10377710552E-01  0.10169097097E+01  0.10165506685E+01 0.  0.
     999903    2    3    3    0    0  0.66672001429E-01 -0.10631304910E+00 -0.29118376142E-01  0.13066195033E+00  0.21841365612E-01 0.  0.
         14    1    1    2    0    0 -0.20886380008E-01  0.13643985520E-01  0.10377710552E-01  0.27020290283E-01  0.00000000000E+00 0.  1.
     999901    1    3    3    0    0 -0.45785621421E-01  0.92669063578E-01  0.18740665591E-01  0.88624775939E+00  0.88000000000E+00 0. -1.
        -11    1    4    4    0    0  0.16648497884E-01 -0.13140776931E-01 -0.10227249843E-02  0.21240517591E-01  0.51100000000E-03 0. -1.
         11    1    4    4    0    0  0.50023503545E-01 -0.93172272166E-01 -0.28095651158E-01  0.10942143274E+00  0.51100000000E-03 0.  1.
</event>
<event>
 8    1  0.1108957E+005  0.1043930E+01  0.7957747E-01            NaN
         13   -1    0    0    0    0  0.00000000000E+00  0.00000000000E+00  0.74505805969E-08  0.10566000000E+00  0.10566000000E+00 0.  1.
     999900   -1    0    0    0    0 -0.00000000000E+00 -0.00000000000E+00 -0.74505805969E-08  0.93827000000E+00  0.93827000000E+00 0.  1.
     999902    2    1    2    0    0  0.34117138204E-02  0.10887728233E-01 -0.14504811932E-01  0.10254754074E+01  0.10253093383E+01 0.  0.
     999903    2    3    3    0    0 -0.17601195441E-01  0.82944381012E-01 -0.10659488545E+00  0.13749213890E+00  0.18762895146E-01 0.  0.
         14    1    1    2    0    0 -0.34117138204E-02 -0.10887728233E-01  0.14504811932E-01  0.18454592557E-01  0.00000000000E+00 0.  1.
     999901    1    3    3    0    0  0.21012909261E-01 -0.72056652780E-01  0.92090073515E-01  0.88798326854E+00  0.88000000000E+00 0. -1.
        -11    1    4    4    0    0 -0.14525057579E-02  0.35854908967E-01 -0.55987562553E-01  0.66502274785E-01  0.51100000000E-03 0. -1.
         11    1    4    4    0    0 -0.16148689683E-01  0.47089472045E-01 -0.50607322895E-01  0.70989864118E-01  0.51100000000E-03 0.  1.
</event>
<event>
 8    1  0.1108957E+005  0.1043930E+01  0.7957747E-01            NaN
         13   -1    0    0    0    0  0.00000000000E+00  0.00000000000E+00  0.74505805969E-08  0.10566000000E+00  0.10566000000E+00 0.  1.
     999900   -1    0    0    0    0 -0.00000000000E+00 -0.00000000000E+00 -0.74505805969E-08  0.93827000000E+00  0.93827000000E+00 0. -1.
     999902    2    1    2    0    0 -0.14772322674E-01 -0.15119386178E-01  0.94388950213E-02  0.10207802679E+01  0.10205177339E+01 0.  0.
     999903    2    3    3    0    0  0.25588901223E-02 -0.65506052930E-01  0.11377617494E+00  0.13301596638E+00  0.21228246287E-01 0.  0.
         14    1    1    2    0    0  0.14772322674E-01  0.15119386178E-01 -0.94388950213E-02  0.23149732068E-01  0.00000000000E+00 0. -1.
     999901    1    3    3    0    0 -0.17331212796E-01  0.50386666753E-01 -0.10433727992E+00  0.88776430155E+00  0.88000000000E+00 0. -1.
        -11    1    4    4    0    0 -0.60491855795E-02 -0.28794115861E-01  0.65090051880E-01  0.71432973682E-01  0.51100000000E-03 0.  1.
         11    1    4    4    0    0  0.86080757018E-02 -0.36711937069E-01  0.48686123058E-01  0.61582992701E-01  0.51100000000E-03 0. -1.
</event>
<event>
 8    1  0.1108957E+005  0.1043930E+01  0.7957747E-01            NaN
         13   -1    0    0    0    0  0.00000000000E+00  0.00000000000E+00  0.74505805969E-08  0.10566000000E+00  0.10566000000E+00 0. -1.
     999900   -1    0    0    0    0 -0.00000000000E+00 -0.00000000000E+00 -0.74505805969E-08  0.93827000000E+00  0.93827000000E+00 0.  1.
     999902    2    1    2    0    0  0.97769666741E-02  0.18172618686E-01 -0.10317557037E-01  0.10208586947E+01  0.10205979567E+01 0.  0.
     999903    2    3    3    0    0 -0.24339326612E-01 -0.91644801439E-01  0.83998891124E-01  0.12837935056E+00  0.20839181614E-01 0.  0.
         14    1    1    2    0    0 -0.97769666741E-02 -0.18172618686E-01  0.10317557037E-01  0.23071305348E-01  0.00000000000E+00 0. -1.
     999901    1    3    3    0    0  0.34116293286E-01  0.10981742013E+00 -0.94316448161E-01  0.89247934409E+00  0.88000000000E+00 0.  1.
        -11    1    4    4    0    0 -0.18932168624E-01 -0.34318779714E-01  0.29085360198E-01  0.48810090645E-01  0.51100000000E-03 0.  1.
         11    1    4    4    0    0 -0.54071579878E-02 -0.57326021725E-01  0.54913530926E-01  0.79569259919E-01  0.51100000000E-03 0. -1.
</event>
<event>
 8    1  0.1108957E+005  0.1043930E+01  0.7957747E-01            NaN
         13   -1    0    0    0    0  0.00000000000E+00  0.00000000000E+00  0.74505805969E-08  0.10566000000E+00  0.10566000000E+00 0.  1.
     999900   -1    0    0    0    0 -0.00000000000E+00 -0.00000000000E+00 -0.74505805969E-08  0.93827000000E+00  0.93827000000E+00 0. -1.
     999902    2    1    2    0    0 -0.18275052446E-01  0.12772602005E-01  0.53385181279E-02  0.10210036684E+01  0.10207462340E+01 0.  0.
     999903    2    3    3    0    0 -0.10414076894E+00 -0.10158470135E-01 -0.78826548960E-01  0.13253165769E+00  0.20062930917E-01 0.  0.
         14    1    1    2    0    0  0.18275052446E-01 -0.12772602005E-01 -0.53385181279E-02  0.22926331579E-01  0.00000000000E+00 0. -1.
     999901    1    3    3    0    0  0.85865716497E-01  0.22931072140E-01  0.84165067088E-01  0.88847201073E+00  0.88000000000E+00 0.  1.
        -11    1    4    4    0    0 -0.98995095332E-01 -0.13159280204E-01 -0.70346651942E-01  0.12215608096E+00  0.51100000000E-03 0. -1.
         11    1    4    4    0    0 -0.51456736107E-02  0.30008100683E-02 -0.84798970180E-02  0.10375576727E-01  0.51100000000E-03 0.  1.
</event>
<event>
 8    1  0.1108957E+005  0.1043930E+01  0.7957747E-01            NaN
         13   -1    0    0    0    0  0.00000000000E+00  0.00000000000E+00  0.74505805969E-08  0.10566000000E+00  0.10566000000E+00 0. -1.
     999900   -1    0    0    0    0 -0.00000000000E+00 -0.00000000000E+00 -0.74505805969E-08  0.93827000000E+00  0.93827000000E+00 0. -1.
     999902    2    1    2    0    0 -0.49605602878E-02  0.19679178645E-01 -0.13212756435E-01  0.10197131843E+01  0.10194255853E+01 0.  0.
     999903    2    3    3    0    0 -0.11650464026E-01 -0.12119147517E+00  0.31013810696E-01  0.12738741129E+00  0.21037802519E-01 0.  0.
         14    1    1    2    0    0  0.49605602878E-02 -0.19679178645E-01  0.13212756435E-01  0.24216815709E-01  0.00000000000E+00 0. -1.
     999901    1    3    3    0    0  0.66899037387E-02  0.14087065382E+00 -0.44226567131E-01  0.89232577300E+00  0.88000000000E+00 0.  1.
        -11    1    4    4    0    0 -0.90718210189E-02 -0.74914169396E-01  0.87591944240E-02  0.75969831650E-01  0.51100000000E-03 0.  1.
         11    1    4    4    0    0 -0.25786430075E-02 -0.46277305777E-01  0.22254616272E-01  0.51417579641E-01  0.51100000000E-03 0. -1.
</event>
<event>
 8    1  0.1108957E+005  0.1043930E+01  0.7957747E-01            NaN
         13   -1    0    0    0    0  0.00000000000E+00  0.00000000000E+00  0.74505805969E-08  0.10566000000E+00  0.10566000000E+00 0.  1.
     999900   -1    0    0    0    0 -0.00000000000E+00 -0.00000000000E+00 -0.74505805969E-08  0.93827000000E+00  0.93827000000E+00 0. -1.
     999902    2    1    2    0    0  0.93152340592E-02 -0.17095638558E-01 -0.15258420356E-01  0.10191943206E+01  0.10188941109E+01 0.  0.
     999903    2    3    3    0    0  0.78276182153E-01 -0.10234781974E+00  0.19164550173E-01  0.13172122938E+00  0.19518334663E-01 0.  0.
         14    1    1    2    0    0 -0.93152340592E-02  0.17095638558E-01  0.15258420356E-01  0.24735679393E-01  0.00000000000E+00 0.  1.
     999901    1    3    3    0    0 -0.68960948093E-01  0.85252181179E-01 -0.34422970529E-01  0.88747309123E+00  0.88000000000E+00 0. -1.
        -11    1    4    4    0    0  0.37188729053E-01 -0.34049596519E-01  0.10885475646E-01  0.51586154079E-01  0.51100000000E-03 0.  1.
         11    1    4    4    0    0  0.41087453100E-01 -0.68298223218E-01  0.82790745274E-02  0.80135075297E-01  0.51100000000E-03 0. -1.
</event>
<event>
 8    1  0.1108957E+005  0.1043930E+01  0.7957747E-01            NaN
         13   -1    0    0    0    0  0.00000000000E+00  0.00000000000E+00  0.74505805969E-08  0.10566000000E+00  0.10566000000E+00 0. -1.
     999900   -1    0    0    0    0 -0.00000000000E+00 -0.00000000000E+00 -0.74505805969E-08  0.93827000000E+00  0.93827000000E+00 0. -1.
     999902    2    1    2    0    0 -0.53356547557E-03 -0.23692292449E-01 -0.28172751901E-03  0.10202300257E+01  0.10199547129E+01 0.  0.
     999903    2    3    3    0    0 -0.12415799932E+00 -0.12088121352E-01  0.34104533434E-01  0.13084817719E+00  0.19919708868E-01 0.  0.
         14    1    1    2    0    0  0.53356547557E-03  0.23692292449E-01  0.28172751901E-03  0.23699974346E-01  0.00000000000E+00 0.  1.
     999901    1    3    3    0    0  0.12362443384E+00 -0.11604171097E-01 -0.34386260953E-01  0.88938184846E+00  0.88000000000E+00 0. -1.
        -11    1    4    4    0    0 -0.74109974867E-01 -0.10994583216E-01  0.29690827799E-01  0.80591411523E-01  0.51100000000E-03 0.  1.
         11    1    4    4    0    0 -0.50048024452E-01 -0.10935381360E-02  0.44137056342E-02  0.50256765670E-01  0.51100000000E-03 0. -1.
</event>
<event>
 8    1  0.1108957E+005  0.1043930E+01  0.7957747E-01            NaN
         13   -1    0    0    0    0  0.00000000000E+00  0.00000000000E+00  0.74505805969E-08  0.10566000000E+00  0.10566000000E+00 0. -1.
     999900   -1    0    0    0    0 -0.00000000000E+00 -0.00000000000E+00 -0.74505805969E-08  0.93827000000E+00  0.93827000000E+00 0. -1.
     999902    2    1    2    0    0  0.18234737632E-01 -0.86058498712E-02  0.12191841644E-01  0.10203671625E+01  0.10200950637E+01 0.  0.
     999903    2    3    3    0    0 -0.79274017361E-02  0.95338353437E-01 -0.83626149324E-01  0.12870021664E+00  0.20449146153E-01 0.  0.
         14    1    1    2    0    0 -0.18234737632E-01  0.86058498712E-02 -0.12191841644E-01  0.23562837503E-01  0.00000000000E+00 0.  1.
     999901    1    3    3    0    0  0.26162139368E-01 -0.10394420331E+00  0.95817990969E-01  0.89166694586E+00  0.88000000000E+00 0.  1.
        -11    1    4    4    0    0 -0.64779362923E-02  0.24850237258E-01 -0.33400394230E-01  0.42134847883E-01  0.51100000000E-03 0.  1.
         11    1    4    4    0    0 -0.14494654438E-02  0.70488116179E-01 -0.50225755094E-01  0.86565368758E-01  0.51100000000E-03 0. -1.
</event>
<event>
 8    1  0.1108957E+005  0.1043930E+01  0.7957747E-01            NaN
         13   -1    0    0    0    0  0.00000000000E+00  0.00000000000E+00  0.74505805969E-08  0.10566000000E+00  0.10566000000E+00 0. -1.
     999900   -1    0    0    0    0 -0.00000000000E+00 -0.00000000000E+00 -0.74505805969E-08  0.93827000000E+00  0.93827000000E+00 0. -1.
     999902    2    1    2    0    0  0.14743127538E-01  0.16487956112E-01  0.57344539985E-02  0.10210805696E+01  0.10208248788E+01 0.  0.
     999903    2    3    3    0    0  0.55410767000E-01 -0.10820085409E+00 -0.41903255433E-01  0.13008645760E+00  0.19718663985E-01 0.  0.
         14    1    1    2    0    0 -0.14743127538E-01 -0.16487956112E-01 -0.57344539985E-02  0.22849430387E-01  0.00000000000E+00 0.  1.
     999901    1    3    3    0    0 -0.40667639462E-01  0.12468881020E+00  0.47637709432E-01  0.89099411202E+00  0.88000000000E+00 0. -1.
        -11    1    4    4    0    0  0.30662753445E-01 -0.59552889296E-01 -0.33380610191E-01  0.74841681770E-01  0.51100000000E-03 0. -1.
         11    1    4    4    0    0  0.24748013555E-01 -0.48647964792E-01 -0.85226452419E-02  0.55244775827E-01  0.51100000000E-03 0.  1.
</event>
<event>
 8    1  0.1108957E+005  0.1043930E+01  0.7957747E-01            NaN
         13   -1    0    0    0    0  0.00000000000E+00  0.00000000000E+00  0.74505805969E-08  0.10566000000E+00  0.10566000000E+00 0.  1.
     999900   -1    0    0    0    0 -0.00000000000E+00 -0.00000000000E+00 -0.74505805969E-08  0.93827000000E+00  0.93827000000E+00 0. -1.
     999902    2    1    2    0    0 -0.17076402124E-01  0.18026486369E-01 -0.75370130348E-02  0.10179807363E+01  0.10176499473E+01 0.  0.
     999903    2    3    3    0    0 -0.68197694514E-01 -0.71680225176E-01 -0.80167527196E-01  0.12897237178E+00  0.20446516738E-01 0.  0.
         14    1    1    2    0    0  0.17076402124E-01 -0.18026486369E-01  0.75370130348E-02  0.25949263685E-01  0.00000000000E+00 0.  1.
     999901    1    3    3    0    0  0.51121292389E-01  0.89706711545E-01  0.72630514161E-01  0.88900836454E+00  0.88000000000E+00 0.  1.
        -11    1    4    4    0    0 -0.42172181975E-01 -0.45898066855E-01 -0.37542306639E-01  0.72765454595E-01  0.51100000000E-03 0. -1.
         11    1    4    4    0    0 -0.26025512538E-01 -0.25782158320E-01 -0.42625220557E-01  0.56206917182E-01  0.51100000000E-03 0.  1.
</event>
<event>
 8    1  0.1108957E+005  0.1043930E+01  0.7957747E-01            NaN
         13   -1    0    0    0    0  0.00000000000E+00  0.00000000000E+00  0.74505805969E-08  0.10566000000E+00  0.10566000000E+00 0. -1.
     999900   -1    0    0    0    0 -0.00000000000E+00 -0.00000000000E+00 -0.74505805969E-08  0.93827000000E+00  0.93827000000E+00 0.  1.
     999902    2    1    2    0    0 -0.11193982489E-01  0.86157896154E-02 -0.19358760206E-01  0.10199654706E+01  0.10196839032E+01 0.  0.
     999903    2    3    3    0    0  0.84957229430E-01  0.39302413493E-01 -0.90105818471E-01  0.13137564916E+00  0.19444591305E-01 0.  0.
         14    1    1    2    0    0  0.11193982489E-01 -0.86157896154E-02  0.19358760206E-01  0.23964529442E-01  0.00000000000E+00 0. -1.
     999901    1    3    3    0    0 -0.96151211919E-01 -0.30686623878E-01  0.70747058265E-01  0.88858982140E+00  0.88000000000E+00 0. -1.
        -11    1    4    4    0    0  0.31523897037E-01  0.16834033976E-01 -0.47453552745E-01  0.59407420188E-01  0.51100000000E-03 0.  1.
         11    1    4    4    0    0  0.53433332393E-01  0.22468379517E-01 -0.42652265726E-01  0.71968228972E-01  0.51100000000E-03 0. -1.
</event>
<event>
 8    1  0.1108957E+005  0.1043930E+01  0.7957747E-01            NaN
         13   -1    0    0    0    0  0.00000000000E+00  0.00000000000E+00  0.74505805969E-08  0.10566000000E+00  0.10566000000E+00 0.  1.
     999900   -1    0    0    0    0 -0.00000000000E+00 -0.00000000000E+00 -0.74505805969E-08  0.93827000000E+00  0.93827000000E+00 0. -1.
     999902    2    1    2    0    0 -0.10072506140E-02  0.20275749286E-01 -0.11008343371E-01  0.10208366203E+01  0.10205753775E+01 0.  0.
     999903    2    3    3    0    0  0.97105554590E-01 -0.73385744130E-01  0.37082748417E-01  0.12914645492E+00  0.22107021855E-01 0.  0.
         14    1    1    2    0    0  0.10072506140E-02 -0.20275749286E-01  0.11008343371E-01  0.23093379715E-01  0.00000000000E+00 0.  1.
     999901    1    3    3    0    0 -0.98112805204E-01  0.93661493416E-01 -0.48091091788E-01  0.89169016536E+00  0.88000000000E+00 0. -1.
        -11    1    4    4    0    0  0.33001552110E-01 -0.37198176907E-01  0.10119385978E-01  0.50749087681E-01  0.51100000000E-03 0.  1.
         11    1    4    4    0    0  0.64104002480E-01 -0.36187567223E-01  0.26963362439E-01  0.78397367242E-01  0.51100000000E-03 0. -1.
</event>
<event>
 8    1  0.1108957E+005  0.1043930E+01  0.7957747E-01            NaN
         13   -1    0    0    0    0  0.00000000000E+00  0.00000000000E+00  0.74505805969E-08  0.10566000000E+00  0.10566000000E+00 0.  1.
     999900   -1    0    0    0    0 -0.00000000000E+00 -0.00000000000E+00 -0.74505805969E-08  0.93827000000E+00  0.93827000000E+00 0. -1.
     999902    2    1    2    0    0 -0.70044686688E-02 -0.34005229432E-02 -0.21935730178E-01  0.10206533508E+01  0.10203878969E+01 0.  0.
     999903    2    3    3    0    0  0.78309360485E-01 -0.86143183715E-01  0.53291349593E-01  0.12948338339E+00  0.19312550132E-01 0.  0.
         14    1    1    2    0    0  0.70044686688E-02  0.34005229432E-02  0.21935730178E-01  0.23276649159E-01  0.00000000000E+00 0.  1.
     999901    1    3    3    0    0 -0.85313829154E-01  0.82742660771E-01 -0.75227079771E-01  0.89116996745E+00  0.88000000000E+00 0.  1.
        -11    1    4    4    0    0  0.20550196008E-01 -0.12867082616E-01  0.65218545358E-02  0.25113105714E-01  0.51100000000E-03 0.  1.
         11    1    4    4    0    0  0.57759164477E-01 -0.73276101098E-01  0.46769495057E-01  0.10437027768E+00  0.51100000000E-03 0. -1.
</event>
<event>
 8    1  0.1108957E+005  0.1043930E+01  0.7957747E-01            NaN
         13   -1    0    0    0    0  0.00000000000E+00  0.00000000000E+00  0.74505805969E-08  0.10566000000E+00  0.10566000000E+00 0.  1.
     999900   -1    0    0    0    0 -0.00000000000E+00 -0.00000000000E+00 -0.74505805969E-08  0.93827000000E+00  0.93827000000E+00 0. -1.
     999902    2    1    2    0    0  0.17790263407E-01  0.12409845811E-01  0.62886531935E-02  0.10213458262E+01  0.10210961032E+01 0.  0.
     999903    2    3    3    0    0 -0.18430643683E-01 -0.12602155926E+00  0.14489816257E-01  0.12975036467E+00  0.20101749504E-01 0.  0.
         14    1    1    2    0    0 -0.17790263407E-01 -0.12409845811E-01 -0.62886531935E-02  0.22584173753E-01  0.00000000000E+00 0. -1.
     999901    1    3    3    0    0  0.36220907090E-01  0.13843140507E+00 -0.82011630631E-02  0.89159546157E+00  0.88000000000E+00 0. -1.
        -11    1    4    4    0    0 -0.85695162829E-02 -0.79856141530E-01 -0.17183849945E-03  0.80316440402E-01  0.51100000000E-03 0.  1.
         11    1    4    4    0    0 -0.98611274006E-02 -0.46165417730E-01  0.14661654756E-01  0.49433924273E-01  0.51100000000E-03 0. -1.
</event>
<event>
 8    1  0.1108957E+005  0.1043930E+01  0.7957747E-01            NaN
         13   -1    0    0    0    0  0.00000000000E+00  0.00000000000E+00  0.74505805969E-08  0.10566000000E+00  0.10566000000E+00 0.  1.
     999900   -1    0    0    0    0 -0.00000000000E+00 -0.00000000000E+00 -0.74505805969E-08  0.93827000000E+00  0.93827000000E+00 0. -1.
     999902    2    1    2    0    0  0.49771330094E-02 -0.22578782976E-01  0.67211255429E-02  0.10198520677E+01  0.10195677973E+01 0.  0.
     999903    2    3    3    0    0  0.26772321808E-01  0.11277699048E+00  0.52627074620E-01  0.12805412435E+00  0.13886791671E-01 0.  0.
         14    1    1    2    0    0 -0.49771330094E-02  0.22578782976E-01 -0.67211255429E-02  0.24077932266E-01  0.00000000000E+00 0.  1.
     999901    1    3    3    0    0 -0.21795188798E-01 -0.13535577346E+00 -0.45905949077E-01  0.89179794338E+00  0.88000000000E+00 0.  1.
        -11    1    4    4    0    0  0.60682195829E-02  0.51492823605E-01  0.19706925854E-01  0.55470336390E-01  0.51100000000E-03 0. -1.
         11    1    4    4    0    0  0.20704102225E-01  0.61284166877E-01  0.32920148766E-01  0.72583787960E-01  0.51100000000E-03 0.  1.
</event>
<event>
 8    1  0.1108957E+005  0.1043930E+01  0.7957747E-01            NaN
         13   -1    0    0    0    0  0.00000000000E+00  0.00000000000E+00  0.74505805969E-08  0.10566000000E+00  0.10566000000E+00 0. -1.
     999900   -1    0    0    0    0 -0.00000000000E+00 -0.00000000000E+00 -0.74505805969E-08  0.93827000000E+00  0.93827000000E+00 0. -1.
     999902    2    1    2    0    0  0.12531149310E-01  0.21897854094E-01 -0.24347076850E-01  0.10088682563E+01  0.10082588124E+01 0.  0.
     999903    2    3    3    0    0  0.11577562369E+00 -0.23085398112E-01  0.14752692701E-01  0.12083013416E+00  0.21103287282E-01 0.  0.
         14    1    1    2    0    0 -0.12531149310E-01 -0.21897854094E-01  0.24347076850E-01  0.35061743655E-01  0.00000000000E+00 0. -1.
     999901    1    3    3    0    0 -0.10324447438E+00  0.44983252206E-01 -0.39099769551E-01  0.88803812218E+00  0.88000000000E+00 0. -1.
        -11    1    4    4    0    0  0.67021430974E-01 -0.73700423511E-02 -0.33247680749E-03  0.67428194369E-01  0.51100000000E-03 0.  1.
         11    1    4    4    0    0  0.48754192713E-01 -0.15715355761E-01  0.15085169508E-01  0.53401939795E-01  0.51100000000E-03 0. -1.
</event>
<event>
 8    1  0.1108957E+005  0.1043930E+01  0.7957747E-01            NaN
         13   -1    0    0    0    0  0.00000000000E+00  0.00000000000E+00  0.74505805969E-08  0.10566000000E+00  0.10566000000E+00 0. -1.
     999900   -1    0    0    0    0 -0.00000000000E+00 -0.00000000000E+00 -0.74505805969E-08  0.93827000000E+00  0.93827000000E+00 0.  1.
     999902    2    1    2    0    0  0.92240205342E-02  0.21782104627E-01 -0.10044733807E-01  0.10182309861E+01  0.10179066272E+01 0.  0.
     999903    2    3    3    0    0  0.10308820853E+00  0.76638926786E-01 -0.19544150160E-01  0.13148976365E+00  0.20171274220E-01 0.  0.
         14    1    1    2    0    0 -0.92240205342E-02 -0.21782104627E-01  0.10044733807E-01  0.25699013873E-01  0.00000000000E+00 0. -1.
     999901    1    3    3    0    0 -0.93864187993E-01 -0.54856822159E-01  0.94994163525E-02  0.88674122247E+00  0.88000000000E+00 0. -1.
        -11    1    4    4    0    0  0.35820717151E-01  0.38655060986E-01 -0.10101975772E-01  0.53662356942E-01  0.51100000000E-03 0. -1.
         11    1    4    4    0    0  0.67267491376E-01  0.37983865800E-01 -0.94421743874E-02  0.77827406711E-01  0.51100000000E-03 0.  1.
</event>
<event>
 8    1  0.1108957E+005  0.1043930E+01  0.7957747E-01            NaN
         13   -1    0    0    0    0  0.00000000000E+00  0.00000000000E+00  0.74505805969E-08  0.10566000000E+00  0.10566000000E+00 0.  1.
     999900   -1    0    0    0    0 -0.00000000000E+00 -0.00000000000E+00 -0.74505805969E-08  0.93827000000E+00  0.93827000000E+00 0. -1.
     999902    2    1    2    0    0 -0.11810209927E-02 -0.78566715945E-02  0.20096734636E-01  0.10223197977E+01  0.10220913697E+01 0.  0.
     999903    2    3    3    0    0 -0.11000455665E+00 -0.70971033431E-01 -0.11264509859E-01  0.13282021243E+00  0.19401793188E-01 0.  0.
         14    1    1    2    0    0  0.11810209927E-02  0.78566715945E-02 -0.20096734636E-01  0.21610202271E-01  0.00000000000E+00 0. -1.
     999901    1    3    3    0    0  0.10882353566E+00  0.63114361837E-01  0.31361244495E-01  0.88949958529E+00  0.88000000000E+00 0.  1.
        -11    1    4    4    0    0 -0.32896170945E-01 -0.20858877617E-01 -0.12301329944E-01  0.40851373020E-01  0.51100000000E-03 0.  1.
         11    1    4    4    0    0 -0.77108385705E-01 -0.50112155814E-01  0.10368200849E-02  0.91968839415E-01  0.51100000000E-03 0. -1.
</event>
<event>
 8    1  0.1108957E+005  0.1043930E+01  0.7957747E-01            NaN
         13   -1    0    0    0    0  0.00000000000E+00  0.00000000000E+00  0.74505805969E-08  0.10566000000E+00  0.10566000000E+00 0. -1.
     999900   -1    0    0    0    0 -0.00000000000E+00 -0.00000000000E+00 -0.74505805969E-08  0.93827000000E+00  0.93827000000E+00 0.  1.
     999902    2    1    2    0    0  0.15488029480E-01 -0.88848658962E-02  0.15298432337E-01  0.10204169838E+01  0.10201460478E+01 0.  0.
     999903    2    3    3    0    0  0.15422107015E-01 -0.92599676432E-01  0.92310326508E-01  0.13309573098E+00  0.19512451543E-01 0.  0.
         14    1    1    2    0    0 -0.15488029480E-01  0.88848658962E-02 -0.15298432337E-01  0.23513016207E-01  0.00000000000E+00 0.  1.
     999901    1    3    3    0    0  0.65922464397E-04  0.83714810536E-01 -0.77011894171E-01  0.88732125281E+00  0.88000000000E+00 0.  1.
        -11    1    4    4    0    0 -0.42623078549E-02 -0.22451243776E-01  0.18808125387E-01  0.29601221544E-01  0.51100000000E-03 0. -1.
         11    1    4    4    0    0  0.19684414870E-01 -0.70148432656E-01  0.73502201122E-01  0.10349450944E+00  0.51100000000E-03 0.  1.
</event>
<event>
 8    1  0.1108957E+005  0.1043930E+01  0.7957747E-01            NaN
         13   -1    0    0    0    0  0.00000000000E+00  0.00000000000E+00  0.74505805969E-08  0.10566000000E+00  0.10566000000E+00 0. -1.
     999900   -1    0    0    0    0 -0.00000000000E+00 -0.00000000000E+00 -0.74505805969E-08  0.93827000000E+00  0.93827000000E+00 0. -1.
     999902    2    1    2    0    0  0.21859961170E-01 -0.83771932122E-02  0.11683072701E-02  0.10204907122E+01  0.10202214924E+01 0.  0.
     999903    2    3    3    0    0  0.11433590146E-01 -0.55526815622E-01 -0.11679210061E+00  0.13130768613E+00  0.19681448986E-01 0.  0.
         14    1    1    2    0    0 -0.21859961170E-01  0.83771932122E-02 -0.11683072701E-02  0.23439287753E-01  0.00000000000E+00 0. -1.
     999901    1    3    3    0    0  0.10426371025E-01  0.47149622410E-01  0.11796040788E+00  0.88918302612E+00  0.88000000000E+00 0. -1.
        -11    1    4    4    0    0  0.37485881283E-02 -0.32817631392E-01 -0.87019164497E-01  0.93078703010E-01  0.51100000000E-03 0.  1.
         11    1    4    4    0    0  0.76850020173E-02 -0.22709184230E-01 -0.29772936117E-01  0.38228983121E-01  0.51100000000E-03 0. -1.
</event>
<event>
 8    1  0.1108957E+005  0.1043930E+01  0.7957747E-01            NaN
         13   -1    0    0    0    0  0.00000000000E+00  0.00000000000E+00  0.74505805969E-08  0.10566000000E+00  0.10566000000E+00 0.  1.
     999900   -1    0    0    0    0 -0.00000000000E+00 -0.00000000000E+00 -0.74505805969E-08  0.93827000000E+00  0.93827000000E+00 0. -1.
     999902    2    1    2    0    0  0.61827536295E-02  0.15431432859E-01  0.16059988789E-01  0.10208155283E+01  0.10205538026E+01 0.  0.
     999903    2    3    3    0    0  0.19166087126E-02 -0.12739800400E+00 -0.81760669319E-02  0.12896025168E+00  0.18165176321E-01 0.  0.
         14    1    1    2    0    0 -0.61827536295E-02 -0.15431432859E-01 -0.16059988789E-01  0.23114471710E-01  0.00000000000E+00 0. -1.
     999901    1    3    3    0    0  0.42661449169E-02  0.14282943686E+00  0.24236055721E-01  0.89185527661E+00  0.88000000000E+00 0.  1.
        -11    1    4    4    0    0  0.89764775190E-02 -0.62954411571E-01 -0.82725342965E-02  0.64129018623E-01  0.51100000000E-03 0.  1.
         11    1    4    4    0    0 -0.70598688064E-02 -0.64443592426E-01  0.96467364577E-04  0.64831233054E-01  0.51100000000E-03 0. -1.
</event>
<event>
 8    1  0.1108957E+005  0.1043930E+01  0.7957747E-01            NaN
         13   -1    0    0    0    0  0.00000000000E+00  0.00000000000E+00  0.74505805969E-08  0.10566000000E+00  0.10566000000E+00 0. -1.
     999900   -1    0    0    0    0 -0.00000000000E+00 -0.00000000000E+00 -0.74505805969E-08  0.93827000000E+00  0.93827000000E+00 0. -1.
     999902    2    1    2    0    0 -0.20966021999E-01  0.12188910321E-01 -0.36452488095E-02  0.10194059006E+01  0.10191108667E+01 0.  0.
     999903    2    3    3    0    0  0.30715824289E-01  0.12203731319E+00 -0.28879300386E-01  0.13071335408E+00  0.20381346171E-01 0.  0.
         14    1    1    2    0    0  0.20966021999E-01 -0.12188910321E-01  0.36452488095E-02  0.24524099416E-01  0.00000000000E+00 0. -1.
     999901    1    3    3    0    0 -0.51681846288E-01 -0.10984840287E+00  0.25234051577E-01  0.88869254650E+00  0.88000000000E+00 0.  1.
        -11    1    4    4    0    0  0.10602246750E-01  0.16305482683E-01 -0.75671813571E-03  0.19470751013E-01  0.51100000000E-03 0.  1.
         11    1    4    4    0    0  0.20113577539E-01  0.10573183051E+00 -0.28122582250E-01  0.11124260307E+00  0.51100000000E-03 0. -1.
</event>
<event>
 8    1  0.1108957E+005  0.1043930E+01  0.7957747E-01            NaN
         13   -1    0    0    0    0  0.00000000000E+00  0.00000000000E+00  0.74505805969E-08  0.10566000000E+00  0.10566000000E+00 0.  1.
     999900   -1    0    0    0    0 -0.00000000000E+00 -0.00000000000E+00 -0.74505805969E-08  0.93827000000E+00  0.93827000000E+00 0.  1.
     999902    2    1    2    0    0 -0.56315834651E-02 -0.10874186507E-01  0.23830526610E-01  0.10171371528E+01  0.10167842106E+01 0.  0.
     999903    2    3    3    0    0  0.31890706128E-01 -0.10769734081E-01 -0.11859098870E+00  0.12489737493E+00  0.20063084329E-01 0.  0.
         14    1    1    2    0    0  0.56315834651E-02  0.10874186507E-01 -0.23830526610E-01  0.26792847236E-01  0.00000000000E+00 0. -1.
     999901    1    3    3    0    0 -0.37522289593E-01 -0.10445242590E-03  0.14242151531E+00  0.89223977783E+00  0.88000000000E+00 0. -1.
        -11    1    4    4    0    0  0.20644944201E-01  0.18981795397E-02 -0.81847666551E-01  0.84434107133E-01  0.51100000000E-03 0.  1.
         11    1    4    4    0    0  0.11245761927E-01 -0.12667913621E-01 -0.36743322154E-01  0.40463267796E-01  0.51100000000E-03 0. -1.
</event>
<event>
 8    1  0.1108957E+005  0.1043930E+01  0.7957747E-01            NaN
         13   -1    0    0    0    0  0.00000000000E+00  0.00000000000E+00  0.74505805969E-08  0.10566000000E+00  0.10566000000E+00 0.  1.
     999900   -1    0    0    0    0 -0.00000000000E+00 -0.00000000000E+00 -0.74505805969E-08  0.93827000000E+00  0.93827000000E+00 0. -1.
     999902    2    1    2    0    0  0.14637541187E-01 -0.18615076519E-01 -0.10130030637E-01  0.10181735211E+01  0.10178476914E+01 0.  0.
     999903    2    3    3    0    0 -0.20422274200E-01 -0.81557232787E-01  0.95733857665E-01  0.12890524404E+00  0.19568825600E-01 0.  0.
         14    1    1    2    0    0 -0.14637541187E-01  0.18615076519E-01  0.10130030637E-01  0.25756478923E-01  0.00000000000E+00 0.  1.
     999901    1    3    3    0    0  0.35059815387E-01  0.62942156268E-01 -0.10586388830E+00  0.88926827703E+00  0.88000000000E+00 0. -1.
        -11    1    4    4    0    0 -0.21590883928E-02 -0.41432344289E-01  0.38009342619E-01  0.56269637135E-01  0.51100000000E-03 0.  1.
         11    1    4    4    0    0 -0.18263185807E-01 -0.40124888498E-01  0.57724515046E-01  0.72635606909E-01  0.51100000000E-03 0. -1.
</event>
<event>
 8    1  0.1108957E+005  0.1043930E+01  0.7957747E-01            NaN
         13   -1    0    0    0    0  0.00000000000E+00  0.00000000000E+00  0.74505805969E-08  0.10566000000E+00  0.10566000000E+00 0.  1.
     999900   -1    0    0    0    0 -0.00000000000E+00 -0.00000000000E+00 -0.74505805969E-08  0.93827000000E+00  0.93827000000E+00 0.  1.
     999902    2    1    2    0    0 -0.18021807663E-01  0.14737055175E-02  0.19934312726E-01  0.10170165427E+01  0.10166603730E+01 0.  0.
     999903    2    3    3    0    0  0.11071063128E+00 -0.40568955911E-01  0.41057233393E-01  0.12640674937E+00  0.19755652603E-01 0.  0.
         14    1    1    2    0    0  0.18021807663E-01 -0.14737055175E-02 -0.19934312726E-01  0.26913457289E-01  0.00000000000E+00 0. -1.
     999901    1    3    3    0    0 -0.12873243895E+00  0.42042661429E-01 -0.21122920667E-01  0.89060979334E+00  0.88000000000E+00 0.  1.
        -11    1    4    4    0    0  0.48551859557E-01 -0.22480332138E-01  0.27902530718E-01  0.60344517074E-01  0.51100000000E-03 0. -1.
         11    1    4    4    0    0  0.62158771726E-01 -0.18088623773E-01  0.13154702675E-01  0.66062232296E-01  0.51100000000E-03 0.  1.
</event>
<event>
 8    1  0.1108957E+005  0.1043930E+01  0.7957747E-01            NaN
         13   -1    0    0    0    0  0.00000000000E+00  0.00000000000E+00  0.74505805969E-08  0.10566000000E+00  0.10566000000E+00 0.  1.
     999900   -1    0    0    0    0 -0.00000000000E+00 -0.00000000000E+00 -0.74505805969E-08  0.93827000000E+00  0.93827000000E+00 0. -1.
     999902    2    1    2    0    0  0.76172942598E-02 -0.12962263614E-02  0.22366139357E-01  0.10202667888E+01  0.10199923396E+01 0.  0.
     999903    2    3    3    0    0 -0.57505564283E-01 -0.10650260719E+00 -0.41113844579E-01  0.12934643454E+00  0.19759975982E-01 0.  0.
         14    1    1    2    0    0 -0.76172942598E-02  0.12962263614E-02 -0.22366139357E-01  0.23663211201E-01  0.00000000000E+00 0. -1.
     999901    1    3    3    0    0  0.65122858543E-01  0.10520638083E+00  0.63479983936E-01  0.89092035426E+00  0.88000000000E+00 0.  1.
        -11    1    4    4    0    0 -0.25708719100E-01 -0.58338656944E-01 -0.12663120420E-01  0.64999637473E-01  0.51100000000E-03 0.  1.
         11    1    4    4    0    0 -0.31796845183E-01 -0.48163950244E-01 -0.28450724158E-01  0.64346797068E-01  0.51100000000E-03 0. -1.
</event>
<event>
 8    1  0.1108957E+005  0.1043930E+01  0.7957747E-01            NaN
         13   -1    0    0    0    0  0.00000000000E+00  0.00000000000E+00  0.74505805969E-08  0.10566000000E+00  0.10566000000E+00 0. -1.
     999900   -1    0    0    0    0 -0.00000000000E+00 -0.00000000000E+00 -0.74505805969E-08  0.93827000000E+00  0.93827000000E+00 0.  1.
     999902    2    1    2    0    0 -0.13582762205E-01  0.11634163073E-01 -0.16123895905E-01  0.10198504402E+01  0.10195661309E+01 0.  0.
     999903    2    3    3    0    0 -0.36416492281E-01 -0.95764893011E-01  0.75214686962E-01  0.12833562084E+00  0.17768139958E-01 0.  0.
         14    1    1    2    0    0  0.13582762205E-01 -0.11634163073E-01  0.16123895905E-01  0.24079559769E-01  0.00000000000E+00 0. -1.
     999901    1    3    3    0    0  0.22833730076E-01  0.10739905608E+00 -0.91338582867E-01  0.89151481939E+00  0.88000000000E+00 0.  1.
        -11    1    4    4    0    0 -0.27410498823E-01 -0.52671344433E-01  0.36446345469E-01  0.69672111990E-01  0.51100000000E-03 0. -1.
         11    1    4    4    0    0 -0.90059934581E-02 -0.43093548578E-01  0.38768341493E-01  0.58663508848E-01  0.51100000000E-03 0.  1.
</event>
<event>
 8    1  0.1108957E+005  0.1043930E+01  0.7957747E-01            NaN
         13   -1    0    0    0    0  0.00000000000E+00  0.00000000000E+00  0.74505805969E-08  0.10566000000E+00  0.10566000000E+00 0. -1.
     999900   -1    0    0    0    0 -0.00000000000E+00 -0.00000000000E+00 -0.74505805969E-08  0.93827000000E+00  0.93827000000E+00 0. -1.
     999902    2    1    2    0    0 -0.23099930829E-01 -0.46076859031E-02  0.85420072160E-03  0.10203595263E+01  0.10200872490E+01 0.  0.
     999903    2    3    3    0    0 -0.74193935388E-01  0.68970350748E-01  0.82385283317E-01  0.13206248010E+00  0.19786723124E-01 0.  0.
         14    1    1    2    0    0  0.23099930829E-01  0.46076859031E-02 -0.85420072160E-03  0.23570473745E-01  0.00000000000E+00 0. -1.
     999901    1    3    3    0    0  0.51094004559E-01 -0.73578036652E-01 -0.81531082595E-01  0.88829704616E+00  0.88000000000E+00 0.  1.
        -11    1    4    4    0    0 -0.18331464908E-01  0.73218167886E-02  0.19721982599E-01  0.27908230424E-01  0.51100000000E-03 0.  1.
         11    1    4    4    0    0 -0.55862470480E-01  0.61648533960E-01  0.62663300717E-01  0.10415424967E+00  0.51100000000E-03 0. -1.
</event>
<event>
 8    1  0.1108957E+005  0.1043930E+01  0.7957747E-01            NaN
         13   -1    0    0    0    0  0.00000000000E+00  0.00000000000E+00  0.74505805969E-08  0.10566000000E+00  0.10566000000E+00 0. -1.
     999900   -1    0    0    0    0 -0.00000000000E+00 -0.00000000000E+00 -0.74505805969E-08  0.93827000000E+00  0.93827000000E+00 0.  1.
     999902    2    1    2    0    0 -0.29809881295E-01 -0.43786334167E-02  0.10474325975E-01  0.10120315211E+01  0.10115286880E+01 0.  0.
     999903    2    3    3    0    0  0.50464278101E-01  0.55952532826E-01 -0.91639350920E-01  0.12045370994E+00  0.20832578043E-01 0.  0.
         14    1    1    2    0    0  0.29809881295E-01  0.43786334167E-02 -0.10474325975E-01  0.31898478930E-01  0.00000000000E+00 0. -1.
     999901    1    3    3    0    0 -0.80274159396E-01 -0.60331166243E-01  0.10211367689E+00  0.89157781113E+00  0.88000000000E+00 0.  1.
        -11    1    4    4    0    0  0.11771047997E-01  0.22280556861E-01 -0.42545783620E-01  0.49450840335E-01  0.51100000000E-03 0. -1.
         11    1    4    4    0    0  0.38693230103E-01  0.33671975965E-01 -0.49093567300E-01  0.71002869607E-01  0.51100000000E-03 0.  1.
</event>
<event>
 8    1  0.1108957E+005  0.1043930E+01  0.7957747E-01            NaN
         13   -1    0    0    0    0  0.00000000000E+00  0.00000000000E+00  0.74505805969E-08  0.10566000000E+00  0.10566000000E+00 0. -1.
     999900   -1    0    0    0    0 -0.00000000000E+00 -0.00000000000E+00 -0.74505805969E-08  0.93827000000E+00  0.93827000000E+00 0. -1.
     999902    2    1    2    0    0 -0.16747308682E-01 -0.11040465682E-01 -0.12756742325E-01  0.10201581952E+01  0.10198811913E+01 0.  0.
     999903    2    3    3    0    0 -0.45908241804E-02  0.10266649860E+00 -0.77838601521E-01  0.13037580478E+00  0.19429796294E-01 0.  0.
         14    1    1    2    0    0  0.16747308682E-01  0.11040465682E-01  0.12756742325E-01  0.23771804839E-01  0.00000000000E+00 0. -1.
     999901    1    3    3    0    0 -0.12156484502E-01 -0.11370696428E+00  0.65081859196E-01  0.88978239038E+00  0.88000000000E+00 0. -1.
        -11    1    4    4    0    0 -0.82093635036E-02  0.94106725380E-01 -0.65639333859E-01  0.11503152907E+00  0.51100000000E-03 0. -1.
         11    1    4    4    0    0  0.36185393232E-02  0.85597732153E-02 -0.12199267662E-01  0.15344275702E-01  0.51100000000E-03 0.  1.
</event>
<event>
 8    1  0.1108957E+005  0.1043930E+01  0.7957747E-01            NaN
         13   -1    0    0    0    0  0.00000000000E+00  0.00000000000E+00  0.74505805969E-08  0.10566000000E+00  0.10566000000E+00 0. -1.
     999900   -1    0    0    0    0 -0.00000000000E+00 -0.00000000000E+00 -0.74505805969E-08  0.93827000000E+00  0.93827000000E+00 0. -1.
     999902    2    1    2    0    0 -0.14984816745E-01 -0.16762935341E-01 -0.41891132477E-02  0.10210588522E+01  0.10208026695E+01 0.  0.
     999903    2    3    3    0    0  0.11960434938E+00 -0.42312795100E-01 -0.20613400882E-01  0.13030815965E+00  0.21441342207E-01 0.  0.
         14    1    1    2    0    0  0.14984816745E-01  0.16762935341E-01  0.41891132477E-02  0.22871147849E-01  0.00000000000E+00 0.  1.
     999901    1    3    3    0    0 -0.13458916612E+00  0.25549859759E-01  0.16424287634E-01  0.89075069250E+00  0.88000000000E+00 0.  1.
        -11    1    4    4    0    0  0.86964936682E-01 -0.29307018388E-01 -0.24415668848E-01  0.94964138206E-01  0.51100000000E-03 0. -1.
         11    1    4    4    0    0  0.32639412695E-01 -0.13005776712E-01  0.38022679659E-02  0.35344021441E-01  0.51100000000E-03 0.  1.
</event>
<event>
 8    1  0.1108957E+005  0.1043930E+01  0.7957747E-01            NaN
         13   -1    0    0    0    0  0.00000000000E+00  0.00000000000E+00  0.74505805969E-08  0.10566000000E+00  0.10566000000E+00 0.  1.
     999900   -1    0    0    0    0 -0.00000000000E+00 -0.00000000000E+00 -0.74505805969E-08  0.93827000000E+00  0.93827000000E+00 0. -1.
     999902    2    1    2    0    0 -0.93914929518E-02  0.22675286983E-03 -0.22318726895E-01  0.10197147749E+01  0.10194272142E+01 0.  0.
     999903    2    3    3    0    0  0.23400182969E-01  0.14849445673E-02 -0.12900585300E+00  0.13266403230E+00  0.20185681437E-01 0.  0.
         14    1    1    2    0    0  0.93914929518E-02 -0.22675286983E-03  0.22318726895E-01  0.24215225106E-01  0.00000000000E+00 0.  1.
     999901    1    3    3    0    0 -0.32791675921E-01 -0.12581916975E-02  0.10668712610E+00  0.88705074259E+00  0.88000000000E+00 0.  1.
        -11    1    4    4    0    0  0.24673599804E-01  0.52409569947E-02 -0.90492524479E-01  0.93943665380E-01  0.51100000000E-03 0. -1.
         11    1    4    4    0    0 -0.12734168352E-02 -0.37560124274E-02 -0.38513328521E-01  0.38720366922E-01  0.51100000000E-03 0.  1.
</event>
<event>
 8    1  0.1108957E+005  0.1043930E+01  0.7957747E-01            NaN
         13   -1    0    0    0    0  0.00000000000E+00  0.00000000000E+00  0.74505805969E-08  0.10566000000E+00  0.10566000000E+00 0. -1.
     999900   -1    0    0    0    0 -0.00000000000E+00 -0.00000000000E+00 -0.74505805969E-08  0.93827000000E+00  0.93827000000E+00 0. -1.
     999902    2    1    2    0    0  0.23211511119E-01 -0.10321266435E-01  0.44792885848E-02  0.10181352948E+01  0.10178084848E+01 0.  0.
     999903    2    3    3    0    0  0.58604795470E-01 -0.81979676105E-01 -0.80493544593E-01  0.13043715095E+00  0.19479483547E-01 0.  0.
         14    1    1    2    0    0 -0.23211511119E-01  0.10321266435E-01 -0.44792885848E-02  0.25794705183E-01  0.00000000000E+00 0.  1.
     999901    1    3    3    0    0 -0.35393284351E-01  0.71658409670E-01  0.84972833178E-01  0.88769814387E+00  0.88000000000E+00 0.  1.
        -11    1    4    4    0    0  0.43729605153E-01 -0.55398041485E-01 -0.45194329875E-01  0.83809366666E-01  0.51100000000E-03 0.  1.
         11    1    4    4    0    0  0.14875190317E-01 -0.26581634620E-01 -0.35299214719E-01  0.46627784280E-01  0.51100000000E-03 0. -1.
</event>
<event>
 8    1  0.1108957E+005  0.1043930E+01  0.7957747E-01            NaN
         13   -1    0    0    0    0  0.00000000000E+00  0.00000000000E+00  0.74505805969E-08  0.10566000000E+00  0.10566000000E+00 0.  1.
     999900   -1    0    0    0    0 -0.00000000000E+00 -0.00000000000E+00 -0.74505805969E-08  0.93827000000E+00  0.93827000000E+00 0.  1.
     999902    2    1    2    0    0  0.53843298056E-02 -0.13181636040E-01 -0.18377375320E-01  0.10206818934E+01  0.10204170976E+01 0.  0.
     999903    2    3    3    0    0 -0.24806268273E-01 -0.12096236880E+00  0.41234983990E-01  0.13159146385E+00  0.19202703990E-01 0.  0.
         14    1    1    2    0    0 -0.53843298056E-02  0.13181636040E-01  0.18377375320E-01  0.23248106585E-01  0.00000000000E+00 0. -1.
     999901    1    3    3    0    0  0.30190598078E-01  0.10778073276E+00 -0.59612359309E-01  0.88909042957E+00  0.88000000000E+00 0.  1.
        -11    1    4    4    0    0 -0.21559218160E-01 -0.59492102530E-01  0.17950463859E-01  0.65776822855E-01  0.51100000000E-03 0. -1.
         11    1    4    4    0    0 -0.32470501125E-02 -0.61470266274E-01  0.23284520131E-01  0.65814640992E-01  0.51100000000E-03 0.  1.
</event>
<event>
 8    1  0.1108957E+005  0.1043930E+01  0.7957747E-01            NaN
         13   -1    0    0    0    0  0.00000000000E+00  0.00000000000E+00  0.74505805969E-08  0.10566000000E+00  0.10566000000E+00 0.  1.
     999900   -1    0    0    0    0 -0.00000000000E+00 -0.00000000000E+00 -0.74505805969E-08  0.93827000000E+00  0.93827000000E+00 0.  1.
     999902    2    1    2    0    0  0.22043880165E-01  0.32585558368E-03  0.38620961671E-02  0.10215479844E+01  0.10213027611E+01 0.  0.
     999903    2    3    3    0    0  0.13029009070E+00 -0.26544209956E-01 -0.33202032284E-02  0.13447931293E+00  0.19838322519E-01 0.  0.
         14    1    1    2    0    0 -0.22043880165E-01 -0.32585558368E-03 -0.38620961671E-02  0.22382015579E-01  0.00000000000E+00 0. -1.
     999901    1    3    3    0    0 -0.10824621053E+00  0.26870065539E-01  0.71822993955E-02  0.88706867149E+00  0.88000000000E+00 0.  1.
        -11    1    4    4    0    0  0.71213753123E-01 -0.20314269108E-01 -0.98787977701E-02  0.74712247521E-01  0.51100000000E-03 0.  1.
         11    1    4    4    0    0  0.59076337575E-01 -0.62299408480E-02  0.65585945417E-02  0.59767065409E-01  0.51100000000E-03 0. -1.
</event>
<event>
 8    1  0.1108957E+005  0.1043930E+01  0.7957747E-01            NaN
         13   -1    0    0    0    0  0.00000000000E+00  0.00000000000E+00  0.74505805969E-08  0.10566000000E+00  0.10566000000E+00 0.  1.
     999900   -1    0    0    0    0 -0.00000000000E+00 -0.00000000000E+00 -0.74505805969E-08  0.93827000000E+00  0.93827000000E+00 0.  1.
     999902    2    1    2    0    0  0.18185194044E-01  0.13719756675E-01 -0.75667702032E-02  0.10199260625E+01  0.10196435573E+01 0.  0.
     999903    2    3    3    0    0 -0.63115318807E-01 -0.37033163590E-01  0.10266346273E+00  0.12788551599E+00  0.21445744268E-01 0.  0.
         14    1    1    2    0    0 -0.18185194044E-01 -0.13719756675E-01  0.75667702032E-02  0.24003937530E-01  0.00000000000E+00 0.  1.
     999901    1    3    3    0    0  0.81300512851E-01  0.50752920265E-01 -0.11023023294E+00  0.89204054648E+00  0.88000000000E+00 0.  1.
        -11    1    4    4    0    0 -0.31537394652E-01 -0.11068908022E-01  0.60714845952E-01  0.69308597058E-01  0.51100000000E-03 0. -1.
         11    1    4    4    0    0 -0.31577924155E-01 -0.25964255569E-01  0.41948616780E-01  0.58576918935E-01  0.51100000000E-03 0.  1.
</event>
<event>
 8    1  0.1108957E+005  0.1043930E+01  0.7957747E-01            NaN
         13   -1    0    0    0    0  0.00000000000E+00  0.00000000000E+00  0.74505805969E-08  0.10566000000E+00  0.10566000000E+00 0. -1.
     999900   -1    0    0    0    0 -0.00000000000E+00 -0.00000000000E+00 -0.74505805969E-08  0.93827000000E+00  0.93827000000E+00 0. -1.
     999902    2    1    2    0    0  0.51030651687E-02  0.19828891383E-01 -0.10781500240E-01  0.10207898411E+01  0.10205275267E+01 0.  0.
     999903    2    3    3    0    0 -0.11108485543E+00  0.12930488289E-01  0.62833183261E-01  0.13007869683E+00  0.21573498005E-01 0.  0.
         14    1    1    2    0    0 -0.51030651687E-02 -0.19828891383E-01  0.10781500240E-01  0.23140158924E-01  0.00000000000E+00 0. -1.
     999901    1    3    3    0    0  0.11618792060E+00  0.68984030939E-02 -0.73614683502E-01  0.89071114425E+00  0.88000000000E+00 0.  1.
        -11    1    4    4    0    0 -0.87901834814E-01  0.12421267790E-02  0.47565401640E-01  0.99955009863E-01  0.51100000000E-03 0.  1.
         11    1    4    4    0    0 -0.23183020619E-01  0.11688361510E-01  0.15267781621E-01  0.30123686966E-01  0.51100000000E-03 0. -1.
</event>
<event>
 8    1  0.1108957E+005  0.1043930E+01  0.7957747E-01            NaN
         13   -1    0    0    0    0  0.00000000000E+00  0.00000000000E+00  0.74505805969E-08  0.10566000000E+00  0.10566000000E+00 0.  1.
     999900   -1    0    0    0    0 -0.00000000000E+00 -0.00000000000E+00 -0.74505805969E-08  0.93827000000E+00  0.93827000000E+00 0. -1.
     999902    2    1    2    0    0  0.15109933327E-01  0.65371618142E-02  0.18151549425E-01  0.10194244228E+01  0.10191298398E+01 0.  0.
     999903    2    3    3    0    0 -0.98556205554E-01  0.75211443181E-01 -0.26669106638E-01  0.12833237405E+00  0.19694419058E-01 0.  0.
         14    1    1    2    0    0 -0.15109933327E-01 -0.65371618142E-02 -0.18151549425E-01  0.24505577248E-01  0.00000000000E+00 0. -1.
     999901    1    3    3    0    0  0.11366613888E+00 -0.68674281367E-01  0.44820656063E-01  0.89109204870E+00  0.88000000000E+00 0.  1.
        -11    1    4    4    0    0 -0.60392134508E-02  0.11843375523E-01 -0.43204134827E-02  0.13988021181E-01  0.51100000000E-03 0. -1.
         11    1    4    4    0    0 -0.92516992103E-01  0.63368067658E-01 -0.22348693156E-01  0.11434435287E+00  0.51100000000E-03 0.  1.
</event>
<event>
 8    1  0.1108957E+005  0.1043930E+01  0.7957747E-01            NaN
         13   -1    0    0    0    0  0.00000000000E+00  0.00000000000E+00  0.74505805969E-08  0.10566000000E+00  0.10566000000E+00 0. -1.
     999900   -1    0    0    0    0 -0.00000000000E+00 -0.00000000000E+00 -0.74505805969E-08  0.93827000000E+00  0.93827000000E+00 0. -1.
     999902    2    1    2    0    0 -0.22107920806E-01  0.31134090759E-02  0.84601682923E-02  0.10200547424E+01  0.10197752937E+01 0.  0.
     999903    2    3    3    0    0  0.49228932742E-01 -0.36240909235E-03 -0.11620388190E+00  0.12840337925E+00  0.23674173119E-01 0.  0.
         14    1    1    2    0    0  0.22107920806E-01 -0.31134090759E-02 -0.84601682923E-02  0.23875257610E-01  0.00000000000E+00 0. -1.
     999901    1    3    3    0    0 -0.71336853548E-01  0.34758181683E-02  0.12466405020E+00  0.89165136314E+00  0.88000000000E+00 0.  1.
        -11    1    4    4    0    0  0.23999205650E-01  0.11594905613E-01 -0.59331557248E-01  0.65045357363E-01  0.51100000000E-03 0. -1.
         11    1    4    4    0    0  0.25229727093E-01 -0.11957314705E-01 -0.56872324656E-01  0.63358021883E-01  0.51100000000E-03 0.  1.
</event>
<event>
 8    1  0.1108957E+005  0.1043930E+01  0.7957747E-01            NaN
         13   -1    0    0    0    0  0.00000000000E+00  0.00000000000E+00  0.74505805969E-08  0.10566000000E+00  0.10566000000E+00 0. -1.
     999900   -1    0    0    0    0 -0.00000000000E+00 -0.00000000000E+00 -0.74505805969E-08  0.93827000000E+00  0.93827000000E+00 0.  1.
     999902    2    1    2    0    0 -0.19374115209E-01  0.14598245666E-01  0.34711959418E-02  0.10194246064E+01  0.10191300279E+01 0.  0.
     999903    2    3    3    0    0 -0.85914834920E-01 -0.79841186780E-01 -0.52749519521E-01  0.13009494721E+00  0.19652213974E-01 0.  0.
         14    1    1    2    0    0  0.19374115209E-01 -0.14598245666E-01 -0.34711959418E-02  0.24505393650E-01  0.00000000000E+00 0.  1.
     999901    1    3    3    0    0  0.66540719711E-01  0.94439432447E-01  0.56220715463E-01  0.88932965914E+00  0.88000000000E+00 0.  1.
        -11    1    4    4    0    0 -0.23256359134E-01 -0.23687367694E-01 -0.56746303900E-02  0.33681035903E-01  0.51100000000E-03 0. -1.
         11    1    4    4    0    0 -0.62658475786E-01 -0.56153819086E-01 -0.47074889131E-01  0.96413911306E-01  0.51100000000E-03 0.  1.
</event>
<event>
 8    1  0.1108957E+005  0.1043930E+01  0.7957747E-01            NaN
         13   -1    0    0    0    0  0.00000000000E+00  0.00000000000E+00  0.74505805969E-08  0.10566000000E+00  0.10566000000E+00 0. -1.
     999900   -1    0    0    0    0 -0.00000000000E+00 -0.00000000000E+00 -0.74505805969E-08  0.93827000000E+00  0.93827000000E+00 0. -1.
     999902    2    1    2    0    0  0.22491662698E-01 -0.32671668282E-02  0.15585284449E-02  0.10211489052E+01  0.10208947587E+01 0.  0.
     999903    2    3    3    0    0 -0.59151615932E-01  0.76126849037E-01  0.84952904059E-01  0.12990053543E+00  0.19051046862E-01 0.  0.
         14    1    1    2    0    0 -0.22491662698E-01  0.32671668282E-02 -0.15585284449E-02  0.22781094814E-01  0.00000000000E+00 0. -1.
     999901    1    3    3    0    0  0.81643278630E-01 -0.79394015865E-01 -0.83394375614E-01  0.89124836975E+00  0.88000000000E+00 0.  1.
        -11    1    4    4    0    0 -0.57866398985E-01  0.65348478643E-01  0.77453243862E-01  0.11669708607E+00  0.51100000000E-03 0. -1.
         11    1    4    4    0    0 -0.12852169470E-02  0.10778370394E-01  0.74996601969E-02  0.13203449360E-01  0.51100000000E-03 0.  1.
</event>
<event>
 8    1  0.1108957E+005  0.1043930E+01  0.7957747E-01            NaN
         13   -1    0    0    0    0  0.00000000000E+00  0.00000000000E+00  0.74505805969E-08  0.10566000000E+00  0.10566000000E+00 0.  1.
     999900   -1    0    0    0    0 -0.00000000000E+00 -0.00000000000E+00 -0.74505805969E-08  0.93827000000E+00  0.93827000000E+00 0. -1.
     999902    2    1    2    0    0 -0.13776386528E-01  0.21577154264E-01 -0.62468094699E-02  0.10175788133E+01  0.10172375614E+01 0.  0.
     999903    2    3    3    0    0  0.81915649938E-01  0.71951550806E-01 -0.65957924780E-01  0.12895067794E+00  0.19764365174E-01 0.  0.
         14    1    1    2    0    0  0.13776386528E-01 -0.21577154264E-01  0.62468094699E-02  0.26351186699E-01  0.00000000000E+00 0.  1.
     999901    1    3    3    0    0 -0.95692036466E-01 -0.50374396542E-01  0.59711115310E-01  0.88862813536E+00  0.88000000000E+00 0. -1.
        -11    1    4    4    0    0  0.13136027034E-01  0.60289294904E-02 -0.15279496788E-01  0.21038710515E-01  0.51100000000E-03 0. -1.
         11    1    4    4    0    0  0.68779622904E-01  0.65922621316E-01 -0.50678427991E-01  0.10791196742E+00  0.51100000000E-03 0.  1.
</event>
<event>
 8    1  0.1108957E+005  0.1043930E+01  0.7957747E-01            NaN
         13   -1    0    0    0    0  0.00000000000E+00  0.00000000000E+00  0.74505805969E-08  0.10566000000E+00  0.10566000000E+00 0.  1.
     999900   -1    0    0    0    0 -0.00000000000E+00 -0.00000000000E+00 -0.74505805969E-08  0.93827000000E+00  0.93827000000E+00 0.  1.
     999902    2    1    2    0    0  0.15795678796E-01  0.16848485545E-01 -0.31342975103E-02  0.10206233753E+01  0.10203572293E+01 0.  0.
     999903    2    3    3    0    0 -0.66903692622E-02  0.12593075058E+00  0.36248699624E-01  0.13272947209E+00  0.19995738383E-01 0.  0.
         14    1    1    2    0    0 -0.15795678796E-01 -0.16848485545E-01  0.31342975103E-02  0.23306624695E-01  0.00000000000E+00 0.  1.
     999901    1    3    3    0    0  0.22486048058E-01 -0.10908226504E+00 -0.39382997135E-01  0.88789390322E+00  0.88000000000E+00 0.  1.
        -11    1    4    4    0    0 -0.47514104737E-02  0.63353365220E-01  0.28532858595E-01  0.69646320267E-01  0.51100000000E-03 0. -1.
         11    1    4    4    0    0 -0.19389587885E-02  0.62577385363E-01  0.77158410299E-02  0.63083151823E-01  0.51100000000E-03 0.  1.
</event>
<event>
 8    1  0.1108957E+005  0.1043930E+01  0.7957747E-01            NaN
         13   -1    0    0    0    0  0.00000000000E+00  0.00000000000E+00  0.74505805969E-08  0.10566000000E+00  0.10566000000E+00 0. -1.
     999900   -1    0    0    0    0 -0.00000000000E+00 -0.00000000000E+00 -0.74505805969E-08  0.93827000000E+00  0.93827000000E+00 0. -1.
     999902    2    1    2    0    0 -0.12321610282E-01  0.85408289515E-02  0.20053371234E-01  0.10188919183E+01  0.10185842310E+01 0.  0.
     999903    2    3    3    0    0 -0.70504583944E-01 -0.10524042207E+00  0.18533884317E-01  0.12965981114E+00  0.20535797050E-01 0.  0.
         14    1    1    2    0    0  0.12321610282E-01 -0.85408289515E-02 -0.20053371234E-01  0.25038081735E-01  0.00000000000E+00 0.  1.
     999901    1    3    3    0    0  0.58182973662E-01  0.11378125103E+00  0.15194869164E-02  0.88923210713E+00  0.88000000000E+00 0.  1.
        -11    1    4    4    0    0 -0.31738174464E-01 -0.36036761878E-01 -0.73737008587E-03  0.48028790956E-01  0.51100000000E-03 0.  1.
         11    1    4    4    0    0 -0.38766409480E-01 -0.69203660196E-01  0.19271254403E-01  0.81631020180E-01  0.51100000000E-03 0. -1.
</event>
<event>
 8    1  0.1108957E+005  0.1043930E+01  0.7957747E-01            NaN
         13   -1    0    0    0    0  0.00000000000E+00  0.00000000000E+00  0.74505805969E-08  0.10566000000E+00  0.10566000000E+00 0.  1.
     999900   -1    0    0    0    0 -0.00000000000E+00 -0.00000000000E+00 -0.74505805969E-08  0.93827000000E+00  0.93827000000E+00 0. -1.
     999902    2    1    2    0    0 -0.13826125486E-01 -0.16546286991E-01  0.84213551708E-02  0.10207813374E+01  0.10205188279E+01 0.  0.
     999903    2    3    3    0    0 -0.53454666928E-01 -0.11212732159E+00  0.46192986304E-01  0.13391446370E+00  0.19218583228E-01 0.  0.
         14    1    1    2    0    0  0.13826125486E-01  0.16546286991E-01 -0.84213551708E-02  0.23148662641E-01  0.00000000000E+00 0.  1.
     999901    1    3    3    0    0  0.39628541442E-01  0.95581034600E-01 -0.37771631133E-01  0.88686687366E+00  0.88000000000E+00 0. -1.
        -11    1    4    4    0    0 -0.23662409621E-01 -0.66470659762E-01  0.32602058922E-01  0.77726530896E-01  0.51100000000E-03 0. -1.
         11    1    4    4    0    0 -0.29792257307E-01 -0.45656661829E-01  0.13590927382E-01  0.56187932805E-01  0.51100000000E-03 0.  1.
</event>
<event>
 8    1  0.1108957E+005  0.1043930E+01  0.7957747E-01            NaN
         13   -1    0    0    0    0  0.00000000000E+00  0.00000000000E+00  0.74505805969E-08  0.10566000000E+00  0.10566000000E+00 0.  1.
     999900   -1    0    0    0    0 -0.00000000000E+00 -0.00000000000E+00 -0.74505805969E-08  0.93827000000E+00  0.93827000000E+00 0. -1.
     999902    2    1    2    0    0 -0.65416899906E-02  0.60943365327E-02  0.21341817287E-01  0.10207911191E+01  0.10205288340E+01 0.  0.
     999903    2    3    3    0    0  0.16177494537E-01 -0.71882227087E-02  0.13099811034E+00  0.13359492299E+00  0.19331752697E-01 0.  0.
         14    1    1    2    0    0  0.65416899906E-02 -0.60943365327E-02 -0.21341817287E-01  0.23138880932E-01  0.00000000000E+00 0. -1.
     999901    1    3    3    0    0 -0.22719184528E-01  0.13282559241E-01 -0.10965629305E+00  0.88719619608E+00  0.88000000000E+00 0. -1.
        -11    1    4    4    0    0  0.16771802854E-01 -0.92318328818E-02  0.70434663893E-01  0.72991938652E-01  0.51100000000E-03 0. -1.
         11    1    4    4    0    0 -0.59430831704E-03  0.20436101731E-02  0.60563446443E-01  0.60602984340E-01  0.51100000000E-03 0.  1.
</event>
<event>
 8    1  0.1108957E+005  0.1043930E+01  0.7957747E-01            NaN
         13   -1    0    0    0    0  0.00000000000E+00  0.00000000000E+00  0.74505805969E-08  0.10566000000E+00  0.10566000000E+00 0.  1.
     999900   -1    0    0    0    0 -0.00000000000E+00 -0.00000000000E+00 -0.74505805969E-08  0.93827000000E+00  0.93827000000E+00 0.  1.
     999902    2    1    2    0    0 -0.28287176810E-02  0.18656290505E-01 -0.16648597952E-01  0.10187658463E+01  0.10184550137E+01 0.  0.
     999903    2    3    3    0    0 -0.99395450544E-02 -0.11476616948E+00  0.47786579163E-01  0.12635113957E+00  0.20272767684E-01 0.  0.
         14    1    1    2    0    0  0.28287176810E-02 -0.18656290505E-01  0.16648597952E-01  0.25164153729E-01  0.00000000000E+00 0.  1.
     999901    1    3    3    0    0  0.71108273734E-02  0.13342245998E+00 -0.64435177115E-01  0.89241470670E+00  0.88000000000E+00 0.  1.
        -11    1    4    4    0    0  0.94742952584E-03 -0.68249770396E-01  0.20209288426E-01  0.71187114294E-01  0.51100000000E-03 0. -1.
         11    1    4    4    0    0 -0.10886974580E-01 -0.46516399079E-01  0.27577290737E-01  0.55164025272E-01  0.51100000000E-03 0.  1.
</event>
<event>
 8    1  0.1108957E+005  0.1043930E+01  0.7957747E-01            NaN
         13   -1    0    0    0    0  0.00000000000E+00  0.00000000000E+00  0.74505805969E-08  0.10566000000E+00  0.10566000000E+00 0.  1.
     999900   -1    0    0    0    0 -0.00000000000E+00 -0.00000000000E+00 -0.74505805969E-08  0.93827000000E+00  0.93827000000E+00 0. -1.
     999902    2    1    2    0    0 -0.12831303084E-01 -0.11609811794E-01 -0.77629516728E-02  0.10249644131E+01  0.10247889317E+01 0.  0.
     999903    2    3    3    0    0  0.23384274465E-01 -0.12615584588E+00  0.39351591891E-01  0.13555329205E+00  0.19079451250E-01 0.  0.
         14    1    1    2    0    0  0.12831303084E-01  0.11609811794E-01  0.77629516728E-02  0.18965586924E-01  0.00000000000E+00 0.  1.
     999901    1    3    3    0    0 -0.36215577549E-01  0.11454603409E+00 -0.47114543564E-01  0.88941112102E+00  0.88000000000E+00 0.  1.
        -11    1    4    4    0    0  0.13920619100E-01 -0.29822941515E-01  0.96743029228E-02  0.34308085560E-01  0.51100000000E-03 0. -1.
         11    1    4    4    0    0  0.94636553651E-02 -0.96332904367E-01  0.29677288968E-01  0.10124520649E+00  0.51100000000E-03 0.  1.
</event>
<event>
 8    1  0.1108957E+005  0.1043930E+01  0.7957747E-01            NaN
         13   -1    0    0    0    0  0.00000000000E+00  0.00000000000E+00  0.74505805969E-08  0.10566000000E+00  0.10566000000E+00 0. -1.
     999900   -1    0    0    0    0 -0.00000000000E+00 -0.00000000000E+00 -0.74505805969E-08  0.93827000000E+00  0.93827000000E+00 0. -1.
     999902    2    1    2    0    0  0.89450167500E-02 -0.10357859017E-01 -0.20994902435E-01  0.10188683860E+01  0.10185601129E+01 0.  0.
     999903    2    3    3    0    0  0.74532969538E-01 -0.10597941695E+00 -0.61523791676E-02  0.13113781742E+00  0.19299612011E-01 0.  0.
         14    1    1    2    0    0 -0.89450167500E-02  0.10357859017E-01  0.20994902435E-01  0.25061614001E-01  0.00000000000E+00 0. -1.
     999901    1    3    3    0    0 -0.65587952788E-01  0.95621557930E-01 -0.14842523268E-01  0.88773056858E+00  0.88000000000E+00 0. -1.
        -11    1    4    4    0    0  0.11999827987E-01 -0.31672028608E-01 -0.17874767001E-02  0.33920045133E-01  0.51100000000E-03 0.  1.
         11    1    4    4    0    0  0.62533141551E-01 -0.74307388339E-01 -0.43649024675E-02  0.97217772288E-01  0.51100000000E-03 0. -1.
</event>
<event>
 8    1  0.1108957E+005  0.1043930E+01  0.7957747E-01            NaN
         13   -1    0    0    0    0  0.00000000000E+00  0.00000000000E+00  0.74505805969E-08  0.10566000000E+00  0.10566000000E+00 0. -1.
     999900   -1    0    0    0    0 -0.00000000000E+00 -0.00000000000E+00 -0.74505805969E-08  0.93827000000E+00  0.93827000000E+00 0. -1.
     999902    2    1    2    0    0  0.67132396772E-02  0.18155980709E-01  0.12129585765E-01  0.10210863122E+01  0.10208307513E+01 0.  0.
     999903    2    3    3    0    0  0.78123116431E-01 -0.10188571568E+00  0.50704878589E-03  0.12999458697E+00  0.20357189468E-01 0.  0.
         14    1    1    2    0    0 -0.67132396772E-02 -0.18155980709E-01 -0.12129585765E-01  0.22843687821E-01  0.00000000000E+00 0.  1.
     999901    1    3    3    0    0 -0.71409876753E-01  0.12004169639E+00  0.11622536979E-01  0.89109172521E+00  0.88000000000E+00 0.  1.
        -11    1    4    4    0    0  0.62231558591E-01 -0.92386233430E-01 -0.11596037476E-02  0.11139833398E+00  0.51100000000E-03 0.  1.
         11    1    4    4    0    0  0.15891557839E-01 -0.94994822479E-02  0.16666525335E-02  0.18596252988E-01  0.51100000000E-03 0. -1.
</event>
<event>
 8    1  0.1108957E+005  0.1043930E+01  0.7957747E-01            NaN
         13   -1    0    0    0    0  0.00000000000E+00  0.00000000000E+00  0.74505805969E-08  0.10566000000E+00  0.10566000000E+00 0. -1.
     999900   -1    0    0    0    0 -0.00000000000E+00 -0.00000000000E+00 -0.74505805969E-08  0.93827000000E+00  0.93827000000E+00 0. -1.
     999902    2    1    2    0    0 -0.11059081388E-01 -0.13518745245E-03  0.21232201306E-01  0.10199899096E+01  0.10197089230E+01 0.  0.
     999903    2    3    3    0    0 -0.72810119967E-01  0.10553654876E+00  0.22529994324E-01  0.13151853083E+00  0.18714876781E-01 0.  0.
         14    1    1    2    0    0  0.11059081388E-01  0.13518745245E-03 -0.21232201306E-01  0.23940090416E-01  0.00000000000E+00 0.  1.
     999901    1    3    3    0    0  0.61751038579E-01 -0.10567173621E+00 -0.12977930174E-02  0.88847137876E+00  0.88000000000E+00 0.  1.
        -11    1    4    4    0    0 -0.14515339396E-01  0.21290407297E-01  0.12305532018E-01  0.28559827729E-01  0.51100000000E-03 0.  1.
         11    1    4    4    0    0 -0.58294780571E-01  0.84246141466E-01  0.10224462305E-01  0.10295870310E+00  0.51100000000E-03 0. -1.
</event>
<event>
 8    1  0.1108957E+005  0.1043930E+01  0.7957747E-01            NaN
         13   -1    0    0    0    0  0.00000000000E+00  0.00000000000E+00  0.74505805969E-08  0.10566000000E+00  0.10566000000E+00 0. -1.
     999900   -1    0    0    0    0 -0.00000000000E+00 -0.00000000000E+00 -0.74505805969E-08  0.93827000000E+00  0.93827000000E+00 0. -1.
     999902    2    1    2    0    0 -0.14742896932E-01  0.71087150764E-02 -0.20472258434E-01  0.10177193112E+01  0.10173817358E+01 0.  0.
     999903    2    3    3    0    0 -0.91510891736E-01 -0.47961563799E-02  0.86093194617E-01  0.12789278501E+00  0.23394013693E-01 0.  0.
         14    1    1    2    0    0  0.14742896932E-01 -0.71087150764E-02  0.20472258434E-01  0.26210688762E-01  0.00000000000E+00 0. -1.
     999901    1    3    3    0    0  0.76767994804E-01  0.11904871456E-01 -0.10656545305E+00  0.88982652623E+00  0.88000000000E+00 0. -1.
        -11    1    4    4    0    0 -0.17574265797E-01  0.24150941428E-02  0.29800890768E-01  0.34684891662E-01  0.51100000000E-03 0.  1.
         11    1    4    4    0    0 -0.73936625938E-01 -0.72112505227E-02  0.56292303848E-01  0.93207893350E-01  0.51100000000E-03 0. -1.
</event>
<event>
 7    1  0.1108957E+005  0.1043930E+01  0.7957747E-01            NaN
         13   -1    0    0    0    0  0.00000000000E+00  0.00000000000E+00  0.74505805969E-08  0.10566000000E+00  0.10566000000E+00 0. -1.
     999900   -1    0    0    0    0 -0.00000000000E+00 -0.00000000000E+00 -0.74505805969E-08  0.93827000000E+00  0.93827000000E+00 0. -1.
     999903    2    1    2    0    0  0.12119946522E-01  0.16120922866E-01 -0.11652047359E+00  0.11980937315E+00  0.19248061529E-01 0.  0.
         14    1    1    2    0    0 -0.28388139192E-01 -0.19046513501E-01  0.17524241985E-01  0.38415559093E-01  0.00000000000E+00 0.  1.
     999901    1    1    2    0    0  0.16268192670E-01  0.29255906351E-02  0.98996231601E-01  0.88570506775E+00  0.88000000000E+00 0.  1.
        -11    1    3    3    0    0 -0.44550130463E-02  0.82327436438E-02 -0.45274157897E-01  0.46234572599E-01  0.51100000000E-03 0. -1.
         11    1    3    3    0    0  0.16574959568E-01  0.78881792222E-02 -0.71246315690E-01  0.73574800554E-01  0.51100000000E-03 0.  1.
</event>
<event>
 8    1  0.1108957E+005  0.1043930E+01  0.7957747E-01            NaN
         13   -1    0    0    0    0  0.00000000000E+00  0.00000000000E+00  0.74505805969E-08  0.10566000000E+00  0.10566000000E+00 0. -1.
     999900   -1    0    0    0    0 -0.00000000000E+00 -0.00000000000E+00 -0.74505805969E-08  0.93827000000E+00  0.93827000000E+00 0.  1.
     999902    2    1    2    0    0  0.17000662061E-01  0.15934171757E-01 -0.64684091919E-02  0.10197481751E+01  0.10194614166E+01 0.  0.
     999903    2    3    3    0    0  0.10460424474E+00 -0.31887303018E-01  0.69078755597E-01  0.13089011257E+00  0.20037439517E-01 0.  0.
         14    1    1    2    0    0 -0.17000662061E-01 -0.15934171757E-01  0.64684091919E-02  0.24181824942E-01  0.00000000000E+00 0.  1.
     999901    1    3    3    0    0 -0.87603582675E-01  0.47821474774E-01 -0.75547164789E-01  0.88885806249E+00  0.88000000000E+00 0. -1.
        -11    1    4    4    0    0  0.81032387931E-01 -0.31642941473E-01  0.48530786881E-01  0.99614366610E-01  0.51100000000E-03 0. -1.
         11    1    4    4    0    0  0.23571856806E-01 -0.24436154519E-03  0.20547968716E-01  0.31275745957E-01  0.51100000000E-03 0.  1.
</event>
<event>
 8    1  0.1108957E+005  0.1043930E+01  0.7957747E-01            NaN
         13   -1    0    0    0    0  0.00000000000E+00  0.00000000000E+00  0.74505805969E-08  0.10566000000E+00  0.10566000000E+00 0. -1.
     999900   -1    0    0    0    0 -0.00000000000E+00 -0.00000000000E+00 -0.74505805969E-08  0.93827000000E+00  0.93827000000E+00 0.  1.
     999902    2    1    2    0    0 -0.21615879288E-01  0.20112859022E-02  0.84498605170E-02  0.10206342568E+01  0.10203683622E+01 0.  0.
     999903    2    3    3    0    0 -0.24446772655E-01  0.12532242614E+00  0.26806976014E-01  0.13184258551E+00  0.18986790284E-01 0.  0.
         14    1    1    2    0    0  0.21615879288E-01 -0.20112859022E-02 -0.84498605170E-02  0.23295743198E-01  0.00000000000E+00 0.  1.
     999901    1    3    3    0    0  0.28308933671E-02 -0.12331114024E+00 -0.18357115497E-01  0.88879167129E+00  0.88000000000E+00 0. -1.
        -11    1    4    4    0    0 -0.13486399854E-01  0.10602562713E+00  0.21599313231E-01  0.10904177200E+00  0.51100000000E-03 0.  1.
         11    1    4    4    0    0 -0.10960372801E-01  0.19296799012E-01  0.52076627827E-02  0.22800813510E-01  0.51100000000E-03 0. -1.
</event>
<event>
 8    1  0.1108957E+005  0.1043930E+01  0.7957747E-01            NaN
         13   -1    0    0    0    0  0.00000000000E+00  0.00000000000E+00  0.74505805969E-08  0.10566000000E+00  0.10566000000E+00 0. -1.
     999900   -1    0    0    0    0 -0.00000000000E+00 -0.00000000000E+00 -0.74505805969E-08  0.93827000000E+00  0.93827000000E+00 0. -1.
     999902    2    1    2    0    0 -0.41173210971E-02  0.96385971698E-02  0.20726281735E-01  0.10207042892E+01  0.10204400092E+01 0.  0.
     999903    2    3    3    0    0 -0.79375500427E-01  0.93482598301E-01  0.47943300528E-01  0.13310394207E+00  0.19458496243E-01 0.  0.
         14    1    1    2    0    0  0.41173210971E-02 -0.96385971698E-02 -0.20726281735E-01  0.23225710817E-01  0.00000000000E+00 0.  1.
     999901    1    3    3    0    0  0.75258179330E-01 -0.83844001131E-01 -0.27217018793E-01  0.88760034711E+00  0.88000000000E+00 0.  1.
        -11    1    4    4    0    0 -0.24251926275E-01  0.19592501688E-01  0.18840250930E-01  0.36431280880E-01  0.51100000000E-03 0. -1.
         11    1    4    4    0    0 -0.55123574152E-01  0.73890096613E-01  0.29103049598E-01  0.96672661190E-01  0.51100000000E-03 0.  1.
</event>
<event>
 8    1  0.1108957E+005  0.1043930E+01  0.7957747E-01            NaN
         13   -1    0    0    0    0  0.00000000000E+00  0.00000000000E+00  0.74505805969E-08  0.10566000000E+00  0.10566000000E+00 0. -1.
     999900   -1    0    0    0    0 -0.00000000000E+00 -0.00000000000E+00 -0.74505805969E-08  0.93827000000E+00  0.93827000000E+00 0. -1.
     999902    2    1    2    0    0 -0.16742053495E-01  0.11896861190E-01  0.55999542117E-02  0.10226417133E+01  0.10224201107E+01 0.  0.
     999903    2    3    3    0    0 -0.12347676081E+00  0.95119750635E-02 -0.47858778816E-01  0.13457875299E+00  0.21999770845E-01 0.  0.
         14    1    1    2    0    0  0.16742053495E-01 -0.11896861190E-01 -0.55999542117E-02  0.21288286652E-01  0.00000000000E+00 0.  1.
     999901    1    3    3    0    0  0.10673470731E+00  0.23848861263E-02  0.53458733028E-01  0.88806296036E+00  0.88000000000E+00 0.  1.
        -11    1    4    4    0    0 -0.20486966788E-01  0.97456377458E-02 -0.66254657871E-02  0.23640033442E-01  0.51100000000E-03 0. -1.
         11    1    4    4    0    0 -0.10298979402E+00 -0.23366268228E-03 -0.41233313029E-01  0.11093871955E+00  0.51100000000E-03 0.  1.
</event>
<event>
 8    1  0.1108957E+005  0.1043930E+01  0.7957747E-01            NaN
         13   -1    0    0    0    0  0.00000000000E+00  0.00000000000E+00  0.74505805969E-08  0.10566000000E+00  0.10566000000E+00 0. -1.
     999900   -1    0    0    0    0 -0.00000000000E+00 -0.00000000000E+00 -0.74505805969E-08  0.93827000000E+00  0.93827000000E+00 0. -1.
     999902    2    1    2    0    0 -0.17678582147E-01 -0.13994289359E-01  0.77831609891E-02  0.10200773273E+01  0.10197984132E+01 0.  0.
     999903    2    3    3    0    0  0.10217986023E+00  0.73887502422E-01  0.16171812302E-02  0.12759356000E+00  0.19427156958E-01 0.  0.
         14    1    1    2    0    0  0.17678582147E-01  0.13994289359E-01 -0.77831609891E-02  0.23852672731E-01  0.00000000000E+00 0.  1.
     999901    1    3    3    0    0 -0.11985844238E+00 -0.87881791781E-01  0.61659797589E-02  0.89248376727E+00  0.88000000000E+00 0.  1.
        -11    1    4    4    0    0  0.68039230767E-01  0.59678267113E-01  0.33890025071E-02  0.90568090120E-01  0.51100000000E-03 0. -1.
         11    1    4    4    0    0  0.34140629462E-01  0.14209235309E-01 -0.17718212768E-02  0.37025469879E-01  0.51100000000E-03 0.  1.
</event>
<event>
 8    1  0.1108957E+005  0.1043930E+01  0.7957747E-01            NaN
         13   -1    0    0    0    0  0.00000000000E+00  0.00000000000E+00  0.74505805969E-08  0.10566000000E+00  0.10566000000E+00 0. -1.
     999900   -1    0    0    0    0 -0.00000000000E+00 -0.00000000000E+00 -0.74505805969E-08  0.93827000000E+00  0.93827000000E+00 0.  1.
     999902    2    1    2    0    0 -0.78628267366E-02 -0.38927834133E-02  0.22113260170E-01  0.10201397902E+01  0.10198623522E+01 0.  0.
     999903    2    3    3    0    0 -0.58192177236E-01 -0.63839870205E-01 -0.93867110375E-01  0.12908527835E+00  0.19751358364E-01 0.  0.
         14    1    1    2    0    0  0.78628267366E-02  0.38927834133E-02 -0.22113260170E-01  0.23790209800E-01  0.00000000000E+00 0.  1.
     999901    1    3    3    0    0  0.50329350500E-01  0.59947086792E-01  0.11598037054E+00  0.89105451185E+00  0.88000000000E+00 0. -1.
        -11    1    4    4    0    0 -0.41660337402E-01 -0.56990018597E-01 -0.77437708085E-01  0.10478695380E+00  0.51100000000E-03 0.  1.
         11    1    4    4    0    0 -0.16531839834E-01 -0.68498516086E-02 -0.16429402291E-01  0.24298324551E-01  0.51100000000E-03 0. -1.
</event>
<event>
 8    1  0.1108957E+005  0.1043930E+01  0.7957747E-01            NaN
         13   -1    0    0    0    0  0.00000000000E+00  0.00000000000E+00  0.74505805969E-08  0.10566000000E+00  0.10566000000E+00 0.  1.
     999900   -1    0    0    0    0 -0.00000000000E+00 -0.00000000000E+00 -0.74505805969E-08  0.93827000000E+00  0.93827000000E+00 0. -1.
     999902    2    1    2    0    0  0.20807455423E-01  0.11519084664E-01 -0.39001937204E-02  0.10198291489E+01  0.10195443305E+01 0.  0.
     999903    2    3    3    0    0  0.77376435664E-02 -0.10469109584E+00 -0.73524569098E-01  0.12936680849E+00  0.17601482960E-01 0.  0.
         14    1    1    2    0    0 -0.20807455423E-01 -0.11519084664E-01  0.39001937204E-02  0.24100851100E-01  0.00000000000E+00 0. -1.
     999901    1    3    3    0    0  0.13069811856E-01  0.11621018051E+00  0.69624375377E-01  0.89046234041E+00  0.88000000000E+00 0. -1.
        -11    1    4    4    0    0 -0.12502843085E-02 -0.44025383610E-01 -0.39862558814E-01  0.59406079900E-01  0.51100000000E-03 0. -1.
         11    1    4    4    0    0  0.89879278750E-02 -0.60665712232E-01 -0.33662010284E-01  0.69960728594E-01  0.51100000000E-03 0.  1.
</event>
<event>
 8    1  0.1108957E+005  0.1043930E+01  0.7957747E-01            NaN
         13   -1    0    0    0    0  0.00000000000E+00  0.00000000000E+00  0.74505805969E-08  0.10566000000E+00  0.10566000000E+00 0.  1.
     999900   -1    0    0    0    0 -0.00000000000E+00 -0.00000000000E+00 -0.74505805969E-08  0.93827000000E+00  0.93827000000E+00 0. -1.
     999902    2    1    2    0    0  0.16161938274E-01 -0.16807318883E-01  0.15975780126E-02  0.10205580837E+01  0.10202904271E+01 0.  0.
     999903    2    3    3    0    0  0.98518204733E-01  0.26141247036E-01 -0.81306001037E-01  0.13179482085E+00  0.19235580012E-01 0.  0.
         14    1    1    2    0    0 -0.16161938274E-01  0.16807318883E-01 -0.15975780126E-02  0.23371916317E-01  0.00000000000E+00 0.  1.
     999901    1    3    3    0    0 -0.82356266459E-01 -0.42948565919E-01  0.82903579050E-01  0.88876326283E+00  0.88000000000E+00 0.  1.
        -11    1    4    4    0    0  0.31699155350E-01 -0.15332499218E-03 -0.21060875908E-01  0.38061549804E-01  0.51100000000E-03 0. -1.
         11    1    4    4    0    0  0.66819049383E-01  0.26294572028E-01 -0.60245125129E-01  0.93733271048E-01  0.51100000000E-03 0.  1.
</event>
<event>
 8    1  0.1108957E+005  0.1043930E+01  0.7957747E-01            NaN
         13   -1    0    0    0    0  0.00000000000E+00  0.00000000000E+00  0.74505805969E-08  0.10566000000E+00  0.10566000000E+00 0.  1.
     999900   -1    0    0    0    0 -0.00000000000E+00 -0.00000000000E+00 -0.74505805969E-08  0.93827000000E+00  0.93827000000E+00 0.  1.
     999902    2    1    2    0    0 -0.25529084430E-02 -0.22765196795E-01 -0.46838874365E-02  0.10205481624E+01  0.10202802760E+01 0.  0.
     999903    2    3    3    0    0  0.51039424415E-01 -0.77827914093E-02  0.11788880114E+00  0.13031185976E+00  0.20440564359E-01 0.  0.
         14    1    1    2    0    0  0.25529084430E-02  0.22765196795E-01  0.46838874365E-02  0.23381837570E-01  0.00000000000E+00 0.  1.
     999901    1    3    3    0    0 -0.53592332858E-01 -0.14982405386E-01 -0.12257268858E+00  0.89023630267E+00  0.88000000000E+00 0.  1.
        -11    1    4    4    0    0  0.52171369906E-01 -0.87401235975E-02  0.10756496895E+00  0.11986961777E+00  0.51100000000E-03 0. -1.
         11    1    4    4    0    0 -0.11319454907E-02  0.95733218821E-03  0.10323832196E-01  0.10442241988E-01  0.51100000000E-03 0.  1.
</event>
<event>
 8    1  0.1108957E+005  0.1043930E+01  0.7957747E-01            NaN
         13   -1    0    0    0    0  0.00000000000E+00  0.00000000000E+00  0.74505805969E-08  0.10566000000E+00  0.10566000000E+00 0. -1.
     999900   -1    0    0    0    0 -0.00000000000E+00 -0.00000000000E+00 -0.74505805969E-08  0.93827000000E+00  0.93827000000E+00 0. -1.
     999902    2    1    2    0    0  0.18150783707E-01 -0.15204723252E-02  0.16583226017E-01  0.10192973759E+01  0.10189996930E+01 0.  0.
     999903    2    3    3    0    0 -0.17565836162E-02 -0.12560866921E+00 -0.25315707908E-01  0.12938181555E+00  0.17836640944E-01 0.  0.
         14    1    1    2    0    0 -0.18150783707E-01  0.15204723252E-02 -0.16583226017E-01  0.24632624107E-01  0.00000000000E+00 0.  1.
     999901    1    3    3    0    0  0.19907367323E-01  0.12408819689E+00  0.41898933925E-01  0.88991556035E+00  0.88000000000E+00 0. -1.
        -11    1    4    4    0    0 -0.82528597864E-02 -0.90317782105E-01 -0.22108976662E-01  0.93351376149E-01  0.51100000000E-03 0. -1.
         11    1    4    4    0    0  0.64962761702E-02 -0.35290887108E-01 -0.32067312463E-02  0.36030439399E-01  0.51100000000E-03 0.  1.
</event>
<event>
 7    1  0.1108957E+005  0.1043930E+01  0.7957747E-01            NaN
         13   -1    0    0    0    0  0.00000000000E+00  0.00000000000E+00  0.74505805969E-08  0.10566000000E+00  0.10566000000E+00 0. -1.
     999900   -1    0    0    0    0 -0.00000000000E+00 -0.00000000000E+00 -0.74505805969E-08  0.93827000000E+00  0.93827000000E+00 0.  1.
     999903    2    1    2    0    0 -0.51294898635E-01 -0.25777182481E-01  0.17532748309E-01  0.63438627370E-01  0.20528819175E-01 0.  0.
         14    1    1    2    0    0  0.94450602821E-01  0.15170538453E-01 -0.26717399947E-01  0.99322107660E-01  0.00000000000E+00 0. -1.
     999901    1    1    2    0    0 -0.43155704186E-01  0.10606644028E-01  0.91846516374E-02  0.88116926497E+00  0.88000000000E+00 0. -1.
        -11    1    3    3    0    0 -0.27699206338E-01 -0.16948103541E-01  0.19965180744E-01  0.38122877757E-01  0.51100000000E-03 0. -1.
         11    1    3    3    0    0 -0.23595692297E-01 -0.88290789405E-02 -0.24324324346E-02  0.25315749613E-01  0.51100000000E-03 0.  1.
</event>
<event>
 8    1  0.1108957E+005  0.1043930E+01  0.7957747E-01            NaN
         13   -1    0    0    0    0  0.00000000000E+00  0.00000000000E+00  0.74505805969E-08  0.10566000000E+00  0.10566000000E+00 0. -1.
     999900   -1    0    0    0    0 -0.00000000000E+00 -0.00000000000E+00 -0.74505805969E-08  0.93827000000E+00  0.93827000000E+00 0.  1.
     999902    2    1    2    0    0  0.16623180674E-01 -0.16446210963E-01  0.29189344280E-02  0.10203645981E+01  0.10200924393E+01 0.  0.
     999903    2    3    3    0    0 -0.56605775223E-02 -0.55505688718E-02  0.12908494952E+00  0.13102037658E+00  0.20989614905E-01 0.  0.
         14    1    1    2    0    0 -0.16623180674E-01  0.16446210963E-01 -0.29189344280E-02  0.23565401948E-01  0.00000000000E+00 0.  1.
     999901    1    3    3    0    0  0.22283758197E-01 -0.10895642091E-01 -0.12616601510E+00  0.88934422147E+00  0.88000000000E+00 0.  1.
        -11    1    4    4    0    0 -0.95518455486E-02  0.31898293853E-02  0.34271932515E-01  0.35724490818E-01  0.51100000000E-03 0.  1.
         11    1    4    4    0    0  0.38912680263E-02 -0.87403982571E-02  0.94813017008E-01  0.95295885765E-01  0.51100000000E-03 0. -1.
</event>
<event>
 8    1  0.1108957E+005  0.1043930E+01  0.7957747E-01            NaN
         13   -1    0    0    0    0  0.00000000000E+00  0.00000000000E+00  0.74505805969E-08  0.10566000000E+00  0.10566000000E+00 0.  1.
     999900   -1    0    0    0    0 -0.00000000000E+00 -0.00000000000E+00 -0.74505805969E-08  0.93827000000E+00  0.93827000000E+00 0. -1.
     999902    2    1    2    0    0  0.16834868856E-01  0.12993610602E-01  0.10260329005E-01  0.10203181158E+01  0.10200448697E+01 0.  0.
     999903    2    3    3    0    0 -0.11106573910E+00 -0.31909013568E-01  0.46488442867E-01  0.12920236155E+00  0.34326248858E-01 0.  0.
         14    1    1    2    0    0 -0.16834868856E-01 -0.12993610602E-01 -0.10260329005E-01  0.23611884236E-01  0.00000000000E+00 0.  1.
     999901    1    3    3    0    0  0.12790060796E+00  0.44902624170E-01 -0.36228113862E-01  0.89111575421E+00  0.88000000000E+00 0. -1.
        -11    1    4    4    0    0 -0.75672279871E-01 -0.36961943828E-01  0.26775389680E-01  0.88372291166E-01  0.51100000000E-03 0. -1.
         11    1    4    4    0    0 -0.35393459232E-01  0.50529302604E-02  0.19713053187E-01  0.40830070384E-01  0.51100000000E-03 0.  1.
</event>
<event>
 8    1  0.1108957E+005  0.1043930E+01  0.7957747E-01            NaN
         13   -1    0    0    0    0  0.00000000000E+00  0.00000000000E+00  0.74505805969E-08  0.10566000000E+00  0.10566000000E+00 0. -1.
     999900   -1    0    0    0    0 -0.00000000000E+00 -0.00000000000E+00 -0.74505805969E-08  0.93827000000E+00  0.93827000000E+00 0. -1.
     999902    2    1    2    0    0  0.19772650624E-01 -0.74085956513E-02  0.10986921802E-01  0.10201275326E+01  0.10198498053E+01 0.  0.
     999903    2    3    3    0    0 -0.72019763873E-01  0.63664579856E-01  0.84407500421E-01  0.12947169281E+00  0.19956652925E-01 0.  0.
         14    1    1    2    0    0 -0.19772650624E-01  0.74085956513E-02 -0.10986921802E-01  0.23802467370E-01  0.00000000000E+00 0. -1.
     999901    1    3    3    0    0  0.91792414497E-01 -0.71073175507E-01 -0.73420578619E-01  0.89065583982E+00  0.88000000000E+00 0. -1.
        -11    1    4    4    0    0 -0.11467029785E-01  0.47012493503E-02  0.18588328748E-01  0.22346847746E-01  0.51100000000E-03 0. -1.
         11    1    4    4    0    0 -0.60552734088E-01  0.58963330506E-01  0.65819171672E-01  0.10712484507E+00  0.51100000000E-03 0.  1.
</event>
<event>
 8    1  0.1108957E+005  0.1043930E+01  0.7957747E-01            NaN
         13   -1    0    0    0    0  0.00000000000E+00  0.00000000000E+00  0.74505805969E-08  0.10566000000E+00  0.10566000000E+00 0.  1.
     999900   -1    0    0    0    0 -0.00000000000E+00 -0.00000000000E+00 -0.74505805969E-08  0.93827000000E+00  0.93827000000E+00 0. -1.
     999902    2    1    2    0    0  0.15507566891E-01 -0.72523081853E-02  0.14248312390E-01  0.10216568096E+01  0.10214139913E+01 0.  0.
     999903    2    3    3    0    0  0.13018891006E+00  0.17984962956E-01 -0.65251088263E-02  0.13361386843E+00  0.23183563044E-01 0.  0.
         14    1    1    2    0    0 -0.15507566891E-01  0.72523081853E-02 -0.14248312390E-01  0.22273190406E-01  0.00000000000E+00 0. -1.
     999901    1    3    3    0    0 -0.11468134317E+00 -0.25237271141E-01  0.20773421216E-01  0.88804294117E+00  0.88000000000E+00 0. -1.
        -11    1    4    4    0    0  0.80839383151E-01  0.11538718328E-02  0.14617573566E-02  0.80862445820E-01  0.51100000000E-03 0.  1.
         11    1    4    4    0    0  0.49349526911E-01  0.16831091123E-01 -0.79868661829E-02  0.52751422608E-01  0.51100000000E-03 0. -1.
</event>
<event>
 8    1  0.1108957E+005  0.1043930E+01  0.7957747E-01            NaN
         13   -1    0    0    0    0  0.00000000000E+00  0.00000000000E+00  0.74505805969E-08  0.10566000000E+00  0.10566000000E+00 0.  1.
     999900   -1    0    0    0    0 -0.00000000000E+00 -0.00000000000E+00 -0.74505805969E-08  0.93827000000E+00  0.93827000000E+00 0.  1.
     999902    2    1    2    0    0 -0.33071228513E-04 -0.23725508789E-01  0.83081432754E-02  0.10187918595E+01  0.10184816773E+01 0.  0.
     999903    2    3    3    0    0  0.97343756197E-01  0.70836616287E-01  0.38249246726E-01  0.12788181263E+00  0.19927871144E-01 0.  0.
         14    1    1    2    0    0  0.33071228513E-04  0.23725508789E-01 -0.83081432754E-02  0.25138140458E-01  0.00000000000E+00 0.  1.
     999901    1    3    3    0    0 -0.97376827425E-01 -0.94562125076E-01 -0.29941103450E-01  0.89091004691E+00  0.88000000000E+00 0.  1.
        -11    1    4    4    0    0  0.84201729669E-01  0.57667598202E-01  0.38998802639E-01  0.10925498108E+00  0.51100000000E-03 0. -1.
         11    1    4    4    0    0  0.13142026527E-01  0.13169018086E-01 -0.74955591297E-03  0.18626831552E-01  0.51100000000E-03 0.  1.
</event>
<event>
 8    1  0.1108957E+005  0.1043930E+01  0.7957747E-01            NaN
         13   -1    0    0    0    0  0.00000000000E+00  0.00000000000E+00  0.74505805969E-08  0.10566000000E+00  0.10566000000E+00 0.  1.
     999900   -1    0    0    0    0 -0.00000000000E+00 -0.00000000000E+00 -0.74505805969E-08  0.93827000000E+00  0.93827000000E+00 0.  1.
     999902    2    1    2    0    0 -0.72317929174E-02 -0.22456839874E-01 -0.34339696160E-02  0.10200888458E+01  0.10198102043E+01 0.  0.
     999903    2    3    3    0    0 -0.10137648964E+00  0.76608284748E-01  0.13450086161E-01  0.12938003021E+00  0.20304321151E-01 0.  0.
         14    1    1    2    0    0  0.72317929174E-02  0.22456839874E-01  0.34339696160E-02  0.23841154193E-01  0.00000000000E+00 0.  1.
     999901    1    3    3    0    0  0.94144696718E-01 -0.99065124622E-01 -0.16884055777E-01  0.89070881559E+00  0.88000000000E+00 0.  1.
        -11    1    4    4    0    0 -0.65318938454E-01  0.60953159657E-01  0.10480805370E-01  0.89955321105E-01  0.51100000000E-03 0. -1.
         11    1    4    4    0    0 -0.36057551182E-01  0.15655125091E-01  0.29692807902E-02  0.39424709108E-01  0.51100000000E-03 0.  1.
</event>
<event>
 8    1  0.1108957E+005  0.1043930E+01  0.7957747E-01            NaN
         13   -1    0    0    0    0  0.00000000000E+00  0.00000000000E+00  0.74505805969E-08  0.10566000000E+00  0.10566000000E+00 0. -1.
     999900   -1    0    0    0    0 -0.00000000000E+00 -0.00000000000E+00 -0.74505805969E-08  0.93827000000E+00  0.93827000000E+00 0.  1.
     999902    2    1    2    0    0  0.20550352468E-01  0.10113931294E-01 -0.70567434293E-02  0.10199632267E+01  0.10196816060E+01 0.  0.
     999903    2    3    3    0    0  0.13068405056E+00  0.14298255091E-01  0.45593188259E-02  0.13301234144E+00  0.19716349011E-01 0.  0.
         14    1    1    2    0    0 -0.20550352468E-01 -0.10113931294E-01  0.70567434293E-02  0.23966773263E-01  0.00000000000E+00 0. -1.
     999901    1    3    3    0    0 -0.11013369809E+00 -0.41843237964E-02 -0.11616062255E-01  0.88695088529E+00  0.88000000000E+00 0.  1.
        -11    1    4    4    0    0  0.44663409776E-01  0.14213779472E-01  0.31401621737E-02  0.46978435896E-01  0.51100000000E-03 0. -1.
         11    1    4    4    0    0  0.86020640785E-01  0.84475618923E-04  0.14191566522E-02  0.86033905548E-01  0.51100000000E-03 0.  1.
</event>
<event>
 8    1  0.1108957E+005  0.1043930E+01  0.7957747E-01            NaN
         13   -1    0    0    0    0  0.00000000000E+00  0.00000000000E+00  0.74505805969E-08  0.10566000000E+00  0.10566000000E+00 0. -1.
     999900   -1    0    0    0    0 -0.00000000000E+00 -0.00000000000E+00 -0.74505805969E-08  0.93827000000E+00  0.93827000000E+00 0. -1.
     999902    2    1    2    0    0 -0.13611289927E-02  0.16167359834E-01 -0.16229171634E-01  0.10209817493E+01  0.10207238169E+01 0.  0.
     999903    2    3    3    0    0 -0.22940486578E-01 -0.10384291398E+00 -0.73491961545E-01  0.13073057041E+00  0.19488379067E-01 0.  0.
         14    1    1    2    0    0  0.13611289927E-02 -0.16167359834E-01  0.16229171634E-01  0.22948250653E-01  0.00000000000E+00 0. -1.
     999901    1    3    3    0    0  0.21579357585E-01  0.12001027382E+00  0.57262789911E-01  0.89025117894E+00  0.88000000000E+00 0. -1.
        -11    1    4    4    0    0 -0.37938268425E-02 -0.48284874341E-01 -0.41708513542E-01  0.63919351023E-01  0.51100000000E-03 0.  1.
         11    1    4    4    0    0 -0.19146659736E-01 -0.55558039640E-01 -0.31783448003E-01  0.66811219384E-01  0.51100000000E-03 0. -1.
</event>
<event>
 8    1  0.1108957E+005  0.1043930E+01  0.7957747E-01            NaN
         13   -1    0    0    0    0  0.00000000000E+00  0.00000000000E+00  0.74505805969E-08  0.10566000000E+00  0.10566000000E+00 0. -1.
     999900   -1    0    0    0    0 -0.00000000000E+00 -0.00000000000E+00 -0.74505805969E-08  0.93827000000E+00  0.93827000000E+00 0. -1.
     999902    2    1    2    0    0  0.21792057012E-02  0.25584426076E-01  0.95448456338E-03  0.10182351983E+01  0.10179109471E+01 0.  0.
     999903    2    3    3    0    0 -0.12022799979E-01 -0.27655932264E-01  0.12271680912E+00  0.12814402519E+00  0.21262117532E-01 0.  0.
         14    1    1    2    0    0 -0.21792057012E-02 -0.25584426076E-01 -0.95448456338E-03  0.25694801729E-01  0.00000000000E+00 0. -1.
     999901    1    3    3    0    0  0.14202005680E-01  0.53240358340E-01 -0.12176232456E+00  0.89009117308E+00  0.88000000000E+00 0. -1.
        -11    1    4    4    0    0 -0.17550118757E-01 -0.16342446871E-01  0.88014148066E-01  0.91224084642E-01  0.51100000000E-03 0.  1.
         11    1    4    4    0    0  0.55273187776E-02 -0.11313485393E-01  0.34702661053E-01  0.36919940544E-01  0.51100000000E-03 0. -1.
</event>
<event>
 8    1  0.1108957E+005  0.1043930E+01  0.7957747E-01            NaN
         13   -1    0    0    0    0  0.00000000000E+00  0.00000000000E+00  0.74505805969E-08  0.10566000000E+00  0.10566000000E+00 0.  1.
     999900   -1    0    0    0    0 -0.00000000000E+00 -0.00000000000E+00 -0.74505805969E-08  0.93827000000E+00  0.93827000000E+00 0. -1.
     999902    2    1    2    0    0 -0.20471313426E-01 -0.47874619431E-02  0.10699399994E-01  0.10203403492E+01  0.10200676235E+01 0.  0.
     999903    2    3    3    0    0  0.28835457046E-01 -0.11143339364E+00  0.59788063782E-01  0.13117545488E+00  0.19583222141E-01 0.  0.
         14    1    1    2    0    0  0.20471313426E-01  0.47874619431E-02 -0.10699399994E-01  0.23589650813E-01  0.00000000000E+00 0. -1.
     999901    1    3    3    0    0 -0.49306770473E-01  0.10664593170E+00 -0.49088663787E-01  0.88916489431E+00  0.88000000000E+00 0. -1.
        -11    1    4    4    0    0  0.13032481211E-01 -0.43643124675E-01  0.13236933821E-01  0.47434643836E-01  0.51100000000E-03 0. -1.
         11    1    4    4    0    0  0.15802975835E-01 -0.67790268967E-01  0.46551129961E-01  0.83740811039E-01  0.51100000000E-03 0.  1.
</event>
<event>
 8    1  0.1108957E+005  0.1043930E+01  0.7957747E-01            NaN
         13   -1    0    0    0    0  0.00000000000E+00  0.00000000000E+00  0.74505805969E-08  0.10566000000E+00  0.10566000000E+00 0.  1.
     999900   -1    0    0    0    0 -0.00000000000E+00 -0.00000000000E+00 -0.74505805969E-08  0.93827000000E+00  0.93827000000E+00 0.  1.
     999902    2    1    2    0    0  0.51183648308E-02  0.14159768240E-01  0.17722943290E-01  0.10206749056E+01  0.10204099488E+01 0.  0.
     999903    2    3    3    0    0  0.11779013986E+00  0.19596747789E-01 -0.48691342030E-01  0.13099218301E+00  0.23012076143E-01 0.  0.
         14    1    1    2    0    0 -0.51183648308E-02 -0.14159768240E-01 -0.17722943290E-01  0.23255094366E-01  0.00000000000E+00 0. -1.
     999901    1    3    3    0    0 -0.11267177503E+00 -0.54369795488E-02  0.66414285320E-01  0.88968272262E+00  0.88000000000E+00 0. -1.
        -11    1    4    4    0    0  0.98312138547E-01  0.90727076512E-02 -0.34020232111E-01  0.10442809930E+00  0.51100000000E-03 0.  1.
         11    1    4    4    0    0  0.19478001318E-01  0.10524040138E-01 -0.14671109919E-01  0.26564083712E-01  0.51100000000E-03 0. -1.
</event>
<event>
 8    1  0.1108957E+005  0.1043930E+01  0.7957747E-01            NaN
         13   -1    0    0    0    0  0.00000000000E+00  0.00000000000E+00  0.74505805969E-08  0.10566000000E+00  0.10566000000E+00 0. -1.
     999900   -1    0    0    0    0 -0.00000000000E+00 -0.00000000000E+00 -0.74505805969E-08  0.93827000000E+00  0.93827000000E+00 0. -1.
     999902    2    1    2    0    0 -0.10588381681E-01 -0.16148844317E-01 -0.13696839429E-01  0.10202550679E+01  0.10199803435E+01 0.  0.
     999903    2    3    3    0    0 -0.18847320772E-01  0.10628514268E+00 -0.69300052989E-01  0.13000228998E+00  0.21126878615E-01 0.  0.
         14    1    1    2    0    0  0.10588381681E-01  0.16148844317E-01  0.13696839429E-01  0.23674932096E-01  0.00000000000E+00 0. -1.
     999901    1    3    3    0    0  0.82589390915E-02 -0.12243398700E+00  0.55603213560E-01  0.89025277793E+00  0.88000000000E+00 0.  1.
        -11    1    4    4    0    0 -0.42427763738E-02  0.65106234737E-01 -0.50160758169E-01  0.82299366547E-01  0.51100000000E-03 0.  1.
         11    1    4    4    0    0 -0.14604544398E-01  0.41178907945E-01 -0.19139294820E-01  0.47702923430E-01  0.51100000000E-03 0. -1.
</event>
<event>
 8    1  0.1108957E+005  0.1043930E+01  0.7957747E-01            NaN
         13   -1    0    0    0    0  0.00000000000E+00  0.00000000000E+00  0.74505805969E-08  0.10566000000E+00  0.10566000000E+00 0. -1.
     999900   -1    0    0    0    0 -0.00000000000E+00 -0.00000000000E+00 -0.74505805969E-08  0.93827000000E+00  0.93827000000E+00 0. -1.
     999902    2    1    2    0    0  0.19496299262E-01 -0.11236193226E-01  0.86410977210E-02  0.10198255130E+01  0.10195406077E+01 0.  0.
     999903    2    3    3    0    0  0.11433873265E-01  0.12612633005E+00  0.18686467191E-01  0.12907617961E+00  0.16519427817E-01 0.  0.
         14    1    1    2    0    0 -0.19496299262E-01  0.11236193226E-01 -0.86410977210E-02  0.24104486988E-01  0.00000000000E+00 0. -1.
     999901    1    3    3    0    0  0.80624259970E-02 -0.13736252328E+00 -0.10045369470E-01  0.89074933341E+00  0.88000000000E+00 0. -1.
        -11    1    4    4    0    0  0.12146748131E-01  0.76209362263E-01  0.17525815434E-01  0.79138016871E-01  0.51100000000E-03 0. -1.
         11    1    4    4    0    0 -0.71287486625E-03  0.49916967790E-01  0.11606517569E-02  0.49938162736E-01  0.51100000000E-03 0.  1.
</event>
<event>
 7    1  0.1112189E+005  0.1043930E+01  0.7957747E-01            NaN
         13   -1    0    0    0    0  0.00000000000E+00  0.00000000000E+00  0.74505805969E-08  0.10566000000E+00  0.10566000000E+00 0. -1.
     999900   -1    0    0    0    0 -0.00000000000E+00 -0.00000000000E+00 -0.74505805969E-08  0.93827000000E+00  0.93827000000E+00 0. -1.
     999903    2    1    2    0    0 -0.54253586157E-01 -0.49169327292E-01 -0.60932770703E-01  0.97976727234E-01  0.22925142895E-01 0.  0.
         14    1    1    2    0    0  0.50859223656E-01  0.38375535336E-01  0.90504504942E-02  0.64352567916E-01  0.00000000000E+00 0.  1.
     999901    1    1    2    0    0  0.33943625012E-02  0.10793791956E-01  0.51882320209E-01  0.88160070485E+00  0.88000000000E+00 0.  1.
        -11    1    3    3    0    0 -0.28778931349E-01 -0.40745193851E-01 -0.39308672076E-01  0.63512443922E-01  0.51100000000E-03 0.  1.
         11    1    3    3    0    0 -0.25474654808E-01 -0.84241334410E-02 -0.21624098627E-01  0.34464283312E-01  0.51100000000E-03 0. -1.
</event>
<event>
 8    1  0.1108957E+005  0.1043930E+01  0.7957747E-01            NaN
         13   -1    0    0    0    0  0.00000000000E+00  0.00000000000E+00  0.74505805969E-08  0.10566000000E+00  0.10566000000E+00 0. -1.
     999900   -1    0    0    0    0 -0.00000000000E+00 -0.00000000000E+00 -0.74505805969E-08  0.93827000000E+00  0.93827000000E+00 0. -1.
     999902    2    1    2    0    0  0.22480161612E-01 -0.15995326755E-02 -0.85819549927E-02  0.10198143179E+01  0.10195291447E+01 0.  0.
     999903    2    3    3    0    0 -0.12513636286E+00  0.99323438386E-02  0.60155447104E-02  0.12732526506E+00  0.20439559188E-01 0.  0.
         14    1    1    2    0    0 -0.22480161612E-01  0.15995326755E-02  0.85819549927E-02  0.24115682084E-01  0.00000000000E+00 0. -1.
     999901    1    3    3    0    0  0.14761652447E+00 -0.11531876514E-01 -0.14597499703E-01  0.89248905286E+00  0.88000000000E+00 0. -1.
        -11    1    4    4    0    0 -0.66841588303E-01  0.15159548323E-01  0.58972985629E-02  0.68794251821E-01  0.51100000000E-03 0.  1.
         11    1    4    4    0    0 -0.58294774558E-01 -0.52272044840E-02  0.11824614755E-03  0.58531013238E-01  0.51100000000E-03 0. -1.
</event>
<event>
 8    1  0.1108957E+005  0.1043930E+01  0.7957747E-01            NaN
         13   -1    0    0    0    0  0.00000000000E+00  0.00000000000E+00  0.74505805969E-08  0.10566000000E+00  0.10566000000E+00 0.  1.
     999900   -1    0    0    0    0 -0.00000000000E+00 -0.00000000000E+00 -0.74505805969E-08  0.93827000000E+00  0.93827000000E+00 0. -1.
     999902    2    1    2    0    0  0.21916298186E-01 -0.85104596469E-02 -0.10224564188E-02  0.10203970982E+01  0.10201256984E+01 0.  0.
     999903    2    3    3    0    0  0.45670268093E-01 -0.21239711391E-01  0.11984331529E+00  0.13172684457E+00  0.21275399682E-01 0.  0.
         14    1    1    2    0    0 -0.21916298186E-01  0.85104596469E-02  0.10224564188E-02  0.23532901791E-01  0.00000000000E+00 0. -1.
     999901    1    3    3    0    0 -0.23753969908E-01  0.12729251744E-01 -0.12086577171E+00  0.88867025364E+00  0.88000000000E+00 0. -1.
        -11    1    4    4    0    0  0.52901391387E-02 -0.11874656753E-01  0.23921362389E-01  0.27230235854E-01  0.51100000000E-03 0.  1.
         11    1    4    4    0    0  0.40380128955E-01 -0.93650546379E-02  0.95921952903E-01  0.10449660871E+00  0.51100000000E-03 0. -1.
</event>
<event>
 8    1  0.1108957E+005  0.1043930E+01  0.7957747E-01            NaN
         13   -1    0    0    0    0  0.00000000000E+00  0.00000000000E+00  0.74505805969E-08  0.10566000000E+00  0.10566000000E+00 0. -1.
     999900   -1    0    0    0    0 -0.00000000000E+00 -0.00000000000E+00 -0.74505805969E-08  0.93827000000E+00  0.93827000000E+00 0.  1.
     999902    2    1    2    0    0  0.40334125950E-04  0.13730716692E-01  0.18138363301E-01  0.10211806169E+01  0.10209271854E+01 0.  0.
     999903    2    3    3    0    0  0.12643961441E+00  0.29350813300E-01 -0.12118299947E-01  0.13149739736E+00  0.17212378851E-01 0.  0.
         14    1    1    2    0    0 -0.40334125950E-04 -0.13730716692E-01 -0.18138363301E-01  0.22749383090E-01  0.00000000000E+00 0. -1.
     999901    1    3    3    0    0 -0.12639928028E+00 -0.15620096608E-01  0.30256663249E-01  0.88968321955E+00  0.88000000000E+00 0. -1.
        -11    1    4    4    0    0  0.10147551710E+00  0.16931273959E-01 -0.67733783438E-02  0.10310231998E+00  0.51100000000E-03 0.  1.
         11    1    4    4    0    0  0.24964097307E-01  0.12419539341E-01 -0.53449216033E-02  0.28395077386E-01  0.51100000000E-03 0. -1.
</event>
<event>
 8    1  0.1108957E+005  0.1043930E+01  0.7957747E-01            NaN
         13   -1    0    0    0    0  0.00000000000E+00  0.00000000000E+00  0.74505805969E-08  0.10566000000E+00  0.10566000000E+00 0.  1.
     999900   -1    0    0    0    0 -0.00000000000E+00 -0.00000000000E+00 -0.74505805969E-08  0.93827000000E+00  0.93827000000E+00 0. -1.
     999902    2    1    2    0    0  0.12426780557E-01 -0.16708712990E-02 -0.24367560091E-01  0.10165257180E+01  0.10161562580E+01 0.  0.
     999903    2    3    3    0    0 -0.67301166311E-01 -0.92942463623E-01 -0.52664420179E-01  0.12776941770E+00  0.19589140228E-01 0.  0.
         14    1    1    2    0    0 -0.12426780557E-01  0.16708712990E-02  0.24367560091E-01  0.27404281978E-01  0.00000000000E+00 0.  1.
     999901    1    3    3    0    0  0.79727946868E-01  0.91271592324E-01  0.28296860088E-01  0.88875630033E+00  0.88000000000E+00 0.  1.
        -11    1    4    4    0    0 -0.39569303213E-01 -0.61817691923E-01 -0.42659635830E-01  0.84895597304E-01  0.51100000000E-03 0.  1.
         11    1    4    4    0    0 -0.27731863098E-01 -0.31124771699E-01 -0.10004784349E-01  0.42873820393E-01  0.51100000000E-03 0. -1.
</event>
