<event>
 8    1  0.1095698E+005  0.1043930E+01  0.7957747E-01            NaN
         13   -1    0    0    0    0  0.00000000000E+00  0.00000000000E+00  0.74505805969E-08  0.10566000000E+00  0.10566000000E+00 0.  1.
     999900   -1    0    0    0    0 -0.00000000000E+00 -0.00000000000E+00 -0.74505805969E-08  0.93827000000E+00  0.93827000000E+00 0.  1.
     999902    2    1    2    0    0 -0.52445591407E-02 -0.22151261317E-01  0.47377575369E-02  0.10206785457E+01  0.10204136728E+01 0.  0.
     999903    2    3    3    0    0  0.89803552021E-02 -0.11750997825E+00 -0.58443369872E-01  0.13316094708E+00  0.20663217942E-01 0.  0.
         14    1    1    2    0    0  0.52445591407E-02  0.22151261317E-01 -0.47377575369E-02  0.23251454255E-01  0.00000000000E+00 0. -1.
     999901    1    3    3    0    0 -0.14224914343E-01  0.95358716937E-01  0.63181127409E-01  0.88751759867E+00  0.88000000000E+00 0.  1.
        -11    1    4    4    0    0  0.10575938470E-01 -0.61790757494E-01 -0.21454394110E-01  0.66260850687E-01  0.51100000000E-03 0.  1.
         11    1    4    4    0    0 -0.15955832676E-02 -0.55719220760E-01 -0.36988975762E-01  0.66900096390E-01  0.51100000000E-03 0. -1.
</event>
<event>
 8    1  0.1095698E+005  0.1043930E+01  0.7957747E-01            NaN
         13   -1    0    0    0    0  0.00000000000E+00  0.00000000000E+00  0.74505805969E-08  0.10566000000E+00  0.10566000000E+00 0.  1.
     999900   -1    0    0    0    0 -0.00000000000E+00 -0.00000000000E+00 -0.74505805969E-08  0.93827000000E+00  0.93827000000E+00 0.  1.
     999902    2    1    2    0    0  0.21110254863E-01 -0.12404606543E-01  0.80157924277E-04  0.10194448300E+01  0.10191507435E+01 0.  0.
     999903    2    3    3    0    0 -0.16305392990E-01 -0.11360756859E+00 -0.59426872714E-01  0.13085996804E+00  0.20499574498E-01 0.  0.
         14    1    1    2    0    0 -0.21110254863E-01  0.12404606543E-01 -0.80157924277E-04  0.24485169984E-01  0.00000000000E+00 0. -1.
     999901    1    3    3    0    0  0.37415647853E-01  0.10120296204E+00  0.59507030639E-01  0.88858486197E+00  0.88000000000E+00 0. -1.
        -11    1    4    4    0    0 -0.83468466026E-02 -0.81187330166E-01 -0.51625784674E-01  0.96573988175E-01  0.51100000000E-03 0.  1.
         11    1    4    4    0    0 -0.79585463878E-02 -0.32420238422E-01 -0.78010880400E-02  0.34285979869E-01  0.51100000000E-03 0. -1.
</event>
<event>
 8    1  0.1095698E+005  0.1043930E+01  0.7957747E-01            NaN
         13   -1    0    0    0    0  0.00000000000E+00  0.00000000000E+00  0.74505805969E-08  0.10566000000E+00  0.10566000000E+00 0.  1.
     999900   -1    0    0    0    0 -0.00000000000E+00 -0.00000000000E+00 -0.74505805969E-08  0.93827000000E+00  0.93827000000E+00 0. -1.
     999902    2    1    2    0    0  0.55774610522E-02  0.10627071559E-01 -0.21052770698E-01  0.10196965133E+01  0.10194085135E+01 0.  0.
     999903    2    3    3    0    0 -0.11591392726E+00  0.51533071790E-01  0.17589866098E-01  0.12956915635E+00  0.19674015010E-01 0.  0.
         14    1    1    2    0    0 -0.55774610522E-02 -0.10627071559E-01  0.21052770698E-01  0.24233486662E-01  0.00000000000E+00 0.  1.
     999901    1    3    3    0    0  0.12149138831E+00 -0.40906000231E-01 -0.38642636797E-01  0.89012735699E+00  0.88000000000E+00 0. -1.
        -11    1    4    4    0    0 -0.78472055220E-01  0.28158237532E-01  0.18571040896E-01  0.85416008290E-01  0.51100000000E-03 0. -1.
         11    1    4    4    0    0 -0.37441872037E-01  0.23374834258E-01 -0.98117479721E-03  0.44153148055E-01  0.51100000000E-03 0.  1.
</event>
<event>
 8    1  0.1095698E+005  0.1043930E+01  0.7957747E-01            NaN
         13   -1    0    0    0    0  0.00000000000E+00  0.00000000000E+00  0.74505805969E-08  0.10566000000E+00  0.10566000000E+00 0.  1.
     999900   -1    0    0    0    0 -0.00000000000E+00 -0.00000000000E+00 -0.74505805969E-08  0.93827000000E+00  0.93827000000E+00 0. -1.
     999902    2    1    2    0    0 -0.74155345948E-02  0.19730021707E-01 -0.14064148902E-02  0.10228055612E+01  0.10225873920E+01 0.  0.
     999903    2    3    3    0    0 -0.70515259197E-02 -0.95449767029E-01 -0.87325656671E-01  0.13115056499E+00  0.20354811241E-01 0.  0.
         14    1    1    2    0    0  0.74155345948E-02 -0.19730021707E-01  0.14064148902E-02  0.21124438756E-01  0.00000000000E+00 0. -1.
     999901    1    3    3    0    0 -0.36400867508E-03  0.11517978874E+00  0.85919241781E-01  0.89165499625E+00  0.88000000000E+00 0.  1.
        -11    1    4    4    0    0 -0.13043556265E-01 -0.49725967866E-01 -0.40708892361E-01  0.65576529936E-01  0.51100000000E-03 0. -1.
         11    1    4    4    0    0  0.59920303451E-02 -0.45723799163E-01 -0.46616764310E-01  0.65574035054E-01  0.51100000000E-03 0.  1.
</event>
<event>
 8    1  0.1095698E+005  0.1043930E+01  0.7957747E-01            NaN
         13   -1    0    0    0    0  0.00000000000E+00  0.00000000000E+00  0.74505805969E-08  0.10566000000E+00  0.10566000000E+00 0. -1.
     999900   -1    0    0    0    0 -0.00000000000E+00 -0.00000000000E+00 -0.74505805969E-08  0.93827000000E+00  0.93827000000E+00 0. -1.
     999902    2    1    2    0    0 -0.12047484618E-01 -0.18823929154E-01  0.95261409572E-02  0.10196353595E+01  0.10193458867E+01 0.  0.
     999903    2    3    3    0    0 -0.79278102472E-01  0.69308081793E-01 -0.71675212359E-01  0.12897219810E+00  0.20195645150E-01 0.  0.
         14    1    1    2    0    0  0.12047484618E-01  0.18823929154E-01 -0.95261409572E-02  0.24294640478E-01  0.00000000000E+00 0. -1.
     999901    1    3    3    0    0  0.67230617854E-01 -0.88132010947E-01  0.81201353316E-01  0.89066316142E+00  0.88000000000E+00 0. -1.
        -11    1    4    4    0    0 -0.62556410810E-01  0.48336150753E-01 -0.61945817911E-01  0.10043522032E+00  0.51100000000E-03 0.  1.
         11    1    4    4    0    0 -0.16721691662E-01  0.20971931040E-01 -0.97293944485E-02  0.28536977782E-01  0.51100000000E-03 0. -1.
</event>
<event>
 8    1  0.1095698E+005  0.1043930E+01  0.7957747E-01            NaN
         13   -1    0    0    0    0  0.00000000000E+00  0.00000000000E+00  0.74505805969E-08  0.10566000000E+00  0.10566000000E+00 0.  1.
     999900   -1    0    0    0    0 -0.00000000000E+00 -0.00000000000E+00 -0.74505805969E-08  0.93827000000E+00  0.93827000000E+00 0.  1.
     999902    2    1    2    0    0  0.27617587954E-02  0.15199980801E-01  0.17920578576E-01  0.10202696140E+01  0.10199952311E+01 0.  0.
     999903    2    3    3    0    0 -0.99161315165E-01 -0.78502578990E-01  0.20663284754E-01  0.12944078358E+00  0.18229749953E-01 0.  0.
         14    1    1    2    0    0 -0.27617587954E-02 -0.15199980801E-01 -0.17920578576E-01  0.23660385975E-01  0.00000000000E+00 0. -1.
     999901    1    3    3    0    0  0.10192307396E+00  0.93702559791E-01 -0.27427061781E-02  0.89082883045E+00  0.88000000000E+00 0. -1.
        -11    1    4    4    0    0 -0.62567573106E-01 -0.48401714161E-01  0.39865166784E-02  0.79205937746E-01  0.51100000000E-03 0.  1.
         11    1    4    4    0    0 -0.36593742059E-01 -0.30100864829E-01  0.16676768075E-01  0.50234845832E-01  0.51100000000E-03 0. -1.
</event>
<event>
 8    1  0.1095698E+005  0.1043930E+01  0.7957747E-01            NaN
         13   -1    0    0    0    0  0.00000000000E+00  0.00000000000E+00  0.74505805969E-08  0.10566000000E+00  0.10566000000E+00 0.  1.
     999900   -1    0    0    0    0 -0.00000000000E+00 -0.00000000000E+00 -0.74505805969E-08  0.93827000000E+00  0.93827000000E+00 0. -1.
     999902    2    1    2    0    0 -0.23588502983E-01 -0.14148638068E-01  0.18224659162E-01  0.10109339452E+01  0.10103953196E+01 0.  0.
     999903    2    3    3    0    0 -0.40392788004E-01  0.94400769560E-01 -0.59423929082E-01  0.12071225304E+00  0.22297131456E-01 0.  0.
         14    1    1    2    0    0  0.23588502983E-01  0.14148638068E-01 -0.18224659162E-01  0.32996054820E-01  0.00000000000E+00 0.  1.
     999901    1    3    3    0    0  0.16804285020E-01 -0.10854940763E+00  0.77648588244E-01  0.89022169214E+00  0.88000000000E+00 0.  1.
        -11    1    4    4    0    0 -0.12797995579E-01  0.45424098302E-01 -0.37845678460E-01  0.60495403929E-01  0.51100000000E-03 0. -1.
         11    1    4    4    0    0 -0.27594792425E-01  0.48976671258E-01 -0.21578250622E-01  0.60216849115E-01  0.51100000000E-03 0.  1.
</event>
<event>
 8    1  0.1095698E+005  0.1043930E+01  0.7957747E-01            NaN
         13   -1    0    0    0    0  0.00000000000E+00  0.00000000000E+00  0.74505805969E-08  0.10566000000E+00  0.10566000000E+00 0.  1.
     999900   -1    0    0    0    0 -0.00000000000E+00 -0.00000000000E+00 -0.74505805969E-08  0.93827000000E+00  0.93827000000E+00 0. -1.
     999902    2    1    2    0    0  0.21818535552E-01 -0.57611937449E-02 -0.39575639146E-02  0.10210192567E+01  0.10207621762E+01 0.  0.
     999903    2    3    3    0    0 -0.42018910913E-01  0.43182097205E-01 -0.11398235772E+00  0.13052719016E+00  0.20373686634E-01 0.  0.
         14    1    1    2    0    0 -0.21818535552E-01  0.57611937449E-02  0.39575639146E-02  0.22910743313E-01  0.00000000000E+00 0.  1.
     999901    1    3    3    0    0  0.63837446465E-01 -0.48943290950E-01  0.11002479380E+00  0.89049206653E+00  0.88000000000E+00 0.  1.
        -11    1    4    4    0    0 -0.59797133998E-02  0.15029390726E-02 -0.36056332514E-02  0.71608316796E-02  0.51100000000E-03 0.  1.
         11    1    4    4    0    0 -0.36039197513E-01  0.41679158132E-01 -0.11037672446E+00  0.12336635848E+00  0.51100000000E-03 0. -1.
</event>
<event>
 8    1  0.1095698E+005  0.1043930E+01  0.7957747E-01            NaN
         13   -1    0    0    0    0  0.00000000000E+00  0.00000000000E+00  0.74505805969E-08  0.10566000000E+00  0.10566000000E+00 0.  1.
     999900   -1    0    0    0    0 -0.00000000000E+00 -0.00000000000E+00 -0.74505805969E-08  0.93827000000E+00  0.93827000000E+00 0.  1.
     999902    2    1    2    0    0  0.14248833271E-01 -0.18025143902E-01  0.49250894938E-02  0.10204312433E+01  0.10201606396E+01 0.  0.
     999903    2    3    3    0    0  0.56080617817E-01 -0.10871405527E+00  0.51571794723E-01  0.13355453708E+00  0.14607630024E-01 0.  0.
         14    1    1    2    0    0 -0.14248833271E-01  0.18025143902E-01 -0.49250894938E-02  0.23498756750E-01  0.00000000000E+00 0. -1.
     999901    1    3    3    0    0 -0.41831784547E-01  0.90688911368E-01 -0.46646705230E-01  0.88687670617E+00  0.88000000000E+00 0.  1.
        -11    1    4    4    0    0  0.22418021108E-01 -0.31029980602E-01  0.12191134093E-01  0.40178504677E-01  0.51100000000E-03 0.  1.
         11    1    4    4    0    0  0.33662596709E-01 -0.77684074668E-01  0.39380660631E-01  0.93376032401E-01  0.51100000000E-03 0. -1.
</event>
<event>
 8    1  0.1095698E+005  0.1043930E+01  0.7957747E-01            NaN
         13   -1    0    0    0    0  0.00000000000E+00  0.00000000000E+00  0.74505805969E-08  0.10566000000E+00  0.10566000000E+00 0. -1.
     999900   -1    0    0    0    0 -0.00000000000E+00 -0.00000000000E+00 -0.74505805969E-08  0.93827000000E+00  0.93827000000E+00 0. -1.
     999902    2    1    2    0    0  0.20343871190E-01  0.24777357259E-02 -0.98598101729E-02  0.10211873501E+01  0.10209340703E+01 0.  0.
     999903    2    3    3    0    0 -0.11678230400E+00 -0.47782686805E-01  0.14622368356E-01  0.12881462802E+00  0.21403342001E-01 0.  0.
         14    1    1    2    0    0 -0.20343871190E-01 -0.24777357259E-02  0.98598101729E-02  0.22742649933E-01  0.00000000000E+00 0. -1.
     999901    1    3    3    0    0  0.13712617519E+00  0.50260422531E-01 -0.24482178529E-01  0.89237272205E+00  0.88000000000E+00 0. -1.
        -11    1    4    4    0    0 -0.37611694923E-01 -0.14958830271E-01  0.14818902565E-01  0.43107623366E-01  0.51100000000E-03 0.  1.
         11    1    4    4    0    0 -0.79170609077E-01 -0.32823856534E-01 -0.19653420891E-03  0.85707004650E-01  0.51100000000E-03 0. -1.
</event>
<event>
 8    1  0.1095698E+005  0.1043930E+01  0.7957747E-01            NaN
         13   -1    0    0    0    0  0.00000000000E+00  0.00000000000E+00  0.74505805969E-08  0.10566000000E+00  0.10566000000E+00 0.  1.
     999900   -1    0    0    0    0 -0.00000000000E+00 -0.00000000000E+00 -0.74505805969E-08  0.93827000000E+00  0.93827000000E+00 0. -1.
     999902    2    1    2    0    0  0.16870222700E-02  0.14097748731E-01 -0.19544706694E-01  0.10197724313E+01  0.10194862547E+01 0.  0.
     999903    2    3    3    0    0 -0.11156948260E+00 -0.53141872647E-01  0.29792165535E-01  0.12860335113E+00  0.19479238099E-01 0.  0.
         14    1    1    2    0    0 -0.16870222700E-02 -0.14097748731E-01  0.19544706694E-01  0.24157568652E-01  0.00000000000E+00 0. -1.
     999901    1    3    3    0    0  0.11325650487E+00  0.67239621378E-01 -0.49336872229E-01  0.89116908022E+00  0.88000000000E+00 0. -1.
        -11    1    4    4    0    0 -0.81525582788E-01 -0.45985971778E-01  0.27832635174E-01  0.97652685324E-01  0.51100000000E-03 0.  1.
         11    1    4    4    0    0 -0.30043899817E-01 -0.71559008687E-02  0.19595303606E-02  0.30950665804E-01  0.51100000000E-03 0. -1.
</event>
<event>
 7    1  0.1496707E+005  0.1043930E+01  0.7957747E-01            NaN
         13   -1    0    0    0    0  0.00000000000E+00  0.00000000000E+00  0.74505805969E-08  0.10566000000E+00  0.10566000000E+00 0.  1.
     999900   -1    0    0    0    0 -0.00000000000E+00 -0.00000000000E+00 -0.74505805969E-08  0.93827000000E+00  0.93827000000E+00 0.  1.
     999903    2    1    2    0    0  0.60929129715E-01 -0.88648057763E-01 -0.16605113079E-01  0.11068511382E+00  0.20115358504E-01 0.  0.
         14    1    1    2    0    0 -0.20324041644E-01 -0.37322030935E-01  0.83481480552E-02  0.43309262725E-01  0.00000000000E+00 0.  1.
     999901    1    1    2    0    0 -0.40605088071E-01  0.12597008870E+00  0.82569650240E-02  0.88993562346E+00  0.88000000000E+00 0. -1.
        -11    1    3    3    0    0  0.32417792251E-01 -0.63666150934E-01 -0.88925948691E-02  0.71997440188E-01  0.51100000000E-03 0.  1.
         11    1    3    3    0    0  0.28511337464E-01 -0.24981906830E-01 -0.77125182100E-02  0.38687673631E-01  0.51100000000E-03 0. -1.
</event>
<event>
 8    1  0.1095698E+005  0.1043930E+01  0.7957747E-01            NaN
         13   -1    0    0    0    0  0.00000000000E+00  0.00000000000E+00  0.74505805969E-08  0.10566000000E+00  0.10566000000E+00 0.  1.
     999900   -1    0    0    0    0 -0.00000000000E+00 -0.00000000000E+00 -0.74505805969E-08  0.93827000000E+00  0.93827000000E+00 0.  1.
     999902    2    1    2    0    0 -0.13375452470E-01 -0.20001093779E-01  0.11694150819E-03  0.10198684091E+01  0.10195845290E+01 0.  0.
     999903    2    3    3    0    0 -0.72966017358E-01  0.89522150108E-01  0.53982464596E-01  0.12944835601E+00  0.22461418932E-01 0.  0.
         14    1    1    2    0    0  0.13375452470E-01  0.20001093779E-01 -0.11694150819E-03  0.24061590896E-01  0.00000000000E+00 0. -1.
     999901    1    3    3    0    0  0.59590564888E-01 -0.10952324389E+00 -0.53865523088E-01  0.89042005309E+00  0.88000000000E+00 0.  1.
        -11    1    4    4    0    0 -0.58704657782E-01  0.83668852093E-01  0.47714550398E-01  0.11279917152E+00  0.51100000000E-03 0. -1.
         11    1    4    4    0    0 -0.14261359576E-01  0.58532980154E-02  0.62679141985E-02  0.16649184485E-01  0.51100000000E-03 0.  1.
</event>
<event>
 8    1  0.1095698E+005  0.1043930E+01  0.7957747E-01            NaN
         13   -1    0    0    0    0  0.00000000000E+00  0.00000000000E+00  0.74505805969E-08  0.10566000000E+00  0.10566000000E+00 0.  1.
     999900   -1    0    0    0    0 -0.00000000000E+00 -0.00000000000E+00 -0.74505805969E-08  0.93827000000E+00  0.93827000000E+00 0. -1.
     999902    2    1    2    0    0  0.95823467879E-02 -0.17459559911E-01  0.11002586650E-01  0.10211766593E+01  0.10209231386E+01 0.  0.
     999903    2    3    3    0    0  0.17233249055E-01  0.12544071056E+00  0.18583160028E-01  0.12958455033E+00  0.20358416128E-01 0.  0.
         14    1    1    2    0    0 -0.95823467879E-02  0.17459559911E-01 -0.11002586650E-01  0.22753340749E-01  0.00000000000E+00 0.  1.
     999901    1    3    3    0    0 -0.76509022675E-02 -0.14290027047E+00 -0.75805733781E-02  0.89159210893E+00  0.88000000000E+00 0.  1.
        -11    1    4    4    0    0  0.84570159551E-02  0.94392869507E-01  0.21513070731E-01  0.97183374432E-01  0.51100000000E-03 0. -1.
         11    1    4    4    0    0  0.87762331004E-02  0.31047841054E-01 -0.29299107033E-02  0.32401175893E-01  0.51100000000E-03 0.  1.
</event>
<event>
 8    1  0.1095698E+005  0.1043930E+01  0.7957747E-01            NaN
         13   -1    0    0    0    0  0.00000000000E+00  0.00000000000E+00  0.74505805969E-08  0.10566000000E+00  0.10566000000E+00 0. -1.
     999900   -1    0    0    0    0 -0.00000000000E+00 -0.00000000000E+00 -0.74505805969E-08  0.93827000000E+00  0.93827000000E+00 0. -1.
     999902    2    1    2    0    0  0.84353324254E-02  0.20344893015E-01 -0.44081889217E-02  0.10214688862E+01  0.10212219072E+01 0.  0.
     999903    2    3    3    0    0 -0.78508370365E-01 -0.53728893895E-01 -0.86898126577E-01  0.13026143379E+00  0.19141537926E-01 0.  0.
         14    1    1    2    0    0 -0.84353324254E-02 -0.20344893015E-01  0.44081889217E-02  0.22461113830E-01  0.00000000000E+00 0. -1.
     999901    1    3    3    0    0  0.86943702790E-01  0.74073786909E-01  0.82489937656E-01  0.89120745238E+00  0.88000000000E+00 0.  1.
        -11    1    4    4    0    0 -0.75093312897E-01 -0.50362486973E-01 -0.75184826938E-01  0.11759423905E+00  0.51100000000E-03 0. -1.
         11    1    4    4    0    0 -0.34150574679E-02 -0.33664069219E-02 -0.11713299639E-01  0.12667194737E-01  0.51100000000E-03 0.  1.
</event>
<event>
 8    1  0.1095698E+005  0.1043930E+01  0.7957747E-01            NaN
         13   -1    0    0    0    0  0.00000000000E+00  0.00000000000E+00  0.74505805969E-08  0.10566000000E+00  0.10566000000E+00 0. -1.
     999900   -1    0    0    0    0 -0.00000000000E+00 -0.00000000000E+00 -0.74505805969E-08  0.93827000000E+00  0.93827000000E+00 0. -1.
     999902    2    1    2    0    0 -0.42883588361E-02 -0.22953443932E-01  0.27266954978E-02  0.10204207363E+01  0.10201498878E+01 0.  0.
     999903    2    3    3    0    0  0.30535087609E-01  0.73675695572E-01  0.99620534137E-01  0.12916416329E+00  0.19965734739E-01 0.  0.
         14    1    1    2    0    0  0.42883588361E-02  0.22953443932E-01 -0.27266954978E-02  0.23509263667E-01  0.00000000000E+00 0.  1.
     999901    1    3    3    0    0 -0.34823446445E-01 -0.96629139504E-01 -0.96893838639E-01  0.89125657304E+00  0.88000000000E+00 0. -1.
        -11    1    4    4    0    0  0.40666324816E-02  0.35498616211E-01  0.41845353602E-01  0.55027120511E-01  0.51100000000E-03 0. -1.
         11    1    4    4    0    0  0.26468455127E-01  0.38177079361E-01  0.57775180534E-01  0.74137042780E-01  0.51100000000E-03 0.  1.
</event>
<event>
 8    1  0.1095698E+005  0.1043930E+01  0.7957747E-01            NaN
         13   -1    0    0    0    0  0.00000000000E+00  0.00000000000E+00  0.74505805969E-08  0.10566000000E+00  0.10566000000E+00 0.  1.
     999900   -1    0    0    0    0 -0.00000000000E+00 -0.00000000000E+00 -0.74505805969E-08  0.93827000000E+00  0.93827000000E+00 0.  1.
     999902    2    1    2    0    0 -0.20445598420E-01 -0.90393881925E-02  0.11877816957E-01  0.10186156647E+01  0.10183010640E+01 0.  0.
     999903    2    3    3    0    0  0.78838722809E-01  0.78521832169E-01 -0.56060888179E-01  0.12612476204E+00  0.19580859937E-01 0.  0.
         14    1    1    2    0    0  0.20445598420E-01  0.90393881925E-02 -0.11877816957E-01  0.25314335253E-01  0.00000000000E+00 0. -1.
     999901    1    3    3    0    0 -0.99284321228E-01 -0.87561220362E-01  0.67938705136E-01  0.89249090270E+00  0.88000000000E+00 0. -1.
        -11    1    4    4    0    0  0.46700701224E-01  0.45108779347E-01 -0.43276530980E-01  0.78031254787E-01  0.51100000000E-03 0.  1.
         11    1    4    4    0    0  0.32138021584E-01  0.33413052822E-01 -0.12784357199E-01  0.48093507256E-01  0.51100000000E-03 0. -1.
</event>
<event>
 8    1  0.1095698E+005  0.1043930E+01  0.7957747E-01            NaN
         13   -1    0    0    0    0  0.00000000000E+00  0.00000000000E+00  0.74505805969E-08  0.10566000000E+00  0.10566000000E+00 0. -1.
     999900   -1    0    0    0    0 -0.00000000000E+00 -0.00000000000E+00 -0.74505805969E-08  0.93827000000E+00  0.93827000000E+00 0.  1.
     999902    2    1    2    0    0 -0.13252888984E-01  0.14400107693E-01  0.16621894707E-01  0.10182533656E+01  0.10179295787E+01 0.  0.
     999903    2    3    3    0    0  0.13212661102E-01 -0.10818953753E+00 -0.60127704627E-01  0.12605431417E+00  0.19869544838E-01 0.  0.
         14    1    1    2    0    0  0.13252888984E-01 -0.14400107693E-01 -0.16621894707E-01  0.25676634352E-01  0.00000000000E+00 0.  1.
     999901    1    3    3    0    0 -0.26465550086E-01  0.12258964523E+00  0.76749599334E-01  0.89219905148E+00  0.88000000000E+00 0. -1.
        -11    1    4    4    0    0  0.16842626211E-01 -0.90555026078E-01 -0.44909204041E-01  0.10247431158E+00  0.51100000000E-03 0.  1.
         11    1    4    4    0    0 -0.36299651088E-02 -0.17634511457E-01 -0.15218500586E-01  0.23580002589E-01  0.51100000000E-03 0. -1.
</event>
<event>
 8    1  0.1095698E+005  0.1043930E+01  0.7957747E-01            NaN
         13   -1    0    0    0    0  0.00000000000E+00  0.00000000000E+00  0.74505805969E-08  0.10566000000E+00  0.10566000000E+00 0.  1.
     999900   -1    0    0    0    0 -0.00000000000E+00 -0.00000000000E+00 -0.74505805969E-08  0.93827000000E+00  0.93827000000E+00 0.  1.
     999902    2    1    2    0    0  0.21488884010E-01 -0.72765495011E-02  0.89595893611E-02  0.10195374899E+01  0.10192456518E+01 0.  0.
     999903    2    3    3    0    0 -0.59869805873E-02  0.12621679069E+00  0.16097999240E-01  0.12901721953E+00  0.20488415412E-01 0.  0.
         14    1    1    2    0    0 -0.21488884010E-01  0.72765495011E-02 -0.89595893611E-02  0.24392510124E-01  0.00000000000E+00 0.  1.
     999901    1    3    3    0    0  0.27475864597E-01 -0.13349334019E+00 -0.71384098794E-02  0.89052027035E+00  0.88000000000E+00 0. -1.
        -11    1    4    4    0    0 -0.11065223784E-01  0.10958194445E+00  0.10058741905E-01  0.11059873930E+00  0.51100000000E-03 0.  1.
         11    1    4    4    0    0  0.50782431967E-02  0.16634846243E-01  0.60392573353E-02  0.18418480221E-01  0.51100000000E-03 0. -1.
</event>
<event>
 8    1  0.1095698E+005  0.1043930E+01  0.7957747E-01            NaN
         13   -1    0    0    0    0  0.00000000000E+00  0.00000000000E+00  0.74505805969E-08  0.10566000000E+00  0.10566000000E+00 0. -1.
     999900   -1    0    0    0    0 -0.00000000000E+00 -0.00000000000E+00 -0.74505805969E-08  0.93827000000E+00  0.93827000000E+00 0. -1.
     999902    2    1    2    0    0 -0.10639533764E-01  0.83693257291E-02 -0.19311440073E-01  0.10203465946E+01  0.10200740150E+01 0.  0.
     999903    2    3    3    0    0 -0.72010871141E-01 -0.10636751848E+00 -0.14454973879E-01  0.13076547424E+00  0.19774944534E-01 0.  0.
         14    1    1    2    0    0  0.10639533764E-01 -0.83693257291E-02  0.19311440073E-01  0.23583405385E-01  0.00000000000E+00 0. -1.
     999901    1    3    3    0    0  0.61371337377E-01  0.11473684421E+00 -0.48564661936E-02  0.88958112038E+00  0.88000000000E+00 0.  1.
        -11    1    4    4    0    0 -0.36386810293E-01 -0.38543105786E-01 -0.10590909407E-01  0.54055521919E-01  0.51100000000E-03 0.  1.
         11    1    4    4    0    0 -0.35624060849E-01 -0.67824412697E-01 -0.38640644722E-02  0.76709952316E-01  0.51100000000E-03 0. -1.
</event>
<event>
 8    1  0.1095698E+005  0.1043930E+01  0.7957747E-01            NaN
         13   -1    0    0    0    0  0.00000000000E+00  0.00000000000E+00  0.74505805969E-08  0.10566000000E+00  0.10566000000E+00 0. -1.
     999900   -1    0    0    0    0 -0.00000000000E+00 -0.00000000000E+00 -0.74505805969E-08  0.93827000000E+00  0.93827000000E+00 0.  1.
     999902    2    1    2    0    0  0.19370999128E-01 -0.65298756536E-02 -0.11327922057E-01  0.10205591485E+01  0.10202915166E+01 0.  0.
     999903    2    3    3    0    0  0.43044215249E-01  0.10466035940E+00  0.61526052080E-01  0.13026066420E+00  0.19385310347E-01 0.  0.
         14    1    1    2    0    0 -0.19370999128E-01  0.65298756536E-02  0.11327922057E-01  0.23370851533E-01  0.00000000000E+00 0. -1.
     999901    1    3    3    0    0 -0.23673216121E-01 -0.11119023506E+00 -0.72853974137E-01  0.89029848426E+00  0.88000000000E+00 0.  1.
        -11    1    4    4    0    0  0.26220445979E-01  0.48113361033E-01  0.20994316636E-01  0.58680744280E-01  0.51100000000E-03 0. -1.
         11    1    4    4    0    0  0.16823769270E-01  0.56546998372E-01  0.40531735443E-01  0.71579919924E-01  0.51100000000E-03 0.  1.
</event>
<event>
 8    1  0.1095698E+005  0.1043930E+01  0.7957747E-01            NaN
         13   -1    0    0    0    0  0.00000000000E+00  0.00000000000E+00  0.74505805969E-08  0.10566000000E+00  0.10566000000E+00 0. -1.
     999900   -1    0    0    0    0 -0.00000000000E+00 -0.00000000000E+00 -0.74505805969E-08  0.93827000000E+00  0.93827000000E+00 0. -1.
     999902    2    1    2    0    0  0.11824493044E-01 -0.16856302917E-01 -0.22756987443E-01  0.10132406849E+01  0.10127758150E+01 0.  0.
     999903    2    3    3    0    0  0.47540011992E-01  0.40232088607E-01 -0.10628554823E+00  0.12672407298E+00  0.29727078825E-01 0.  0.
         14    1    1    2    0    0 -0.11824493044E-01  0.16856302917E-01  0.22756987443E-01  0.30689315100E-01  0.00000000000E+00 0.  1.
     999901    1    3    3    0    0 -0.35715518948E-01 -0.57088391524E-01  0.83528560792E-01  0.88651661192E+00  0.88000000000E+00 0.  1.
        -11    1    4    4    0    0  0.47948584522E-02 -0.43167600110E-02 -0.16820427233E-01  0.18022568570E-01  0.51100000000E-03 0. -1.
         11    1    4    4    0    0  0.42745153540E-01  0.44548848618E-01 -0.89465121002E-01  0.10870150441E+00  0.51100000000E-03 0.  1.
</event>
<event>
 8    1  0.1095698E+005  0.1043930E+01  0.7957747E-01            NaN
         13   -1    0    0    0    0  0.00000000000E+00  0.00000000000E+00  0.74505805969E-08  0.10566000000E+00  0.10566000000E+00 0. -1.
     999900   -1    0    0    0    0 -0.00000000000E+00 -0.00000000000E+00 -0.74505805969E-08  0.93827000000E+00  0.93827000000E+00 0. -1.
     999902    2    1    2    0    0  0.21782218803E-01 -0.40033040128E-02 -0.99379673073E-02  0.10196554311E+01  0.10193664422E+01 0.  0.
     999903    2    3    3    0    0  0.36767814939E-01  0.12286443877E+00  0.10296571457E-01  0.13020086299E+00  0.19967543886E-01 0.  0.
         14    1    1    2    0    0 -0.21782218803E-01  0.40033040128E-02  0.99379673073E-02  0.24274568857E-01  0.00000000000E+00 0. -1.
     999901    1    3    3    0    0 -0.14985596137E-01 -0.12686774279E+00 -0.20234538764E-01  0.88945456815E+00  0.88000000000E+00 0. -1.
        -11    1    4    4    0    0  0.38002719444E-01  0.10146166506E+00  0.88800012309E-02  0.10870966703E+00  0.51100000000E-03 0. -1.
         11    1    4    4    0    0 -0.12349045044E-02  0.21402773711E-01  0.14165702262E-02  0.21491195961E-01  0.51100000000E-03 0.  1.
</event>
<event>
 8    1  0.1095698E+005  0.1043930E+01  0.7957747E-01            NaN
         13   -1    0    0    0    0  0.00000000000E+00  0.00000000000E+00  0.74505805969E-08  0.10566000000E+00  0.10566000000E+00 0. -1.
     999900   -1    0    0    0    0 -0.00000000000E+00 -0.00000000000E+00 -0.74505805969E-08  0.93827000000E+00  0.93827000000E+00 0.  1.
     999902    2    1    2    0    0  0.18853822073E-01 -0.62755016312E-02 -0.12671208827E-01  0.10203629030E+01  0.10200907047E+01 0.  0.
     999903    2    3    3    0    0  0.13009403424E+00  0.12547175534E-01 -0.16784417128E-01  0.13315064179E+00  0.19117724494E-01 0.  0.
         14    1    1    2    0    0 -0.18853822073E-01  0.62755016312E-02  0.12671208827E-01  0.23567096992E-01  0.00000000000E+00 0.  1.
     999901    1    3    3    0    0 -0.11124021217E+00 -0.18822677165E-01  0.41132083014E-02  0.88721226122E+00  0.88000000000E+00 0. -1.
        -11    1    4    4    0    0  0.77960816391E-01 -0.18210207669E-02 -0.11194410319E-01  0.78783126063E-01  0.51100000000E-03 0. -1.
         11    1    4    4    0    0  0.52133217854E-01  0.14368196301E-01 -0.55900068096E-02  0.54367515723E-01  0.51100000000E-03 0.  1.
</event>
<event>
 8    1  0.1095698E+005  0.1043930E+01  0.7957747E-01            NaN
         13   -1    0    0    0    0  0.00000000000E+00  0.00000000000E+00  0.74505805969E-08  0.10566000000E+00  0.10566000000E+00 0.  1.
     999900   -1    0    0    0    0 -0.00000000000E+00 -0.00000000000E+00 -0.74505805969E-08  0.93827000000E+00  0.93827000000E+00 0. -1.
     999902    2    1    2    0    0  0.58922242496E-02  0.59295723628E-02 -0.22252044286E-01  0.10201596064E+01  0.10198826359E+01 0.  0.
     999903    2    3    3    0    0 -0.11470625505E+00  0.21044531519E-01 -0.56692603832E-01  0.13113845521E+00  0.19566447026E-01 0.  0.
         14    1    1    2    0    0 -0.58922242496E-02 -0.59295723628E-02  0.22252044286E-01  0.23770393558E-01  0.00000000000E+00 0.  1.
     999901    1    3    3    0    0  0.12059847930E+00 -0.15114959157E-01  0.34440559546E-01  0.88902115123E+00  0.88000000000E+00 0.  1.
        -11    1    4    4    0    0 -0.20793420078E-01 -0.35342504076E-02 -0.11941628617E-01  0.24242954843E-01  0.51100000000E-03 0.  1.
         11    1    4    4    0    0 -0.93912834977E-01  0.24578781927E-01 -0.44750975215E-01  0.10689550036E+00  0.51100000000E-03 0. -1.
</event>
<event>
 8    1  0.1095698E+005  0.1043930E+01  0.7957747E-01            NaN
         13   -1    0    0    0    0  0.00000000000E+00  0.00000000000E+00  0.74505805969E-08  0.10566000000E+00  0.10566000000E+00 0. -1.
     999900   -1    0    0    0    0 -0.00000000000E+00 -0.00000000000E+00 -0.74505805969E-08  0.93827000000E+00  0.93827000000E+00 0.  1.
     999902    2    1    2    0    0  0.41184118624E-02  0.21740833535E-01  0.10154159939E-01  0.10195839095E+01  0.10192931945E+01 0.  0.
     999903    2    3    3    0    0  0.53589668376E-01  0.10716793118E+00 -0.51461448620E-01  0.13192311986E+00  0.19965240505E-01 0.  0.
         14    1    1    2    0    0 -0.41184118624E-02 -0.21740833535E-01 -0.10154159939E-01  0.24346090510E-01  0.00000000000E+00 0. -1.
     999901    1    3    3    0    0 -0.49471256513E-01 -0.85427097647E-01  0.61615608559E-01  0.88766078963E+00  0.88000000000E+00 0. -1.
        -11    1    4    4    0    0  0.30748553690E-01  0.41929709125E-01 -0.27070349958E-01  0.58622854154E-01  0.51100000000E-03 0. -1.
         11    1    4    4    0    0  0.22841114685E-01  0.65238222057E-01 -0.24391098662E-01  0.73300265703E-01  0.51100000000E-03 0.  1.
</event>
<event>
 8    1  0.1095698E+005  0.1043930E+01  0.7957747E-01            NaN
         13   -1    0    0    0    0  0.00000000000E+00  0.00000000000E+00  0.74505805969E-08  0.10566000000E+00  0.10566000000E+00 0.  1.
     999900   -1    0    0    0    0 -0.00000000000E+00 -0.00000000000E+00 -0.74505805969E-08  0.93827000000E+00  0.93827000000E+00 0. -1.
     999902    2    1    2    0    0 -0.15582191018E-01  0.71733439164E-02  0.16344320622E-01  0.10202361536E+01  0.10199609849E+01 0.  0.
     999903    2    3    3    0    0  0.52508114663E-01 -0.52496755203E-01 -0.10175532120E+00  0.12774282823E+00  0.21238487713E-01 0.  0.
         14    1    1    2    0    0  0.15582191018E-01 -0.71733439164E-02 -0.16344320622E-01  0.23693846383E-01  0.00000000000E+00 0. -1.
     999901    1    3    3    0    0 -0.68090305681E-01  0.59670099120E-01  0.11809964182E+00  0.89249332538E+00  0.88000000000E+00 0.  1.
        -11    1    4    4    0    0  0.57726231705E-02 -0.13141629408E-01 -0.31595768859E-01  0.34707050185E-01  0.51100000000E-03 0.  1.
         11    1    4    4    0    0  0.46735491493E-01 -0.39355125796E-01 -0.70159552339E-01  0.93035778047E-01  0.51100000000E-03 0. -1.
</event>
<event>
 8    1  0.1095698E+005  0.1043930E+01  0.7957747E-01            NaN
         13   -1    0    0    0    0  0.00000000000E+00  0.00000000000E+00  0.74505805969E-08  0.10566000000E+00  0.10566000000E+00 0.  1.
     999900   -1    0    0    0    0 -0.00000000000E+00 -0.00000000000E+00 -0.74505805969E-08  0.93827000000E+00  0.93827000000E+00 0. -1.
     999902    2    1    2    0    0  0.78417760407E-02 -0.20383126520E-01  0.14031497052E-01  0.10179714136E+01  0.10176403838E+01 0.  0.
     999903    2    3    3    0    0  0.11826783890E+00  0.24655959445E-01 -0.39498814528E-01  0.12831534023E+00  0.17591820121E-01 0.  0.
         14    1    1    2    0    0 -0.78417760407E-02  0.20383126520E-01 -0.14031497052E-01  0.25958586397E-01  0.00000000000E+00 0. -1.
     999901    1    3    3    0    0 -0.11042606286E+00 -0.45039085966E-01  0.53530311580E-01  0.88965607337E+00  0.88000000000E+00 0.  1.
        -11    1    4    4    0    0  0.51599353518E-01  0.78369513365E-02 -0.84589205610E-02  0.52874621018E-01  0.51100000000E-03 0. -1.
         11    1    4    4    0    0  0.66668485386E-01  0.16819008109E-01 -0.31039893967E-01  0.75440719217E-01  0.51100000000E-03 0.  1.
</event>
<event>
 8    1  0.1095698E+005  0.1043930E+01  0.7957747E-01            NaN
         13   -1    0    0    0    0  0.00000000000E+00  0.00000000000E+00  0.74505805969E-08  0.10566000000E+00  0.10566000000E+00 0. -1.
     999900   -1    0    0    0    0 -0.00000000000E+00 -0.00000000000E+00 -0.74505805969E-08  0.93827000000E+00  0.93827000000E+00 0.  1.
     999902    2    1    2    0    0 -0.31132614838E-03  0.17526076609E-01 -0.15079525815E-01  0.10208074486E+01  0.10205455378E+01 0.  0.
     999903    2    3    3    0    0  0.10771926272E+00  0.74520037193E-01  0.19650778828E-02  0.13220774220E+00  0.17842367052E-01 0.  0.
         14    1    1    2    0    0  0.31132614838E-03 -0.17526076609E-01  0.15079525815E-01  0.23122551418E-01  0.00000000000E+00 0.  1.
     999901    1    3    3    0    0 -0.10803058887E+00 -0.56993960584E-01 -0.17044603698E-01  0.88859970639E+00  0.88000000000E+00 0. -1.
        -11    1    4    4    0    0  0.81149182940E-01  0.56718387681E-01  0.91346081035E-02  0.99427700261E-01  0.51100000000E-03 0.  1.
         11    1    4    4    0    0  0.26570079777E-01  0.17801649512E-01 -0.71695302208E-02  0.32780041935E-01  0.51100000000E-03 0. -1.
</event>
<event>
 8    1  0.1095698E+005  0.1043930E+01  0.7957747E-01            NaN
         13   -1    0    0    0    0  0.00000000000E+00  0.00000000000E+00  0.74505805969E-08  0.10566000000E+00  0.10566000000E+00 0.  1.
     999900   -1    0    0    0    0 -0.00000000000E+00 -0.00000000000E+00 -0.74505805969E-08  0.93827000000E+00  0.93827000000E+00 0.  1.
     999902    2    1    2    0    0 -0.21945748101E-02  0.19881844109E-01  0.12469290030E-01  0.10203591053E+01  0.10200868182E+01 0.  0.
     999903    2    3    3    0    0 -0.73005132363E-01  0.10787819896E+00 -0.14570178951E-01  0.13272819865E+00  0.20905249120E-01 0.  0.
         14    1    1    2    0    0  0.21945748101E-02 -0.19881844109E-01 -0.12469290030E-01  0.23570894714E-01  0.00000000000E+00 0. -1.
     999901    1    3    3    0    0  0.70810557553E-01 -0.87996354850E-01  0.27039468981E-01  0.88763090663E+00  0.88000000000E+00 0. -1.
        -11    1    4    4    0    0 -0.43800079547E-01  0.63313728201E-01  0.17239065018E-02  0.77008493828E-01  0.51100000000E-03 0.  1.
         11    1    4    4    0    0 -0.29205052816E-01  0.44564470758E-01 -0.16294085453E-01  0.55719704824E-01  0.51100000000E-03 0. -1.
</event>
<event>
 7    1  0.2380737E+005  0.1043930E+01  0.7957747E-01            NaN
         13   -1    0    0    0    0  0.00000000000E+00  0.00000000000E+00  0.74505805969E-08  0.10566000000E+00  0.10566000000E+00 0. -1.
     999900   -1    0    0    0    0 -0.00000000000E+00 -0.00000000000E+00 -0.74505805969E-08  0.93827000000E+00  0.93827000000E+00 0. -1.
     999903    2    1    2    0    0  0.85428080864E-03 -0.35209166459E-01  0.75296348471E-01  0.85828664034E-01  0.21368300781E-01 0.  0.
         14    1    1    2    0    0 -0.98157179528E-02  0.36995749801E-01 -0.67990021238E-01  0.78023565736E-01  0.00000000000E+00 0.  1.
     999901    1    1    2    0    0  0.89614371442E-02 -0.17865833422E-02 -0.73063272336E-02  0.88007777023E+00  0.88000000000E+00 0.  1.
        -11    1    3    3    0    0 -0.45015023534E-02 -0.11508667357E-01  0.46650033521E-01  0.48261782979E-01  0.51100000000E-03 0.  1.
         11    1    3    3    0    0  0.53557831621E-02 -0.23700499102E-01  0.28646314950E-01  0.37566881055E-01  0.51100000000E-03 0. -1.
</event>
<event>
 8    1  0.1095698E+005  0.1043930E+01  0.7957747E-01            NaN
         13   -1    0    0    0    0  0.00000000000E+00  0.00000000000E+00  0.74505805969E-08  0.10566000000E+00  0.10566000000E+00 0. -1.
     999900   -1    0    0    0    0 -0.00000000000E+00 -0.00000000000E+00 -0.74505805969E-08  0.93827000000E+00  0.93827000000E+00 0. -1.
     999902    2    1    2    0    0  0.51395691453E-02  0.13616809831E-01 -0.15255607845E-01  0.10228452602E+01  0.10226279187E+01 0.  0.
     999903    2    3    3    0    0  0.98806118405E-02  0.47443305556E-01 -0.12498006992E+00  0.13537347651E+00  0.18906785397E-01 0.  0.
         14    1    1    2    0    0 -0.51395691453E-02 -0.13616809831E-01  0.15255607845E-01  0.21084739782E-01  0.00000000000E+00 0. -1.
     999901    1    3    3    0    0 -0.47410426952E-02 -0.33826495725E-01  0.10972446207E+00  0.88747178371E+00  0.88000000000E+00 0.  1.
        -11    1    4    4    0    0  0.14575212645E-01  0.29159530629E-01 -0.69491133931E-01  0.76759324295E-01  0.51100000000E-03 0. -1.
         11    1    4    4    0    0 -0.46946008048E-02  0.18283774927E-01 -0.55488935985E-01  0.58614152216E-01  0.51100000000E-03 0.  1.
</event>
<event>
 8    1  0.1095698E+005  0.1043930E+01  0.7957747E-01            NaN
         13   -1    0    0    0    0  0.00000000000E+00  0.00000000000E+00  0.74505805969E-08  0.10566000000E+00  0.10566000000E+00 0. -1.
     999900   -1    0    0    0    0 -0.00000000000E+00 -0.00000000000E+00 -0.74505805969E-08  0.93827000000E+00  0.93827000000E+00 0.  1.
     999902    2    1    2    0    0 -0.14243452372E-01 -0.19330471035E-01  0.67025025957E-02  0.10190007684E+01  0.10186957836E+01 0.  0.
     999903    2    3    3    0    0  0.58693947498E-01 -0.57255363870E-01 -0.97774156806E-01  0.12901563700E+00  0.19028733184E-01 0.  0.
         14    1    1    2    0    0  0.14243452372E-01  0.19330471035E-01 -0.67025025957E-02  0.24929231576E-01  0.00000000000E+00 0.  1.
     999901    1    3    3    0    0 -0.72937399870E-01  0.37924892834E-01  0.10447665940E+00  0.88998513142E+00  0.88000000000E+00 0. -1.
        -11    1    4    4    0    0  0.71750912111E-02 -0.17955050800E-01 -0.23995856197E-01  0.30820902303E-01  0.51100000000E-03 0.  1.
         11    1    4    4    0    0  0.51518856287E-01 -0.39300313070E-01 -0.73778300609E-01  0.98194734697E-01  0.51100000000E-03 0. -1.
</event>
<event>
 8    1  0.1095698E+005  0.1043930E+01  0.7957747E-01            NaN
         13   -1    0    0    0    0  0.00000000000E+00  0.00000000000E+00  0.74505805969E-08  0.10566000000E+00  0.10566000000E+00 0. -1.
     999900   -1    0    0    0    0 -0.00000000000E+00 -0.00000000000E+00 -0.74505805969E-08  0.93827000000E+00  0.93827000000E+00 0. -1.
     999902    2    1    2    0    0 -0.10665393280E-01 -0.10243849571E-01  0.11518558235E-01  0.10251852874E+01  0.10250139068E+01 0.  0.
     999903    2    3    3    0    0  0.70278605416E-01  0.93725546441E-01 -0.58767389901E-01  0.13260381728E+00  0.20164468941E-01 0.  0.
         14    1    1    2    0    0  0.10665393280E-01  0.10243849571E-01 -0.11518558235E-01  0.18744712632E-01  0.00000000000E+00 0.  1.
     999901    1    3    3    0    0 -0.80943998696E-01 -0.10396939601E+00  0.70285948136E-01  0.89258147008E+00  0.88000000000E+00 0.  1.
        -11    1    4    4    0    0  0.36905007589E-01  0.39548249498E-01 -0.36185062301E-01  0.65081975064E-01  0.51100000000E-03 0. -1.
         11    1    4    4    0    0  0.33373597827E-01  0.54177296943E-01 -0.22582327600E-01  0.67521842220E-01  0.51100000000E-03 0.  1.
</event>
<event>
 8    1  0.1095698E+005  0.1043930E+01  0.7957747E-01            NaN
         13   -1    0    0    0    0  0.00000000000E+00  0.00000000000E+00  0.74505805969E-08  0.10566000000E+00  0.10566000000E+00 0. -1.
     999900   -1    0    0    0    0 -0.00000000000E+00 -0.00000000000E+00 -0.74505805969E-08  0.93827000000E+00  0.93827000000E+00 0.  1.
     999902    2    1    2    0    0  0.26255095607E-01  0.32508005974E-02 -0.91731233845E-02  0.10159292153E+01  0.10155432667E+01 0.  0.
     999903    2    3    3    0    0  0.40391808383E-01 -0.11840561679E+00 -0.13120617070E-01  0.12743852137E+00  0.20421504975E-01 0.  0.
         14    1    1    2    0    0 -0.26255095607E-01 -0.32508005974E-02  0.91731233845E-02  0.28000784676E-01  0.00000000000E+00 0.  1.
     999901    1    3    3    0    0 -0.14136712777E-01  0.12165641738E+00  0.39474936857E-02  0.88849069396E+00  0.88000000000E+00 0. -1.
        -11    1    4    4    0    0  0.30540927403E-01 -0.58072772968E-01 -0.59372834348E-02  0.65884047101E-01  0.51100000000E-03 0.  1.
         11    1    4    4    0    0  0.98508809799E-02 -0.60332843818E-01 -0.71833336354E-02  0.61554474267E-01  0.51100000000E-03 0. -1.
</event>
<event>
 8    1  0.1095698E+005  0.1043930E+01  0.7957747E-01            NaN
         13   -1    0    0    0    0  0.00000000000E+00  0.00000000000E+00  0.74505805969E-08  0.10566000000E+00  0.10566000000E+00 0. -1.
     999900   -1    0    0    0    0 -0.00000000000E+00 -0.00000000000E+00 -0.74505805969E-08  0.93827000000E+00  0.93827000000E+00 0.  1.
     999902    2    1    2    0    0 -0.23245284151E-01 -0.40640085450E-02 -0.60893058573E-02  0.10195591353E+01  0.10192678212E+01 0.  0.
     999903    2    3    3    0    0  0.13575370637E-01  0.10982570304E+00 -0.64333273830E-01  0.12954846860E+00  0.19951437523E-01 0.  0.
         14    1    1    2    0    0  0.23245284151E-01  0.40640085450E-02  0.60893058573E-02  0.24370864707E-01  0.00000000000E+00 0.  1.
     999901    1    3    3    0    0 -0.36820654788E-01 -0.11388971158E+00  0.58243967973E-01  0.89001066669E+00  0.88000000000E+00 0. -1.
        -11    1    4    4    0    0  0.10547688988E-01  0.94403524939E-01 -0.46469137320E-01  0.10574933148E+00  0.51100000000E-03 0. -1.
         11    1    4    4    0    0  0.30276816485E-02  0.15422178099E-01 -0.17864136510E-01  0.23799137121E-01  0.51100000000E-03 0.  1.
</event>
<event>
 8    1  0.1095698E+005  0.1043930E+01  0.7957747E-01            NaN
         13   -1    0    0    0    0  0.00000000000E+00  0.00000000000E+00  0.74505805969E-08  0.10566000000E+00  0.10566000000E+00 0. -1.
     999900   -1    0    0    0    0 -0.00000000000E+00 -0.00000000000E+00 -0.74505805969E-08  0.93827000000E+00  0.93827000000E+00 0. -1.
     999902    2    1    2    0    0  0.16975379731E-01  0.12067708910E-01  0.10799396150E-01  0.10204689669E+01  0.10201992415E+01 0.  0.
     999903    2    3    3    0    0  0.43708307709E-01  0.46206000467E-02 -0.12091506745E+00  0.13023371219E+00  0.20213860228E-01 0.  0.
         14    1    1    2    0    0 -0.16975379731E-01 -0.12067708910E-01 -0.10799396150E-01  0.23461033067E-01  0.00000000000E+00 0.  1.
     999901    1    3    3    0    0 -0.26732927978E-01  0.74471088629E-02  0.13171446360E+00  0.89023525475E+00  0.88000000000E+00 0.  1.
        -11    1    4    4    0    0  0.14918454603E-01  0.10336387221E-01 -0.34789004536E-01  0.39242032900E-01  0.51100000000E-03 0.  1.
         11    1    4    4    0    0  0.28789853106E-01 -0.57157871747E-02 -0.86126062918E-01  0.90991679288E-01  0.51100000000E-03 0. -1.
</event>
<event>
 8    1  0.1095698E+005  0.1043930E+01  0.7957747E-01            NaN
         13   -1    0    0    0    0  0.00000000000E+00  0.00000000000E+00  0.74505805969E-08  0.10566000000E+00  0.10566000000E+00 0.  1.
     999900   -1    0    0    0    0 -0.00000000000E+00 -0.00000000000E+00 -0.74505805969E-08  0.93827000000E+00  0.93827000000E+00 0. -1.
     999902    2    1    2    0    0  0.10807965121E-01 -0.11311817950E-01 -0.18560037281E-01  0.10196556448E+01  0.10193666611E+01 0.  0.
     999903    2    3    3    0    0 -0.13263298943E-01 -0.92183870808E-01 -0.92361643790E-01  0.13254438246E+00  0.19067221669E-01 0.  0.
         14    1    1    2    0    0 -0.10807965121E-01  0.11311817950E-01  0.18560037281E-01  0.24274355177E-01  0.00000000000E+00 0.  1.
     999901    1    3    3    0    0  0.24071264065E-01  0.80872052858E-01  0.73801606510E-01  0.88711126236E+00  0.88000000000E+00 0.  1.
        -11    1    4    4    0    0  0.26206129397E-02 -0.48577641740E-01 -0.47706815858E-01  0.68138508125E-01  0.51100000000E-03 0. -1.
         11    1    4    4    0    0 -0.15883911883E-01 -0.43606229069E-01 -0.44654827932E-01  0.64405874336E-01  0.51100000000E-03 0.  1.
</event>
<event>
 8    1  0.1095698E+005  0.1043930E+01  0.7957747E-01            NaN
         13   -1    0    0    0    0  0.00000000000E+00  0.00000000000E+00  0.74505805969E-08  0.10566000000E+00  0.10566000000E+00 0.  1.
     999900   -1    0    0    0    0 -0.00000000000E+00 -0.00000000000E+00 -0.74505805969E-08  0.93827000000E+00  0.93827000000E+00 0. -1.
     999902    2    1    2    0    0  0.14114057665E-01  0.41473307824E-02 -0.19034429451E-01  0.10198734732E+01  0.10195897140E+01 0.  0.
     999903    2    3    3    0    0  0.12756160103E+00 -0.21684881706E-01  0.12498998864E-01  0.13165502858E+00  0.20847671921E-01 0.  0.
         14    1    1    2    0    0 -0.14114057665E-01 -0.41473307824E-02  0.19034429451E-01  0.24056526785E-01  0.00000000000E+00 0.  1.
     999901    1    3    3    0    0 -0.11344754336E+00  0.25832212488E-01 -0.31533428316E-01  0.88821844464E+00  0.88000000000E+00 0. -1.
        -11    1    4    4    0    0  0.53456421157E-01 -0.77645425363E-02  0.15477093078E-01  0.56193225703E-01  0.51100000000E-03 0. -1.
         11    1    4    4    0    0  0.74105179873E-01 -0.13920339169E-01 -0.29780942137E-02  0.75461802872E-01  0.51100000000E-03 0.  1.
</event>
<event>
 8    1  0.1095698E+005  0.1043930E+01  0.7957747E-01            NaN
         13   -1    0    0    0    0  0.00000000000E+00  0.00000000000E+00  0.74505805969E-08  0.10566000000E+00  0.10566000000E+00 0.  1.
     999900   -1    0    0    0    0 -0.00000000000E+00 -0.00000000000E+00 -0.74505805969E-08  0.93827000000E+00  0.93827000000E+00 0.  1.
     999902    2    1    2    0    0 -0.17591985935E-01 -0.71205830595E-02  0.15067957228E-01  0.10196972947E+01  0.10194093137E+01 0.  0.
     999903    2    3    3    0    0 -0.12628498078E+00  0.32464009277E-01 -0.12449501600E-01  0.13170049422E+00  0.13719395747E-01 0.  0.
         14    1    1    2    0    0  0.17591985935E-01  0.71205830595E-02 -0.15067957228E-01  0.24232705323E-01  0.00000000000E+00 0. -1.
     999901    1    3    3    0    0  0.10869299484E+00 -0.39584592337E-01  0.27517458828E-01  0.88799680046E+00  0.88000000000E+00 0.  1.
        -11    1    4    4    0    0 -0.72255467927E-01  0.11919858294E-01 -0.48036025980E-02  0.73391221451E-01  0.51100000000E-03 0.  1.
         11    1    4    4    0    0 -0.54029512851E-01  0.20544150983E-01 -0.76458990015E-02  0.58309272771E-01  0.51100000000E-03 0. -1.
</event>
<event>
 8    1  0.1095698E+005  0.1043930E+01  0.7957747E-01            NaN
         13   -1    0    0    0    0  0.00000000000E+00  0.00000000000E+00  0.74505805969E-08  0.10566000000E+00  0.10566000000E+00 0. -1.
     999900   -1    0    0    0    0 -0.00000000000E+00 -0.00000000000E+00 -0.74505805969E-08  0.93827000000E+00  0.93827000000E+00 0. -1.
     999902    2    1    2    0    0 -0.47106894634E-02 -0.21118410646E-01  0.11218518403E-01  0.10195572074E+01  0.10192658467E+01 0.  0.
     999903    2    3    3    0    0 -0.11786148897E+00  0.43508112631E-01  0.25983167182E-01  0.12983945116E+00  0.19971771396E-01 0.  0.
         14    1    1    2    0    0  0.47106894634E-02  0.21118410646E-01 -0.11218518403E-01  0.24372792589E-01  0.00000000000E+00 0.  1.
     999901    1    3    3    0    0  0.11315079951E+00 -0.64626523277E-01 -0.14764648779E-01  0.88971775625E+00  0.88000000000E+00 0.  1.
        -11    1    4    4    0    0 -0.56890443869E-01  0.23464751666E-01  0.28257173675E-02  0.61606517301E-01  0.51100000000E-03 0.  1.
         11    1    4    4    0    0 -0.60971045102E-01  0.20043360965E-01  0.23157449814E-01  0.68232933856E-01  0.51100000000E-03 0. -1.
</event>
<event>
 8    1  0.1095698E+005  0.1043930E+01  0.7957747E-01            NaN
         13   -1    0    0    0    0  0.00000000000E+00  0.00000000000E+00  0.74505805969E-08  0.10566000000E+00  0.10566000000E+00 0. -1.
     999900   -1    0    0    0    0 -0.00000000000E+00 -0.00000000000E+00 -0.74505805969E-08  0.93827000000E+00  0.93827000000E+00 0.  1.
     999902    2    1    2    0    0  0.68157897335E-02 -0.17215863412E-02 -0.21703183124E-01  0.10211166923E+01  0.10208618184E+01 0.  0.
     999903    2    3    3    0    0  0.93893915597E-01  0.87975780962E-01  0.18297118118E-01  0.13138176450E+00  0.19250404903E-01 0.  0.
         14    1    1    2    0    0 -0.68157897335E-02  0.17215863412E-02  0.21703183124E-01  0.22813307672E-01  0.00000000000E+00 0. -1.
     999901    1    3    3    0    0 -0.87078125863E-01 -0.89697367303E-01 -0.40000301242E-01  0.88973492783E+00  0.88000000000E+00 0.  1.
        -11    1    4    4    0    0  0.29478610762E-01  0.40106419771E-01  0.90697365861E-02  0.50596784898E-01  0.51100000000E-03 0.  1.
         11    1    4    4    0    0  0.64415304835E-01  0.47869361190E-01  0.92273815320E-02  0.80784979598E-01  0.51100000000E-03 0. -1.
</event>
<event>
 8    1  0.1095698E+005  0.1043930E+01  0.7957747E-01            NaN
         13   -1    0    0    0    0  0.00000000000E+00  0.00000000000E+00  0.74505805969E-08  0.10566000000E+00  0.10566000000E+00 0.  1.
     999900   -1    0    0    0    0 -0.00000000000E+00 -0.00000000000E+00 -0.74505805969E-08  0.93827000000E+00  0.93827000000E+00 0.  1.
     999902    2    1    2    0    0  0.27110268048E-01 -0.11545962829E-01  0.13187707512E-01  0.10116470088E+01  0.10111317812E+01 0.  0.
     999903    2    3    3    0    0 -0.57865025466E-01  0.10252227811E+00  0.14447186930E-01  0.12022457786E+00  0.19648135546E-01 0.  0.
         14    1    1    2    0    0 -0.27110268048E-01  0.11545962829E-01 -0.13187707512E-01  0.32282991198E-01  0.00000000000E+00 0. -1.
     999901    1    3    3    0    0  0.84975293514E-01 -0.11406824094E+00 -0.12594794183E-02  0.89142243094E+00  0.88000000000E+00 0. -1.
        -11    1    4    4    0    0 -0.17410069250E-01  0.29851873401E-01  0.13330862324E-01  0.37043459181E-01  0.51100000000E-03 0. -1.
         11    1    4    4    0    0 -0.40454956216E-01  0.72670404709E-01  0.11163246062E-02  0.83181118679E-01  0.51100000000E-03 0.  1.
</event>
<event>
 8    1  0.1095698E+005  0.1043930E+01  0.7957747E-01            NaN
         13   -1    0    0    0    0  0.00000000000E+00  0.00000000000E+00  0.74505805969E-08  0.10566000000E+00  0.10566000000E+00 0.  1.
     999900   -1    0    0    0    0 -0.00000000000E+00 -0.00000000000E+00 -0.74505805969E-08  0.93827000000E+00  0.93827000000E+00 0. -1.
     999902    2    1    2    0    0  0.18625010201E-01 -0.64351974082E-02  0.12754279778E-01  0.10204571556E+01  0.10201871554E+01 0.  0.
     999903    2    3    3    0    0 -0.89885796033E-01 -0.84156089725E-01  0.35983681617E-01  0.13008940167E+00  0.21603780148E-01 0.  0.
         14    1    1    2    0    0 -0.18625010201E-01  0.64351974082E-02 -0.12754279778E-01  0.23472844380E-01  0.00000000000E+00 0. -1.
     999901    1    3    3    0    0  0.10851080623E+00  0.77720892317E-01 -0.23229401840E-01  0.89036775395E+00  0.88000000000E+00 0.  1.
        -11    1    4    4    0    0 -0.62276696631E-01 -0.70294435257E-01  0.30233782535E-01  0.98661224900E-01  0.51100000000E-03 0. -1.
         11    1    4    4    0    0 -0.27609099401E-01 -0.13861654469E-01  0.57498990828E-02  0.31428176766E-01  0.51100000000E-03 0.  1.
</event>
<event>
 8    1  0.1095698E+005  0.1043930E+01  0.7957747E-01            NaN
         13   -1    0    0    0    0  0.00000000000E+00  0.00000000000E+00  0.74505805969E-08  0.10566000000E+00  0.10566000000E+00 0.  1.
     999900   -1    0    0    0    0 -0.00000000000E+00 -0.00000000000E+00 -0.74505805969E-08  0.93827000000E+00  0.93827000000E+00 0.  1.
     999902    2    1    2    0    0  0.25183303825E-02 -0.51013112343E-02  0.22805147678E-01  0.10204259551E+01  0.10201552283E+01 0.  0.
     999903    2    3    3    0    0  0.12676459210E+00 -0.21499691794E-01 -0.13790452073E-01  0.13079385232E+00  0.19630503795E-01 0.  0.
         14    1    1    2    0    0 -0.25183303825E-02  0.51013112343E-02 -0.22805147678E-01  0.23504044861E-01  0.00000000000E+00 0. -1.
     999901    1    3    3    0    0 -0.12424626172E+00  0.16398380559E-01  0.36595599751E-01  0.88963210281E+00  0.88000000000E+00 0.  1.
        -11    1    4    4    0    0  0.68091849890E-01 -0.21106655325E-01 -0.50293132177E-02  0.71467097555E-01  0.51100000000E-03 0. -1.
         11    1    4    4    0    0  0.58672742213E-01 -0.39303646822E-03 -0.87611388556E-02  0.59326754770E-01  0.51100000000E-03 0.  1.
</event>
<event>
 8    1  0.1095698E+005  0.1043930E+01  0.7957747E-01            NaN
         13   -1    0    0    0    0  0.00000000000E+00  0.00000000000E+00  0.74505805969E-08  0.10566000000E+00  0.10566000000E+00 0. -1.
     999900   -1    0    0    0    0 -0.00000000000E+00 -0.00000000000E+00 -0.74505805969E-08  0.93827000000E+00  0.93827000000E+00 0.  1.
     999902    2    1    2    0    0  0.11767617294E-01 -0.67455037300E-02  0.19629296371E-01  0.10200702449E+01  0.10197911632E+01 0.  0.
     999903    2    3    3    0    0 -0.71433471375E-01 -0.53687084121E-01 -0.89580804714E-01  0.12818865001E+00  0.20556400078E-01 0.  0.
         14    1    1    2    0    0 -0.11767617294E-01  0.67455037300E-02 -0.19629296371E-01  0.23859755099E-01  0.00000000000E+00 0.  1.
     999901    1    3    3    0    0  0.83201088670E-01  0.46941580391E-01  0.10921010109E+00  0.89188159489E+00  0.88000000000E+00 0. -1.
        -11    1    4    4    0    0 -0.15010682238E-01 -0.19639472646E-01 -0.33621304452E-01  0.41733472191E-01  0.51100000000E-03 0.  1.
         11    1    4    4    0    0 -0.56422789138E-01 -0.34047611475E-01 -0.55959500262E-01  0.86455177820E-01  0.51100000000E-03 0. -1.
</event>
<event>
 8    1  0.1095698E+005  0.1043930E+01  0.7957747E-01            NaN
         13   -1    0    0    0    0  0.00000000000E+00  0.00000000000E+00  0.74505805969E-08  0.10566000000E+00  0.10566000000E+00 0. -1.
     999900   -1    0    0    0    0 -0.00000000000E+00 -0.00000000000E+00 -0.74505805969E-08  0.93827000000E+00  0.93827000000E+00 0.  1.
     999902    2    1    2    0    0 -0.21916525834E-01 -0.52909611245E-02 -0.66036116854E-02  0.10204366805E+01  0.10201662035E+01 0.  0.
     999903    2    3    3    0    0  0.37682381003E-01 -0.10789278253E+00  0.58766181208E-01  0.13007025408E+00  0.20099566742E-01 0.  0.
         14    1    1    2    0    0  0.21916525834E-01  0.52909611245E-02  0.66036116854E-02  0.23493319508E-01  0.00000000000E+00 0. -1.
     999901    1    3    3    0    0 -0.59598906836E-01  0.10260182141E+00 -0.65369792894E-01  0.89036642641E+00  0.88000000000E+00 0.  1.
        -11    1    4    4    0    0  0.34159832940E-01 -0.73006467469E-01  0.45624521098E-01  0.92621253097E-01  0.51100000000E-03 0.  1.
         11    1    4    4    0    0  0.35225480633E-02 -0.34886315062E-01  0.13141660110E-01  0.37449000987E-01  0.51100000000E-03 0. -1.
</event>
<event>
 8    1  0.1095698E+005  0.1043930E+01  0.7957747E-01            NaN
         13   -1    0    0    0    0  0.00000000000E+00  0.00000000000E+00  0.74505805969E-08  0.10566000000E+00  0.10566000000E+00 0.  1.
     999900   -1    0    0    0    0 -0.00000000000E+00 -0.00000000000E+00 -0.74505805969E-08  0.93827000000E+00  0.93827000000E+00 0. -1.
     999902    2    1    2    0    0  0.17326940809E-01  0.47827751176E-02  0.15464963084E-01  0.10202179166E+01  0.10199423192E+01 0.  0.
     999903    2    3    3    0    0 -0.76171966297E-01  0.61055974752E-01 -0.80717367334E-01  0.12827634940E+00  0.20236796282E-01 0.  0.
         14    1    1    2    0    0 -0.17326940809E-01 -0.47827751176E-02 -0.15464963084E-01  0.23712083392E-01  0.00000000000E+00 0. -1.
     999901    1    3    3    0    0  0.93498907106E-01 -0.56273199634E-01  0.96182330418E-01  0.89194156721E+00  0.88000000000E+00 0. -1.
        -11    1    4    4    0    0 -0.44350949828E-01  0.24101198646E-01 -0.47122290253E-01  0.69055382749E-01  0.51100000000E-03 0. -1.
         11    1    4    4    0    0 -0.31821016469E-01  0.36954776106E-01 -0.33595077081E-01  0.59220966652E-01  0.51100000000E-03 0.  1.
</event>
<event>
 8    1  0.1095698E+005  0.1043930E+01  0.7957747E-01            NaN
         13   -1    0    0    0    0  0.00000000000E+00  0.00000000000E+00  0.74505805969E-08  0.10566000000E+00  0.10566000000E+00 0. -1.
     999900   -1    0    0    0    0 -0.00000000000E+00 -0.00000000000E+00 -0.74505805969E-08  0.93827000000E+00  0.93827000000E+00 0.  1.
     999902    2    1    2    0    0 -0.19029140984E-01  0.13531948629E-02 -0.14405483326E-01  0.10200248271E+01  0.10197446693E+01 0.  0.
     999903    2    3    3    0    0 -0.86609897583E-01  0.67735157852E-01  0.68510409833E-01  0.13106545285E+00  0.19878398004E-01 0.  0.
         14    1    1    2    0    0  0.19029140984E-01 -0.13531948629E-02  0.14405483326E-01  0.23905172929E-01  0.00000000000E+00 0. -1.
     999901    1    3    3    0    0  0.67580756599E-01 -0.66381962989E-01 -0.82915893159E-01  0.88895937422E+00  0.88000000000E+00 0.  1.
        -11    1    4    4    0    0 -0.33085635551E-01  0.37556492120E-01  0.26571784217E-01  0.56669835165E-01  0.51100000000E-03 0. -1.
         11    1    4    4    0    0 -0.53524262032E-01  0.30178665732E-01  0.41938625617E-01  0.74395617687E-01  0.51100000000E-03 0.  1.
</event>
<event>
 8    1  0.1095698E+005  0.1043930E+01  0.7957747E-01            NaN
         13   -1    0    0    0    0  0.00000000000E+00  0.00000000000E+00  0.74505805969E-08  0.10566000000E+00  0.10566000000E+00 0. -1.
     999900   -1    0    0    0    0 -0.00000000000E+00 -0.00000000000E+00 -0.74505805969E-08  0.93827000000E+00  0.93827000000E+00 0. -1.
     999902    2    1    2    0    0  0.13887304695E-01  0.13561449814E-01  0.14747355677E-01  0.10195526611E+01  0.10192611903E+01 0.  0.
     999903    2    3    3    0    0  0.40654448358E-02 -0.12391733405E+00  0.31265662857E-01  0.12867122150E+00  0.14377344929E-01 0.  0.
         14    1    1    2    0    0 -0.13887304695E-01 -0.13561449814E-01 -0.14747355677E-01  0.24377338907E-01  0.00000000000E+00 0. -1.
     999901    1    3    3    0    0  0.98218598587E-02  0.13747878387E+00 -0.16518307180E-01  0.89088143960E+00  0.88000000000E+00 0. -1.
        -11    1    4    4    0    0 -0.10797344222E-02 -0.67014295127E-01  0.23413566363E-01  0.70996744915E-01  0.51100000000E-03 0.  1.
         11    1    4    4    0    0  0.51451792580E-02 -0.56903038926E-01  0.78520964938E-02  0.57674476581E-01  0.51100000000E-03 0. -1.
</event>
<event>
 8    1  0.1095698E+005  0.1043930E+01  0.7957747E-01            NaN
         13   -1    0    0    0    0  0.00000000000E+00  0.00000000000E+00  0.74505805969E-08  0.10566000000E+00  0.10566000000E+00 0.  1.
     999900   -1    0    0    0    0 -0.00000000000E+00 -0.00000000000E+00 -0.74505805969E-08  0.93827000000E+00  0.93827000000E+00 0.  1.
     999902    2    1    2    0    0 -0.70047462104E-02 -0.13369653047E-02  0.22777248541E-01  0.10200625117E+01  0.10197832470E+01 0.  0.
     999903    2    3    3    0    0  0.63099253429E-01  0.88522545681E-01  0.70953730221E-01  0.13140606749E+00  0.20380526599E-01 0.  0.
         14    1    1    2    0    0  0.70047462104E-02  0.13369653047E-02 -0.22777248541E-01  0.23867488280E-01  0.00000000000E+00 0. -1.
     999901    1    3    3    0    0 -0.70103999639E-01 -0.89859510986E-01 -0.48176481680E-01  0.88865644423E+00  0.88000000000E+00 0. -1.
        -11    1    4    4    0    0  0.45773170402E-01  0.47420405890E-01  0.44842622843E-01  0.79718253667E-01  0.51100000000E-03 0. -1.
         11    1    4    4    0    0  0.17326083027E-01  0.41102139792E-01  0.26111107378E-01  0.51687813825E-01  0.51100000000E-03 0.  1.
</event>
<event>
 8    1  0.1095698E+005  0.1043930E+01  0.7957747E-01            NaN
         13   -1    0    0    0    0  0.00000000000E+00  0.00000000000E+00  0.74505805969E-08  0.10566000000E+00  0.10566000000E+00 0.  1.
     999900   -1    0    0    0    0 -0.00000000000E+00 -0.00000000000E+00 -0.74505805969E-08  0.93827000000E+00  0.93827000000E+00 0.  1.
     999902    2    1    2    0    0 -0.12020970657E-01 -0.12424479277E-01  0.16854439469E-01  0.10197857760E+01  0.10194999193E+01 0.  0.
     999903    2    3    3    0    0 -0.25844774886E-01  0.75960378961E-01  0.10178858971E+00  0.13118193258E+00  0.20244774153E-01 0.  0.
         14    1    1    2    0    0  0.12020970657E-01  0.12424479277E-01 -0.16854439469E-01  0.24144223960E-01  0.00000000000E+00 0. -1.
     999901    1    3    3    0    0  0.13823804229E-01 -0.88384858238E-01 -0.84934150239E-01  0.88860384346E+00  0.88000000000E+00 0. -1.
        -11    1    4    4    0    0 -0.18650505190E-02  0.30043463569E-01  0.28680032062E-01  0.41579964848E-01  0.51100000000E-03 0.  1.
         11    1    4    4    0    0 -0.23979724367E-01  0.45916915392E-01  0.73108557646E-01  0.89601967735E-01  0.51100000000E-03 0. -1.
</event>
<event>
 8    1  0.1095698E+005  0.1043930E+01  0.7957747E-01            NaN
         13   -1    0    0    0    0  0.00000000000E+00  0.00000000000E+00  0.74505805969E-08  0.10566000000E+00  0.10566000000E+00 0. -1.
     999900   -1    0    0    0    0 -0.00000000000E+00 -0.00000000000E+00 -0.74505805969E-08  0.93827000000E+00  0.93827000000E+00 0.  1.
     999902    2    1    2    0    0 -0.23313012675E-01  0.34597781897E-02  0.43846558931E-02  0.10199572690E+01  0.10196755066E+01 0.  0.
     999903    2    3    3    0    0 -0.58992693112E-01  0.11602790511E+00 -0.88074197134E-02  0.13197154069E+00  0.19907393212E-01 0.  0.
         14    1    1    2    0    0  0.23313012675E-01 -0.34597781897E-02 -0.43846558931E-02  0.23972731016E-01  0.00000000000E+00 0.  1.
     999901    1    3    3    0    0  0.35679680438E-01 -0.11256812692E+00  0.13192075607E-01  0.88798572829E+00  0.88000000000E+00 0.  1.
        -11    1    4    4    0    0 -0.34524902610E-01  0.57053274776E-01  0.41576936204E-02  0.66817606962E-01  0.51100000000E-03 0. -1.
         11    1    4    4    0    0 -0.24467790502E-01  0.58974630337E-01 -0.12965113334E-01  0.65153933728E-01  0.51100000000E-03 0.  1.
</event>
<event>
 8    1  0.1095698E+005  0.1043930E+01  0.7957747E-01            NaN
         13   -1    0    0    0    0  0.00000000000E+00  0.00000000000E+00  0.74505805969E-08  0.10566000000E+00  0.10566000000E+00 0. -1.
     999900   -1    0    0    0    0 -0.00000000000E+00 -0.00000000000E+00 -0.74505805969E-08  0.93827000000E+00  0.93827000000E+00 0.  1.
     999902    2    1    2    0    0 -0.13022652534E-01 -0.27313805874E-02 -0.17567689310E-01  0.10218919959E+01  0.10216543337E+01 0.  0.
     999903    2    3    3    0    0 -0.75578561627E-01  0.51012167073E-01 -0.96876206637E-01  0.13448484488E+00  0.19667585614E-01 0.  0.
         14    1    1    2    0    0  0.13022652534E-01  0.27313805874E-02  0.17567689310E-01  0.22038004143E-01  0.00000000000E+00 0. -1.
     999901    1    3    3    0    0  0.62555909093E-01 -0.53743547660E-01  0.79308517327E-01  0.88740715097E+00  0.88000000000E+00 0. -1.
        -11    1    4    4    0    0 -0.82463301707E-02  0.40021955897E-02 -0.19953135051E-01  0.21963794076E-01  0.51100000000E-03 0.  1.
         11    1    4    4    0    0 -0.67332231457E-01  0.47009971483E-01 -0.76923071586E-01  0.11252105081E+00  0.51100000000E-03 0. -1.
</event>
<event>
 8    1  0.1095698E+005  0.1043930E+01  0.7957747E-01            NaN
         13   -1    0    0    0    0  0.00000000000E+00  0.00000000000E+00  0.74505805969E-08  0.10566000000E+00  0.10566000000E+00 0.  1.
     999900   -1    0    0    0    0 -0.00000000000E+00 -0.00000000000E+00 -0.74505805969E-08  0.93827000000E+00  0.93827000000E+00 0.  1.
     999902    2    1    2    0    0  0.23612362902E-02  0.12039250768E-01  0.20069472245E-01  0.10204076125E+01  0.10201364580E+01 0.  0.
     999903    2    3    3    0    0 -0.23835537387E-01 -0.14872180262E-01  0.12841429647E+00  0.13296798247E+00  0.20023442168E-01 0.  0.
         14    1    1    2    0    0 -0.23612362902E-02 -0.12039250768E-01 -0.20069472245E-01  0.23522387465E-01  0.00000000000E+00 0. -1.
     999901    1    3    3    0    0  0.26196773677E-01  0.26911431029E-01 -0.10834482423E+00  0.88743963006E+00  0.88000000000E+00 0.  1.
        -11    1    4    4    0    0 -0.12324262709E-01  0.31191905680E-02  0.58233511357E-01  0.59607212375E-01  0.51100000000E-03 0.  1.
         11    1    4    4    0    0 -0.11511274678E-01 -0.17991370830E-01  0.70180785113E-01  0.73360770096E-01  0.51100000000E-03 0. -1.
</event>
<event>
 8    1  0.1095698E+005  0.1043930E+01  0.7957747E-01            NaN
         13   -1    0    0    0    0  0.00000000000E+00  0.00000000000E+00  0.74505805969E-08  0.10566000000E+00  0.10566000000E+00 0. -1.
     999900   -1    0    0    0    0 -0.00000000000E+00 -0.00000000000E+00 -0.74505805969E-08  0.93827000000E+00  0.93827000000E+00 0.  1.
     999902    2    1    2    0    0 -0.12874523959E-01  0.19545838783E-01  0.79831707248E-02  0.10192009847E+01  0.10189009388E+01 0.  0.
     999903    2    3    3    0    0 -0.11870241115E+00 -0.45547353778E-01 -0.18672274244E-01  0.13007378452E+00  0.20142287503E-01 0.  0.
         14    1    1    2    0    0  0.12874523959E-01 -0.19545838783E-01 -0.79831707248E-02  0.24729015260E-01  0.00000000000E+00 0. -1.
     999901    1    3    3    0    0  0.10582788719E+00  0.65093192561E-01  0.26655444968E-01  0.88912720022E+00  0.88000000000E+00 0. -1.
        -11    1    4    4    0    0 -0.86808419783E-01 -0.39138199365E-01 -0.20795280718E-01  0.97468996177E-01  0.51100000000E-03 0.  1.
         11    1    4    4    0    0 -0.31893991364E-01 -0.64091544128E-02  0.21230064741E-02  0.32604788343E-01  0.51100000000E-03 0. -1.
</event>
<event>
 8    1  0.1095698E+005  0.1043930E+01  0.7957747E-01            NaN
         13   -1    0    0    0    0  0.00000000000E+00  0.00000000000E+00  0.74505805969E-08  0.10566000000E+00  0.10566000000E+00 0.  1.
     999900   -1    0    0    0    0 -0.00000000000E+00 -0.00000000000E+00 -0.74505805969E-08  0.93827000000E+00  0.93827000000E+00 0. -1.
     999902    2    1    2    0    0  0.18670416814E-01  0.13762021968E-01  0.37987253043E-02  0.10204266380E+01  0.10201559270E+01 0.  0.
     999903    2    3    3    0    0 -0.11562364627E+00 -0.47310046184E-01 -0.18232401364E-01  0.12787408298E+00  0.20304989317E-01 0.  0.
         14    1    1    2    0    0 -0.18670416814E-01 -0.13762021968E-01 -0.37987253043E-02  0.23503362027E-01  0.00000000000E+00 0.  1.
     999901    1    3    3    0    0  0.13429406308E+00  0.61072068152E-01  0.22031126668E-01  0.89255255500E+00  0.88000000000E+00 0.  1.
        -11    1    4    4    0    0 -0.60125380378E-01 -0.26303405642E-01  0.54384975003E-03  0.65631451359E-01  0.51100000000E-03 0.  1.
         11    1    4    4    0    0 -0.55498265892E-01 -0.21006640542E-01 -0.18776251114E-01  0.62242631618E-01  0.51100000000E-03 0. -1.
</event>
<event>
 8    1  0.1095698E+005  0.1043930E+01  0.7957747E-01            NaN
         13   -1    0    0    0    0  0.00000000000E+00  0.00000000000E+00  0.74505805969E-08  0.10566000000E+00  0.10566000000E+00 0.  1.
     999900   -1    0    0    0    0 -0.00000000000E+00 -0.00000000000E+00 -0.74505805969E-08  0.93827000000E+00  0.93827000000E+00 0. -1.
     999902    2    1    2    0    0 -0.44106828413E-02  0.12682714256E-01  0.18929142102E-01  0.10207218595E+01  0.10204579838E+01 0.  0.
     999903    2    3    3    0    0  0.20959116316E-01 -0.12565438339E+00  0.12754061062E-01  0.12953225516E+00  0.19688332351E-01 0.  0.
         14    1    1    2    0    0  0.44106828413E-02 -0.12682714256E-01 -0.18929142102E-01  0.23208140484E-01  0.00000000000E+00 0. -1.
     999901    1    3    3    0    0 -0.25369799157E-01  0.13833709764E+00  0.61750810398E-02  0.89118960436E+00  0.88000000000E+00 0. -1.
        -11    1    4    4    0    0  0.17071649781E-01 -0.10236433271E+00  0.18025896694E-01  0.10533324218E+00  0.51100000000E-03 0. -1.
         11    1    4    4    0    0  0.38874665346E-02 -0.23290050683E-01 -0.52718356314E-02  0.24199012971E-01  0.51100000000E-03 0.  1.
</event>
<event>
 8    1  0.1095698E+005  0.1043930E+01  0.7957747E-01            NaN
         13   -1    0    0    0    0  0.00000000000E+00  0.00000000000E+00  0.74505805969E-08  0.10566000000E+00  0.10566000000E+00 0. -1.
     999900   -1    0    0    0    0 -0.00000000000E+00 -0.00000000000E+00 -0.74505805969E-08  0.93827000000E+00  0.93827000000E+00 0. -1.
     999902    2    1    2    0    0  0.12344113190E-02  0.14048625776E-01  0.18988414700E-01  0.10202773564E+01  0.10200031551E+01 0.  0.
     999903    2    3    3    0    0  0.11582524841E+00 -0.39409161976E-01  0.42060290143E-01  0.13093990273E+00  0.20189598908E-01 0.  0.
         14    1    1    2    0    0 -0.12344113190E-02 -0.14048625776E-01 -0.18988414700E-01  0.23652643622E-01  0.00000000000E+00 0.  1.
     999901    1    3    3    0    0 -0.11459083709E+00  0.53457787751E-01 -0.23071875443E-01  0.88933745364E+00  0.88000000000E+00 0. -1.
        -11    1    4    4    0    0  0.72016306930E-02 -0.60752622824E-02  0.78584561011E-02  0.12279607067E-01  0.51100000000E-03 0.  1.
         11    1    4    4    0    0  0.10862361772E+00 -0.33333899693E-01  0.34201834042E-01  0.11866029567E+00  0.51100000000E-03 0. -1.
</event>
<event>
 8    1  0.1095698E+005  0.1043930E+01  0.7957747E-01            NaN
         13   -1    0    0    0    0  0.00000000000E+00  0.00000000000E+00  0.74505805969E-08  0.10566000000E+00  0.10566000000E+00 0.  1.
     999900   -1    0    0    0    0 -0.00000000000E+00 -0.00000000000E+00 -0.74505805969E-08  0.93827000000E+00  0.93827000000E+00 0.  1.
     999902    2    1    2    0    0  0.10372351886E-01  0.14287614689E-01 -0.16028208284E-01  0.10200841392E+01  0.10198053863E+01 0.  0.
     999903    2    3    3    0    0 -0.98768360904E-01 -0.26520318744E-01 -0.78187488108E-01  0.13022979229E+00  0.19697692293E-01 0.  0.
         14    1    1    2    0    0 -0.10372351886E-01 -0.14287614689E-01  0.16028208284E-01  0.23845860814E-01  0.00000000000E+00 0.  1.
     999901    1    3    3    0    0  0.10914071279E+00  0.40807933433E-01  0.62159279824E-01  0.88985434689E+00  0.88000000000E+00 0. -1.
        -11    1    4    4    0    0 -0.32586382725E-01 -0.17876242417E-01 -0.32158386630E-01  0.49151351291E-01  0.51100000000E-03 0. -1.
         11    1    4    4    0    0 -0.66181978178E-01 -0.86440763268E-02 -0.46029101479E-01  0.81078441001E-01  0.51100000000E-03 0.  1.
</event>
<event>
 8    1  0.1095698E+005  0.1043930E+01  0.7957747E-01            NaN
         13   -1    0    0    0    0  0.00000000000E+00  0.00000000000E+00  0.74505805969E-08  0.10566000000E+00  0.10566000000E+00 0.  1.
     999900   -1    0    0    0    0 -0.00000000000E+00 -0.00000000000E+00 -0.74505805969E-08  0.93827000000E+00  0.93827000000E+00 0.  1.
     999902    2    1    2    0    0 -0.67151962239E-02 -0.22082704841E-01  0.16413670362E-02  0.10207905575E+01  0.10205282595E+01 0.  0.
     999903    2    3    3    0    0  0.45719011544E-01 -0.31938056387E-01  0.11735612501E+00  0.13161319650E+00  0.20959626778E-01 0.  0.
         14    1    1    2    0    0  0.67151962239E-02  0.22082704841E-01 -0.16413670362E-02  0.23139442499E-01  0.00000000000E+00 0. -1.
     999901    1    3    3    0    0 -0.52434207768E-01  0.98553515458E-02 -0.11571475797E+00  0.88917736100E+00  0.88000000000E+00 0.  1.
        -11    1    4    4    0    0  0.23953454406E-01 -0.27926346584E-01  0.82315862955E-01  0.90165465820E-01  0.51100000000E-03 0. -1.
         11    1    4    4    0    0  0.21765557138E-01 -0.40117098027E-02  0.35040262053E-01  0.41447730684E-01  0.51100000000E-03 0.  1.
</event>
<event>
 8    1  0.1095698E+005  0.1043930E+01  0.7957747E-01            NaN
         13   -1    0    0    0    0  0.00000000000E+00  0.00000000000E+00  0.74505805969E-08  0.10566000000E+00  0.10566000000E+00 0. -1.
     999900   -1    0    0    0    0 -0.00000000000E+00 -0.00000000000E+00 -0.74505805969E-08  0.93827000000E+00  0.93827000000E+00 0.  1.
     999902    2    1    2    0    0  0.20377750070E-01 -0.10747716608E-01  0.61249147635E-02  0.10200913614E+01  0.10198127793E+01 0.  0.
     999903    2    3    3    0    0 -0.22424551026E-01  0.12504549169E+00 -0.16310081066E-02  0.12861394342E+00  0.19991267430E-01 0.  0.
         14    1    1    2    0    0 -0.20377750070E-01  0.10747716608E-01 -0.61249147635E-02  0.23838638616E-01  0.00000000000E+00 0.  1.
     999901    1    3    3    0    0  0.42802301096E-01 -0.13579320830E+00  0.77559228700E-02  0.89147741796E+00  0.88000000000E+00 0. -1.
        -11    1    4    4    0    0 -0.13461157665E-01  0.10846025378E+00  0.24374904800E-02  0.10932077523E+00  0.51100000000E-03 0. -1.
         11    1    4    4    0    0 -0.89633933611E-02  0.16585237915E-01 -0.40684985865E-02  0.19293168195E-01  0.51100000000E-03 0.  1.
</event>
<event>
 8    1  0.1095698E+005  0.1043930E+01  0.7957747E-01            NaN
         13   -1    0    0    0    0  0.00000000000E+00  0.00000000000E+00  0.74505805969E-08  0.10566000000E+00  0.10566000000E+00 0. -1.
     999900   -1    0    0    0    0 -0.00000000000E+00 -0.00000000000E+00 -0.74505805969E-08  0.93827000000E+00  0.93827000000E+00 0. -1.
     999902    2    1    2    0    0 -0.22810854314E-02  0.53052490035E-02 -0.23137501853E-01  0.10200827148E+01  0.10198039283E+01 0.  0.
     999903    2    3    3    0    0  0.19660894795E-01  0.75729482400E-02  0.12424048166E+00  0.12755436068E+00  0.19761510971E-01 0.  0.
         14    1    1    2    0    0  0.22810854314E-02 -0.53052490035E-02  0.23137501853E-01  0.23847285164E-01  0.00000000000E+00 0. -1.
     999901    1    3    3    0    0 -0.21941980227E-01 -0.22676992365E-02 -0.14737798351E+00  0.89252835416E+00  0.88000000000E+00 0. -1.
        -11    1    4    4    0    0  0.81409988538E-02 -0.42675800215E-02  0.76119134807E-01  0.76673801956E-01  0.51100000000E-03 0. -1.
         11    1    4    4    0    0  0.11519895942E-01  0.11840528262E-01  0.48121346849E-01  0.50880558719E-01  0.51100000000E-03 0.  1.
</event>
<event>
 8    1  0.1095698E+005  0.1043930E+01  0.7957747E-01            NaN
         13   -1    0    0    0    0  0.00000000000E+00  0.00000000000E+00  0.74505805969E-08  0.10566000000E+00  0.10566000000E+00 0. -1.
     999900   -1    0    0    0    0 -0.00000000000E+00 -0.00000000000E+00 -0.74505805969E-08  0.93827000000E+00  0.93827000000E+00 0. -1.
     999902    2    1    2    0    0  0.95497446475E-02 -0.14891999055E-01 -0.14054689717E-01  0.10213356741E+01  0.10210857240E+01 0.  0.
     999903    2    3    3    0    0 -0.59431221147E-01  0.24115693476E-01 -0.11388708259E+00  0.13215263313E+00  0.19504208389E-01 0.  0.
         14    1    1    2    0    0 -0.95497446475E-02  0.14891999055E-01  0.14054689717E-01  0.22594325875E-01  0.00000000000E+00 0. -1.
     999901    1    3    3    0    0  0.68980965794E-01 -0.39007692532E-01  0.99832392873E-01  0.88918304099E+00  0.88000000000E+00 0.  1.
        -11    1    4    4    0    0 -0.52165328564E-01  0.25721813560E-01 -0.90273161994E-01  0.10738872424E+00  0.51100000000E-03 0. -1.
         11    1    4    4    0    0 -0.72658925830E-02 -0.16061200839E-02 -0.23613920595E-01  0.24763908892E-01  0.51100000000E-03 0.  1.
</event>
<event>
 8    1  0.1095698E+005  0.1043930E+01  0.7957747E-01            NaN
         13   -1    0    0    0    0  0.00000000000E+00  0.00000000000E+00  0.74505805969E-08  0.10566000000E+00  0.10566000000E+00 0.  1.
     999900   -1    0    0    0    0 -0.00000000000E+00 -0.00000000000E+00 -0.74505805969E-08  0.93827000000E+00  0.93827000000E+00 0.  1.
     999902    2    1    2    0    0  0.16795185526E-01  0.15334976495E-01 -0.13237437001E-02  0.10211486028E+01  0.10208944495E+01 0.  0.
     999903    2    3    3    0    0 -0.21334877361E-01  0.31266616738E-02 -0.12716356946E+00  0.13129546526E+00  0.24555504346E-01 0.  0.
         14    1    1    2    0    0 -0.16795185526E-01 -0.15334976495E-01  0.13237437001E-02  0.22781397199E-01  0.00000000000E+00 0. -1.
     999901    1    3    3    0    0  0.38130062887E-01  0.12208314821E-01  0.12583982576E+00  0.88985313754E+00  0.88000000000E+00 0. -1.
        -11    1    4    4    0    0 -0.83476563578E-02  0.47237370381E-02 -0.10581943716E+00  0.10625446560E+00  0.51100000000E-03 0.  1.
         11    1    4    4    0    0 -0.12987221003E-01 -0.15970753643E-02 -0.21344132304E-01  0.25040999659E-01  0.51100000000E-03 0. -1.
</event>
<event>
 8    1  0.1095698E+005  0.1043930E+01  0.7957747E-01            NaN
         13   -1    0    0    0    0  0.00000000000E+00  0.00000000000E+00  0.74505805969E-08  0.10566000000E+00  0.10566000000E+00 0. -1.
     999900   -1    0    0    0    0 -0.00000000000E+00 -0.00000000000E+00 -0.74505805969E-08  0.93827000000E+00  0.93827000000E+00 0.  1.
     999902    2    1    2    0    0 -0.49004231934E-02  0.10677414617E-01  0.20544524191E-01  0.10202635933E+01  0.10199890691E+01 0.  0.
     999903    2    3    3    0    0 -0.85188646942E-01  0.70468461664E-01 -0.66051514869E-01  0.13036469898E+00  0.20229742155E-01 0.  0.
         14    1    1    2    0    0  0.49004231934E-02 -0.10677414617E-01 -0.20544524191E-01  0.23666406669E-01  0.00000000000E+00 0.  1.
     999901    1    3    3    0    0  0.80288223748E-01 -0.59791047047E-01  0.86596039060E-01  0.88989889435E+00  0.88000000000E+00 0. -1.
        -11    1    4    4    0    0 -0.43304696834E-01  0.28521009320E-01 -0.21167522026E-01  0.56009551420E-01  0.51100000000E-03 0. -1.
         11    1    4    4    0    0 -0.41883950107E-01  0.41947452344E-01 -0.44883992843E-01  0.74355147564E-01  0.51100000000E-03 0.  1.
</event>
<event>
 8    1  0.1095698E+005  0.1043930E+01  0.7957747E-01            NaN
         13   -1    0    0    0    0  0.00000000000E+00  0.00000000000E+00  0.74505805969E-08  0.10566000000E+00  0.10566000000E+00 0.  1.
     999900   -1    0    0    0    0 -0.00000000000E+00 -0.00000000000E+00 -0.74505805969E-08  0.93827000000E+00  0.93827000000E+00 0.  1.
     999902    2    1    2    0    0  0.18478015754E-01  0.14391653521E-01 -0.45605427553E-02  0.10200688326E+01  0.10197897176E+01 0.  0.
     999903    2    3    3    0    0 -0.36090546021E-01 -0.88339332982E-01 -0.84144087459E-01  0.12885341306E+00  0.20411010237E-01 0.  0.
         14    1    1    2    0    0 -0.18478015754E-01 -0.14391653521E-01  0.45605427553E-02  0.23861167354E-01  0.00000000000E+00 0.  1.
     999901    1    3    3    0    0  0.54568561775E-01  0.10273098650E+00  0.79583544704E-01  0.89121541959E+00  0.88000000000E+00 0. -1.
        -11    1    4    4    0    0 -0.18891623539E-01 -0.69618176653E-01 -0.63373388821E-01  0.96020995059E-01  0.51100000000E-03 0. -1.
         11    1    4    4    0    0 -0.17198922482E-01 -0.18721156328E-01 -0.20770698638E-01  0.32832418000E-01  0.51100000000E-03 0.  1.
</event>
<event>
 8    1  0.1095698E+005  0.1043930E+01  0.7957747E-01            NaN
         13   -1    0    0    0    0  0.00000000000E+00  0.00000000000E+00  0.74505805969E-08  0.10566000000E+00  0.10566000000E+00 0. -1.
     999900   -1    0    0    0    0 -0.00000000000E+00 -0.00000000000E+00 -0.74505805969E-08  0.93827000000E+00  0.93827000000E+00 0.  1.
     999902    2    1    2    0    0  0.20631926702E-01 -0.11026316985E-01  0.51944318232E-02  0.10199667325E+01  0.10196851952E+01 0.  0.
     999903    2    3    3    0    0 -0.53477190503E-01 -0.95055727722E-01 -0.67716226890E-01  0.12987175599E+00  0.19641393578E-01 0.  0.
         14    1    1    2    0    0 -0.20631926702E-01  0.11026316985E-01 -0.51944318232E-02  0.23963267466E-01  0.00000000000E+00 0.  1.
     999901    1    3    3    0    0  0.74109117205E-01  0.84029410737E-01  0.72910658713E-01  0.89009497655E+00  0.88000000000E+00 0. -1.
        -11    1    4    4    0    0 -0.16076882496E-01 -0.30557775385E-01 -0.32474336473E-01  0.47403453857E-01  0.51100000000E-03 0. -1.
         11    1    4    4    0    0 -0.37400308007E-01 -0.64497952338E-01 -0.35241890417E-01  0.82468302128E-01  0.51100000000E-03 0.  1.
</event>
<event>
 8    1  0.1095698E+005  0.1043930E+01  0.7957747E-01            NaN
         13   -1    0    0    0    0  0.00000000000E+00  0.00000000000E+00  0.74505805969E-08  0.10566000000E+00  0.10566000000E+00 0. -1.
     999900   -1    0    0    0    0 -0.00000000000E+00 -0.00000000000E+00 -0.74505805969E-08  0.93827000000E+00  0.93827000000E+00 0. -1.
     999902    2    1    2    0    0  0.11503319337E-01  0.44724358541E-02  0.20817743127E-01  0.10197286061E+01  0.10194413777E+01 0.  0.
     999903    2    3    3    0    0  0.89370303090E-01  0.80071086966E-01 -0.47581353703E-01  0.13042727378E+00  0.18677753679E-01 0.  0.
         14    1    1    2    0    0 -0.11503319337E-01 -0.44724358541E-02 -0.20817743127E-01  0.24201393909E-01  0.00000000000E+00 0.  1.
     999901    1    3    3    0    0 -0.77866983753E-01 -0.75598651111E-01  0.68399096829E-01  0.88930133231E+00  0.88000000000E+00 0. -1.
        -11    1    4    4    0    0  0.47691108523E-01  0.31915701340E-01 -0.17538623840E-01  0.60007651774E-01  0.51100000000E-03 0. -1.
         11    1    4    4    0    0  0.41679194566E-01  0.48155385626E-01 -0.30042729863E-01  0.70419622003E-01  0.51100000000E-03 0.  1.
</event>
<event>
 8    1  0.1095698E+005  0.1043930E+01  0.7957747E-01            NaN
         13   -1    0    0    0    0  0.00000000000E+00  0.00000000000E+00  0.74505805969E-08  0.10566000000E+00  0.10566000000E+00 0.  1.
     999900   -1    0    0    0    0 -0.00000000000E+00 -0.00000000000E+00 -0.74505805969E-08  0.93827000000E+00  0.93827000000E+00 0.  1.
     999902    2    1    2    0    0  0.33367587789E-03  0.21920828663E-01  0.36790132931E-02  0.10217000830E+01  0.10214582177E+01 0.  0.
     999903    2    3    3    0    0  0.32876110851E-01 -0.28444952460E-01 -0.12180628579E+00  0.13077793029E+00  0.19394375711E-01 0.  0.
         14    1    1    2    0    0 -0.33367587789E-03 -0.21920828663E-01 -0.36790132931E-02  0.22229916951E-01  0.00000000000E+00 0.  1.
     999901    1    3    3    0    0 -0.32542434973E-01  0.50365781122E-01  0.12548529908E+00  0.89092215275E+00  0.88000000000E+00 0. -1.
        -11    1    4    4    0    0 -0.10435037362E-02 -0.45588426242E-02 -0.25261601507E-01  0.25695944774E-01  0.51100000000E-03 0.  1.
         11    1    4    4    0    0  0.33919614587E-01 -0.23886109836E-01 -0.96544684283E-01  0.10508198552E+00  0.51100000000E-03 0. -1.
</event>
<event>
 8    1  0.1095698E+005  0.1043930E+01  0.7957747E-01            NaN
         13   -1    0    0    0    0  0.00000000000E+00  0.00000000000E+00  0.74505805969E-08  0.10566000000E+00  0.10566000000E+00 0. -1.
     999900   -1    0    0    0    0 -0.00000000000E+00 -0.00000000000E+00 -0.74505805969E-08  0.93827000000E+00  0.93827000000E+00 0.  1.
     999902    2    1    2    0    0 -0.51601299605E-02  0.21661988240E-01  0.92332034591E-02  0.10198235544E+01  0.10195386022E+01 0.  0.
     999903    2    3    3    0    0 -0.40529342158E-01  0.91552436645E-03 -0.12115398128E+00  0.12927191920E+00  0.19735150184E-01 0.  0.
         14    1    1    2    0    0  0.51601299605E-02 -0.21661988240E-01 -0.92332034591E-02  0.24106445649E-01  0.00000000000E+00 0.  1.
     999901    1    3    3    0    0  0.35369212198E-01  0.20746463874E-01  0.13038718473E+00  0.89055163516E+00  0.88000000000E+00 0. -1.
        -11    1    4    4    0    0 -0.20816203062E-01  0.10210731959E-01 -0.66659576366E-01  0.70578563313E-01  0.51100000000E-03 0.  1.
         11    1    4    4    0    0 -0.19713139096E-01 -0.92952075929E-02 -0.54494404910E-01  0.58693355882E-01  0.51100000000E-03 0. -1.
</event>
<event>
 8    1  0.1095698E+005  0.1043930E+01  0.7957747E-01            NaN
         13   -1    0    0    0    0  0.00000000000E+00  0.00000000000E+00  0.74505805969E-08  0.10566000000E+00  0.10566000000E+00 0. -1.
     999900   -1    0    0    0    0 -0.00000000000E+00 -0.00000000000E+00 -0.74505805969E-08  0.93827000000E+00  0.93827000000E+00 0.  1.
     999902    2    1    2    0    0  0.13844619961E-01 -0.12422948166E-01  0.12444533063E-01  0.10215498850E+01  0.10213047038E+01 0.  0.
     999903    2    3    3    0    0  0.36677616459E-01  0.48310370055E-01 -0.11342716687E+00  0.13022863738E+00  0.20362622737E-01 0.  0.
         14    1    1    2    0    0 -0.13844619961E-01  0.12422948166E-01 -0.12444533063E-01  0.22380114972E-01  0.00000000000E+00 0.  1.
     999901    1    3    3    0    0 -0.22832996498E-01 -0.60733318220E-01  0.12587169993E+00  0.89132124765E+00  0.88000000000E+00 0. -1.
        -11    1    4    4    0    0  0.26967548971E-02  0.15558944183E-01 -0.19390254426E-01  0.25011923532E-01  0.51100000000E-03 0.  1.
         11    1    4    4    0    0  0.33980861562E-01  0.32751425872E-01 -0.94036912445E-01  0.10521671384E+00  0.51100000000E-03 0. -1.
</event>
<event>
 8    1  0.1095698E+005  0.1043930E+01  0.7957747E-01            NaN
         13   -1    0    0    0    0  0.00000000000E+00  0.00000000000E+00  0.74505805969E-08  0.10566000000E+00  0.10566000000E+00 0. -1.
     999900   -1    0    0    0    0 -0.00000000000E+00 -0.00000000000E+00 -0.74505805969E-08  0.93827000000E+00  0.93827000000E+00 0. -1.
     999902    2    1    2    0    0  0.16683578176E-01 -0.17733433251E-01  0.29893182913E-02  0.10193993567E+01  0.10191041635E+01 0.  0.
     999903    2    3    3    0    0  0.56377521306E-01 -0.11545893609E+00 -0.22582083848E-01  0.13273156119E+00  0.24464790917E-01 0.  0.
         14    1    1    2    0    0 -0.16683578176E-01  0.17733433251E-01 -0.29893182913E-02  0.24530643275E-01  0.00000000000E+00 0. -1.
     999901    1    3    3    0    0 -0.39693943130E-01  0.97725502837E-01  0.25571402140E-01  0.88666779553E+00  0.88000000000E+00 0.  1.
        -11    1    4    4    0    0  0.33805670987E-01 -0.83917354669E-01 -0.25012557916E-01  0.93866048069E-01  0.51100000000E-03 0.  1.
         11    1    4    4    0    0  0.22571850319E-01 -0.31541581419E-01  0.24304740671E-02  0.38865513124E-01  0.51100000000E-03 0. -1.
</event>
<event>
 8    1  0.1095698E+005  0.1043930E+01  0.7957747E-01            NaN
         13   -1    0    0    0    0  0.00000000000E+00  0.00000000000E+00  0.74505805969E-08  0.10566000000E+00  0.10566000000E+00 0. -1.
     999900   -1    0    0    0    0 -0.00000000000E+00 -0.00000000000E+00 -0.74505805969E-08  0.93827000000E+00  0.93827000000E+00 0. -1.
     999902    2    1    2    0    0  0.19538007119E-01 -0.63605518570E-02 -0.13918802495E-01  0.10191121958E+01  0.10188099647E+01 0.  0.
     999903    2    3    3    0    0 -0.69392119617E-01 -0.10670644506E+00 -0.73065301869E-04  0.12884843143E+00  0.20009529286E-01 0.  0.
         14    1    1    2    0    0 -0.19538007119E-01  0.63605518570E-02  0.13918802495E-01  0.24817804194E-01  0.00000000000E+00 0. -1.
     999901    1    3    3    0    0  0.88930126736E-01  0.10034589320E+00 -0.13845737193E-01  0.89026376438E+00  0.88000000000E+00 0.  1.
        -11    1    4    4    0    0 -0.11142259729E-01 -0.93534439621E-02 -0.47212238449E-02  0.15303200365E-01  0.51100000000E-03 0. -1.
         11    1    4    4    0    0 -0.58249859887E-01 -0.97353001093E-01  0.46481585430E-02  0.11354523106E+00  0.51100000000E-03 0.  1.
</event>
<event>
 8    1  0.1095698E+005  0.1043930E+01  0.7957747E-01            NaN
         13   -1    0    0    0    0  0.00000000000E+00  0.00000000000E+00  0.74505805969E-08  0.10566000000E+00  0.10566000000E+00 0.  1.
     999900   -1    0    0    0    0 -0.00000000000E+00 -0.00000000000E+00 -0.74505805969E-08  0.93827000000E+00  0.93827000000E+00 0.  1.
     999902    2    1    2    0    0 -0.13331316920E-01 -0.17384515808E-01  0.88843954137E-02  0.10202894018E+01  0.10200154830E+01 0.  0.
     999903    2    3    3    0    0 -0.10823184508E+00 -0.70043077749E-01  0.27202434945E-01  0.13343282662E+00  0.21075619163E-01 0.  0.
         14    1    1    2    0    0  0.13331316920E-01  0.17384515808E-01 -0.88843954137E-02  0.23640598185E-01  0.00000000000E+00 0. -1.
     999901    1    3    3    0    0  0.94900528161E-01  0.52658561941E-01 -0.18318039531E-01  0.88685657519E+00  0.88000000000E+00 0.  1.
        -11    1    4    4    0    0 -0.81387787076E-01 -0.62857756591E-01  0.21282616604E-01  0.10501561950E+00  0.51100000000E-03 0.  1.
         11    1    4    4    0    0 -0.26844058005E-01 -0.71853211581E-02  0.59198183406E-02  0.28417207120E-01  0.51100000000E-03 0. -1.
</event>
<event>
 8    1  0.1095698E+005  0.1043930E+01  0.7957747E-01            NaN
         13   -1    0    0    0    0  0.00000000000E+00  0.00000000000E+00  0.74505805969E-08  0.10566000000E+00  0.10566000000E+00 0.  1.
     999900   -1    0    0    0    0 -0.00000000000E+00 -0.00000000000E+00 -0.74505805969E-08  0.93827000000E+00  0.93827000000E+00 0.  1.
     999902    2    1    2    0    0 -0.16245129408E-01 -0.13084925283E-01 -0.13103399434E-01  0.10192963122E+01  0.10189986033E+01 0.  0.
     999903    2    3    3    0    0 -0.33847072774E-02 -0.11747374304E+00  0.53145396599E-01  0.13056051414E+00  0.20250385801E-01 0.  0.
         14    1    1    2    0    0  0.16245129408E-01  0.13084925283E-01  0.13103399434E-01  0.24633687825E-01  0.00000000000E+00 0. -1.
     999901    1    3    3    0    0 -0.12860422130E-01  0.10438881776E+00 -0.66248796033E-01  0.88873579803E+00  0.88000000000E+00 0.  1.
        -11    1    4    4    0    0  0.34753635712E-02 -0.65460344161E-01  0.38767445117E-01  0.76159771083E-01  0.51100000000E-03 0.  1.
         11    1    4    4    0    0 -0.68600708487E-02 -0.52013398883E-01  0.14377951482E-01  0.54400743058E-01  0.51100000000E-03 0. -1.
</event>
<event>
 8    1  0.1095698E+005  0.1043930E+01  0.7957747E-01            NaN
         13   -1    0    0    0    0  0.00000000000E+00  0.00000000000E+00  0.74505805969E-08  0.10566000000E+00  0.10566000000E+00 0.  1.
     999900   -1    0    0    0    0 -0.00000000000E+00 -0.00000000000E+00 -0.74505805969E-08  0.93827000000E+00  0.93827000000E+00 0.  1.
     999902    2    1    2    0    0 -0.14110930352E-01  0.16059378387E-01  0.90141742188E-02  0.10207291956E+01  0.10204654886E+01 0.  0.
     999903    2    3    3    0    0 -0.84264313170E-01  0.10209570296E+00 -0.36170092972E-02  0.13366477115E+00  0.18143352880E-01 0.  0.
         14    1    1    2    0    0  0.14110930352E-01 -0.16059378387E-01 -0.90141742188E-02  0.23200804435E-01  0.00000000000E+00 0. -1.
     999901    1    3    3    0    0  0.70153382818E-01 -0.86036324570E-01  0.12631183516E-01  0.88706442442E+00  0.88000000000E+00 0. -1.
        -11    1    4    4    0    0 -0.47668630860E-01  0.44433778949E-01 -0.49416977093E-02  0.65355493855E-01  0.51100000000E-03 0. -1.
         11    1    4    4    0    0 -0.36595682310E-01  0.57661924008E-01  0.13246884122E-02  0.68309277294E-01  0.51100000000E-03 0.  1.
</event>
<event>
 8    1  0.1095698E+005  0.1043930E+01  0.7957747E-01            NaN
         13   -1    0    0    0    0  0.00000000000E+00  0.00000000000E+00  0.74505805969E-08  0.10566000000E+00  0.10566000000E+00 0.  1.
     999900   -1    0    0    0    0 -0.00000000000E+00 -0.00000000000E+00 -0.74505805969E-08  0.93827000000E+00  0.93827000000E+00 0. -1.
     999902    2    1    2    0    0 -0.19710272094E-01 -0.12473925916E-01  0.10437288416E-01  0.10183755357E+01  0.10180548616E+01 0.  0.
     999903    2    3    3    0    0  0.11052223753E-01 -0.78104295091E-01  0.10236960609E+00  0.13062262669E+00  0.18981617182E-01 0.  0.
         14    1    1    2    0    0  0.19710272094E-01  0.12473925916E-01 -0.10437288416E-01  0.25554464253E-01  0.00000000000E+00 0.  1.
     999901    1    3    3    0    0 -0.30762495847E-01  0.65630369175E-01 -0.91932317673E-01  0.88775290906E+00  0.88000000000E+00 0. -1.
        -11    1    4    4    0    0  0.95632947818E-02 -0.21027394539E-01  0.21033029582E-01  0.31245117740E-01  0.51100000000E-03 0.  1.
         11    1    4    4    0    0  0.14889289716E-02 -0.57076900552E-01  0.81336576507E-01  0.99377508949E-01  0.51100000000E-03 0. -1.
</event>
<event>
 8    1  0.1095698E+005  0.1043930E+01  0.7957747E-01            NaN
         13   -1    0    0    0    0  0.00000000000E+00  0.00000000000E+00  0.74505805969E-08  0.10566000000E+00  0.10566000000E+00 0. -1.
     999900   -1    0    0    0    0 -0.00000000000E+00 -0.00000000000E+00 -0.74505805969E-08  0.93827000000E+00  0.93827000000E+00 0. -1.
     999902    2    1    2    0    0  0.18918308603E-01  0.31255838477E-02 -0.38785908206E-02  0.10243668934E+01  0.10241800706E+01 0.  0.
     999903    2    3    3    0    0 -0.76896269790E-01 -0.99407795216E-01  0.36239761774E-01  0.13234502733E+00  0.20172750637E-01 0.  0.
         14    1    1    2    0    0 -0.18918308603E-01 -0.31255838477E-02  0.38785908206E-02  0.19563106643E-01  0.00000000000E+00 0. -1.
     999901    1    3    3    0    0  0.95814578393E-01  0.10253337906E+00 -0.40118352595E-01  0.89202186603E+00  0.88000000000E+00 0. -1.
        -11    1    4    4    0    0 -0.27273018123E-01 -0.23166157084E-01  0.15729005289E-01  0.39091573005E-01  0.51100000000E-03 0.  1.
         11    1    4    4    0    0 -0.49623251667E-01 -0.76241638132E-01  0.20510756485E-01  0.93253454326E-01  0.51100000000E-03 0. -1.
</event>
<event>
 8    1  0.1095698E+005  0.1043930E+01  0.7957747E-01            NaN
         13   -1    0    0    0    0  0.00000000000E+00  0.00000000000E+00  0.74505805969E-08  0.10566000000E+00  0.10566000000E+00 0.  1.
     999900   -1    0    0    0    0 -0.00000000000E+00 -0.00000000000E+00 -0.74505805969E-08  0.93827000000E+00  0.93827000000E+00 0.  1.
     999902    2    1    2    0    0 -0.10417427998E-01 -0.12108021711E-01 -0.14483050027E-01  0.10223687910E+01  0.10221414085E+01 0.  0.
     999903    2    3    3    0    0  0.54778348451E-01  0.24300838360E-01  0.11362654614E+00  0.12996296235E+00  0.19702319476E-01 0.  0.
         14    1    1    2    0    0  0.10417427998E-01  0.12108021711E-01  0.14483050027E-01  0.21561209009E-01  0.00000000000E+00 0. -1.
     999901    1    3    3    0    0 -0.65195776450E-01 -0.36408860071E-01 -0.12810959616E+00  0.89240582864E+00  0.88000000000E+00 0.  1.
        -11    1    4    4    0    0  0.43847526270E-02  0.93254425335E-02  0.22619774583E-01  0.24861722733E-01  0.51100000000E-03 0. -1.
         11    1    4    4    0    0  0.50393595824E-01  0.14975395826E-01  0.91006771552E-01  0.10510123962E+00  0.51100000000E-03 0.  1.
</event>
<event>
 8    1  0.1095698E+005  0.1043930E+01  0.7957747E-01            NaN
         13   -1    0    0    0    0  0.00000000000E+00  0.00000000000E+00  0.74505805969E-08  0.10566000000E+00  0.10566000000E+00 0.  1.
     999900   -1    0    0    0    0 -0.00000000000E+00 -0.00000000000E+00 -0.74505805969E-08  0.93827000000E+00  0.93827000000E+00 0.  1.
     999902    2    1    2    0    0 -0.12436118528E-01 -0.70413070254E-02 -0.18676164199E-01  0.10204132792E+01  0.10201422568E+01 0.  0.
     999903    2    3    3    0    0 -0.43644826370E-01 -0.65807395029E-01 -0.10582472471E+00  0.13360873018E+00  0.20419018359E-01 0.  0.
         14    1    1    2    0    0  0.12436118528E-01  0.70413070254E-02  0.18676164199E-01  0.23516720814E-01  0.00000000000E+00 0.  1.
     999901    1    3    3    0    0  0.31208707842E-01  0.58766088004E-01  0.87148560508E-01  0.88680454901E+00  0.88000000000E+00 0.  1.
        -11    1    4    4    0    0 -0.18621637952E-01 -0.17395776927E-01 -0.22242574004E-01  0.33828562994E-01  0.51100000000E-03 0.  1.
         11    1    4    4    0    0 -0.25023188418E-01 -0.48411618102E-01 -0.83582150703E-01  0.99780167183E-01  0.51100000000E-03 0. -1.
</event>
<event>
 8    1  0.1095698E+005  0.1043930E+01  0.7957747E-01            NaN
         13   -1    0    0    0    0  0.00000000000E+00  0.00000000000E+00  0.74505805969E-08  0.10566000000E+00  0.10566000000E+00 0.  1.
     999900   -1    0    0    0    0 -0.00000000000E+00 -0.00000000000E+00 -0.74505805969E-08  0.93827000000E+00  0.93827000000E+00 0.  1.
     999902    2    1    2    0    0  0.14022086431E-01  0.61789537469E-02 -0.17748337000E-01  0.10204821463E+01  0.10202127274E+01 0.  0.
     999903    2    3    3    0    0  0.11072187558E+00 -0.66126737983E-01  0.16367683344E-01  0.13158234028E+00  0.20345319094E-01 0.  0.
         14    1    1    2    0    0 -0.14022086431E-01 -0.61789537469E-02  0.17748337000E-01  0.23447853709E-01  0.00000000000E+00 0.  1.
     999901    1    3    3    0    0 -0.96699789144E-01  0.72305691730E-01 -0.34116020344E-01  0.88889980601E+00  0.88000000000E+00 0.  1.
        -11    1    4    4    0    0  0.80028945317E-01 -0.57718705001E-01  0.14079617930E-01  0.99672352022E-01  0.51100000000E-03 0. -1.
         11    1    4    4    0    0  0.30692930258E-01 -0.84080329824E-02  0.22880654135E-02  0.31909988261E-01  0.51100000000E-03 0.  1.
</event>
<event>
 8    1  0.1095698E+005  0.1043930E+01  0.7957747E-01            NaN
         13   -1    0    0    0    0  0.00000000000E+00  0.00000000000E+00  0.74505805969E-08  0.10566000000E+00  0.10566000000E+00 0.  1.
     999900   -1    0    0    0    0 -0.00000000000E+00 -0.00000000000E+00 -0.74505805969E-08  0.93827000000E+00  0.93827000000E+00 0. -1.
     999902    2    1    2    0    0 -0.39934930986E-02 -0.17250406572E-01 -0.15583910495E-01  0.10203422324E+01  0.10200695508E+01 0.  0.
     999903    2    3    3    0    0 -0.30874855490E-01 -0.11839085488E+00 -0.49496878495E-01  0.13349270327E+00  0.20017732731E-01 0.  0.
         14    1    1    2    0    0  0.39934930986E-02  0.17250406572E-01  0.15583910495E-01  0.23587767600E-01  0.00000000000E+00 0.  1.
     999901    1    3    3    0    0  0.26881362392E-01  0.10114044831E+00  0.33912967999E-01  0.88684952913E+00  0.88000000000E+00 0.  1.
        -11    1    4    4    0    0 -0.27523244524E-01 -0.11230368897E+00 -0.41413809188E-01  0.12282105788E+00  0.51100000000E-03 0. -1.
         11    1    4    4    0    0 -0.33516109660E-02 -0.60871659075E-02 -0.80830693064E-02  0.10671645387E-01  0.51100000000E-03 0.  1.
</event>
<event>
 8    1  0.1095698E+005  0.1043930E+01  0.7957747E-01            NaN
         13   -1    0    0    0    0  0.00000000000E+00  0.00000000000E+00  0.74505805969E-08  0.10566000000E+00  0.10566000000E+00 0.  1.
     999900   -1    0    0    0    0 -0.00000000000E+00 -0.00000000000E+00 -0.74505805969E-08  0.93827000000E+00  0.93827000000E+00 0.  1.
     999902    2    1    2    0    0  0.17907662144E-01 -0.55876626033E-02  0.15098254757E-01  0.10198496422E+01  0.10195653137E+01 0.  0.
     999903    2    3    3    0    0 -0.26445835137E-01 -0.83851668863E-01  0.95816236398E-01  0.13158848690E+00  0.20107067387E-01 0.  0.
         14    1    1    2    0    0 -0.17907662144E-01  0.55876626033E-02 -0.15098254757E-01  0.24080357837E-01  0.00000000000E+00 0. -1.
     999901    1    3    3    0    0  0.44353497282E-01  0.78264006259E-01 -0.80717981641E-01  0.88826115527E+00  0.88000000000E+00 0.  1.
        -11    1    4    4    0    0 -0.21694605052E-01 -0.35668203021E-01  0.42908969345E-01  0.59869168746E-01  0.51100000000E-03 0. -1.
         11    1    4    4    0    0 -0.47512300855E-02 -0.48183465841E-01  0.52907267053E-01  0.71719318150E-01  0.51100000000E-03 0.  1.
</event>
<event>
 8    1  0.1095698E+005  0.1043930E+01  0.7957747E-01            NaN
         13   -1    0    0    0    0  0.00000000000E+00  0.00000000000E+00  0.74505805969E-08  0.10566000000E+00  0.10566000000E+00 0. -1.
     999900   -1    0    0    0    0 -0.00000000000E+00 -0.00000000000E+00 -0.74505805969E-08  0.93827000000E+00  0.93827000000E+00 0.  1.
     999902    2    1    2    0    0  0.12843370823E-01 -0.25201874768E-04 -0.19665694823E-01  0.10204418676E+01  0.10201715115E+01 0.  0.
     999903    2    3    3    0    0 -0.99990408101E-01 -0.40252294001E-01 -0.70754252200E-01  0.13085785176E+00  0.22344670004E-01 0.  0.
         14    1    1    2    0    0 -0.12843370823E-01  0.25201874768E-04  0.19665694823E-01  0.23488132367E-01  0.00000000000E+00 0. -1.
     999901    1    3    3    0    0  0.11283377892E+00  0.40227092126E-01  0.51088557378E-01  0.88958401588E+00  0.88000000000E+00 0.  1.
        -11    1    4    4    0    0 -0.54007687502E-01 -0.32186172234E-01 -0.46832482924E-01  0.78398485765E-01  0.51100000000E-03 0. -1.
         11    1    4    4    0    0 -0.45982720599E-01 -0.80661217672E-02 -0.23921769276E-01  0.52459365992E-01  0.51100000000E-03 0.  1.
</event>
<event>
 8    1  0.1095698E+005  0.1043930E+01  0.7957747E-01            NaN
         13   -1    0    0    0    0  0.00000000000E+00  0.00000000000E+00  0.74505805969E-08  0.10566000000E+00  0.10566000000E+00 0. -1.
     999900   -1    0    0    0    0 -0.00000000000E+00 -0.00000000000E+00 -0.74505805969E-08  0.93827000000E+00  0.93827000000E+00 0.  1.
     999902    2    1    2    0    0 -0.11356857275E-01 -0.81544636733E-02  0.16583072621E-01  0.10222396385E+01  0.10220094944E+01 0.  0.
     999903    2    3    3    0    0  0.83125614650E-01 -0.98527461009E-02 -0.97590902299E-01  0.12984649743E+00  0.18143435892E-01 0.  0.
         14    1    1    2    0    0  0.11356857275E-01  0.81544636733E-02 -0.16583072621E-01  0.21690361512E-01  0.00000000000E+00 0.  1.
     999901    1    3    3    0    0 -0.94482471925E-01  0.16982824276E-02  0.11417397492E+00  0.89239314106E+00  0.88000000000E+00 0. -1.
        -11    1    4    4    0    0  0.25218952043E-01 -0.77844646617E-02 -0.41602650863E-01  0.49271037254E-01  0.51100000000E-03 0. -1.
         11    1    4    4    0    0  0.57906662606E-01 -0.20682814392E-02 -0.55988251436E-01  0.80575460173E-01  0.51100000000E-03 0.  1.
</event>
<event>
 8    1  0.1095698E+005  0.1043930E+01  0.7957747E-01            NaN
         13   -1    0    0    0    0  0.00000000000E+00  0.00000000000E+00  0.74505805969E-08  0.10566000000E+00  0.10566000000E+00 0.  1.
     999900   -1    0    0    0    0 -0.00000000000E+00 -0.00000000000E+00 -0.74505805969E-08  0.93827000000E+00  0.93827000000E+00 0. -1.
     999902    2    1    2    0    0 -0.17307776975E-02  0.92923328899E-02 -0.21606370395E-01  0.10203465676E+01  0.10200739874E+01 0.  0.
     999903    2    3    3    0    0  0.92549012793E-01 -0.60495581106E-01  0.62469937547E-01  0.12859107567E+00  0.20202389522E-01 0.  0.
         14    1    1    2    0    0  0.17307776975E-02 -0.92923328899E-02  0.21606370395E-01  0.23583432397E-01  0.00000000000E+00 0.  1.
     999901    1    3    3    0    0 -0.94279790491E-01  0.69787913996E-01 -0.84076307943E-01  0.89175549193E+00  0.88000000000E+00 0. -1.
        -11    1    4    4    0    0  0.70814722594E-01 -0.41456630679E-01  0.36779345094E-01  0.89924182008E-01  0.51100000000E-03 0.  1.
         11    1    4    4    0    0  0.21734290200E-01 -0.19038950427E-01  0.25690592454E-01  0.38666893662E-01  0.51100000000E-03 0. -1.
</event>
<event>
 8    1  0.1095698E+005  0.1043930E+01  0.7957747E-01            NaN
         13   -1    0    0    0    0  0.00000000000E+00  0.00000000000E+00  0.74505805969E-08  0.10566000000E+00  0.10566000000E+00 0.  1.
     999900   -1    0    0    0    0 -0.00000000000E+00 -0.00000000000E+00 -0.74505805969E-08  0.93827000000E+00  0.93827000000E+00 0. -1.
     999902    2    1    2    0    0 -0.62924599589E-02 -0.50801268970E-02 -0.22136864997E-01  0.10203621504E+01  0.10200899345E+01 0.  0.
     999903    2    3    3    0    0 -0.51193470463E-01 -0.49011479611E-01 -0.11144149508E+00  0.13361450794E+00  0.20266557542E-01 0.  0.
         14    1    1    2    0    0  0.62924599589E-02  0.50801268970E-02  0.22136864997E-01  0.23567849574E-01  0.00000000000E+00 0.  1.
     999901    1    3    3    0    0  0.44901010504E-01  0.43931352714E-01  0.89304630087E-01  0.88674764248E+00  0.88000000000E+00 0.  1.
        -11    1    4    4    0    0 -0.11138593135E-01 -0.22687974993E-01 -0.31319729078E-01  0.40249211382E-01  0.51100000000E-03 0.  1.
         11    1    4    4    0    0 -0.40054877328E-01 -0.26323504618E-01 -0.80121766005E-01  0.93365296561E-01  0.51100000000E-03 0. -1.
</event>
<event>
 8    1  0.1095698E+005  0.1043930E+01  0.7957747E-01            NaN
         13   -1    0    0    0    0  0.00000000000E+00  0.00000000000E+00  0.74505805969E-08  0.10566000000E+00  0.10566000000E+00 0. -1.
     999900   -1    0    0    0    0 -0.00000000000E+00 -0.00000000000E+00 -0.74505805969E-08  0.93827000000E+00  0.93827000000E+00 0.  1.
     999902    2    1    2    0    0  0.23106979820E-01  0.40331073198E-02  0.22173765878E-02  0.10203691165E+01  0.10200970634E+01 0.  0.
     999903    2    3    3    0    0  0.97542684995E-01 -0.26315220656E-01  0.84308796292E-01  0.13290041488E+00  0.18640839808E-01 0.  0.
         14    1    1    2    0    0 -0.23106979820E-01 -0.40331073198E-02 -0.22173765878E-02  0.23560883472E-01  0.00000000000E+00 0.  1.
     999901    1    3    3    0    0 -0.74435705175E-01  0.30348327975E-01 -0.82091419705E-01  0.88746870165E+00  0.88000000000E+00 0. -1.
        -11    1    4    4    0    0  0.41374186702E-01 -0.14313065722E-01  0.47897309560E-01  0.64892993148E-01  0.51100000000E-03 0. -1.
         11    1    4    4    0    0  0.56168498293E-01 -0.12002154934E-01  0.36411486732E-01  0.68007421732E-01  0.51100000000E-03 0.  1.
</event>
<event>
 8    1  0.1095698E+005  0.1043930E+01  0.7957747E-01            NaN
         13   -1    0    0    0    0  0.00000000000E+00  0.00000000000E+00  0.74505805969E-08  0.10566000000E+00  0.10566000000E+00 0. -1.
     999900   -1    0    0    0    0 -0.00000000000E+00 -0.00000000000E+00 -0.74505805969E-08  0.93827000000E+00  0.93827000000E+00 0.  1.
     999902    2    1    2    0    0 -0.14105625626E-01 -0.91997228387E-02 -0.16962996725E-01  0.10200271376E+01  0.10197470346E+01 0.  0.
     999903    2    3    3    0    0 -0.13017108411E+00 -0.15295213993E-02 -0.12853300484E-01  0.13236339929E+00  0.20199296181E-01 0.  0.
         14    1    1    2    0    0  0.14105625626E-01  0.91997228387E-02  0.16962996725E-01  0.23902862433E-01  0.00000000000E+00 0. -1.
     999901    1    3    3    0    0  0.11606545848E+00 -0.76702014394E-02 -0.41096962410E-02  0.88766373827E+00  0.88000000000E+00 0. -1.
        -11    1    4    4    0    0 -0.10684885628E+00  0.64901056770E-02 -0.11410177983E-01  0.10765339215E+00  0.51100000000E-03 0. -1.
         11    1    4    4    0    0 -0.23322227830E-01 -0.80196270764E-02 -0.14431225015E-02  0.24710007142E-01  0.51100000000E-03 0.  1.
</event>
<event>
 7    1  0.1095698E+005  0.1043930E+01  0.7957747E-01            NaN
         13   -1    0    0    0    0  0.00000000000E+00  0.00000000000E+00  0.74505805969E-08  0.10566000000E+00  0.10566000000E+00 0.  1.
     999900   -1    0    0    0    0 -0.00000000000E+00 -0.00000000000E+00 -0.74505805969E-08  0.93827000000E+00  0.93827000000E+00 0. -1.
     999902    2    1    2    0    0 -0.40599606653E-02  0.15283855546E-01  0.18013452254E-01  0.10199599357E+01  0.10196782367E+01 0.  0.
         14    1    1    2    0    0  0.40599606653E-02 -0.15283855546E-01 -0.18013452254E-01  0.23970064311E-01  0.00000000000E+00 0. -1.
     999901    1    3    3    0    0  0.38010988884E-01 -0.83639841482E-01 -0.50542064681E-01  0.88622511737E+00  0.88000000000E+00 0. -1.
        -11    1    3    3    0    0 -0.43295375150E-01  0.58027087639E-01  0.33166711439E-01  0.79636199544E-01  0.51100000000E-03 0. -1.
         11    1    3    3    0    0  0.12244256000E-02  0.40896609390E-01  0.35388805497E-01  0.54098618773E-01  0.51100000000E-03 0.  1.
</event>
<event>
 8    1  0.1095698E+005  0.1043930E+01  0.7957747E-01            NaN
         13   -1    0    0    0    0  0.00000000000E+00  0.00000000000E+00  0.74505805969E-08  0.10566000000E+00  0.10566000000E+00 0. -1.
     999900   -1    0    0    0    0 -0.00000000000E+00 -0.00000000000E+00 -0.74505805969E-08  0.93827000000E+00  0.93827000000E+00 0.  1.
     999902    2    1    2    0    0  0.43514563320E-02 -0.21054614056E-01 -0.93567399921E-02  0.10204826008E+01  0.10202131924E+01 0.  0.
     999903    2    3    3    0    0  0.11137373775E+00 -0.16398785654E-01 -0.66296906549E-01  0.13215967078E+00  0.19946657168E-01 0.  0.
         14    1    1    2    0    0 -0.43514563320E-02  0.21054614056E-01  0.93567399921E-02  0.23447399185E-01  0.00000000000E+00 0. -1.
     999901    1    3    3    0    0 -0.10702228141E+00 -0.46558284026E-02  0.56940166557E-01  0.88832293003E+00  0.88000000000E+00 0.  1.
        -11    1    4    4    0    0  0.62012835560E-01 -0.14635195314E-01 -0.27726685671E-01  0.69489646246E-01  0.51100000000E-03 0. -1.
         11    1    4    4    0    0  0.49360902187E-01 -0.17635903393E-02 -0.38570220878E-01  0.62670024534E-01  0.51100000000E-03 0.  1.
</event>
<event>
 8    1  0.1095698E+005  0.1043930E+01  0.7957747E-01            NaN
         13   -1    0    0    0    0  0.00000000000E+00  0.00000000000E+00  0.74505805969E-08  0.10566000000E+00  0.10566000000E+00 0. -1.
     999900   -1    0    0    0    0 -0.00000000000E+00 -0.00000000000E+00 -0.74505805969E-08  0.93827000000E+00  0.93827000000E+00 0.  1.
     999902    2    1    2    0    0 -0.16975260967E-01  0.31943153298E-02 -0.14338312075E-01  0.10214811620E+01  0.10212344559E+01 0.  0.
     999903    2    3    3    0    0  0.65080433045E-01  0.30968783151E-01  0.10525638573E+00  0.12917658969E+00  0.20326246397E-01 0.  0.
         14    1    1    2    0    0  0.16975260967E-01 -0.31943153298E-02  0.14338312075E-01  0.22448838021E-01  0.00000000000E+00 0. -1.
     999901    1    3    3    0    0 -0.82055694012E-01 -0.27774467821E-01 -0.11959469780E+00  0.89230457229E+00  0.88000000000E+00 0.  1.
        -11    1    4    4    0    0  0.37503969818E-01  0.73072560272E-02  0.60011046351E-01  0.71144434413E-01  0.51100000000E-03 0.  1.
         11    1    4    4    0    0  0.27576463226E-01  0.23661527124E-01  0.45245339377E-01  0.58032155278E-01  0.51100000000E-03 0. -1.
</event>
<event>
 8    1  0.1095698E+005  0.1043930E+01  0.7957747E-01            NaN
         13   -1    0    0    0    0  0.00000000000E+00  0.00000000000E+00  0.74505805969E-08  0.10566000000E+00  0.10566000000E+00 0.  1.
     999900   -1    0    0    0    0 -0.00000000000E+00 -0.00000000000E+00 -0.74505805969E-08  0.93827000000E+00  0.93827000000E+00 0.  1.
     999902    2    1    2    0    0  0.92424712282E-02 -0.42934495239E-02 -0.19300823953E-01  0.10221038966E+01  0.10218708317E+01 0.  0.
     999903    2    3    3    0    0  0.22688416621E-01  0.71739027098E-01 -0.10936381416E+00  0.13414383381E+00  0.19309895006E-01 0.  0.
         14    1    1    2    0    0 -0.92424712282E-02  0.42934495239E-02  0.19300823953E-01  0.21826103373E-01  0.00000000000E+00 0.  1.
     999901    1    3    3    0    0 -0.13445945392E-01 -0.76032476622E-01  0.90062990204E-01  0.88796006281E+00  0.88000000000E+00 0. -1.
        -11    1    4    4    0    0  0.26994462105E-02  0.20456904075E-01 -0.17540905042E-01  0.27087200019E-01  0.51100000000E-03 0.  1.
         11    1    4    4    0    0  0.19988970410E-01  0.51282123023E-01 -0.91822909115E-01  0.10705663379E+00  0.51100000000E-03 0. -1.
</event>
<event>
 8    1  0.1095698E+005  0.1043930E+01  0.7957747E-01            NaN
         13   -1    0    0    0    0  0.00000000000E+00  0.00000000000E+00  0.74505805969E-08  0.10566000000E+00  0.10566000000E+00 0.  1.
     999900   -1    0    0    0    0 -0.00000000000E+00 -0.00000000000E+00 -0.74505805969E-08  0.93827000000E+00  0.93827000000E+00 0. -1.
     999902    2    1    2    0    0 -0.16110991784E-01 -0.11481940876E-01 -0.13321835034E-01  0.10200789977E+01  0.10198001232E+01 0.  0.
     999903    2    3    3    0    0  0.84581065788E-01 -0.90867591805E-01 -0.34703786469E-01  0.13052958373E+00  0.20560727190E-01 0.  0.
         14    1    1    2    0    0  0.16110991784E-01  0.11481940876E-01  0.13321835034E-01  0.23851002311E-01  0.00000000000E+00 0.  1.
     999901    1    3    3    0    0 -0.10069205757E+00  0.79385650929E-01  0.21381951436E-01  0.88954941396E+00  0.88000000000E+00 0. -1.
        -11    1    4    4    0    0  0.66060441208E-01 -0.81957066150E-01 -0.29480522657E-01  0.10931745022E+00  0.51100000000E-03 0. -1.
         11    1    4    4    0    0  0.18520624581E-01 -0.89105256548E-02 -0.52232638125E-02  0.21212133512E-01  0.51100000000E-03 0.  1.
</event>
<event>
 8    1  0.1242448E+005  0.1043930E+01  0.7957747E-01            NaN
         13   -1    0    0    0    0  0.00000000000E+00  0.00000000000E+00  0.74505805969E-08  0.10566000000E+00  0.10566000000E+00 0.  1.
     999900   -1    0    0    0    0 -0.00000000000E+00 -0.00000000000E+00 -0.74505805969E-08  0.93827000000E+00  0.93827000000E+00 0.  1.
     999902    2    1    2    0    0 -0.72044653503E-02 -0.19521532476E-01 -0.95500377464E-02  0.10210346343E+01  0.10207779027E+01 0.  0.
     999903    2    3    3    0    0  0.68278469856E-01  0.10725346352E+00 -0.54990285723E-02  0.12874209042E+00  0.19468735143E-01 0.  0.
         14    1    1    2    0    0  0.72044653503E-02  0.19521532476E-01  0.95500377464E-02  0.22895365736E-01  0.00000000000E+00 0.  1.
     999901    1    3    3    0    0 -0.75482935206E-01 -0.12677499600E+00 -0.40510091740E-02  0.89229254384E+00  0.88000000000E+00 0.  1.
        -11    1    4    4    0    0  0.26743308507E-01  0.53602486317E-01  0.48670462130E-02  0.60103081028E-01  0.51100000000E-03 0.  1.
         11    1    4    4    0    0  0.41535161348E-01  0.53650977206E-01 -0.10366074785E-01  0.68639009396E-01  0.51100000000E-03 0. -1.
</event>
<event>
 8    1  0.1095698E+005  0.1043930E+01  0.7957747E-01            NaN
         13   -1    0    0    0    0  0.00000000000E+00  0.00000000000E+00  0.74505805969E-08  0.10566000000E+00  0.10566000000E+00 0.  1.
     999900   -1    0    0    0    0 -0.00000000000E+00 -0.00000000000E+00 -0.74505805969E-08  0.93827000000E+00  0.93827000000E+00 0.  1.
     999902    2    1    2    0    0 -0.15471236417E-01  0.58864550583E-02  0.17375133326E-01  0.10199319841E+01  0.10196496199E+01 0.  0.
     999903    2    3    3    0    0 -0.72367646657E-01 -0.31584323375E-01  0.10514615253E+00  0.13294550587E+00  0.19599703429E-01 0.  0.
         14    1    1    2    0    0  0.15471236417E-01 -0.58864550583E-02 -0.17375133326E-01  0.23998015908E-01  0.00000000000E+00 0. -1.
     999901    1    3    3    0    0  0.56896410240E-01  0.37470778433E-01 -0.87771019200E-01  0.88698647822E+00  0.88000000000E+00 0.  1.
        -11    1    4    4    0    0 -0.52395669977E-01 -0.17200641616E-01  0.59798965470E-01  0.81347069379E-01  0.51100000000E-03 0.  1.
         11    1    4    4    0    0 -0.19971976680E-01 -0.14383681760E-01  0.45347187057E-01  0.51598436492E-01  0.51100000000E-03 0. -1.
</event>
<event>
 8    1  0.1095698E+005  0.1043930E+01  0.7957747E-01            NaN
         13   -1    0    0    0    0  0.00000000000E+00  0.00000000000E+00  0.74505805969E-08  0.10566000000E+00  0.10566000000E+00 0.  1.
     999900   -1    0    0    0    0 -0.00000000000E+00 -0.00000000000E+00 -0.74505805969E-08  0.93827000000E+00  0.93827000000E+00 0.  1.
     999902    2    1    2    0    0  0.64935993956E-02 -0.22741099786E-01 -0.73137905516E-02  0.10191748796E+01  0.10188741921E+01 0.  0.
     999903    2    3    3    0    0 -0.26051204963E-01 -0.12666256109E+00  0.18068199182E-01  0.13209930234E+00  0.20042360006E-01 0.  0.
         14    1    1    2    0    0 -0.64935993956E-02  0.22741099786E-01  0.73137905516E-02  0.24755120376E-01  0.00000000000E+00 0.  1.
     999901    1    3    3    0    0  0.32544804358E-01  0.10392146131E+00 -0.25381989734E-01  0.88707557728E+00  0.88000000000E+00 0. -1.
        -11    1    4    4    0    0  0.28897543733E-02 -0.17817746812E-01  0.17285853515E-03  0.18058620736E-01  0.51100000000E-03 0. -1.
         11    1    4    4    0    0 -0.28940959336E-01 -0.10884481428E+00  0.17895340647E-01  0.11404068160E+00  0.51100000000E-03 0.  1.
</event>
<event>
 8    1  0.1095698E+005  0.1043930E+01  0.7957747E-01            NaN
         13   -1    0    0    0    0  0.00000000000E+00  0.00000000000E+00  0.74505805969E-08  0.10566000000E+00  0.10566000000E+00 0.  1.
     999900   -1    0    0    0    0 -0.00000000000E+00 -0.00000000000E+00 -0.74505805969E-08  0.93827000000E+00  0.93827000000E+00 0. -1.
     999902    2    1    2    0    0 -0.46003858352E-02 -0.16266059600E-01 -0.11008570576E-01  0.10237573237E+01  0.10235585576E+01 0.  0.
     999903    2    3    3    0    0 -0.68986040015E-02 -0.11435532144E+00  0.68105448364E-01  0.13477711404E+00  0.20044652523E-01 0.  0.
         14    1    1    2    0    0  0.46003858352E-02  0.16266059600E-01  0.11008570576E-01  0.20172676344E-01  0.00000000000E+00 0.  1.
     999901    1    3    3    0    0  0.22982181663E-02  0.98089261835E-01 -0.79114018940E-01  0.88898020961E+00  0.88000000000E+00 0. -1.
        -11    1    4    4    0    0 -0.21464317011E-03 -0.56229839038E-01  0.44393693536E-01  0.71644274138E-01  0.51100000000E-03 0. -1.
         11    1    4    4    0    0 -0.66839608314E-02 -0.58125482397E-01  0.23711754828E-01  0.63132839904E-01  0.51100000000E-03 0.  1.
</event>
<event>
 8    1  0.1095698E+005  0.1043930E+01  0.7957747E-01            NaN
         13   -1    0    0    0    0  0.00000000000E+00  0.00000000000E+00  0.74505805969E-08  0.10566000000E+00  0.10566000000E+00 0.  1.
     999900   -1    0    0    0    0 -0.00000000000E+00 -0.00000000000E+00 -0.74505805969E-08  0.93827000000E+00  0.93827000000E+00 0. -1.
     999902    2    1    2    0    0 -0.36985080595E-02  0.17762034431E-01  0.14224203278E-01  0.10208757859E+01  0.10206154386E+01 0.  0.
     999903    2    3    3    0    0  0.14374208462E-01 -0.20727181686E-01 -0.12351246034E+00  0.12914744647E+00  0.28062450724E-01 0.  0.
         14    1    1    2    0    0  0.36985080595E-02 -0.17762034431E-01 -0.14224203278E-01  0.23054214103E-01  0.00000000000E+00 0. -1.
     999901    1    3    3    0    0 -0.18072716521E-01  0.38489216117E-01  0.13773666362E+00  0.89172833943E+00  0.88000000000E+00 0.  1.
        -11    1    4    4    0    0  0.42834505470E-02  0.59393111570E-03 -0.75751886727E-01  0.75876940941E-01  0.51100000000E-03 0. -1.
         11    1    4    4    0    0  0.10090757915E-01 -0.21321112802E-01 -0.47760573610E-01  0.53270505526E-01  0.51100000000E-03 0.  1.
</event>
<event>
 8    1  0.1165757E+005  0.1043930E+01  0.7957747E-01            NaN
         13   -1    0    0    0    0  0.00000000000E+00  0.00000000000E+00  0.74505805969E-08  0.10566000000E+00  0.10566000000E+00 0. -1.
     999900   -1    0    0    0    0 -0.00000000000E+00 -0.00000000000E+00 -0.74505805969E-08  0.93827000000E+00  0.93827000000E+00 0. -1.
     999902    2    1    2    0    0 -0.20744808848E-01 -0.24365158670E-02 -0.91517576541E-02  0.10211256502E+01  0.10208709786E+01 0.  0.
     999903    2    3    3    0    0 -0.13075423356E+00 -0.20229410277E-01 -0.89339094520E-02  0.13409763026E+00  0.19911330159E-01 0.  0.
         14    1    1    2    0    0  0.20744808848E-01  0.24365158670E-02  0.91517576541E-02  0.22804349846E-01  0.00000000000E+00 0. -1.
     999901    1    3    3    0    0  0.11000942471E+00  0.17792894410E-01 -0.21784820214E-03  0.88702801989E+00  0.88000000000E+00 0.  1.
        -11    1    4    4    0    0 -0.80084731309E-01 -0.79413175821E-02  0.32781688263E-02  0.80545864112E-01  0.51100000000E-03 0.  1.
         11    1    4    4    0    0 -0.50669502255E-01 -0.12288092695E-01 -0.12212078278E-01  0.53551766149E-01  0.51100000000E-03 0. -1.
</event>
<event>
 8    1  0.1095698E+005  0.1043930E+01  0.7957747E-01            NaN
         13   -1    0    0    0    0  0.00000000000E+00  0.00000000000E+00  0.74505805969E-08  0.10566000000E+00  0.10566000000E+00 0.  1.
     999900   -1    0    0    0    0 -0.00000000000E+00 -0.00000000000E+00 -0.74505805969E-08  0.93827000000E+00  0.93827000000E+00 0.  1.
     999902    2    1    2    0    0  0.23057469641E-01  0.30691760227E-02  0.52201024499E-02  0.10200906163E+01  0.10198120166E+01 0.  0.
     999903    2    3    3    0    0 -0.54213450565E-01 -0.78629201240E-01 -0.83401849876E-01  0.12851937940E+00  0.20969330193E-01 0.  0.
         14    1    1    2    0    0 -0.23057469641E-01 -0.30691760227E-02 -0.52201024499E-02  0.23839383744E-01  0.00000000000E+00 0.  1.
     999901    1    3    3    0    0  0.77270920206E-01  0.81698377263E-01  0.88621952326E-01  0.89157123686E+00  0.88000000000E+00 0. -1.
        -11    1    4    4    0    0 -0.55818170347E-01 -0.73297871914E-01 -0.79617555540E-01  0.12176806823E+00  0.51100000000E-03 0. -1.
         11    1    4    4    0    0  0.16047197822E-02 -0.53313293253E-02 -0.37842943357E-02  0.67513111744E-02  0.51100000000E-03 0.  1.
</event>
<event>
 8    1  0.1095698E+005  0.1043930E+01  0.7957747E-01            NaN
         13   -1    0    0    0    0  0.00000000000E+00  0.00000000000E+00  0.74505805969E-08  0.10566000000E+00  0.10566000000E+00 0.  1.
     999900   -1    0    0    0    0 -0.00000000000E+00 -0.00000000000E+00 -0.74505805969E-08  0.93827000000E+00  0.93827000000E+00 0.  1.
     999902    2    1    2    0    0 -0.10527491121E-01  0.18805216091E-01 -0.10630687940E-01  0.10198992749E+01  0.10196161313E+01 0.  0.
     999903    2    3    3    0    0 -0.26249894316E-01 -0.57483860539E-01 -0.11249188127E+00  0.13060578013E+00  0.20248340133E-01 0.  0.
         14    1    1    2    0    0  0.10527491121E-01 -0.18805216091E-01  0.10630687940E-01  0.24030725075E-01  0.00000000000E+00 0.  1.
     999901    1    3    3    0    0  0.15722403195E-01  0.76289076631E-01  0.10186119333E+00  0.88929349479E+00  0.88000000000E+00 0. -1.
        -11    1    4    4    0    0 -0.99875916088E-02 -0.47421039551E-02 -0.16274160323E-01  0.19681182669E-01  0.51100000000E-03 0.  1.
         11    1    4    4    0    0 -0.16262302707E-01 -0.52741756584E-01 -0.96217720947E-01  0.11092459746E+00  0.51100000000E-03 0. -1.
</event>
<event>
 8    1  0.1095698E+005  0.1043930E+01  0.7957747E-01            NaN
         13   -1    0    0    0    0  0.00000000000E+00  0.00000000000E+00  0.74505805969E-08  0.10566000000E+00  0.10566000000E+00 0. -1.
     999900   -1    0    0    0    0 -0.00000000000E+00 -0.00000000000E+00 -0.74505805969E-08  0.93827000000E+00  0.93827000000E+00 0.  1.
     999902    2    1    2    0    0  0.80465708296E-02 -0.29840436472E-03 -0.22178581724E-01  0.10203349617E+01  0.10200621099E+01 0.  0.
     999903    2    3    3    0    0 -0.28322057751E-01 -0.12323452254E+00 -0.27670042888E-01  0.13102842145E+00  0.20345256319E-01 0.  0.
         14    1    1    2    0    0 -0.80465708296E-02  0.29840436472E-03  0.22178581724E-01  0.23595038346E-01  0.00000000000E+00 0. -1.
     999901    1    3    3    0    0  0.36368628581E-01  0.12293611817E+00  0.54914611643E-02  0.88930654020E+00  0.88000000000E+00 0. -1.
        -11    1    4    4    0    0 -0.27312543950E-01 -0.74906482915E-01 -0.17273270632E-01  0.81581758004E-01  0.51100000000E-03 0. -1.
         11    1    4    4    0    0 -0.10095138012E-02 -0.48328039623E-01 -0.10396772256E-01  0.49446663449E-01  0.51100000000E-03 0.  1.
</event>
<event>
 8    1  0.1095698E+005  0.1043930E+01  0.7957747E-01            NaN
         13   -1    0    0    0    0  0.00000000000E+00  0.00000000000E+00  0.74505805969E-08  0.10566000000E+00  0.10566000000E+00 0. -1.
     999900   -1    0    0    0    0 -0.00000000000E+00 -0.00000000000E+00 -0.74505805969E-08  0.93827000000E+00  0.93827000000E+00 0. -1.
     999902    2    1    2    0    0  0.13269964991E-01 -0.14390617161E-01 -0.14389299451E-01  0.10196352728E+01  0.10193457979E+01 0.  0.
     999903    2    3    3    0    0 -0.29045188483E-01 -0.10068202092E+00  0.74350135518E-01  0.12996597133E+00  0.19563198673E-01 0.  0.
         14    1    1    2    0    0 -0.13269964991E-01  0.14390617161E-01  0.14389299451E-01  0.24294727244E-01  0.00000000000E+00 0. -1.
     999901    1    3    3    0    0  0.42315153474E-01  0.86291403759E-01 -0.88739434969E-01  0.88966930142E+00  0.88000000000E+00 0.  1.
        -11    1    4    4    0    0 -0.17237943404E-01 -0.44326498890E-01  0.44377546464E-01  0.65050848940E-01  0.51100000000E-03 0. -1.
         11    1    4    4    0    0 -0.11807245078E-01 -0.56355522031E-01  0.29972589054E-01  0.64915122393E-01  0.51100000000E-03 0.  1.
</event>
<event>
 8    1  0.1095698E+005  0.1043930E+01  0.7957747E-01            NaN
         13   -1    0    0    0    0  0.00000000000E+00  0.00000000000E+00  0.74505805969E-08  0.10566000000E+00  0.10566000000E+00 0.  1.
     999900   -1    0    0    0    0 -0.00000000000E+00 -0.00000000000E+00 -0.74505805969E-08  0.93827000000E+00  0.93827000000E+00 0. -1.
     999902    2    1    2    0    0 -0.21233375767E-01 -0.27232004505E-02 -0.90698300202E-02  0.10206806154E+01  0.10204157902E+01 0.  0.
     999903    2    3    3    0    0 -0.12920261874E+00 -0.94098936562E-02  0.21765478364E-01  0.13352060417E+00  0.23919717862E-01 0.  0.
         14    1    1    2    0    0  0.21233375767E-01  0.27232004505E-02  0.90698300202E-02  0.23249384589E-01  0.00000000000E+00 0.  1.
     999901    1    3    3    0    0  0.10796924297E+00  0.66866932057E-02 -0.30835308385E-01  0.88716001124E+00  0.88000000000E+00 0. -1.
        -11    1    4    4    0    0 -0.61310445707E-01 -0.12446313665E-01  0.14223188567E-02  0.62579274433E-01  0.51100000000E-03 0.  1.
         11    1    4    4    0    0 -0.67892173034E-01  0.30364200092E-02  0.20343159508E-01  0.70941329741E-01  0.51100000000E-03 0. -1.
</event>
<event>
 8    1  0.1095698E+005  0.1043930E+01  0.7957747E-01            NaN
         13   -1    0    0    0    0  0.00000000000E+00  0.00000000000E+00  0.74505805969E-08  0.10566000000E+00  0.10566000000E+00 0. -1.
     999900   -1    0    0    0    0 -0.00000000000E+00 -0.00000000000E+00 -0.74505805969E-08  0.93827000000E+00  0.93827000000E+00 0.  1.
     999902    2    1    2    0    0 -0.14044706867E-01  0.20888611653E-02  0.20044549180E-01  0.10193657763E+01  0.10190697645E+01 0.  0.
     999903    2    3    3    0    0 -0.32999434323E-02  0.68016861377E-01  0.11094916100E+00  0.13216478468E+00  0.22817338259E-01 0.  0.
         14    1    1    2    0    0  0.14044706867E-01 -0.20888611653E-02 -0.20044549180E-01  0.24564223655E-01  0.00000000000E+00 0.  1.
     999901    1    3    3    0    0 -0.10744763435E-01 -0.65928000211E-01 -0.90904611823E-01  0.88720099166E+00  0.88000000000E+00 0.  1.
        -11    1    4    4    0    0  0.61929444567E-02  0.40537009986E-01  0.78684875933E-01  0.88730899698E-01  0.51100000000E-03 0. -1.
         11    1    4    4    0    0 -0.94928878889E-02  0.27479851390E-01  0.32264285070E-01  0.43433884986E-01  0.51100000000E-03 0.  1.
</event>
<event>
 8    1  0.1095698E+005  0.1043930E+01  0.7957747E-01            NaN
         13   -1    0    0    0    0  0.00000000000E+00  0.00000000000E+00  0.74505805969E-08  0.10566000000E+00  0.10566000000E+00 0. -1.
     999900   -1    0    0    0    0 -0.00000000000E+00 -0.00000000000E+00 -0.74505805969E-08  0.93827000000E+00  0.93827000000E+00 0. -1.
     999902    2    1    2    0    0  0.72147764851E-02  0.22124952011E-01  0.33079329116E-02  0.10204244917E+01  0.10201537307E+01 0.  0.
     999903    2    3    3    0    0  0.11001395686E+00  0.69043534614E-01  0.20664781986E-01  0.13302926683E+00  0.19991804412E-01 0.  0.
         14    1    1    2    0    0 -0.72147764851E-02 -0.22124952011E-01 -0.33079329116E-02  0.23505508320E-01  0.00000000000E+00 0.  1.
     999901    1    3    3    0    0 -0.10279918037E+00 -0.46918582602E-01 -0.17356849074E-01  0.88739522485E+00  0.88000000000E+00 0. -1.
        -11    1    4    4    0    0  0.70996806153E-01  0.51601680170E-01  0.65342109170E-02  0.88012708819E-01  0.51100000000E-03 0. -1.
         11    1    4    4    0    0  0.39017150703E-01  0.17441854443E-01  0.14130571069E-01  0.45016558010E-01  0.51100000000E-03 0.  1.
</event>
<event>
 8    1  0.1095698E+005  0.1043930E+01  0.7957747E-01            NaN
         13   -1    0    0    0    0  0.00000000000E+00  0.00000000000E+00  0.74505805969E-08  0.10566000000E+00  0.10566000000E+00 0.  1.
     999900   -1    0    0    0    0 -0.00000000000E+00 -0.00000000000E+00 -0.74505805969E-08  0.93827000000E+00  0.93827000000E+00 0.  1.
     999902    2    1    2    0    0 -0.20867918224E-01 -0.33663264414E-02 -0.13479858185E-01  0.10188599234E+01  0.10185514394E+01 0.  0.
     999903    2    3    3    0    0 -0.11098050973E+00 -0.22278702138E-01  0.62335487093E-01  0.13081379638E+00  0.20335246842E-01 0.  0.
         14    1    1    2    0    0  0.20867918224E-01  0.33663264414E-02  0.13479858185E-01  0.25070076614E-01  0.00000000000E+00 0.  1.
     999901    1    3    3    0    0  0.90112591507E-01  0.18912375697E-01 -0.75815345279E-01  0.88804612700E+00  0.88000000000E+00 0.  1.
        -11    1    4    4    0    0 -0.66719640880E-01 -0.35738414144E-02  0.33112448914E-01  0.74571966688E-01  0.51100000000E-03 0.  1.
         11    1    4    4    0    0 -0.44260868851E-01 -0.18704860724E-01  0.29223038179E-01  0.56241829696E-01  0.51100000000E-03 0. -1.
</event>
<event>
 7    1  0.1095698E+005  0.1043930E+01  0.7957747E-01            NaN
         13   -1    0    0    0    0  0.00000000000E+00  0.00000000000E+00  0.74505805969E-08  0.10566000000E+00  0.10566000000E+00 0. -1.
     999900   -1    0    0    0    0 -0.00000000000E+00 -0.00000000000E+00 -0.74505805969E-08  0.93827000000E+00  0.93827000000E+00 0.  1.
     999903    2    1    2    0    0 -0.63983099536E-01 -0.83131789441E-01 -0.73800679685E-02  0.10711888345E+00  0.20377888677E-01 0.  0.
         14    1    1    2    0    0  0.40115901474E-01  0.17060118814E-01  0.31335509440E-01  0.53686565888E-01  0.00000000000E+00 0. -1.
     999901    1    1    2    0    0  0.23867198062E-01  0.66071670627E-01 -0.23955441472E-01  0.88312455066E+00  0.88000000000E+00 0.  1.
        -11    1    3    3    0    0 -0.11792908102E-01 -0.98254493495E-02 -0.75878144531E-02  0.17130329407E-01  0.51100000000E-03 0.  1.
         11    1    3    3    0    0 -0.52190191434E-01 -0.73306340091E-01  0.20774648459E-03  0.89988554045E-01  0.51100000000E-03 0. -1.
</event>
<event>
 8    1  0.1095698E+005  0.1043930E+01  0.7957747E-01            NaN
         13   -1    0    0    0    0  0.00000000000E+00  0.00000000000E+00  0.74505805969E-08  0.10566000000E+00  0.10566000000E+00 0. -1.
     999900   -1    0    0    0    0 -0.00000000000E+00 -0.00000000000E+00 -0.74505805969E-08  0.93827000000E+00  0.93827000000E+00 0.  1.
     999902    2    1    2    0    0 -0.19504327683E-01 -0.61690414984E-02 -0.12339096627E-01  0.10200400612E+01  0.10197602646E+01 0.  0.
     999903    2    3    3    0    0  0.11966870897E+00  0.12894250969E-01 -0.40126144391E-01  0.12846579996E+00  0.20161663611E-01 0.  0.
         14    1    1    2    0    0  0.19504327683E-01  0.61690414984E-02  0.12339096627E-01  0.23889938822E-01  0.00000000000E+00 0.  1.
     999901    1    3    3    0    0 -0.13917303665E+00 -0.19063292467E-01  0.27787047765E-01  0.89157426122E+00  0.88000000000E+00 0. -1.
        -11    1    4    4    0    0  0.73162539323E-01  0.15678617766E-01 -0.18386371043E-01  0.77051255514E-01  0.51100000000E-03 0. -1.
         11    1    4    4    0    0  0.46506169648E-01 -0.27843667971E-02 -0.21739773348E-01  0.51414544441E-01  0.51100000000E-03 0.  1.
</event>
<event>
 8    1  0.1095698E+005  0.1043930E+01  0.7957747E-01            NaN
         13   -1    0    0    0    0  0.00000000000E+00  0.00000000000E+00  0.74505805969E-08  0.10566000000E+00  0.10566000000E+00 0. -1.
     999900   -1    0    0    0    0 -0.00000000000E+00 -0.00000000000E+00 -0.74505805969E-08  0.93827000000E+00  0.93827000000E+00 0. -1.
     999902    2    1    2    0    0  0.47157307786E-02  0.15923544434E-01  0.66247008217E-02  0.10260502896E+01  0.10258944939E+01 0.  0.
     999903    2    3    3    0    0 -0.11107983007E+00 -0.23748775377E-01  0.70387378944E-01  0.13529320484E+00  0.21145571201E-01 0.  0.
         14    1    1    2    0    0 -0.47157307786E-02 -0.15923544434E-01 -0.66247008217E-02  0.17879710431E-01  0.00000000000E+00 0.  1.
     999901    1    3    3    0    0  0.11579556085E+00  0.39672319811E-01 -0.63762678122E-01  0.89075708473E+00  0.88000000000E+00 0. -1.
        -11    1    4    4    0    0 -0.58525891466E-01 -0.93509261639E-02  0.24813822431E-01  0.64255013008E-01  0.51100000000E-03 0. -1.
         11    1    4    4    0    0 -0.52553938604E-01 -0.14397849213E-01  0.45573556513E-01  0.71038191833E-01  0.51100000000E-03 0.  1.
</event>
<event>
 8    1  0.1095698E+005  0.1043930E+01  0.7957747E-01            NaN
         13   -1    0    0    0    0  0.00000000000E+00  0.00000000000E+00  0.74505805969E-08  0.10566000000E+00  0.10566000000E+00 0.  1.
     999900   -1    0    0    0    0 -0.00000000000E+00 -0.00000000000E+00 -0.74505805969E-08  0.93827000000E+00  0.93827000000E+00 0. -1.
     999902    2    1    2    0    0  0.16186245506E-01 -0.18622425342E-01  0.13400572142E-02  0.10192199813E+01  0.10189204019E+01 0.  0.
     999903    2    3    3    0    0 -0.99557487376E-01 -0.76614381420E-01  0.24233700602E-01  0.12945383364E+00  0.19737428061E-01 0.  0.
         14    1    1    2    0    0 -0.16186245506E-01  0.18622425342E-01 -0.13400572142E-02  0.24710018667E-01  0.00000000000E+00 0. -1.
     999901    1    3    3    0    0  0.11574373288E+00  0.57991956078E-01 -0.22893643388E-01  0.88976614769E+00  0.88000000000E+00 0.  1.
        -11    1    4    4    0    0 -0.22305916409E-01 -0.21581441830E-01  0.13999871063E-01  0.34052460250E-01  0.51100000000E-03 0. -1.
         11    1    4    4    0    0 -0.77251570968E-01 -0.55032939590E-01  0.10233829538E-01  0.95401373391E-01  0.51100000000E-03 0.  1.
</event>
<event>
 8    1  0.1095698E+005  0.1043930E+01  0.7957747E-01            NaN
         13   -1    0    0    0    0  0.00000000000E+00  0.00000000000E+00  0.74505805969E-08  0.10566000000E+00  0.10566000000E+00 0. -1.
     999900   -1    0    0    0    0 -0.00000000000E+00 -0.00000000000E+00 -0.74505805969E-08  0.93827000000E+00  0.93827000000E+00 0. -1.
     999902    2    1    2    0    0 -0.92379552026E-02 -0.16633942001E-01 -0.14194247460E-01  0.10201917502E+01  0.10199155370E+01 0.  0.
     999903    2    3    3    0    0  0.51705305720E-01 -0.30433618904E-01  0.11230414481E+00  0.12895308666E+00  0.20421405869E-01 0.  0.
         14    1    1    2    0    0  0.92379552026E-02  0.16633942001E-01  0.14194247460E-01  0.23738249805E-01  0.00000000000E+00 0. -1.
     999901    1    3    3    0    0 -0.60943260922E-01  0.13799676903E-01 -0.12649839227E+00  0.89123866354E+00  0.88000000000E+00 0. -1.
        -11    1    4    4    0    0  0.15500656809E-01 -0.22052014211E-02  0.43524673948E-01  0.46257881903E-01  0.51100000000E-03 0. -1.
         11    1    4    4    0    0  0.36204648910E-01 -0.28228417483E-01  0.68779470864E-01  0.82695204756E-01  0.51100000000E-03 0.  1.
</event>
<event>
 8    1  0.1095698E+005  0.1043930E+01  0.7957747E-01            NaN
         13   -1    0    0    0    0  0.00000000000E+00  0.00000000000E+00  0.74505805969E-08  0.10566000000E+00  0.10566000000E+00 0.  1.
     999900   -1    0    0    0    0 -0.00000000000E+00 -0.00000000000E+00 -0.74505805969E-08  0.93827000000E+00  0.93827000000E+00 0. -1.
     999902    2    1    2    0    0 -0.12215782634E-01 -0.15588457598E-02  0.20401943440E-01  0.10200994599E+01  0.10198210693E+01 0.  0.
     999903    2    3    3    0    0 -0.60687327719E-02 -0.12559077463E+00 -0.26771005679E-01  0.13012923976E+00  0.20175730649E-01 0.  0.
         14    1    1    2    0    0  0.12215782634E-01  0.15588457598E-02 -0.20401943440E-01  0.23830540103E-01  0.00000000000E+00 0.  1.
     999901    1    3    3    0    0 -0.61470498623E-02  0.12403192887E+00  0.47172949119E-01  0.88997022014E+00  0.88000000000E+00 0.  1.
        -11    1    4    4    0    0 -0.59294892614E-02 -0.94542289994E-01 -0.28798295960E-01  0.99010132872E-01  0.51100000000E-03 0. -1.
         11    1    4    4    0    0 -0.13924351046E-03 -0.31048484632E-01  0.20272902804E-02  0.31119106889E-01  0.51100000000E-03 0.  1.
</event>
<event>
 8    1  0.1095698E+005  0.1043930E+01  0.7957747E-01            NaN
         13   -1    0    0    0    0  0.00000000000E+00  0.00000000000E+00  0.74505805969E-08  0.10566000000E+00  0.10566000000E+00 0. -1.
     999900   -1    0    0    0    0 -0.00000000000E+00 -0.00000000000E+00 -0.74505805969E-08  0.93827000000E+00  0.93827000000E+00 0. -1.
     999902    2    1    2    0    0 -0.17300941605E-02  0.17385351189E-01  0.15353217699E-01  0.10206713467E+01  0.10204063078E+01 0.  0.
     999903    2    3    3    0    0  0.12745796638E-02  0.93983075034E-01 -0.89245827988E-01  0.13116744013E+00  0.20140421812E-01 0.  0.
         14    1    1    2    0    0  0.17300941605E-02 -0.17385351189E-01 -0.15353217699E-01  0.23258653346E-01  0.00000000000E+00 0.  1.
     999901    1    3    3    0    0 -0.30046738243E-02 -0.76597723845E-01  0.10459904569E+00  0.88950390652E+00  0.88000000000E+00 0.  1.
        -11    1    4    4    0    0 -0.69616768707E-02  0.73996508023E-01 -0.72371451532E-01  0.10373927059E+00  0.51100000000E-03 0. -1.
         11    1    4    4    0    0  0.82362565345E-02  0.19986567011E-01 -0.16874376456E-01  0.27428169541E-01  0.51100000000E-03 0.  1.
</event>
<event>
 8    1  0.1095698E+005  0.1043930E+01  0.7957747E-01            NaN
         13   -1    0    0    0    0  0.00000000000E+00  0.00000000000E+00  0.74505805969E-08  0.10566000000E+00  0.10566000000E+00 0. -1.
     999900   -1    0    0    0    0 -0.00000000000E+00 -0.00000000000E+00 -0.74505805969E-08  0.93827000000E+00  0.93827000000E+00 0.  1.
     999902    2    1    2    0    0  0.86349638741E-02  0.83585328844E-02  0.21239757893E-01  0.10195260047E+01  0.10192338884E+01 0.  0.
     999903    2    3    3    0    0  0.14985106580E-01 -0.81054080094E-01  0.10037954687E+00  0.13143927136E+00  0.20147240675E-01 0.  0.
         14    1    1    2    0    0 -0.86349638741E-02 -0.83585328844E-02 -0.21239757893E-01  0.24403995337E-01  0.00000000000E+00 0.  1.
     999901    1    3    3    0    0 -0.63501427060E-02  0.89412612978E-01 -0.79139788975E-01  0.88808673330E+00  0.88000000000E+00 0.  1.
        -11    1    4    4    0    0  0.11433201817E-01 -0.47128581661E-01  0.43685342152E-01  0.65272440993E-01  0.51100000000E-03 0. -1.
         11    1    4    4    0    0  0.35519047630E-02 -0.33925498433E-01  0.56694204715E-01  0.66166830365E-01  0.51100000000E-03 0.  1.
</event>
<event>
 8    1  0.1095698E+005  0.1043930E+01  0.7957747E-01            NaN
         13   -1    0    0    0    0  0.00000000000E+00  0.00000000000E+00  0.74505805969E-08  0.10566000000E+00  0.10566000000E+00 0.  1.
     999900   -1    0    0    0    0 -0.00000000000E+00 -0.00000000000E+00 -0.74505805969E-08  0.93827000000E+00  0.93827000000E+00 0. -1.
     999902    2    1    2    0    0  0.16795942441E-01  0.11925185634E-01  0.11565758854E-01  0.10203062723E+01  0.10200327488E+01 0.  0.
     999903    2    3    3    0    0  0.52927546657E-01  0.10534872997E+00  0.55759073167E-01  0.13352191262E+00  0.28624234613E-01 0.  0.
         14    1    1    2    0    0 -0.16795942441E-01 -0.11925185634E-01 -0.11565758854E-01  0.23623727749E-01  0.00000000000E+00 0. -1.
     999901    1    3    3    0    0 -0.36131604216E-01 -0.93423544337E-01 -0.44193314313E-01  0.88678435963E+00  0.88000000000E+00 0. -1.
        -11    1    4    4    0    0  0.31139436532E-01  0.86084411987E-01  0.48243557570E-01  0.10347894695E+00  0.51100000000E-03 0.  1.
         11    1    4    4    0    0  0.21788110125E-01  0.19264317983E-01  0.75155155969E-02  0.30042965664E-01  0.51100000000E-03 0. -1.
</event>
<event>
 8    1  0.1095698E+005  0.1043930E+01  0.7957747E-01            NaN
         13   -1    0    0    0    0  0.00000000000E+00  0.00000000000E+00  0.74505805969E-08  0.10566000000E+00  0.10566000000E+00 0. -1.
     999900   -1    0    0    0    0 -0.00000000000E+00 -0.00000000000E+00 -0.74505805969E-08  0.93827000000E+00  0.93827000000E+00 0. -1.
     999902    2    1    2    0    0  0.18607981462E-01  0.11043106039E-01  0.81465325773E-02  0.10208091618E+01  0.10205472903E+01 0.  0.
     999903    2    3    3    0    0 -0.43887081062E-01 -0.11513370431E+00 -0.31474521651E-01  0.12873514682E+00  0.20006168059E-01 0.  0.
         14    1    1    2    0    0 -0.18607981462E-01 -0.11043106039E-01 -0.81465325773E-02  0.23120838179E-01  0.00000000000E+00 0.  1.
     999901    1    3    3    0    0  0.62495062523E-01  0.12617681035E+00  0.39621054229E-01  0.89207401501E+00  0.88000000000E+00 0. -1.
        -11    1    4    4    0    0 -0.49426724383E-02 -0.29985926933E-02  0.41929577699E-03  0.58188056267E-02  0.51100000000E-03 0.  1.
         11    1    4    4    0    0 -0.38944408623E-01 -0.11213511162E+00 -0.31893817428E-01  0.12291634119E+00  0.51100000000E-03 0. -1.
</event>
<event>
 8    1  0.1095698E+005  0.1043930E+01  0.7957747E-01            NaN
         13   -1    0    0    0    0  0.00000000000E+00  0.00000000000E+00  0.74505805969E-08  0.10566000000E+00  0.10566000000E+00 0. -1.
     999900   -1    0    0    0    0 -0.00000000000E+00 -0.00000000000E+00 -0.74505805969E-08  0.93827000000E+00  0.93827000000E+00 0. -1.
     999902    2    1    2    0    0  0.13514908853E-02  0.22682786071E-01 -0.85970666985E-02  0.10196350444E+01  0.10193455640E+01 0.  0.
     999903    2    3    3    0    0 -0.96324087292E-01 -0.67041320996E-01  0.46842021502E-01  0.12797119157E+00  0.20238141684E-01 0.  0.
         14    1    1    2    0    0 -0.13514908853E-02 -0.22682786071E-01  0.85970666985E-02  0.24294955595E-01  0.00000000000E+00 0. -1.
     999901    1    3    3    0    0  0.97675578177E-01  0.89724107067E-01 -0.55439088200E-01  0.89166385284E+00  0.88000000000E+00 0. -1.
        -11    1    4    4    0    0 -0.64704283097E-01 -0.34596683481E-01  0.23776424062E-01  0.77130760538E-01  0.51100000000E-03 0.  1.
         11    1    4    4    0    0 -0.31619804194E-01 -0.32444637515E-01  0.23065597439E-01  0.50840431027E-01  0.51100000000E-03 0. -1.
</event>
<event>
 8    1  0.1095698E+005  0.1043930E+01  0.7957747E-01            NaN
         13   -1    0    0    0    0  0.00000000000E+00  0.00000000000E+00  0.74505805969E-08  0.10566000000E+00  0.10566000000E+00 0. -1.
     999900   -1    0    0    0    0 -0.00000000000E+00 -0.00000000000E+00 -0.74505805969E-08  0.93827000000E+00  0.93827000000E+00 0.  1.
     999902    2    1    2    0    0  0.18582454282E-01 -0.33140356429E-02 -0.13710090036E-01  0.10206006835E+01  0.10203340130E+01 0.  0.
     999903    2    3    3    0    0 -0.11734508639E+00  0.14735046403E-01  0.44675442072E-01  0.12807004760E+00  0.20470737046E-01 0.  0.
         14    1    1    2    0    0 -0.18582454282E-01  0.33140356429E-02  0.13710090036E-01  0.23329316496E-01  0.00000000000E+00 0. -1.
     999901    1    3    3    0    0  0.13592754067E+00 -0.18049082046E-01 -0.58385532108E-01  0.89253063591E+00  0.88000000000E+00 0.  1.
        -11    1    4    4    0    0 -0.70271686801E-01  0.16127246354E-01  0.19614754154E-01  0.74720798593E-01  0.51100000000E-03 0. -1.
         11    1    4    4    0    0 -0.47073399586E-01 -0.13921999504E-02  0.25060687918E-01  0.53349249003E-01  0.51100000000E-03 0.  1.
</event>
<event>
 8    1  0.1095698E+005  0.1043930E+01  0.7957747E-01            NaN
         13   -1    0    0    0    0  0.00000000000E+00  0.00000000000E+00  0.74505805969E-08  0.10566000000E+00  0.10566000000E+00 0.  1.
     999900   -1    0    0    0    0 -0.00000000000E+00 -0.00000000000E+00 -0.74505805969E-08  0.93827000000E+00  0.93827000000E+00 0. -1.
     999902    2    1    2    0    0 -0.15636658964E-01 -0.47804151186E-02 -0.16020975781E-01  0.10210383173E+01  0.10207816692E+01 0.  0.
     999903    2    3    3    0    0 -0.11884384321E+00  0.28425427509E-01  0.47010352401E-01  0.13214726705E+00  0.17918229781E-01 0.  0.
         14    1    1    2    0    0  0.15636658964E-01  0.47804151186E-02  0.16020975781E-01  0.22891682709E-01  0.00000000000E+00 0.  1.
     999901    1    3    3    0    0  0.10320718425E+00 -0.33205842628E-01 -0.63031328182E-01  0.88889105024E+00  0.88000000000E+00 0.  1.
        -11    1    4    4    0    0 -0.52920181790E-01  0.19855397473E-01  0.15711576251E-01  0.58667684451E-01  0.51100000000E-03 0.  1.
         11    1    4    4    0    0 -0.65923661419E-01  0.85700300366E-02  0.31298776150E-01  0.73479582600E-01  0.51100000000E-03 0. -1.
</event>
<event>
 8    1  0.1095698E+005  0.1043930E+01  0.7957747E-01            NaN
         13   -1    0    0    0    0  0.00000000000E+00  0.00000000000E+00  0.74505805969E-08  0.10566000000E+00  0.10566000000E+00 0. -1.
     999900   -1    0    0    0    0 -0.00000000000E+00 -0.00000000000E+00 -0.74505805969E-08  0.93827000000E+00  0.93827000000E+00 0.  1.
     999902    2    1    2    0    0  0.13256888535E-02 -0.23178662517E-01 -0.42266725227E-02  0.10203318516E+01  0.10200589271E+01 0.  0.
     999903    2    3    3    0    0  0.12275535658E+00  0.38951812987E-02  0.39195673061E-01  0.13052082823E+00  0.20379789262E-01 0.  0.
         14    1    1    2    0    0 -0.13256888535E-02  0.23178662517E-01  0.42266725227E-02  0.23598148394E-01  0.00000000000E+00 0.  1.
     999901    1    3    3    0    0 -0.12142966772E+00 -0.27073843816E-01 -0.43422345584E-01  0.88981102337E+00  0.88000000000E+00 0.  1.
        -11    1    4    4    0    0  0.26974321726E-01  0.44823956857E-02  0.89708817808E-03  0.27363694777E-01  0.51100000000E-03 0.  1.
         11    1    4    4    0    0  0.95781034849E-01 -0.58721438698E-03  0.38298584883E-01  0.10315713345E+00  0.51100000000E-03 0. -1.
</event>
<event>
 8    1  0.1095698E+005  0.1043930E+01  0.7957747E-01            NaN
         13   -1    0    0    0    0  0.00000000000E+00  0.00000000000E+00  0.74505805969E-08  0.10566000000E+00  0.10566000000E+00 0.  1.
     999900   -1    0    0    0    0 -0.00000000000E+00 -0.00000000000E+00 -0.74505805969E-08  0.93827000000E+00  0.93827000000E+00 0.  1.
     999902    2    1    2    0    0  0.53628218222E-02 -0.20557967012E-01  0.10104527519E-01  0.10204036033E+01  0.10201323553E+01 0.  0.
     999903    2    3    3    0    0 -0.16622568483E-01 -0.13006427794E+00  0.13698091812E-01  0.13333658033E+00  0.19949429968E-01 0.  0.
         14    1    1    2    0    0 -0.53628218222E-02  0.20557967012E-01 -0.10104527519E-01  0.23526396706E-01  0.00000000000E+00 0. -1.
     999901    1    3    3    0    0  0.21985390305E-01  0.10950631093E+00 -0.35935642934E-02  0.88706702296E+00  0.88000000000E+00 0.  1.
        -11    1    4    4    0    0 -0.11886461088E-01 -0.58363850563E-01  0.15160407211E-01  0.61463209138E-01  0.51100000000E-03 0. -1.
         11    1    4    4    0    0 -0.47361073953E-02 -0.71700427380E-01 -0.14623153990E-02  0.71873371196E-01  0.51100000000E-03 0.  1.
</event>
<event>
 8    1  0.1095698E+005  0.1043930E+01  0.7957747E-01            NaN
         13   -1    0    0    0    0  0.00000000000E+00  0.00000000000E+00  0.74505805969E-08  0.10566000000E+00  0.10566000000E+00 0.  1.
     999900   -1    0    0    0    0 -0.00000000000E+00 -0.00000000000E+00 -0.74505805969E-08  0.93827000000E+00  0.93827000000E+00 0.  1.
     999902    2    1    2    0    0  0.13444707494E-01  0.89136713779E-02  0.17671269780E-01  0.10200032896E+01  0.10197226207E+01 0.  0.
     999903    2    3    3    0    0 -0.82475328692E-01  0.80898857074E-01 -0.53271385928E-01  0.12904011372E+00  0.21603367115E-01 0.  0.
         14    1    1    2    0    0 -0.13444707494E-01 -0.89136713779E-02 -0.17671269780E-01  0.23926710444E-01  0.00000000000E+00 0. -1.
     999901    1    3    3    0    0  0.95920036186E-01 -0.71985185696E-01  0.70942655709E-01  0.89096317584E+00  0.88000000000E+00 0. -1.
        -11    1    4    4    0    0 -0.19843108207E-01  0.18829166800E-01 -0.23205627290E-01  0.35875461316E-01  0.51100000000E-03 0. -1.
         11    1    4    4    0    0 -0.62632220485E-01  0.62069690274E-01 -0.30065758638E-01  0.93164652402E-01  0.51100000000E-03 0.  1.
</event>
<event>
 8    1  0.1095698E+005  0.1043930E+01  0.7957747E-01            NaN
         13   -1    0    0    0    0  0.00000000000E+00  0.00000000000E+00  0.74505805969E-08  0.10566000000E+00  0.10566000000E+00 0. -1.
     999900   -1    0    0    0    0 -0.00000000000E+00 -0.00000000000E+00 -0.74505805969E-08  0.93827000000E+00  0.93827000000E+00 0. -1.
     999902    2    1    2    0    0  0.20500885847E-01  0.75439051495E-02  0.88813711281E-02  0.10203487452E+01  0.10200762159E+01 0.  0.
     999903    2    3    3    0    0 -0.13551082655E-01 -0.95052631881E-01 -0.83765388864E-01  0.12890665054E+00  0.19535852012E-01 0.  0.
         14    1    1    2    0    0 -0.20500885847E-01 -0.75439051495E-02 -0.88813711281E-02  0.23581254813E-01  0.00000000000E+00 0.  1.
     999901    1    3    3    0    0  0.34051968502E-01  0.10259653703E+00  0.92646759992E-01  0.89144209465E+00  0.88000000000E+00 0. -1.
        -11    1    4    4    0    0 -0.18141729631E-01 -0.63341976985E-01 -0.54510401552E-01  0.85515924837E-01  0.51100000000E-03 0.  1.
         11    1    4    4    0    0  0.45906469761E-02 -0.31710654895E-01 -0.29254987311E-01  0.43390725704E-01  0.51100000000E-03 0. -1.
</event>
<event>
 8    1  0.1095698E+005  0.1043930E+01  0.7957747E-01            NaN
         13   -1    0    0    0    0  0.00000000000E+00  0.00000000000E+00  0.74505805969E-08  0.10566000000E+00  0.10566000000E+00 0. -1.
     999900   -1    0    0    0    0 -0.00000000000E+00 -0.00000000000E+00 -0.74505805969E-08  0.93827000000E+00  0.93827000000E+00 0. -1.
     999902    2    1    2    0    0  0.17150414212E-01  0.11432939999E-01  0.11533505783E-01  0.10203107159E+01  0.10200372966E+01 0.  0.
     999903    2    3    3    0    0 -0.32250989443E-01 -0.12247367296E+00 -0.99939513652E-02  0.12855126905E+00  0.19637281412E-01 0.  0.
         14    1    1    2    0    0 -0.17150414212E-01 -0.11432939999E-01 -0.11533505783E-01  0.23619284077E-01  0.00000000000E+00 0.  1.
     999901    1    3    3    0    0  0.49401403655E-01  0.13390661296E+00  0.21527457148E-01  0.89175944687E+00  0.88000000000E+00 0. -1.
        -11    1    4    4    0    0 -0.18088012534E-01 -0.40238851998E-01  0.24161260455E-02  0.44186425445E-01  0.51100000000E-03 0. -1.
         11    1    4    4    0    0 -0.14162976909E-01 -0.82234820964E-01 -0.12410077411E-01  0.84364843604E-01  0.51100000000E-03 0.  1.
</event>
<event>
 8    1  0.1095698E+005  0.1043930E+01  0.7957747E-01            NaN
         13   -1    0    0    0    0  0.00000000000E+00  0.00000000000E+00  0.74505805969E-08  0.10566000000E+00  0.10566000000E+00 0. -1.
     999900   -1    0    0    0    0 -0.00000000000E+00 -0.00000000000E+00 -0.74505805969E-08  0.93827000000E+00  0.93827000000E+00 0.  1.
     999902    2    1    2    0    0 -0.19613444326E-01 -0.87305333459E-02 -0.37339483260E-02  0.10221389059E+01  0.10219065961E+01 0.  0.
     999903    2    3    3    0    0  0.98188415658E-01 -0.53963922289E-01  0.61302724991E-01  0.13076182154E+00  0.28063499476E-01 0.  0.
         14    1    1    2    0    0  0.19613444326E-01  0.87305333459E-02  0.37339483260E-02  0.21791094074E-01  0.00000000000E+00 0. -1.
     999901    1    3    3    0    0 -0.11780185998E+00  0.45233388944E-01 -0.65036673317E-01  0.89137708439E+00  0.88000000000E+00 0. -1.
        -11    1    4    4    0    0  0.47281601843E-01 -0.41764052572E-01  0.31344629973E-01  0.70445247599E-01  0.51100000000E-03 0. -1.
         11    1    4    4    0    0  0.50906813816E-01 -0.12199869717E-01  0.29958095018E-01  0.60316573942E-01  0.51100000000E-03 0.  1.
</event>
<event>
 8    1  0.1095698E+005  0.1043930E+01  0.7957747E-01            NaN
         13   -1    0    0    0    0  0.00000000000E+00  0.00000000000E+00  0.74505805969E-08  0.10566000000E+00  0.10566000000E+00 0.  1.
     999900   -1    0    0    0    0 -0.00000000000E+00 -0.00000000000E+00 -0.74505805969E-08  0.93827000000E+00  0.93827000000E+00 0. -1.
     999902    2    1    2    0    0  0.20226611122E-01 -0.11954862489E-01  0.15302916066E-02  0.10203848025E+01  0.10201131157E+01 0.  0.
     999903    2    3    3    0    0 -0.96404919418E-01 -0.79822798529E-01 -0.26431412425E-01  0.12965991365E+00  0.21153864705E-01 0.  0.
         14    1    1    2    0    0 -0.20226611122E-01  0.11954862489E-01 -0.15302916066E-02  0.23545197537E-01  0.00000000000E+00 0.  1.
     999901    1    3    3    0    0  0.11663153054E+00  0.67867936040E-01  0.27961704032E-01  0.89072488881E+00  0.88000000000E+00 0.  1.
        -11    1    4    4    0    0 -0.21773866162E-01 -0.26218744941E-01 -0.14333365522E-03  0.34085268071E-01  0.51100000000E-03 0. -1.
         11    1    4    4    0    0 -0.74631053257E-01 -0.53604053588E-01 -0.26288078770E-01  0.95574645580E-01  0.51100000000E-03 0.  1.
</event>
<event>
 8    1  0.1095698E+005  0.1043930E+01  0.7957747E-01            NaN
         13   -1    0    0    0    0  0.00000000000E+00  0.00000000000E+00  0.74505805969E-08  0.10566000000E+00  0.10566000000E+00 0. -1.
     999900   -1    0    0    0    0 -0.00000000000E+00 -0.00000000000E+00 -0.74505805969E-08  0.93827000000E+00  0.93827000000E+00 0. -1.
     999902    2    1    2    0    0 -0.23284662456E-01  0.38782850215E-03 -0.84447779761E-02  0.10191582380E+01  0.10188571411E+01 0.  0.
     999903    2    3    3    0    0 -0.80981715808E-01  0.69979086962E-01  0.73021266710E-01  0.13078409969E+00  0.17811918248E-01 0.  0.
         14    1    1    2    0    0  0.23284662456E-01 -0.38782850215E-03  0.84447779761E-02  0.24771761982E-01  0.00000000000E+00 0. -1.
     999901    1    3    3    0    0  0.57697053351E-01 -0.69591258460E-01 -0.81466044686E-01  0.88837413833E+00  0.88000000000E+00 0. -1.
        -11    1    4    4    0    0 -0.58862425098E-01  0.54837480101E-01  0.62924326225E-01  0.10213552890E+00  0.51100000000E-03 0. -1.
         11    1    4    4    0    0 -0.22119290709E-01  0.15141606861E-01  0.10096940485E-01  0.28648570784E-01  0.51100000000E-03 0.  1.
</event>
<event>
 8    1  0.1095698E+005  0.1043930E+01  0.7957747E-01            NaN
         13   -1    0    0    0    0  0.00000000000E+00  0.00000000000E+00  0.74505805969E-08  0.10566000000E+00  0.10566000000E+00 0.  1.
     999900   -1    0    0    0    0 -0.00000000000E+00 -0.00000000000E+00 -0.74505805969E-08  0.93827000000E+00  0.93827000000E+00 0. -1.
     999902    2    1    2    0    0  0.16065951416E-01 -0.16804625376E-01  0.44278047065E-02  0.10202632367E+01  0.10199887041E+01 0.  0.
     999903    2    3    3    0    0  0.57235771022E-01 -0.10043885695E+00 -0.62026814214E-01  0.13284797029E+00  0.20913155182E-01 0.  0.
         14    1    1    2    0    0 -0.16065951416E-01  0.16804625376E-01 -0.44278047065E-02  0.23666763266E-01  0.00000000000E+00 0.  1.
     999901    1    3    3    0    0 -0.41169819606E-01  0.83634231573E-01  0.66454618921E-01  0.88741526644E+00  0.88000000000E+00 0.  1.
        -11    1    4    4    0    0  0.35098871348E-01 -0.60815871260E-01 -0.25929008113E-01  0.74853694296E-01  0.51100000000E-03 0. -1.
         11    1    4    4    0    0  0.22136899674E-01 -0.39622985689E-01 -0.36097806102E-01  0.57994275997E-01  0.51100000000E-03 0.  1.
</event>
<event>
 8    1  0.1095698E+005  0.1043930E+01  0.7957747E-01            NaN
         13   -1    0    0    0    0  0.00000000000E+00  0.00000000000E+00  0.74505805969E-08  0.10566000000E+00  0.10566000000E+00 0.  1.
     999900   -1    0    0    0    0 -0.00000000000E+00 -0.00000000000E+00 -0.74505805969E-08  0.93827000000E+00  0.93827000000E+00 0. -1.
     999902    2    1    2    0    0  0.16876777322E-03  0.19496913846E-01  0.14601740046E-01  0.10195708345E+01  0.10192798034E+01 0.  0.
     999903    2    3    3    0    0 -0.70099387602E-01 -0.50393203076E-01  0.95707251279E-01  0.13030127690E+00  0.19108787391E-01 0.  0.
         14    1    1    2    0    0 -0.16876777322E-03 -0.19496913846E-01 -0.14601740046E-01  0.24359165512E-01  0.00000000000E+00 0. -1.
     999901    1    3    3    0    0  0.70268155375E-01  0.69890116922E-01 -0.81105511233E-01  0.88926955759E+00  0.88000000000E+00 0. -1.
        -11    1    4    4    0    0 -0.57466056918E-01 -0.49177073843E-01  0.83867297640E-01  0.11293678331E+00  0.51100000000E-03 0. -1.
         11    1    4    4    0    0 -0.12633330684E-01 -0.12161292327E-02  0.11839953638E-01  0.17364493590E-01  0.51100000000E-03 0.  1.
</event>
<event>
 8    1  0.1095698E+005  0.1043930E+01  0.7957747E-01            NaN
         13   -1    0    0    0    0  0.00000000000E+00  0.00000000000E+00  0.74505805969E-08  0.10566000000E+00  0.10566000000E+00 0. -1.
     999900   -1    0    0    0    0 -0.00000000000E+00 -0.00000000000E+00 -0.74505805969E-08  0.93827000000E+00  0.93827000000E+00 0.  1.
     999902    2    1    2    0    0 -0.22756329929E-01  0.40344699636E-02 -0.43513833779E-02  0.10204127290E+01  0.10201416938E+01 0.  0.
     999903    2    3    3    0    0  0.42544765796E-01  0.54236308178E-01  0.10781173680E+00  0.12947781372E+00  0.19735740016E-01 0.  0.
         14    1    1    2    0    0  0.22756329929E-01 -0.40344699636E-02  0.43513833779E-02  0.23517271037E-01  0.00000000000E+00 0. -1.
     999901    1    3    3    0    0 -0.65301095725E-01 -0.50201838215E-01 -0.11216312018E+00  0.89093491524E+00  0.88000000000E+00 0.  1.
        -11    1    4    4    0    0  0.69775381268E-02  0.19946247038E-03  0.11144171516E-01  0.13159768363E-01  0.51100000000E-03 0. -1.
         11    1    4    4    0    0  0.35567227669E-01  0.54036845708E-01  0.96667565283E-01  0.11631804536E+00  0.51100000000E-03 0.  1.
</event>
<event>
 8    1  0.1095698E+005  0.1043930E+01  0.7957747E-01            NaN
         13   -1    0    0    0    0  0.00000000000E+00  0.00000000000E+00  0.74505805969E-08  0.10566000000E+00  0.10566000000E+00 0.  1.
     999900   -1    0    0    0    0 -0.00000000000E+00 -0.00000000000E+00 -0.74505805969E-08  0.93827000000E+00  0.93827000000E+00 0. -1.
     999902    2    1    2    0    0  0.16574009703E-01  0.10417961564E-01  0.13616140908E-01  0.10200840147E+01  0.10198052589E+01 0.  0.
     999903    2    3    3    0    0  0.38190224764E-01  0.17530614243E-01 -0.12089112170E+00  0.12957289504E+00  0.20215244703E-01 0.  0.
         14    1    1    2    0    0 -0.16574009703E-01 -0.10417961564E-01 -0.13616140908E-01  0.23845985281E-01  0.00000000000E+00 0. -1.
     999901    1    3    3    0    0 -0.21616215061E-01 -0.71126526796E-02  0.13450726261E+00  0.89051111968E+00  0.88000000000E+00 0.  1.
        -11    1    4    4    0    0  0.22976126195E-01  0.17824990778E-01 -0.58240897809E-01  0.65099124186E-01  0.51100000000E-03 0. -1.
         11    1    4    4    0    0  0.15214098570E-01 -0.29437653463E-03 -0.62650223894E-01  0.64473770851E-01  0.51100000000E-03 0.  1.
</event>
<event>
 8    1  0.1095698E+005  0.1043930E+01  0.7957747E-01            NaN
         13   -1    0    0    0    0  0.00000000000E+00  0.00000000000E+00  0.74505805969E-08  0.10566000000E+00  0.10566000000E+00 0. -1.
     999900   -1    0    0    0    0 -0.00000000000E+00 -0.00000000000E+00 -0.74505805969E-08  0.93827000000E+00  0.93827000000E+00 0.  1.
     999902    2    1    2    0    0 -0.38442943295E-03 -0.58440886615E-02  0.22859922194E-01  0.10203317543E+01  0.10200588275E+01 0.  0.
     999903    2    3    3    0    0  0.29913758980E-01  0.12471483501E+00 -0.18283914098E-02  0.12984136938E+00  0.20169658924E-01 0.  0.
         14    1    1    2    0    0  0.38442943295E-03  0.58440886615E-02 -0.22859922194E-01  0.23598245718E-01  0.00000000000E+00 0.  1.
     999901    1    3    3    0    0 -0.30298188413E-01 -0.13055892367E+00  0.24688313604E-01  0.89049038490E+00  0.88000000000E+00 0. -1.
        -11    1    4    4    0    0  0.29516640249E-01  0.10617018968E+00 -0.74584485025E-02  0.11045012813E+00  0.51100000000E-03 0.  1.
         11    1    4    4    0    0  0.39711873111E-03  0.18544645323E-01  0.56300570927E-02  0.19391241252E-01  0.51100000000E-03 0. -1.
</event>
<event>
 8    1  0.1095698E+005  0.1043930E+01  0.7957747E-01            NaN
         13   -1    0    0    0    0  0.00000000000E+00  0.00000000000E+00  0.74505805969E-08  0.10566000000E+00  0.10566000000E+00 0. -1.
     999900   -1    0    0    0    0 -0.00000000000E+00 -0.00000000000E+00 -0.74505805969E-08  0.93827000000E+00  0.93827000000E+00 0. -1.
     999902    2    1    2    0    0  0.10504958553E-01 -0.17092653176E-01  0.28584486968E-03  0.10238652385E+01  0.10236686143E+01 0.  0.
     999903    2    3    3    0    0  0.82848662586E-01  0.92699742403E-01  0.42076383971E-01  0.13311587375E+00  0.22187172481E-01 0.  0.
         14    1    1    2    0    0 -0.10504958553E-01  0.17092653176E-01 -0.28584486968E-03  0.20064761501E-01  0.00000000000E+00 0.  1.
     999901    1    3    3    0    0 -0.72343704033E-01 -0.10979239558E+00 -0.41790539101E-01  0.89074936475E+00  0.88000000000E+00 0.  1.
        -11    1    4    4    0    0  0.26772456863E-01  0.18740048345E-01  0.45421910405E-02  0.32997673840E-01  0.51100000000E-03 0. -1.
         11    1    4    4    0    0  0.56076205724E-01  0.73959694058E-01  0.37534192931E-01  0.10011819991E+00  0.51100000000E-03 0.  1.
</event>
<event>
 8    1  0.1095698E+005  0.1043930E+01  0.7957747E-01            NaN
         13   -1    0    0    0    0  0.00000000000E+00  0.00000000000E+00  0.74505805969E-08  0.10566000000E+00  0.10566000000E+00 0.  1.
     999900   -1    0    0    0    0 -0.00000000000E+00 -0.00000000000E+00 -0.74505805969E-08  0.93827000000E+00  0.93827000000E+00 0. -1.
     999902    2    1    2    0    0  0.50875300176E-02 -0.20365907682E-01 -0.21697868680E-02  0.10228264190E+01  0.10226086848E+01 0.  0.
     999903    2    3    3    0    0 -0.94709878324E-01  0.75332683260E-01  0.45264812631E-01  0.13076824584E+00  0.20160769754E-01 0.  0.
         14    1    1    2    0    0 -0.50875300176E-02  0.20365907682E-01  0.21697868680E-02  0.21103581033E-01  0.00000000000E+00 0.  1.
     999901    1    3    3    0    0  0.99797408342E-01 -0.95698590942E-01 -0.47434599499E-01  0.89205817313E+00  0.88000000000E+00 0. -1.
        -11    1    4    4    0    0 -0.73788120474E-01  0.56285468992E-01  0.25482370644E-01  0.96241119473E-01  0.51100000000E-03 0. -1.
         11    1    4    4    0    0 -0.20921757850E-01  0.19047214269E-01  0.19782441987E-01  0.34527126363E-01  0.51100000000E-03 0.  1.
</event>
<event>
 8    1  0.1095698E+005  0.1043930E+01  0.7957747E-01            NaN
         13   -1    0    0    0    0  0.00000000000E+00  0.00000000000E+00  0.74505805969E-08  0.10566000000E+00  0.10566000000E+00 0.  1.
     999900   -1    0    0    0    0 -0.00000000000E+00 -0.00000000000E+00 -0.74505805969E-08  0.93827000000E+00  0.93827000000E+00 0. -1.
     999902    2    1    2    0    0  0.22975253856E-01 -0.44031327027E-02  0.53750100042E-02  0.10199270710E+01  0.10196445898E+01 0.  0.
     999903    2    3    3    0    0  0.12712528685E+00 -0.30603546450E-01 -0.14886437068E-01  0.13316655245E+00  0.20354583505E-01 0.  0.
         14    1    1    2    0    0 -0.22975253856E-01  0.44031327027E-02 -0.53750100042E-02  0.24002928986E-01  0.00000000000E+00 0. -1.
     999901    1    3    3    0    0 -0.10415003299E+00  0.26200413747E-01  0.20261447073E-01  0.88676051857E+00  0.88000000000E+00 0. -1.
        -11    1    4    4    0    0  0.37913713829E-01 -0.15771763337E-02  0.12604442888E-02  0.37970870707E-01  0.51100000000E-03 0. -1.
         11    1    4    4    0    0  0.89211573022E-01 -0.29026370117E-01 -0.16146881357E-01  0.95195681739E-01  0.51100000000E-03 0.  1.
</event>
<event>
 7    1  0.1095698E+005  0.1043930E+01  0.7957747E-01            NaN
         13   -1    0    0    0    0  0.00000000000E+00  0.00000000000E+00  0.74505805969E-08  0.10566000000E+00  0.10566000000E+00 0.  1.
     999900   -1    0    0    0    0 -0.00000000000E+00 -0.00000000000E+00 -0.74505805969E-08  0.93827000000E+00  0.93827000000E+00 0.  1.
     999902    2    1    2    0    0 -0.13168615234E-02  0.18353846817E-01 -0.14341672126E-01  0.10206001612E+01  0.10203334787E+01 0.  0.
         14    1    1    2    0    0  0.13168615234E-02 -0.18353846817E-01  0.14341672126E-01  0.23329838761E-01  0.00000000000E+00 0.  1.
     999901    1    3    3    0    0  0.12051435157E+00  0.48087836385E-01 -0.73979389049E-02  0.88954532119E+00  0.88000000000E+00 0.  1.
        -11    1    3    3    0    0 -0.20857361980E-01 -0.18153643105E-01 -0.99011824580E-02  0.29374799434E-01  0.51100000000E-03 0.  1.
         11    1    3    3    0    0 -0.10097385112E+00 -0.11580346462E-01  0.29574492373E-02  0.10168004062E+00  0.51100000000E-03 0. -1.
</event>
<event>
 8    1  0.1095698E+005  0.1043930E+01  0.7957747E-01            NaN
         13   -1    0    0    0    0  0.00000000000E+00  0.00000000000E+00  0.74505805969E-08  0.10566000000E+00  0.10566000000E+00 0.  1.
     999900   -1    0    0    0    0 -0.00000000000E+00 -0.00000000000E+00 -0.74505805969E-08  0.93827000000E+00  0.93827000000E+00 0. -1.
     999902    2    1    2    0    0 -0.21667933083E-01  0.69538716884E-02 -0.27698533068E-02  0.10210056081E+01  0.10207482178E+01 0.  0.
     999903    2    3    3    0    0  0.53841853417E-01 -0.10324752613E+00 -0.53073843349E-01  0.12950318673E+00  0.19880787074E-01 0.  0.
         14    1    1    2    0    0  0.21667933083E-01 -0.69538716884E-02  0.27698533068E-02  0.22924391876E-01  0.00000000000E+00 0.  1.
     999901    1    3    3    0    0 -0.75509786500E-01  0.11020139781E+00  0.50303990042E-01  0.89150242139E+00  0.88000000000E+00 0.  1.
        -11    1    4    4    0    0  0.29499933357E-01 -0.58332380711E-01 -0.40465605623E-01  0.76880680713E-01  0.51100000000E-03 0.  1.
         11    1    4    4    0    0  0.24341920060E-01 -0.44915145416E-01 -0.12608237726E-01  0.52622506017E-01  0.51100000000E-03 0. -1.
</event>
<event>
 8    1  0.1095698E+005  0.1043930E+01  0.7957747E-01            NaN
         13   -1    0    0    0    0  0.00000000000E+00  0.00000000000E+00  0.74505805969E-08  0.10566000000E+00  0.10566000000E+00 0. -1.
     999900   -1    0    0    0    0 -0.00000000000E+00 -0.00000000000E+00 -0.74505805969E-08  0.93827000000E+00  0.93827000000E+00 0. -1.
     999902    2    1    2    0    0 -0.75680725356E-02  0.20435667483E-01 -0.10161464955E-01  0.10198853000E+01  0.10196018231E+01 0.  0.
     999903    2    3    3    0    0 -0.11001386359E+00  0.92318548240E-02 -0.69441143932E-01  0.13189051069E+00  0.19615224084E-01 0.  0.
         14    1    1    2    0    0  0.75680725356E-02 -0.20435667483E-01  0.10161464955E-01  0.24044699986E-01  0.00000000000E+00 0. -1.
     999901    1    3    3    0    0  0.10244579105E+00  0.11203812659E-01  0.59279678977E-01  0.88799478932E+00  0.88000000000E+00 0.  1.
        -11    1    4    4    0    0 -0.87605739248E-01  0.10259750393E-02 -0.60166627398E-01  0.10628312353E+00  0.51100000000E-03 0.  1.
         11    1    4    4    0    0 -0.22408124338E-01  0.82058797847E-02 -0.92745165344E-02  0.25607387163E-01  0.51100000000E-03 0. -1.
</event>
<event>
 8    1  0.1095698E+005  0.1043930E+01  0.7957747E-01            NaN
         13   -1    0    0    0    0  0.00000000000E+00  0.00000000000E+00  0.74505805969E-08  0.10566000000E+00  0.10566000000E+00 0.  1.
     999900   -1    0    0    0    0 -0.00000000000E+00 -0.00000000000E+00 -0.74505805969E-08  0.93827000000E+00  0.93827000000E+00 0.  1.
     999902    2    1    2    0    0  0.31186365232E-02 -0.89330194008E-02  0.22191270306E-01  0.10198057962E+01  0.10195204190E+01 0.  0.
     999903    2    3    3    0    0 -0.55638368961E-01 -0.10823315837E+00 -0.41453566624E-01  0.12999482274E+00  0.19240870102E-01 0.  0.
         14    1    1    2    0    0 -0.31186365232E-02  0.89330194008E-02 -0.22191270306E-01  0.24124203763E-01  0.00000000000E+00 0. -1.
     999901    1    3    3    0    0  0.58757005484E-01  0.99300138965E-01  0.63644836931E-01  0.88981097350E+00  0.88000000000E+00 0. -1.
        -11    1    4    4    0    0 -0.20183186768E-01 -0.29779625777E-01 -0.20414987058E-01  0.41366894458E-01  0.51100000000E-03 0. -1.
         11    1    4    4    0    0 -0.35455182193E-01 -0.78453532589E-01 -0.21038579566E-01  0.88627928280E-01  0.51100000000E-03 0.  1.
</event>
<event>
 8    1  0.1095698E+005  0.1043930E+01  0.7957747E-01            NaN
         13   -1    0    0    0    0  0.00000000000E+00  0.00000000000E+00  0.74505805969E-08  0.10566000000E+00  0.10566000000E+00 0. -1.
     999900   -1    0    0    0    0 -0.00000000000E+00 -0.00000000000E+00 -0.74505805969E-08  0.93827000000E+00  0.93827000000E+00 0. -1.
     999902    2    1    2    0    0  0.11224130377E-01 -0.17795701167E-01 -0.10440238697E-01  0.10204424146E+01  0.10201720712E+01 0.  0.
     999903    2    3    3    0    0  0.57105806232E-03  0.89394530304E-02  0.12749530953E+00  0.12923285908E+00  0.19126891710E-01 0.  0.
         14    1    1    2    0    0 -0.11224130377E-01  0.17795701167E-01  0.10440238697E-01  0.23487585377E-01  0.00000000000E+00 0.  1.
     999901    1    3    3    0    0  0.10653072315E-01 -0.26735154198E-01 -0.13793554823E+00  0.89120955554E+00  0.88000000000E+00 0. -1.
        -11    1    4    4    0    0 -0.89886979952E-02  0.50921465007E-02  0.77229686050E-01  0.77919267040E-01  0.51100000000E-03 0. -1.
         11    1    4    4    0    0  0.95597560575E-02  0.38473065297E-02  0.50265623482E-01  0.51313592044E-01  0.51100000000E-03 0.  1.
</event>
<event>
 8    1  0.1095698E+005  0.1043930E+01  0.7957747E-01            NaN
         13   -1    0    0    0    0  0.00000000000E+00  0.00000000000E+00  0.74505805969E-08  0.10566000000E+00  0.10566000000E+00 0. -1.
     999900   -1    0    0    0    0 -0.00000000000E+00 -0.00000000000E+00 -0.74505805969E-08  0.93827000000E+00  0.93827000000E+00 0.  1.
     999902    2    1    2    0    0  0.86490725458E-02  0.17277113301E-01  0.12388630566E-01  0.10209782404E+01  0.10207202282E+01 0.  0.
     999903    2    3    3    0    0 -0.22457172638E-01  0.63861990265E-01  0.11325422932E+00  0.13344704759E+00  0.19972872841E-01 0.  0.
         14    1    1    2    0    0 -0.86490725458E-02 -0.17277113301E-01 -0.12388630566E-01  0.22951759567E-01  0.00000000000E+00 0.  1.
     999901    1    3    3    0    0  0.31106245184E-01 -0.46584876965E-01 -0.10086559875E+00  0.88753119284E+00  0.88000000000E+00 0.  1.
        -11    1    4    4    0    0 -0.24754736450E-01  0.53663576078E-01  0.86920034464E-01  0.10510913322E+00  0.51100000000E-03 0. -1.
         11    1    4    4    0    0  0.22975638120E-02  0.10198414187E-01  0.26334194853E-01  0.28337914373E-01  0.51100000000E-03 0.  1.
</event>
<event>
 8    1  0.1095698E+005  0.1043930E+01  0.7957747E-01            NaN
         13   -1    0    0    0    0  0.00000000000E+00  0.00000000000E+00  0.74505805969E-08  0.10566000000E+00  0.10566000000E+00 0. -1.
     999900   -1    0    0    0    0 -0.00000000000E+00 -0.00000000000E+00 -0.74505805969E-08  0.93827000000E+00  0.93827000000E+00 0. -1.
     999902    2    1    2    0    0  0.20974189808E-01  0.12265123887E-01 -0.81633399752E-02  0.10182981834E+01  0.10179755401E+01 0.  0.
     999903    2    3    3    0    0 -0.10087365982E+00 -0.54212939886E-01 -0.50088057805E-01  0.12643277126E+00  0.19023512235E-01 0.  0.
         14    1    1    2    0    0 -0.20974189808E-01 -0.12265123887E-01  0.81633399752E-02  0.25631816588E-01  0.00000000000E+00 0. -1.
     999901    1    3    3    0    0  0.12184784963E+00  0.66478063773E-01  0.41924717829E-01  0.89186541215E+00  0.88000000000E+00 0. -1.
        -11    1    4    4    0    0 -0.74520747655E-01 -0.43193293941E-01 -0.28862807548E-01  0.90842309818E-01  0.51100000000E-03 0. -1.
         11    1    4    4    0    0 -0.26352912167E-01 -0.11019645945E-01 -0.21225250257E-01  0.35590461446E-01  0.51100000000E-03 0.  1.
</event>
<event>
 8    1  0.1095698E+005  0.1043930E+01  0.7957747E-01            NaN
         13   -1    0    0    0    0  0.00000000000E+00  0.00000000000E+00  0.74505805969E-08  0.10566000000E+00  0.10566000000E+00 0. -1.
     999900   -1    0    0    0    0 -0.00000000000E+00 -0.00000000000E+00 -0.74505805969E-08  0.93827000000E+00  0.93827000000E+00 0. -1.
     999902    2    1    2    0    0 -0.18562441183E-01 -0.80103501439E-02  0.10475625585E-01  0.10211600930E+01  0.10209061989E+01 0.  0.
     999903    2    3    3    0    0 -0.10234973951E+00 -0.21490327315E-01  0.81692734049E-01  0.13421370362E+00  0.20057719161E-01 0.  0.
         14    1    1    2    0    0  0.18562441183E-01  0.80103501439E-02 -0.10475625585E-01  0.22769906972E-01  0.00000000000E+00 0.  1.
     999901    1    3    3    0    0  0.83787298324E-01  0.13479977171E-01 -0.71217108464E-01  0.88694638941E+00  0.88000000000E+00 0. -1.
        -11    1    4    4    0    0 -0.17256335046E-01  0.34487749457E-02  0.16764594647E-01  0.24310242749E-01  0.51100000000E-03 0. -1.
         11    1    4    4    0    0 -0.85093404461E-01 -0.24939102261E-01  0.64928139402E-01  0.10990346087E+00  0.51100000000E-03 0.  1.
</event>
<event>
 8    1  0.1095698E+005  0.1043930E+01  0.7957747E-01            NaN
         13   -1    0    0    0    0  0.00000000000E+00  0.00000000000E+00  0.74505805969E-08  0.10566000000E+00  0.10566000000E+00 0.  1.
     999900   -1    0    0    0    0 -0.00000000000E+00 -0.00000000000E+00 -0.74505805969E-08  0.93827000000E+00  0.93827000000E+00 0. -1.
     999902    2    1    2    0    0  0.16886328658E-01  0.10711580729E-01  0.12530969644E-01  0.10203310327E+01  0.10200580891E+01 0.  0.
     999903    2    3    3    0    0  0.88439964566E-01 -0.76740976393E-01 -0.54005730175E-01  0.13061478300E+00  0.20803794289E-01 0.  0.
         14    1    1    2    0    0 -0.16886328658E-01 -0.10711580729E-01 -0.12530969644E-01  0.23598967297E-01  0.00000000000E+00 0. -1.
     999901    1    3    3    0    0 -0.71553635908E-01  0.87452557122E-01  0.66536699818E-01  0.88971624970E+00  0.88000000000E+00 0.  1.
        -11    1    4    4    0    0  0.21261946374E-01 -0.21833656809E-01 -0.24048347374E-01  0.38824773865E-01  0.51100000000E-03 0.  1.
         11    1    4    4    0    0  0.67178018193E-01 -0.54907319584E-01 -0.29957382801E-01  0.91790009138E-01  0.51100000000E-03 0. -1.
</event>
<event>
 8    1  0.1095698E+005  0.1043930E+01  0.7957747E-01            NaN
         13   -1    0    0    0    0  0.00000000000E+00  0.00000000000E+00  0.74505805969E-08  0.10566000000E+00  0.10566000000E+00 0.  1.
     999900   -1    0    0    0    0 -0.00000000000E+00 -0.00000000000E+00 -0.74505805969E-08  0.93827000000E+00  0.93827000000E+00 0.  1.
     999902    2    1    2    0    0 -0.83558494224E-02  0.17875741071E-01  0.13486921043E-01  0.10200289670E+01  0.10197489074E+01 0.  0.
     999903    2    3    3    0    0 -0.12006971086E+00 -0.38893925816E-01  0.28990989698E-01  0.13101650475E+00  0.19884016237E-01 0.  0.
         14    1    1    2    0    0  0.83558494224E-02 -0.17875741071E-01 -0.13486921043E-01  0.23901032982E-01  0.00000000000E+00 0. -1.
     999901    1    3    3    0    0  0.11171386144E+00  0.56769666886E-01 -0.15504068656E-01  0.88901246226E+00  0.88000000000E+00 0. -1.
        -11    1    4    4    0    0 -0.63231781325E-01 -0.30808397778E-01  0.14912299965E-01  0.71903083066E-01  0.51100000000E-03 0.  1.
         11    1    4    4    0    0 -0.56837929540E-01 -0.80855280375E-02  0.14078689733E-01  0.59113421687E-01  0.51100000000E-03 0. -1.
</event>
<event>
 8    1  0.1095698E+005  0.1043930E+01  0.7957747E-01            NaN
         13   -1    0    0    0    0  0.00000000000E+00  0.00000000000E+00  0.74505805969E-08  0.10566000000E+00  0.10566000000E+00 0.  1.
     999900   -1    0    0    0    0 -0.00000000000E+00 -0.00000000000E+00 -0.74505805969E-08  0.93827000000E+00  0.93827000000E+00 0.  1.
     999902    2    1    2    0    0  0.14242498129E-01  0.18743179815E-01 -0.22323836366E-02  0.10202838781E+01  0.10200098298E+01 0.  0.
     999903    2    3    3    0    0 -0.43542479188E-01  0.42412935185E-01  0.11289971364E+00  0.13059024505E+00  0.24752014006E-01 0.  0.
         14    1    1    2    0    0 -0.14242498129E-01 -0.18743179815E-01  0.22323836366E-02  0.23646121864E-01  0.00000000000E+00 0.  1.
     999901    1    3    3    0    0  0.57784977316E-01 -0.23669755370E-01 -0.11513209728E+00  0.88969363308E+00  0.88000000000E+00 0.  1.
        -11    1    4    4    0    0 -0.25205799731E-01  0.32980245841E-01  0.93379662272E-01  0.10219124915E+00  0.51100000000E-03 0. -1.
         11    1    4    4    0    0 -0.18336679456E-01  0.94326893435E-02  0.19520051372E-01  0.28398995903E-01  0.51100000000E-03 0.  1.
</event>
<event>
 8    1  0.1095698E+005  0.1043930E+01  0.7957747E-01            NaN
         13   -1    0    0    0    0  0.00000000000E+00  0.00000000000E+00  0.74505805969E-08  0.10566000000E+00  0.10566000000E+00 0.  1.
     999900   -1    0    0    0    0 -0.00000000000E+00 -0.00000000000E+00 -0.74505805969E-08  0.93827000000E+00  0.93827000000E+00 0. -1.
     999902    2    1    2    0    0 -0.22499046934E-02 -0.20113837118E-01 -0.86727858223E-02  0.10219107873E+01  0.10216735347E+01 0.  0.
     999903    2    3    3    0    0 -0.53903470872E-01  0.11638150262E+00  0.19595393246E-02  0.12982776704E+00  0.20029252973E-01 0.  0.
         14    1    1    2    0    0  0.22499046934E-02  0.20113837118E-01  0.86727858223E-02  0.22019212717E-01  0.00000000000E+00 0.  1.
     999901    1    3    3    0    0  0.51653566179E-01 -0.13649533974E+00 -0.10632325147E-01  0.89208302024E+00  0.88000000000E+00 0. -1.
        -11    1    4    4    0    0 -0.38877675105E-01  0.77458856795E-01  0.10292120259E-01  0.87278502382E-01  0.51100000000E-03 0. -1.
         11    1    4    4    0    0 -0.15025795767E-01  0.38922645829E-01 -0.83325809347E-02  0.42549264657E-01  0.51100000000E-03 0.  1.
</event>
<event>
 8    1  0.1095698E+005  0.1043930E+01  0.7957747E-01            NaN
         13   -1    0    0    0    0  0.00000000000E+00  0.00000000000E+00  0.74505805969E-08  0.10566000000E+00  0.10566000000E+00 0. -1.
     999900   -1    0    0    0    0 -0.00000000000E+00 -0.00000000000E+00 -0.74505805969E-08  0.93827000000E+00  0.93827000000E+00 0.  1.
     999902    2    1    2    0    0 -0.14137546642E-01  0.20958258670E-01 -0.43112362823E-02  0.10182842286E+01  0.10179612294E+01 0.  0.
     999903    2    3    3    0    0  0.49273500711E-01 -0.76349032126E-02 -0.11661541588E+00  0.12842426290E+00  0.20185798482E-01 0.  0.
         14    1    1    2    0    0  0.14137546642E-01 -0.20958258670E-01  0.43112362823E-02  0.25645771383E-01  0.00000000000E+00 0. -1.
     999901    1    3    3    0    0 -0.63411047353E-01  0.28593161883E-01  0.11230417960E+00  0.88985996572E+00  0.88000000000E+00 0. -1.
        -11    1    4    4    0    0  0.26387788927E-01 -0.56889919131E-02 -0.86058808542E-01  0.90194565702E-01  0.51100000000E-03 0.  1.
         11    1    4    4    0    0  0.22885711784E-01 -0.19459112995E-02 -0.30556607340E-01  0.38229697197E-01  0.51100000000E-03 0. -1.
</event>
<event>
 8    1  0.1095698E+005  0.1043930E+01  0.7957747E-01            NaN
         13   -1    0    0    0    0  0.00000000000E+00  0.00000000000E+00  0.74505805969E-08  0.10566000000E+00  0.10566000000E+00 0. -1.
     999900   -1    0    0    0    0 -0.00000000000E+00 -0.00000000000E+00 -0.74505805969E-08  0.93827000000E+00  0.93827000000E+00 0.  1.
     999902    2    1    2    0    0  0.97040086393E-02  0.13233687892E-01 -0.14662281201E-01  0.10219236198E+01  0.10216866467E+01 0.  0.
     999903    2    3    3    0    0 -0.61790837392E-01  0.85476136014E-01  0.75642088197E-01  0.13148251370E+00  0.21015434550E-01 0.  0.
         14    1    1    2    0    0 -0.97040086393E-02 -0.13233687892E-01  0.14662281201E-01  0.22006380187E-01  0.00000000000E+00 0. -1.
     999901    1    3    3    0    0  0.71494846031E-01 -0.72242448121E-01 -0.90304369398E-01  0.89044110611E+00  0.88000000000E+00 0.  1.
        -11    1    4    4    0    0 -0.64041788638E-02  0.23715790414E-01  0.18208454910E-01  0.30582040041E-01  0.51100000000E-03 0.  1.
         11    1    4    4    0    0 -0.55386658528E-01  0.61760345599E-01  0.57433633287E-01  0.10090047366E+00  0.51100000000E-03 0. -1.
</event>
<event>
 8    1  0.1095698E+005  0.1043930E+01  0.7957747E-01            NaN
         13   -1    0    0    0    0  0.00000000000E+00  0.00000000000E+00  0.74505805969E-08  0.10566000000E+00  0.10566000000E+00 0. -1.
     999900   -1    0    0    0    0 -0.00000000000E+00 -0.00000000000E+00 -0.74505805969E-08  0.93827000000E+00  0.93827000000E+00 0. -1.
     999902    2    1    2    0    0  0.83040013125E-03  0.15615972314E-01  0.17620713344E-01  0.10203707620E+01  0.10200987473E+01 0.  0.
     999903    2    3    3    0    0 -0.73935620449E-01  0.98974818533E-01 -0.40128692992E-01  0.13139739402E+00  0.19810918166E-01 0.  0.
         14    1    1    2    0    0 -0.83040013125E-03 -0.15615972314E-01 -0.17620713344E-01  0.23559237985E-01  0.00000000000E+00 0.  1.
     999901    1    3    3    0    0  0.74766020581E-01 -0.83358846218E-01  0.57749406336E-01  0.88897336800E+00  0.88000000000E+00 0. -1.
        -11    1    4    4    0    0 -0.61941050583E-01  0.68583686486E-01 -0.30853251008E-01  0.97429974947E-01  0.51100000000E-03 0.  1.
         11    1    4    4    0    0 -0.11994569866E-01  0.30391132046E-01 -0.92754419835E-02  0.33967419071E-01  0.51100000000E-03 0. -1.
</event>
<event>
 8    1  0.1095698E+005  0.1043930E+01  0.7957747E-01            NaN
         13   -1    0    0    0    0  0.00000000000E+00  0.00000000000E+00  0.74505805969E-08  0.10566000000E+00  0.10566000000E+00 0. -1.
     999900   -1    0    0    0    0 -0.00000000000E+00 -0.00000000000E+00 -0.74505805969E-08  0.93827000000E+00  0.93827000000E+00 0.  1.
     999902    2    1    2    0    0  0.18983608698E-01  0.40803832265E-02  0.13364257806E-01  0.10203581882E+01  0.10200858796E+01 0.  0.
     999903    2    3    3    0    0 -0.12335354535E+00  0.15652736342E-03 -0.29927874371E-01  0.12786198606E+00  0.15391171548E-01 0.  0.
         14    1    1    2    0    0 -0.18983608698E-01 -0.40803832265E-02 -0.13364257806E-01  0.23571811835E-01  0.00000000000E+00 0.  1.
     999901    1    3    3    0    0  0.14233715405E+00  0.39238558631E-02  0.43292132177E-01  0.89249620211E+00  0.88000000000E+00 0. -1.
        -11    1    4    4    0    0 -0.64803879561E-01  0.62997269613E-02 -0.11095400559E-01  0.66049968967E-01  0.51100000000E-03 0. -1.
         11    1    4    4    0    0 -0.58549665794E-01 -0.61431995978E-02 -0.18832473812E-01  0.61812017091E-01  0.51100000000E-03 0.  1.
</event>
<event>
 8    1  0.1095698E+005  0.1043930E+01  0.7957747E-01            NaN
         13   -1    0    0    0    0  0.00000000000E+00  0.00000000000E+00  0.74505805969E-08  0.10566000000E+00  0.10566000000E+00 0. -1.
     999900   -1    0    0    0    0 -0.00000000000E+00 -0.00000000000E+00 -0.74505805969E-08  0.93827000000E+00  0.93827000000E+00 0. -1.
     999902    2    1    2    0    0  0.32663100317E-02 -0.17199300295E-01  0.16735690107E-01  0.10197108333E+01  0.10194231778E+01 0.  0.
     999903    2    3    3    0    0  0.12797494749E+00 -0.10292292414E-01 -0.60258850622E-02  0.13060001889E+00  0.23163228921E-01 0.  0.
         14    1    1    2    0    0 -0.32663100317E-02  0.17199300295E-01 -0.16735690107E-01  0.24219166692E-01  0.00000000000E+00 0.  1.
     999901    1    3    3    0    0 -0.12470863746E+00 -0.69070078813E-02  0.22761575169E-01  0.88911081442E+00  0.88000000000E+00 0.  1.
        -11    1    4    4    0    0  0.24875746310E-01  0.11809182560E-02 -0.98668905427E-02  0.26792050544E-01  0.51100000000E-03 0. -1.
         11    1    4    4    0    0  0.10309920118E+00 -0.11473210670E-01  0.38410054805E-02  0.10380796834E+00  0.51100000000E-03 0.  1.
</event>
<event>
 8    1  0.1095698E+005  0.1043930E+01  0.7957747E-01            NaN
         13   -1    0    0    0    0  0.00000000000E+00  0.00000000000E+00  0.74505805969E-08  0.10566000000E+00  0.10566000000E+00 0. -1.
     999900   -1    0    0    0    0 -0.00000000000E+00 -0.00000000000E+00 -0.74505805969E-08  0.93827000000E+00  0.93827000000E+00 0.  1.
     999902    2    1    2    0    0  0.19508899354E-01 -0.10942129335E-01  0.70055977729E-02  0.10204905941E+01  0.10202213715E+01 0.  0.
     999903    2    3    3    0    0 -0.11927604196E+00 -0.15411759768E-01 -0.40274125831E-01  0.12834900793E+00  0.19676536787E-01 0.  0.
         14    1    1    2    0    0 -0.19508899354E-01  0.10942129335E-01 -0.70055977729E-02  0.23439405891E-01  0.00000000000E+00 0. -1.
     999901    1    3    3    0    0  0.13878494131E+00  0.44696304336E-02  0.47279723604E-01  0.89214158618E+00  0.88000000000E+00 0.  1.
        -11    1    4    4    0    0 -0.86893343803E-01 -0.57937194557E-02 -0.21516798466E-01  0.89706488726E-01  0.51100000000E-03 0. -1.
         11    1    4    4    0    0 -0.32382698156E-01 -0.96180403124E-02 -0.18757327365E-01  0.38642519201E-01  0.51100000000E-03 0.  1.
</event>
<event>
 8    1  0.1095698E+005  0.1043930E+01  0.7957747E-01            NaN
         13   -1    0    0    0    0  0.00000000000E+00  0.00000000000E+00  0.74505805969E-08  0.10566000000E+00  0.10566000000E+00 0.  1.
     999900   -1    0    0    0    0 -0.00000000000E+00 -0.00000000000E+00 -0.74505805969E-08  0.93827000000E+00  0.93827000000E+00 0. -1.
     999902    2    1    2    0    0  0.13821603911E-01  0.16792740071E-01 -0.10970849569E-01  0.10195703532E+01  0.10192793104E+01 0.  0.
     999903    2    3    3    0    0  0.11060997559E+00 -0.20080689470E-01 -0.65857512884E-01  0.13179775587E+00  0.19890592207E-01 0.  0.
         14    1    1    2    0    0 -0.13821603911E-01 -0.16792740071E-01  0.10970849569E-01  0.24359646837E-01  0.00000000000E+00 0.  1.
     999901    1    3    3    0    0 -0.96788371682E-01  0.36873429540E-01  0.54886663316E-01  0.88777259730E+00  0.88000000000E+00 0.  1.
        -11    1    4    4    0    0  0.47256490464E-01  0.56401982229E-03 -0.31794754871E-01  0.56961930863E-01  0.51100000000E-03 0.  1.
         11    1    4    4    0    0  0.63353485129E-01 -0.20644709292E-01 -0.34062758013E-01  0.74835825005E-01  0.51100000000E-03 0. -1.
</event>
<event>
 8    1  0.1095698E+005  0.1043930E+01  0.7957747E-01            NaN
         13   -1    0    0    0    0  0.00000000000E+00  0.00000000000E+00  0.74505805969E-08  0.10566000000E+00  0.10566000000E+00 0.  1.
     999900   -1    0    0    0    0 -0.00000000000E+00 -0.00000000000E+00 -0.74505805969E-08  0.93827000000E+00  0.93827000000E+00 0.  1.
     999902    2    1    2    0    0 -0.13100871362E-01 -0.46651329986E-02 -0.19408500236E-01  0.10200535225E+01  0.10197740449E+01 0.  0.
     999903    2    3    3    0    0 -0.11980446540E+00 -0.51510428420E-01 -0.11033638934E-01  0.13233156322E+00  0.19582320377E-01 0.  0.
         14    1    1    2    0    0  0.13100871362E-01  0.46651329986E-02  0.19408500236E-01  0.23876477498E-01  0.00000000000E+00 0.  1.
     999901    1    3    3    0    0  0.10670359404E+00  0.46845295422E-01 -0.83748613019E-02  0.88772195928E+00  0.88000000000E+00 0. -1.
        -11    1    4    4    0    0 -0.10430718068E+00 -0.46401996473E-01 -0.15971331372E-01  0.11527565990E+00  0.51100000000E-03 0. -1.
         11    1    4    4    0    0 -0.15497284722E-01 -0.51084319470E-02  0.49376924383E-02  0.17055903328E-01  0.51100000000E-03 0.  1.
</event>
<event>
 8    1  0.1095698E+005  0.1043930E+01  0.7957747E-01            NaN
         13   -1    0    0    0    0  0.00000000000E+00  0.00000000000E+00  0.74505805969E-08  0.10566000000E+00  0.10566000000E+00 0. -1.
     999900   -1    0    0    0    0 -0.00000000000E+00 -0.00000000000E+00 -0.74505805969E-08  0.93827000000E+00  0.93827000000E+00 0.  1.
     999902    2    1    2    0    0 -0.18630435954E-01 -0.28642764574E-02 -0.14685247696E-01  0.10200353620E+01  0.10197554541E+01 0.  0.
     999903    2    3    3    0    0 -0.11507506211E-01 -0.12813362204E+00 -0.14932649025E-01  0.13113536413E+00  0.20563363635E-01 0.  0.
         14    1    1    2    0    0  0.18630435954E-01  0.28642764574E-02  0.14685247696E-01  0.23894637962E-01  0.00000000000E+00 0.  1.
     999901    1    3    3    0    0 -0.71229297426E-02  0.12526934558E+00  0.24740132867E-03  0.88889999791E+00  0.88000000000E+00 0.  1.
        -11    1    4    4    0    0 -0.92498350486E-02 -0.12321861952E+00 -0.10298869164E-01  0.12399482034E+00  0.51100000000E-03 0.  1.
         11    1    4    4    0    0 -0.22576711625E-02 -0.49150025158E-02 -0.46337798608E-02  0.71405437893E-02  0.51100000000E-03 0. -1.
</event>
<event>
 8    1  0.1095698E+005  0.1043930E+01  0.7957747E-01            NaN
         13   -1    0    0    0    0  0.00000000000E+00  0.00000000000E+00  0.74505805969E-08  0.10566000000E+00  0.10566000000E+00 0. -1.
     999900   -1    0    0    0    0 -0.00000000000E+00 -0.00000000000E+00 -0.74505805969E-08  0.93827000000E+00  0.93827000000E+00 0. -1.
     999902    2    1    2    0    0 -0.20623582647E-01 -0.11310487579E-01 -0.18503633809E-02  0.10203358665E+01  0.10200630360E+01 0.  0.
     999903    2    3    3    0    0 -0.96951637644E-01  0.86001327619E-01 -0.10552918779E-01  0.13164509024E+00  0.20572245758E-01 0.  0.
         14    1    1    2    0    0  0.20623582647E-01  0.11310487579E-01  0.18503633809E-02  0.23594133490E-01  0.00000000000E+00 0. -1.
     999901    1    3    3    0    0  0.76328054997E-01 -0.97311815198E-01  0.87025553977E-02  0.88869077627E+00  0.88000000000E+00 0.  1.
        -11    1    4    4    0    0 -0.55125722011E-01  0.56519896168E-01  0.19047525965E-02  0.78976155222E-01  0.51100000000E-03 0. -1.
         11    1    4    4    0    0 -0.41825915633E-01  0.29481431451E-01 -0.12457671375E-01  0.52668935019E-01  0.51100000000E-03 0.  1.
</event>
<event>
 8    1  0.1095698E+005  0.1043930E+01  0.7957747E-01            NaN
         13   -1    0    0    0    0  0.00000000000E+00  0.00000000000E+00  0.74505805969E-08  0.10566000000E+00  0.10566000000E+00 0.  1.
     999900   -1    0    0    0    0 -0.00000000000E+00 -0.00000000000E+00 -0.74505805969E-08  0.93827000000E+00  0.93827000000E+00 0. -1.
     999902    2    1    2    0    0  0.54121300612E-02 -0.22273870225E-01 -0.74637694451E-02  0.10198234801E+01  0.10195385261E+01 0.  0.
     999903    2    3    3    0    0 -0.81337052862E-01 -0.41952274171E-01  0.90714089225E-01  0.12990688163E+00  0.16463366471E-01 0.  0.
         14    1    1    2    0    0 -0.54121300612E-02  0.22273870225E-01  0.74637694451E-02  0.24106519885E-01  0.00000000000E+00 0.  1.
     999901    1    3    3    0    0  0.86749182924E-01  0.19678403946E-01 -0.98177858670E-01  0.88991659848E+00  0.88000000000E+00 0. -1.
        -11    1    4    4    0    0 -0.14881351989E-01 -0.22268448842E-02  0.20122060544E-01  0.25131094618E-01  0.51100000000E-03 0.  1.
         11    1    4    4    0    0 -0.66455700874E-01 -0.39725429287E-01  0.70592028681E-01  0.10477578702E+00  0.51100000000E-03 0. -1.
</event>
<event>
 8    1  0.1095698E+005  0.1043930E+01  0.7957747E-01            NaN
         13   -1    0    0    0    0  0.00000000000E+00  0.00000000000E+00  0.74505805969E-08  0.10566000000E+00  0.10566000000E+00 0. -1.
     999900   -1    0    0    0    0 -0.00000000000E+00 -0.00000000000E+00 -0.74505805969E-08  0.93827000000E+00  0.93827000000E+00 0.  1.
     999902    2    1    2    0    0 -0.10898262829E-01 -0.18295294032E-01 -0.68574880245E-02  0.10215578061E+01  0.10213128004E+01 0.  0.
     999903    2    3    3    0    0 -0.21205023979E-01 -0.10993769188E+00  0.70245719436E-01  0.13338582785E+00  0.17926763093E-01 0.  0.
         14    1    1    2    0    0  0.10898262829E-01  0.18295294032E-01  0.68574880245E-02  0.22372193867E-01  0.00000000000E+00 0. -1.
     999901    1    3    3    0    0  0.10306761150E-01  0.91642397844E-01 -0.77103207461E-01  0.88817197828E+00  0.88000000000E+00 0.  1.
        -11    1    4    4    0    0 -0.76725107878E-03 -0.16430672429E-01  0.17806773582E-01  0.24246607537E-01  0.51100000000E-03 0. -1.
         11    1    4    4    0    0 -0.20437772900E-01 -0.93507019447E-01  0.52438945854E-01  0.10913922031E+00  0.51100000000E-03 0.  1.
</event>
<event>
 8    1  0.1095698E+005  0.1043930E+01  0.7957747E-01            NaN
         13   -1    0    0    0    0  0.00000000000E+00  0.00000000000E+00  0.74505805969E-08  0.10566000000E+00  0.10566000000E+00 0.  1.
     999900   -1    0    0    0    0 -0.00000000000E+00 -0.00000000000E+00 -0.74505805969E-08  0.93827000000E+00  0.93827000000E+00 0.  1.
     999902    2    1    2    0    0 -0.85370141944E-02 -0.16410765036E-01  0.14751508781E-01  0.10202698894E+01  0.10199955130E+01 0.  0.
     999903    2    3    3    0    0  0.24386044353E-02 -0.97931970360E-01  0.86616242306E-01  0.13351698640E+00  0.26977668843E-01 0.  0.
         14    1    1    2    0    0  0.85370141944E-02  0.16410765036E-01 -0.14751508781E-01  0.23660110561E-01  0.00000000000E+00 0. -1.
     999901    1    3    3    0    0 -0.10975618630E-01  0.81521205323E-01 -0.71864733525E-01  0.88675290304E+00  0.88000000000E+00 0.  1.
        -11    1    4    4    0    0 -0.30355119765E-02 -0.72322071295E-01  0.76818490808E-01  0.10555111549E+00  0.51100000000E-03 0. -1.
         11    1    4    4    0    0  0.54741164117E-02 -0.25609899065E-01  0.97977514981E-02  0.27965870914E-01  0.51100000000E-03 0.  1.
</event>
<event>
 8    1  0.1095698E+005  0.1043930E+01  0.7957747E-01            NaN
         13   -1    0    0    0    0  0.00000000000E+00  0.00000000000E+00  0.74505805969E-08  0.10566000000E+00  0.10566000000E+00 0. -1.
     999900   -1    0    0    0    0 -0.00000000000E+00 -0.00000000000E+00 -0.74505805969E-08  0.93827000000E+00  0.93827000000E+00 0. -1.
     999902    2    1    2    0    0  0.19667589401E-01  0.21491581323E-02  0.12342476827E-01  0.10206111302E+01  0.10203447013E+01 0.  0.
     999903    2    3    3    0    0  0.89277476512E-01  0.36681053488E-01 -0.87436971742E-01  0.13157011512E+00  0.18695017177E-01 0.  0.
         14    1    1    2    0    0 -0.19667589401E-01 -0.21491581323E-02 -0.12342476827E-01  0.23318869778E-01  0.00000000000E+00 0.  1.
     999901    1    3    3    0    0 -0.69609887111E-01 -0.34531895356E-01  0.99779448569E-01  0.88904101510E+00  0.88000000000E+00 0.  1.
        -11    1    4    4    0    0  0.44890090410E-01  0.12645303494E-01 -0.31820910060E-01  0.56461095948E-01  0.51100000000E-03 0.  1.
         11    1    4    4    0    0  0.44387386101E-01  0.24035749994E-01 -0.55616061682E-01  0.75109019170E-01  0.51100000000E-03 0. -1.
</event>
<event>
 8    1  0.1095698E+005  0.1043930E+01  0.7957747E-01            NaN
         13   -1    0    0    0    0  0.00000000000E+00  0.00000000000E+00  0.74505805969E-08  0.10566000000E+00  0.10566000000E+00 0.  1.
     999900   -1    0    0    0    0 -0.00000000000E+00 -0.00000000000E+00 -0.74505805969E-08  0.93827000000E+00  0.93827000000E+00 0. -1.
     999902    2    1    2    0    0 -0.49053572870E-03 -0.17149892002E-01  0.16352953801E-01  0.10202281326E+01  0.10199527754E+01 0.  0.
     999903    2    3    3    0    0 -0.28181509364E-01  0.71829108989E-01  0.10396261074E+00  0.13098153876E+00  0.19857509837E-01 0.  0.
         14    1    1    2    0    0  0.49053572870E-03  0.17149892002E-01 -0.16352953801E-01  0.23701867416E-01  0.00000000000E+00 0.  1.
     999901    1    3    3    0    0  0.27690973635E-01 -0.88979000992E-01 -0.87609656934E-01  0.88924659382E+00  0.88000000000E+00 0. -1.
        -11    1    4    4    0    0 -0.10912260162E-01  0.38565741967E-01  0.38674785877E-01  0.55699138763E-01  0.51100000000E-03 0.  1.
         11    1    4    4    0    0 -0.17269249202E-01  0.33263367022E-01  0.65287824858E-01  0.75282399997E-01  0.51100000000E-03 0. -1.
</event>
<event>
 8    1  0.1095698E+005  0.1043930E+01  0.7957747E-01            NaN
         13   -1    0    0    0    0  0.00000000000E+00  0.00000000000E+00  0.74505805969E-08  0.10566000000E+00  0.10566000000E+00 0. -1.
     999900   -1    0    0    0    0 -0.00000000000E+00 -0.00000000000E+00 -0.74505805969E-08  0.93827000000E+00  0.93827000000E+00 0. -1.
     999902    2    1    2    0    0 -0.19095901509E-02  0.54464560958E-02 -0.23450686153E-01  0.10197795321E+01  0.10194935257E+01 0.  0.
     999903    2    3    3    0    0 -0.17027863440E-02 -0.32900743583E-01  0.12169878645E+00  0.12706517696E+00  0.15798929121E-01 0.  0.
         14    1    1    2    0    0  0.19095901509E-02 -0.54464560958E-02  0.23450686153E-01  0.24150467896E-01  0.00000000000E+00 0. -1.
     999901    1    3    3    0    0 -0.20680380694E-03  0.38347199678E-01 -0.14514947260E+00  0.89271435515E+00  0.88000000000E+00 0. -1.
        -11    1    4    4    0    0 -0.50534252682E-02 -0.12560968895E-01  0.71910226994E-01  0.73175521275E-01  0.51100000000E-03 0. -1.
         11    1    4    4    0    0  0.33506389242E-02 -0.20339774687E-01  0.49788559458E-01  0.53889655681E-01  0.51100000000E-03 0.  1.
</event>
<event>
 8    1  0.1095698E+005  0.1043930E+01  0.7957747E-01            NaN
         13   -1    0    0    0    0  0.00000000000E+00  0.00000000000E+00  0.74505805969E-08  0.10566000000E+00  0.10566000000E+00 0.  1.
     999900   -1    0    0    0    0 -0.00000000000E+00 -0.00000000000E+00 -0.74505805969E-08  0.93827000000E+00  0.93827000000E+00 0. -1.
     999902    2    1    2    0    0 -0.46837204045E-03 -0.23523482292E-01  0.35618626020E-02  0.10201337722E+01  0.10198561922E+01 0.  0.
     999903    2    3    3    0    0 -0.10508142514E+00 -0.44997507817E-01  0.62332958649E-01  0.13173123599E+00  0.20020968547E-01 0.  0.
         14    1    1    2    0    0  0.46837204045E-03  0.23523482292E-01 -0.35618626020E-02  0.23796227783E-01  0.00000000000E+00 0. -1.
     999901    1    3    3    0    0  0.10461305310E+00  0.21474025525E-01 -0.58771096047E-01  0.88840253623E+00  0.88000000000E+00 0. -1.
        -11    1    4    4    0    0 -0.51556766214E-01 -0.11263615457E-01  0.27741051781E-01  0.59622112094E-01  0.51100000000E-03 0. -1.
         11    1    4    4    0    0 -0.53524658925E-01 -0.33733892359E-01  0.34591906868E-01  0.72109123892E-01  0.51100000000E-03 0.  1.
</event>
<event>
 8    1  0.1095698E+005  0.1043930E+01  0.7957747E-01            NaN
         13   -1    0    0    0    0  0.00000000000E+00  0.00000000000E+00  0.74505805969E-08  0.10566000000E+00  0.10566000000E+00 0. -1.
     999900   -1    0    0    0    0 -0.00000000000E+00 -0.00000000000E+00 -0.74505805969E-08  0.93827000000E+00  0.93827000000E+00 0. -1.
     999902    2    1    2    0    0  0.18461764194E-01  0.14069357220E-02 -0.15280864790E-01  0.10199233127E+01  0.10196407420E+01 0.  0.
     999903    2    3    3    0    0  0.99903342650E-01  0.11183744746E-01  0.82974433873E-01  0.13066383405E+00  0.90844280257E-02 0.  0.
         14    1    1    2    0    0 -0.18461764194E-01 -0.14069357220E-02  0.15280864790E-01  0.24006687277E-01  0.00000000000E+00 0.  1.
     999901    1    3    3    0    0 -0.81441578455E-01 -0.97768090243E-02 -0.98255298664E-01  0.88925947867E+00  0.88000000000E+00 0. -1.
        -11    1    4    4    0    0  0.74040671141E-01  0.42910513929E-02  0.60906237384E-01  0.95970125447E-01  0.51100000000E-03 0.  1.
         11    1    4    4    0    0  0.25862671508E-01  0.68926933535E-02  0.22068196490E-01  0.34693708601E-01  0.51100000000E-03 0. -1.
</event>
<event>
 8    1  0.1095698E+005  0.1043930E+01  0.7957747E-01            NaN
         13   -1    0    0    0    0  0.00000000000E+00  0.00000000000E+00  0.74505805969E-08  0.10566000000E+00  0.10566000000E+00 0.  1.
     999900   -1    0    0    0    0 -0.00000000000E+00 -0.00000000000E+00 -0.74505805969E-08  0.93827000000E+00  0.93827000000E+00 0. -1.
     999902    2    1    2    0    0 -0.19137580803E-01 -0.12906622030E-01  0.65887741507E-02  0.10199250039E+01  0.10196424735E+01 0.  0.
     999903    2    3    3    0    0  0.76857371005E-01  0.91981048680E-01  0.39677352675E-01  0.12789848624E+00  0.20400041029E-01 0.  0.
         14    1    1    2    0    0  0.19137580803E-01  0.12906622030E-01 -0.65887741507E-02  0.24004996064E-01  0.00000000000E+00 0.  1.
     999901    1    3    3    0    0 -0.95994951807E-01 -0.10488767071E+00 -0.33088578524E-01  0.89202651769E+00  0.88000000000E+00 0.  1.
        -11    1    4    4    0    0  0.16414351984E-01  0.26103581223E-01  0.18693204423E-01  0.36062791300E-01  0.51100000000E-03 0. -1.
         11    1    4    4    0    0  0.60443019021E-01  0.65877467457E-01  0.20984148252E-01  0.91835694943E-01  0.51100000000E-03 0.  1.
</event>
<event>
 8    1  0.1095698E+005  0.1043930E+01  0.7957747E-01            NaN
         13   -1    0    0    0    0  0.00000000000E+00  0.00000000000E+00  0.74505805969E-08  0.10566000000E+00  0.10566000000E+00 0. -1.
     999900   -1    0    0    0    0 -0.00000000000E+00 -0.00000000000E+00 -0.74505805969E-08  0.93827000000E+00  0.93827000000E+00 0.  1.
     999902    2    1    2    0    0 -0.14150137288E-01 -0.13205907045E-01  0.14164822066E-01  0.10199453268E+01  0.10196632802E+01 0.  0.
     999903    2    3    3    0    0 -0.12600484034E+00 -0.33216954305E-01  0.55770460687E-02  0.13259778126E+00  0.23884771538E-01 0.  0.
         14    1    1    2    0    0  0.14150137288E-01  0.13205907045E-01 -0.14164822066E-01  0.23984673238E-01  0.00000000000E+00 0.  1.
     999901    1    3    3    0    0  0.11185470305E+00  0.20011047260E-01  0.85877759978E-02  0.88734754550E+00  0.88000000000E+00 0.  1.
        -11    1    4    4    0    0 -0.84207189679E-01 -0.24648381656E-01  0.14696301132E-01  0.88964239444E-01  0.51100000000E-03 0.  1.
         11    1    4    4    0    0 -0.41797650658E-01 -0.85685726486E-02 -0.91192550636E-02  0.43633541819E-01  0.51100000000E-03 0. -1.
</event>
<event>
 8    1  0.1095698E+005  0.1043930E+01  0.7957747E-01            NaN
         13   -1    0    0    0    0  0.00000000000E+00  0.00000000000E+00  0.74505805969E-08  0.10566000000E+00  0.10566000000E+00 0.  1.
     999900   -1    0    0    0    0 -0.00000000000E+00 -0.00000000000E+00 -0.74505805969E-08  0.93827000000E+00  0.93827000000E+00 0.  1.
     999902    2    1    2    0    0 -0.73753189476E-02 -0.98366014524E-02 -0.20639383431E-01  0.10199062991E+01  0.10196233229E+01 0.  0.
     999903    2    3    3    0    0  0.38358696887E-01 -0.62137264429E-01  0.10356683461E+00  0.12847254150E+00  0.21134697319E-01 0.  0.
         14    1    1    2    0    0  0.73753189476E-02  0.98366014524E-02  0.20639383431E-01  0.24023700925E-01  0.00000000000E+00 0.  1.
     999901    1    3    3    0    0 -0.45734015834E-01  0.52300662977E-01 -0.12420621804E+00  0.89143375758E+00  0.88000000000E+00 0.  1.
        -11    1    4    4    0    0  0.23248593287E-01 -0.20744472354E-01  0.52190389273E-01  0.60785920052E-01  0.51100000000E-03 0. -1.
         11    1    4    4    0    0  0.15110103600E-01 -0.41392792076E-01  0.51376445332E-01  0.67686621445E-01  0.51100000000E-03 0.  1.
</event>
<event>
 8    1  0.1095698E+005  0.1043930E+01  0.7957747E-01            NaN
         13   -1    0    0    0    0  0.00000000000E+00  0.00000000000E+00  0.74505805969E-08  0.10566000000E+00  0.10566000000E+00 0. -1.
     999900   -1    0    0    0    0 -0.00000000000E+00 -0.00000000000E+00 -0.74505805969E-08  0.93827000000E+00  0.93827000000E+00 0. -1.
     999902    2    1    2    0    0 -0.21314611269E-01  0.13064907363E-01 -0.99686456219E-03  0.10189100440E+01  0.10186028076E+01 0.  0.
     999903    2    3    3    0    0  0.11278999871E+00  0.42767777976E-01  0.36375926328E-01  0.12747130107E+00  0.19366412647E-01 0.  0.
         14    1    1    2    0    0  0.21314611269E-01 -0.13064907363E-01  0.99686456219E-03  0.25019955973E-01  0.00000000000E+00 0. -1.
     999901    1    3    3    0    0 -0.13410460998E+00 -0.29702870613E-01 -0.37372790890E-01  0.89143874295E+00  0.88000000000E+00 0. -1.
        -11    1    4    4    0    0  0.36549669751E-01  0.15533753454E-01  0.21476108166E-01  0.45151524872E-01  0.51100000000E-03 0. -1.
         11    1    4    4    0    0  0.76240328959E-01  0.27234024522E-01  0.14899818162E-01  0.82319776201E-01  0.51100000000E-03 0.  1.
</event>
<event>
 8    1  0.1095698E+005  0.1043930E+01  0.7957747E-01            NaN
         13   -1    0    0    0    0  0.00000000000E+00  0.00000000000E+00  0.74505805969E-08  0.10566000000E+00  0.10566000000E+00 0.  1.
     999900   -1    0    0    0    0 -0.00000000000E+00 -0.00000000000E+00 -0.74505805969E-08  0.93827000000E+00  0.93827000000E+00 0. -1.
     999902    2    1    2    0    0 -0.58662312613E-02  0.92184288869E-02  0.21750599206E-01  0.10195890743E+01  0.10192984841E+01 0.  0.
     999903    2    3    3    0    0 -0.28025667086E-01 -0.10174741028E+00 -0.69170842874E-01  0.12769717123E+00  0.19595625055E-01 0.  0.
         14    1    1    2    0    0  0.58662312613E-02 -0.92184288869E-02 -0.21750599206E-01  0.24340925746E-01  0.00000000000E+00 0. -1.
     999901    1    3    3    0    0  0.22159435824E-01  0.11096583916E+00  0.90921442081E-01  0.89189190303E+00  0.88000000000E+00 0.  1.
        -11    1    4    4    0    0  0.21152026955E-02 -0.21609114158E-01 -0.14262282752E-01  0.25982719785E-01  0.51100000000E-03 0. -1.
         11    1    4    4    0    0 -0.30140869781E-01 -0.80138296119E-01 -0.54908560122E-01  0.10171445144E+00  0.51100000000E-03 0.  1.
</event>
<event>
 8    1  0.1095698E+005  0.1043930E+01  0.7957747E-01            NaN
         13   -1    0    0    0    0  0.00000000000E+00  0.00000000000E+00  0.74505805969E-08  0.10566000000E+00  0.10566000000E+00 0.  1.
     999900   -1    0    0    0    0 -0.00000000000E+00 -0.00000000000E+00 -0.74505805969E-08  0.93827000000E+00  0.93827000000E+00 0. -1.
     999902    2    1    2    0    0  0.44354447080E-02  0.91108743351E-02 -0.20917287172E-01  0.10206874936E+01  0.10204228268E+01 0.  0.
     999903    2    3    3    0    0  0.88152877951E-01 -0.83665220992E-02  0.92345109430E-01  0.12931639328E+00  0.18819717090E-01 0.  0.
         14    1    1    2    0    0 -0.44354447080E-02 -0.91108743351E-02  0.20917287172E-01  0.23242506395E-01  0.00000000000E+00 0.  1.
     999901    1    3    3    0    0 -0.83717433243E-01  0.17477396434E-01 -0.11326239660E+00  0.89137110033E+00  0.88000000000E+00 0. -1.
        -11    1    4    4    0    0  0.42681241216E-01  0.39164019795E-02  0.36855883967E-01  0.56530026182E-01  0.51100000000E-03 0. -1.
         11    1    4    4    0    0  0.45471636736E-01 -0.12282924079E-01  0.55489225464E-01  0.72786367095E-01  0.51100000000E-03 0.  1.
</event>
<event>
 8    1  0.1095698E+005  0.1043930E+01  0.7957747E-01            NaN
         13   -1    0    0    0    0  0.00000000000E+00  0.00000000000E+00  0.74505805969E-08  0.10566000000E+00  0.10566000000E+00 0.  1.
     999900   -1    0    0    0    0 -0.00000000000E+00 -0.00000000000E+00 -0.74505805969E-08  0.93827000000E+00  0.93827000000E+00 0.  1.
     999902    2    1    2    0    0 -0.10397495551E-01  0.20420953292E-01 -0.11517265989E-02  0.10209855078E+01  0.10207276608E+01 0.  0.
     999903    2    3    3    0    0  0.35052732859E-01  0.92022824543E-01  0.86480675955E-01  0.13257569855E+00  0.20012851264E-01 0.  0.
         14    1    1    2    0    0  0.10397495551E-01 -0.20420953292E-01  0.11517265989E-02  0.22944492176E-01  0.00000000000E+00 0. -1.
     999901    1    3    3    0    0 -0.45450228410E-01 -0.71601871252E-01 -0.87632402554E-01  0.88840980927E+00  0.88000000000E+00 0.  1.
        -11    1    4    4    0    0  0.17769606388E-02  0.18350797538E-01  0.24724876449E-01  0.30846231468E-01  0.51100000000E-03 0.  1.
         11    1    4    4    0    0  0.33275772220E-01  0.73672027005E-01  0.61755799506E-01  0.10172946709E+00  0.51100000000E-03 0. -1.
</event>
<event>
 8    1  0.1095698E+005  0.1043930E+01  0.7957747E-01            NaN
         13   -1    0    0    0    0  0.00000000000E+00  0.00000000000E+00  0.74505805969E-08  0.10566000000E+00  0.10566000000E+00 0.  1.
     999900   -1    0    0    0    0 -0.00000000000E+00 -0.00000000000E+00 -0.74505805969E-08  0.93827000000E+00  0.93827000000E+00 0. -1.
     999902    2    1    2    0    0 -0.23312903399E-01  0.49382697185E-02  0.33629565317E-02  0.10198636864E+01  0.10195796935E+01 0.  0.
     999903    2    3    3    0    0  0.88772514081E-01 -0.80707181062E-01 -0.39580587839E-01  0.12759554732E+00  0.17882741144E-01 0.  0.
         14    1    1    2    0    0  0.23312903399E-01 -0.49382697185E-02 -0.33629565317E-02  0.24066313580E-01  0.00000000000E+00 0.  1.
     999901    1    3    3    0    0 -0.11208541748E+00  0.85645450781E-01  0.42943544370E-01  0.89226813910E+00  0.88000000000E+00 0. -1.
        -11    1    4    4    0    0  0.38131817648E-01 -0.39000590304E-01 -0.26724220245E-01  0.60741473722E-01  0.51100000000E-03 0. -1.
         11    1    4    4    0    0  0.50640696433E-01 -0.41706590759E-01 -0.12856367594E-01  0.66854073598E-01  0.51100000000E-03 0.  1.
</event>
<event>
 8    1  0.1095698E+005  0.1043930E+01  0.7957747E-01            NaN
         13   -1    0    0    0    0  0.00000000000E+00  0.00000000000E+00  0.74505805969E-08  0.10566000000E+00  0.10566000000E+00 0. -1.
     999900   -1    0    0    0    0 -0.00000000000E+00 -0.00000000000E+00 -0.74505805969E-08  0.93827000000E+00  0.93827000000E+00 0. -1.
     999902    2    1    2    0    0 -0.10747839439E-01 -0.12531884352E-01  0.17391784351E-01  0.10199500429E+01  0.10196681086E+01 0.  0.
     999903    2    3    3    0    0 -0.11846569946E+00 -0.11747588014E-01  0.54782169430E-01  0.13259341035E+00  0.20194024070E-01 0.  0.
         14    1    1    2    0    0  0.10747839439E-01  0.12531884352E-01 -0.17391784351E-01  0.23979957067E-01  0.00000000000E+00 0.  1.
     999901    1    3    3    0    0  0.10771786002E+00 -0.78429633805E-03 -0.37390385078E-01  0.88735663258E+00  0.88000000000E+00 0. -1.
        -11    1    4    4    0    0 -0.72943693269E-01  0.20965714240E-02  0.36761595219E-01  0.81712018722E-01  0.51100000000E-03 0. -1.
         11    1    4    4    0    0 -0.45522006193E-01 -0.13844159438E-01  0.18020574211E-01  0.50881391630E-01  0.51100000000E-03 0.  1.
</event>
<event>
 8    1  0.1095698E+005  0.1043930E+01  0.7957747E-01            NaN
         13   -1    0    0    0    0  0.00000000000E+00  0.00000000000E+00  0.74505805969E-08  0.10566000000E+00  0.10566000000E+00 0.  1.
     999900   -1    0    0    0    0 -0.00000000000E+00 -0.00000000000E+00 -0.74505805969E-08  0.93827000000E+00  0.93827000000E+00 0. -1.
     999902    2    1    2    0    0 -0.21570488153E-01 -0.42191201940E-02 -0.91861610712E-02  0.10201083189E+01  0.10198301377E+01 0.  0.
     999903    2    3    3    0    0 -0.60452711164E-01 -0.97477075089E-01 -0.63702788533E-01  0.13265075031E+00  0.19541387736E-01 0.  0.
         14    1    1    2    0    0  0.21570488153E-01  0.42191201940E-02  0.91861610712E-02  0.23821681083E-01  0.00000000000E+00 0.  1.
     999901    1    3    3    0    0  0.38882223011E-01  0.93257954895E-01  0.54516627462E-01  0.88745756861E+00  0.88000000000E+00 0.  1.
        -11    1    4    4    0    0 -0.36257607681E-01 -0.69486782666E-01 -0.35083971648E-01  0.85873006630E-01  0.51100000000E-03 0. -1.
         11    1    4    4    0    0 -0.24195103482E-01 -0.27990292423E-01 -0.28618816885E-01  0.46777743676E-01  0.51100000000E-03 0.  1.
</event>
<event>
 8    1  0.1095698E+005  0.1043930E+01  0.7957747E-01            NaN
         13   -1    0    0    0    0  0.00000000000E+00  0.00000000000E+00  0.74505805969E-08  0.10566000000E+00  0.10566000000E+00 0. -1.
     999900   -1    0    0    0    0 -0.00000000000E+00 -0.00000000000E+00 -0.74505805969E-08  0.93827000000E+00  0.93827000000E+00 0.  1.
     999902    2    1    2    0    0 -0.15225307988E-01 -0.41013302941E-02 -0.18246844032E-01  0.10198140669E+01  0.10195288877E+01 0.  0.
     999903    2    3    3    0    0  0.42105706742E-01  0.11100129805E+00  0.44310604998E-01  0.12827108152E+00  0.19896279288E-01 0.  0.
         14    1    1    2    0    0  0.15225307988E-01  0.41013302941E-02  0.18246844032E-01  0.24115933128E-01  0.00000000000E+00 0. -1.
     999901    1    3    3    0    0 -0.57331014730E-01 -0.11510262835E+00 -0.62557449030E-01  0.89154298535E+00  0.88000000000E+00 0.  1.
        -11    1    4    4    0    0  0.24545734418E-01  0.41598815510E-01  0.12273128455E-01  0.49838191510E-01  0.51100000000E-03 0. -1.
         11    1    4    4    0    0  0.17559972324E-01  0.69402482542E-01  0.32037476542E-01  0.78432890009E-01  0.51100000000E-03 0.  1.
</event>
<event>
 8    1  0.1095698E+005  0.1043930E+01  0.7957747E-01            NaN
         13   -1    0    0    0    0  0.00000000000E+00  0.00000000000E+00  0.74505805969E-08  0.10566000000E+00  0.10566000000E+00 0. -1.
     999900   -1    0    0    0    0 -0.00000000000E+00 -0.00000000000E+00 -0.74505805969E-08  0.93827000000E+00  0.93827000000E+00 0.  1.
     999902    2    1    2    0    0  0.23406095142E-01  0.47989531844E-02  0.34017861985E-02  0.10197960531E+01  0.10195104426E+01 0.  0.
     999903    2    3    3    0    0  0.96397628613E-01 -0.56492489820E-01  0.67999932255E-01  0.13229544728E+00  0.19854228137E-01 0.  0.
         14    1    1    2    0    0 -0.23406095142E-01 -0.47989531844E-02 -0.34017861985E-02  0.24133946855E-01  0.00000000000E+00 0. -1.
     999901    1    3    3    0    0 -0.72991533470E-01  0.61291443004E-01 -0.64598146057E-01  0.88750060587E+00  0.88000000000E+00 0.  1.
        -11    1    4    4    0    0  0.62030739304E-01 -0.32479807282E-01  0.52799389659E-01  0.87697133186E-01  0.51100000000E-03 0. -1.
         11    1    4    4    0    0  0.34366889308E-01 -0.24012682538E-01  0.15200542596E-01  0.44598314089E-01  0.51100000000E-03 0.  1.
</event>
<event>
 8    1  0.1095698E+005  0.1043930E+01  0.7957747E-01            NaN
         13   -1    0    0    0    0  0.00000000000E+00  0.00000000000E+00  0.74505805969E-08  0.10566000000E+00  0.10566000000E+00 0.  1.
     999900   -1    0    0    0    0 -0.00000000000E+00 -0.00000000000E+00 -0.74505805969E-08  0.93827000000E+00  0.93827000000E+00 0.  1.
     999902    2    1    2    0    0  0.10827332463E-02  0.57762427652E-02  0.23377203676E-01  0.10198254165E+01  0.10195405089E+01 0.  0.
     999903    2    3    3    0    0 -0.42614176030E-01 -0.37847699481E-01  0.11795642450E+00  0.13260633581E+00  0.20550081795E-01 0.  0.
         14    1    1    2    0    0 -0.10827332463E-02 -0.57762427652E-02 -0.23377203676E-01  0.24104583453E-01  0.00000000000E+00 0. -1.
     999901    1    3    3    0    0  0.43696909276E-01  0.43623942246E-01 -0.94579220820E-01  0.88721908074E+00  0.88000000000E+00 0.  1.
        -11    1    4    4    0    0 -0.21557832690E-02  0.24288502915E-02  0.42577094063E-02  0.53792123615E-02  0.51100000000E-03 0. -1.
         11    1    4    4    0    0 -0.40458392761E-01 -0.40276549772E-01  0.11369871509E+00  0.12722712345E+00  0.51100000000E-03 0.  1.
</event>
<event>
 8    1  0.1095698E+005  0.1043930E+01  0.7957747E-01            NaN
         13   -1    0    0    0    0  0.00000000000E+00  0.00000000000E+00  0.74505805969E-08  0.10566000000E+00  0.10566000000E+00 0. -1.
     999900   -1    0    0    0    0 -0.00000000000E+00 -0.00000000000E+00 -0.74505805969E-08  0.93827000000E+00  0.93827000000E+00 0.  1.
     999902    2    1    2    0    0 -0.44594621189E-02 -0.22273515023E-01  0.62679631562E-03  0.10212058026E+01  0.10209529382E+01 0.  0.
     999903    2    3    3    0    0  0.37478130202E-01  0.78824949991E-01 -0.93501129926E-01  0.12944365506E+00  0.19880029031E-01 0.  0.
         14    1    1    2    0    0  0.44594621189E-02  0.22273515023E-01 -0.62679631562E-03  0.22724197401E-01  0.00000000000E+00 0.  1.
     999901    1    3    3    0    0 -0.41937592321E-01 -0.10109846501E+00  0.94127926242E-01  0.89176214754E+00  0.88000000000E+00 0. -1.
        -11    1    4    4    0    0  0.18193040219E-01  0.43488479621E-01 -0.36321383770E-01  0.59512508031E-01  0.51100000000E-03 0.  1.
         11    1    4    4    0    0  0.19285089983E-01  0.35336470370E-01 -0.57179746156E-01  0.69931147033E-01  0.51100000000E-03 0. -1.
</event>
<event>
 8    1  0.1095698E+005  0.1043930E+01  0.7957747E-01            NaN
         13   -1    0    0    0    0  0.00000000000E+00  0.00000000000E+00  0.74505805969E-08  0.10566000000E+00  0.10566000000E+00 0.  1.
     999900   -1    0    0    0    0 -0.00000000000E+00 -0.00000000000E+00 -0.74505805969E-08  0.93827000000E+00  0.93827000000E+00 0.  1.
     999902    2    1    2    0    0 -0.18783604800E-01  0.38627866024E-02  0.14203457326E-01  0.10200661543E+01  0.10197869758E+01 0.  0.
     999903    2    3    3    0    0  0.35607213974E-01  0.15222582860E-02  0.12498990107E+00  0.13145067206E+00  0.19662473346E-01 0.  0.
         14    1    1    2    0    0  0.18783604800E-01 -0.38627866024E-02 -0.14203457326E-01  0.23863845659E-01  0.00000000000E+00 0. -1.
     999901    1    3    3    0    0 -0.54390818774E-01  0.23405283164E-02 -0.11078644374E+00  0.88861548228E+00  0.88000000000E+00 0.  1.
        -11    1    4    4    0    0  0.26463279514E-01  0.97338041615E-02  0.92808284797E-01  0.96998406966E-01  0.51100000000E-03 0. -1.
         11    1    4    4    0    0  0.91439344600E-02 -0.82115458755E-02  0.32181616270E-01  0.34452265090E-01  0.51100000000E-03 0.  1.
</event>
<event>
 8    1  0.1095698E+005  0.1043930E+01  0.7957747E-01            NaN
         13   -1    0    0    0    0  0.00000000000E+00  0.00000000000E+00  0.74505805969E-08  0.10566000000E+00  0.10566000000E+00 0.  1.
     999900   -1    0    0    0    0 -0.00000000000E+00 -0.00000000000E+00 -0.74505805969E-08  0.93827000000E+00  0.93827000000E+00 0. -1.
     999902    2    1    2    0    0 -0.72373547228E-02 -0.12911800970E-01 -0.17583520325E-01  0.10209457860E+01  0.10206870352E+01 0.  0.
     999903    2    3    3    0    0  0.44479323502E-02 -0.43185224536E-01 -0.12498005017E+00  0.13382288539E+00  0.20094874794E-01 0.  0.
         14    1    1    2    0    0  0.72373547228E-02  0.12911800970E-01  0.17583520325E-01  0.22984214032E-01  0.00000000000E+00 0.  1.
     999901    1    3    3    0    0 -0.11685287073E-01  0.30273423566E-01  0.10739652984E+00  0.88712290058E+00  0.88000000000E+00 0.  1.
        -11    1    4    4    0    0 -0.40999709600E-02 -0.36459701384E-01 -0.10185090558E+00  0.10825889190E+00  0.51100000000E-03 0. -1.
         11    1    4    4    0    0  0.85479033102E-02 -0.67255231521E-02 -0.23129144590E-01  0.25563993490E-01  0.51100000000E-03 0.  1.
</event>
<event>
 8    1  0.1095698E+005  0.1043930E+01  0.7957747E-01            NaN
         13   -1    0    0    0    0  0.00000000000E+00  0.00000000000E+00  0.74505805969E-08  0.10566000000E+00  0.10566000000E+00 0. -1.
     999900   -1    0    0    0    0 -0.00000000000E+00 -0.00000000000E+00 -0.74505805969E-08  0.93827000000E+00  0.93827000000E+00 0.  1.
     999902    2    1    2    0    0 -0.21482012711E-01 -0.86109530815E-02  0.85542053151E-03  0.10207706147E+01  0.10205078592E+01 0.  0.
     999903    2    3    3    0    0  0.98453358216E-01  0.34885408874E-01 -0.72554759355E-01  0.12854559756E+00  0.18700856952E-01 0.  0.
         14    1    1    2    0    0  0.21482012711E-01  0.86109530815E-02 -0.85542053151E-03  0.23159385298E-01  0.00000000000E+00 0.  1.
     999901    1    3    3    0    0 -0.11993537093E+00 -0.43496361955E-01  0.73410179886E-01  0.89222501714E+00  0.88000000000E+00 0. -1.
        -11    1    4    4    0    0  0.58415616483E-01  0.26619013273E-01 -0.52884913793E-01  0.83174703755E-01  0.51100000000E-03 0.  1.
         11    1    4    4    0    0  0.40037741733E-01  0.82663956004E-02 -0.19669845562E-01  0.45370893806E-01  0.51100000000E-03 0. -1.
</event>
<event>
 8    1  0.1095698E+005  0.1043930E+01  0.7957747E-01            NaN
         13   -1    0    0    0    0  0.00000000000E+00  0.00000000000E+00  0.74505805969E-08  0.10566000000E+00  0.10566000000E+00 0.  1.
     999900   -1    0    0    0    0 -0.00000000000E+00 -0.00000000000E+00 -0.74505805969E-08  0.93827000000E+00  0.93827000000E+00 0. -1.
     999902    2    1    2    0    0  0.21280132134E-01 -0.93921401457E-02  0.31840883673E-02  0.10204524631E+01  0.10201823537E+01 0.  0.
     999903    2    3    3    0    0 -0.10421249927E+00  0.17748061065E-01  0.70495925672E-01  0.12859155775E+00  0.19770546582E-01 0.  0.
         14    1    1    2    0    0 -0.21280132134E-01  0.93921401457E-02 -0.31840883673E-02  0.23477536899E-01  0.00000000000E+00 0. -1.
     999901    1    3    3    0    0  0.12549263140E+00 -0.27140201211E-01 -0.67311837305E-01  0.89186090535E+00  0.88000000000E+00 0. -1.
        -11    1    4    4    0    0 -0.32270710615E-01  0.34353611695E-02  0.32699776634E-01  0.46073169881E-01  0.51100000000E-03 0.  1.
         11    1    4    4    0    0 -0.71941788653E-01  0.14312699896E-01  0.37796149038E-01  0.82518387866E-01  0.51100000000E-03 0. -1.
</event>
<event>
 8    1  0.1095698E+005  0.1043930E+01  0.7957747E-01            NaN
         13   -1    0    0    0    0  0.00000000000E+00  0.00000000000E+00  0.74505805969E-08  0.10566000000E+00  0.10566000000E+00 0. -1.
     999900   -1    0    0    0    0 -0.00000000000E+00 -0.00000000000E+00 -0.74505805969E-08  0.93827000000E+00  0.93827000000E+00 0. -1.
     999902    2    1    2    0    0 -0.13181608247E-01  0.44444756658E-02  0.18953595537E-01  0.10204194291E+01  0.10201485501E+01 0.  0.
     999903    2    3    3    0    0 -0.42710167954E-01 -0.95007759954E-01  0.79313039533E-01  0.13227194953E+00  0.18832883297E-01 0.  0.
         14    1    1    2    0    0  0.13181608247E-01 -0.44444756658E-02 -0.18953595537E-01  0.23510570892E-01  0.00000000000E+00 0.  1.
     999901    1    3    3    0    0  0.29528559707E-01  0.99452235620E-01 -0.60359443996E-01  0.88814747958E+00  0.88000000000E+00 0. -1.
        -11    1    4    4    0    0 -0.37303515630E-01 -0.68054802080E-01  0.65223842888E-01  0.10137760683E+00  0.51100000000E-03 0.  1.
         11    1    4    4    0    0 -0.54066523240E-02 -0.26952957874E-01  0.14089196645E-01  0.30894342696E-01  0.51100000000E-03 0. -1.
</event>
<event>
 7    1  0.1095698E+005  0.1043930E+01  0.7957747E-01            NaN
         13   -1    0    0    0    0  0.00000000000E+00  0.00000000000E+00  0.74505805969E-08  0.10566000000E+00  0.10566000000E+00 0.  1.
     999900   -1    0    0    0    0 -0.00000000000E+00 -0.00000000000E+00 -0.74505805969E-08  0.93827000000E+00  0.93827000000E+00 0. -1.
     999903    2    1    2    0    0  0.27236914738E-01 -0.11229170583E+00 -0.17963490589E-01  0.11872672464E+00  0.20544376986E-01 0.  0.
         14    1    1    2    0    0 -0.17164282412E-01  0.36607266272E-01 -0.92579118334E-02  0.41477867184E-01  0.00000000000E+00 0.  1.
     999901    1    1    2    0    0 -0.10072632326E-01  0.75684439559E-01  0.27221402423E-01  0.88372540818E+00  0.88000000000E+00 0. -1.
        -11    1    3    3    0    0  0.11767195315E-01 -0.81913657851E-01 -0.17719455819E-01  0.84631876168E-01  0.51100000000E-03 0.  1.
         11    1    3    3    0    0  0.15469719423E-01 -0.30378047979E-01 -0.24403476997E-03  0.34094848468E-01  0.51100000000E-03 0. -1.
</event>
<event>
 8    1  0.1095698E+005  0.1043930E+01  0.7957747E-01            NaN
         13   -1    0    0    0    0  0.00000000000E+00  0.00000000000E+00  0.74505805969E-08  0.10566000000E+00  0.10566000000E+00 0.  1.
     999900   -1    0    0    0    0 -0.00000000000E+00 -0.00000000000E+00 -0.74505805969E-08  0.93827000000E+00  0.93827000000E+00 0.  1.
     999902    2    1    2    0    0 -0.23551897086E-01 -0.11406396539E-02 -0.46568272557E-02  0.10198950472E+01  0.10196118028E+01 0.  0.
     999903    2    3    3    0    0  0.11654118418E-01  0.12480278083E+00  0.26647481616E-01  0.12968093340E+00  0.19887273081E-01 0.  0.
         14    1    1    2    0    0  0.23551897086E-01  0.11406396539E-02  0.46568272557E-02  0.24034952783E-01  0.00000000000E+00 0.  1.
     999901    1    3    3    0    0 -0.35206015504E-01 -0.12594342049E+00 -0.31304308871E-01  0.89021411382E+00  0.88000000000E+00 0. -1.
        -11    1    4    4    0    0  0.13085544165E-01  0.68887373080E-01  0.73298432252E-02  0.70503115950E-01  0.51100000000E-03 0. -1.
         11    1    4    4    0    0 -0.14314257467E-02  0.55915407752E-01  0.19317638391E-01  0.59177817446E-01  0.51100000000E-03 0.  1.
</event>
<event>
 8    1  0.1095698E+005  0.1043930E+01  0.7957747E-01            NaN
         13   -1    0    0    0    0  0.00000000000E+00  0.00000000000E+00  0.74505805969E-08  0.10566000000E+00  0.10566000000E+00 0. -1.
     999900   -1    0    0    0    0 -0.00000000000E+00 -0.00000000000E+00 -0.74505805969E-08  0.93827000000E+00  0.93827000000E+00 0. -1.
     999902    2    1    2    0    0 -0.56413039519E-02 -0.14278203841E-01  0.19229891955E-01  0.10193234935E+01  0.10190264493E+01 0.  0.
     999903    2    3    3    0    0  0.33399632442E-01 -0.12528618569E+00  0.97709230280E-02  0.13144037126E+00  0.19207719474E-01 0.  0.
         14    1    1    2    0    0  0.56413039519E-02  0.14278203841E-01 -0.19229891955E-01  0.24606506452E-01  0.00000000000E+00 0.  1.
     999901    1    3    3    0    0 -0.39040936394E-01  0.11100798185E+00  0.94589689266E-02  0.88788312229E+00  0.88000000000E+00 0.  1.
        -11    1    4    4    0    0  0.55049367404E-02 -0.43208526806E-01  0.10244880799E-01  0.44749299669E-01  0.51100000000E-03 0. -1.
         11    1    4    4    0    0  0.27894695702E-01 -0.82077658888E-01 -0.47395777116E-03  0.86691071592E-01  0.51100000000E-03 0.  1.
</event>
<event>
 8    1  0.1095698E+005  0.1043930E+01  0.7957747E-01            NaN
         13   -1    0    0    0    0  0.00000000000E+00  0.00000000000E+00  0.74505805969E-08  0.10566000000E+00  0.10566000000E+00 0.  1.
     999900   -1    0    0    0    0 -0.00000000000E+00 -0.00000000000E+00 -0.74505805969E-08  0.93827000000E+00  0.93827000000E+00 0. -1.
     999902    2    1    2    0    0  0.13857374929E-01 -0.19770732596E-01 -0.29526949181E-02  0.10196066138E+01  0.10193164474E+01 0.  0.
     999903    2    3    3    0    0  0.39987673895E-01  0.53329282127E-01 -0.10957842395E+00  0.12977772536E+00  0.19793953792E-01 0.  0.
         14    1    1    2    0    0 -0.13857374929E-01  0.19770732596E-01  0.29526949181E-02  0.24323386166E-01  0.00000000000E+00 0.  1.
     999901    1    3    3    0    0 -0.26130298966E-01 -0.73100014722E-01  0.10662572904E+00  0.88982888848E+00  0.88000000000E+00 0.  1.
        -11    1    4    4    0    0  0.18354736883E-01  0.21029352797E-01 -0.64293362510E-01  0.70092992724E-01  0.51100000000E-03 0. -1.
         11    1    4    4    0    0  0.21632937012E-01  0.32299929329E-01 -0.45285061445E-01  0.59684732633E-01  0.51100000000E-03 0.  1.
</event>
<event>
 8    1  0.1095698E+005  0.1043930E+01  0.7957747E-01            NaN
         13   -1    0    0    0    0  0.00000000000E+00  0.00000000000E+00  0.74505805969E-08  0.10566000000E+00  0.10566000000E+00 0.  1.
     999900   -1    0    0    0    0 -0.00000000000E+00 -0.00000000000E+00 -0.74505805969E-08  0.93827000000E+00  0.93827000000E+00 0. -1.
     999902    2    1    2    0    0 -0.65221197086E-02  0.24472384953E-01 -0.13203242817E-01  0.10153684648E+01  0.10149666783E+01 0.  0.
     999903    2    3    3    0    0 -0.43900456760E-01  0.60635433483E-01 -0.10326310405E+00  0.12924449790E+00  0.20903724091E-01 0.  0.
         14    1    1    2    0    0  0.65221197086E-02 -0.24472384953E-01  0.13203242817E-01  0.28561535176E-01  0.00000000000E+00 0.  1.
     999901    1    3    3    0    0  0.37378337051E-01 -0.36163048531E-01  0.90059861233E-01  0.88612396693E+00  0.88000000000E+00 0.  1.
        -11    1    4    4    0    0 -0.10248937415E-01  0.30286679836E-01 -0.49482735569E-01  0.58916262051E-01  0.51100000000E-03 0. -1.
         11    1    4    4    0    0 -0.33651519344E-01  0.30348753647E-01 -0.53780368480E-01  0.70328235844E-01  0.51100000000E-03 0.  1.
</event>
<event>
 8    1  0.1095698E+005  0.1043930E+01  0.7957747E-01            NaN
         13   -1    0    0    0    0  0.00000000000E+00  0.00000000000E+00  0.74505805969E-08  0.10566000000E+00  0.10566000000E+00 0. -1.
     999900   -1    0    0    0    0 -0.00000000000E+00 -0.00000000000E+00 -0.74505805969E-08  0.93827000000E+00  0.93827000000E+00 0. -1.
     999902    2    1    2    0    0 -0.51572648492E-02 -0.15479062491E-01  0.92895581435E-02  0.10251551592E+01  0.10249832222E+01 0.  0.
     999903    2    3    3    0    0 -0.28340217843E-01  0.12748985840E+00 -0.10990682221E-01  0.13308517888E+00  0.23109257869E-01 0.  0.
         14    1    1    2    0    0  0.51572648492E-02  0.15479062491E-01 -0.92895581435E-02  0.18774840794E-01  0.00000000000E+00 0.  1.
     999901    1    3    3    0    0  0.23182952993E-01 -0.14296892089E+00  0.20280240364E-01  0.89206998033E+00  0.88000000000E+00 0.  1.
        -11    1    4    4    0    0 -0.14371868832E-02  0.24435651148E-01 -0.10331899928E-01  0.26573969035E-01  0.51100000000E-03 0. -1.
         11    1    4    4    0    0 -0.26903030959E-01  0.10305420725E+00 -0.65878229229E-03  0.10651120984E+00  0.51100000000E-03 0.  1.
</event>
<event>
 8    1  0.1095698E+005  0.1043930E+01  0.7957747E-01            NaN
         13   -1    0    0    0    0  0.00000000000E+00  0.00000000000E+00  0.74505805969E-08  0.10566000000E+00  0.10566000000E+00 0.  1.
     999900   -1    0    0    0    0 -0.00000000000E+00 -0.00000000000E+00 -0.74505805969E-08  0.93827000000E+00  0.93827000000E+00 0.  1.
     999902    2    1    2    0    0  0.42849448452E-02 -0.13139751472E-01  0.19491069352E-01  0.10200361597E+01  0.10197562706E+01 0.  0.
     999903    2    3    3    0    0  0.80165821514E-01  0.90732909403E-02 -0.98257067356E-01  0.12867991754E+00  0.19879294371E-01 0.  0.
         14    1    1    2    0    0 -0.42849448452E-02  0.13139751472E-01 -0.19491069352E-01  0.23893840326E-01  0.00000000000E+00 0. -1.
     999901    1    3    3    0    0 -0.75880876669E-01 -0.22213042412E-01  0.11774813671E+00  0.89135624214E+00  0.88000000000E+00 0. -1.
        -11    1    4    4    0    0  0.29958316077E-01  0.85913465130E-02 -0.50734810153E-01  0.59544890791E-01  0.51100000000E-03 0.  1.
         11    1    4    4    0    0  0.50207505436E-01  0.48194442723E-03 -0.47522257203E-01  0.69135026747E-01  0.51100000000E-03 0. -1.
</event>
<event>
 8    1  0.1095698E+005  0.1043930E+01  0.7957747E-01            NaN
         13   -1    0    0    0    0  0.00000000000E+00  0.00000000000E+00  0.74505805969E-08  0.10566000000E+00  0.10566000000E+00 0. -1.
     999900   -1    0    0    0    0 -0.00000000000E+00 -0.00000000000E+00 -0.74505805969E-08  0.93827000000E+00  0.93827000000E+00 0. -1.
     999902    2    1    2    0    0  0.22290485719E-01  0.37361663838E-02  0.13717977901E-01  0.10174912479E+01  0.10171476943E+01 0.  0.
     999903    2    3    3    0    0  0.10178120328E+00 -0.57026167457E-01  0.55895958375E-01  0.13081779202E+00  0.19430373952E-01 0.  0.
         14    1    1    2    0    0 -0.22290485719E-01 -0.37361663838E-02 -0.13717977901E-01  0.26438752061E-01  0.00000000000E+00 0.  1.
     999901    1    3    3    0    0 -0.79490717557E-01  0.60762333840E-01 -0.42177980474E-01  0.88667345592E+00  0.88000000000E+00 0.  1.
        -11    1    4    4    0    0  0.17643239782E-01 -0.83099323635E-02  0.18905147845E-02  0.19600358493E-01  0.51100000000E-03 0. -1.
         11    1    4    4    0    0  0.84137963493E-01 -0.48716235093E-01  0.54005443590E-01  0.11121743353E+00  0.51100000000E-03 0.  1.
</event>
<event>
 8    1  0.1095698E+005  0.1043930E+01  0.7957747E-01            NaN
         13   -1    0    0    0    0  0.00000000000E+00  0.00000000000E+00  0.74505805969E-08  0.10566000000E+00  0.10566000000E+00 0.  1.
     999900   -1    0    0    0    0 -0.00000000000E+00 -0.00000000000E+00 -0.74505805969E-08  0.93827000000E+00  0.93827000000E+00 0. -1.
     999902    2    1    2    0    0  0.17307042487E-01 -0.39572437638E-03 -0.16567394709E-01  0.10199681786E+01  0.10196866756E+01 0.  0.
     999903    2    3    3    0    0  0.92438005627E-01  0.61043440260E-01  0.66541172279E-01  0.13074016145E+00  0.19853859194E-01 0.  0.
         14    1    1    2    0    0 -0.17307042487E-01  0.39572437638E-03  0.16567394709E-01  0.23961821401E-01  0.00000000000E+00 0.  1.
     999901    1    3    3    0    0 -0.75130963141E-01 -0.61439164636E-01 -0.83108566988E-01  0.88922801715E+00  0.88000000000E+00 0. -1.
        -11    1    4    4    0    0  0.32301267772E-01  0.11589531375E-01  0.25240502340E-01  0.42603206646E-01  0.51100000000E-03 0. -1.
         11    1    4    4    0    0  0.60136737856E-01  0.49453908885E-01  0.41300669939E-01  0.88136954805E-01  0.51100000000E-03 0.  1.
</event>
<event>
 8    1  0.1095698E+005  0.1043930E+01  0.7957747E-01            NaN
         13   -1    0    0    0    0  0.00000000000E+00  0.00000000000E+00  0.74505805969E-08  0.10566000000E+00  0.10566000000E+00 0. -1.
     999900   -1    0    0    0    0 -0.00000000000E+00 -0.00000000000E+00 -0.74505805969E-08  0.93827000000E+00  0.93827000000E+00 0. -1.
     999902    2    1    2    0    0  0.11679090190E-01 -0.19810214771E-01 -0.44389508532E-03  0.10209290696E+01  0.10206699380E+01 0.  0.
     999903    2    3    3    0    0 -0.10224451105E+00 -0.69674760872E-01 -0.39686727273E-01  0.13131957113E+00  0.19007395866E-01 0.  0.
         14    1    1    2    0    0 -0.11679090190E-01  0.19810214771E-01  0.44389508532E-03  0.23000930411E-01  0.00000000000E+00 0.  1.
     999901    1    3    3    0    0  0.11392360124E+00  0.49864546101E-01  0.39242832188E-01  0.88960949846E+00  0.88000000000E+00 0. -1.
        -11    1    4    4    0    0 -0.16451936342E-01 -0.13036454642E-01  0.33743756738E-03  0.20999770097E-01  0.51100000000E-03 0.  1.
         11    1    4    4    0    0 -0.85792574703E-01 -0.56638306231E-01 -0.40024164840E-01  0.11031980103E+00  0.51100000000E-03 0. -1.
</event>
<event>
 8    1  0.1095698E+005  0.1043930E+01  0.7957747E-01            NaN
         13   -1    0    0    0    0  0.00000000000E+00  0.00000000000E+00  0.74505805969E-08  0.10566000000E+00  0.10566000000E+00 0. -1.
     999900   -1    0    0    0    0 -0.00000000000E+00 -0.00000000000E+00 -0.74505805969E-08  0.93827000000E+00  0.93827000000E+00 0.  1.
     999902    2    1    2    0    0  0.36069903833E-02  0.18309481581E-01 -0.15219677510E-01  0.10198491761E+01  0.10195648366E+01 0.  0.
     999903    2    3    3    0    0 -0.39994553228E-01 -0.11057508395E+00  0.44801009924E-01  0.12737239280E+00  0.19753037205E-01 0.  0.
         14    1    1    2    0    0 -0.36069903833E-02 -0.18309481581E-01  0.15219677510E-01  0.24080823883E-01  0.00000000000E+00 0. -1.
     999901    1    3    3    0    0  0.43601543611E-01  0.12888456553E+00 -0.60020687434E-01  0.89247678332E+00  0.88000000000E+00 0.  1.
        -11    1    4    4    0    0 -0.24054194791E-01 -0.54686999284E-01  0.13081591342E-01  0.61160946124E-01  0.51100000000E-03 0. -1.
         11    1    4    4    0    0 -0.15940358437E-01 -0.55888084668E-01  0.31719418581E-01  0.66211446677E-01  0.51100000000E-03 0.  1.
</event>
<event>
 7    1  0.1095698E+005  0.1043930E+01  0.7957747E-01            NaN
         13   -1    0    0    0    0  0.00000000000E+00  0.00000000000E+00  0.74505805969E-08  0.10566000000E+00  0.10566000000E+00 0.  1.
     999900   -1    0    0    0    0 -0.00000000000E+00 -0.00000000000E+00 -0.74505805969E-08  0.93827000000E+00  0.93827000000E+00 0.  1.
     999903    2    1    2    0    0  0.10329995561E+00  0.20724830586E-01  0.44510256487E-01  0.11607742615E+00  0.19809252802E-01 0.  0.
         14    1    1    2    0    0 -0.89868180047E-02 -0.30460234536E-01 -0.28412850696E-01  0.42613130260E-01  0.00000000000E+00 0. -1.
     999901    1    1    2    0    0 -0.94313137608E-01  0.97354039504E-02 -0.16097405791E-01  0.88523944359E+00  0.88000000000E+00 0. -1.
        -11    1    3    3    0    0  0.23549656595E-01  0.12745601802E-01  0.76210607557E-02  0.27845616873E-01  0.51100000000E-03 0. -1.
         11    1    3    3    0    0  0.79750299018E-01  0.79792287842E-02  0.36889195731E-01  0.88231809276E-01  0.51100000000E-03 0.  1.
</event>
<event>
 8    1  0.1095698E+005  0.1043930E+01  0.7957747E-01            NaN
         13   -1    0    0    0    0  0.00000000000E+00  0.00000000000E+00  0.74505805969E-08  0.10566000000E+00  0.10566000000E+00 0.  1.
     999900   -1    0    0    0    0 -0.00000000000E+00 -0.00000000000E+00 -0.74505805969E-08  0.93827000000E+00  0.93827000000E+00 0.  1.
     999902    2    1    2    0    0  0.20490089079E-01 -0.11246129800E-01 -0.20440935828E-02  0.10204673168E+01  0.10201975530E+01 0.  0.
     999903    2    3    3    0    0  0.72936211225E-01  0.12433220885E-01 -0.10793482468E+00  0.13225329171E+00  0.19150219310E-01 0.  0.
         14    1    1    2    0    0 -0.20490089079E-01  0.11246129800E-01  0.20440935828E-02  0.23462683234E-01  0.00000000000E+00 0. -1.
     999901    1    3    3    0    0 -0.52446122145E-01 -0.23679350685E-01  0.10589073110E+00  0.88821402506E+00  0.88000000000E+00 0. -1.
        -11    1    4    4    0    0  0.24818687741E-01  0.13392635152E-01 -0.43020435870E-01  0.51442676456E-01  0.51100000000E-03 0.  1.
         11    1    4    4    0    0  0.48117523484E-01 -0.95941426642E-03 -0.64914388810E-01  0.80810615253E-01  0.51100000000E-03 0. -1.
</event>
<event>
 8    1  0.1281355E+005  0.1043930E+01  0.7957747E-01            NaN
         13   -1    0    0    0    0  0.00000000000E+00  0.00000000000E+00  0.74505805969E-08  0.10566000000E+00  0.10566000000E+00 0. -1.
     999900   -1    0    0    0    0 -0.00000000000E+00 -0.00000000000E+00 -0.74505805969E-08  0.93827000000E+00  0.93827000000E+00 0. -1.
     999902    2    1    2    0    0  0.36398826490E-02 -0.22987781620E-01  0.14832920762E-02  0.10206086149E+01  0.10203421278E+01 0.  0.
     999903    2    3    3    0    0 -0.34215171004E-01  0.12138729778E+00 -0.84859853478E-02  0.12798520315E+00  0.20066048136E-01 0.  0.
         14    1    1    2    0    0 -0.36398826490E-02  0.22987781620E-01 -0.14832920762E-02  0.23321385141E-01  0.00000000000E+00 0.  1.
     999901    1    3    3    0    0  0.37855053653E-01 -0.14437507940E+00  0.99692774240E-02  0.89262341171E+00  0.88000000000E+00 0.  1.
        -11    1    4    4    0    0 -0.23505791496E-01  0.71061217977E-01  0.42725482941E-02  0.74971559436E-01  0.51100000000E-03 0.  1.
         11    1    4    4    0    0 -0.10709379508E-01  0.50326079806E-01 -0.12758533642E-01  0.53013643713E-01  0.51100000000E-03 0. -1.
</event>
<event>
 7    1  0.1095698E+005  0.1043930E+01  0.7957747E-01            NaN
         13   -1    0    0    0    0  0.00000000000E+00  0.00000000000E+00  0.74505805969E-08  0.10566000000E+00  0.10566000000E+00 0. -1.
     999900   -1    0    0    0    0 -0.00000000000E+00 -0.00000000000E+00 -0.74505805969E-08  0.93827000000E+00  0.93827000000E+00 0. -1.
     999903    2    1    2    0    0  0.90267206547E-02 -0.89471430811E-01 -0.64563931994E-01  0.11217150764E+00  0.18092185984E-01 0.  0.
         14    1    1    2    0    0 -0.20012290414E-01  0.34856791680E-01  0.28477039457E-01  0.49258800940E-01  0.00000000000E+00 0.  1.
     999901    1    1    2    0    0  0.10985569759E-01  0.54614639132E-01  0.36086892537E-01  0.88249969142E+00  0.88000000000E+00 0.  1.
        -11    1    3    3    0    0  0.90997450675E-03 -0.11531117614E-01 -0.16861870446E-02  0.11700387804E-01  0.51100000000E-03 0. -1.
         11    1    3    3    0    0  0.81167461480E-02 -0.77940313198E-01 -0.62877744949E-01  0.10047111983E+00  0.51100000000E-03 0.  1.
</event>
<event>
 8    1  0.1095698E+005  0.1043930E+01  0.7957747E-01            NaN
         13   -1    0    0    0    0  0.00000000000E+00  0.00000000000E+00  0.74505805969E-08  0.10566000000E+00  0.10566000000E+00 0.  1.
     999900   -1    0    0    0    0 -0.00000000000E+00 -0.00000000000E+00 -0.74505805969E-08  0.93827000000E+00  0.93827000000E+00 0.  1.
     999902    2    1    2    0    0  0.19701846850E-01  0.28959302994E-02 -0.12345963317E-01  0.10204998487E+01  0.10202308411E+01 0.  0.
     999903    2    3    3    0    0 -0.10893085501E+00 -0.12869144598E-01  0.62538817938E-01  0.12786182570E+00  0.20149358927E-01 0.  0.
         14    1    1    2    0    0 -0.19701846850E-01 -0.28959302994E-02  0.12345963317E-01  0.23430151341E-01  0.00000000000E+00 0.  1.
     999901    1    3    3    0    0  0.12863270186E+00  0.15765074898E-01 -0.74884781255E-01  0.89263802296E+00  0.88000000000E+00 0. -1.
        -11    1    4    4    0    0 -0.41329649317E-01 -0.29703824137E-02  0.12870015704E-01  0.43391952129E-01  0.51100000000E-03 0.  1.
         11    1    4    4    0    0 -0.67601205695E-01 -0.98987621846E-02  0.49668802234E-01  0.84469873568E-01  0.51100000000E-03 0. -1.
</event>
<event>
 8    1  0.1095698E+005  0.1043930E+01  0.7957747E-01            NaN
         13   -1    0    0    0    0  0.00000000000E+00  0.00000000000E+00  0.74505805969E-08  0.10566000000E+00  0.10566000000E+00 0. -1.
     999900   -1    0    0    0    0 -0.00000000000E+00 -0.00000000000E+00 -0.74505805969E-08  0.93827000000E+00  0.93827000000E+00 0.  1.
     999902    2    1    2    0    0  0.20587734610E-01  0.11637473391E-01  0.41004119092E-02  0.10199279380E+01  0.10196454775E+01 0.  0.
     999903    2    3    3    0    0  0.67038651969E-02 -0.83814951718E-01 -0.95761954609E-01  0.12904274923E+00  0.20292640008E-01 0.  0.
         14    1    1    2    0    0 -0.20587734610E-01 -0.11637473391E-01 -0.41004119092E-02  0.24002062018E-01  0.00000000000E+00 0.  1.
     999901    1    3    3    0    0  0.13883869413E-01  0.95452425109E-01  0.99862366518E-01  0.89088518875E+00  0.88000000000E+00 0. -1.
        -11    1    4    4    0    0  0.11006887830E-01 -0.22930764257E-01 -0.29370552181E-01  0.38856942566E-01  0.51100000000E-03 0.  1.
         11    1    4    4    0    0 -0.43030226333E-02 -0.60884187460E-01 -0.66391402428E-01  0.90185806665E-01  0.51100000000E-03 0. -1.
</event>
<event>
 8    1  0.1095698E+005  0.1043930E+01  0.7957747E-01            NaN
         13   -1    0    0    0    0  0.00000000000E+00  0.00000000000E+00  0.74505805969E-08  0.10566000000E+00  0.10566000000E+00 0.  1.
     999900   -1    0    0    0    0 -0.00000000000E+00 -0.00000000000E+00 -0.74505805969E-08  0.93827000000E+00  0.93827000000E+00 0. -1.
     999902    2    1    2    0    0 -0.21472730047E-01  0.84364994258E-02  0.88935054582E-02  0.10192045658E+01  0.10189046078E+01 0.  0.
     999903    2    3    3    0    0 -0.45667480083E-01 -0.11647474964E+00 -0.26203467830E-01  0.12936188102E+00  0.19899459682E-01 0.  0.
         14    1    1    2    0    0  0.21472730047E-01 -0.84364994258E-02 -0.88935054582E-02  0.24725434224E-01  0.00000000000E+00 0. -1.
     999901    1    3    3    0    0  0.24194750037E-01  0.12491124906E+00  0.35096973289E-01  0.88984268475E+00  0.88000000000E+00 0. -1.
        -11    1    4    4    0    0 -0.24730769446E-02 -0.27165287805E-01 -0.85887173119E-02  0.28602380271E-01  0.51100000000E-03 0. -1.
         11    1    4    4    0    0 -0.43194403139E-01 -0.89309461833E-01 -0.17614750519E-01  0.10075950075E+00  0.51100000000E-03 0.  1.
</event>
<event>
 8    1  0.1095698E+005  0.1043930E+01  0.7957747E-01            NaN
         13   -1    0    0    0    0  0.00000000000E+00  0.00000000000E+00  0.74505805969E-08  0.10566000000E+00  0.10566000000E+00 0.  1.
     999900   -1    0    0    0    0 -0.00000000000E+00 -0.00000000000E+00 -0.74505805969E-08  0.93827000000E+00  0.93827000000E+00 0. -1.
     999902    2    1    2    0    0 -0.18130096150E-01 -0.15237399791E-01 -0.43359568433E-02  0.10198534708E+01  0.10195692338E+01 0.  0.
     999903    2    3    3    0    0 -0.39297363796E-01 -0.12445882226E+00  0.13135333198E-01  0.13267670239E+00  0.19907012354E-01 0.  0.
         14    1    1    2    0    0  0.18130096150E-01  0.15237399791E-01  0.43359568433E-02  0.24076529246E-01  0.00000000000E+00 0.  1.
     999901    1    3    3    0    0  0.21167267645E-01  0.10922142246E+00 -0.17471290041E-01  0.88717676836E+00  0.88000000000E+00 0.  1.
        -11    1    4    4    0    0 -0.18130269671E-01 -0.28841595635E-01  0.44228102041E-02  0.34356465013E-01  0.51100000000E-03 0.  1.
         11    1    4    4    0    0 -0.21167094125E-01 -0.95617226621E-01  0.87125229937E-02  0.98320237379E-01  0.51100000000E-03 0. -1.
</event>
<event>
 8    1  0.1095698E+005  0.1043930E+01  0.7957747E-01            NaN
         13   -1    0    0    0    0  0.00000000000E+00  0.00000000000E+00  0.74505805969E-08  0.10566000000E+00  0.10566000000E+00 0. -1.
     999900   -1    0    0    0    0 -0.00000000000E+00 -0.00000000000E+00 -0.74505805969E-08  0.93827000000E+00  0.93827000000E+00 0.  1.
     999902    2    1    2    0    0 -0.13067244794E-01 -0.11738642123E-02  0.19488943263E-01  0.10204363891E+01  0.10201659054E+01 0.  0.
     999903    2    3    3    0    0  0.10030921258E+00 -0.21835395827E-01 -0.73728934538E-01  0.12804034881E+00  0.20485421576E-01 0.  0.
         14    1    1    2    0    0  0.13067244794E-01  0.11738642123E-02 -0.19488943263E-01  0.23493610902E-01  0.00000000000E+00 0.  1.
     999901    1    3    3    0    0 -0.11337645737E+00  0.20661531615E-01  0.93217877801E-01  0.89239604029E+00  0.88000000000E+00 0.  1.
        -11    1    4    4    0    0  0.29731699151E-01  0.28385103881E-02 -0.22718482401E-01  0.37528944020E-01  0.51100000000E-03 0.  1.
         11    1    4    4    0    0  0.70577513426E-01 -0.24673906215E-01 -0.51010452138E-01  0.90511404793E-01  0.51100000000E-03 0. -1.
</event>
<event>
 8    1  0.1095698E+005  0.1043930E+01  0.7957747E-01            NaN
         13   -1    0    0    0    0  0.00000000000E+00  0.00000000000E+00  0.74505805969E-08  0.10566000000E+00  0.10566000000E+00 0. -1.
     999900   -1    0    0    0    0 -0.00000000000E+00 -0.00000000000E+00 -0.74505805969E-08  0.93827000000E+00  0.93827000000E+00 0.  1.
     999902    2    1    2    0    0 -0.12444903800E-01 -0.16958509423E-01  0.10914222533E-01  0.10202321747E+01  0.10199569125E+01 0.  0.
     999903    2    3    3    0    0  0.12516971105E+00 -0.21414134506E-01 -0.11224812081E-01  0.12925082150E+00  0.21301566457E-01 0.  0.
         14    1    1    2    0    0  0.12444903800E-01  0.16958509423E-01 -0.10914222533E-01  0.23697825342E-01  0.00000000000E+00 0.  1.
     999901    1    3    3    0    0 -0.13761461485E+00  0.44556250837E-02  0.22139034615E-01  0.89098135315E+00  0.88000000000E+00 0. -1.
        -11    1    4    4    0    0  0.41082629577E-01 -0.14230062943E-02 -0.11961921256E-01  0.42815372018E-01  0.51100000000E-03 0.  1.
         11    1    4    4    0    0  0.84087081468E-01 -0.19991128212E-01  0.73710917506E-03  0.86435449487E-01  0.51100000000E-03 0. -1.
</event>
<event>
 8    1  0.1095698E+005  0.1043930E+01  0.7957747E-01            NaN
         13   -1    0    0    0    0  0.00000000000E+00  0.00000000000E+00  0.74505805969E-08  0.10566000000E+00  0.10566000000E+00 0. -1.
     999900   -1    0    0    0    0 -0.00000000000E+00 -0.00000000000E+00 -0.74505805969E-08  0.93827000000E+00  0.93827000000E+00 0. -1.
     999902    2    1    2    0    0  0.50346755035E-02  0.11603548931E-02  0.23258386251E-01  0.10201046582E+01  0.10198263905E+01 0.  0.
     999903    2    3    3    0    0 -0.11696045575E+00 -0.46902569110E-01 -0.23664112553E-01  0.12915315693E+00  0.15522516740E-01 0.  0.
         14    1    1    2    0    0 -0.50346755035E-02 -0.11603548931E-02 -0.23258386251E-01  0.23825341801E-01  0.00000000000E+00 0.  1.
     999901    1    3    3    0    0  0.12199513125E+00  0.48062924003E-01  0.46922498805E-01  0.89095150126E+00  0.88000000000E+00 0.  1.
        -11    1    4    4    0    0 -0.10002606583E+00 -0.41827514794E-01 -0.14980899748E-01  0.10945064330E+00  0.51100000000E-03 0.  1.
         11    1    4    4    0    0 -0.16934389913E-01 -0.50750543157E-02 -0.86832128055E-02  0.19702513638E-01  0.51100000000E-03 0. -1.
</event>
<event>
 8    1  0.1095698E+005  0.1043930E+01  0.7957747E-01            NaN
         13   -1    0    0    0    0  0.00000000000E+00  0.00000000000E+00  0.74505805969E-08  0.10566000000E+00  0.10566000000E+00 0.  1.
     999900   -1    0    0    0    0 -0.00000000000E+00 -0.00000000000E+00 -0.74505805969E-08  0.93827000000E+00  0.93827000000E+00 0. -1.
     999902    2    1    2    0    0 -0.15538425714E-01  0.91495630564E-02  0.15604613275E-01  0.10200833832E+01  0.10198046124E+01 0.  0.
     999903    2    3    3    0    0  0.97617101411E-01  0.40588083843E-01  0.73879354850E-01  0.13037078948E+00  0.19023475959E-01 0.  0.
         14    1    1    2    0    0  0.15538425714E-01 -0.91495630564E-02 -0.15604613275E-01  0.23846616809E-01  0.00000000000E+00 0. -1.
     999901    1    3    3    0    0 -0.11315552713E+00 -0.31438520787E-01 -0.58274741575E-01  0.88971259371E+00  0.88000000000E+00 0. -1.
        -11    1    4    4    0    0  0.36325601993E-01  0.10661401582E-01  0.36502808881E-01  0.52592119382E-01  0.51100000000E-03 0.  1.
         11    1    4    4    0    0  0.61291499418E-01  0.29926682261E-01  0.37376545970E-01  0.77778670095E-01  0.51100000000E-03 0. -1.
</event>
<event>
 8    1  0.1095698E+005  0.1043930E+01  0.7957747E-01            NaN
         13   -1    0    0    0    0  0.00000000000E+00  0.00000000000E+00  0.74505805969E-08  0.10566000000E+00  0.10566000000E+00 0.  1.
     999900   -1    0    0    0    0 -0.00000000000E+00 -0.00000000000E+00 -0.74505805969E-08  0.93827000000E+00  0.93827000000E+00 0.  1.
     999902    2    1    2    0    0 -0.11514210113E-01  0.14323485671E-01  0.14873657055E-01  0.10202875604E+01  0.10200135984E+01 0.  0.
     999903    2    3    3    0    0  0.93432043554E-01  0.40125129228E-01 -0.76755012674E-01  0.12895414686E+00  0.19956634570E-01 0.  0.
         14    1    1    2    0    0  0.11514210113E-01 -0.14323485671E-01 -0.14873657055E-01  0.23642439605E-01  0.00000000000E+00 0. -1.
     999901    1    3    3    0    0 -0.10494625367E+00 -0.25801643557E-01  0.91628669729E-01  0.89133341354E+00  0.88000000000E+00 0. -1.
        -11    1    4    4    0    0  0.78446111286E-01  0.35752448971E-01 -0.55324734126E-01  0.10243591807E+00  0.51100000000E-03 0.  1.
         11    1    4    4    0    0  0.14985932268E-01  0.43726802565E-02 -0.21430278548E-01  0.26518228791E-01  0.51100000000E-03 0. -1.
</event>
<event>
 8    1  0.1095698E+005  0.1043930E+01  0.7957747E-01            NaN
         13   -1    0    0    0    0  0.00000000000E+00  0.00000000000E+00  0.74505805969E-08  0.10566000000E+00  0.10566000000E+00 0.  1.
     999900   -1    0    0    0    0 -0.00000000000E+00 -0.00000000000E+00 -0.74505805969E-08  0.93827000000E+00  0.93827000000E+00 0. -1.
     999902    2    1    2    0    0 -0.16427229074E-01 -0.18956365289E-01  0.57348178782E-02  0.10181989725E+01  0.10178737946E+01 0.  0.
     999903    2    3    3    0    0 -0.28500029067E-01  0.12199222424E+00 -0.19879583981E-04  0.12688232061E+00  0.20118858277E-01 0.  0.
         14    1    1    2    0    0  0.16427229074E-01  0.18956365289E-01 -0.57348178782E-02  0.25731027499E-01  0.00000000000E+00 0.  1.
     999901    1    3    3    0    0  0.12072799992E-01 -0.14094858953E+00  0.57546974622E-02  0.89131665189E+00  0.88000000000E+00 0.  1.
        -11    1    4    4    0    0 -0.17735269824E-01  0.95569683719E-01  0.71318146001E-02  0.97463983822E-01  0.51100000000E-03 0. -1.
         11    1    4    4    0    0 -0.10764759243E-01  0.26422540517E-01 -0.71516941841E-02  0.29418336792E-01  0.51100000000E-03 0.  1.
</event>
<event>
 8    1  0.1095698E+005  0.1043930E+01  0.7957747E-01            NaN
         13   -1    0    0    0    0  0.00000000000E+00  0.00000000000E+00  0.74505805969E-08  0.10566000000E+00  0.10566000000E+00 0.  1.
     999900   -1    0    0    0    0 -0.00000000000E+00 -0.00000000000E+00 -0.74505805969E-08  0.93827000000E+00  0.93827000000E+00 0. -1.
     999902    2    1    2    0    0 -0.18209723112E-01  0.12633630199E-01 -0.55069884292E-02  0.10210929785E+01  0.10208375685E+01 0.  0.
     999903    2    3    3    0    0  0.61444243684E-01  0.84202657323E-02  0.11235151385E+00  0.12965978787E+00  0.18506808700E-01 0.  0.
         14    1    1    2    0    0  0.18209723112E-01 -0.12633630199E-01  0.55069884292E-02  0.22837021465E-01  0.00000000000E+00 0.  1.
     999901    1    3    3    0    0 -0.79653966796E-01  0.42133644663E-02 -0.11785850228E+00  0.89143319067E+00  0.88000000000E+00 0. -1.
        -11    1    4    4    0    0  0.47877597644E-01  0.73851695802E-02  0.69665592027E-01  0.84854940453E-01  0.51100000000E-03 0. -1.
         11    1    4    4    0    0  0.13566646041E-01  0.10350961521E-02  0.42685921823E-01  0.44804847413E-01  0.51100000000E-03 0.  1.
</event>
<event>
 8    1  0.1095698E+005  0.1043930E+01  0.7957747E-01            NaN
         13   -1    0    0    0    0  0.00000000000E+00  0.00000000000E+00  0.74505805969E-08  0.10566000000E+00  0.10566000000E+00 0.  1.
     999900   -1    0    0    0    0 -0.00000000000E+00 -0.00000000000E+00 -0.74505805969E-08  0.93827000000E+00  0.93827000000E+00 0. -1.
     999902    2    1    2    0    0 -0.62520845368E-02 -0.19564289820E-01 -0.11491626260E-01  0.10203947611E+01  0.10201233067E+01 0.  0.
     999903    2    3    3    0    0 -0.40407482772E-01 -0.70799161080E-01 -0.10432885138E+00  0.13337145043E+00  0.16067006132E-01 0.  0.
         14    1    1    2    0    0  0.62520845368E-02  0.19564289820E-01  0.11491626260E-01  0.23535238926E-01  0.00000000000E+00 0.  1.
     999901    1    3    3    0    0  0.34155398235E-01  0.51234871260E-01  0.92837225117E-01  0.88702331065E+00  0.88000000000E+00 0.  1.
        -11    1    4    4    0    0 -0.18017486423E-01 -0.16938529721E-01 -0.32445423582E-01  0.40798409755E-01  0.51100000000E-03 0.  1.
         11    1    4    4    0    0 -0.22389996348E-01 -0.53860631359E-01 -0.71883427795E-01  0.92573040673E-01  0.51100000000E-03 0. -1.
</event>
<event>
 8    1  0.1095698E+005  0.1043930E+01  0.7957747E-01            NaN
         13   -1    0    0    0    0  0.00000000000E+00  0.00000000000E+00  0.74505805969E-08  0.10566000000E+00  0.10566000000E+00 0.  1.
     999900   -1    0    0    0    0 -0.00000000000E+00 -0.00000000000E+00 -0.74505805969E-08  0.93827000000E+00  0.93827000000E+00 0. -1.
     999902    2    1    2    0    0 -0.96339073475E-02 -0.74114855934E-02  0.20334417227E-01  0.10202396895E+01  0.10199646039E+01 0.  0.
     999903    2    3    3    0    0 -0.59465693908E-01  0.11391312534E+00  0.11142572422E-01  0.13047154091E+00  0.19654444564E-01 0.  0.
         14    1    1    2    0    0  0.96339073475E-02  0.74114855934E-02 -0.20334417227E-01  0.23690310539E-01  0.00000000000E+00 0. -1.
     999901    1    3    3    0    0  0.49831786560E-01 -0.12132461093E+00  0.91918448042E-02  0.88976814855E+00  0.88000000000E+00 0.  1.
        -11    1    4    4    0    0 -0.31843790515E-01  0.43547717601E-01 -0.69831675359E-03  0.53955347000E-01  0.51100000000E-03 0. -1.
         11    1    4    4    0    0 -0.27621903393E-01  0.70365407735E-01  0.11840889176E-01  0.76516193908E-01  0.51100000000E-03 0.  1.
</event>
<event>
 8    1  0.1095698E+005  0.1043930E+01  0.7957747E-01            NaN
         13   -1    0    0    0    0  0.00000000000E+00  0.00000000000E+00  0.74505805969E-08  0.10566000000E+00  0.10566000000E+00 0. -1.
     999900   -1    0    0    0    0 -0.00000000000E+00 -0.00000000000E+00 -0.74505805969E-08  0.93827000000E+00  0.93827000000E+00 0.  1.
     999902    2    1    2    0    0  0.17473861526E-01 -0.14328501295E-01  0.44710232542E-02  0.10208945526E+01  0.10206346338E+01 0.  0.
     999903    2    3    3    0    0 -0.95700200645E-02 -0.51753588096E-01 -0.11852670132E+00  0.13114152573E+00  0.19480802877E-01 0.  0.
         14    1    1    2    0    0 -0.17473861526E-01  0.14328501295E-01 -0.44710232542E-02  0.23035447357E-01  0.00000000000E+00 0.  1.
     999901    1    3    3    0    0  0.27043881591E-01  0.37425086801E-01  0.12299772457E+00  0.88975302691E+00  0.88000000000E+00 0. -1.
        -11    1    4    4    0    0 -0.12976203534E-01 -0.27346969627E-01 -0.51666466901E-01  0.59882581181E-01  0.51100000000E-03 0.  1.
         11    1    4    4    0    0  0.34061834698E-02 -0.24406618469E-01 -0.66860234415E-01  0.71258944547E-01  0.51100000000E-03 0. -1.
</event>
<event>
 8    1  0.1095698E+005  0.1043930E+01  0.7957747E-01            NaN
         13   -1    0    0    0    0  0.00000000000E+00  0.00000000000E+00  0.74505805969E-08  0.10566000000E+00  0.10566000000E+00 0.  1.
     999900   -1    0    0    0    0 -0.00000000000E+00 -0.00000000000E+00 -0.74505805969E-08  0.93827000000E+00  0.93827000000E+00 0.  1.
     999902    2    1    2    0    0  0.13393294532E-01  0.16619877033E-01  0.75585000132E-02  0.10212864231E+01  0.10210353699E+01 0.  0.
     999903    2    3    3    0    0  0.13054872349E+00  0.74529283700E-02  0.17885927487E-01  0.13341476391E+00  0.19521205919E-01 0.  0.
         14    1    1    2    0    0 -0.13393294532E-01 -0.16619877033E-01 -0.75585000132E-02  0.22643576870E-01  0.00000000000E+00 0. -1.
     999901    1    3    3    0    0 -0.11715542896E+00  0.91669486629E-02 -0.10327427474E-01  0.88787165922E+00  0.88000000000E+00 0.  1.
        -11    1    4    4    0    0  0.85174015522E-01 -0.18571302075E-02  0.50446507904E-02  0.85345014356E-01  0.51100000000E-03 0.  1.
         11    1    4    4    0    0  0.45374707972E-01  0.93100585776E-02  0.12841276697E-01  0.48069749557E-01  0.51100000000E-03 0. -1.
</event>
<event>
 8    1  0.1095698E+005  0.1043930E+01  0.7957747E-01            NaN
         13   -1    0    0    0    0  0.00000000000E+00  0.00000000000E+00  0.74505805969E-08  0.10566000000E+00  0.10566000000E+00 0. -1.
     999900   -1    0    0    0    0 -0.00000000000E+00 -0.00000000000E+00 -0.74505805969E-08  0.93827000000E+00  0.93827000000E+00 0.  1.
     999902    2    1    2    0    0 -0.19092596559E-01 -0.11286960567E-01 -0.20607684047E-02  0.10216551377E+01  0.10214122826E+01 0.  0.
     999903    2    3    3    0    0  0.94790177606E-01 -0.58894023080E-01  0.64813608134E-01  0.13052781750E+00  0.19570989137E-01 0.  0.
         14    1    1    2    0    0  0.19092596559E-01  0.11286960567E-01  0.20607684047E-02  0.22274862258E-01  0.00000000000E+00 0. -1.
     999901    1    3    3    0    0 -0.11388277416E+00  0.47607062513E-01 -0.66874376538E-01  0.89112732025E+00  0.88000000000E+00 0.  1.
        -11    1    4    4    0    0  0.63925564629E-01 -0.32355115870E-01  0.33106547464E-01  0.78928042811E-01  0.51100000000E-03 0.  1.
         11    1    4    4    0    0  0.30864612976E-01 -0.26538907210E-01  0.31707060670E-01  0.51599774684E-01  0.51100000000E-03 0. -1.
</event>
<event>
 8    1  0.1095698E+005  0.1043930E+01  0.7957747E-01            NaN
         13   -1    0    0    0    0  0.00000000000E+00  0.00000000000E+00  0.74505805969E-08  0.10566000000E+00  0.10566000000E+00 0. -1.
     999900   -1    0    0    0    0 -0.00000000000E+00 -0.00000000000E+00 -0.74505805969E-08  0.93827000000E+00  0.93827000000E+00 0. -1.
     999902    2    1    2    0    0 -0.21338175672E-01  0.97520414480E-02  0.39445628246E-02  0.10201396736E+01  0.10198622329E+01 0.  0.
     999903    2    3    3    0    0 -0.52935152990E-01  0.11989832105E+00 -0.61338670589E-02  0.13265325308E+00  0.19532624391E-01 0.  0.
         14    1    1    2    0    0  0.21338175672E-01 -0.97520414480E-02 -0.39445628246E-02  0.23790326380E-01  0.00000000000E+00 0.  1.
     999901    1    3    3    0    0  0.31596977318E-01 -0.11014627960E+00  0.10078429883E-01  0.88748642054E+00  0.88000000000E+00 0.  1.
        -11    1    4    4    0    0 -0.11086260165E-01  0.47910811113E-01 -0.30875086811E-03  0.49180356181E-01  0.51100000000E-03 0.  1.
         11    1    4    4    0    0 -0.41848892824E-01  0.71987509939E-01 -0.58251161907E-02  0.83472896903E-01  0.51100000000E-03 0. -1.
</event>
<event>
 8    1  0.1095698E+005  0.1043930E+01  0.7957747E-01            NaN
         13   -1    0    0    0    0  0.00000000000E+00  0.00000000000E+00  0.74505805969E-08  0.10566000000E+00  0.10566000000E+00 0. -1.
     999900   -1    0    0    0    0 -0.00000000000E+00 -0.00000000000E+00 -0.74505805969E-08  0.93827000000E+00  0.93827000000E+00 0.  1.
     999902    2    1    2    0    0 -0.17512883185E-01 -0.79184774235E-02  0.84278238142E-02  0.10229435383E+01  0.10227282390E+01 0.  0.
     999903    2    3    3    0    0 -0.42250841010E-02 -0.12031314913E+00 -0.54190547712E-01  0.13348854317E+00  0.19735007153E-01 0.  0.
         14    1    1    2    0    0  0.17512883185E-01  0.79184774235E-02 -0.84278238142E-02  0.20986461741E-01  0.00000000000E+00 0.  1.
     999901    1    3    3    0    0 -0.13287799084E-01  0.11239467171E+00  0.62618371527E-01  0.88945499509E+00  0.88000000000E+00 0. -1.
        -11    1    4    4    0    0 -0.75302000218E-02 -0.16814207579E-01 -0.88248090223E-02  0.20434281592E-01  0.51100000000E-03 0. -1.
         11    1    4    4    0    0  0.33051159208E-02 -0.10349894155E+00 -0.45365738690E-01  0.11305426158E+00  0.51100000000E-03 0.  1.
</event>
<event>
 8    1  0.1095698E+005  0.1043930E+01  0.7957747E-01            NaN
         13   -1    0    0    0    0  0.00000000000E+00  0.00000000000E+00  0.74505805969E-08  0.10566000000E+00  0.10566000000E+00 0. -1.
     999900   -1    0    0    0    0 -0.00000000000E+00 -0.00000000000E+00 -0.74505805969E-08  0.93827000000E+00  0.93827000000E+00 0. -1.
     999902    2    1    2    0    0  0.21044379296E-01  0.11212394881E-01 -0.26054007213E-02  0.10199430908E+01  0.10196609911E+01 0.  0.
     999903    2    3    3    0    0  0.37320945755E-01  0.94710944193E-01 -0.81771119536E-01  0.13230344244E+00  0.21322967622E-01 0.  0.
         14    1    1    2    0    0 -0.21044379296E-01 -0.11212394881E-01  0.26054007213E-02  0.23986909177E-01  0.00000000000E+00 0. -1.
     999901    1    3    3    0    0 -0.16276566458E-01 -0.83498549312E-01  0.79165718815E-01  0.88763964839E+00  0.88000000000E+00 0. -1.
        -11    1    4    4    0    0  0.15625872351E-01  0.21710242524E-01 -0.30099413843E-01  0.40270812655E-01  0.51100000000E-03 0. -1.
         11    1    4    4    0    0  0.21695073404E-01  0.73000701669E-01 -0.51671705693E-01  0.92032629781E-01  0.51100000000E-03 0.  1.
</event>
<event>
 8    1  0.1183796E+005  0.1043930E+01  0.7957747E-01            NaN
         13   -1    0    0    0    0  0.00000000000E+00  0.00000000000E+00  0.74505805969E-08  0.10566000000E+00  0.10566000000E+00 0.  1.
     999900   -1    0    0    0    0 -0.00000000000E+00 -0.00000000000E+00 -0.74505805969E-08  0.93827000000E+00  0.93827000000E+00 0. -1.
     999902    2    1    2    0    0 -0.15291362167E-01  0.17808728994E-01 -0.55720593372E-02  0.10198048175E+01  0.10195194169E+01 0.  0.
     999903    2    3    3    0    0  0.57157917806E-01 -0.49415090738E-01 -0.10229622548E+00  0.12900545489E+00  0.21656659106E-01 0.  0.
         14    1    1    2    0    0  0.15291362167E-01 -0.17808728994E-01  0.55720593372E-02  0.24125182498E-01  0.00000000000E+00 0.  1.
     999901    1    3    3    0    0 -0.72449279973E-01  0.67223819731E-01  0.96724166146E-01  0.89079936261E+00  0.88000000000E+00 0.  1.
        -11    1    4    4    0    0  0.18857719087E-01 -0.72015792550E-02 -0.38354103726E-01  0.43344834832E-01  0.51100000000E-03 0.  1.
         11    1    4    4    0    0  0.38300198719E-01 -0.42213511483E-01 -0.63942121757E-01  0.85660620062E-01  0.51100000000E-03 0. -1.
</event>
<event>
 8    1  0.1178412E+005  0.1043930E+01  0.7957747E-01            NaN
         13   -1    0    0    0    0  0.00000000000E+00  0.00000000000E+00  0.74505805969E-08  0.10566000000E+00  0.10566000000E+00 0.  1.
     999900   -1    0    0    0    0 -0.00000000000E+00 -0.00000000000E+00 -0.74505805969E-08  0.93827000000E+00  0.93827000000E+00 0.  1.
     999902    2    1    2    0    0 -0.17353697367E-01  0.22799865987E-01 -0.73700798897E-02  0.10143444836E+01  0.10139129295E+01 0.  0.
     999903    2    3    3    0    0  0.44391576073E-01  0.89799331549E-01 -0.75084112104E-01  0.12705276309E+00  0.21685219523E-01 0.  0.
         14    1    1    2    0    0  0.17353697367E-01 -0.22799865987E-01  0.73700798897E-02  0.29585516370E-01  0.00000000000E+00 0.  1.
     999901    1    3    3    0    0 -0.61745273440E-01 -0.66999465562E-01  0.67714032214E-01  0.88729172054E+00  0.88000000000E+00 0. -1.
        -11    1    4    4    0    0  0.10726097061E-01  0.40632956912E-01 -0.23003609611E-01  0.47911517631E-01  0.51100000000E-03 0. -1.
         11    1    4    4    0    0  0.33665479012E-01  0.49166374637E-01 -0.52080502493E-01  0.79141245460E-01  0.51100000000E-03 0.  1.
</event>
<event>
 8    1  0.1095698E+005  0.1043930E+01  0.7957747E-01            NaN
         13   -1    0    0    0    0  0.00000000000E+00  0.00000000000E+00  0.74505805969E-08  0.10566000000E+00  0.10566000000E+00 0. -1.
     999900   -1    0    0    0    0 -0.00000000000E+00 -0.00000000000E+00 -0.74505805969E-08  0.93827000000E+00  0.93827000000E+00 0.  1.
     999902    2    1    2    0    0 -0.78244073978E-02  0.12260189170E-01 -0.18809105232E-01  0.10201536246E+01  0.10198765129E+01 0.  0.
     999903    2    3    3    0    0 -0.38665449527E-01  0.68060067949E-01 -0.10633024250E+00  0.13351686363E+00  0.19835386772E-01 0.  0.
         14    1    1    2    0    0  0.78244073978E-02 -0.12260189170E-01  0.18809105232E-01  0.23776375444E-01  0.00000000000E+00 0. -1.
     999901    1    3    3    0    0  0.30841042129E-01 -0.55799878779E-01  0.87521137266E-01  0.88663676092E+00  0.88000000000E+00 0. -1.
        -11    1    4    4    0    0 -0.16983234740E-01  0.15488551456E-01 -0.40077420273E-01  0.46203746873E-01  0.51100000000E-03 0.  1.
         11    1    4    4    0    0 -0.21682214787E-01  0.52571516493E-01 -0.66252822225E-01  0.87313116760E-01  0.51100000000E-03 0. -1.
</event>
<event>
 8    1  0.1095698E+005  0.1043930E+01  0.7957747E-01            NaN
         13   -1    0    0    0    0  0.00000000000E+00  0.00000000000E+00  0.74505805969E-08  0.10566000000E+00  0.10566000000E+00 0.  1.
     999900   -1    0    0    0    0 -0.00000000000E+00 -0.00000000000E+00 -0.74505805969E-08  0.93827000000E+00  0.93827000000E+00 0.  1.
     999902    2    1    2    0    0 -0.80980701099E-02  0.64131971640E-02  0.20953296379E-01  0.10205687400E+01  0.10203013303E+01 0.  0.
     999903    2    3    3    0    0  0.59283412030E-01  0.34561114917E-01 -0.10653843980E+00  0.12838786590E+00  0.20591535810E-01 0.  0.
         14    1    1    2    0    0  0.80980701099E-02 -0.64131971640E-02 -0.20953296379E-01  0.23361259952E-01  0.00000000000E+00 0. -1.
     999901    1    3    3    0    0 -0.67381482139E-01 -0.28147917753E-01  0.12749173618E+00  0.89218087415E+00  0.88000000000E+00 0. -1.
        -11    1    4    4    0    0  0.28853940471E-01  0.26580785940E-01 -0.48625608792E-01  0.62480389030E-01  0.51100000000E-03 0.  1.
         11    1    4    4    0    0  0.30429471558E-01  0.79803289768E-02 -0.57912831012E-01  0.65907476865E-01  0.51100000000E-03 0. -1.
</event>
<event>
 8    1  0.1095698E+005  0.1043930E+01  0.7957747E-01            NaN
         13   -1    0    0    0    0  0.00000000000E+00  0.00000000000E+00  0.74505805969E-08  0.10566000000E+00  0.10566000000E+00 0.  1.
     999900   -1    0    0    0    0 -0.00000000000E+00 -0.00000000000E+00 -0.74505805969E-08  0.93827000000E+00  0.93827000000E+00 0. -1.
     999902    2    1    2    0    0  0.19434431073E-01 -0.52128381685E-02 -0.70155253491E-02  0.10226206502E+01  0.10223986042E+01 0.  0.
     999903    2    3    3    0    0  0.79819131127E-01  0.79890027260E-01  0.67858136443E-01  0.13329794447E+00  0.20251053506E-01 0.  0.
         14    1    1    2    0    0 -0.19434431073E-01  0.52128381685E-02  0.70155253491E-02  0.21309349799E-01  0.00000000000E+00 0. -1.
     999901    1    3    3    0    0 -0.60384700054E-01 -0.85102865428E-01 -0.74873661792E-01  0.88932270573E+00  0.88000000000E+00 0. -1.
        -11    1    4    4    0    0  0.54948659931E-01  0.67047972660E-01  0.49615185704E-01  0.99883500337E-01  0.51100000000E-03 0. -1.
         11    1    4    4    0    0  0.24870471197E-01  0.12842054600E-01  0.18242950738E-01  0.33414444130E-01  0.51100000000E-03 0.  1.
</event>
<event>
 8    1  0.1095698E+005  0.1043930E+01  0.7957747E-01            NaN
         13   -1    0    0    0    0  0.00000000000E+00  0.00000000000E+00  0.74505805969E-08  0.10566000000E+00  0.10566000000E+00 0.  1.
     999900   -1    0    0    0    0 -0.00000000000E+00 -0.00000000000E+00 -0.74505805969E-08  0.93827000000E+00  0.93827000000E+00 0.  1.
     999902    2    1    2    0    0 -0.89198624043E-02 -0.93338199149E-03 -0.91888016295E-02  0.10310898589E+01  0.10310099068E+01 0.  0.
     999903    2    3    3    0    0  0.47274380499E-01 -0.12053056987E+00  0.47675527631E-01  0.13940895624E+00  0.19985390141E-01 0.  0.
         14    1    1    2    0    0  0.89198624043E-02  0.93338199149E-03  0.91888016295E-02  0.12840141068E-01  0.00000000000E+00 0.  1.
     999901    1    3    3    0    0 -0.56194242903E-01  0.11959718788E+00 -0.56864329260E-01  0.89168090269E+00  0.88000000000E+00 0. -1.
        -11    1    4    4    0    0  0.44067684363E-01 -0.89250731510E-01  0.37185405193E-01  0.10625756143E+00  0.51100000000E-03 0.  1.
         11    1    4    4    0    0  0.32066961360E-02 -0.31279838364E-01  0.10490122438E-01  0.33151394812E-01  0.51100000000E-03 0. -1.
</event>
<event>
 8    1  0.1095698E+005  0.1043930E+01  0.7957747E-01            NaN
         13   -1    0    0    0    0  0.00000000000E+00  0.00000000000E+00  0.74505805969E-08  0.10566000000E+00  0.10566000000E+00 0.  1.
     999900   -1    0    0    0    0 -0.00000000000E+00 -0.00000000000E+00 -0.74505805969E-08  0.93827000000E+00  0.93827000000E+00 0.  1.
     999902    2    1    2    0    0  0.95961657080E-03  0.15331218174E-01  0.17545288800E-01  0.10206103886E+01  0.10203439426E+01 0.  0.
     999903    2    3    3    0    0 -0.38109604914E-02  0.11903162487E+00 -0.51664802966E-01  0.13180975321E+00  0.22836550442E-01 0.  0.
         14    1    1    2    0    0 -0.95961657080E-03 -0.15331218174E-01 -0.17545288800E-01  0.23319611355E-01  0.00000000000E+00 0. -1.
     999901    1    3    3    0    0  0.47705770622E-02 -0.10370040669E+00  0.69210091766E-01  0.88880063544E+00  0.88000000000E+00 0.  1.
        -11    1    4    4    0    0  0.86559743810E-02  0.65864598984E-01 -0.24415669954E-01  0.70777520104E-01  0.51100000000E-03 0.  1.
         11    1    4    4    0    0 -0.12466934872E-01  0.53167025885E-01 -0.27249133012E-01  0.61032233103E-01  0.51100000000E-03 0. -1.
</event>
<event>
 8    1  0.1095698E+005  0.1043930E+01  0.7957747E-01            NaN
         13   -1    0    0    0    0  0.00000000000E+00  0.00000000000E+00  0.74505805969E-08  0.10566000000E+00  0.10566000000E+00 0.  1.
     999900   -1    0    0    0    0 -0.00000000000E+00 -0.00000000000E+00 -0.74505805969E-08  0.93827000000E+00  0.93827000000E+00 0.  1.
     999902    2    1    2    0    0 -0.11277579729E-02  0.20021217405E-01 -0.96462925568E-02  0.10216775407E+01  0.10214351792E+01 0.  0.
     999903    2    3    3    0    0  0.11402773875E+00  0.12346773974E-01  0.61080271712E-01  0.13132820904E+00  0.19013965011E-01 0.  0.
         14    1    1    2    0    0  0.11277579729E-02 -0.20021217405E-01  0.96462925568E-02  0.22252459291E-01  0.00000000000E+00 0. -1.
     999901    1    3    3    0    0 -0.11515549672E+00  0.76744434309E-02 -0.70726564269E-01  0.89034933167E+00  0.88000000000E+00 0.  1.
        -11    1    4    4    0    0  0.46082780420E-01  0.47510435295E-02  0.35353273222E-01  0.58277869851E-01  0.51100000000E-03 0. -1.
         11    1    4    4    0    0  0.67944958330E-01  0.75957304446E-02  0.25726998490E-01  0.73050339190E-01  0.51100000000E-03 0.  1.
</event>
<event>
 7    1  0.1095698E+005  0.1043930E+01  0.7957747E-01            NaN
         13   -1    0    0    0    0  0.00000000000E+00  0.00000000000E+00  0.74505805969E-08  0.10566000000E+00  0.10566000000E+00 0. -1.
     999900   -1    0    0    0    0 -0.00000000000E+00 -0.00000000000E+00 -0.74505805969E-08  0.93827000000E+00  0.93827000000E+00 0. -1.
     999903    2    1    2    0    0 -0.65857075526E-01 -0.62516431786E-01  0.17299272640E-01  0.94621722961E-01  0.20212545169E-01 0.  0.
         14    1    1    2    0    0 -0.22268830255E-01 -0.26888479197E-01  0.46459828140E-01  0.58115460467E-01  0.00000000000E+00 0. -1.
     999901    1    1    2    0    0  0.88125905780E-01  0.89404910983E-01 -0.63759100780E-01  0.89119281657E+00  0.88000000000E+00 0. -1.
        -11    1    3    3    0    0 -0.16082786357E-01 -0.27704915281E-01  0.27155842398E-02  0.32153598033E-01  0.51100000000E-03 0.  1.
         11    1    3    3    0    0 -0.49774289169E-01 -0.34811516505E-01  0.14583688400E-01  0.62468124928E-01  0.51100000000E-03 0. -1.
</event>
<event>
 8    1  0.1095698E+005  0.1043930E+01  0.7957747E-01            NaN
         13   -1    0    0    0    0  0.00000000000E+00  0.00000000000E+00  0.74505805969E-08  0.10566000000E+00  0.10566000000E+00 0.  1.
     999900   -1    0    0    0    0 -0.00000000000E+00 -0.00000000000E+00 -0.74505805969E-08  0.93827000000E+00  0.93827000000E+00 0.  1.
     999902    2    1    2    0    0  0.13089533225E-01  0.10133195975E-01 -0.17516028945E-01  0.10198296097E+01  0.10195448024E+01 0.  0.
     999903    2    3    3    0    0  0.14668066371E-01  0.11597831845E+00  0.54152264046E-01  0.13059284378E+00  0.21351829484E-01 0.  0.
         14    1    1    2    0    0 -0.13089533225E-01 -0.10133195975E-01  0.17516028945E-01  0.24100390261E-01  0.00000000000E+00 0. -1.
     999901    1    3    3    0    0 -0.15785331467E-02 -0.10584512248E+00 -0.71668292991E-01  0.88923676596E+00  0.88000000000E+00 0.  1.
        -11    1    4    4    0    0  0.23888993679E-02  0.58650624752E-01  0.16735146561E-01  0.61040387248E-01  0.51100000000E-03 0.  1.
         11    1    4    4    0    0  0.12279167003E-01  0.57327693701E-01  0.37417117485E-01  0.69552456529E-01  0.51100000000E-03 0. -1.
</event>
<event>
 8    1  0.1095698E+005  0.1043930E+01  0.7957747E-01            NaN
         13   -1    0    0    0    0  0.00000000000E+00  0.00000000000E+00  0.74505805969E-08  0.10566000000E+00  0.10566000000E+00 0. -1.
     999900   -1    0    0    0    0 -0.00000000000E+00 -0.00000000000E+00 -0.74505805969E-08  0.93827000000E+00  0.93827000000E+00 0. -1.
     999902    2    1    2    0    0 -0.14128570937E-01 -0.13483271266E-01  0.14748994142E-01  0.10194565869E+01  0.10191627861E+01 0.  0.
     999903    2    3    3    0    0  0.69153152571E-02  0.19920764149E-01  0.12814076506E+00  0.13130323953E+00  0.19386247953E-01 0.  0.
         14    1    1    2    0    0  0.14128570937E-01  0.13483271266E-01 -0.14748994142E-01  0.24473413104E-01  0.00000000000E+00 0.  1.
     999901    1    3    3    0    0 -0.21043886194E-01 -0.33404035416E-01 -0.11339177092E+00  0.88815334737E+00  0.88000000000E+00 0. -1.
        -11    1    4    4    0    0 -0.49208867269E-04  0.49093412091E-03  0.62236253531E-01  0.62240306975E-01  0.51100000000E-03 0.  1.
         11    1    4    4    0    0  0.69645241243E-02  0.19429830029E-01  0.65904511534E-01  0.69062932552E-01  0.51100000000E-03 0. -1.
</event>
<event>
 8    1  0.1095698E+005  0.1043930E+01  0.7957747E-01            NaN
         13   -1    0    0    0    0  0.00000000000E+00  0.00000000000E+00  0.74505805969E-08  0.10566000000E+00  0.10566000000E+00 0.  1.
     999900   -1    0    0    0    0 -0.00000000000E+00 -0.00000000000E+00 -0.74505805969E-08  0.93827000000E+00  0.93827000000E+00 0.  1.
     999902    2    1    2    0    0 -0.20471441892E-01  0.14106654421E-01  0.20308854483E-02  0.10189860202E+01  0.10186806699E+01 0.  0.
     999903    2    3    3    0    0 -0.74252561660E-01 -0.10543907014E+00  0.57250743842E-02  0.12926851665E+00  0.68361169287E-02 0.  0.
         14    1    1    2    0    0  0.20471441892E-01 -0.14106654421E-01 -0.20308854483E-02  0.24943979791E-01  0.00000000000E+00 0.  1.
     999901    1    3    3    0    0  0.53781119768E-01  0.11954572456E+00 -0.36941889359E-02  0.88971750356E+00  0.88000000000E+00 0.  1.
        -11    1    4    4    0    0 -0.31870121693E-01 -0.47616377220E-01  0.56175992323E-02  0.57574669590E-01  0.51100000000E-03 0. -1.
         11    1    4    4    0    0 -0.42382439967E-01 -0.57822692924E-01  0.10747515184E-03  0.71693847061E-01  0.51100000000E-03 0.  1.
</event>
<event>
 8    1  0.1095698E+005  0.1043930E+01  0.7957747E-01            NaN
         13   -1    0    0    0    0  0.00000000000E+00  0.00000000000E+00  0.74505805969E-08  0.10566000000E+00  0.10566000000E+00 0. -1.
     999900   -1    0    0    0    0 -0.00000000000E+00 -0.00000000000E+00 -0.74505805969E-08  0.93827000000E+00  0.93827000000E+00 0.  1.
     999902    2    1    2    0    0 -0.28378954654E-02  0.21963216059E-01 -0.10514027985E-01  0.10194150802E+01  0.10191202698E+01 0.  0.
     999903    2    3    3    0    0  0.25642433403E-01 -0.11587651495E+00  0.40062236665E-01  0.12679596815E+00  0.19680793273E-01 0.  0.
         14    1    1    2    0    0  0.28378954654E-02 -0.21963216059E-01  0.10514027985E-01  0.24514919840E-01  0.00000000000E+00 0. -1.
     999901    1    3    3    0    0 -0.28480328868E-01  0.13783973101E+00 -0.50576264650E-01  0.89261911201E+00  0.88000000000E+00 0.  1.
        -11    1    4    4    0    0  0.11521792519E-01 -0.47617249314E-01  0.26780335480E-01  0.55835487144E-01  0.51100000000E-03 0.  1.
         11    1    4    4    0    0  0.14120640884E-01 -0.68259265640E-01  0.13281901185E-01  0.70960481007E-01  0.51100000000E-03 0. -1.
</event>
<event>
 8    1  0.1095698E+005  0.1043930E+01  0.7957747E-01            NaN
         13   -1    0    0    0    0  0.00000000000E+00  0.00000000000E+00  0.74505805969E-08  0.10566000000E+00  0.10566000000E+00 0.  1.
     999900   -1    0    0    0    0 -0.00000000000E+00 -0.00000000000E+00 -0.74505805969E-08  0.93827000000E+00  0.93827000000E+00 0. -1.
     999902    2    1    2    0    0  0.47474494572E-02 -0.19355429850E-01 -0.13933199332E-01  0.10196132366E+01  0.10193232300E+01 0.  0.
     999903    2    3    3    0    0 -0.24611293057E-01  0.11681187378E+00 -0.42165829436E-01  0.12820953915E+00  0.20223727504E-01 0.  0.
         14    1    1    2    0    0 -0.47474494572E-02  0.19355429850E-01  0.13933199332E-01  0.24316763449E-01  0.00000000000E+00 0. -1.
     999901    1    3    3    0    0  0.29358742515E-01 -0.13616730363E+00  0.28232630104E-01  0.89140369740E+00  0.88000000000E+00 0.  1.
        -11    1    4    4    0    0 -0.15163776289E-01  0.29771895651E-01 -0.14103779448E-01  0.36269596051E-01  0.51100000000E-03 0. -1.
         11    1    4    4    0    0 -0.94475167681E-02  0.87039978132E-01 -0.28062049988E-01  0.91939943097E-01  0.51100000000E-03 0.  1.
</event>
<event>
 8    1  0.1095698E+005  0.1043930E+01  0.7957747E-01            NaN
         13   -1    0    0    0    0  0.00000000000E+00  0.00000000000E+00  0.74505805969E-08  0.10566000000E+00  0.10566000000E+00 0.  1.
     999900   -1    0    0    0    0 -0.00000000000E+00 -0.00000000000E+00 -0.74505805969E-08  0.93827000000E+00  0.93827000000E+00 0. -1.
     999902    2    1    2    0    0 -0.11324721659E-01 -0.47713938308E-02  0.20614318825E-01  0.10199307154E+01  0.10196483210E+01 0.  0.
     999903    2    3    3    0    0  0.10592017352E+00  0.64684454789E-01 -0.25294875087E-01  0.12825917587E+00  0.20184737770E-01 0.  0.
         14    1    1    2    0    0  0.11324721659E-01  0.47713938308E-02 -0.20614318825E-01  0.23999284580E-01  0.00000000000E+00 0. -1.
     999901    1    3    3    0    0 -0.11724489518E+00 -0.69455848619E-01  0.45909193912E-01  0.89167153955E+00  0.88000000000E+00 0.  1.
        -11    1    4    4    0    0  0.30376751145E-01  0.87653175713E-02 -0.38447123303E-02  0.31853111876E-01  0.51100000000E-03 0. -1.
         11    1    4    4    0    0  0.75543422379E-01  0.55919137217E-01 -0.21450162757E-01  0.96406063996E-01  0.51100000000E-03 0.  1.
</event>
<event>
 8    1  0.1095698E+005  0.1043930E+01  0.7957747E-01            NaN
         13   -1    0    0    0    0  0.00000000000E+00  0.00000000000E+00  0.74505805969E-08  0.10566000000E+00  0.10566000000E+00 0. -1.
     999900   -1    0    0    0    0 -0.00000000000E+00 -0.00000000000E+00 -0.74505805969E-08  0.93827000000E+00  0.93827000000E+00 0. -1.
     999902    2    1    2    0    0  0.35202763852E-02  0.17460815113E-01  0.16003990471E-01  0.10199842254E+01  0.10197031038E+01 0.  0.
     999903    2    3    3    0    0 -0.11651576657E+00  0.21931891872E-01 -0.48152836894E-01  0.12950977847E+00  0.19928755050E-01 0.  0.
         14    1    1    2    0    0 -0.35202763852E-02 -0.17460815113E-01 -0.16003990471E-01  0.23945774601E-01  0.00000000000E+00 0.  1.
     999901    1    3    3    0    0  0.12003604296E+00 -0.44710767585E-02  0.64156827365E-01  0.89047444693E+00  0.88000000000E+00 0.  1.
        -11    1    4    4    0    0 -0.77197908227E-01  0.20223652621E-01 -0.24016203172E-01  0.83339980176E-01  0.51100000000E-03 0. -1.
         11    1    4    4    0    0 -0.39317858343E-01  0.17082392506E-02 -0.24136633723E-01  0.46169798294E-01  0.51100000000E-03 0.  1.
</event>
<event>
 8    1  0.1095698E+005  0.1043930E+01  0.7957747E-01            NaN
         13   -1    0    0    0    0  0.00000000000E+00  0.00000000000E+00  0.74505805969E-08  0.10566000000E+00  0.10566000000E+00 0.  1.
     999900   -1    0    0    0    0 -0.00000000000E+00 -0.00000000000E+00 -0.74505805969E-08  0.93827000000E+00  0.93827000000E+00 0.  1.
     999902    2    1    2    0    0 -0.10687432049E-01 -0.11467668463E-01  0.17827748074E-01  0.10201906397E+01  0.10199144004E+01 0.  0.
     999903    2    3    3    0    0 -0.53714057069E-01  0.91921258233E-01  0.74254681350E-01  0.13130113063E+00  0.19786651056E-01 0.  0.
         14    1    1    2    0    0  0.10687432049E-01  0.11467668463E-01 -0.17827748074E-01  0.23739360252E-01  0.00000000000E+00 0. -1.
     999901    1    3    3    0    0  0.43026625020E-01 -0.10338892670E+00 -0.56426933276E-01  0.88888950912E+00  0.88000000000E+00 0. -1.
        -11    1    4    4    0    0 -0.51666803949E-01  0.89349811828E-01  0.66285809684E-01  0.12266587623E+00  0.51100000000E-03 0.  1.
         11    1    4    4    0    0 -0.20472531194E-02  0.25714464049E-02  0.79688716666E-02  0.86352544020E-02  0.51100000000E-03 0. -1.
</event>
<event>
 8    1  0.1095698E+005  0.1043930E+01  0.7957747E-01            NaN
         13   -1    0    0    0    0  0.00000000000E+00  0.00000000000E+00  0.74505805969E-08  0.10566000000E+00  0.10566000000E+00 0.  1.
     999900   -1    0    0    0    0 -0.00000000000E+00 -0.00000000000E+00 -0.74505805969E-08  0.93827000000E+00  0.93827000000E+00 0.  1.
     999902    2    1    2    0    0 -0.20023435158E-01 -0.13528793507E-01  0.25054453803E-02  0.10196350732E+01  0.10193455936E+01 0.  0.
     999903    2    3    3    0    0 -0.39198998096E-01  0.80232038893E-01  0.92492209255E-01  0.12988431400E+00  0.18476599643E-01 0.  0.
         14    1    1    2    0    0  0.20023435158E-01  0.13528793507E-01 -0.25054453803E-02  0.24294926751E-01  0.00000000000E+00 0. -1.
     999901    1    3    3    0    0  0.19175562938E-01 -0.93760832400E-01 -0.89986763875E-01  0.88975075925E+00  0.88000000000E+00 0.  1.
        -11    1    4    4    0    0 -0.16416381040E-02  0.11925893290E-01  0.60424916245E-02  0.13479418847E-01  0.51100000000E-03 0.  1.
         11    1    4    4    0    0 -0.37557359992E-01  0.68306145603E-01  0.86449717631E-01  0.11640489516E+00  0.51100000000E-03 0. -1.
</event>
<event>
 8    1  0.1095698E+005  0.1043930E+01  0.7957747E-01            NaN
         13   -1    0    0    0    0  0.00000000000E+00  0.00000000000E+00  0.74505805969E-08  0.10566000000E+00  0.10566000000E+00 0. -1.
     999900   -1    0    0    0    0 -0.00000000000E+00 -0.00000000000E+00 -0.74505805969E-08  0.93827000000E+00  0.93827000000E+00 0. -1.
     999902    2    1    2    0    0 -0.21792146552E-01 -0.59830271315E-02  0.81860192081E-02  0.10198945018E+01  0.10196112443E+01 0.  0.
     999903    2    3    3    0    0 -0.91983622528E-01  0.18602970461E-01 -0.90074572219E-01  0.13130772581E+00  0.17922973323E-01 0.  0.
         14    1    1    2    0    0  0.21792146552E-01  0.59830271315E-02 -0.81860192081E-02  0.24035498237E-01  0.00000000000E+00 0.  1.
     999901    1    3    3    0    0  0.70191475976E-01 -0.24585997593E-01  0.98260591427E-01  0.88858677596E+00  0.88000000000E+00 0.  1.
        -11    1    4    4    0    0 -0.53913979138E-01  0.19807054877E-01 -0.55107987271E-01  0.79600175574E-01  0.51100000000E-03 0.  1.
         11    1    4    4    0    0 -0.38069643390E-01 -0.12040844156E-02 -0.34966584948E-01  0.51707550233E-01  0.51100000000E-03 0. -1.
</event>
<event>
 8    1  0.1095698E+005  0.1043930E+01  0.7957747E-01            NaN
         13   -1    0    0    0    0  0.00000000000E+00  0.00000000000E+00  0.74505805969E-08  0.10566000000E+00  0.10566000000E+00 0.  1.
     999900   -1    0    0    0    0 -0.00000000000E+00 -0.00000000000E+00 -0.74505805969E-08  0.93827000000E+00  0.93827000000E+00 0. -1.
     999902    2    1    2    0    0 -0.21506829429E-01  0.15002167476E-01  0.43996605919E-02  0.10173411724E+01  0.10169936555E+01 0.  0.
     999903    2    3    3    0    0  0.40438316616E-01 -0.61679993688E-01  0.10077649857E+00  0.12660785097E+00  0.20831855215E-01 0.  0.
         14    1    1    2    0    0  0.21506829429E-01 -0.15002167476E-01 -0.43996605919E-02  0.26588827623E-01  0.00000000000E+00 0. -1.
     999901    1    3    3    0    0 -0.61945146045E-01  0.76682161163E-01 -0.96376837980E-01  0.89073332140E+00  0.88000000000E+00 0. -1.
        -11    1    4    4    0    0  0.29437556393E-01 -0.27510194547E-01  0.60058503522E-01  0.72323339916E-01  0.51100000000E-03 0. -1.
         11    1    4    4    0    0  0.11000760223E-01 -0.34169799141E-01  0.40717995050E-01  0.54284511057E-01  0.51100000000E-03 0.  1.
</event>
<event>
 8    1  0.1095698E+005  0.1043930E+01  0.7957747E-01            NaN
         13   -1    0    0    0    0  0.00000000000E+00  0.00000000000E+00  0.74505805969E-08  0.10566000000E+00  0.10566000000E+00 0. -1.
     999900   -1    0    0    0    0 -0.00000000000E+00 -0.00000000000E+00 -0.74505805969E-08  0.93827000000E+00  0.93827000000E+00 0.  1.
     999902    2    1    2    0    0  0.21843472009E-01 -0.73256236392E-02  0.60840139064E-02  0.10201010836E+01  0.10198227314E+01 0.  0.
     999903    2    3    3    0    0  0.69521127715E-01  0.10350510418E+00  0.36228172232E-01  0.13135743139E+00  0.19894736202E-01 0.  0.
         14    1    1    2    0    0 -0.21843472009E-01  0.73256236392E-02 -0.60840139064E-02  0.23828916390E-01  0.00000000000E+00 0.  1.
     999901    1    3    3    0    0 -0.47677655706E-01 -0.11083072782E+00 -0.30144158325E-01  0.88874365222E+00  0.88000000000E+00 0.  1.
        -11    1    4    4    0    0  0.25414893331E-01  0.44609257752E-01  0.55737818398E-02  0.51645240296E-01  0.51100000000E-03 0. -1.
         11    1    4    4    0    0  0.44106234385E-01  0.58895846424E-01  0.30654390392E-01  0.79712191093E-01  0.51100000000E-03 0.  1.
</event>
<event>
 8    1  0.1095698E+005  0.1043930E+01  0.7957747E-01            NaN
         13   -1    0    0    0    0  0.00000000000E+00  0.00000000000E+00  0.74505805969E-08  0.10566000000E+00  0.10566000000E+00 0. -1.
     999900   -1    0    0    0    0 -0.00000000000E+00 -0.00000000000E+00 -0.74505805969E-08  0.93827000000E+00  0.93827000000E+00 0. -1.
     999902    2    1    2    0    0  0.48558536260E-02 -0.22580181849E-01  0.69516912524E-02  0.10198100925E+01  0.10195248181E+01 0.  0.
     999903    2    3    3    0    0  0.52357708846E-01 -0.81443808590E-01 -0.86909351615E-01  0.13159207412E+00  0.19718390887E-01 0.  0.
         14    1    1    2    0    0 -0.48558536260E-02  0.22580181849E-01 -0.69516912524E-02  0.24119907505E-01  0.00000000000E+00 0.  1.
     999901    1    3    3    0    0 -0.47501855220E-01  0.58863626742E-01  0.93861042868E-01  0.88821801838E+00  0.88000000000E+00 0.  1.
        -11    1    4    4    0    0  0.31307517470E-01 -0.60463819002E-01 -0.51576685735E-01  0.85419258314E-01  0.51100000000E-03 0.  1.
         11    1    4    4    0    0  0.21050191375E-01 -0.20979989588E-01 -0.35332665880E-01  0.46172815804E-01  0.51100000000E-03 0. -1.
</event>
<event>
 8    1  0.1095698E+005  0.1043930E+01  0.7957747E-01            NaN
         13   -1    0    0    0    0  0.00000000000E+00  0.00000000000E+00  0.74505805969E-08  0.10566000000E+00  0.10566000000E+00 0. -1.
     999900   -1    0    0    0    0 -0.00000000000E+00 -0.00000000000E+00 -0.74505805969E-08  0.93827000000E+00  0.93827000000E+00 0. -1.
     999902    2    1    2    0    0  0.35853070665E-02  0.22449455366E-01  0.84002693598E-02  0.10196937256E+01  0.10194056587E+01 0.  0.
     999903    2    3    3    0    0  0.46748371033E-01  0.54535469947E-01  0.10928121376E+00  0.13229892765E+00  0.20027353839E-01 0.  0.
         14    1    1    2    0    0 -0.35853070665E-02 -0.22449455366E-01 -0.84002693598E-02  0.24236274431E-01  0.00000000000E+00 0.  1.
     999901    1    3    3    0    0 -0.43163063967E-01 -0.32086014581E-01 -0.10088094440E+00  0.88739479791E+00  0.88000000000E+00 0. -1.
        -11    1    4    4    0    0  0.22451616561E-01  0.31782394950E-01  0.42159990150E-01  0.57375269981E-01  0.51100000000E-03 0. -1.
         11    1    4    4    0    0  0.24296754472E-01  0.22753074998E-01  0.67121223607E-01  0.74923657673E-01  0.51100000000E-03 0.  1.
</event>
<event>
 8    1  0.1095698E+005  0.1043930E+01  0.7957747E-01            NaN
         13   -1    0    0    0    0  0.00000000000E+00  0.00000000000E+00  0.74505805969E-08  0.10566000000E+00  0.10566000000E+00 0.  1.
     999900   -1    0    0    0    0 -0.00000000000E+00 -0.00000000000E+00 -0.74505805969E-08  0.93827000000E+00  0.93827000000E+00 0. -1.
     999902    2    1    2    0    0 -0.18446982978E-02  0.54922149654E-02  0.23098196323E-01  0.10201162642E+01  0.10198382708E+01 0.  0.
     999903    2    3    3    0    0 -0.69146687376E-01  0.37799428646E-01 -0.99415503192E-01  0.12849811708E+00  0.20451470299E-01 0.  0.
         14    1    1    2    0    0  0.18446982978E-02 -0.54922149654E-02 -0.23098196323E-01  0.23813735751E-01  0.00000000000E+00 0. -1.
     999901    1    3    3    0    0  0.67301989079E-01 -0.32307213681E-01  0.12251369952E+00  0.89161814717E+00  0.88000000000E+00 0.  1.
        -11    1    4    4    0    0 -0.44743955202E-01  0.13321384817E-01 -0.61062694032E-01  0.76866081883E-01  0.51100000000E-03 0. -1.
         11    1    4    4    0    0 -0.24402732174E-01  0.24478043829E-01 -0.38352809160E-01  0.51632035199E-01  0.51100000000E-03 0.  1.
</event>
<event>
 8    1  0.1095698E+005  0.1043930E+01  0.7957747E-01            NaN
         13   -1    0    0    0    0  0.00000000000E+00  0.00000000000E+00  0.74505805969E-08  0.10566000000E+00  0.10566000000E+00 0.  1.
     999900   -1    0    0    0    0 -0.00000000000E+00 -0.00000000000E+00 -0.74505805969E-08  0.93827000000E+00  0.93827000000E+00 0. -1.
     999902    2    1    2    0    0  0.11602853507E-01  0.13644255952E-01 -0.10001328957E-01  0.10234161386E+01  0.10232105229E+01 0.  0.
     999903    2    3    3    0    0 -0.63642175158E-01  0.84750810604E-01  0.77766925787E-01  0.13301104930E+00  0.20278514062E-01 0.  0.
         14    1    1    2    0    0 -0.11602853507E-01 -0.13644255952E-01  0.10001328957E-01  0.20513861433E-01  0.00000000000E+00 0.  1.
     999901    1    3    3    0    0  0.75245028665E-01 -0.71106554652E-01 -0.87768254744E-01  0.89040508927E+00  0.88000000000E+00 0. -1.
        -11    1    4    4    0    0 -0.50285878093E-01  0.60943413823E-01  0.67233870370E-01  0.10374692126E+00  0.51100000000E-03 0.  1.
         11    1    4    4    0    0 -0.13356297064E-01  0.23807396781E-01  0.10533055416E-01  0.29264128044E-01  0.51100000000E-03 0. -1.
</event>
<event>
 8    1  0.1095698E+005  0.1043930E+01  0.7957747E-01            NaN
         13   -1    0    0    0    0  0.00000000000E+00  0.00000000000E+00  0.74505805969E-08  0.10566000000E+00  0.10566000000E+00 0.  1.
     999900   -1    0    0    0    0 -0.00000000000E+00 -0.00000000000E+00 -0.74505805969E-08  0.93827000000E+00  0.93827000000E+00 0. -1.
     999902    2    1    2    0    0 -0.75332887754E-02  0.20424829261E-01 -0.10319573425E-01  0.10198381407E+01  0.10195535373E+01 0.  0.
     999903    2    3    3    0    0 -0.11983573510E+00 -0.18338108542E-01  0.43258915955E-01  0.13023988341E+00  0.19854565983E-01 0.  0.
         14    1    1    2    0    0  0.75332887754E-02 -0.20424829261E-01  0.10319573425E-01  0.24091859327E-01  0.00000000000E+00 0. -1.
     999901    1    3    3    0    0  0.11230244632E+00  0.38762937804E-01 -0.53578489381E-01  0.88959825726E+00  0.88000000000E+00 0.  1.
        -11    1    4    4    0    0 -0.41158078520E-01 -0.15847605730E-01  0.14396166140E-01  0.46396602843E-01  0.51100000000E-03 0.  1.
         11    1    4    4    0    0 -0.78677656578E-01 -0.24905028129E-02  0.28862749815E-01  0.83843280570E-01  0.51100000000E-03 0. -1.
</event>
<event>
 8    1  0.1095698E+005  0.1043930E+01  0.7957747E-01            NaN
         13   -1    0    0    0    0  0.00000000000E+00  0.00000000000E+00  0.74505805969E-08  0.10566000000E+00  0.10566000000E+00 0.  1.
     999900   -1    0    0    0    0 -0.00000000000E+00 -0.00000000000E+00 -0.74505805969E-08  0.93827000000E+00  0.93827000000E+00 0.  1.
     999902    2    1    2    0    0 -0.41364964628E-02  0.14327773168E-01  0.18402004624E-01  0.10202439395E+01  0.10199689538E+01 0.  0.
     999903    2    3    3    0    0 -0.19500171841E-01  0.12991718633E+00 -0.38342995314E-02  0.13227355252E+00  0.14928457356E-01 0.  0.
         14    1    1    2    0    0  0.41364964628E-02 -0.14327773168E-01 -0.18402004624E-01  0.23686060481E-01  0.00000000000E+00 0. -1.
     999901    1    3    3    0    0  0.15363675379E-01 -0.11558941316E+00  0.22236304155E-01  0.88797038699E+00  0.88000000000E+00 0. -1.
        -11    1    4    4    0    0 -0.12041900129E-01  0.37227976659E-01  0.11805010613E-02  0.39148235063E-01  0.51100000000E-03 0. -1.
         11    1    4    4    0    0 -0.74582717126E-02  0.92689209670E-01 -0.50148005928E-02  0.93125317461E-01  0.51100000000E-03 0.  1.
</event>
<event>
 8    1  0.1095698E+005  0.1043930E+01  0.7957747E-01            NaN
         13   -1    0    0    0    0  0.00000000000E+00  0.00000000000E+00  0.74505805969E-08  0.10566000000E+00  0.10566000000E+00 0.  1.
     999900   -1    0    0    0    0 -0.00000000000E+00 -0.00000000000E+00 -0.74505805969E-08  0.93827000000E+00  0.93827000000E+00 0. -1.
     999902    2    1    2    0    0  0.13111048358E-01  0.11960447270E-01  0.14826429200E-01  0.10208047997E+01  0.10205428282E+01 0.  0.
     999903    2    3    3    0    0  0.11885764029E+00  0.37289493284E-01  0.43994465667E-01  0.13363250713E+00  0.20111911599E-01 0.  0.
         14    1    1    2    0    0 -0.13111048358E-01 -0.11960447270E-01 -0.14826429200E-01  0.23125200340E-01  0.00000000000E+00 0.  1.
     999901    1    3    3    0    0 -0.10574659193E+00 -0.25329046014E-01 -0.29168036467E-01  0.88717229253E+00  0.88000000000E+00 0. -1.
        -11    1    4    4    0    0  0.39014767846E-01  0.13025445749E-01  0.47272190728E-02  0.41405580157E-01  0.51100000000E-03 0.  1.
         11    1    4    4    0    0  0.79842872446E-01  0.24264047535E-01  0.39267246594E-01  0.92226926975E-01  0.51100000000E-03 0. -1.
</event>
<event>
 8    1  0.1095698E+005  0.1043930E+01  0.7957747E-01            NaN
         13   -1    0    0    0    0  0.00000000000E+00  0.00000000000E+00  0.74505805969E-08  0.10566000000E+00  0.10566000000E+00 0. -1.
     999900   -1    0    0    0    0 -0.00000000000E+00 -0.00000000000E+00 -0.74505805969E-08  0.93827000000E+00  0.93827000000E+00 0. -1.
     999902    2    1    2    0    0 -0.21246589307E-01  0.91808220792E-02  0.43699953860E-02  0.10203757666E+01  0.10201038688E+01 0.  0.
     999903    2    3    3    0    0 -0.46542906384E-01 -0.47745732166E-01  0.11167290918E+00  0.13167196243E+00  0.20512678300E-01 0.  0.
         14    1    1    2    0    0  0.21246589307E-01 -0.91808220792E-02 -0.43699953860E-02  0.23554233396E-01  0.00000000000E+00 0.  1.
     999901    1    3    3    0    0  0.25296317078E-01  0.56926554245E-01 -0.10730291380E+00  0.88870380417E+00  0.88000000000E+00 0. -1.
        -11    1    4    4    0    0 -0.49801958758E-02 -0.16327956867E-01  0.20711304730E-01  0.26844436873E-01  0.51100000000E-03 0. -1.
         11    1    4    4    0    0 -0.41562710508E-01 -0.31417775299E-01  0.90961604453E-01  0.10482752556E+00  0.51100000000E-03 0.  1.
</event>
<event>
 8    1  0.1095698E+005  0.1043930E+01  0.7957747E-01            NaN
         13   -1    0    0    0    0  0.00000000000E+00  0.00000000000E+00  0.74505805969E-08  0.10566000000E+00  0.10566000000E+00 0. -1.
     999900   -1    0    0    0    0 -0.00000000000E+00 -0.00000000000E+00 -0.74505805969E-08  0.93827000000E+00  0.93827000000E+00 0. -1.
     999902    2    1    2    0    0  0.14391961245E-02 -0.21793596716E-01 -0.94149539676E-02  0.10201461084E+01  0.10198688195E+01 0.  0.
     999903    2    3    3    0    0  0.11895876795E+00  0.36063489980E-03 -0.51476584945E-01  0.13106183758E+00  0.19391955664E-01 0.  0.
         14    1    1    2    0    0 -0.14391961245E-02  0.21793596716E-01  0.94149539676E-02  0.23783891640E-01  0.00000000000E+00 0.  1.
     999901    1    3    3    0    0 -0.11751957182E+00 -0.22154231616E-01  0.42061630978E-01  0.88908427078E+00  0.88000000000E+00 0. -1.
        -11    1    4    4    0    0  0.47780346842E-02  0.40442535139E-02 -0.23586347303E-02  0.67089403574E-02  0.51100000000E-03 0. -1.
         11    1    4    4    0    0  0.11418073326E+00 -0.36836186141E-02 -0.49117950215E-01  0.12435289723E+00  0.51100000000E-03 0.  1.
</event>
<event>
 8    1  0.1095698E+005  0.1043930E+01  0.7957747E-01            NaN
         13   -1    0    0    0    0  0.00000000000E+00  0.00000000000E+00  0.74505805969E-08  0.10566000000E+00  0.10566000000E+00 0. -1.
     999900   -1    0    0    0    0 -0.00000000000E+00 -0.00000000000E+00 -0.74505805969E-08  0.93827000000E+00  0.93827000000E+00 0.  1.
     999902    2    1    2    0    0  0.79760263483E-02  0.21010121229E-01 -0.94442123686E-02  0.10195530573E+01  0.10192615961E+01 0.  0.
     999903    2    3    3    0    0 -0.69712341995E-01 -0.31647432510E-01  0.10047154121E+00  0.12776285018E+00  0.19168846705E-01 0.  0.
         14    1    1    2    0    0 -0.79760263483E-02 -0.21010121229E-01  0.94442123686E-02  0.24376942746E-01  0.00000000000E+00 0. -1.
     999901    1    3    3    0    0  0.77688368343E-01  0.52657553739E-01 -0.10991575358E+00  0.89179020707E+00  0.88000000000E+00 0. -1.
        -11    1    4    4    0    0 -0.59060261014E-01 -0.30944466507E-01  0.94071540521E-01  0.11530563861E+00  0.51100000000E-03 0. -1.
         11    1    4    4    0    0 -0.10652080980E-01 -0.70296600309E-03  0.64000006855E-02  0.12457211573E-01  0.51100000000E-03 0.  1.
</event>
<event>
 8    1  0.1095698E+005  0.1043930E+01  0.7957747E-01            NaN
         13   -1    0    0    0    0  0.00000000000E+00  0.00000000000E+00  0.74505805969E-08  0.10566000000E+00  0.10566000000E+00 0. -1.
     999900   -1    0    0    0    0 -0.00000000000E+00 -0.00000000000E+00 -0.74505805969E-08  0.93827000000E+00  0.93827000000E+00 0. -1.
     999902    2    1    2    0    0 -0.10027848663E-01 -0.18511212371E-01  0.10512016928E-01  0.10203986330E+01  0.10201272690E+01 0.  0.
     999903    2    3    3    0    0 -0.35576510757E-01 -0.11919197138E+00 -0.41802662998E-01  0.13274657556E+00  0.20044364080E-01 0.  0.
         14    1    1    2    0    0  0.10027848663E-01  0.18511212371E-01 -0.10512016928E-01  0.23531366984E-01  0.00000000000E+00 0. -1.
     999901    1    3    3    0    0  0.25548662094E-01  0.10068075900E+00  0.52314679926E-01  0.88765205746E+00  0.88000000000E+00 0. -1.
        -11    1    4    4    0    0 -0.62982204626E-02 -0.27762144083E-01 -0.18499118668E-01  0.33954126959E-01  0.51100000000E-03 0. -1.
         11    1    4    4    0    0 -0.29278290295E-01 -0.91429827293E-01 -0.23303544330E-01  0.98792448601E-01  0.51100000000E-03 0.  1.
</event>
<event>
 8    1  0.1095698E+005  0.1043930E+01  0.7957747E-01            NaN
         13   -1    0    0    0    0  0.00000000000E+00  0.00000000000E+00  0.74505805969E-08  0.10566000000E+00  0.10566000000E+00 0.  1.
     999900   -1    0    0    0    0 -0.00000000000E+00 -0.00000000000E+00 -0.74505805969E-08  0.93827000000E+00  0.93827000000E+00 0.  1.
     999902    2    1    2    0    0 -0.11953734469E-02 -0.22380582216E-01 -0.71414741080E-02  0.10204072444E+01  0.10201360813E+01 0.  0.
     999903    2    3    3    0    0 -0.31327081325E-01  0.25959148157E-01 -0.12288014182E+00  0.13100289961E+00  0.20173424444E-01 0.  0.
         14    1    1    2    0    0  0.11953734469E-02  0.22380582216E-01  0.71414741080E-02  0.23522755587E-01  0.00000000000E+00 0.  1.
     999901    1    3    3    0    0  0.30131707878E-01 -0.48339730372E-01  0.11573866772E+00  0.88940434480E+00  0.88000000000E+00 0. -1.
        -11    1    4    4    0    0 -0.20786673902E-01  0.15877764254E-01 -0.47549935096E-01  0.54271969360E-01  0.51100000000E-03 0.  1.
         11    1    4    4    0    0 -0.10540407422E-01  0.10081383902E-01 -0.75330206728E-01  0.76730930248E-01  0.51100000000E-03 0. -1.
</event>
<event>
 8    1  0.1095698E+005  0.1043930E+01  0.7957747E-01            NaN
         13   -1    0    0    0    0  0.00000000000E+00  0.00000000000E+00  0.74505805969E-08  0.10566000000E+00  0.10566000000E+00 0.  1.
     999900   -1    0    0    0    0 -0.00000000000E+00 -0.00000000000E+00 -0.74505805969E-08  0.93827000000E+00  0.93827000000E+00 0. -1.
     999902    2    1    2    0    0  0.11307171014E-01 -0.54465860245E-02 -0.22207133943E-01  0.10184216834E+01  0.10181021811E+01 0.  0.
     999903    2    3    3    0    0  0.11081487357E-01  0.96108582215E-01 -0.86017825739E-01  0.13028582249E+00  0.14685716136E-01 0.  0.
         14    1    1    2    0    0 -0.11307171014E-01  0.54465860245E-02  0.22207133943E-01  0.25508316558E-01  0.00000000000E+00 0.  1.
     999901    1    3    3    0    0  0.22568365669E-03 -0.10155516824E+00  0.63810691796E-01  0.88813586096E+00  0.88000000000E+00 0.  1.
        -11    1    4    4    0    0  0.83195256867E-02  0.21069527596E-01 -0.17456699870E-01  0.28603094100E-01  0.51100000000E-03 0.  1.
         11    1    4    4    0    0  0.27619616703E-02  0.75039054619E-01 -0.68561125869E-01  0.10168272839E+00  0.51100000000E-03 0. -1.
</event>
<event>
 8    1  0.1095698E+005  0.1043930E+01  0.7957747E-01            NaN
         13   -1    0    0    0    0  0.00000000000E+00  0.00000000000E+00  0.74505805969E-08  0.10566000000E+00  0.10566000000E+00 0. -1.
     999900   -1    0    0    0    0 -0.00000000000E+00 -0.00000000000E+00 -0.74505805969E-08  0.93827000000E+00  0.93827000000E+00 0.  1.
     999902    2    1    2    0    0 -0.94758326141E-03  0.11686043476E-01  0.20452425829E-01  0.10203553685E+01  0.10200829941E+01 0.  0.
     999903    2    3    3    0    0 -0.93033569753E-01 -0.47967754678E-03  0.92358404365E-01  0.13255003885E+00  0.19594967496E-01 0.  0.
         14    1    1    2    0    0  0.94758326141E-03 -0.11686043476E-01 -0.20452425829E-01  0.23574631460E-01  0.00000000000E+00 0.  1.
     999901    1    3    3    0    0  0.92085986491E-01  0.12165721022E-01 -0.71905978535E-01  0.88780532969E+00  0.88000000000E+00 0.  1.
        -11    1    4    4    0    0 -0.70020880448E-01 -0.18602243568E-02  0.80193249775E-01  0.10647817881E+00  0.51100000000E-03 0. -1.
         11    1    4    4    0    0 -0.23012689305E-01  0.13805468100E-02  0.12165154590E-01  0.26071860036E-01  0.51100000000E-03 0.  1.
</event>
<event>
 8    1  0.1095698E+005  0.1043930E+01  0.7957747E-01            NaN
         13   -1    0    0    0    0  0.00000000000E+00  0.00000000000E+00  0.74505805969E-08  0.10566000000E+00  0.10566000000E+00 0.  1.
     999900   -1    0    0    0    0 -0.00000000000E+00 -0.00000000000E+00 -0.74505805969E-08  0.93827000000E+00  0.93827000000E+00 0. -1.
     999902    2    1    2    0    0 -0.53743335815E-02  0.21025681255E-01 -0.79102274506E-02  0.10208316357E+01  0.10205702789E+01 0.  0.
     999903    2    3    3    0    0 -0.12734034035E+00  0.24416273461E-01 -0.15233489320E-01  0.13238308174E+00  0.21943209519E-01 0.  0.
         14    1    1    2    0    0  0.53743335815E-02 -0.21025681255E-01  0.79102274506E-02  0.23098364271E-01  0.00000000000E+00 0.  1.
     999901    1    3    3    0    0  0.12196600677E+00 -0.33905922054E-02  0.73232618697E-02  0.88844855399E+00  0.88000000000E+00 0.  1.
        -11    1    4    4    0    0 -0.80096094891E-01  0.25537224136E-01 -0.64855821574E-02  0.84319974682E-01  0.51100000000E-03 0.  1.
         11    1    4    4    0    0 -0.47244245458E-01 -0.11209506756E-02 -0.87479071629E-02  0.48063107057E-01  0.51100000000E-03 0. -1.
</event>
<event>
 8    1  0.1095698E+005  0.1043930E+01  0.7957747E-01            NaN
         13   -1    0    0    0    0  0.00000000000E+00  0.00000000000E+00  0.74505805969E-08  0.10566000000E+00  0.10566000000E+00 0.  1.
     999900   -1    0    0    0    0 -0.00000000000E+00 -0.00000000000E+00 -0.74505805969E-08  0.93827000000E+00  0.93827000000E+00 0. -1.
     999902    2    1    2    0    0 -0.21852379261E-01  0.48663112241E-03 -0.90483121128E-02  0.10202733891E+01  0.10199990947E+01 0.  0.
     999903    2    3    3    0    0  0.90860970822E-01 -0.81028571172E-01  0.34963071001E-01  0.12826104086E+00  0.20177534632E-01 0.  0.
         14    1    1    2    0    0  0.21852379261E-01 -0.48663112241E-03  0.90483121128E-02  0.23656610943E-01  0.00000000000E+00 0.  1.
     999901    1    3    3    0    0 -0.11271335008E+00  0.81515202295E-01 -0.44011383114E-01  0.89201234820E+00  0.88000000000E+00 0. -1.
        -11    1    4    4    0    0  0.28863357490E-01 -0.32405821847E-01  0.39250061585E-02  0.43576340938E-01  0.51100000000E-03 0. -1.
         11    1    4    4    0    0  0.61997613332E-01 -0.48622749325E-01  0.31038064843E-01  0.84684699923E-01  0.51100000000E-03 0.  1.
</event>
<event>
 8    1  0.1095698E+005  0.1043930E+01  0.7957747E-01            NaN
         13   -1    0    0    0    0  0.00000000000E+00  0.00000000000E+00  0.74505805969E-08  0.10566000000E+00  0.10566000000E+00 0.  1.
     999900   -1    0    0    0    0 -0.00000000000E+00 -0.00000000000E+00 -0.74505805969E-08  0.93827000000E+00  0.93827000000E+00 0. -1.
     999902    2    1    2    0    0 -0.21714749612E-01  0.13165324279E-01  0.47609684572E-02  0.10180935348E+01  0.10177656521E+01 0.  0.
     999903    2    3    3    0    0 -0.81430381228E-01  0.97407065269E-01 -0.27564559046E-01  0.13146646137E+00  0.20114228765E-01 0.  0.
         14    1    1    2    0    0  0.21714749612E-01 -0.13165324279E-01 -0.47609684572E-02  0.25836465214E-01  0.00000000000E+00 0. -1.
     999901    1    3    3    0    0  0.59715631616E-01 -0.84241740990E-01  0.32325527503E-01  0.88662707342E+00  0.88000000000E+00 0.  1.
        -11    1    4    4    0    0 -0.29129853677E-02  0.91884167176E-02  0.16825667282E-02  0.97981956157E-02  0.51100000000E-03 0.  1.
         11    1    4    4    0    0 -0.78517395860E-01  0.88218648552E-01 -0.29247125774E-01  0.12166826576E+00  0.51100000000E-03 0. -1.
</event>
<event>
 8    1  0.1095698E+005  0.1043930E+01  0.7957747E-01            NaN
         13   -1    0    0    0    0  0.00000000000E+00  0.00000000000E+00  0.74505805969E-08  0.10566000000E+00  0.10566000000E+00 0.  1.
     999900   -1    0    0    0    0 -0.00000000000E+00 -0.00000000000E+00 -0.74505805969E-08  0.93827000000E+00  0.93827000000E+00 0.  1.
     999902    2    1    2    0    0  0.34620645207E-02  0.23339037860E-01  0.13034427129E-02  0.10202996055E+01  0.10200259259E+01 0.  0.
     999903    2    3    3    0    0  0.12645811549E+00  0.29167476016E-01  0.97003697883E-02  0.13168691847E+00  0.20123386703E-01 0.  0.
         14    1    1    2    0    0 -0.34620645207E-02 -0.23339037860E-01 -0.13034427129E-02  0.23630394450E-01  0.00000000000E+00 0. -1.
     999901    1    3    3    0    0 -0.12299605097E+00 -0.58284381562E-02 -0.83969270754E-02  0.88861268707E+00  0.88000000000E+00 0. -1.
        -11    1    4    4    0    0  0.33178916975E-01 -0.71995550559E-03  0.55162014608E-02  0.33645927942E-01  0.51100000000E-03 0.  1.
         11    1    4    4    0    0  0.93279198517E-01  0.29887431522E-01  0.41841683275E-02  0.98040990533E-01  0.51100000000E-03 0. -1.
</event>
<event>
 8    1  0.1095698E+005  0.1043930E+01  0.7957747E-01            NaN
         13   -1    0    0    0    0  0.00000000000E+00  0.00000000000E+00  0.74505805969E-08  0.10566000000E+00  0.10566000000E+00 0. -1.
     999900   -1    0    0    0    0 -0.00000000000E+00 -0.00000000000E+00 -0.74505805969E-08  0.93827000000E+00  0.93827000000E+00 0.  1.
     999902    2    1    2    0    0  0.58741875298E-03  0.77510801000E-02  0.22693622377E-01  0.10199419863E+01  0.10196598603E+01 0.  0.
     999903    2    3    3    0    0 -0.94084767440E-01 -0.62694050985E-01 -0.57590659212E-01  0.12844274056E+00  0.19959110210E-01 0.  0.
         14    1    1    2    0    0 -0.58741875298E-03 -0.77510801000E-02 -0.22693622377E-01  0.23988013676E-01  0.00000000000E+00 0.  1.
     999901    1    3    3    0    0  0.94672186193E-01  0.70445131085E-01  0.80284281589E-01  0.89149924577E+00  0.88000000000E+00 0.  1.
        -11    1    4    4    0    0 -0.20302040890E-01 -0.20606592651E-01 -0.77334059882E-02  0.29947808169E-01  0.51100000000E-03 0.  1.
         11    1    4    4    0    0 -0.73782726550E-01 -0.42087458334E-01 -0.49857253224E-01  0.98494932388E-01  0.51100000000E-03 0. -1.
</event>
<event>
 8    1  0.1095698E+005  0.1043930E+01  0.7957747E-01            NaN
         13   -1    0    0    0    0  0.00000000000E+00  0.00000000000E+00  0.74505805969E-08  0.10566000000E+00  0.10566000000E+00 0.  1.
     999900   -1    0    0    0    0 -0.00000000000E+00 -0.00000000000E+00 -0.74505805969E-08  0.93827000000E+00  0.93827000000E+00 0. -1.
     999902    2    1    2    0    0  0.17885215433E-01 -0.50115891772E-02 -0.14430183405E-01  0.10204092188E+01  0.10201381017E+01 0.  0.
     999903    2    3    3    0    0  0.19679733925E-01  0.11705365312E+00 -0.52066275556E-01  0.13118505180E+00  0.20242804384E-01 0.  0.
         14    1    1    2    0    0 -0.17885215433E-01  0.50115891772E-02  0.14430183405E-01  0.23520781243E-01  0.00000000000E+00 0. -1.
     999901    1    3    3    0    0 -0.17945184920E-02 -0.12206524229E+00  0.37636092151E-01  0.88922416696E+00  0.88000000000E+00 0.  1.
        -11    1    4    4    0    0 -0.60412511290E-03  0.56801892085E-01 -0.23200737831E-01  0.61362490729E-01  0.51100000000E-03 0.  1.
         11    1    4    4    0    0  0.20283859038E-01  0.60251761033E-01 -0.28865537725E-01  0.69822561068E-01  0.51100000000E-03 0. -1.
</event>
<event>
 8    1  0.1095698E+005  0.1043930E+01  0.7957747E-01            NaN
         13   -1    0    0    0    0  0.00000000000E+00  0.00000000000E+00  0.74505805969E-08  0.10566000000E+00  0.10566000000E+00 0. -1.
     999900   -1    0    0    0    0 -0.00000000000E+00 -0.00000000000E+00 -0.74505805969E-08  0.93827000000E+00  0.93827000000E+00 0.  1.
     999902    2    1    2    0    0 -0.16998442188E-01  0.15009610884E-03  0.16957083981E-01  0.10199193302E+01  0.10196366647E+01 0.  0.
     999903    2    3    3    0    0  0.82201341183E-01  0.52612306183E-01  0.83971406875E-01  0.13026557737E+00  0.19819390011E-01 0.  0.
         14    1    1    2    0    0  0.16998442188E-01 -0.15009610884E-03 -0.16957083981E-01  0.24010669770E-01  0.00000000000E+00 0. -1.
     999901    1    3    3    0    0 -0.99199783372E-01 -0.52462210074E-01 -0.67014322895E-01  0.88965375286E+00  0.88000000000E+00 0.  1.
        -11    1    4    4    0    0  0.36886320806E-01  0.35305281015E-01  0.44248050571E-01  0.67566372039E-01  0.51100000000E-03 0. -1.
         11    1    4    4    0    0  0.45315020377E-01  0.17307025168E-01  0.39723356304E-01  0.62699205330E-01  0.51100000000E-03 0.  1.
</event>
<event>
 8    1  0.1095698E+005  0.1043930E+01  0.7957747E-01            NaN
         13   -1    0    0    0    0  0.00000000000E+00  0.00000000000E+00  0.74505805969E-08  0.10566000000E+00  0.10566000000E+00 0. -1.
     999900   -1    0    0    0    0 -0.00000000000E+00 -0.00000000000E+00 -0.74505805969E-08  0.93827000000E+00  0.93827000000E+00 0.  1.
     999902    2    1    2    0    0  0.17567883586E-01  0.14196871126E-01  0.74223679851E-02  0.10201545246E+01  0.10198774342E+01 0.  0.
     999903    2    3    3    0    0  0.77384316035E-01 -0.70025713680E-01  0.77295627102E-01  0.13136111683E+00  0.19728053634E-01 0.  0.
         14    1    1    2    0    0 -0.17567883586E-01 -0.14196871126E-01 -0.74223679851E-02  0.23775475388E-01  0.00000000000E+00 0.  1.
     999901    1    3    3    0    0 -0.59816432449E-01  0.84222584805E-01 -0.69873259117E-01  0.88879340778E+00  0.88000000000E+00 0.  1.
        -11    1    4    4    0    0  0.37227627998E-01 -0.44933725384E-01  0.36272851103E-01  0.68708928177E-01  0.51100000000E-03 0.  1.
         11    1    4    4    0    0  0.40156688038E-01 -0.25091988296E-01  0.41022776000E-01  0.62652188649E-01  0.51100000000E-03 0. -1.
</event>
<event>
 8    1  0.1095698E+005  0.1043930E+01  0.7957747E-01            NaN
         13   -1    0    0    0    0  0.00000000000E+00  0.00000000000E+00  0.74505805969E-08  0.10566000000E+00  0.10566000000E+00 0. -1.
     999900   -1    0    0    0    0 -0.00000000000E+00 -0.00000000000E+00 -0.74505805969E-08  0.93827000000E+00  0.93827000000E+00 0.  1.
     999902    2    1    2    0    0  0.10931178640E-01 -0.10130285800E-01  0.17667148569E-01  0.10208163353E+01  0.10205546281E+01 0.  0.
     999903    2    3    3    0    0  0.50199822855E-01 -0.34596809996E-02 -0.11766850013E+00  0.12957996868E+00  0.20324880154E-01 0.  0.
         14    1    1    2    0    0 -0.10931178640E-01  0.10130285800E-01 -0.17667148569E-01  0.23113664690E-01  0.00000000000E+00 0.  1.
     999901    1    3    3    0    0 -0.39268644215E-01 -0.66706048005E-02  0.13533564870E+00  0.89123636663E+00  0.88000000000E+00 0. -1.
        -11    1    4    4    0    0  0.20070423524E-01  0.73774820067E-02 -0.58727757593E-01  0.62501678170E-01  0.51100000000E-03 0. -1.
         11    1    4    4    0    0  0.30129399331E-01 -0.10837163006E-01 -0.58940742540E-01  0.67078290514E-01  0.51100000000E-03 0.  1.
</event>
<event>
 8    1  0.1095698E+005  0.1043930E+01  0.7957747E-01            NaN
         13   -1    0    0    0    0  0.00000000000E+00  0.00000000000E+00  0.74505805969E-08  0.10566000000E+00  0.10566000000E+00 0. -1.
     999900   -1    0    0    0    0 -0.00000000000E+00 -0.00000000000E+00 -0.74505805969E-08  0.93827000000E+00  0.93827000000E+00 0.  1.
     999902    2    1    2    0    0  0.23333676164E-01 -0.60862684459E-02  0.39911057940E-02  0.10194875772E+01  0.10191945290E+01 0.  0.
     999903    2    3    3    0    0 -0.87423866834E-01 -0.33950687704E-01 -0.82547479684E-01  0.12789765691E+00  0.27352194647E-01 0.  0.
         14    1    1    2    0    0 -0.23333676164E-01  0.60862684459E-02 -0.39911057940E-02  0.24442422801E-01  0.00000000000E+00 0.  1.
     999901    1    3    3    0    0  0.11075754300E+00  0.27864419258E-01  0.86538585478E-01  0.89158992029E+00  0.88000000000E+00 0. -1.
        -11    1    4    4    0    0 -0.30172507938E-01  0.57725344628E-03 -0.32709294629E-01  0.44506994202E-01  0.51100000000E-03 0. -1.
         11    1    4    4    0    0 -0.57251358896E-01 -0.34527941150E-01 -0.49838185056E-01  0.83390662704E-01  0.51100000000E-03 0.  1.
</event>
<event>
 8    1  0.1095698E+005  0.1043930E+01  0.7957747E-01            NaN
         13   -1    0    0    0    0  0.00000000000E+00  0.00000000000E+00  0.74505805969E-08  0.10566000000E+00  0.10566000000E+00 0. -1.
     999900   -1    0    0    0    0 -0.00000000000E+00 -0.00000000000E+00 -0.74505805969E-08  0.93827000000E+00  0.93827000000E+00 0.  1.
     999902    2    1    2    0    0 -0.18627680911E-01 -0.12595774613E-01 -0.62452179023E-02  0.10205923313E+01  0.10203254676E+01 0.  0.
     999903    2    3    3    0    0 -0.12722574699E+00  0.57693330577E-02  0.32247124435E-01  0.13289166240E+00  0.20016018551E-01 0.  0.
         14    1    1    2    0    0  0.18627680911E-01  0.12595774613E-01  0.62452179023E-02  0.23337668711E-01  0.00000000000E+00 0. -1.
     999901    1    3    3    0    0  0.10859806608E+00 -0.18365107671E-01 -0.38492342337E-01  0.88770066889E+00  0.88000000000E+00 0.  1.
        -11    1    4    4    0    0 -0.46029825730E-01  0.91838597386E-02  0.18569392749E-01  0.50479417633E-01  0.51100000000E-03 0.  1.
         11    1    4    4    0    0 -0.81195921260E-01 -0.34145266809E-02  0.13677731686E-01  0.82412244762E-01  0.51100000000E-03 0. -1.
</event>
<event>
 8    1  0.1095698E+005  0.1043930E+01  0.7957747E-01            NaN
         13   -1    0    0    0    0  0.00000000000E+00  0.00000000000E+00  0.74505805969E-08  0.10566000000E+00  0.10566000000E+00 0.  1.
     999900   -1    0    0    0    0 -0.00000000000E+00 -0.00000000000E+00 -0.74505805969E-08  0.93827000000E+00  0.93827000000E+00 0.  1.
     999902    2    1    2    0    0 -0.32574949077E-01  0.10546612499E-01  0.19246277960E-02  0.10096362318E+01  0.10090536448E+01 0.  0.
     999903    2    3    3    0    0  0.98807735072E-01  0.49962727716E-01 -0.36431452630E-01  0.11818447838E+00  0.19521206904E-01 0.  0.
         14    1    1    2    0    0  0.32574949077E-01 -0.10546612499E-01 -0.19246277960E-02  0.34293768162E-01  0.00000000000E+00 0.  1.
     999901    1    3    3    0    0 -0.13138268415E+00 -0.39416115217E-01  0.38356080426E-01  0.89145175346E+00  0.88000000000E+00 0.  1.
        -11    1    4    4    0    0  0.63243912276E-01  0.22142325544E-01 -0.25715877417E-01  0.71774943349E-01  0.51100000000E-03 0. -1.
         11    1    4    4    0    0  0.35563822796E-01  0.27820402172E-01 -0.10715575213E-01  0.46409535034E-01  0.51100000000E-03 0.  1.
</event>
<event>
 8    1  0.1095698E+005  0.1043930E+01  0.7957747E-01            NaN
         13   -1    0    0    0    0  0.00000000000E+00  0.00000000000E+00  0.74505805969E-08  0.10566000000E+00  0.10566000000E+00 0.  1.
     999900   -1    0    0    0    0 -0.00000000000E+00 -0.00000000000E+00 -0.74505805969E-08  0.93827000000E+00  0.93827000000E+00 0. -1.
     999902    2    1    2    0    0  0.88778952600E-02  0.74880312672E-02 -0.21135862130E-01  0.10198133604E+01  0.10195281643E+01 0.  0.
     999903    2    3    3    0    0 -0.11730782549E+00 -0.45360914091E-01  0.16461780213E-01  0.12844955711E+00  0.20237590382E-01 0.  0.
         14    1    1    2    0    0 -0.88778952600E-02 -0.74880312672E-02  0.21135862130E-01  0.24116639577E-01  0.00000000000E+00 0.  1.
     999901    1    3    3    0    0  0.12618572075E+00  0.52848945358E-01 -0.37597642343E-01  0.89136380331E+00  0.88000000000E+00 0. -1.
        -11    1    4    4    0    0 -0.42949317399E-01 -0.20510876646E-01 -0.29165629129E-02  0.47687602016E-01  0.51100000000E-03 0.  1.
         11    1    4    4    0    0 -0.74358508096E-01 -0.24850037444E-01  0.19378343126E-01  0.80761955093E-01  0.51100000000E-03 0. -1.
</event>
<event>
 8    1  0.1095698E+005  0.1043930E+01  0.7957747E-01            NaN
         13   -1    0    0    0    0  0.00000000000E+00  0.00000000000E+00  0.74505805969E-08  0.10566000000E+00  0.10566000000E+00 0. -1.
     999900   -1    0    0    0    0 -0.00000000000E+00 -0.00000000000E+00 -0.74505805969E-08  0.93827000000E+00  0.93827000000E+00 0.  1.
     999902    2    1    2    0    0 -0.74824435382E-02 -0.79239886205E-02 -0.21283451061E-01  0.10200184579E+01  0.10197381490E+01 0.  0.
     999903    2    3    3    0    0 -0.10060487751E+00 -0.51779083702E-01 -0.66655140476E-01  0.13285801734E+00  0.20147707847E-01 0.  0.
         14    1    1    2    0    0  0.74824435382E-02  0.79239886205E-02  0.21283451061E-01  0.23911542109E-01  0.00000000000E+00 0. -1.
     999901    1    3    3    0    0  0.93122433977E-01  0.43855095081E-01  0.45371689416E-01  0.88716044055E+00  0.88000000000E+00 0. -1.
        -11    1    4    4    0    0 -0.81278430226E-01 -0.50132646928E-01 -0.56470202118E-01  0.11094417676E+00  0.51100000000E-03 0.  1.
         11    1    4    4    0    0 -0.19326447289E-01 -0.16464367742E-02 -0.10184938359E-01  0.21913840586E-01  0.51100000000E-03 0. -1.
</event>
<event>
 8    1  0.1095698E+005  0.1043930E+01  0.7957747E-01            NaN
         13   -1    0    0    0    0  0.00000000000E+00  0.00000000000E+00  0.74505805969E-08  0.10566000000E+00  0.10566000000E+00 0.  1.
     999900   -1    0    0    0    0 -0.00000000000E+00 -0.00000000000E+00 -0.74505805969E-08  0.93827000000E+00  0.93827000000E+00 0.  1.
     999902    2    1    2    0    0 -0.16623777726E-02 -0.77918303344E-02 -0.13380129194E-01  0.10283574608E+01  0.10282395456E+01 0.  0.
     999903    2    3    3    0    0  0.12051857091E+00 -0.60555903528E-01  0.19208835893E-01  0.13775414154E+00  0.20383344890E-01 0.  0.
         14    1    1    2    0    0  0.16623777726E-02  0.77918303344E-02  0.13380129194E-01  0.15572539198E-01  0.00000000000E+00 0.  1.
     999901    1    3    3    0    0 -0.12218094868E+00  0.52764073193E-01 -0.32588965087E-01  0.89060331926E+00  0.88000000000E+00 0.  1.
        -11    1    4    4    0    0  0.50869639808E-01 -0.16061091876E-01  0.23298138887E-02  0.53398202968E-01  0.51100000000E-03 0. -1.
         11    1    4    4    0    0  0.69648931099E-01 -0.44494811652E-01  0.16879022004E-01  0.84355938570E-01  0.51100000000E-03 0.  1.
</event>
<event>
 8    1  0.1095698E+005  0.1043930E+01  0.7957747E-01            NaN
         13   -1    0    0    0    0  0.00000000000E+00  0.00000000000E+00  0.74505805969E-08  0.10566000000E+00  0.10566000000E+00 0. -1.
     999900   -1    0    0    0    0 -0.00000000000E+00 -0.00000000000E+00 -0.74505805969E-08  0.93827000000E+00  0.93827000000E+00 0.  1.
     999902    2    1    2    0    0  0.23179437424E-01  0.70911597832E-02  0.98491737075E-02  0.10177655759E+01  0.10174292066E+01 0.  0.
     999903    2    3    3    0    0 -0.79016453227E-01 -0.24409986324E-01 -0.91924554673E-01  0.12546842019E+00  0.21278002754E-01 0.  0.
         14    1    1    2    0    0 -0.23179437424E-01 -0.70911597832E-02 -0.98491737075E-02  0.26164424111E-01  0.00000000000E+00 0. -1.
     999901    1    3    3    0    0  0.10219589065E+00  0.31501146107E-01  0.10177372838E+00  0.89229715569E+00  0.88000000000E+00 0. -1.
        -11    1    4    4    0    0 -0.67988916802E-01 -0.14085529370E-01 -0.81702070228E-01  0.10722119355E+00  0.51100000000E-03 0.  1.
         11    1    4    4    0    0 -0.11027536425E-01 -0.10324456954E-01 -0.10222484445E-01  0.18247226645E-01  0.51100000000E-03 0. -1.
</event>
<event>
 8    1  0.1095698E+005  0.1043930E+01  0.7957747E-01            NaN
         13   -1    0    0    0    0  0.00000000000E+00  0.00000000000E+00  0.74505805969E-08  0.10566000000E+00  0.10566000000E+00 0. -1.
     999900   -1    0    0    0    0 -0.00000000000E+00 -0.00000000000E+00 -0.74505805969E-08  0.93827000000E+00  0.93827000000E+00 0. -1.
     999902    2    1    2    0    0  0.20751835215E-01 -0.10637362052E-01  0.52953239774E-02  0.10200169786E+01  0.10197366347E+01 0.  0.
     999903    2    3    3    0    0 -0.76735843522E-01 -0.10917914150E-01  0.10169238555E+00  0.12940128163E+00  0.19893714570E-01 0.  0.
         14    1    1    2    0    0 -0.20751835215E-01  0.10637362052E-01 -0.52953239774E-02  0.23913021395E-01  0.00000000000E+00 0. -1.
     999901    1    3    3    0    0  0.97487678737E-01  0.28055209778E-03 -0.96397061569E-01  0.89061569697E+00  0.88000000000E+00 0. -1.
        -11    1    4    4    0    0 -0.42372809457E-01  0.26892809179E-02  0.46442837101E-01  0.62927620741E-01  0.51100000000E-03 0. -1.
         11    1    4    4    0    0 -0.34363034064E-01 -0.13607195068E-01  0.55249548446E-01  0.66473660891E-01  0.51100000000E-03 0.  1.
</event>
<event>
 8    1  0.1095698E+005  0.1043930E+01  0.7957747E-01            NaN
         13   -1    0    0    0    0  0.00000000000E+00  0.00000000000E+00  0.74505805969E-08  0.10566000000E+00  0.10566000000E+00 0. -1.
     999900   -1    0    0    0    0 -0.00000000000E+00 -0.00000000000E+00 -0.74505805969E-08  0.93827000000E+00  0.93827000000E+00 0.  1.
     999902    2    1    2    0    0 -0.14974446380E-01  0.17976002772E-01  0.35752652292E-02  0.10202624433E+01  0.10199878920E+01 0.  0.
     999903    2    3    3    0    0 -0.39175815471E-01  0.10325564811E+00 -0.70935481150E-01  0.13267572892E+00  0.19352859580E-01 0.  0.
         14    1    1    2    0    0  0.14974446380E-01 -0.17976002772E-01 -0.35752652292E-02  0.23667556729E-01  0.00000000000E+00 0.  1.
     999901    1    3    3    0    0  0.24201369091E-01 -0.85279645334E-01  0.74510746379E-01  0.88758671436E+00  0.88000000000E+00 0. -1.
        -11    1    4    4    0    0 -0.29397483202E-01  0.50274010734E-01 -0.36540339396E-01  0.68754241310E-01  0.51100000000E-03 0.  1.
         11    1    4    4    0    0 -0.97783322688E-02  0.52981637372E-01 -0.34395141753E-01  0.63921487606E-01  0.51100000000E-03 0. -1.
</event>
<event>
 8    1  0.1095698E+005  0.1043930E+01  0.7957747E-01            NaN
         13   -1    0    0    0    0  0.00000000000E+00  0.00000000000E+00  0.74505805969E-08  0.10566000000E+00  0.10566000000E+00 0. -1.
     999900   -1    0    0    0    0 -0.00000000000E+00 -0.00000000000E+00 -0.74505805969E-08  0.93827000000E+00  0.93827000000E+00 0.  1.
     999902    2    1    2    0    0  0.16672349452E-01  0.14994191163E-01  0.58962219553E-02  0.10207446935E+01  0.10204813427E+01 0.  0.
     999903    2    3    3    0    0  0.86697753704E-01 -0.92084559807E-01 -0.27217877348E-01  0.13087618650E+00  0.19791328739E-01 0.  0.
         14    1    1    2    0    0 -0.16672349452E-01 -0.14994191163E-01 -0.58962219553E-02  0.23185306515E-01  0.00000000000E+00 0. -1.
     999901    1    3    3    0    0 -0.70025404252E-01  0.10707875097E+00  0.33114099303E-01  0.88986850698E+00  0.88000000000E+00 0. -1.
        -11    1    4    4    0    0  0.30959336929E-01 -0.21205980966E-01 -0.38471945347E-02  0.37725802822E-01  0.51100000000E-03 0. -1.
         11    1    4    4    0    0  0.55738416775E-01 -0.70878578842E-01 -0.23370682813E-01  0.93150383678E-01  0.51100000000E-03 0.  1.
</event>
<event>
 8    1  0.1095698E+005  0.1043930E+01  0.7957747E-01            NaN
         13   -1    0    0    0    0  0.00000000000E+00  0.00000000000E+00  0.74505805969E-08  0.10566000000E+00  0.10566000000E+00 0.  1.
     999900   -1    0    0    0    0 -0.00000000000E+00 -0.00000000000E+00 -0.74505805969E-08  0.93827000000E+00  0.93827000000E+00 0.  1.
     999902    2    1    2    0    0 -0.92273610974E-03 -0.18660720393E-01 -0.15982045580E-01  0.10193434242E+01  0.10190468668E+01 0.  0.
     999903    2    3    3    0    0  0.66217904591E-01 -0.10323502217E+00  0.41163806642E-01  0.13090303422E+00  0.19971597355E-01 0.  0.
         14    1    1    2    0    0  0.92273610974E-03  0.18660720393E-01  0.15982045580E-01  0.24586575777E-01  0.00000000000E+00 0.  1.
     999901    1    3    3    0    0 -0.67140640701E-01  0.84574301778E-01 -0.57145852222E-01  0.88844039000E+00  0.88000000000E+00 0. -1.
        -11    1    4    4    0    0  0.43850636376E-01 -0.54377056917E-01  0.29960085317E-01  0.76010594411E-01  0.51100000000E-03 0.  1.
         11    1    4    4    0    0  0.22367268215E-01 -0.48857965254E-01  0.11203721325E-01  0.54892439813E-01  0.51100000000E-03 0. -1.
</event>
<event>
 8    1  0.1095698E+005  0.1043930E+01  0.7957747E-01            NaN
         13   -1    0    0    0    0  0.00000000000E+00  0.00000000000E+00  0.74505805969E-08  0.10566000000E+00  0.10566000000E+00 0. -1.
     999900   -1    0    0    0    0 -0.00000000000E+00 -0.00000000000E+00 -0.74505805969E-08  0.93827000000E+00  0.93827000000E+00 0. -1.
     999902    2    1    2    0    0 -0.14405510441E-01 -0.15694779830E-01 -0.10730631067E-01  0.10200764617E+01  0.10197975272E+01 0.  0.
     999903    2    3    3    0    0  0.10482820410E+00  0.99017560913E-02 -0.72779459615E-01  0.12950253529E+00  0.19673834293E-01 0.  0.
         14    1    1    2    0    0  0.14405510441E-01  0.15694779830E-01  0.10730631067E-01  0.23853538272E-01  0.00000000000E+00 0. -1.
     999901    1    3    3    0    0 -0.11923371454E+00 -0.25596535921E-01  0.62048828548E-01  0.89057392644E+00  0.88000000000E+00 0. -1.
        -11    1    4    4    0    0  0.68261198245E-01  0.11237111272E-01 -0.57048547777E-01  0.89669737259E-01  0.51100000000E-03 0.  1.
         11    1    4    4    0    0  0.36567005852E-01 -0.13353551808E-02 -0.15730911838E-01  0.39832798028E-01  0.51100000000E-03 0. -1.
</event>
<event>
 8    1  0.1095698E+005  0.1043930E+01  0.7957747E-01            NaN
         13   -1    0    0    0    0  0.00000000000E+00  0.00000000000E+00  0.74505805969E-08  0.10566000000E+00  0.10566000000E+00 0. -1.
     999900   -1    0    0    0    0 -0.00000000000E+00 -0.00000000000E+00 -0.74505805969E-08  0.93827000000E+00  0.93827000000E+00 0.  1.
     999902    2    1    2    0    0 -0.23589994739E-01  0.42089410910E-02 -0.27692646726E-03  0.10199658659E+01  0.10196843079E+01 0.  0.
     999903    2    3    3    0    0 -0.92903025618E-01  0.12053681942E-02 -0.92247286708E-01  0.13245706880E+00  0.20072072330E-01 0.  0.
         14    1    1    2    0    0  0.23589994739E-01 -0.42089410910E-02  0.27692646726E-03  0.23964134142E-01  0.00000000000E+00 0.  1.
     999901    1    3    3    0    0  0.69313030879E-01  0.30035728967E-02  0.91970360241E-01  0.88750879706E+00  0.88000000000E+00 0. -1.
        -11    1    4    4    0    0 -0.56564639423E-01  0.59164564009E-02 -0.44207522626E-01  0.72035609716E-01  0.51100000000E-03 0.  1.
         11    1    4    4    0    0 -0.36338386195E-01 -0.47110882067E-02 -0.48039764082E-01  0.60421459080E-01  0.51100000000E-03 0. -1.
</event>
<event>
 8    1  0.1095698E+005  0.1043930E+01  0.7957747E-01            NaN
         13   -1    0    0    0    0  0.00000000000E+00  0.00000000000E+00  0.74505805969E-08  0.10566000000E+00  0.10566000000E+00 0. -1.
     999900   -1    0    0    0    0 -0.00000000000E+00 -0.00000000000E+00 -0.74505805969E-08  0.93827000000E+00  0.93827000000E+00 0.  1.
     999902    2    1    2    0    0 -0.24182025160E-01  0.19004306287E-02 -0.10645954061E-02  0.10196500630E+01  0.10193609447E+01 0.  0.
     999903    2    3    3    0    0 -0.11305312568E+00  0.61138394792E-01  0.28058489977E-01  0.13271412224E+00  0.17517044225E-01 0.  0.
         14    1    1    2    0    0  0.24182025160E-01 -0.19004306287E-02  0.10645954061E-02  0.24279937001E-01  0.00000000000E+00 0. -1.
     999901    1    3    3    0    0  0.88871100521E-01 -0.59237964164E-01 -0.29123085383E-01  0.88693594076E+00  0.88000000000E+00 0. -1.
        -11    1    4    4    0    0 -0.85870985385E-01  0.40093025367E-01  0.25995156625E-01  0.98271491812E-01  0.51100000000E-03 0. -1.
         11    1    4    4    0    0 -0.27182140296E-01  0.21045369425E-01  0.20633333521E-02  0.34442630429E-01  0.51100000000E-03 0.  1.
</event>
<event>
 8    1  0.1095698E+005  0.1043930E+01  0.7957747E-01            NaN
         13   -1    0    0    0    0  0.00000000000E+00  0.00000000000E+00  0.74505805969E-08  0.10566000000E+00  0.10566000000E+00 0.  1.
     999900   -1    0    0    0    0 -0.00000000000E+00 -0.00000000000E+00 -0.74505805969E-08  0.93827000000E+00  0.93827000000E+00 0. -1.
     999902    2    1    2    0    0  0.23572215831E-01 -0.23402592476E-02 -0.65895611181E-03  0.10202327344E+01  0.10199574854E+01 0.  0.
     999903    2    3    3    0    0 -0.94950411019E-01 -0.19944244957E-01  0.81449106781E-01  0.12832508933E+00  0.20494343036E-01 0.  0.
         14    1    1    2    0    0 -0.23572215831E-01  0.23402592476E-02  0.65895611181E-03  0.23697265574E-01  0.00000000000E+00 0.  1.
     999901    1    3    3    0    0  0.11852262685E+00  0.17603985709E-01 -0.82108062893E-01  0.89190764510E+00  0.88000000000E+00 0.  1.
        -11    1    4    4    0    0 -0.61817200454E-01 -0.22830298799E-01  0.54313193443E-01  0.85397733683E-01  0.51100000000E-03 0.  1.
         11    1    4    4    0    0 -0.33133210566E-01  0.28860538422E-02  0.27135913337E-01  0.42927355647E-01  0.51100000000E-03 0. -1.
</event>
<event>
 8    1  0.1095698E+005  0.1043930E+01  0.7957747E-01            NaN
         13   -1    0    0    0    0  0.00000000000E+00  0.00000000000E+00  0.74505805969E-08  0.10566000000E+00  0.10566000000E+00 0. -1.
     999900   -1    0    0    0    0 -0.00000000000E+00 -0.00000000000E+00 -0.74505805969E-08  0.93827000000E+00  0.93827000000E+00 0.  1.
     999902    2    1    2    0    0 -0.49725766428E-02 -0.16978733038E-01  0.14820998362E-01  0.10208504444E+01  0.10205895179E+01 0.  0.
     999903    2    3    3    0    0 -0.32296534584E-01 -0.12637741609E+00 -0.16934264089E-01  0.13308748774E+00  0.20277885725E-01 0.  0.
         14    1    1    2    0    0  0.49725766428E-02  0.16978733038E-01 -0.14820998362E-01  0.23079555595E-01  0.00000000000E+00 0. -1.
     999901    1    3    3    0    0  0.27323957941E-01  0.10939868305E+00  0.31755262450E-01  0.88776295666E+00  0.88000000000E+00 0. -1.
        -11    1    4    4    0    0 -0.23543681439E-01 -0.83063377662E-01 -0.17359005869E-02  0.86354525742E-01  0.51100000000E-03 0. -1.
         11    1    4    4    0    0 -0.87528531447E-02 -0.43314038427E-01 -0.15198363502E-01  0.46732961999E-01  0.51100000000E-03 0.  1.
</event>
<event>
 8    1  0.1095698E+005  0.1043930E+01  0.7957747E-01            NaN
         13   -1    0    0    0    0  0.00000000000E+00  0.00000000000E+00  0.74505805969E-08  0.10566000000E+00  0.10566000000E+00 0. -1.
     999900   -1    0    0    0    0 -0.00000000000E+00 -0.00000000000E+00 -0.74505805969E-08  0.93827000000E+00  0.93827000000E+00 0. -1.
     999902    2    1    2    0    0  0.15630777498E-01 -0.42240204364E-02 -0.18033187513E-01  0.10196945011E+01  0.10194064529E+01 0.  0.
     999903    2    3    3    0    0 -0.15462444825E-01  0.11616318558E+00  0.48655034455E-01  0.12845537115E+00  0.20012424062E-01 0.  0.
         14    1    1    2    0    0 -0.15630777498E-01  0.42240204364E-02  0.18033187513E-01  0.24235498875E-01  0.00000000000E+00 0. -1.
     999901    1    3    3    0    0  0.31093222323E-01 -0.12038720601E+00 -0.66688221967E-01  0.89123912997E+00  0.88000000000E+00 0. -1.
        -11    1    4    4    0    0 -0.90549517968E-02  0.10089190039E+00  0.47397038013E-01  0.11183875915E+00  0.51100000000E-03 0. -1.
         11    1    4    4    0    0 -0.64074930279E-02  0.15271285190E-01  0.12579964414E-02  0.16616611998E-01  0.51100000000E-03 0.  1.
</event>
<event>
 8    1  0.1095698E+005  0.1043930E+01  0.7957747E-01            NaN
         13   -1    0    0    0    0  0.00000000000E+00  0.00000000000E+00  0.74505805969E-08  0.10566000000E+00  0.10566000000E+00 0.  1.
     999900   -1    0    0    0    0 -0.00000000000E+00 -0.00000000000E+00 -0.74505805969E-08  0.93827000000E+00  0.93827000000E+00 0. -1.
     999902    2    1    2    0    0 -0.17175214340E-02  0.22889904988E-01  0.65446922355E-02  0.10200609693E+01  0.10197816680E+01 0.  0.
     999903    2    3    3    0    0 -0.62325709967E-01  0.88288569805E-01  0.74751148909E-01  0.13292937894E+00  0.20077844532E-01 0.  0.
         14    1    1    2    0    0  0.17175214340E-02 -0.22889904988E-01 -0.65446922355E-02  0.23869030703E-01  0.00000000000E+00 0. -1.
     999901    1    3    3    0    0  0.60608188533E-01 -0.65398664817E-01 -0.68206456674E-01  0.88713159036E+00  0.88000000000E+00 0. -1.
        -11    1    4    4    0    0 -0.26599180213E-01  0.54893013290E-01  0.40469341073E-01  0.73203742964E-01  0.51100000000E-03 0. -1.
         11    1    4    4    0    0 -0.35726529754E-01  0.33395556515E-01  0.34281807836E-01  0.59725635976E-01  0.51100000000E-03 0.  1.
</event>
<event>
 8    1  0.1095698E+005  0.1043930E+01  0.7957747E-01            NaN
         13   -1    0    0    0    0  0.00000000000E+00  0.00000000000E+00  0.74505805969E-08  0.10566000000E+00  0.10566000000E+00 0. -1.
     999900   -1    0    0    0    0 -0.00000000000E+00 -0.00000000000E+00 -0.74505805969E-08  0.93827000000E+00  0.93827000000E+00 0. -1.
     999902    2    1    2    0    0  0.12003749537E-01 -0.18760744520E-01 -0.54674523392E-02  0.10209964313E+01  0.10207388325E+01 0.  0.
     999903    2    3    3    0    0  0.67219152073E-01 -0.13704226835E-02  0.11104878025E+00  0.13143069656E+00  0.20540300384E-01 0.  0.
         14    1    1    2    0    0 -0.12003749537E-01  0.18760744520E-01  0.54674523392E-02  0.22933568692E-01  0.00000000000E+00 0. -1.
     999901    1    3    3    0    0 -0.55215402536E-01 -0.17390321836E-01 -0.11651623259E+00  0.88956573474E+00  0.88000000000E+00 0. -1.
        -11    1    4    4    0    0  0.58863113267E-01 -0.41201381364E-02  0.81660994454E-01  0.10075028922E+00  0.51100000000E-03 0.  1.
         11    1    4    4    0    0  0.83560388060E-02  0.27497154529E-02  0.29387785800E-01  0.30680407344E-01  0.51100000000E-03 0. -1.
</event>
<event>
 8    1  0.1095698E+005  0.1043930E+01  0.7957747E-01            NaN
         13   -1    0    0    0    0  0.00000000000E+00  0.00000000000E+00  0.74505805969E-08  0.10566000000E+00  0.10566000000E+00 0. -1.
     999900   -1    0    0    0    0 -0.00000000000E+00 -0.00000000000E+00 -0.74505805969E-08  0.93827000000E+00  0.93827000000E+00 0. -1.
     999902    2    1    2    0    0 -0.13556955382E-01 -0.12454781784E-01  0.10632537453E-01  0.10226705672E+01  0.10224495712E+01 0.  0.
     999903    2    3    3    0    0 -0.96827730071E-01  0.83849037677E-01  0.30623686982E-01  0.13328420934E+00  0.20508530554E-01 0.  0.
         14    1    1    2    0    0  0.13556955382E-01  0.12454781784E-01 -0.10632537453E-01  0.21259432758E-01  0.00000000000E+00 0.  1.
     999901    1    3    3    0    0  0.83270774689E-01 -0.96303819461E-01 -0.19991149529E-01  0.88938635790E+00  0.88000000000E+00 0.  1.
        -11    1    4    4    0    0 -0.65497224395E-01  0.64261669522E-01  0.14221410114E-01  0.92854500159E-01  0.51100000000E-03 0.  1.
         11    1    4    4    0    0 -0.31330505675E-01  0.19587368155E-01  0.16402276868E-01  0.40429709182E-01  0.51100000000E-03 0. -1.
</event>
<event>
 8    1  0.1095698E+005  0.1043930E+01  0.7957747E-01            NaN
         13   -1    0    0    0    0  0.00000000000E+00  0.00000000000E+00  0.74505805969E-08  0.10566000000E+00  0.10566000000E+00 0.  1.
     999900   -1    0    0    0    0 -0.00000000000E+00 -0.00000000000E+00 -0.74505805969E-08  0.93827000000E+00  0.93827000000E+00 0. -1.
     999902    2    1    2    0    0  0.18678925018E-01 -0.66919312793E-02 -0.11440573538E-01  0.10210264870E+01  0.10207695706E+01 0.  0.
     999903    2    3    3    0    0 -0.12712200402E+00 -0.31752628420E-03  0.61687035329E-02  0.12883332935E+00  0.19996727729E-01 0.  0.
         14    1    1    2    0    0 -0.18678925018E-01  0.66919312793E-02  0.11440573538E-01  0.22903512983E-01  0.00000000000E+00 0. -1.
     999901    1    3    3    0    0  0.14580092904E+00 -0.63744049951E-02 -0.17609277071E-01  0.89219315767E+00  0.88000000000E+00 0. -1.
        -11    1    4    4    0    0 -0.73300381910E-01  0.94099661501E-02  0.12177872977E-02  0.73913717116E-01  0.51100000000E-03 0.  1.
         11    1    4    4    0    0 -0.53821622109E-01 -0.97274924343E-02  0.49509162352E-02  0.54919612235E-01  0.51100000000E-03 0. -1.
</event>
<event>
 8    1  0.1095698E+005  0.1043930E+01  0.7957747E-01            NaN
         13   -1    0    0    0    0  0.00000000000E+00  0.00000000000E+00  0.74505805969E-08  0.10566000000E+00  0.10566000000E+00 0. -1.
     999900   -1    0    0    0    0 -0.00000000000E+00 -0.00000000000E+00 -0.74505805969E-08  0.93827000000E+00  0.93827000000E+00 0.  1.
     999902    2    1    2    0    0 -0.19896689875E-01 -0.71084938177E-02 -0.11052878555E-01  0.10200851876E+01  0.10198064596E+01 0.  0.
     999903    2    3    3    0    0  0.11411834274E+00 -0.55489292279E-01 -0.55676130727E-02  0.12860842475E+00  0.20175997982E-01 0.  0.
         14    1    1    2    0    0  0.19896689875E-01  0.71084938177E-02  0.11052878555E-01  0.23844812364E-01  0.00000000000E+00 0. -1.
     999901    1    3    3    0    0 -0.13401503261E+00  0.48380798461E-01 -0.54852654820E-02  0.89147676288E+00  0.88000000000E+00 0. -1.
        -11    1    4    4    0    0  0.98198773415E-01 -0.54971457042E-01 -0.54620223767E-02  0.11267189090E+00  0.51100000000E-03 0.  1.
         11    1    4    4    0    0  0.15919569323E-01 -0.51783523626E-03 -0.10559069594E-03  0.15936533851E-01  0.51100000000E-03 0. -1.
</event>
<event>
 8    1  0.1095698E+005  0.1043930E+01  0.7957747E-01            NaN
         13   -1    0    0    0    0  0.00000000000E+00  0.00000000000E+00  0.74505805969E-08  0.10566000000E+00  0.10566000000E+00 0. -1.
     999900   -1    0    0    0    0 -0.00000000000E+00 -0.00000000000E+00 -0.74505805969E-08  0.93827000000E+00  0.93827000000E+00 0.  1.
     999902    2    1    2    0    0 -0.16288530170E-01 -0.50980849755E-02 -0.18867122498E-01  0.10184884003E+01  0.10181705881E+01 0.  0.
     999903    2    3    3    0    0 -0.29605172166E-01 -0.39038354915E-01  0.11592376784E+00  0.12747893960E+00  0.20300264014E-01 0.  0.
         14    1    1    2    0    0  0.16288530170E-01  0.50980849755E-02  0.18867122498E-01  0.25441599731E-01  0.00000000000E+00 0. -1.
     999901    1    3    3    0    0  0.13316641995E-01  0.33940269940E-01 -0.13479089034E+00  0.89100946067E+00  0.88000000000E+00 0.  1.
        -11    1    4    4    0    0 -0.45409691879E-02 -0.65323256753E-02  0.55363979921E-02  0.97059004538E-02  0.51100000000E-03 0.  1.
         11    1    4    4    0    0 -0.25064202978E-01 -0.32506029240E-01  0.11038736985E+00  0.11777303915E+00  0.51100000000E-03 0. -1.
</event>
<event>
 8    1  0.1095698E+005  0.1043930E+01  0.7957747E-01            NaN
         13   -1    0    0    0    0  0.00000000000E+00  0.00000000000E+00  0.74505805969E-08  0.10566000000E+00  0.10566000000E+00 0.  1.
     999900   -1    0    0    0    0 -0.00000000000E+00 -0.00000000000E+00 -0.74505805969E-08  0.93827000000E+00  0.93827000000E+00 0.  1.
     999902    2    1    2    0    0  0.65178276149E-02 -0.96049331895E-03  0.22875149860E-01  0.10201250193E+01  0.10198472326E+01 0.  0.
     999903    2    3    3    0    0  0.64671232882E-04  0.68042917155E-02  0.13161026989E+00  0.13337518907E+00  0.20527429224E-01 0.  0.
         14    1    1    2    0    0 -0.65178276149E-02  0.96049331895E-03 -0.22875149860E-01  0.23804980684E-01  0.00000000000E+00 0. -1.
     999901    1    3    3    0    0  0.64531563820E-02 -0.77647850345E-02 -0.10873512003E+00  0.88674983025E+00  0.88000000000E+00 0.  1.
        -11    1    4    4    0    0  0.97452965530E-02  0.63511557056E-02  0.61017681988E-01  0.62118649534E-01  0.51100000000E-03 0. -1.
         11    1    4    4    0    0 -0.96806253201E-02  0.45313600995E-03  0.70592587903E-01  0.71256539536E-01  0.51100000000E-03 0.  1.
</event>
<event>
 8    1  0.1095698E+005  0.1043930E+01  0.7957747E-01            NaN
         13   -1    0    0    0    0  0.00000000000E+00  0.00000000000E+00  0.74505805969E-08  0.10566000000E+00  0.10566000000E+00 0.  1.
     999900   -1    0    0    0    0 -0.00000000000E+00 -0.00000000000E+00 -0.74505805969E-08  0.93827000000E+00  0.93827000000E+00 0. -1.
     999902    2    1    2    0    0 -0.23318395390E-01  0.18707791900E-02 -0.67970840376E-02  0.10195692174E+01  0.10192781472E+01 0.  0.
     999903    2    3    3    0    0  0.63543028380E-01  0.74057024432E-01 -0.82180920250E-01  0.12915443555E+00  0.20124742134E-01 0.  0.
         14    1    1    2    0    0  0.23318395390E-01 -0.18707791900E-02  0.67970840376E-02  0.24360782618E-01  0.00000000000E+00 0. -1.
     999901    1    3    3    0    0 -0.86861423770E-01 -0.72186245242E-01  0.75383836213E-01  0.89041478183E+00  0.88000000000E+00 0.  1.
        -11    1    4    4    0    0  0.27199818598E-01  0.44414170188E-01 -0.50565514407E-01  0.72591879804E-01  0.51100000000E-03 0. -1.
         11    1    4    4    0    0  0.36343209782E-01  0.29642854244E-01 -0.31615405843E-01  0.56562555747E-01  0.51100000000E-03 0.  1.
</event>
<event>
 8    1  0.1095698E+005  0.1043930E+01  0.7957747E-01            NaN
         13   -1    0    0    0    0  0.00000000000E+00  0.00000000000E+00  0.74505805969E-08  0.10566000000E+00  0.10566000000E+00 0. -1.
     999900   -1    0    0    0    0 -0.00000000000E+00 -0.00000000000E+00 -0.74505805969E-08  0.93827000000E+00  0.93827000000E+00 0.  1.
     999902    2    1    2    0    0  0.24662363102E-02 -0.13353161134E-03 -0.24265984875E-01  0.10195386455E+01  0.10192468354E+01 0.  0.
     999903    2    3    3    0    0  0.76173128342E-01 -0.10143083010E+00 -0.23568541217E-01  0.13066613775E+00  0.20678603491E-01 0.  0.
         14    1    1    2    0    0 -0.24662363102E-02  0.13353161134E-03  0.24265984875E-01  0.24391354496E-01  0.00000000000E+00 0. -1.
     999901    1    3    3    0    0 -0.73706892032E-01  0.10129729849E+00 -0.69744365746E-03  0.88887250775E+00  0.88000000000E+00 0.  1.
        -11    1    4    4    0    0  0.38907018981E-01 -0.38953252355E-01 -0.16990963126E-01  0.57620013398E-01  0.51100000000E-03 0. -1.
         11    1    4    4    0    0  0.37266109361E-01 -0.62477577748E-01 -0.65775780907E-02  0.73046124351E-01  0.51100000000E-03 0.  1.
</event>
<event>
 8    1  0.1095698E+005  0.1043930E+01  0.7957747E-01            NaN
         13   -1    0    0    0    0  0.00000000000E+00  0.00000000000E+00  0.74505805969E-08  0.10566000000E+00  0.10566000000E+00 0. -1.
     999900   -1    0    0    0    0 -0.00000000000E+00 -0.00000000000E+00 -0.74505805969E-08  0.93827000000E+00  0.93827000000E+00 0.  1.
     999902    2    1    2    0    0  0.22482402511E-02  0.15353288948E-01  0.26439769730E-01  0.10132731983E+01  0.10128093280E+01 0.  0.
     999903    2    3    3    0    0  0.11579514337E+00  0.20604280382E-01  0.37631588209E-01  0.12589180967E+00  0.24485908464E-01 0.  0.
         14    1    1    2    0    0 -0.22482402511E-02 -0.15353288948E-01 -0.26439769730E-01  0.30656801677E-01  0.00000000000E+00 0.  1.
     999901    1    3    3    0    0 -0.11354690312E+00 -0.52509914340E-02 -0.11191818480E-01  0.88738138865E+00  0.88000000000E+00 0.  1.
        -11    1    4    4    0    0  0.90834721058E-01  0.58010355898E-02  0.30606607858E-01  0.96029287872E-01  0.51100000000E-03 0. -1.
         11    1    4    4    0    0  0.24960422313E-01  0.14803244792E-01  0.70249803510E-02  0.29862521802E-01  0.51100000000E-03 0.  1.
</event>
<event>
 8    1  0.1095698E+005  0.1043930E+01  0.7957747E-01            NaN
         13   -1    0    0    0    0  0.00000000000E+00  0.00000000000E+00  0.74505805969E-08  0.10566000000E+00  0.10566000000E+00 0. -1.
     999900   -1    0    0    0    0 -0.00000000000E+00 -0.00000000000E+00 -0.74505805969E-08  0.93827000000E+00  0.93827000000E+00 0.  1.
     999902    2    1    2    0    0  0.58423932005E-02  0.20495276998E-01  0.90467788404E-02  0.10207775888E+01  0.10205149933E+01 0.  0.
     999903    2    3    3    0    0  0.13875340329E-01 -0.12146685199E+00 -0.33530589446E-01  0.12834798003E+00  0.20054484466E-01 0.  0.
         14    1    1    2    0    0 -0.58423932005E-02 -0.20495276998E-01 -0.90467788404E-02  0.23152411211E-01  0.00000000000E+00 0.  1.
     999901    1    3    3    0    0 -0.80329471285E-02  0.14196212899E+00  0.42577368286E-01  0.89242960876E+00  0.88000000000E+00 0. -1.
        -11    1    4    4    0    0  0.83348078567E-02 -0.41586804978E-01 -0.20892871422E-01  0.47283237701E-01  0.51100000000E-03 0. -1.
         11    1    4    4    0    0  0.55405324724E-02 -0.79880047010E-01 -0.12637718024E-01  0.81064742325E-01  0.51100000000E-03 0.  1.
</event>
<event>
 8    1  0.1095698E+005  0.1043930E+01  0.7957747E-01            NaN
         13   -1    0    0    0    0  0.00000000000E+00  0.00000000000E+00  0.74505805969E-08  0.10566000000E+00  0.10566000000E+00 0.  1.
     999900   -1    0    0    0    0 -0.00000000000E+00 -0.00000000000E+00 -0.74505805969E-08  0.93827000000E+00  0.93827000000E+00 0.  1.
     999902    2    1    2    0    0  0.19395331997E-01  0.74456039508E-02 -0.12112549084E-01  0.10198815122E+01  0.10195979448E+01 0.  0.
     999903    2    3    3    0    0 -0.64269450240E-01 -0.26731109956E-01  0.10497698204E+00  0.12753751916E+00  0.20013434584E-01 0.  0.
         14    1    1    2    0    0 -0.19395331997E-01 -0.74456039508E-02  0.12112549084E-01  0.24048487827E-01  0.00000000000E+00 0.  1.
     999901    1    3    3    0    0  0.83664782236E-01  0.34176713907E-01 -0.11708953112E+00  0.89234399301E+00  0.88000000000E+00 0.  1.
        -11    1    4    4    0    0 -0.16122758595E-01  0.16000227945E-02  0.18643093568E-01  0.24704847225E-01  0.51100000000E-03 0. -1.
         11    1    4    4    0    0 -0.48146691645E-01 -0.28331132751E-01  0.86333888467E-01  0.10283267194E+00  0.51100000000E-03 0.  1.
</event>
<event>
 8    1  0.1095698E+005  0.1043930E+01  0.7957747E-01            NaN
         13   -1    0    0    0    0  0.00000000000E+00  0.00000000000E+00  0.74505805969E-08  0.10566000000E+00  0.10566000000E+00 0. -1.
     999900   -1    0    0    0    0 -0.00000000000E+00 -0.00000000000E+00 -0.74505805969E-08  0.93827000000E+00  0.93827000000E+00 0. -1.
     999902    2    1    2    0    0  0.70582882680E-02 -0.54376411303E-04  0.22368458942E-01  0.10204742897E+01  0.10202046881E+01 0.  0.
     999903    2    3    3    0    0  0.57104757915E-01  0.10294566623E+00  0.57090877539E-01  0.13237558783E+00  0.20128695561E-01 0.  0.
         14    1    1    2    0    0 -0.70582882680E-02  0.54376411303E-04 -0.22368458942E-01  0.23455710297E-01  0.00000000000E+00 0.  1.
     999901    1    3    3    0    0 -0.50046469647E-01 -0.10300004264E+00 -0.34722418596E-01  0.88809870187E+00  0.88000000000E+00 0. -1.
        -11    1    4    4    0    0  0.27554836415E-01  0.33994700809E-01  0.27776966931E-01  0.51833673474E-01  0.51100000000E-03 0.  1.
         11    1    4    4    0    0  0.29549921500E-01  0.68950965418E-01  0.29313910608E-01  0.80541914360E-01  0.51100000000E-03 0. -1.
</event>
<event>
 8    1  0.1095698E+005  0.1043930E+01  0.7957747E-01            NaN
         13   -1    0    0    0    0  0.00000000000E+00  0.00000000000E+00  0.74505805969E-08  0.10566000000E+00  0.10566000000E+00 0. -1.
     999900   -1    0    0    0    0 -0.00000000000E+00 -0.00000000000E+00 -0.74505805969E-08  0.93827000000E+00  0.93827000000E+00 0. -1.
     999902    2    1    2    0    0  0.23443331498E-02 -0.15781261091E-01 -0.17573317410E-01  0.10201946764E+01  0.10199185322E+01 0.  0.
     999903    2    3    3    0    0  0.28841084593E-03 -0.89178657016E-01  0.94156531532E-01  0.13009638766E+00  0.10329646891E-01 0.  0.
         14    1    1    2    0    0 -0.23443331498E-02  0.15781261091E-01  0.17573317410E-01  0.23735323556E-01  0.00000000000E+00 0. -1.
     999901    1    3    3    0    0  0.20559223039E-02  0.73397395925E-01 -0.11172984894E+00  0.89009828878E+00  0.88000000000E+00 0. -1.
        -11    1    4    4    0    0  0.43794534981E-02 -0.49563160094E-01  0.48103587504E-01  0.69209122976E-01  0.51100000000E-03 0. -1.
         11    1    4    4    0    0 -0.40910426522E-02 -0.39615496922E-01  0.46052944029E-01  0.60887264687E-01  0.51100000000E-03 0.  1.
</event>
<event>
 8    1  0.1095698E+005  0.1043930E+01  0.7957747E-01            NaN
         13   -1    0    0    0    0  0.00000000000E+00  0.00000000000E+00  0.74505805969E-08  0.10566000000E+00  0.10566000000E+00 0.  1.
     999900   -1    0    0    0    0 -0.00000000000E+00 -0.00000000000E+00 -0.74505805969E-08  0.93827000000E+00  0.93827000000E+00 0.  1.
     999902    2    1    2    0    0 -0.68317958034E-02 -0.27552283828E-02 -0.20436727033E-01  0.10222061760E+01  0.10219753137E+01 0.  0.
     999903    2    3    3    0    0  0.81031423907E-01  0.19594256555E-01  0.97778600793E-01  0.12968485492E+00  0.17535115389E-01 0.  0.
         14    1    1    2    0    0  0.68317958034E-02  0.27552283828E-02  0.20436727033E-01  0.21723824000E-01  0.00000000000E+00 0.  1.
     999901    1    3    3    0    0 -0.87863219710E-01 -0.22349484938E-01 -0.11821532783E+00  0.89252132108E+00  0.88000000000E+00 0.  1.
        -11    1    4    4    0    0  0.66199706933E-01  0.10093625949E-01  0.70728485383E-01  0.97401551571E-01  0.51100000000E-03 0.  1.
         11    1    4    4    0    0  0.14831716974E-01  0.95006306066E-02  0.27050115409E-01  0.32283303347E-01  0.51100000000E-03 0. -1.
</event>
<event>
 8    1  0.1095698E+005  0.1043930E+01  0.7957747E-01            NaN
         13   -1    0    0    0    0  0.00000000000E+00  0.00000000000E+00  0.74505805969E-08  0.10566000000E+00  0.10566000000E+00 0. -1.
     999900   -1    0    0    0    0 -0.00000000000E+00 -0.00000000000E+00 -0.74505805969E-08  0.93827000000E+00  0.93827000000E+00 0.  1.
     999902    2    1    2    0    0  0.12630937872E-02  0.12298997100E-01  0.19900484707E-01  0.10205015979E+01  0.10202326309E+01 0.  0.
     999903    2    3    3    0    0 -0.17461159508E-01 -0.12646800609E+00  0.36911064791E-03  0.12921693322E+00  0.19945699585E-01 0.  0.
         14    1    1    2    0    0 -0.12630937872E-02 -0.12298997100E-01 -0.19900484707E-01  0.23428402147E-01  0.00000000000E+00 0.  1.
     999901    1    3    3    0    0  0.18724253296E-01  0.13876700319E+00  0.19531374059E-01  0.89128466463E+00  0.88000000000E+00 0. -1.
        -11    1    4    4    0    0 -0.62779938902E-03 -0.67308430166E-01  0.52236498857E-02  0.67515676273E-01  0.51100000000E-03 0. -1.
         11    1    4    4    0    0 -0.16833360119E-01 -0.59159575926E-01 -0.48545392378E-02  0.61701256948E-01  0.51100000000E-03 0.  1.
</event>
<event>
 8    1  0.1095698E+005  0.1043930E+01  0.7957747E-01            NaN
         13   -1    0    0    0    0  0.00000000000E+00  0.00000000000E+00  0.74505805969E-08  0.10566000000E+00  0.10566000000E+00 0.  1.
     999900   -1    0    0    0    0 -0.00000000000E+00 -0.00000000000E+00 -0.74505805969E-08  0.93827000000E+00  0.93827000000E+00 0. -1.
     999902    2    1    2    0    0 -0.20597096225E-01  0.10354602884E-01 -0.12090517809E-02  0.10208449403E+01  0.10205838879E+01 0.  0.
     999903    2    3    3    0    0 -0.38333676536E-02  0.11665737291E+00  0.58429634598E-01  0.13228539003E+00  0.21488714567E-01 0.  0.
         14    1    1    2    0    0  0.20597096225E-01 -0.10354602884E-01  0.12090517809E-02  0.23085059670E-01  0.00000000000E+00 0.  1.
     999901    1    3    3    0    0 -0.16763728571E-01 -0.10630277003E+00 -0.59638686379E-01  0.88855955030E+00  0.88000000000E+00 0.  1.
        -11    1    4    4    0    0  0.37413545114E-02  0.39182104791E-01  0.29683126014E-01  0.49300954964E-01  0.51100000000E-03 0. -1.
         11    1    4    4    0    0 -0.75747221650E-02  0.77475268124E-01  0.28746508584E-01  0.82984435068E-01  0.51100000000E-03 0.  1.
</event>
<event>
 8    1  0.1095698E+005  0.1043930E+01  0.7957747E-01            NaN
         13   -1    0    0    0    0  0.00000000000E+00  0.00000000000E+00  0.74505805969E-08  0.10566000000E+00  0.10566000000E+00 0.  1.
     999900   -1    0    0    0    0 -0.00000000000E+00 -0.00000000000E+00 -0.74505805969E-08  0.93827000000E+00  0.93827000000E+00 0. -1.
     999902    2    1    2    0    0 -0.12069909088E-01  0.19151204234E-01 -0.50132311178E-02  0.10207441462E+01  0.10204807829E+01 0.  0.
     999903    2    3    3    0    0  0.12354207163E+00 -0.17075499541E-02  0.33416437392E-01  0.12928324615E+00  0.18219227681E-01 0.  0.
         14    1    1    2    0    0  0.12069909088E-01 -0.19151204234E-01  0.50132311178E-02  0.23185853775E-01  0.00000000000E+00 0.  1.
     999901    1    3    3    0    0 -0.13561198072E+00  0.20858754188E-01 -0.38429668509E-01  0.89146090008E+00  0.88000000000E+00 0. -1.
        -11    1    4    4    0    0  0.80000591503E-01  0.41044457628E-03  0.30395419001E-01  0.85582741968E-01  0.51100000000E-03 0.  1.
         11    1    4    4    0    0  0.43541480129E-01 -0.21179945304E-02  0.30210183905E-02  0.43700504182E-01  0.51100000000E-03 0. -1.
</event>
<event>
 8    1  0.1095698E+005  0.1043930E+01  0.7957747E-01            NaN
         13   -1    0    0    0    0  0.00000000000E+00  0.00000000000E+00  0.74505805969E-08  0.10566000000E+00  0.10566000000E+00 0. -1.
     999900   -1    0    0    0    0 -0.00000000000E+00 -0.00000000000E+00 -0.74505805969E-08  0.93827000000E+00  0.93827000000E+00 0.  1.
     999902    2    1    2    0    0  0.16343686921E-01 -0.10511940092E-01 -0.13990436522E-01  0.10199852866E+01  0.10197041902E+01 0.  0.
     999903    2    3    3    0    0  0.13009181417E+00  0.12218156317E-01 -0.62214597683E-02  0.13233915735E+00  0.20044514160E-01 0.  0.
         14    1    1    2    0    0 -0.16343686921E-01  0.10511940092E-01  0.13990436522E-01  0.23944713419E-01  0.00000000000E+00 0.  1.
     999901    1    3    3    0    0 -0.11374812725E+00 -0.22730096409E-01 -0.77689767532E-02  0.88764612923E+00  0.88000000000E+00 0. -1.
        -11    1    4    4    0    0  0.29524333175E-01 -0.22036505054E-02 -0.81896058548E-02  0.30722517638E-01  0.51100000000E-03 0.  1.
         11    1    4    4    0    0  0.10056748100E+00  0.14421806823E-01  0.19681460865E-02  0.10161663971E+00  0.51100000000E-03 0. -1.
</event>
<event>
 8    1  0.1095698E+005  0.1043930E+01  0.7957747E-01            NaN
         13   -1    0    0    0    0  0.00000000000E+00  0.00000000000E+00  0.74505805969E-08  0.10566000000E+00  0.10566000000E+00 0.  1.
     999900   -1    0    0    0    0 -0.00000000000E+00 -0.00000000000E+00 -0.74505805969E-08  0.93827000000E+00  0.93827000000E+00 0.  1.
     999902    2    1    2    0    0  0.21831471912E-01 -0.58968627696E-02 -0.82740001262E-02  0.10198500242E+01  0.10195657049E+01 0.  0.
     999903    2    3    3    0    0 -0.68500271679E-02 -0.10744375449E-01  0.12672429705E+00  0.12908031939E+00  0.20983729781E-01 0.  0.
         14    1    1    2    0    0 -0.21831471912E-01  0.58968627696E-02  0.82740001262E-02  0.24079975799E-01  0.00000000000E+00 0. -1.
     999901    1    3    3    0    0  0.28681499080E-01  0.48475126796E-02 -0.13499829717E+00  0.89076970481E+00  0.88000000000E+00 0.  1.
        -11    1    4    4    0    0 -0.23001844786E-02  0.33337226633E-02  0.79166669386E-01  0.79271856407E-01  0.51100000000E-03 0. -1.
         11    1    4    4    0    0 -0.45498426893E-02 -0.14078098113E-01  0.47557627662E-01  0.49808462984E-01  0.51100000000E-03 0.  1.
</event>
<event>
 8    1  0.1095698E+005  0.1043930E+01  0.7957747E-01            NaN
         13   -1    0    0    0    0  0.00000000000E+00  0.00000000000E+00  0.74505805969E-08  0.10566000000E+00  0.10566000000E+00 0. -1.
     999900   -1    0    0    0    0 -0.00000000000E+00 -0.00000000000E+00 -0.74505805969E-08  0.93827000000E+00  0.93827000000E+00 0.  1.
     999902    2    1    2    0    0  0.22084124599E-01 -0.69628647810E-02 -0.42812229776E-02  0.10203817747E+01  0.10201100172E+01 0.  0.
     999903    2    3    3    0    0  0.11897571671E+00  0.74287881059E-03 -0.57073146495E-01  0.13345768194E+00  0.19945821198E-01 0.  0.
         14    1    1    2    0    0 -0.22084124599E-01  0.69628647810E-02  0.42812229776E-02  0.23548225315E-01  0.00000000000E+00 0.  1.
     999901    1    3    3    0    0 -0.96891592106E-01 -0.77057435916E-02  0.52791923517E-01  0.88692409275E+00  0.88000000000E+00 0. -1.
        -11    1    4    4    0    0  0.54373748413E-01 -0.94276764709E-02 -0.28060736235E-01  0.61911643809E-01  0.51100000000E-03 0. -1.
         11    1    4    4    0    0  0.64601968292E-01  0.10170555282E-01 -0.29012410260E-01  0.71546038130E-01  0.51100000000E-03 0.  1.
</event>
<event>
 8    1  0.1095698E+005  0.1043930E+01  0.7957747E-01            NaN
         13   -1    0    0    0    0  0.00000000000E+00  0.00000000000E+00  0.74505805969E-08  0.10566000000E+00  0.10566000000E+00 0.  1.
     999900   -1    0    0    0    0 -0.00000000000E+00 -0.00000000000E+00 -0.74505805969E-08  0.93827000000E+00  0.93827000000E+00 0.  1.
     999902    2    1    2    0    0 -0.16786916732E-01 -0.12365133070E-01  0.10140978803E-01  0.10207451657E+01  0.10204818258E+01 0.  0.
     999903    2    3    3    0    0 -0.11848857730E+00 -0.53534745981E-01  0.24722263972E-01  0.13381180934E+00  0.19720497092E-01 0.  0.
         14    1    1    2    0    0  0.16786916732E-01  0.12365133070E-01 -0.10140978803E-01  0.23184834273E-01  0.00000000000E+00 0. -1.
     999901    1    3    3    0    0  0.10170166057E+00  0.41169612911E-01 -0.14581285169E-01  0.88693335638E+00  0.88000000000E+00 0.  1.
        -11    1    4    4    0    0 -0.87073359583E-01 -0.34166188308E-01  0.25294662216E-01  0.96897778252E-01  0.51100000000E-03 0.  1.
         11    1    4    4    0    0 -0.31415217718E-01 -0.19368557673E-01 -0.57239824419E-03  0.36914031090E-01  0.51100000000E-03 0. -1.
</event>
<event>
 8    1  0.1095698E+005  0.1043930E+01  0.7957747E-01            NaN
         13   -1    0    0    0    0  0.00000000000E+00  0.00000000000E+00  0.74505805969E-08  0.10566000000E+00  0.10566000000E+00 0. -1.
     999900   -1    0    0    0    0 -0.00000000000E+00 -0.00000000000E+00 -0.74505805969E-08  0.93827000000E+00  0.93827000000E+00 0.  1.
     999902    2    1    2    0    0  0.59834450012E-02 -0.22309441880E-01 -0.26073776405E-02  0.10206854043E+01  0.10204206894E+01 0.  0.
     999903    2    3    3    0    0 -0.10793153771E+00  0.16510892871E-01  0.67100552154E-01  0.12976294014E+00  0.20349695780E-01 0.  0.
         14    1    1    2    0    0 -0.59834450012E-02  0.22309441880E-01  0.26073776405E-02  0.23244595700E-01  0.00000000000E+00 0.  1.
     999901    1    3    3    0    0  0.11391498271E+00 -0.38820334751E-01 -0.69707929794E-01  0.89092246416E+00  0.88000000000E+00 0. -1.
        -11    1    4    4    0    0 -0.43946192045E-01  0.83538998885E-02  0.39206159586E-01  0.59484783845E-01  0.51100000000E-03 0.  1.
         11    1    4    4    0    0 -0.63985345662E-01  0.81569929830E-02  0.27894392567E-01  0.70278156292E-01  0.51100000000E-03 0. -1.
</event>
<event>
 8    1  0.1095698E+005  0.1043930E+01  0.7957747E-01            NaN
         13   -1    0    0    0    0  0.00000000000E+00  0.00000000000E+00  0.74505805969E-08  0.10566000000E+00  0.10566000000E+00 0.  1.
     999900   -1    0    0    0    0 -0.00000000000E+00 -0.00000000000E+00 -0.74505805969E-08  0.93827000000E+00  0.93827000000E+00 0. -1.
     999902    2    1    2    0    0  0.17085846762E-01 -0.10754280432E-01  0.20629541845E-01  0.10150655114E+01  0.10146550319E+01 0.  0.
     999903    2    3    3    0    0 -0.76098399302E-01 -0.86946556994E-01  0.47264117961E-01  0.12647225944E+00  0.20264881266E-01 0.  0.
         14    1    1    2    0    0 -0.17085846762E-01  0.10754280432E-01 -0.20629541845E-01  0.28864488631E-01  0.00000000000E+00 0. -1.
     999901    1    3    3    0    0  0.93184246064E-01  0.76192276562E-01 -0.26634576116E-01  0.88859325193E+00  0.88000000000E+00 0. -1.
        -11    1    4    4    0    0 -0.47448082563E-01 -0.40645134668E-01  0.20178604435E-01  0.65656566382E-01  0.51100000000E-03 0. -1.
         11    1    4    4    0    0 -0.28650316739E-01 -0.46301422326E-01  0.27085513525E-01  0.60815693062E-01  0.51100000000E-03 0.  1.
</event>
<event>
 8    1  0.1095698E+005  0.1043930E+01  0.7957747E-01            NaN
         13   -1    0    0    0    0  0.00000000000E+00  0.00000000000E+00  0.74505805969E-08  0.10566000000E+00  0.10566000000E+00 0.  1.
     999900   -1    0    0    0    0 -0.00000000000E+00 -0.00000000000E+00 -0.74505805969E-08  0.93827000000E+00  0.93827000000E+00 0. -1.
     999902    2    1    2    0    0  0.13491819415E-01  0.71791283723E-02 -0.17415136880E-01  0.10207598453E+01  0.10204968426E+01 0.  0.
     999903    2    3    3    0    0 -0.10502000883E+00 -0.72128938375E-01 -0.86752071626E-02  0.12923799519E+00  0.19885023922E-01 0.  0.
         14    1    1    2    0    0 -0.13491819415E-01 -0.71791283723E-02  0.17415136880E-01  0.23170154680E-01  0.00000000000E+00 0.  1.
     999901    1    3    3    0    0  0.11851182824E+00  0.79308066747E-01 -0.87399297174E-02  0.89152185013E+00  0.88000000000E+00 0. -1.
        -11    1    4    4    0    0 -0.65702372481E-01 -0.33479804439E-01 -0.70509284084E-02  0.74078848313E-01  0.51100000000E-03 0. -1.
         11    1    4    4    0    0 -0.39317636348E-01 -0.38649133936E-01 -0.16242787543E-02  0.55159146879E-01  0.51100000000E-03 0.  1.
</event>
<event>
 8    1  0.1095698E+005  0.1043930E+01  0.7957747E-01            NaN
         13   -1    0    0    0    0  0.00000000000E+00  0.00000000000E+00  0.74505805969E-08  0.10566000000E+00  0.10566000000E+00 0.  1.
     999900   -1    0    0    0    0 -0.00000000000E+00 -0.00000000000E+00 -0.74505805969E-08  0.93827000000E+00  0.93827000000E+00 0. -1.
     999902    2    1    2    0    0 -0.12855220245E-01 -0.66724976299E-02 -0.18833534004E-01  0.10201711929E+01  0.10198944955E+01 0.  0.
     999903    2    3    3    0    0 -0.10984520631E+00 -0.61141493424E-02  0.67357826934E-01  0.13065653879E+00  0.20753363778E-01 0.  0.
         14    1    1    2    0    0  0.12855220245E-01  0.66724976299E-02  0.18833534004E-01  0.23758807109E-01  0.00000000000E+00 0.  1.
     999901    1    3    3    0    0  0.96989986069E-01 -0.55834828747E-03 -0.86191360938E-01  0.88951465410E+00  0.88000000000E+00 0. -1.
        -11    1    4    4    0    0 -0.88131006795E-01 -0.12043684938E-01  0.48668322949E-01  0.10139522417E+00  0.51100000000E-03 0. -1.
         11    1    4    4    0    0 -0.21714199520E-01  0.59295355952E-02  0.18689503985E-01  0.29261314621E-01  0.51100000000E-03 0.  1.
</event>
<event>
 8    1  0.1095698E+005  0.1043930E+01  0.7957747E-01            NaN
         13   -1    0    0    0    0  0.00000000000E+00  0.00000000000E+00  0.74505805969E-08  0.10566000000E+00  0.10566000000E+00 0.  1.
     999900   -1    0    0    0    0 -0.00000000000E+00 -0.00000000000E+00 -0.74505805969E-08  0.93827000000E+00  0.93827000000E+00 0.  1.
     999902    2    1    2    0    0 -0.13197558374E-01  0.18831535039E-01 -0.61353004880E-02  0.10201299124E+01  0.10198522412E+01 0.  0.
     999903    2    3    3    0    0  0.60204888575E-01  0.34192499442E-01 -0.10969295063E+00  0.13088975058E+00  0.17487931908E-01 0.  0.
         14    1    1    2    0    0  0.13197558374E-01 -0.18831535039E-01  0.61353004880E-02  0.23800087626E-01  0.00000000000E+00 0. -1.
     999901    1    3    3    0    0 -0.73402446948E-01 -0.15360964404E-01  0.10355765014E+00  0.88924016179E+00  0.88000000000E+00 0. -1.
        -11    1    4    4    0    0  0.26583210292E-01  0.20226223546E-01 -0.38854104347E-01  0.51241289348E-01  0.51100000000E-03 0.  1.
         11    1    4    4    0    0  0.33621678282E-01  0.13966275896E-01 -0.70838846283E-01  0.79648461232E-01  0.51100000000E-03 0. -1.
</event>
<event>
 8    1  0.1095698E+005  0.1043930E+01  0.7957747E-01            NaN
         13   -1    0    0    0    0  0.00000000000E+00  0.00000000000E+00  0.74505805969E-08  0.10566000000E+00  0.10566000000E+00 0. -1.
     999900   -1    0    0    0    0 -0.00000000000E+00 -0.00000000000E+00 -0.74505805969E-08  0.93827000000E+00  0.93827000000E+00 0. -1.
     999902    2    1    2    0    0  0.98862462772E-02 -0.14299192919E-01  0.15326405594E-01  0.10207545067E+01  0.10204913813E+01 0.  0.
     999903    2    3    3    0    0 -0.77181158537E-01  0.10107167073E+00  0.60125060079E-02  0.12891488100E+00  0.20260366669E-01 0.  0.
         14    1    1    2    0    0 -0.98862462772E-02  0.14299192919E-01 -0.15326405594E-01  0.23175493350E-01  0.00000000000E+00 0.  1.
     999901    1    3    3    0    0  0.87067404814E-01 -0.11537086365E+00  0.93138995857E-02  0.89183962565E+00  0.88000000000E+00 0.  1.
        -11    1    4    4    0    0 -0.38114516727E-01  0.36320987977E-01  0.80453367856E-02  0.53262736674E-01  0.51100000000E-03 0.  1.
         11    1    4    4    0    0 -0.39066641809E-01  0.64750682750E-01 -0.20328307778E-02  0.75652144324E-01  0.51100000000E-03 0. -1.
</event>
<event>
 8    1  0.1095698E+005  0.1043930E+01  0.7957747E-01            NaN
         13   -1    0    0    0    0  0.00000000000E+00  0.00000000000E+00  0.74505805969E-08  0.10566000000E+00  0.10566000000E+00 0.  1.
     999900   -1    0    0    0    0 -0.00000000000E+00 -0.00000000000E+00 -0.74505805969E-08  0.93827000000E+00  0.93827000000E+00 0. -1.
     999902    2    1    2    0    0  0.16195782274E-01  0.74211624109E-02  0.16219470269E-01  0.10198375068E+01  0.10195528883E+01 0.  0.
     999903    2    3    3    0    0 -0.80710869936E-01 -0.52942210018E-01 -0.80339068281E-01  0.12722438376E+00  0.20360643496E-01 0.  0.
         14    1    1    2    0    0 -0.16195782274E-01 -0.74211624109E-02 -0.16219470269E-01  0.24092493246E-01  0.00000000000E+00 0. -1.
     999901    1    3    3    0    0  0.96906652209E-01  0.60363372429E-01  0.96558538550E-01  0.89261312299E+00  0.88000000000E+00 0.  1.
        -11    1    4    4    0    0 -0.49231011187E-01 -0.36354593391E-01 -0.38525612780E-01  0.72317583506E-01  0.51100000000E-03 0.  1.
         11    1    4    4    0    0 -0.31479858749E-01 -0.16587616628E-01 -0.41813455501E-01  0.54906800254E-01  0.51100000000E-03 0. -1.
</event>
<event>
 8    1  0.1095698E+005  0.1043930E+01  0.7957747E-01            NaN
         13   -1    0    0    0    0  0.00000000000E+00  0.00000000000E+00  0.74505805969E-08  0.10566000000E+00  0.10566000000E+00 0.  1.
     999900   -1    0    0    0    0 -0.00000000000E+00 -0.00000000000E+00 -0.74505805969E-08  0.93827000000E+00  0.93827000000E+00 0.  1.
     999902    2    1    2    0    0  0.18182470489E-01 -0.86069024300E-02 -0.12661355185E-01  0.10201604624E+01  0.10198835120E+01 0.  0.
     999903    2    3    3    0    0 -0.81714216760E-01 -0.95496273761E-01 -0.26915346942E-01  0.13014232368E+00  0.20392081516E-01 0.  0.
         14    1    1    2    0    0 -0.18182470489E-01  0.86069024300E-02  0.12661355185E-01  0.23769537599E-01  0.00000000000E+00 0.  1.
     999901    1    3    3    0    0  0.99896687250E-01  0.86889371331E-01  0.14253991756E-01  0.89001813872E+00  0.88000000000E+00 0. -1.
        -11    1    4    4    0    0 -0.65575610696E-01 -0.67324132257E-01 -0.26576747732E-01  0.97669258948E-01  0.51100000000E-03 0. -1.
         11    1    4    4    0    0 -0.16138606064E-01 -0.28172141504E-01 -0.33859920937E-03  0.32473064731E-01  0.51100000000E-03 0.  1.
</event>
<event>
 8    1  0.1095698E+005  0.1043930E+01  0.7957747E-01            NaN
         13   -1    0    0    0    0  0.00000000000E+00  0.00000000000E+00  0.74505805969E-08  0.10566000000E+00  0.10566000000E+00 0.  1.
     999900   -1    0    0    0    0 -0.00000000000E+00 -0.00000000000E+00 -0.74505805969E-08  0.93827000000E+00  0.93827000000E+00 0.  1.
     999902    2    1    2    0    0 -0.21806276620E-01  0.63402431869E-02  0.13469443526E-01  0.10175266235E+01  0.10171840006E+01 0.  0.
     999903    2    3    3    0    0  0.99515291079E-01 -0.75317851431E-01  0.11966847902E-02  0.12537328025E+00  0.11872465726E-01 0.  0.
         14    1    1    2    0    0  0.21806276620E-01 -0.63402431869E-02 -0.13469443526E-01  0.26403376538E-01  0.00000000000E+00 0. -1.
     999901    1    3    3    0    0 -0.12132156770E+00  0.81658094617E-01  0.12272758736E-01  0.89215334322E+00  0.88000000000E+00 0.  1.
        -11    1    4    4    0    0  0.43477277240E-01 -0.32165447772E-01 -0.53126614921E-02  0.54344964437E-01  0.51100000000E-03 0.  1.
         11    1    4    4    0    0  0.56038013840E-01 -0.43152403659E-01  0.65093462823E-02  0.71028315809E-01  0.51100000000E-03 0. -1.
</event>
<event>
 8    1  0.1095698E+005  0.1043930E+01  0.7957747E-01            NaN
         13   -1    0    0    0    0  0.00000000000E+00  0.00000000000E+00  0.74505805969E-08  0.10566000000E+00  0.10566000000E+00 0.  1.
     999900   -1    0    0    0    0 -0.00000000000E+00 -0.00000000000E+00 -0.74505805969E-08  0.93827000000E+00  0.93827000000E+00 0. -1.
     999902    2    1    2    0    0 -0.22186195082E-01 -0.40681444961E-02 -0.46429072407E-02  0.10209010261E+01  0.10206412550E+01 0.  0.
     999903    2    3    3    0    0 -0.93999128812E-01 -0.89708281987E-01  0.22423682093E-01  0.13341923424E+00  0.20358253172E-01 0.  0.
         14    1    1    2    0    0  0.22186195082E-01  0.40681444961E-02  0.46429072407E-02  0.23028973913E-01  0.00000000000E+00 0.  1.
     999901    1    3    3    0    0  0.71812933730E-01  0.85640137491E-01 -0.27066589334E-01  0.88748179185E+00  0.88000000000E+00 0.  1.
        -11    1    4    4    0    0 -0.52449574706E-01 -0.36515769838E-01  0.81589075208E-02  0.64429715401E-01  0.51100000000E-03 0. -1.
         11    1    4    4    0    0 -0.41549554106E-01 -0.53192512149E-01  0.14264774573E-01  0.68989518840E-01  0.51100000000E-03 0.  1.
</event>
<event>
 8    1  0.1095698E+005  0.1043930E+01  0.7957747E-01            NaN
         13   -1    0    0    0    0  0.00000000000E+00  0.00000000000E+00  0.74505805969E-08  0.10566000000E+00  0.10566000000E+00 0.  1.
     999900   -1    0    0    0    0 -0.00000000000E+00 -0.00000000000E+00 -0.74505805969E-08  0.93827000000E+00  0.93827000000E+00 0.  1.
     999902    2    1    2    0    0 -0.19565856464E-01  0.29060880613E-02  0.12276122543E-01  0.10206497235E+01  0.10203841859E+01 0.  0.
     999903    2    3    3    0    0 -0.53789829281E-01  0.11040124573E+00 -0.43384312819E-01  0.13170395844E+00  0.19543624990E-01 0.  0.
         14    1    1    2    0    0  0.19565856464E-01 -0.29060880613E-02 -0.12276122543E-01  0.23280276452E-01  0.00000000000E+00 0. -1.
     999901    1    3    3    0    0  0.34223972817E-01 -0.10749515767E+00  0.55660435363E-01  0.88894576511E+00  0.88000000000E+00 0. -1.
        -11    1    4    4    0    0 -0.49722944969E-01  0.83845033258E-01 -0.34247174304E-01  0.10332226734E+00  0.51100000000E-03 0. -1.
         11    1    4    4    0    0 -0.40668843115E-02  0.26556212471E-01 -0.91371385149E-02  0.28381691106E-01  0.51100000000E-03 0.  1.
</event>
<event>
 8    1  0.1095698E+005  0.1043930E+01  0.7957747E-01            NaN
         13   -1    0    0    0    0  0.00000000000E+00  0.00000000000E+00  0.74505805969E-08  0.10566000000E+00  0.10566000000E+00 0. -1.
     999900   -1    0    0    0    0 -0.00000000000E+00 -0.00000000000E+00 -0.74505805969E-08  0.93827000000E+00  0.93827000000E+00 0.  1.
     999902    2    1    2    0    0 -0.12955173158E-01  0.17828276589E-01  0.75877370963E-02  0.10206221105E+01  0.10203559353E+01 0.  0.
     999903    2    3    3    0    0  0.39150467571E-01 -0.97000183030E-01 -0.70981216692E-01  0.12816838431E+00  0.21142539915E-01 0.  0.
         14    1    1    2    0    0  0.12955173158E-01 -0.17828276589E-01 -0.75877370963E-02  0.23307889479E-01  0.00000000000E+00 0.  1.
     999901    1    3    3    0    0 -0.52105640729E-01  0.11482845962E+00  0.78568953788E-01  0.89245372621E+00  0.88000000000E+00 0.  1.
        -11    1    4    4    0    0  0.26016144224E-01 -0.82508472333E-01 -0.52168874365E-01  0.10102643387E+00  0.51100000000E-03 0.  1.
         11    1    4    4    0    0  0.13134323347E-01 -0.14491710696E-01 -0.18812342327E-01  0.27141950437E-01  0.51100000000E-03 0. -1.
</event>
<event>
 8    1  0.1095698E+005  0.1043930E+01  0.7957747E-01            NaN
         13   -1    0    0    0    0  0.00000000000E+00  0.00000000000E+00  0.74505805969E-08  0.10566000000E+00  0.10566000000E+00 0.  1.
     999900   -1    0    0    0    0 -0.00000000000E+00 -0.00000000000E+00 -0.74505805969E-08  0.93827000000E+00  0.93827000000E+00 0.  1.
     999902    2    1    2    0    0 -0.20396554036E-01 -0.35142603209E-02 -0.12013320539E-01  0.10199990721E+01  0.10197183031E+01 0.  0.
     999903    2    3    3    0    0 -0.78990185614E-01 -0.10271823234E+00 -0.21266020666E-01  0.13244048008E+00  0.17255504905E-01 0.  0.
         14    1    1    2    0    0  0.20396554036E-01  0.35142603209E-02  0.12013320539E-01  0.23930927949E-01  0.00000000000E+00 0.  1.
     999901    1    3    3    0    0  0.58593631578E-01  0.99203972021E-01  0.92527001270E-02  0.88755859197E+00  0.88000000000E+00 0.  1.
        -11    1    4    4    0    0 -0.51623461570E-01 -0.55380984897E-01 -0.77050610765E-02  0.76102985223E-01  0.51100000000E-03 0. -1.
         11    1    4    4    0    0 -0.27366724044E-01 -0.47337247445E-01 -0.13560959589E-01  0.56337494855E-01  0.51100000000E-03 0.  1.
</event>
<event>
 8    1  0.1095698E+005  0.1043930E+01  0.7957747E-01            NaN
         13   -1    0    0    0    0  0.00000000000E+00  0.00000000000E+00  0.74505805969E-08  0.10566000000E+00  0.10566000000E+00 0. -1.
     999900   -1    0    0    0    0 -0.00000000000E+00 -0.00000000000E+00 -0.74505805969E-08  0.93827000000E+00  0.93827000000E+00 0.  1.
     999902    2    1    2    0    0  0.47331760961E-02 -0.86098569028E-02 -0.21546254123E-01  0.10202493400E+01  0.10199744811E+01 0.  0.
     999903    2    3    3    0    0  0.74766158071E-02 -0.74038701756E-01  0.10344769646E+00  0.12900753897E+00  0.20097016334E-01 0.  0.
         14    1    1    2    0    0 -0.47331760961E-02  0.86098569028E-02  0.21546254123E-01  0.23680660011E-01  0.00000000000E+00 0. -1.
     999901    1    3    3    0    0 -0.27434397110E-02  0.65428844853E-01 -0.12499395059E+00  0.89124180102E+00  0.88000000000E+00 0.  1.
        -11    1    4    4    0    0  0.11299405664E-01 -0.47596351821E-01  0.54470006628E-01  0.73214288347E-01  0.51100000000E-03 0.  1.
         11    1    4    4    0    0 -0.38227898568E-02 -0.26442349935E-01  0.48977689836E-01  0.55793250623E-01  0.51100000000E-03 0. -1.
</event>
<event>
 8    1  0.1095698E+005  0.1043930E+01  0.7957747E-01            NaN
         13   -1    0    0    0    0  0.00000000000E+00  0.00000000000E+00  0.74505805969E-08  0.10566000000E+00  0.10566000000E+00 0.  1.
     999900   -1    0    0    0    0 -0.00000000000E+00 -0.00000000000E+00 -0.74505805969E-08  0.93827000000E+00  0.93827000000E+00 0. -1.
     999902    2    1    2    0    0 -0.11367467161E-01 -0.16619569754E-01  0.12560380559E-01  0.10201983214E+01  0.10199222629E+01 0.  0.
     999903    2    3    3    0    0  0.10632109299E+00 -0.67273506482E-01  0.28873972945E-01  0.13077010521E+00  0.20909677492E-01 0.  0.
         14    1    1    2    0    0  0.11367467161E-01  0.16619569754E-01 -0.12560380559E-01  0.23731678581E-01  0.00000000000E+00 0. -1.
     999901    1    3    3    0    0 -0.11768856015E+00  0.50653936728E-01 -0.16313592385E-01  0.88942821621E+00  0.88000000000E+00 0. -1.
        -11    1    4    4    0    0  0.27027774049E-01 -0.21787702250E-01  0.16769392912E-01  0.38557466190E-01  0.51100000000E-03 0.  1.
         11    1    4    4    0    0  0.79293318944E-01 -0.45485804232E-01  0.12104580033E-01  0.92212639017E-01  0.51100000000E-03 0. -1.
</event>
<event>
 8    1  0.1095698E+005  0.1043930E+01  0.7957747E-01            NaN
         13   -1    0    0    0    0  0.00000000000E+00  0.00000000000E+00  0.74505805969E-08  0.10566000000E+00  0.10566000000E+00 0. -1.
     999900   -1    0    0    0    0 -0.00000000000E+00 -0.00000000000E+00 -0.74505805969E-08  0.93827000000E+00  0.93827000000E+00 0. -1.
     999902    2    1    2    0    0  0.26988604004E-03 -0.13988393122E-01 -0.19935691085E-01  0.10195747180E+01  0.10192837808E+01 0.  0.
     999903    2    3    3    0    0  0.58785165073E-01  0.63916552947E-01  0.90718335077E-01  0.12730932477E+00  0.20900394304E-01 0.  0.
         14    1    1    2    0    0 -0.26988604004E-03  0.13988393122E-01  0.19935691085E-01  0.24355281966E-01  0.00000000000E+00 0. -1.
     999901    1    3    3    0    0 -0.58515279033E-01 -0.77904946070E-01 -0.11065402616E+00  0.89226539326E+00  0.88000000000E+00 0. -1.
        -11    1    4    4    0    0  0.36611403699E-01  0.30840153332E-01  0.37345532919E-01  0.60716224260E-01  0.51100000000E-03 0.  1.
         11    1    4    4    0    0  0.22173761374E-01  0.33076399616E-01  0.53372802157E-01  0.66593100514E-01  0.51100000000E-03 0. -1.
</event>
<event>
 8    1  0.1095698E+005  0.1043930E+01  0.7957747E-01            NaN
         13   -1    0    0    0    0  0.00000000000E+00  0.00000000000E+00  0.74505805969E-08  0.10566000000E+00  0.10566000000E+00 0.  1.
     999900   -1    0    0    0    0 -0.00000000000E+00 -0.00000000000E+00 -0.74505805969E-08  0.93827000000E+00  0.93827000000E+00 0. -1.
     999902    2    1    2    0    0  0.18768182760E-01  0.12929663312E-01  0.15147165539E-02  0.10210889133E+01  0.10208334113E+01 0.  0.
     999903    2    3    3    0    0  0.40071150231E-01  0.44805197667E-02  0.12436029279E+00  0.13226033583E+00  0.20038509737E-01 0.  0.
         14    1    1    2    0    0 -0.18768182760E-01 -0.12929663312E-01 -0.15147165539E-02  0.22841086745E-01  0.00000000000E+00 0. -1.
     999901    1    3    3    0    0 -0.21302967471E-01  0.84491435451E-02 -0.12284557624E+00  0.88882857743E+00  0.88000000000E+00 0. -1.
        -11    1    4    4    0    0  0.65470355409E-02  0.84865515098E-02  0.39422211619E-01  0.40856543182E-01  0.51100000000E-03 0.  1.
         11    1    4    4    0    0  0.33524114690E-01 -0.40060317431E-02  0.84938081171E-01  0.91403792646E-01  0.51100000000E-03 0. -1.
</event>
<event>
 8    1  0.1095698E+005  0.1043930E+01  0.7957747E-01            NaN
         13   -1    0    0    0    0  0.00000000000E+00  0.00000000000E+00  0.74505805969E-08  0.10566000000E+00  0.10566000000E+00 0. -1.
     999900   -1    0    0    0    0 -0.00000000000E+00 -0.00000000000E+00 -0.74505805969E-08  0.93827000000E+00  0.93827000000E+00 0. -1.
     999902    2    1    2    0    0 -0.20649749502E-01  0.66520560444E-02 -0.67813245048E-02  0.10212000997E+01  0.10209471070E+01 0.  0.
     999903    2    3    3    0    0 -0.52604884206E-02  0.96873667233E-01  0.86530784251E-01  0.13154628047E+00  0.20116340166E-01 0.  0.
         14    1    1    2    0    0  0.20649749502E-01 -0.66520560444E-02  0.67813245048E-02  0.22729900267E-01  0.00000000000E+00 0. -1.
     999901    1    3    3    0    0 -0.15389261081E-01 -0.90221611189E-01 -0.93312108756E-01  0.88965381926E+00  0.88000000000E+00 0. -1.
        -11    1    4    4    0    0  0.32647374100E-02  0.16476815276E-01  0.24185024123E-01  0.29450305004E-01  0.51100000000E-03 0. -1.
         11    1    4    4    0    0 -0.85252258306E-02  0.80396851958E-01  0.62345760128E-01  0.10209597547E+00  0.51100000000E-03 0.  1.
</event>
<event>
 8    1  0.1095698E+005  0.1043930E+01  0.7957747E-01            NaN
         13   -1    0    0    0    0  0.00000000000E+00  0.00000000000E+00  0.74505805969E-08  0.10566000000E+00  0.10566000000E+00 0.  1.
     999900   -1    0    0    0    0 -0.00000000000E+00 -0.00000000000E+00 -0.74505805969E-08  0.93827000000E+00  0.93827000000E+00 0. -1.
     999902    2    1    2    0    0 -0.48656191201E-02  0.19490537288E-01 -0.13848815883E-01  0.10195303075E+01  0.10192382954E+01 0.  0.
     999903    2    3    3    0    0  0.76117047693E-02  0.12757169553E+00 -0.29420776681E-01  0.13269339670E+00  0.20235609159E-01 0.  0.
         14    1    1    2    0    0  0.48656191201E-02 -0.19490537288E-01  0.13848815883E-01  0.24399692509E-01  0.00000000000E+00 0.  1.
     999901    1    3    3    0    0 -0.12477323889E-01 -0.10808115824E+00  0.15571960798E-01  0.88683691079E+00  0.88000000000E+00 0.  1.
        -11    1    4    4    0    0 -0.63836146835E-02  0.62345264827E-01 -0.14801224232E-01  0.64397359748E-01  0.51100000000E-03 0.  1.
         11    1    4    4    0    0  0.13995319453E-01  0.65226430700E-01 -0.14619552448E-01  0.68296036952E-01  0.51100000000E-03 0. -1.
</event>
<event>
 8    1  0.1095698E+005  0.1043930E+01  0.7957747E-01            NaN
         13   -1    0    0    0    0  0.00000000000E+00  0.00000000000E+00  0.74505805969E-08  0.10566000000E+00  0.10566000000E+00 0. -1.
     999900   -1    0    0    0    0 -0.00000000000E+00 -0.00000000000E+00 -0.74505805969E-08  0.93827000000E+00  0.93827000000E+00 0. -1.
     999902    2    1    2    0    0 -0.19204304541E-01 -0.57050417771E-02  0.12521845550E-01  0.10203048136E+01  0.10200312560E+01 0.  0.
     999903    2    3    3    0    0 -0.42146715293E-01 -0.53888046167E-01  0.11224075467E+00  0.13306650464E+00  0.20698804754E-01 0.  0.
         14    1    1    2    0    0  0.19204304541E-01  0.57050417771E-02 -0.12521845550E-01  0.23625186361E-01  0.00000000000E+00 0.  1.
     999901    1    3    3    0    0  0.22942410751E-01  0.48183004390E-01 -0.99718909120E-01  0.88723830900E+00  0.88000000000E+00 0. -1.
        -11    1    4    4    0    0 -0.65307776399E-03 -0.12496455680E-01  0.15149745905E-01  0.19656139934E-01  0.51100000000E-03 0.  1.
         11    1    4    4    0    0 -0.41493637529E-01 -0.41391590487E-01  0.97091008765E-01  0.11341036470E+00  0.51100000000E-03 0. -1.
</event>
<event>
 8    1  0.1095698E+005  0.1043930E+01  0.7957747E-01            NaN
         13   -1    0    0    0    0  0.00000000000E+00  0.00000000000E+00  0.74505805969E-08  0.10566000000E+00  0.10566000000E+00 0. -1.
     999900   -1    0    0    0    0 -0.00000000000E+00 -0.00000000000E+00 -0.74505805969E-08  0.93827000000E+00  0.93827000000E+00 0.  1.
     999902    2    1    2    0    0 -0.14701247310E-01 -0.13655289942E-01 -0.20038618954E-01  0.10155726400E+01  0.10151766582E+01 0.  0.
     999903    2    3    3    0    0 -0.10885807305E+00 -0.17388543716E-01 -0.64752949193E-01  0.12941305148E+00  0.20058712438E-01 0.  0.
         14    1    1    2    0    0  0.14701247310E-01  0.13655289942E-01  0.20038618954E-01  0.28357359988E-01  0.00000000000E+00 0. -1.
     999901    1    3    3    0    0  0.94156825736E-01  0.37332537739E-02  0.44714330239E-01  0.88615958853E+00  0.88000000000E+00 0.  1.
        -11    1    4    4    0    0 -0.24921706288E-01  0.44317924437E-02 -0.14264934757E-01  0.29059967536E-01  0.51100000000E-03 0.  1.
         11    1    4    4    0    0 -0.83936366758E-01 -0.21820336160E-01 -0.50488014436E-01  0.10035308395E+00  0.51100000000E-03 0. -1.
</event>
<event>
 8    1  0.1095698E+005  0.1043930E+01  0.7957747E-01            NaN
         13   -1    0    0    0    0  0.00000000000E+00  0.00000000000E+00  0.74505805969E-08  0.10566000000E+00  0.10566000000E+00 0.  1.
     999900   -1    0    0    0    0 -0.00000000000E+00 -0.00000000000E+00 -0.74505805969E-08  0.93827000000E+00  0.93827000000E+00 0.  1.
     999902    2    1    2    0    0  0.42680954505E-02 -0.12355467115E-01 -0.20566177333E-01  0.10195611294E+01  0.10192698635E+01 0.  0.
     999903    2    3    3    0    0  0.73651487600E-01  0.94990595895E-01 -0.45092507195E-01  0.12998888765E+00  0.20396611827E-01 0.  0.
         14    1    1    2    0    0 -0.42680954505E-02  0.12355467115E-01  0.20566177333E-01  0.24368870645E-01  0.00000000000E+00 0.  1.
     999901    1    3    3    0    0 -0.69383392150E-01 -0.10734606301E+00  0.24526329862E-01  0.88957224170E+00  0.88000000000E+00 0. -1.
        -11    1    4    4    0    0  0.65795420141E-01  0.87291304032E-01 -0.46683121552E-01  0.11886287911E+00  0.51100000000E-03 0. -1.
         11    1    4    4    0    0  0.78560674587E-02  0.76992918628E-02  0.15906143565E-02  0.11126008545E-01  0.51100000000E-03 0.  1.
</event>
<event>
 7    1  0.1095698E+005  0.1043930E+01  0.7957747E-01            NaN
         13   -1    0    0    0    0  0.00000000000E+00  0.00000000000E+00  0.74505805969E-08  0.10566000000E+00  0.10566000000E+00 0.  1.
     999900   -1    0    0    0    0 -0.00000000000E+00 -0.00000000000E+00 -0.74505805969E-08  0.93827000000E+00  0.93827000000E+00 0. -1.
     999903    2    1    2    0    0  0.10461169073E-02 -0.32694274185E-01  0.10477764996E+00  0.11157995393E+00  0.20042960464E-01 0.  0.
         14    1    1    2    0    0  0.30557669283E-01  0.18024618323E-01 -0.33477406098E-01  0.48779039933E-01  0.00000000000E+00 0. -1.
     999901    1    1    2    0    0 -0.31603786190E-01  0.14669655861E-01 -0.71300243859E-01  0.88357100613E+00  0.88000000000E+00 0. -1.
        -11    1    3    3    0    0  0.21116925582E-02 -0.30409882501E-01  0.65824982487E-01  0.72542467835E-01  0.51100000000E-03 0.  1.
         11    1    3    3    0    0 -0.10655756509E-02 -0.22843916837E-02  0.38952667471E-01  0.39037486099E-01  0.51100000000E-03 0. -1.
</event>
<event>
 8    1  0.1095698E+005  0.1043930E+01  0.7957747E-01            NaN
         13   -1    0    0    0    0  0.00000000000E+00  0.00000000000E+00  0.74505805969E-08  0.10566000000E+00  0.10566000000E+00 0. -1.
     999900   -1    0    0    0    0 -0.00000000000E+00 -0.00000000000E+00 -0.74505805969E-08  0.93827000000E+00  0.93827000000E+00 0.  1.
     999902    2    1    2    0    0  0.75050030202E-02 -0.22118915988E-01  0.10837402415E-02  0.10205473995E+01  0.10202794953E+01 0.  0.
     999903    2    3    3    0    0  0.27780889672E-01 -0.53365162729E-01 -0.11573371665E+00  0.13204655099E+00  0.20551886388E-01 0.  0.
         14    1    1    2    0    0 -0.75050030202E-02  0.22118915988E-01 -0.10837402415E-02  0.23382600534E-01  0.00000000000E+00 0.  1.
     999901    1    3    3    0    0 -0.20275886652E-01  0.31246246742E-01  0.11681745689E+00  0.88850084848E+00  0.88000000000E+00 0. -1.
        -11    1    4    4    0    0  0.24043638036E-01 -0.52385659768E-01 -0.96359923492E-01  0.11228468220E+00  0.51100000000E-03 0.  1.
         11    1    4    4    0    0  0.37372516359E-02 -0.97950296081E-03 -0.19373793157E-01  0.19761868791E-01  0.51100000000E-03 0. -1.
</event>
<event>
 8    1  0.1095698E+005  0.1043930E+01  0.7957747E-01            NaN
         13   -1    0    0    0    0  0.00000000000E+00  0.00000000000E+00  0.74505805969E-08  0.10566000000E+00  0.10566000000E+00 0. -1.
     999900   -1    0    0    0    0 -0.00000000000E+00 -0.00000000000E+00 -0.74505805969E-08  0.93827000000E+00  0.93827000000E+00 0. -1.
     999902    2    1    2    0    0  0.13154864709E-02 -0.15918752507E-01 -0.17240124910E-01  0.10204276790E+01  0.10201569923E+01 0.  0.
     999903    2    3    3    0    0 -0.12489832512E+00  0.29487416235E-01 -0.94009401243E-02  0.13022933074E+00  0.20054963879E-01 0.  0.
         14    1    1    2    0    0 -0.13154864709E-02  0.15918752507E-01  0.17240124910E-01  0.23502321012E-01  0.00000000000E+00 0. -1.
     999901    1    3    3    0    0  0.12621381159E+00 -0.45406168742E-01 -0.78391847852E-02  0.89019834824E+00  0.88000000000E+00 0.  1.
        -11    1    4    4    0    0 -0.70963660000E-01  0.19501418689E-01 -0.14937739988E-01  0.75096894533E-01  0.51100000000E-03 0. -1.
         11    1    4    4    0    0 -0.53934665123E-01  0.99859975456E-02  0.55367998639E-02  0.55132436212E-01  0.51100000000E-03 0.  1.
</event>
<event>
 8    1  0.1095698E+005  0.1043930E+01  0.7957747E-01            NaN
         13   -1    0    0    0    0  0.00000000000E+00  0.00000000000E+00  0.74505805969E-08  0.10566000000E+00  0.10566000000E+00 0.  1.
     999900   -1    0    0    0    0 -0.00000000000E+00 -0.00000000000E+00 -0.74505805969E-08  0.93827000000E+00  0.93827000000E+00 0.  1.
     999902    2    1    2    0    0  0.22829538521E-01 -0.15847573605E-02  0.36389529170E-02  0.10207580069E+01  0.10204949620E+01 0.  0.
     999903    2    3    3    0    0  0.83730387678E-01  0.10015616804E+00 -0.12667460599E-01  0.13265551934E+00  0.19874265661E-01 0.  0.
         14    1    1    2    0    0 -0.22829538521E-01  0.15847573605E-02 -0.36389529170E-02  0.23171993080E-01  0.00000000000E+00 0.  1.
     999901    1    3    3    0    0 -0.60900849158E-01 -0.10174092540E+00  0.16306413516E-01  0.88810248758E+00  0.88000000000E+00 0. -1.
        -11    1    4    4    0    0  0.74849868112E-01  0.81021074046E-01 -0.15411190093E-01  0.11137631300E+00  0.51100000000E-03 0.  1.
         11    1    4    4    0    0  0.88805195668E-02  0.19135093993E-01  0.27437294947E-02  0.21279206339E-01  0.51100000000E-03 0. -1.
</event>
<event>
 8    1  0.1095698E+005  0.1043930E+01  0.7957747E-01            NaN
         13   -1    0    0    0    0  0.00000000000E+00  0.00000000000E+00  0.74505805969E-08  0.10566000000E+00  0.10566000000E+00 0.  1.
     999900   -1    0    0    0    0 -0.00000000000E+00 -0.00000000000E+00 -0.74505805969E-08  0.93827000000E+00  0.93827000000E+00 0.  1.
     999902    2    1    2    0    0 -0.20861663383E-01  0.81600473071E-02  0.65488851237E-02  0.10205915496E+01  0.10203246679E+01 0.  0.
     999903    2    3    3    0    0 -0.57008038294E-01 -0.86368297743E-01  0.79225051849E-01  0.13181486580E+00  0.19726903471E-01 0.  0.
         14    1    1    2    0    0  0.20861663383E-01 -0.81600473071E-02 -0.65488851237E-02  0.23338450410E-01  0.00000000000E+00 0. -1.
     999901    1    3    3    0    0  0.36146374911E-01  0.94528345051E-01 -0.72676166725E-01  0.88877668379E+00  0.88000000000E+00 0.  1.
        -11    1    4    4    0    0 -0.11531497331E-01 -0.29848492390E-01  0.31972954012E-01  0.45237582141E-01  0.51100000000E-03 0.  1.
         11    1    4    4    0    0 -0.45476540963E-01 -0.56519805354E-01  0.47252097837E-01  0.86577283661E-01  0.51100000000E-03 0. -1.
</event>
<event>
 8    1  0.1095698E+005  0.1043930E+01  0.7957747E-01            NaN
         13   -1    0    0    0    0  0.00000000000E+00  0.00000000000E+00  0.74505805969E-08  0.10566000000E+00  0.10566000000E+00 0.  1.
     999900   -1    0    0    0    0 -0.00000000000E+00 -0.00000000000E+00 -0.74505805969E-08  0.93827000000E+00  0.93827000000E+00 0. -1.
     999902    2    1    2    0    0  0.96057497154E-02 -0.14299318951E-01  0.22058637324E-01  0.10159420663E+01  0.10155564769E+01 0.  0.
     999903    2    3    3    0    0  0.56480231024E-01  0.64468764529E-01  0.93365805129E-01  0.12831244755E+00  0.20016806239E-01 0.  0.
         14    1    1    2    0    0 -0.96057497154E-02  0.14299318951E-01 -0.22058637324E-01  0.27987933662E-01  0.00000000000E+00 0. -1.
     999901    1    3    3    0    0 -0.46874481309E-01 -0.78768083480E-01 -0.71307167805E-01  0.88762961879E+00  0.88000000000E+00 0.  1.
        -11    1    4    4    0    0  0.16418355208E-01  0.33045615666E-01  0.35045861824E-01  0.50892520615E-01  0.51100000000E-03 0.  1.
         11    1    4    4    0    0  0.40061875816E-01  0.31423148862E-01  0.58319943305E-01  0.77419926934E-01  0.51100000000E-03 0. -1.
</event>
<event>
 8    1  0.1095698E+005  0.1043930E+01  0.7957747E-01            NaN
         13   -1    0    0    0    0  0.00000000000E+00  0.00000000000E+00  0.74505805969E-08  0.10566000000E+00  0.10566000000E+00 0. -1.
     999900   -1    0    0    0    0 -0.00000000000E+00 -0.00000000000E+00 -0.74505805969E-08  0.93827000000E+00  0.93827000000E+00 0.  1.
     999902    2    1    2    0    0  0.16375738194E-01 -0.48765482922E-02 -0.15274292036E-01  0.10210116772E+01  0.10207544246E+01 0.  0.
     999903    2    3    3    0    0  0.22493744408E-01 -0.36298233582E-01  0.12104598673E+00  0.12994042821E+00  0.20220130562E-01 0.  0.
         14    1    1    2    0    0 -0.16375738194E-01  0.48765482922E-02  0.15274292036E-01  0.22918322841E-01  0.00000000000E+00 0. -1.
     999901    1    3    3    0    0 -0.61180062147E-02  0.31421685290E-01 -0.13632027877E+00  0.89107124895E+00  0.88000000000E+00 0.  1.
        -11    1    4    4    0    0  0.14981735402E-02 -0.21387661209E-01  0.52171404886E-01  0.56407385906E-01  0.51100000000E-03 0. -1.
         11    1    4    4    0    0  0.20995570868E-01 -0.14910572373E-01  0.68874581846E-01  0.73533042301E-01  0.51100000000E-03 0.  1.
</event>
<event>
 8    1  0.1095698E+005  0.1043930E+01  0.7957747E-01            NaN
         13   -1    0    0    0    0  0.00000000000E+00  0.00000000000E+00  0.74505805969E-08  0.10566000000E+00  0.10566000000E+00 0.  1.
     999900   -1    0    0    0    0 -0.00000000000E+00 -0.00000000000E+00 -0.74505805969E-08  0.93827000000E+00  0.93827000000E+00 0.  1.
     999902    2    1    2    0    0  0.71699600194E-02 -0.21284894633E-01 -0.20735387216E-01  0.10133618573E+01  0.10129007071E+01 0.  0.
     999903    2    3    3    0    0  0.80035020540E-01 -0.65587515125E-01 -0.71990848004E-01  0.12775519432E+00  0.20769709331E-01 0.  0.
         14    1    1    2    0    0 -0.71699600194E-02  0.21284894633E-01  0.20735387216E-01  0.30568142718E-01  0.00000000000E+00 0.  1.
     999901    1    3    3    0    0 -0.72865060520E-01  0.44302620491E-01  0.51255460788E-01  0.88560666296E+00  0.88000000000E+00 0. -1.
        -11    1    4    4    0    0  0.78200096413E-01 -0.57288650301E-01 -0.64733014346E-01  0.11656701420E+00  0.51100000000E-03 0.  1.
         11    1    4    4    0    0  0.18349241264E-02 -0.82988648241E-02 -0.72578336574E-02  0.11188180116E-01  0.51100000000E-03 0. -1.
</event>
<event>
 8    1  0.1095698E+005  0.1043930E+01  0.7957747E-01            NaN
         13   -1    0    0    0    0  0.00000000000E+00  0.00000000000E+00  0.74505805969E-08  0.10566000000E+00  0.10566000000E+00 0.  1.
     999900   -1    0    0    0    0 -0.00000000000E+00 -0.00000000000E+00 -0.74505805969E-08  0.93827000000E+00  0.93827000000E+00 0.  1.
     999902    2    1    2    0    0  0.11029522677E-01  0.99899923364E-02  0.19446963789E-01  0.10194425600E+01  0.10191484182E+01 0.  0.
     999903    2    3    3    0    0  0.63116270902E-01  0.55236019132E-01 -0.96194651616E-01  0.12919921377E+00  0.20108316135E-01 0.  0.
         14    1    1    2    0    0 -0.11029522677E-01 -0.99899923364E-02 -0.19446963789E-01  0.24487440005E-01  0.00000000000E+00 0. -1.
     999901    1    3    3    0    0 -0.52086748224E-01 -0.45246026796E-01  0.11564161540E+00  0.89024334622E+00  0.88000000000E+00 0. -1.
        -11    1    4    4    0    0  0.24446137598E-01  0.28216824235E-01 -0.29910698562E-01  0.47840503999E-01  0.51100000000E-03 0.  1.
         11    1    4    4    0    0  0.38670133303E-01  0.27019194897E-01 -0.66283953053E-01  0.81358709773E-01  0.51100000000E-03 0. -1.
</event>
<event>
 8    1  0.1095698E+005  0.1043930E+01  0.7957747E-01            NaN
         13   -1    0    0    0    0  0.00000000000E+00  0.00000000000E+00  0.74505805969E-08  0.10566000000E+00  0.10566000000E+00 0.  1.
     999900   -1    0    0    0    0 -0.00000000000E+00 -0.00000000000E+00 -0.74505805969E-08  0.93827000000E+00  0.93827000000E+00 0.  1.
     999902    2    1    2    0    0 -0.15391521369E-01  0.72059173960E-02 -0.17788679312E-01  0.10193279414E+01  0.10190310058E+01 0.  0.
     999903    2    3    3    0    0  0.11421600767E+00 -0.48850222937E-02 -0.55615469397E-01  0.12894871408E+00  0.21576157572E-01 0.  0.
         14    1    1    2    0    0  0.15391521369E-01 -0.72059173960E-02  0.17788679312E-01  0.24602058598E-01  0.00000000000E+00 0.  1.
     999901    1    3    3    0    0 -0.12960752904E+00  0.12090939690E-01  0.37826790085E-01  0.89037922733E+00  0.88000000000E+00 0. -1.
        -11    1    4    4    0    0  0.21537876855E-01  0.23906229762E-02 -0.23437428412E-02  0.21802510615E-01  0.51100000000E-03 0.  1.
         11    1    4    4    0    0  0.92678130812E-01 -0.72756452698E-02 -0.53271726556E-01  0.10714620346E+00  0.51100000000E-03 0. -1.
</event>
<event>
 8    1  0.1095698E+005  0.1043930E+01  0.7957747E-01            NaN
         13   -1    0    0    0    0  0.00000000000E+00  0.00000000000E+00  0.74505805969E-08  0.10566000000E+00  0.10566000000E+00 0. -1.
     999900   -1    0    0    0    0 -0.00000000000E+00 -0.00000000000E+00 -0.74505805969E-08  0.93827000000E+00  0.93827000000E+00 0. -1.
     999902    2    1    2    0    0  0.11149599949E-01 -0.66631088801E-03  0.19851059252E-01  0.10211523332E+01  0.10208982641E+01 0.  0.
     999903    2    3    3    0    0 -0.69507124667E-01  0.94772376785E-01  0.55978818803E-01  0.13159105636E+00  0.19223271788E-01 0.  0.
         14    1    1    2    0    0 -0.11149599949E-01  0.66631088801E-03 -0.19851059252E-01  0.22777666752E-01  0.00000000000E+00 0.  1.
     999901    1    3    3    0    0  0.80656724616E-01 -0.95438687673E-01 -0.36127759551E-01  0.88956127689E+00  0.88000000000E+00 0. -1.
        -11    1    4    4    0    0 -0.46442576845E-01  0.51440235622E-01  0.25722013386E-01  0.73924920551E-01  0.51100000000E-03 0. -1.
         11    1    4    4    0    0 -0.23064547822E-01  0.43332141163E-01  0.30256805417E-01  0.57666135808E-01  0.51100000000E-03 0.  1.
</event>
<event>
 8    1  0.1095698E+005  0.1043930E+01  0.7957747E-01            NaN
         13   -1    0    0    0    0  0.00000000000E+00  0.00000000000E+00  0.74505805969E-08  0.10566000000E+00  0.10566000000E+00 0. -1.
     999900   -1    0    0    0    0 -0.00000000000E+00 -0.00000000000E+00 -0.74505805969E-08  0.93827000000E+00  0.93827000000E+00 0.  1.
     999902    2    1    2    0    0  0.22962649571E-01  0.33935577518E-02 -0.22998672554E-02  0.10206042867E+01  0.10203376996E+01 0.  0.
     999903    2    3    3    0    0  0.80253628188E-02  0.11966193498E+00 -0.50353887594E-01  0.13153137244E+00  0.19534656616E-01 0.  0.
         14    1    1    2    0    0 -0.22962649571E-01 -0.33935577518E-02  0.22998672554E-02  0.23325713257E-01  0.00000000000E+00 0. -1.
     999901    1    3    3    0    0  0.14937286752E-01 -0.11626837723E+00  0.48054020338E-01  0.88907291430E+00  0.88000000000E+00 0.  1.
        -11    1    4    4    0    0  0.12698128904E-01  0.74199341175E-01 -0.37210009370E-01  0.83973987799E-01  0.51100000000E-03 0.  1.
         11    1    4    4    0    0 -0.46727660855E-02  0.45462593802E-01 -0.13143878224E-01  0.47557384641E-01  0.51100000000E-03 0. -1.
</event>
<event>
 8    1  0.1095698E+005  0.1043930E+01  0.7957747E-01            NaN
         13   -1    0    0    0    0  0.00000000000E+00  0.00000000000E+00  0.74505805969E-08  0.10566000000E+00  0.10566000000E+00 0. -1.
     999900   -1    0    0    0    0 -0.00000000000E+00 -0.00000000000E+00 -0.74505805969E-08  0.93827000000E+00  0.93827000000E+00 0. -1.
     999902    2    1    2    0    0 -0.70866923322E-02 -0.19235546093E-01  0.11719904223E-01  0.10203167919E+01  0.10200435149E+01 0.  0.
     999903    2    3    3    0    0 -0.39874833473E-01  0.15418287093E-01  0.12332144558E+00  0.13198641733E+00  0.19608913780E-01 0.  0.
         14    1    1    2    0    0  0.70866923322E-02  0.19235546093E-01 -0.11719904223E-01  0.23613208098E-01  0.00000000000E+00 0.  1.
     999901    1    3    3    0    0  0.32788141140E-01 -0.34653833186E-01 -0.11160154135E+00  0.88833037457E+00  0.88000000000E+00 0. -1.
        -11    1    4    4    0    0 -0.22290941964E-01  0.18654071351E-01  0.79965524077E-01  0.85085877991E-01  0.51100000000E-03 0. -1.
         11    1    4    4    0    0 -0.17583891509E-01 -0.32357842586E-02  0.43355921498E-01  0.46900539340E-01  0.51100000000E-03 0.  1.
</event>
<event>
 8    1  0.1095698E+005  0.1043930E+01  0.7957747E-01            NaN
         13   -1    0    0    0    0  0.00000000000E+00  0.00000000000E+00  0.74505805969E-08  0.10566000000E+00  0.10566000000E+00 0.  1.
     999900   -1    0    0    0    0 -0.00000000000E+00 -0.00000000000E+00 -0.74505805969E-08  0.93827000000E+00  0.93827000000E+00 0. -1.
     999902    2    1    2    0    0 -0.47462520047E-03 -0.78493714313E-02  0.19808154883E-01  0.10226180104E+01  0.10223959088E+01 0.  0.
     999903    2    3    3    0    0 -0.59332062588E-01 -0.75254273379E-01  0.93042538229E-01  0.13505342478E+00  0.19975342582E-01 0.  0.
         14    1    1    2    0    0  0.47462520047E-03  0.78493714313E-02 -0.19808154883E-01  0.21311989603E-01  0.00000000000E+00 0. -1.
     999901    1    3    3    0    0  0.58857437388E-01  0.67404901948E-01 -0.73234383346E-01  0.88756458562E+00  0.88000000000E+00 0.  1.
        -11    1    4    4    0    0 -0.38644726105E-01 -0.53217090600E-01  0.75388775044E-01  0.10004599998E+00  0.51100000000E-03 0.  1.
         11    1    4    4    0    0 -0.20687336483E-01 -0.22037182779E-01  0.17653763185E-01  0.35007424801E-01  0.51100000000E-03 0. -1.
</event>
<event>
 8    1  0.1095698E+005  0.1043930E+01  0.7957747E-01            NaN
         13   -1    0    0    0    0  0.00000000000E+00  0.00000000000E+00  0.74505805969E-08  0.10566000000E+00  0.10566000000E+00 0.  1.
     999900   -1    0    0    0    0 -0.00000000000E+00 -0.00000000000E+00 -0.74505805969E-08  0.93827000000E+00  0.93827000000E+00 0.  1.
     999902    2    1    2    0    0 -0.79264792341E-02  0.83578883411E-02  0.19836182286E-01  0.10209918767E+01  0.10207341744E+01 0.  0.
     999903    2    3    3    0    0  0.24068545331E-01 -0.12627770674E+00  0.28389652992E-02  0.13001526064E+00  0.19249783971E-01 0.  0.
         14    1    1    2    0    0  0.79264792341E-02 -0.83578883411E-02 -0.19836182286E-01  0.22938123251E-01  0.00000000000E+00 0. -1.
     999901    1    3    3    0    0 -0.31995024566E-01  0.13463559508E+00  0.16997216987E-01  0.89097661610E+00  0.88000000000E+00 0.  1.
        -11    1    4    4    0    0  0.15626879489E-01 -0.97618487365E-01  0.97597994189E-02  0.99343259679E-01  0.51100000000E-03 0.  1.
         11    1    4    4    0    0  0.84416658421E-02 -0.28659219374E-01 -0.69208341198E-02  0.30672000965E-01  0.51100000000E-03 0. -1.
</event>
<event>
 7    1  0.1095698E+005  0.1043930E+01  0.7957747E-01            NaN
         13   -1    0    0    0    0  0.00000000000E+00  0.00000000000E+00  0.74505805969E-08  0.10566000000E+00  0.10566000000E+00 0.  1.
     999900   -1    0    0    0    0 -0.00000000000E+00 -0.00000000000E+00 -0.74505805969E-08  0.93827000000E+00  0.93827000000E+00 0. -1.
     999903    2    1    2    0    0  0.10507124035E+00 -0.20829809772E-01  0.15285203232E-01  0.11245539794E+00  0.30638742839E-01 0.  0.
         14    1    1    2    0    0  0.17232944432E-01 -0.31343814296E-01  0.19629418894E-01  0.40801019038E-01  0.00000000000E+00 0.  1.
     999901    1    1    2    0    0 -0.12230418478E+00  0.52173624068E-01 -0.34914622126E-01  0.89067358303E+00  0.88000000000E+00 0. -1.
        -11    1    3    3    0    0  0.74083002579E-01 -0.25062456412E-01  0.13737490221E-02  0.78221265011E-01  0.51100000000E-03 0.  1.
         11    1    3    3    0    0  0.30988237772E-01  0.42326466402E-02  0.13911454210E-01  0.34234132924E-01  0.51100000000E-03 0. -1.
</event>
<event>
 8    1  0.1095698E+005  0.1043930E+01  0.7957747E-01            NaN
         13   -1    0    0    0    0  0.00000000000E+00  0.00000000000E+00  0.74505805969E-08  0.10566000000E+00  0.10566000000E+00 0.  1.
     999900   -1    0    0    0    0 -0.00000000000E+00 -0.00000000000E+00 -0.74505805969E-08  0.93827000000E+00  0.93827000000E+00 0.  1.
     999902    2    1    2    0    0 -0.24359007137E-02 -0.22107471316E-01  0.85987876532E-02  0.10200843914E+01  0.10198056445E+01 0.  0.
     999903    2    3    3    0    0  0.22246799279E-01  0.96350993671E-01 -0.78002125852E-01  0.12759273215E+00  0.20423995735E-01 0.  0.
         14    1    1    2    0    0  0.24359007137E-02  0.22107471316E-01 -0.85987876532E-02  0.23845608598E-01  0.00000000000E+00 0. -1.
     999901    1    3    3    0    0 -0.24682699992E-01 -0.11845846499E+00  0.86600913505E-01  0.89249165925E+00  0.88000000000E+00 0. -1.
        -11    1    4    4    0    0  0.13942802834E-02  0.43341285275E-01 -0.26672860026E-01  0.50912803987E-01  0.51100000000E-03 0.  1.
         11    1    4    4    0    0  0.20852518995E-01  0.53009708396E-01 -0.51329265826E-01  0.76679928168E-01  0.51100000000E-03 0. -1.
</event>
<event>
 8    1  0.1095698E+005  0.1043930E+01  0.7957747E-01            NaN
         13   -1    0    0    0    0  0.00000000000E+00  0.00000000000E+00  0.74505805969E-08  0.10566000000E+00  0.10566000000E+00 0. -1.
     999900   -1    0    0    0    0 -0.00000000000E+00 -0.00000000000E+00 -0.74505805969E-08  0.93827000000E+00  0.93827000000E+00 0. -1.
     999902    2    1    2    0    0  0.21625820602E-01 -0.69523117271E-02  0.54429023322E-02  0.10205711486E+01  0.10203037946E+01 0.  0.
     999903    2    3    3    0    0  0.73906364158E-01  0.80886459434E-01  0.71246380355E-01  0.13221367396E+00  0.19990970078E-01 0.  0.
         14    1    1    2    0    0 -0.21625820602E-01  0.69523117271E-02 -0.54429023322E-02  0.23358851445E-01  0.00000000000E+00 0.  1.
     999901    1    3    3    0    0 -0.52280543556E-01 -0.87838771161E-01 -0.65803478023E-01  0.88835747460E+00  0.88000000000E+00 0. -1.
        -11    1    4    4    0    0  0.20128247089E-01  0.10252839692E-01  0.14822081248E-01  0.27022625079E-01  0.51100000000E-03 0. -1.
         11    1    4    4    0    0  0.53778117069E-01  0.70633619742E-01  0.56424299108E-01  0.10519104888E+00  0.51100000000E-03 0.  1.
</event>
<event>
 8    1  0.1488876E+005  0.1043930E+01  0.7957747E-01            NaN
         13   -1    0    0    0    0  0.00000000000E+00  0.00000000000E+00  0.74505805969E-08  0.10566000000E+00  0.10566000000E+00 0.  1.
     999900   -1    0    0    0    0 -0.00000000000E+00 -0.00000000000E+00 -0.74505805969E-08  0.93827000000E+00  0.93827000000E+00 0. -1.
     999902    2    1    2    0    0  0.16188295108E-01  0.14964420089E-01  0.13286915980E-01  0.10181902078E+01  0.10178648055E+01 0.  0.
     999903    2    3    3    0    0 -0.14774045234E-01  0.41477632665E-01 -0.11797110147E+00  0.12752175987E+00  0.20148251380E-01 0.  0.
         14    1    1    2    0    0 -0.16188295108E-01 -0.14964420089E-01 -0.13286915980E-01  0.25739792217E-01  0.00000000000E+00 0. -1.
     999901    1    3    3    0    0  0.30962340342E-01 -0.26513212575E-01  0.13125801745E+00  0.89066844791E+00  0.88000000000E+00 0.  1.
        -11    1    4    4    0    0 -0.18036090313E-01  0.37181546581E-01 -0.90065881415E-01  0.99095368590E-01  0.51100000000E-03 0. -1.
         11    1    4    4    0    0  0.32620450795E-02  0.42960860839E-02 -0.27905220058E-01  0.28426391281E-01  0.51100000000E-03 0.  1.
</event>
<event>
 8    1  0.1095698E+005  0.1043930E+01  0.7957747E-01            NaN
         13   -1    0    0    0    0  0.00000000000E+00  0.00000000000E+00  0.74505805969E-08  0.10566000000E+00  0.10566000000E+00 0. -1.
     999900   -1    0    0    0    0 -0.00000000000E+00 -0.00000000000E+00 -0.74505805969E-08  0.93827000000E+00  0.93827000000E+00 0.  1.
     999902    2    1    2    0    0  0.16223777707E-01 -0.17501259751E-01  0.45662645470E-02  0.10196327609E+01  0.10193432255E+01 0.  0.
     999903    2    3    3    0    0 -0.67470073215E-01  0.96930732098E-04 -0.10745509280E+00  0.12841834142E+00  0.19810433314E-01 0.  0.
         14    1    1    2    0    0 -0.16223777707E-01  0.17501259751E-01 -0.45662645470E-02  0.24297239100E-01  0.00000000000E+00 0.  1.
     999901    1    3    3    0    0  0.83693850923E-01 -0.17598190483E-01  0.11202135735E+00  0.89121441948E+00  0.88000000000E+00 0.  1.
        -11    1    4    4    0    0 -0.28880705675E-01  0.48386457154E-02 -0.31019398821E-01  0.42661128406E-01  0.51100000000E-03 0.  1.
         11    1    4    4    0    0 -0.38589367540E-01 -0.47417149833E-02 -0.76435693982E-01  0.85757213012E-01  0.51100000000E-03 0. -1.
</event>
<event>
 8    1  0.1423374E+005  0.1043930E+01  0.7957747E-01            NaN
         13   -1    0    0    0    0  0.00000000000E+00  0.00000000000E+00  0.74505805969E-08  0.10566000000E+00  0.10566000000E+00 0.  1.
     999900   -1    0    0    0    0 -0.00000000000E+00 -0.00000000000E+00 -0.74505805969E-08  0.93827000000E+00  0.93827000000E+00 0. -1.
     999902    2    1    2    0    0  0.15433337782E-01  0.17255633962E-01  0.30733161267E-02  0.10205764116E+01  0.10203091795E+01 0.  0.
     999903    2    3    3    0    0  0.38269211549E-01 -0.33216876634E-02 -0.12361704338E+00  0.13097237021E+00  0.19925415447E-01 0.  0.
         14    1    1    2    0    0 -0.15433337782E-01 -0.17255633962E-01 -0.30733161267E-02  0.23353588386E-01  0.00000000000E+00 0. -1.
     999901    1    3    3    0    0 -0.22835873768E-01  0.20577321625E-01  0.12669035951E+00  0.88960404141E+00  0.88000000000E+00 0.  1.
        -11    1    4    4    0    0  0.31958421461E-01  0.58334215585E-03 -0.71421797581E-01  0.78249698281E-01  0.51100000000E-03 0.  1.
         11    1    4    4    0    0  0.63107900879E-02 -0.39050298193E-02 -0.52195245803E-01  0.52722671925E-01  0.51100000000E-03 0. -1.
</event>
<event>
 8    1  0.1095698E+005  0.1043930E+01  0.7957747E-01            NaN
         13   -1    0    0    0    0  0.00000000000E+00  0.00000000000E+00  0.74505805969E-08  0.10566000000E+00  0.10566000000E+00 0. -1.
     999900   -1    0    0    0    0 -0.00000000000E+00 -0.00000000000E+00 -0.74505805969E-08  0.93827000000E+00  0.93827000000E+00 0. -1.
     999902    2    1    2    0    0 -0.16965858548E-01 -0.33974404731E-02  0.16197019029E-01  0.10202292324E+01  0.10199539011E+01 0.  0.
     999903    2    3    3    0    0 -0.11333430650E+00  0.86697127120E-02 -0.62765000056E-01  0.13137182294E+00  0.19982034008E-01 0.  0.
         14    1    1    2    0    0  0.16965858548E-01  0.33974404731E-02 -0.16197019029E-01  0.23700767571E-01  0.00000000000E+00 0.  1.
     999901    1    3    3    0    0  0.96368447948E-01 -0.12067153185E-01  0.78962019085E-01  0.88885740949E+00  0.88000000000E+00 0. -1.
        -11    1    4    4    0    0 -0.62561246526E-01  0.61779793438E-03 -0.24111493611E-01  0.67051595703E-01  0.51100000000E-03 0.  1.
         11    1    4    4    0    0 -0.50773059970E-01  0.80519147777E-02 -0.38653506445E-01  0.64320227237E-01  0.51100000000E-03 0. -1.
</event>
<event>
 8    1  0.1095698E+005  0.1043930E+01  0.7957747E-01            NaN
         13   -1    0    0    0    0  0.00000000000E+00  0.00000000000E+00  0.74505805969E-08  0.10566000000E+00  0.10566000000E+00 0. -1.
     999900   -1    0    0    0    0 -0.00000000000E+00 -0.00000000000E+00 -0.74505805969E-08  0.93827000000E+00  0.93827000000E+00 0.  1.
     999902    2    1    2    0    0 -0.15858235506E-01  0.50144704863E-03 -0.17572695636E-01  0.10202543857E+01  0.10199796453E+01 0.  0.
     999903    2    3    3    0    0  0.12640051836E+00 -0.12598492542E-01 -0.66353767126E-02  0.12866659614E+00  0.19371414097E-01 0.  0.
         14    1    1    2    0    0  0.15858235506E-01 -0.50144704863E-03  0.17572695636E-01  0.23675614341E-01  0.00000000000E+00 0. -1.
     999901    1    3    3    0    0 -0.14225875386E+00  0.13099939591E-01 -0.10937318923E-01  0.89158778952E+00  0.88000000000E+00 0.  1.
        -11    1    4    4    0    0  0.88856823498E-01 -0.16603929908E-01 -0.89327503011E-02  0.90836560478E-01  0.51100000000E-03 0. -1.
         11    1    4    4    0    0  0.37543694857E-01  0.40054373653E-02  0.22973735885E-02  0.37830035665E-01  0.51100000000E-03 0.  1.
</event>
<event>
 8    1  0.1095698E+005  0.1043930E+01  0.7957747E-01            NaN
         13   -1    0    0    0    0  0.00000000000E+00  0.00000000000E+00  0.74505805969E-08  0.10566000000E+00  0.10566000000E+00 0.  1.
     999900   -1    0    0    0    0 -0.00000000000E+00 -0.00000000000E+00 -0.74505805969E-08  0.93827000000E+00  0.93827000000E+00 0. -1.
     999902    2    1    2    0    0 -0.22624587627E-01  0.49854529731E-02  0.77486892441E-02  0.10195011463E+01  0.10192084274E+01 0.  0.
     999903    2    3    3    0    0  0.67245689903E-02 -0.34090504626E-01 -0.12246591382E+00  0.12857794745E+00  0.18083312417E-01 0.  0.
         14    1    1    2    0    0  0.22624587627E-01 -0.49854529731E-02 -0.77486892441E-02  0.24428853670E-01  0.00000000000E+00 0.  1.
     999901    1    3    3    0    0 -0.29349156617E-01  0.39075957599E-01  0.13021460306E+00  0.89092319888E+00  0.88000000000E+00 0.  1.
        -11    1    4    4    0    0  0.10970711181E-02 -0.12877336286E-01 -0.20227537718E-01  0.24009243178E-01  0.51100000000E-03 0. -1.
         11    1    4    4    0    0  0.56274978722E-02 -0.21213168340E-01 -0.10223837610E+00  0.10456870427E+00  0.51100000000E-03 0.  1.
</event>
<event>
 8    1  0.1095698E+005  0.1043930E+01  0.7957747E-01            NaN
         13   -1    0    0    0    0  0.00000000000E+00  0.00000000000E+00  0.74505805969E-08  0.10566000000E+00  0.10566000000E+00 0. -1.
     999900   -1    0    0    0    0 -0.00000000000E+00 -0.00000000000E+00 -0.74505805969E-08  0.93827000000E+00  0.93827000000E+00 0. -1.
     999902    2    1    2    0    0  0.10788970365E-01 -0.20128981134E-01  0.63043055632E-02  0.10202377643E+01  0.10199626335E+01 0.  0.
     999903    2    3    3    0    0  0.58621320360E-01 -0.52282823392E-02  0.11643292916E+00  0.13195949808E+00  0.19821402684E-01 0.  0.
         14    1    1    2    0    0 -0.10788970365E-01  0.20128981134E-01 -0.63043055632E-02  0.23692235683E-01  0.00000000000E+00 0.  1.
     999901    1    3    3    0    0 -0.47832349995E-01 -0.14900698795E-01 -0.11012862360E+00  0.88827826624E+00  0.88000000000E+00 0. -1.
        -11    1    4    4    0    0  0.44376055032E-01 -0.35930111012E-02  0.10338898933E+00  0.11256859342E+00  0.51100000000E-03 0.  1.
         11    1    4    4    0    0  0.14245265328E-01 -0.16352712380E-02  0.13043939827E-01  0.19390904659E-01  0.51100000000E-03 0. -1.
</event>
<event>
 8    1  0.1095698E+005  0.1043930E+01  0.7957747E-01            NaN
         13   -1    0    0    0    0  0.00000000000E+00  0.00000000000E+00  0.74505805969E-08  0.10566000000E+00  0.10566000000E+00 0. -1.
     999900   -1    0    0    0    0 -0.00000000000E+00 -0.00000000000E+00 -0.74505805969E-08  0.93827000000E+00  0.93827000000E+00 0. -1.
     999902    2    1    2    0    0 -0.26658130335E-02 -0.91726691231E-02  0.21465273480E-01  0.10204352690E+01  0.10201647592E+01 0.  0.
     999903    2    3    3    0    0  0.33726753712E-01 -0.12342243069E+00 -0.19714054680E-01  0.13134969159E+00  0.22215022329E-01 0.  0.
         14    1    1    2    0    0  0.26658130335E-02  0.91726691231E-02 -0.21465273480E-01  0.23494730974E-01  0.00000000000E+00 0.  1.
     999901    1    3    3    0    0 -0.36392566745E-01  0.11424976156E+00  0.41179328160E-01  0.88908557743E+00  0.88000000000E+00 0.  1.
        -11    1    4    4    0    0  0.16334572946E-01 -0.96027906511E-01 -0.14833863636E-01  0.98531628088E-01  0.51100000000E-03 0.  1.
         11    1    4    4    0    0  0.17392180766E-01 -0.27394524175E-01 -0.48801910444E-02  0.32818063505E-01  0.51100000000E-03 0. -1.
</event>
<event>
 8    1  0.1095698E+005  0.1043930E+01  0.7957747E-01            NaN
         13   -1    0    0    0    0  0.00000000000E+00  0.00000000000E+00  0.74505805969E-08  0.10566000000E+00  0.10566000000E+00 0.  1.
     999900   -1    0    0    0    0 -0.00000000000E+00 -0.00000000000E+00 -0.74505805969E-08  0.93827000000E+00  0.93827000000E+00 0.  1.
     999902    2    1    2    0    0  0.15821184095E-01  0.11836339963E-02 -0.17002323139E-01  0.10206751113E+01  0.10204101592E+01 0.  0.
     999903    2    3    3    0    0  0.11847706766E+00  0.44373574316E-01 -0.38084273692E-01  0.13340511294E+00  0.18457589128E-01 0.  0.
         14    1    1    2    0    0 -0.15821184095E-01 -0.11836339963E-02  0.17002323139E-01  0.23254888684E-01  0.00000000000E+00 0. -1.
     999901    1    3    3    0    0 -0.10265588357E+00 -0.43189940320E-01  0.21081950553E-01  0.88726999837E+00  0.88000000000E+00 0.  1.
        -11    1    4    4    0    0  0.10010345707E-01  0.68171450687E-03  0.10314800094E-02  0.10099347893E-01  0.51100000000E-03 0. -1.
         11    1    4    4    0    0  0.10846672196E+00  0.43691859810E-01 -0.39115753701E-01  0.12330576505E+00  0.51100000000E-03 0.  1.
</event>
<event>
 8    1  0.1095698E+005  0.1043930E+01  0.7957747E-01            NaN
         13   -1    0    0    0    0  0.00000000000E+00  0.00000000000E+00  0.74505805969E-08  0.10566000000E+00  0.10566000000E+00 0.  1.
     999900   -1    0    0    0    0 -0.00000000000E+00 -0.00000000000E+00 -0.74505805969E-08  0.93827000000E+00  0.93827000000E+00 0.  1.
     999902    2    1    2    0    0 -0.17275761206E-01  0.11913164353E-01  0.73459764571E-02  0.10216962693E+01  0.10214543200E+01 0.  0.
     999903    2    3    3    0    0 -0.12742071016E+00  0.37252074212E-01  0.10484389547E-01  0.13446246711E+00  0.18613925634E-01 0.  0.
         14    1    1    2    0    0  0.17275761206E-01 -0.11913164353E-01 -0.73459764571E-02  0.22233730687E-01  0.00000000000E+00 0.  1.
     999901    1    3    3    0    0  0.11014494895E+00 -0.25338909859E-01 -0.31384130902E-02  0.88723380220E+00  0.88000000000E+00 0.  1.
        -11    1    4    4    0    0 -0.55277076700E-01  0.14855526847E-01 -0.46145444027E-02  0.57426448849E-01  0.51100000000E-03 0.  1.
         11    1    4    4    0    0 -0.72143633457E-01  0.22396547365E-01  0.15098933950E-01  0.77036018262E-01  0.51100000000E-03 0. -1.
</event>
<event>
 8    1  0.1095698E+005  0.1043930E+01  0.7957747E-01            NaN
         13   -1    0    0    0    0  0.00000000000E+00  0.00000000000E+00  0.74505805969E-08  0.10566000000E+00  0.10566000000E+00 0.  1.
     999900   -1    0    0    0    0 -0.00000000000E+00 -0.00000000000E+00 -0.74505805969E-08  0.93827000000E+00  0.93827000000E+00 0. -1.
     999902    2    1    2    0    0  0.20674100956E-01  0.57829515250E-02 -0.11176707110E-01  0.10197271126E+01  0.10194398483E+01 0.  0.
     999903    2    3    3    0    0  0.40099991461E-01  0.97247533342E-01 -0.77545265685E-01  0.13228814535E+00  0.20537602451E-01 0.  0.
         14    1    1    2    0    0 -0.20674100956E-01 -0.57829515250E-02  0.11176707110E-01  0.24202887441E-01  0.00000000000E+00 0.  1.
     999901    1    3    3    0    0 -0.19425890505E-01 -0.91464581817E-01  0.66368558575E-01  0.88743896721E+00  0.88000000000E+00 0.  1.
        -11    1    4    4    0    0  0.91748543704E-02  0.45951490556E-01 -0.39856384347E-01  0.61518370681E-01  0.51100000000E-03 0. -1.
         11    1    4    4    0    0  0.30925137090E-01  0.51296042786E-01 -0.37688881338E-01  0.70769774672E-01  0.51100000000E-03 0.  1.
</event>
<event>
 8    1  0.1095698E+005  0.1043930E+01  0.7957747E-01            NaN
         13   -1    0    0    0    0  0.00000000000E+00  0.00000000000E+00  0.74505805969E-08  0.10566000000E+00  0.10566000000E+00 0. -1.
     999900   -1    0    0    0    0 -0.00000000000E+00 -0.00000000000E+00 -0.74505805969E-08  0.93827000000E+00  0.93827000000E+00 0.  1.
     999902    2    1    2    0    0  0.22246471241E-01 -0.36049055076E-02  0.21075037353E-02  0.10212950183E+01  0.10210441577E+01 0.  0.
     999903    2    3    3    0    0 -0.10707996536E+00 -0.21892641342E-01 -0.65941024467E-01  0.12905605325E+00  0.19022077908E-01 0.  0.
         14    1    1    2    0    0 -0.22246471241E-01  0.36049055076E-02 -0.21075037353E-02  0.22634981741E-01  0.00000000000E+00 0.  1.
     999901    1    3    3    0    0  0.12932643660E+00  0.18287735834E-01  0.68048528202E-01  0.89223896501E+00  0.88000000000E+00 0. -1.
        -11    1    4    4    0    0 -0.71057228948E-01 -0.18531752793E-01 -0.53256703708E-01  0.90714349792E-01  0.51100000000E-03 0.  1.
         11    1    4    4    0    0 -0.36022736408E-01 -0.33608885483E-02 -0.12684320758E-01  0.38341703461E-01  0.51100000000E-03 0. -1.
</event>
<event>
 8    1  0.1095698E+005  0.1043930E+01  0.7957747E-01            NaN
         13   -1    0    0    0    0  0.00000000000E+00  0.00000000000E+00  0.74505805969E-08  0.10566000000E+00  0.10566000000E+00 0. -1.
     999900   -1    0    0    0    0 -0.00000000000E+00 -0.00000000000E+00 -0.74505805969E-08  0.93827000000E+00  0.93827000000E+00 0.  1.
     999902    2    1    2    0    0 -0.10739500816E-03 -0.23271794566E-01  0.35133287289E-03  0.10206553058E+01  0.10203898970E+01 0.  0.
     999903    2    3    3    0    0  0.12523222732E+00 -0.19358219744E-01  0.27721707471E-01  0.13134406983E+00  0.20613592197E-01 0.  0.
         14    1    1    2    0    0  0.10739500816E-03  0.23271794566E-01 -0.35133287289E-03  0.23274694215E-01  0.00000000000E+00 0.  1.
     999901    1    3    3    0    0 -0.12533962233E+00 -0.39135748215E-02 -0.27370374598E-01  0.88931123596E+00  0.88000000000E+00 0. -1.
        -11    1    4    4    0    0  0.98897771432E-01 -0.68440255071E-02  0.23454678090E-01  0.10187243457E+00  0.51100000000E-03 0.  1.
         11    1    4    4    0    0  0.26334455886E-01 -0.12514194237E-01  0.42670293811E-02  0.29471635261E-01  0.51100000000E-03 0. -1.
</event>
<event>
 8    1  0.1095698E+005  0.1043930E+01  0.7957747E-01            NaN
         13   -1    0    0    0    0  0.00000000000E+00  0.00000000000E+00  0.74505805969E-08  0.10566000000E+00  0.10566000000E+00 0. -1.
     999900   -1    0    0    0    0 -0.00000000000E+00 -0.00000000000E+00 -0.74505805969E-08  0.93827000000E+00  0.93827000000E+00 0.  1.
     999902    2    1    2    0    0 -0.11224039648E-02  0.77345996488E-02  0.19404901761E-01  0.10230102955E+01  0.10227963779E+01 0.  0.
     999903    2    3    3    0    0 -0.10544992926E+00 -0.71433017947E-01  0.34467247350E-01  0.13319086528E+00  0.18150807706E-01 0.  0.
         14    1    1    2    0    0  0.11224039648E-02 -0.77345996488E-02 -0.19404901761E-01  0.20919704461E-01  0.00000000000E+00 0.  1.
     999901    1    3    3    0    0  0.10432752530E+00  0.79167617596E-01 -0.15062345589E-01  0.88981943026E+00  0.88000000000E+00 0.  1.
        -11    1    4    4    0    0 -0.90397513351E-01 -0.55431054029E-01  0.33454702650E-01  0.11119258258E+00  0.51100000000E-03 0. -1.
         11    1    4    4    0    0 -0.15052415909E-01 -0.16001963918E-01  0.10125447001E-02  0.21998282699E-01  0.51100000000E-03 0.  1.
</event>
<event>
 8    1  0.1095698E+005  0.1043930E+01  0.7957747E-01            NaN
         13   -1    0    0    0    0  0.00000000000E+00  0.00000000000E+00  0.74505805969E-08  0.10566000000E+00  0.10566000000E+00 0.  1.
     999900   -1    0    0    0    0 -0.00000000000E+00 -0.00000000000E+00 -0.74505805969E-08  0.93827000000E+00  0.93827000000E+00 0.  1.
     999902    2    1    2    0    0  0.49325855449E-02 -0.23162226618E-01  0.64681237514E-02  0.10193809518E+01  0.10190853100E+01 0.  0.
     999903    2    3    3    0    0  0.63198436875E-01 -0.10327654847E+00  0.50851849961E-01  0.13271126746E+00  0.19138494697E-01 0.  0.
         14    1    1    2    0    0 -0.49325855449E-02  0.23162226618E-01 -0.64681237514E-02  0.24549048188E-01  0.00000000000E+00 0.  1.
     999901    1    3    3    0    0 -0.58265851330E-01  0.80114321851E-01 -0.44383726210E-01  0.88666968435E+00  0.88000000000E+00 0.  1.
        -11    1    4    4    0    0  0.49706005828E-01 -0.63997749260E-01  0.32722296128E-01  0.87392269170E-01  0.51100000000E-03 0. -1.
         11    1    4    4    0    0  0.13492431047E-01 -0.39278799209E-01  0.18129553833E-01  0.45318998290E-01  0.51100000000E-03 0.  1.
</event>
<event>
 8    1  0.1095698E+005  0.1043930E+01  0.7957747E-01            NaN
         13   -1    0    0    0    0  0.00000000000E+00  0.00000000000E+00  0.74505805969E-08  0.10566000000E+00  0.10566000000E+00 0.  1.
     999900   -1    0    0    0    0 -0.00000000000E+00 -0.00000000000E+00 -0.74505805969E-08  0.93827000000E+00  0.93827000000E+00 0. -1.
     999902    2    1    2    0    0 -0.17174812083E-02  0.19730275087E-01 -0.12936606568E-01  0.10202743604E+01  0.10200000888E+01 0.  0.
     999903    2    3    3    0    0  0.18342383032E-01  0.12033965135E+00  0.48001581767E-01  0.13222137347E+00  0.18980649331E-01 0.  0.
         14    1    1    2    0    0  0.17174812083E-02 -0.19730275087E-01  0.12936606568E-01  0.23655639628E-01  0.00000000000E+00 0.  1.
     999901    1    3    3    0    0 -0.20059864240E-01 -0.10060937626E+00 -0.60938188335E-01  0.88805298690E+00  0.88000000000E+00 0. -1.
        -11    1    4    4    0    0  0.93160682184E-02  0.22682815686E-01  0.45177691744E-02  0.24939338680E-01  0.51100000000E-03 0. -1.
         11    1    4    4    0    0  0.90263148132E-02  0.97656835661E-01  0.43483812592E-01  0.10728203479E+00  0.51100000000E-03 0.  1.
</event>
<event>
 8    1  0.1095698E+005  0.1043930E+01  0.7957747E-01            NaN
         13   -1    0    0    0    0  0.00000000000E+00  0.00000000000E+00  0.74505805969E-08  0.10566000000E+00  0.10566000000E+00 0.  1.
     999900   -1    0    0    0    0 -0.00000000000E+00 -0.00000000000E+00 -0.74505805969E-08  0.93827000000E+00  0.93827000000E+00 0.  1.
     999902    2    1    2    0    0 -0.84724432868E-02  0.21538137152E-01  0.27661246654E-02  0.10206206651E+01  0.10203544565E+01 0.  0.
     999903    2    3    3    0    0 -0.72833248041E-01  0.98222042115E-01  0.49863912639E-01  0.13369285740E+00  0.20859500410E-01 0.  0.
         14    1    1    2    0    0  0.84724432868E-02 -0.21538137152E-01 -0.27661246654E-02  0.23309334888E-01  0.00000000000E+00 0. -1.
     999901    1    3    3    0    0  0.64360804754E-01 -0.76683904963E-01 -0.47097787974E-01  0.88692780772E+00  0.88000000000E+00 0. -1.
        -11    1    4    4    0    0 -0.41026584405E-01  0.69000287713E-01  0.38474821049E-01  0.89021308169E-01  0.51100000000E-03 0.  1.
         11    1    4    4    0    0 -0.31806663636E-01  0.29221754402E-01  0.11389091590E-01  0.44671549226E-01  0.51100000000E-03 0. -1.
</event>
<event>
 8    1  0.1095698E+005  0.1043930E+01  0.7957747E-01            NaN
         13   -1    0    0    0    0  0.00000000000E+00  0.00000000000E+00  0.74505805969E-08  0.10566000000E+00  0.10566000000E+00 0. -1.
     999900   -1    0    0    0    0 -0.00000000000E+00 -0.00000000000E+00 -0.74505805969E-08  0.93827000000E+00  0.93827000000E+00 0. -1.
     999902    2    1    2    0    0  0.16774350908E-01  0.11730125108E-01  0.16056302851E-01  0.10179150131E+01  0.10175825246E+01 0.  0.
     999903    2    3    3    0    0  0.45753370750E-01 -0.81694263451E-01  0.87597930320E-01  0.12960982654E+00  0.18920521215E-01 0.  0.
         14    1    1    2    0    0 -0.16774350908E-01 -0.11730125108E-01 -0.16056302851E-01  0.26014986924E-01  0.00000000000E+00 0.  1.
     999901    1    3    3    0    0 -0.28979019843E-01  0.93424388560E-01 -0.71541627469E-01  0.88830518654E+00  0.88000000000E+00 0. -1.
        -11    1    4    4    0    0  0.39473580962E-01 -0.53649944988E-01  0.64720721649E-01  0.92873640625E-01  0.51100000000E-03 0.  1.
         11    1    4    4    0    0  0.62797897880E-02 -0.28044318463E-01  0.22877208671E-01  0.36736185913E-01  0.51100000000E-03 0. -1.
</event>
<event>
 8    1  0.1095698E+005  0.1043930E+01  0.7957747E-01            NaN
         13   -1    0    0    0    0  0.00000000000E+00  0.00000000000E+00  0.74505805969E-08  0.10566000000E+00  0.10566000000E+00 0. -1.
     999900   -1    0    0    0    0 -0.00000000000E+00 -0.00000000000E+00 -0.74505805969E-08  0.93827000000E+00  0.93827000000E+00 0. -1.
     999902    2    1    2    0    0 -0.23908911203E-01  0.21387215642E-02  0.74278688243E-02  0.10188026563E+01  0.10184927438E+01 0.  0.
     999903    2    3    3    0    0 -0.11519015146E+00  0.43365974143E-01 -0.42245670919E-01  0.13172914656E+00  0.20457092519E-01 0.  0.
         14    1    1    2    0    0  0.23908911203E-01 -0.21387215642E-02 -0.74278688243E-02  0.25127343674E-01  0.00000000000E+00 0.  1.
     999901    1    3    3    0    0  0.91281240260E-01 -0.41227252578E-01  0.49673539744E-01  0.88707350977E+00  0.88000000000E+00 0.  1.
        -11    1    4    4    0    0 -0.31323018827E-01  0.16829909125E-01 -0.39234579963E-02  0.35777534756E-01  0.51100000000E-03 0. -1.
         11    1    4    4    0    0 -0.83867132636E-01  0.26536065017E-01 -0.38322212923E-01  0.95951611803E-01  0.51100000000E-03 0.  1.
</event>
<event>
 8    1  0.1095698E+005  0.1043930E+01  0.7957747E-01            NaN
         13   -1    0    0    0    0  0.00000000000E+00  0.00000000000E+00  0.74505805969E-08  0.10566000000E+00  0.10566000000E+00 0.  1.
     999900   -1    0    0    0    0 -0.00000000000E+00 -0.00000000000E+00 -0.74505805969E-08  0.93827000000E+00  0.93827000000E+00 0.  1.
     999902    2    1    2    0    0 -0.67795002983E-02  0.58639948101E-02  0.21600883888E-01  0.10205431181E+01  0.10202751147E+01 0.  0.
     999903    2    3    3    0    0 -0.11568179015E-01 -0.39651254495E-01  0.12520114305E+00  0.13328465349E+00  0.19581314656E-01 0.  0.
         14    1    1    2    0    0  0.67795002983E-02 -0.58639948101E-02 -0.21600883888E-01  0.23386881882E-01  0.00000000000E+00 0. -1.
     999901    1    3    3    0    0  0.47886787171E-02  0.45515249305E-01 -0.10360025917E+00  0.88725846463E+00  0.88000000000E+00 0.  1.
        -11    1    4    4    0    0 -0.14243474380E-01 -0.14237669014E-01  0.56254371648E-01  0.59752851245E-01  0.51100000000E-03 0.  1.
         11    1    4    4    0    0  0.26752953648E-02 -0.25413585481E-01  0.68946771406E-01  0.73531802240E-01  0.51100000000E-03 0. -1.
</event>
<event>
 8    1  0.1095698E+005  0.1043930E+01  0.7957747E-01            NaN
         13   -1    0    0    0    0  0.00000000000E+00  0.00000000000E+00  0.74505805969E-08  0.10566000000E+00  0.10566000000E+00 0.  1.
     999900   -1    0    0    0    0 -0.00000000000E+00 -0.00000000000E+00 -0.74505805969E-08  0.93827000000E+00  0.93827000000E+00 0.  1.
     999902    2    1    2    0    0 -0.19132228854E-01  0.26362079271E-01 -0.24093209997E-02  0.10112680002E+01  0.10107404029E+01 0.  0.
     999903    2    3    3    0    0  0.72775878212E-01 -0.73026941340E-01  0.53726796971E-01  0.11914887064E+00  0.26088734158E-01 0.  0.
         14    1    1    2    0    0  0.19132228854E-01 -0.26362079271E-01  0.24093209997E-02  0.32661999818E-01  0.00000000000E+00 0. -1.
     999901    1    3    3    0    0 -0.91908107065E-01  0.99389020612E-01 -0.56136117971E-01  0.89211912955E+00  0.88000000000E+00 0.  1.
        -11    1    4    4    0    0  0.14316851815E-01 -0.18924938201E-01  0.25000477573E-01  0.34473330731E-01  0.51100000000E-03 0.  1.
         11    1    4    4    0    0  0.58459026397E-01 -0.54102003140E-01  0.28726319398E-01  0.84675539905E-01  0.51100000000E-03 0. -1.
</event>
<event>
 8    1  0.1095698E+005  0.1043930E+01  0.7957747E-01            NaN
         13   -1    0    0    0    0  0.00000000000E+00  0.00000000000E+00  0.74505805969E-08  0.10566000000E+00  0.10566000000E+00 0.  1.
     999900   -1    0    0    0    0 -0.00000000000E+00 -0.00000000000E+00 -0.74505805969E-08  0.93827000000E+00  0.93827000000E+00 0.  1.
     999902    2    1    2    0    0  0.58289572506E-02  0.71193987365E-02  0.21690823470E-01  0.10203682852E+01  0.10200962126E+01 0.  0.
     999903    2    3    3    0    0  0.75135255130E-01  0.10224410836E+00  0.32264357464E-01  0.13246971391E+00  0.20200794109E-01 0.  0.
         14    1    1    2    0    0 -0.58289572506E-02 -0.71193987365E-02 -0.21690823470E-01  0.23561714789E-01  0.00000000000E+00 0. -1.
     999901    1    3    3    0    0 -0.69306297880E-01 -0.95124709619E-01 -0.10573533994E-01  0.88789857131E+00  0.88000000000E+00 0. -1.
        -11    1    4    4    0    0  0.64796805761E-01  0.73934232766E-01  0.25820662033E-01  0.10164577965E+00  0.51100000000E-03 0. -1.
         11    1    4    4    0    0  0.10338449369E-01  0.28309875590E-01  0.64436954309E-02  0.30823934257E-01  0.51100000000E-03 0.  1.
</event>
<event>
 8    1  0.1095698E+005  0.1043930E+01  0.7957747E-01            NaN
         13   -1    0    0    0    0  0.00000000000E+00  0.00000000000E+00  0.74505805969E-08  0.10566000000E+00  0.10566000000E+00 0.  1.
     999900   -1    0    0    0    0 -0.00000000000E+00 -0.00000000000E+00 -0.74505805969E-08  0.93827000000E+00  0.93827000000E+00 0. -1.
     999902    2    1    2    0    0 -0.12870088762E-01 -0.54470530678E-02  0.19335676947E-01  0.10200725489E+01  0.10197935217E+01 0.  0.
     999903    2    3    3    0    0 -0.52226834366E-01  0.23531518857E-01  0.11875864473E+00  0.13312630608E+00  0.18374522207E-01 0.  0.
         14    1    1    2    0    0  0.12870088762E-01  0.54470530678E-02 -0.19335676947E-01  0.23857451139E-01  0.00000000000E+00 0.  1.
     999901    1    3    3    0    0  0.39356745604E-01 -0.28978571925E-01 -0.99422967780E-01  0.88694624278E+00  0.88000000000E+00 0. -1.
        -11    1    4    4    0    0 -0.17515145977E-01  0.38987587046E-03  0.46415849860E-01  0.49614761725E-01  0.51100000000E-03 0. -1.
         11    1    4    4    0    0 -0.34711688389E-01  0.23141642987E-01  0.72342794867E-01  0.83511544358E-01  0.51100000000E-03 0.  1.
</event>
<event>
 8    1  0.1095698E+005  0.1043930E+01  0.7957747E-01            NaN
         13   -1    0    0    0    0  0.00000000000E+00  0.00000000000E+00  0.74505805969E-08  0.10566000000E+00  0.10566000000E+00 0.  1.
     999900   -1    0    0    0    0 -0.00000000000E+00 -0.00000000000E+00 -0.74505805969E-08  0.93827000000E+00  0.93827000000E+00 0. -1.
     999902    2    1    2    0    0 -0.57119868688E-02  0.22118513460E-01 -0.37884264616E-02  0.10207738430E+01  0.10205111616E+01 0.  0.
     999903    2    3    3    0    0 -0.17474356931E-01  0.62235064873E-01  0.11325161386E+00  0.13204100234E+00  0.20744681368E-01 0.  0.
         14    1    1    2    0    0  0.57119868688E-02 -0.22118513460E-01  0.37884264616E-02  0.23156156994E-01  0.00000000000E+00 0. -1.
     999901    1    3    3    0    0  0.11762370062E-01 -0.40116551413E-01 -0.11704004033E+00  0.88873284067E+00  0.88000000000E+00 0. -1.
        -11    1    4    4    0    0 -0.16233635833E-01  0.33799481478E-01  0.79407046052E-01  0.87816148654E-01  0.51100000000E-03 0. -1.
         11    1    4    4    0    0 -0.12407210976E-02  0.28435583395E-01  0.33844567812E-01  0.44224853682E-01  0.51100000000E-03 0.  1.
</event>
<event>
 8    1  0.1095698E+005  0.1043930E+01  0.7957747E-01            NaN
         13   -1    0    0    0    0  0.00000000000E+00  0.00000000000E+00  0.74505805969E-08  0.10566000000E+00  0.10566000000E+00 0.  1.
     999900   -1    0    0    0    0 -0.00000000000E+00 -0.00000000000E+00 -0.74505805969E-08  0.93827000000E+00  0.93827000000E+00 0.  1.
     999902    2    1    2    0    0  0.20830002261E-01 -0.51694343802E-02 -0.15055625296E-01  0.10177139000E+01  0.10173761833E+01 0.  0.
     999903    2    3    3    0    0 -0.10035623127E+00 -0.74827870540E-01  0.57830148961E-02  0.12643804492E+00  0.16809300340E-01 0.  0.
         14    1    1    2    0    0 -0.20830002261E-01  0.51694343802E-02  0.15055625296E-01  0.26216099997E-01  0.00000000000E+00 0.  1.
     999901    1    3    3    0    0  0.12118623353E+00  0.69658436160E-01 -0.20838640193E-01  0.89127585508E+00  0.88000000000E+00 0. -1.
        -11    1    4    4    0    0 -0.54677606191E-01 -0.47207561439E-01  0.98197597869E-02  0.72903246011E-01  0.51100000000E-03 0.  1.
         11    1    4    4    0    0 -0.45678625080E-01 -0.27620309101E-01 -0.40367448908E-02  0.53534798910E-01  0.51100000000E-03 0. -1.
</event>
<event>
 8    1  0.1095698E+005  0.1043930E+01  0.7957747E-01            NaN
         13   -1    0    0    0    0  0.00000000000E+00  0.00000000000E+00  0.74505805969E-08  0.10566000000E+00  0.10566000000E+00 0.  1.
     999900   -1    0    0    0    0 -0.00000000000E+00 -0.00000000000E+00 -0.74505805969E-08  0.93827000000E+00  0.93827000000E+00 0.  1.
     999902    2    1    2    0    0 -0.14293446877E-01  0.15430072812E-01 -0.95210446929E-02  0.10208423396E+01  0.10205812277E+01 0.  0.
     999903    2    3    3    0    0 -0.17709504252E-01 -0.27906087488E-01  0.12394819255E+00  0.12971735985E+00  0.19262989134E-01 0.  0.
         14    1    1    2    0    0  0.14293446877E-01 -0.15430072812E-01  0.95210446929E-02  0.23087660398E-01  0.00000000000E+00 0.  1.
     999901    1    3    3    0    0  0.34160573743E-02  0.43336160300E-01 -0.13346923725E+00  0.89112497975E+00  0.88000000000E+00 0.  1.
        -11    1    4    4    0    0 -0.37287636444E-02 -0.11432067880E-01  0.18453805203E-01  0.22031792977E-01  0.51100000000E-03 0.  1.
         11    1    4    4    0    0 -0.13980740607E-01 -0.16474019608E-01  0.10549438735E+00  0.10768556688E+00  0.51100000000E-03 0. -1.
</event>
<event>
 8    1  0.1095698E+005  0.1043930E+01  0.7957747E-01            NaN
         13   -1    0    0    0    0  0.00000000000E+00  0.00000000000E+00  0.74505805969E-08  0.10566000000E+00  0.10566000000E+00 0. -1.
     999900   -1    0    0    0    0 -0.00000000000E+00 -0.00000000000E+00 -0.74505805969E-08  0.93827000000E+00  0.93827000000E+00 0. -1.
     999902    2    1    2    0    0 -0.11833475356E-01  0.20769569068E-01  0.16100183301E-03  0.10200253548E+01  0.10197452096E+01 0.  0.
     999903    2    3    3    0    0 -0.95188842230E-01 -0.39097998662E-02  0.88270236382E-01  0.13136319989E+00  0.19709222075E-01 0.  0.
         14    1    1    2    0    0  0.11833475356E-01 -0.20769569068E-01 -0.16100183301E-03  0.23904645153E-01  0.00000000000E+00 0. -1.
     999901    1    3    3    0    0  0.83355366874E-01  0.24679368934E-01 -0.88109234549E-01  0.88866215496E+00  0.88000000000E+00 0. -1.
        -11    1    4    4    0    0 -0.20821837250E-01 -0.45286380546E-02  0.10516514087E-01  0.23767954448E-01  0.51100000000E-03 0.  1.
         11    1    4    4    0    0 -0.74367004980E-01  0.61883818843E-03  0.77753722294E-01  0.10759524544E+00  0.51100000000E-03 0. -1.
</event>
<event>
 8    1  0.1095698E+005  0.1043930E+01  0.7957747E-01            NaN
         13   -1    0    0    0    0  0.00000000000E+00  0.00000000000E+00  0.74505805969E-08  0.10566000000E+00  0.10566000000E+00 0. -1.
     999900   -1    0    0    0    0 -0.00000000000E+00 -0.00000000000E+00 -0.74505805969E-08  0.93827000000E+00  0.93827000000E+00 0. -1.
     999902    2    1    2    0    0 -0.17610656085E-01 -0.20254613003E-02  0.15169942659E-01  0.10205983721E+01  0.10203316482E+01 0.  0.
     999903    2    3    3    0    0  0.48361741162E-01  0.81679109862E-01 -0.84805815697E-01  0.12854794486E+00  0.17950285700E-01 0.  0.
         14    1    1    2    0    0  0.17610656085E-01  0.20254613003E-02 -0.15169942659E-01  0.23331627922E-01  0.00000000000E+00 0.  1.
     999901    1    3    3    0    0 -0.65972397247E-01 -0.83704571163E-01  0.99975758356E-01  0.89205042721E+00  0.88000000000E+00 0.  1.
        -11    1    4    4    0    0  0.20279981850E-01  0.44675389519E-01 -0.33937725435E-01  0.59659017938E-01  0.51100000000E-03 0.  1.
         11    1    4    4    0    0  0.28081759312E-01  0.37003720343E-01 -0.50868090262E-01  0.68888926927E-01  0.51100000000E-03 0. -1.
</event>
<event>
 8    1  0.1095698E+005  0.1043930E+01  0.7957747E-01            NaN
         13   -1    0    0    0    0  0.00000000000E+00  0.00000000000E+00  0.74505805969E-08  0.10566000000E+00  0.10566000000E+00 0. -1.
     999900   -1    0    0    0    0 -0.00000000000E+00 -0.00000000000E+00 -0.74505805969E-08  0.93827000000E+00  0.93827000000E+00 0. -1.
     999902    2    1    2    0    0 -0.21772770335E-01 -0.58776085469E-02 -0.51077963888E-02  0.10208066483E+01  0.10205447192E+01 0.  0.
     999903    2    3    3    0    0  0.93380215359E-02  0.12729624493E+00 -0.17288590659E-01  0.13015995719E+00  0.18739969861E-01 0.  0.
         14    1    1    2    0    0  0.21772770335E-01  0.58776085469E-02  0.51077963888E-02  0.23123351709E-01  0.00000000000E+00 0.  1.
     999901    1    3    3    0    0 -0.31110791871E-01 -0.13317385347E+00  0.12180794270E-01  0.89064669110E+00  0.88000000000E+00 0.  1.
        -11    1    4    4    0    0  0.12925814489E-01  0.11527220617E+00 -0.18805839669E-01  0.11751033538E+00  0.51100000000E-03 0. -1.
         11    1    4    4    0    0 -0.35877929532E-02  0.12024038759E-01  0.15172490100E-02  0.12649621809E-01  0.51100000000E-03 0.  1.
</event>
<event>
 8    1  0.1095698E+005  0.1043930E+01  0.7957747E-01            NaN
         13   -1    0    0    0    0  0.00000000000E+00  0.00000000000E+00  0.74505805969E-08  0.10566000000E+00  0.10566000000E+00 0.  1.
     999900   -1    0    0    0    0 -0.00000000000E+00 -0.00000000000E+00 -0.74505805969E-08  0.93827000000E+00  0.93827000000E+00 0.  1.
     999902    2    1    2    0    0 -0.81051053611E-02 -0.17265258676E-01 -0.13995847625E-01  0.10202727466E+01  0.10199984371E+01 0.  0.
     999903    2    3    3    0    0  0.10347797718E+00 -0.73829469709E-01  0.22430514291E-01  0.13067892119E+00  0.20380630802E-01 0.  0.
         14    1    1    2    0    0  0.81051053611E-02  0.17265258676E-01  0.13995847625E-01  0.23657253450E-01  0.00000000000E+00 0.  1.
     999901    1    3    3    0    0 -0.11158308255E+00  0.56564211033E-01 -0.36426361916E-01  0.88959382536E+00  0.88000000000E+00 0.  1.
        -11    1    4    4    0    0  0.67030590010E-01 -0.38638193102E-01  0.68633627657E-02  0.77674814661E-01  0.51100000000E-03 0.  1.
         11    1    4    4    0    0  0.36447387175E-01 -0.35191276607E-01  0.15567151525E-01  0.53004106527E-01  0.51100000000E-03 0. -1.
</event>
<event>
 8    1  0.1095698E+005  0.1043930E+01  0.7957747E-01            NaN
         13   -1    0    0    0    0  0.00000000000E+00  0.00000000000E+00  0.74505805969E-08  0.10566000000E+00  0.10566000000E+00 0.  1.
     999900   -1    0    0    0    0 -0.00000000000E+00 -0.00000000000E+00 -0.74505805969E-08  0.93827000000E+00  0.93827000000E+00 0.  1.
     999902    2    1    2    0    0 -0.22872899532E-01 -0.83796195574E-03  0.91094932245E-02  0.10192955814E+01  0.10189978546E+01 0.  0.
     999903    2    3    3    0    0  0.11171455010E+00  0.58739718513E-02  0.58136340549E-01  0.12768890611E+00  0.20247923377E-01 0.  0.
         14    1    1    2    0    0  0.22872899532E-01  0.83796195574E-03 -0.91094932245E-02  0.24634418606E-01  0.00000000000E+00 0.  1.
     999901    1    3    3    0    0 -0.13458744963E+00 -0.67119338070E-02 -0.49026847324E-01  0.89160667529E+00  0.88000000000E+00 0.  1.
        -11    1    4    4    0    0  0.44074128562E-02 -0.35912346509E-02  0.11619919160E-02  0.58252554121E-02  0.51100000000E-03 0. -1.
         11    1    4    4    0    0  0.10730713725E+00  0.94652065022E-02  0.56974348633E-01  0.12186365070E+00  0.51100000000E-03 0.  1.
</event>
<event>
 8    1  0.1095698E+005  0.1043930E+01  0.7957747E-01            NaN
         13   -1    0    0    0    0  0.00000000000E+00  0.00000000000E+00  0.74505805969E-08  0.10566000000E+00  0.10566000000E+00 0. -1.
     999900   -1    0    0    0    0 -0.00000000000E+00 -0.00000000000E+00 -0.74505805969E-08  0.93827000000E+00  0.93827000000E+00 0.  1.
     999902    2    1    2    0    0 -0.86715296178E-02  0.11629928826E-01  0.18024403678E-01  0.10207928049E+01  0.10205305584E+01 0.  0.
     999903    2    3    3    0    0 -0.76861285388E-01 -0.82540237497E-01  0.65550119296E-01  0.13187404781E+00  0.19323518000E-01 0.  0.
         14    1    1    2    0    0  0.86715296178E-02 -0.11629928826E-01 -0.18024403678E-01  0.23137195127E-01  0.00000000000E+00 0.  1.
     999901    1    3    3    0    0  0.68189755770E-01  0.94170166323E-01 -0.47525715618E-01  0.88891875707E+00  0.88000000000E+00 0. -1.
        -11    1    4    4    0    0 -0.60365025799E-01 -0.59528273578E-01  0.40042976395E-01  0.93761680737E-01  0.51100000000E-03 0. -1.
         11    1    4    4    0    0 -0.16496259589E-01 -0.23011963919E-01  0.25507142900E-01  0.38112367071E-01  0.51100000000E-03 0.  1.
</event>
<event>
 8    1  0.1095698E+005  0.1043930E+01  0.7957747E-01            NaN
         13   -1    0    0    0    0  0.00000000000E+00  0.00000000000E+00  0.74505805969E-08  0.10566000000E+00  0.10566000000E+00 0.  1.
     999900   -1    0    0    0    0 -0.00000000000E+00 -0.00000000000E+00 -0.74505805969E-08  0.93827000000E+00  0.93827000000E+00 0. -1.
     999902    2    1    2    0    0  0.75662258607E-02 -0.39476891913E-02  0.21758539292E-01  0.10205576647E+01  0.10202899985E+01 0.  0.
     999903    2    3    3    0    0 -0.86618319617E-01  0.20765878003E-01 -0.90530514144E-01  0.12809460077E+00  0.16688252556E-01 0.  0.
         14    1    1    2    0    0 -0.75662258607E-02  0.39476891913E-02 -0.21758539292E-01  0.23372335268E-01  0.00000000000E+00 0. -1.
     999901    1    3    3    0    0  0.94184545478E-01 -0.24713567194E-01  0.11228905344E+00  0.89246306396E+00  0.88000000000E+00 0. -1.
        -11    1    4    4    0    0 -0.61886399282E-01  0.20181604153E-01 -0.57726606132E-01  0.87004860432E-01  0.51100000000E-03 0.  1.
         11    1    4    4    0    0 -0.24731920336E-01  0.58427384997E-03 -0.32803908012E-01  0.41089740341E-01  0.51100000000E-03 0. -1.
</event>
<event>
 8    1  0.1095698E+005  0.1043930E+01  0.7957747E-01            NaN
         13   -1    0    0    0    0  0.00000000000E+00  0.00000000000E+00  0.74505805969E-08  0.10566000000E+00  0.10566000000E+00 0.  1.
     999900   -1    0    0    0    0 -0.00000000000E+00 -0.00000000000E+00 -0.74505805969E-08  0.93827000000E+00  0.93827000000E+00 0. -1.
     999902    2    1    2    0    0 -0.17308683592E-01  0.16251794393E-01  0.35065945598E-02  0.10199298426E+01  0.10196474275E+01 0.  0.
     999903    2    3    3    0    0  0.12264932216E+00 -0.61903918298E-02 -0.29765390314E-01  0.12796632315E+00  0.20204559456E-01 0.  0.
         14    1    1    2    0    0  0.17308683592E-01 -0.16251794393E-01 -0.35065945598E-02  0.24000157376E-01  0.00000000000E+00 0. -1.
     999901    1    3    3    0    0 -0.13995800575E+00  0.22442186222E-01  0.33271984873E-01  0.89196351947E+00  0.88000000000E+00 0.  1.
        -11    1    4    4    0    0  0.54221271364E-01  0.65774666428E-02 -0.16905709724E-01  0.57177560966E-01  0.51100000000E-03 0. -1.
         11    1    4    4    0    0  0.68428050795E-01 -0.12767858473E-01 -0.12859680589E-01  0.70788762183E-01  0.51100000000E-03 0.  1.
</event>
<event>
 8    1  0.1095698E+005  0.1043930E+01  0.7957747E-01            NaN
         13   -1    0    0    0    0  0.00000000000E+00  0.00000000000E+00  0.74505805969E-08  0.10566000000E+00  0.10566000000E+00 0.  1.
     999900   -1    0    0    0    0 -0.00000000000E+00 -0.00000000000E+00 -0.74505805969E-08  0.93827000000E+00  0.93827000000E+00 0. -1.
     999902    2    1    2    0    0  0.11912319405E-01  0.96315524800E-02  0.18067373174E-01  0.10202424478E+01  0.10199674270E+01 0.  0.
     999903    2    3    3    0    0 -0.11263862928E+00  0.80248725239E-02 -0.57493473355E-01  0.12826433047E+00  0.19858993109E-01 0.  0.
         14    1    1    2    0    0 -0.11912319405E-01 -0.96315524800E-02 -0.18067373174E-01  0.23687552221E-01  0.00000000000E+00 0. -1.
     999901    1    3    3    0    0  0.12455094868E+00  0.16066799561E-02  0.75560846529E-01  0.89197811731E+00  0.88000000000E+00 0.  1.
        -11    1    4    4    0    0 -0.57263823843E-01  0.43269202917E-02 -0.40311236650E-01  0.70164981876E-01  0.51100000000E-03 0. -1.
         11    1    4    4    0    0 -0.55374805433E-01  0.36979522322E-02 -0.17182236704E-01  0.58099348590E-01  0.51100000000E-03 0.  1.
</event>
<event>
 8    1  0.1095698E+005  0.1043930E+01  0.7957747E-01            NaN
         13   -1    0    0    0    0  0.00000000000E+00  0.00000000000E+00  0.74505805969E-08  0.10566000000E+00  0.10566000000E+00 0. -1.
     999900   -1    0    0    0    0 -0.00000000000E+00 -0.00000000000E+00 -0.74505805969E-08  0.93827000000E+00  0.93827000000E+00 0.  1.
     999902    2    1    2    0    0  0.14566277792E-01 -0.18157326252E-01  0.53348241601E-02  0.10200485157E+01  0.10197689194E+01 0.  0.
     999903    2    3    3    0    0  0.52884027299E-01  0.11576862957E+00  0.52288523282E-02  0.12909148931E+00  0.20932648660E-01 0.  0.
         14    1    1    2    0    0 -0.14566277792E-01  0.18157326252E-01 -0.53348241601E-02  0.23881484337E-01  0.00000000000E+00 0.  1.
     999901    1    3    3    0    0 -0.38317749507E-01 -0.13392595583E+00  0.10597183190E-03  0.89095702635E+00  0.88000000000E+00 0. -1.
        -11    1    4    4    0    0  0.17015079656E-01  0.23708824594E-01  0.79554320786E-02  0.30251798623E-01  0.51100000000E-03 0. -1.
         11    1    4    4    0    0  0.35868947643E-01  0.92059804979E-01 -0.27265797504E-02  0.98839690691E-01  0.51100000000E-03 0.  1.
</event>
<event>
 8    1  0.1095698E+005  0.1043930E+01  0.7957747E-01            NaN
         13   -1    0    0    0    0  0.00000000000E+00  0.00000000000E+00  0.74505805969E-08  0.10566000000E+00  0.10566000000E+00 0. -1.
     999900   -1    0    0    0    0 -0.00000000000E+00 -0.00000000000E+00 -0.74505805969E-08  0.93827000000E+00  0.93827000000E+00 0.  1.
     999902    2    1    2    0    0 -0.16814127938E-01 -0.14153952685E-01  0.73093248663E-03  0.10219394671E+01  0.10217028388E+01 0.  0.
     999903    2    3    3    0    0  0.99737967182E-01 -0.27913976754E-01  0.77646446508E-01  0.13082234492E+00  0.18938402257E-01 0.  0.
         14    1    1    2    0    0  0.16814127938E-01  0.14153952685E-01 -0.73093248663E-03  0.21990532900E-01  0.00000000000E+00 0.  1.
     999901    1    3    3    0    0 -0.11655209512E+00  0.13760024069E-01 -0.76915514022E-01  0.89111712218E+00  0.88000000000E+00 0.  1.
        -11    1    4    4    0    0  0.61675073702E-01 -0.19712309220E-01  0.37192180367E-01  0.74672011172E-01  0.51100000000E-03 0.  1.
         11    1    4    4    0    0  0.38062893479E-01 -0.82016675335E-02  0.40454266141E-01  0.56150333751E-01  0.51100000000E-03 0. -1.
</event>
<event>
 8    1  0.1095698E+005  0.1043930E+01  0.7957747E-01            NaN
         13   -1    0    0    0    0  0.00000000000E+00  0.00000000000E+00  0.74505805969E-08  0.10566000000E+00  0.10566000000E+00 0. -1.
     999900   -1    0    0    0    0 -0.00000000000E+00 -0.00000000000E+00 -0.74505805969E-08  0.93827000000E+00  0.93827000000E+00 0. -1.
     999902    2    1    2    0    0 -0.18525960606E-01 -0.52604862924E-03  0.16219548540E-01  0.10193015267E+01  0.10190039453E+01 0.  0.
     999903    2    3    3    0    0 -0.98828439275E-01 -0.83026417352E-01  0.20325462306E-01  0.13179284646E+00  0.17198359618E-01 0.  0.
         14    1    1    2    0    0  0.18525960606E-01  0.52604862924E-03 -0.16219548540E-01  0.24628473326E-01  0.00000000000E+00 0.  1.
     999901    1    3    3    0    0  0.80302478669E-01  0.82500368723E-01 -0.41059137659E-02  0.88750868021E+00  0.88000000000E+00 0. -1.
        -11    1    4    4    0    0 -0.53100012336E-01 -0.40197093616E-01  0.24860571405E-02  0.66647274860E-01  0.51100000000E-03 0. -1.
         11    1    4    4    0    0 -0.45728426939E-01 -0.42829323736E-01  0.17839405165E-01  0.65145571604E-01  0.51100000000E-03 0.  1.
</event>
<event>
 8    1  0.1095698E+005  0.1043930E+01  0.7957747E-01            NaN
         13   -1    0    0    0    0  0.00000000000E+00  0.00000000000E+00  0.74505805969E-08  0.10566000000E+00  0.10566000000E+00 0. -1.
     999900   -1    0    0    0    0 -0.00000000000E+00 -0.00000000000E+00 -0.74505805969E-08  0.93827000000E+00  0.93827000000E+00 0. -1.
     999902    2    1    2    0    0 -0.88370341054E-02  0.16774836251E-01  0.10917433227E-01  0.10220512740E+01  0.10218170717E+01 0.  0.
     999903    2    3    3    0    0  0.93215531850E-01 -0.51552552355E-01  0.74118427306E-01  0.13127760808E+00  0.19836029938E-01 0.  0.
         14    1    1    2    0    0  0.88370341054E-02 -0.16774836251E-01 -0.10917433227E-01  0.21878725998E-01  0.00000000000E+00 0.  1.
     999901    1    3    3    0    0 -0.10205256596E+00  0.68327388607E-01 -0.63200994079E-01  0.89077366592E+00  0.88000000000E+00 0.  1.
        -11    1    4    4    0    0  0.52662239710E-01 -0.18283250917E-01  0.41611477843E-01  0.69565544379E-01  0.51100000000E-03 0. -1.
         11    1    4    4    0    0  0.40553292140E-01 -0.33269301438E-01  0.32506949463E-01  0.61712063699E-01  0.51100000000E-03 0.  1.
</event>
<event>
 8    1  0.1095698E+005  0.1043930E+01  0.7957747E-01            NaN
         13   -1    0    0    0    0  0.00000000000E+00  0.00000000000E+00  0.74505805969E-08  0.10566000000E+00  0.10566000000E+00 0. -1.
     999900   -1    0    0    0    0 -0.00000000000E+00 -0.00000000000E+00 -0.74505805969E-08  0.93827000000E+00  0.93827000000E+00 0.  1.
     999902    2    1    2    0    0 -0.11495151033E-01 -0.17198687609E-01  0.99601591987E-02  0.10209705112E+01  0.10207123232E+01 0.  0.
     999903    2    3    3    0    0  0.11308759939E+00 -0.27087932237E-01  0.56645775946E-01  0.13091534123E+00  0.20187159974E-01 0.  0.
         14    1    1    2    0    0  0.11495151033E-01  0.17198687609E-01 -0.99601591987E-02  0.22959488757E-01  0.00000000000E+00 0.  1.
     999901    1    3    3    0    0 -0.12458275042E+00  0.98892446281E-02 -0.46685616748E-01  0.89005517002E+00  0.88000000000E+00 0. -1.
        -11    1    4    4    0    0  0.85106305406E-01 -0.11192411391E-01  0.41161551716E-01  0.95199200382E-01  0.51100000000E-03 0. -1.
         11    1    4    4    0    0  0.27981293981E-01 -0.15895520846E-01  0.15484224230E-01  0.35716140844E-01  0.51100000000E-03 0.  1.
</event>
<event>
 8    1  0.1095698E+005  0.1043930E+01  0.7957747E-01            NaN
         13   -1    0    0    0    0  0.00000000000E+00  0.00000000000E+00  0.74505805969E-08  0.10566000000E+00  0.10566000000E+00 0. -1.
     999900   -1    0    0    0    0 -0.00000000000E+00 -0.00000000000E+00 -0.74505805969E-08  0.93827000000E+00  0.93827000000E+00 0. -1.
     999902    2    1    2    0    0 -0.14702272103E-01 -0.65011730771E-02  0.16201311650E-01  0.10211066664E+01  0.10208515659E+01 0.  0.
     999903    2    3    3    0    0 -0.84707505497E-01 -0.88712996224E-01  0.49805673820E-01  0.13387007468E+00  0.19880507139E-01 0.  0.
         14    1    1    2    0    0  0.14702272103E-01  0.65011730771E-02 -0.16201311650E-01  0.22823333577E-01  0.00000000000E+00 0.  1.
     999901    1    3    3    0    0  0.70005233394E-01  0.82211823147E-01 -0.33604362170E-01  0.88723659174E+00  0.88000000000E+00 0. -1.
        -11    1    4    4    0    0 -0.34705671632E-01 -0.26455640805E-01  0.24786686290E-01  0.50189894522E-01  0.51100000000E-03 0.  1.
         11    1    4    4    0    0 -0.50001833864E-01 -0.62257355420E-01  0.25018987530E-01  0.83680180160E-01  0.51100000000E-03 0. -1.
</event>
<event>
 8    1  0.1095698E+005  0.1043930E+01  0.7957747E-01            NaN
         13   -1    0    0    0    0  0.00000000000E+00  0.00000000000E+00  0.74505805969E-08  0.10566000000E+00  0.10566000000E+00 0. -1.
     999900   -1    0    0    0    0 -0.00000000000E+00 -0.00000000000E+00 -0.74505805969E-08  0.93827000000E+00  0.93827000000E+00 0.  1.
     999902    2    1    2    0    0  0.23009595350E-01  0.12629030939E-02  0.11400328064E-02  0.10208575906E+01  0.10205968274E+01 0.  0.
     999903    2    3    3    0    0 -0.10978972779E-01 -0.12223919257E+00  0.40434053140E-01  0.13071602293E+00  0.19718213726E-01 0.  0.
         14    1    1    2    0    0 -0.23009595350E-01 -0.12629030939E-02 -0.11400328064E-02  0.23072409436E-01  0.00000000000E+00 0.  1.
     999901    1    3    3    0    0  0.33988568129E-01  0.12350209567E+00 -0.39294020334E-01  0.89014156764E+00  0.88000000000E+00 0.  1.
        -11    1    4    4    0    0 -0.15467599605E-01 -0.65059368083E-01  0.19540168984E-01  0.69670993518E-01  0.51100000000E-03 0. -1.
         11    1    4    4    0    0  0.44886268254E-02 -0.57179824491E-01  0.20893884156E-01  0.61045029411E-01  0.51100000000E-03 0.  1.
</event>
<event>
 8    1  0.1095698E+005  0.1043930E+01  0.7957747E-01            NaN
         13   -1    0    0    0    0  0.00000000000E+00  0.00000000000E+00  0.74505805969E-08  0.10566000000E+00  0.10566000000E+00 0. -1.
     999900   -1    0    0    0    0 -0.00000000000E+00 -0.00000000000E+00 -0.74505805969E-08  0.93827000000E+00  0.93827000000E+00 0.  1.
     999902    2    1    2    0    0 -0.72522566716E-02 -0.92982424569E-02 -0.20632187510E-01  0.10201657474E+01  0.10198889216E+01 0.  0.
     999903    2    3    3    0    0  0.66929329256E-01  0.91578977414E-01 -0.60998448744E-01  0.13038568682E+00  0.20331560678E-01 0.  0.
         14    1    1    2    0    0  0.72522566716E-02  0.92982424569E-02  0.20632187510E-01  0.23764252588E-01  0.00000000000E+00 0. -1.
     999901    1    3    3    0    0 -0.74181585928E-01 -0.10087721987E+00  0.40366261234E-01  0.88978006059E+00  0.88000000000E+00 0. -1.
        -11    1    4    4    0    0  0.46565400743E-01  0.75958002810E-01 -0.42305361791E-01  0.98630418708E-01  0.51100000000E-03 0. -1.
         11    1    4    4    0    0  0.20363928513E-01  0.15620974604E-01 -0.18693086953E-01  0.31755268113E-01  0.51100000000E-03 0.  1.
</event>
<event>
 8    1  0.1095698E+005  0.1043930E+01  0.7957747E-01            NaN
         13   -1    0    0    0    0  0.00000000000E+00  0.00000000000E+00  0.74505805969E-08  0.10566000000E+00  0.10566000000E+00 0.  1.
     999900   -1    0    0    0    0 -0.00000000000E+00 -0.00000000000E+00 -0.74505805969E-08  0.93827000000E+00  0.93827000000E+00 0.  1.
     999902    2    1    2    0    0 -0.17216979268E-01 -0.49488850329E-02 -0.15882632076E-01  0.10199889507E+01  0.10197079414E+01 0.  0.
     999903    2    3    3    0    0  0.97727210991E-01 -0.39967137800E-01  0.68931678423E-01  0.12778274578E+00  0.20709272228E-01 0.  0.
         14    1    1    2    0    0  0.17216979268E-01  0.49488850329E-02  0.15882632076E-01  0.23941049264E-01  0.00000000000E+00 0.  1.
     999901    1    3    3    0    0 -0.11494419026E+00  0.35018252767E-01 -0.84814310499E-01  0.89220620496E+00  0.88000000000E+00 0.  1.
        -11    1    4    4    0    0  0.64521579994E-01 -0.18543749545E-01  0.51380396828E-01  0.84540589254E-01  0.51100000000E-03 0. -1.
         11    1    4    4    0    0  0.33205630997E-01 -0.21423388255E-01  0.17551281595E-01  0.43242156524E-01  0.51100000000E-03 0.  1.
</event>
<event>
 8    1  0.1095698E+005  0.1043930E+01  0.7957747E-01            NaN
         13   -1    0    0    0    0  0.00000000000E+00  0.00000000000E+00  0.74505805969E-08  0.10566000000E+00  0.10566000000E+00 0. -1.
     999900   -1    0    0    0    0 -0.00000000000E+00 -0.00000000000E+00 -0.74505805969E-08  0.93827000000E+00  0.93827000000E+00 0. -1.
     999902    2    1    2    0    0 -0.78360472524E-02 -0.19111267844E-01 -0.64771664594E-02  0.10222828782E+01  0.10220536607E+01 0.  0.
     999903    2    3    3    0    0  0.46310877234E-01  0.50682262259E-01 -0.11185030767E+00  0.13160531303E+00  0.98019403952E-02 0.  0.
         14    1    1    2    0    0  0.78360472524E-02  0.19111267844E-01  0.64771664594E-02  0.21647121760E-01  0.00000000000E+00 0. -1.
     999901    1    3    3    0    0 -0.54146924486E-01 -0.69793530103E-01  0.10537314121E+00  0.89067756521E+00  0.88000000000E+00 0.  1.
        -11    1    4    4    0    0  0.30189424097E-01  0.26259156587E-01 -0.61733327243E-01  0.73567720132E-01  0.51100000000E-03 0.  1.
         11    1    4    4    0    0  0.16121453136E-01  0.24423105672E-01 -0.50116980424E-01  0.58037592901E-01  0.51100000000E-03 0. -1.
</event>
<event>
 8    1  0.1095698E+005  0.1043930E+01  0.7957747E-01            NaN
         13   -1    0    0    0    0  0.00000000000E+00  0.00000000000E+00  0.74505805969E-08  0.10566000000E+00  0.10566000000E+00 0. -1.
     999900   -1    0    0    0    0 -0.00000000000E+00 -0.00000000000E+00 -0.74505805969E-08  0.93827000000E+00  0.93827000000E+00 0. -1.
     999902    2    1    2    0    0 -0.98757197449E-02  0.17952078928E-01 -0.12395724545E-01  0.10199829550E+01  0.10197018032E+01 0.  0.
     999903    2    3    3    0    0  0.39310728023E-01  0.11947119665E+00 -0.36208646901E-01  0.13246253652E+00  0.20409735528E-01 0.  0.
         14    1    1    2    0    0  0.98757197449E-02 -0.17952078928E-01  0.12395724545E-01  0.23947045022E-01  0.00000000000E+00 0. -1.
     999901    1    3    3    0    0 -0.49186447768E-01 -0.10151911772E+00  0.23812922356E-01  0.88752041846E+00  0.88000000000E+00 0. -1.
        -11    1    4    4    0    0  0.40787528425E-01  0.10166798908E+00 -0.31034492686E-01  0.11385694241E+00  0.51100000000E-03 0.  1.
         11    1    4    4    0    0 -0.14768004013E-02  0.17803207575E-01 -0.51741542145E-02  0.18605594111E-01  0.51100000000E-03 0. -1.
</event>
<event>
 8    1  0.1095698E+005  0.1043930E+01  0.7957747E-01            NaN
         13   -1    0    0    0    0  0.00000000000E+00  0.00000000000E+00  0.74505805969E-08  0.10566000000E+00  0.10566000000E+00 0.  1.
     999900   -1    0    0    0    0 -0.00000000000E+00 -0.00000000000E+00 -0.74505805969E-08  0.93827000000E+00  0.93827000000E+00 0.  1.
     999902    2    1    2    0    0 -0.38939695782E-02 -0.21184838718E-01  0.87050510590E-02  0.10206977314E+01  0.10204333004E+01 0.  0.
     999903    2    3    3    0    0 -0.57360320279E-01 -0.61512068343E-01 -0.99382033304E-01  0.13155896050E+00  0.18895254680E-01 0.  0.
         14    1    1    2    0    0  0.38939695782E-02  0.21184838718E-01 -0.87050510590E-02  0.23232268605E-01  0.00000000000E+00 0.  1.
     999901    1    3    3    0    0  0.53466350701E-01  0.40327229625E-01  0.10808708436E+00  0.88913877090E+00  0.88000000000E+00 0. -1.
        -11    1    4    4    0    0 -0.42124544673E-01 -0.49806707875E-01 -0.64527756259E-01  0.91756622987E-01  0.51100000000E-03 0. -1.
         11    1    4    4    0    0 -0.15235775606E-01 -0.11705360468E-01 -0.34854277045E-01  0.39802337511E-01  0.51100000000E-03 0.  1.
</event>
<event>
 8    1  0.1095698E+005  0.1043930E+01  0.7957747E-01            NaN
         13   -1    0    0    0    0  0.00000000000E+00  0.00000000000E+00  0.74505805969E-08  0.10566000000E+00  0.10566000000E+00 0.  1.
     999900   -1    0    0    0    0 -0.00000000000E+00 -0.00000000000E+00 -0.74505805969E-08  0.93827000000E+00  0.93827000000E+00 0. -1.
     999902    2    1    2    0    0 -0.95182603827E-02  0.17669026440E-01  0.11877366354E-01  0.10206091165E+01  0.10203426410E+01 0.  0.
     999903    2    3    3    0    0  0.48535875610E-01  0.11333682523E+00 -0.41886346980E-01  0.13189479383E+00  0.20995318551E-01 0.  0.
         14    1    1    2    0    0  0.95182603827E-02 -0.17669026440E-01 -0.11877366354E-01  0.23320883507E-01  0.00000000000E+00 0. -1.
     999901    1    3    3    0    0 -0.58054135993E-01 -0.95667798795E-01  0.53763713333E-01  0.88871432266E+00  0.88000000000E+00 0.  1.
        -11    1    4    4    0    0 -0.17073488504E-02  0.27916760950E-02 -0.27811375122E-02  0.43248517175E-02  0.51100000000E-03 0.  1.
         11    1    4    4    0    0  0.50243224460E-01  0.11054514914E+00 -0.39105209467E-01  0.12756994211E+00  0.51100000000E-03 0. -1.
</event>
<event>
 8    1  0.1095698E+005  0.1043930E+01  0.7957747E-01            NaN
         13   -1    0    0    0    0  0.00000000000E+00  0.00000000000E+00  0.74505805969E-08  0.10566000000E+00  0.10566000000E+00 0. -1.
     999900   -1    0    0    0    0 -0.00000000000E+00 -0.00000000000E+00 -0.74505805969E-08  0.93827000000E+00  0.93827000000E+00 0. -1.
     999902    2    1    2    0    0 -0.16016155051E-01 -0.52700696473E-02 -0.20532016510E-01  0.10173620765E+01  0.10170151130E+01 0.  0.
     999903    2    3    3    0    0 -0.11091286214E-01 -0.12243182400E+00 -0.33794332688E-01  0.12948425831E+00  0.22617428471E-01 0.  0.
         14    1    1    2    0    0  0.16016155051E-01  0.52700696473E-02  0.20532016510E-01  0.26567923492E-01  0.00000000000E+00 0. -1.
     999901    1    3    3    0    0 -0.49248688369E-02  0.11716175435E+00  0.13262316179E-01  0.88787781820E+00  0.88000000000E+00 0. -1.
        -11    1    4    4    0    0 -0.14455235437E-01 -0.74111658360E-01 -0.28688365787E-01  0.80776080549E-01  0.51100000000E-03 0.  1.
         11    1    4    4    0    0  0.33639492223E-02 -0.48320165641E-01 -0.51059669012E-02  0.48708177762E-01  0.51100000000E-03 0. -1.
</event>
<event>
 8    1  0.1095698E+005  0.1043930E+01  0.7957747E-01            NaN
         13   -1    0    0    0    0  0.00000000000E+00  0.00000000000E+00  0.74505805969E-08  0.10566000000E+00  0.10566000000E+00 0. -1.
     999900   -1    0    0    0    0 -0.00000000000E+00 -0.00000000000E+00 -0.74505805969E-08  0.93827000000E+00  0.93827000000E+00 0.  1.
     999902    2    1    2    0    0  0.21795896361E-01 -0.73988602664E-02 -0.62993825435E-02  0.10200660847E+01  0.10197869046E+01 0.  0.
     999903    2    3    3    0    0 -0.27321280295E-01  0.12404548141E+00  0.10452279167E-01  0.12879130658E+00  0.18553077784E-01 0.  0.
         14    1    1    2    0    0 -0.21795896361E-01  0.73988602664E-02  0.62993825435E-02  0.23863915267E-01  0.00000000000E+00 0.  1.
     999901    1    3    3    0    0  0.49117176656E-01 -0.13144434168E+00 -0.16751661710E-01  0.89127477815E+00  0.88000000000E+00 0. -1.
        -11    1    4    4    0    0 -0.12130849202E-01  0.78652331407E-01 -0.91840139301E-03  0.79589266363E-01  0.51100000000E-03 0.  1.
         11    1    4    4    0    0 -0.15190431093E-01  0.45393150004E-01  0.11370680560E-01  0.49202040216E-01  0.51100000000E-03 0. -1.
</event>
<event>
 8    1  0.1095698E+005  0.1043930E+01  0.7957747E-01            NaN
         13   -1    0    0    0    0  0.00000000000E+00  0.00000000000E+00  0.74505805969E-08  0.10566000000E+00  0.10566000000E+00 0. -1.
     999900   -1    0    0    0    0 -0.00000000000E+00 -0.00000000000E+00 -0.74505805969E-08  0.93827000000E+00  0.93827000000E+00 0. -1.
     999902    2    1    2    0    0 -0.14548556225E-01 -0.17540335976E-01 -0.18676821973E-02  0.10210649150E+01  0.10208088698E+01 0.  0.
     999903    2    3    3    0    0 -0.57873105854E-01 -0.44864506222E-01  0.10887803852E+00  0.13264595893E+00  0.19452579495E-01 0.  0.
         14    1    1    2    0    0  0.14548556225E-01  0.17540335976E-01  0.18676821973E-02  0.22865084981E-01  0.00000000000E+00 0.  1.
     999901    1    3    3    0    0  0.43324549629E-01  0.27324170247E-01 -0.11074572072E+00  0.88841895609E+00  0.88000000000E+00 0. -1.
        -11    1    4    4    0    0 -0.52497188726E-01 -0.44501014689E-01  0.10634041413E+00  0.12666822779E+00  0.51100000000E-03 0. -1.
         11    1    4    4    0    0 -0.53759171275E-02 -0.36349153350E-03  0.25376243857E-02  0.59777311398E-02  0.51100000000E-03 0.  1.
</event>
<event>
 8    1  0.1095698E+005  0.1043930E+01  0.7957747E-01            NaN
         13   -1    0    0    0    0  0.00000000000E+00  0.00000000000E+00  0.74505805969E-08  0.10566000000E+00  0.10566000000E+00 0. -1.
     999900   -1    0    0    0    0 -0.00000000000E+00 -0.00000000000E+00 -0.74505805969E-08  0.93827000000E+00  0.93827000000E+00 0. -1.
     999902    2    1    2    0    0  0.62385674233E-02 -0.22390415163E-01 -0.52747052171E-02  0.10200957194E+01  0.10198172404E+01 0.  0.
     999903    2    3    3    0    0  0.11226593834E+00  0.58096181108E-01  0.21357975475E-01  0.12968615343E+00  0.19583873610E-01 0.  0.
         14    1    1    2    0    0 -0.62385674233E-02  0.22390415163E-01  0.52747052171E-02  0.23834280559E-01  0.00000000000E+00 0.  1.
     999901    1    3    3    0    0 -0.10602737091E+00 -0.80486596270E-01 -0.26632680692E-01  0.89040956601E+00  0.88000000000E+00 0. -1.
        -11    1    4    4    0    0  0.78079380571E-01  0.49273969582E-01  0.19243133951E-01  0.94312634753E-01  0.51100000000E-03 0.  1.
         11    1    4    4    0    0  0.34186557764E-01  0.88222115259E-02  0.21148415238E-02  0.35373518678E-01  0.51100000000E-03 0. -1.
</event>
<event>
 8    1  0.1095698E+005  0.1043930E+01  0.7957747E-01            NaN
         13   -1    0    0    0    0  0.00000000000E+00  0.00000000000E+00  0.74505805969E-08  0.10566000000E+00  0.10566000000E+00 0.  1.
     999900   -1    0    0    0    0 -0.00000000000E+00 -0.00000000000E+00 -0.74505805969E-08  0.93827000000E+00  0.93827000000E+00 0. -1.
     999902    2    1    2    0    0  0.23442984298E-02  0.12154440140E-01 -0.21883608984E-01  0.10187880332E+01  0.10184777554E+01 0.  0.
     999903    2    3    3    0    0  0.48358161332E-02 -0.31283905634E-01 -0.12613501868E+00  0.13156683536E+00  0.19942952630E-01 0.  0.
         14    1    1    2    0    0 -0.23442984298E-02 -0.12154440140E-01  0.21883608984E-01  0.25141966757E-01  0.00000000000E+00 0.  1.
     999901    1    3    3    0    0 -0.24915177034E-02  0.43438345773E-01  0.10425140970E+00  0.88722119788E+00  0.88000000000E+00 0.  1.
        -11    1    4    4    0    0  0.72046905942E-02 -0.13484738918E-01 -0.89118895562E-01  0.90422256206E-01  0.51100000000E-03 0.  1.
         11    1    4    4    0    0 -0.23688744610E-02 -0.17799166716E-01 -0.37016123122E-01  0.41144579156E-01  0.51100000000E-03 0. -1.
</event>
<event>
 8    1  0.1095698E+005  0.1043930E+01  0.7957747E-01            NaN
         13   -1    0    0    0    0  0.00000000000E+00  0.00000000000E+00  0.74505805969E-08  0.10566000000E+00  0.10566000000E+00 0.  1.
     999900   -1    0    0    0    0 -0.00000000000E+00 -0.00000000000E+00 -0.74505805969E-08  0.93827000000E+00  0.93827000000E+00 0. -1.
     999902    2    1    2    0    0 -0.14356537365E-01  0.11471424526E-01  0.13630907641E-01  0.10210497599E+01  0.10207933712E+01 0.  0.
     999903    2    3    3    0    0 -0.96311424765E-01  0.12038023433E-01 -0.86655346280E-01  0.13156999206E+00  0.19511771390E-01 0.  0.
         14    1    1    2    0    0  0.14356537365E-01 -0.11471424526E-01 -0.13630907641E-01  0.22880240140E-01  0.00000000000E+00 0. -1.
     999901    1    3    3    0    0  0.81954887400E-01 -0.56659890734E-03  0.10028625392E+00  0.88947976780E+00  0.88000000000E+00 0.  1.
        -11    1    4    4    0    0 -0.14444818289E-01  0.37041759219E-02 -0.52508807839E-02  0.15817919101E-01  0.51100000000E-03 0. -1.
         11    1    4    4    0    0 -0.81866606476E-01  0.83338475111E-02 -0.81404465496E-01  0.11575207296E+00  0.51100000000E-03 0.  1.
</event>
<event>
 8    1  0.1095698E+005  0.1043930E+01  0.7957747E-01            NaN
         13   -1    0    0    0    0  0.00000000000E+00  0.00000000000E+00  0.74505805969E-08  0.10566000000E+00  0.10566000000E+00 0.  1.
     999900   -1    0    0    0    0 -0.00000000000E+00 -0.00000000000E+00 -0.74505805969E-08  0.93827000000E+00  0.93827000000E+00 0.  1.
     999902    2    1    2    0    0 -0.12338478379E-01 -0.19911281037E-01  0.81209568717E-03  0.10204916413E+01  0.10202224430E+01 0.  0.
     999903    2    3    3    0    0 -0.28747611119E-01  0.11874821299E+00 -0.34600699804E-01  0.12877992719E+00  0.21435904125E-01 0.  0.
         14    1    1    2    0    0  0.12338478379E-01  0.19911281037E-01 -0.81209568717E-03  0.23438358745E-01  0.00000000000E+00 0. -1.
     999901    1    3    3    0    0  0.16409132739E-01 -0.13865949403E+00  0.35412795491E-01  0.89171171407E+00  0.88000000000E+00 0. -1.
        -11    1    4    4    0    0 -0.25170507616E-01  0.96592200567E-01 -0.19448773273E-01  0.10169623182E+00  0.51100000000E-03 0.  1.
         11    1    4    4    0    0 -0.35771035025E-02  0.22156012424E-01 -0.15151926530E-01  0.27083695364E-01  0.51100000000E-03 0. -1.
</event>
<event>
 8    1  0.1095698E+005  0.1043930E+01  0.7957747E-01            NaN
         13   -1    0    0    0    0  0.00000000000E+00  0.00000000000E+00  0.74505805969E-08  0.10566000000E+00  0.10566000000E+00 0. -1.
     999900   -1    0    0    0    0 -0.00000000000E+00 -0.00000000000E+00 -0.74505805969E-08  0.93827000000E+00  0.93827000000E+00 0.  1.
     999902    2    1    2    0    0  0.16306199676E-01  0.13320353239E-01  0.11466725938E-01  0.10199548094E+01  0.10196729885E+01 0.  0.
     999903    2    3    3    0    0 -0.11174439331E+00 -0.45817197394E-01  0.37765523952E-01  0.12833503004E+00  0.21392057447E-01 0.  0.
         14    1    1    2    0    0 -0.16306199676E-01 -0.13320353239E-01 -0.11466725938E-01  0.23975190552E-01  0.00000000000E+00 0.  1.
     999901    1    3    3    0    0  0.12805059299E+00  0.59137550633E-01 -0.26298798014E-01  0.89161977941E+00  0.88000000000E+00 0. -1.
        -11    1    4    4    0    0 -0.45134901672E-01 -0.26483913187E-01  0.83532685846E-02  0.52996181218E-01  0.51100000000E-03 0. -1.
         11    1    4    4    0    0 -0.66609491639E-01 -0.19333284207E-01  0.29412255368E-01  0.75338848820E-01  0.51100000000E-03 0.  1.
</event>
<event>
 8    1  0.1095698E+005  0.1043930E+01  0.7957747E-01            NaN
         13   -1    0    0    0    0  0.00000000000E+00  0.00000000000E+00  0.74505805969E-08  0.10566000000E+00  0.10566000000E+00 0.  1.
     999900   -1    0    0    0    0 -0.00000000000E+00 -0.00000000000E+00 -0.74505805969E-08  0.93827000000E+00  0.93827000000E+00 0.  1.
     999902    2    1    2    0    0  0.11030740776E-01  0.66147951141E-02  0.20039768779E-01  0.10201177114E+01  0.10198397521E+01 0.  0.
     999903    2    3    3    0    0 -0.48436376243E-01 -0.11381388127E+00  0.33750767992E-01  0.12982147102E+00  0.20367078437E-01 0.  0.
         14    1    1    2    0    0 -0.11030740776E-01 -0.66147951141E-02 -0.20039768779E-01  0.23812288617E-01  0.00000000000E+00 0. -1.
     999901    1    3    3    0    0  0.59467117019E-01  0.12042867639E+00 -0.13710999214E-01  0.89029624036E+00  0.88000000000E+00 0. -1.
        -11    1    4    4    0    0 -0.35148992467E-01 -0.70930286214E-01  0.30396854381E-01  0.84798508543E-01  0.51100000000E-03 0.  1.
         11    1    4    4    0    0 -0.13287383775E-01 -0.42883595060E-01  0.33539136116E-02  0.45022962479E-01  0.51100000000E-03 0. -1.
</event>
<event>
 8    1  0.1095698E+005  0.1043930E+01  0.7957747E-01            NaN
         13   -1    0    0    0    0  0.00000000000E+00  0.00000000000E+00  0.74505805969E-08  0.10566000000E+00  0.10566000000E+00 0. -1.
     999900   -1    0    0    0    0 -0.00000000000E+00 -0.00000000000E+00 -0.74505805969E-08  0.93827000000E+00  0.93827000000E+00 0.  1.
     999902    2    1    2    0    0  0.19976725365E-03 -0.20598303284E-01  0.11666922162E-01  0.10202562365E+01  0.10199815396E+01 0.  0.
     999903    2    3    3    0    0 -0.74254347117E-01 -0.78479951433E-01  0.74966024458E-01  0.13295669481E+00  0.19615479350E-01 0.  0.
         14    1    1    2    0    0 -0.19976725365E-03  0.20598303284E-01 -0.11666922162E-01  0.23673763492E-01  0.00000000000E+00 0. -1.
     999901    1    3    3    0    0  0.74454114371E-01  0.57881648149E-01 -0.63299102296E-01  0.88729954169E+00  0.88000000000E+00 0.  1.
        -11    1    4    4    0    0 -0.16141067311E-01 -0.28879776963E-01  0.27359840495E-01  0.42934805977E-01  0.51100000000E-03 0. -1.
         11    1    4    4    0    0 -0.58113279806E-01 -0.49600174470E-01  0.47606183963E-01  0.90021888837E-01  0.51100000000E-03 0.  1.
</event>
<event>
 8    1  0.1095698E+005  0.1043930E+01  0.7957747E-01            NaN
         13   -1    0    0    0    0  0.00000000000E+00  0.00000000000E+00  0.74505805969E-08  0.10566000000E+00  0.10566000000E+00 0.  1.
     999900   -1    0    0    0    0 -0.00000000000E+00 -0.00000000000E+00 -0.74505805969E-08  0.93827000000E+00  0.93827000000E+00 0. -1.
     999902    2    1    2    0    0 -0.22261894301E-01 -0.79758713019E-02 -0.40297042895E-02  0.10199415658E+01  0.10196594297E+01 0.  0.
     999903    2    3    3    0    0 -0.63417038020E-01  0.79087242971E-01  0.80217345511E-01  0.13068834135E+00  0.19186123392E-01 0.  0.
         14    1    1    2    0    0  0.22261894301E-01  0.79758713019E-02  0.40297042895E-02  0.23988434246E-01  0.00000000000E+00 0.  1.
     999901    1    3    3    0    0  0.41155143719E-01 -0.87063114273E-01 -0.84247049800E-01  0.88925322441E+00  0.88000000000E+00 0. -1.
        -11    1    4    4    0    0 -0.70481650663E-02  0.52055337292E-02  0.14204840888E-01  0.16697689596E-01  0.51100000000E-03 0.  1.
         11    1    4    4    0    0 -0.56368872954E-01  0.73881709242E-01  0.66012504623E-01  0.11399065175E+00  0.51100000000E-03 0. -1.
</event>
<event>
 8    1  0.1095698E+005  0.1043930E+01  0.7957747E-01            NaN
         13   -1    0    0    0    0  0.00000000000E+00  0.00000000000E+00  0.74505805969E-08  0.10566000000E+00  0.10566000000E+00 0. -1.
     999900   -1    0    0    0    0 -0.00000000000E+00 -0.00000000000E+00 -0.74505805969E-08  0.93827000000E+00  0.93827000000E+00 0.  1.
     999902    2    1    2    0    0  0.18996847692E-01 -0.12676580641E-01 -0.64776753827E-02  0.10201910826E+01  0.10199148538E+01 0.  0.
     999903    2    3    3    0    0  0.44894705533E-01 -0.28328907865E-01 -0.11973805352E+00  0.13241655741E+00  0.19464881454E-01 0.  0.
         14    1    1    2    0    0 -0.18996847692E-01  0.12676580641E-01  0.64776753827E-02  0.23738917359E-01  0.00000000000E+00 0. -1.
     999901    1    3    3    0    0 -0.25897857841E-01  0.15652327224E-01  0.11326037814E+00  0.88777452523E+00  0.88000000000E+00 0. -1.
        -11    1    4    4    0    0  0.42823239923E-01 -0.23293261506E-01 -0.91734859709E-01  0.10388431795E+00  0.51100000000E-03 0. -1.
         11    1    4    4    0    0  0.20714656103E-02 -0.50356463598E-02 -0.28003193814E-01  0.28532239463E-01  0.51100000000E-03 0.  1.
</event>
<event>
 8    1  0.1095698E+005  0.1043930E+01  0.7957747E-01            NaN
         13   -1    0    0    0    0  0.00000000000E+00  0.00000000000E+00  0.74505805969E-08  0.10566000000E+00  0.10566000000E+00 0.  1.
     999900   -1    0    0    0    0 -0.00000000000E+00 -0.00000000000E+00 -0.74505805969E-08  0.93827000000E+00  0.93827000000E+00 0.  1.
     999902    2    1    2    0    0  0.13953369827E-01 -0.18122706727E-01  0.32711847223E-02  0.10208252456E+01  0.10205637424E+01 0.  0.
     999903    2    3    3    0    0 -0.12498902959E+00  0.10356706733E-01  0.24255923731E-01  0.12922195562E+00  0.19505001570E-01 0.  0.
         14    1    1    2    0    0 -0.13953369827E-01  0.18122706727E-01 -0.32711847223E-02  0.23104754449E-01  0.00000000000E+00 0. -1.
     999901    1    3    3    0    0  0.13894239942E+00 -0.28479413460E-01 -0.20984739009E-01  0.89160328993E+00  0.88000000000E+00 0. -1.
        -11    1    4    4    0    0 -0.11469057490E+00  0.71508943973E-02  0.27077330941E-01  0.11806145109E+00  0.51100000000E-03 0. -1.
         11    1    4    4    0    0 -0.10298454685E-01  0.32058123357E-02 -0.28214072100E-02  0.11160504526E-01  0.51100000000E-03 0.  1.
</event>
<event>
 8    1  0.1095698E+005  0.1043930E+01  0.7957747E-01            NaN
         13   -1    0    0    0    0  0.00000000000E+00  0.00000000000E+00  0.74505805969E-08  0.10566000000E+00  0.10566000000E+00 0.  1.
     999900   -1    0    0    0    0 -0.00000000000E+00 -0.00000000000E+00 -0.74505805969E-08  0.93827000000E+00  0.93827000000E+00 0.  1.
     999902    2    1    2    0    0  0.43442528536E-02 -0.90507128411E-02  0.22662986287E-01  0.10191429291E+01  0.10188414553E+01 0.  0.
     999903    2    3    3    0    0  0.46067302713E-01 -0.10535699269E+00 -0.55832223053E-01  0.12943667966E+00  0.20354965539E-01 0.  0.
         14    1    1    2    0    0 -0.43442528536E-02  0.90507128411E-02 -0.22662986287E-01  0.24787070889E-01  0.00000000000E+00 0. -1.
     999901    1    3    3    0    0 -0.41723049859E-01  0.96306279847E-01  0.78495209340E-01  0.88970624945E+00  0.88000000000E+00 0. -1.
        -11    1    4    4    0    0  0.19139948957E-01 -0.52270205295E-01 -0.37615144918E-01  0.67183869016E-01  0.51100000000E-03 0.  1.
         11    1    4    4    0    0  0.26927353756E-01 -0.53086787393E-01 -0.18217078134E-01  0.62252810642E-01  0.51100000000E-03 0. -1.
</event>
<event>
 8    1  0.1095698E+005  0.1043930E+01  0.7957747E-01            NaN
         13   -1    0    0    0    0  0.00000000000E+00  0.00000000000E+00  0.74505805969E-08  0.10566000000E+00  0.10566000000E+00 0. -1.
     999900   -1    0    0    0    0 -0.00000000000E+00 -0.00000000000E+00 -0.74505805969E-08  0.93827000000E+00  0.93827000000E+00 0.  1.
     999902    2    1    2    0    0  0.13680257393E-01 -0.13449950380E-01 -0.14754708602E-01  0.10197276854E+01  0.10194404349E+01 0.  0.
     999903    2    3    3    0    0  0.99986180973E-01 -0.82931538053E-01  0.14925251818E-01  0.13228343162E+00  0.20031643687E-01 0.  0.
         14    1    1    2    0    0 -0.13680257393E-01  0.13449950380E-01  0.14754708602E-01  0.24202314631E-01  0.00000000000E+00 0. -1.
     999901    1    3    3    0    0 -0.86305923580E-01  0.69481587673E-01 -0.29679960420E-01  0.88744425375E+00  0.88000000000E+00 0. -1.
        -11    1    4    4    0    0  0.73151882995E-01 -0.52880308664E-01  0.32058336385E-02  0.90321999095E-01  0.51100000000E-03 0. -1.
         11    1    4    4    0    0  0.26834297978E-01 -0.30051229388E-01  0.11719418180E-01  0.41961432521E-01  0.51100000000E-03 0.  1.
</event>
<event>
 8    1  0.1095698E+005  0.1043930E+01  0.7957747E-01            NaN
         13   -1    0    0    0    0  0.00000000000E+00  0.00000000000E+00  0.74505805969E-08  0.10566000000E+00  0.10566000000E+00 0. -1.
     999900   -1    0    0    0    0 -0.00000000000E+00 -0.00000000000E+00 -0.74505805969E-08  0.93827000000E+00  0.93827000000E+00 0.  1.
     999902    2    1    2    0    0  0.21727221038E-01 -0.11744101876E-01  0.30109783528E-02  0.10190490424E+01  0.10187452521E+01 0.  0.
     999903    2    3    3    0    0 -0.11856432943E-01 -0.21284123693E-01  0.12563100844E+00  0.12986146618E+00  0.22073993638E-01 0.  0.
         14    1    1    2    0    0 -0.21727221038E-01  0.11744101876E-01 -0.30109783528E-02  0.24880957650E-01  0.00000000000E+00 0. -1.
     999901    1    3    3    0    0  0.33583653981E-01  0.95400218167E-02 -0.12262003008E+00  0.88918757617E+00  0.88000000000E+00 0.  1.
        -11    1    4    4    0    0 -0.10543010760E-01 -0.10646694198E-01  0.10928216513E+00  0.11030575646E+00  0.51100000000E-03 0.  1.
         11    1    4    4    0    0 -0.13134221829E-02 -0.10637429495E-01  0.16348843310E-01  0.19555709721E-01  0.51100000000E-03 0. -1.
</event>
<event>
 8    1  0.1095698E+005  0.1043930E+01  0.7957747E-01            NaN
         13   -1    0    0    0    0  0.00000000000E+00  0.00000000000E+00  0.74505805969E-08  0.10566000000E+00  0.10566000000E+00 0.  1.
     999900   -1    0    0    0    0 -0.00000000000E+00 -0.00000000000E+00 -0.74505805969E-08  0.93827000000E+00  0.93827000000E+00 0.  1.
     999902    2    1    2    0    0 -0.11364643508E-01  0.18564891320E-01 -0.12374672049E-01  0.10188911737E+01  0.10185834679E+01 0.  0.
     999903    2    3    3    0    0  0.22566268035E-01 -0.10111804581E+00  0.70426278738E-01  0.12629310650E+00  0.15999761610E-01 0.  0.
         14    1    1    2    0    0  0.11364643508E-01 -0.18564891320E-01  0.12374672049E-01  0.25038826252E-01  0.00000000000E+00 0.  1.
     999901    1    3    3    0    0 -0.33930911543E-01  0.11968293713E+00 -0.82800950787E-01  0.89259806725E+00  0.88000000000E+00 0. -1.
        -11    1    4    4    0    0  0.18261142738E-01 -0.62931843050E-01  0.36386470367E-01  0.74954136314E-01  0.51100000000E-03 0. -1.
         11    1    4    4    0    0  0.43051252964E-02 -0.38186202760E-01  0.34039808371E-01  0.51338970189E-01  0.51100000000E-03 0.  1.
</event>
<event>
 8    1  0.1095698E+005  0.1043930E+01  0.7957747E-01            NaN
         13   -1    0    0    0    0  0.00000000000E+00  0.00000000000E+00  0.74505805969E-08  0.10566000000E+00  0.10566000000E+00 0. -1.
     999900   -1    0    0    0    0 -0.00000000000E+00 -0.00000000000E+00 -0.74505805969E-08  0.93827000000E+00  0.93827000000E+00 0. -1.
     999902    2    1    2    0    0 -0.14717745302E-01 -0.80466775806E-02 -0.16525557386E-01  0.10203831299E+01  0.10201114040E+01 0.  0.
     999903    2    3    3    0    0 -0.48838511483E-01  0.90835266961E-02  0.11786708043E+00  0.12936177675E+00  0.19341922679E-01 0.  0.
         14    1    1    2    0    0  0.14717745302E-01  0.80466775806E-02  0.16525557386E-01  0.23546870148E-01  0.00000000000E+00 0. -1.
     999901    1    3    3    0    0  0.34120766181E-01 -0.17130204277E-01 -0.13439263782E+00  0.89102135310E+00  0.88000000000E+00 0. -1.
        -11    1    4    4    0    0 -0.21413096723E-01  0.65100297407E-02  0.76116448212E-01  0.79340254650E-01  0.51100000000E-03 0. -1.
         11    1    4    4    0    0 -0.27425414759E-01  0.25734969554E-02  0.41750632221E-01  0.50021522099E-01  0.51100000000E-03 0.  1.
</event>
<event>
 8    1  0.1095698E+005  0.1043930E+01  0.7957747E-01            NaN
         13   -1    0    0    0    0  0.00000000000E+00  0.00000000000E+00  0.74505805969E-08  0.10566000000E+00  0.10566000000E+00 0.  1.
     999900   -1    0    0    0    0 -0.00000000000E+00 -0.00000000000E+00 -0.74505805969E-08  0.93827000000E+00  0.93827000000E+00 0.  1.
     999902    2    1    2    0    0 -0.98796371846E-02  0.14831572850E-01 -0.15354159998E-01  0.10204069684E+01  0.10201357989E+01 0.  0.
     999903    2    3    3    0    0 -0.26283163946E-01 -0.71778840685E-01 -0.10522801284E+00  0.13144816803E+00  0.19044146480E-01 0.  0.
         14    1    1    2    0    0  0.98796371846E-02 -0.14831572850E-01  0.15354159998E-01  0.23523031551E-01  0.00000000000E+00 0.  1.
     999901    1    3    3    0    0  0.16403526761E-01  0.86610413536E-01  0.89873852838E-01  0.88895880042E+00  0.88000000000E+00 0. -1.
        -11    1    4    4    0    0 -0.11562919523E-01 -0.54143771125E-01 -0.67861703194E-01  0.87582652054E-01  0.51100000000E-03 0. -1.
         11    1    4    4    0    0 -0.14720244423E-01 -0.17635069560E-01 -0.37366309643E-01  0.43865515973E-01  0.51100000000E-03 0.  1.
</event>
<event>
 8    1  0.1095698E+005  0.1043930E+01  0.7957747E-01            NaN
         13   -1    0    0    0    0  0.00000000000E+00  0.00000000000E+00  0.74505805969E-08  0.10566000000E+00  0.10566000000E+00 0.  1.
     999900   -1    0    0    0    0 -0.00000000000E+00 -0.00000000000E+00 -0.74505805969E-08  0.93827000000E+00  0.93827000000E+00 0.  1.
     999902    2    1    2    0    0  0.35069721491E-02  0.23247498180E-01  0.33923989202E-02  0.10201759815E+01  0.10198993969E+01 0.  0.
     999903    2    3    3    0    0  0.29419768745E-01 -0.11097441079E+00  0.49317189799E-01  0.12843830689E+00  0.29721554846E-01 0.  0.
         14    1    1    2    0    0 -0.35069721491E-02 -0.23247498180E-01 -0.33923989202E-02  0.23754018517E-01  0.00000000000E+00 0. -1.
     999901    1    3    3    0    0 -0.25912796596E-01  0.13422190897E+00 -0.45924790879E-01  0.89173767460E+00  0.88000000000E+00 0.  1.
        -11    1    4    4    0    0  0.15826829613E-01 -0.32857438434E-01  0.28963698591E-01  0.46575280494E-01  0.51100000000E-03 0. -1.
         11    1    4    4    0    0  0.13592939133E-01 -0.78116972360E-01  0.20353491208E-01  0.81863026393E-01  0.51100000000E-03 0.  1.
</event>
<event>
 8    1  0.1095698E+005  0.1043930E+01  0.7957747E-01            NaN
         13   -1    0    0    0    0  0.00000000000E+00  0.00000000000E+00  0.74505805969E-08  0.10566000000E+00  0.10566000000E+00 0.  1.
     999900   -1    0    0    0    0 -0.00000000000E+00 -0.00000000000E+00 -0.74505805969E-08  0.93827000000E+00  0.93827000000E+00 0.  1.
     999902    2    1    2    0    0  0.33223913321E-02 -0.65573347189E-02 -0.22128399950E-01  0.10206125600E+01  0.10203461641E+01 0.  0.
     999903    2    3    3    0    0  0.47562643847E-01  0.15566076233E-01  0.11652077320E+00  0.12838487693E+00  0.20026937340E-01 0.  0.
         14    1    1    2    0    0 -0.33223913321E-02  0.65573347189E-02  0.22128399950E-01  0.23317439978E-01  0.00000000000E+00 0.  1.
     999901    1    3    3    0    0 -0.44240252515E-01 -0.22123410952E-01 -0.13864917315E+00  0.89222768309E+00  0.88000000000E+00 0.  1.
        -11    1    4    4    0    0  0.23226742268E-01  0.14172365527E-01  0.42632389126E-01  0.50577853104E-01  0.51100000000E-03 0. -1.
         11    1    4    4    0    0  0.24335901579E-01  0.13937107053E-02  0.73888384073E-01  0.77807023829E-01  0.51100000000E-03 0.  1.
</event>
<event>
 8    1  0.1095698E+005  0.1043930E+01  0.7957747E-01            NaN
         13   -1    0    0    0    0  0.00000000000E+00  0.00000000000E+00  0.74505805969E-08  0.10566000000E+00  0.10566000000E+00 0.  1.
     999900   -1    0    0    0    0 -0.00000000000E+00 -0.00000000000E+00 -0.74505805969E-08  0.93827000000E+00  0.93827000000E+00 0. -1.
     999902    2    1    2    0    0 -0.95848735744E-02 -0.22064416276E-01  0.11916024293E-02  0.10198441497E+01  0.10195596900E+01 0.  0.
     999903    2    3    3    0    0 -0.64528977336E-01  0.12132386323E-01  0.11111089499E+00  0.13064758725E+00  0.20297225303E-01 0.  0.
         14    1    1    2    0    0  0.95848735744E-02  0.22064416276E-01 -0.11916024293E-02  0.24085850274E-01  0.00000000000E+00 0. -1.
     999901    1    3    3    0    0  0.54944103762E-01 -0.34196802600E-01 -0.10991929256E+00  0.88919656248E+00  0.88000000000E+00 0. -1.
        -11    1    4    4    0    0 -0.18540533186E-01  0.70290454860E-02  0.18516582809E-01  0.27134550138E-01  0.51100000000E-03 0.  1.
         11    1    4    4    0    0 -0.45988444150E-01  0.51033408373E-02  0.92594312178E-01  0.10351303711E+00  0.51100000000E-03 0. -1.
</event>
<event>
 8    1  0.1095698E+005  0.1043930E+01  0.7957747E-01            NaN
         13   -1    0    0    0    0  0.00000000000E+00  0.00000000000E+00  0.74505805969E-08  0.10566000000E+00  0.10566000000E+00 0.  1.
     999900   -1    0    0    0    0 -0.00000000000E+00 -0.00000000000E+00 -0.74505805969E-08  0.93827000000E+00  0.93827000000E+00 0.  1.
     999902    2    1    2    0    0  0.16044567582E-01 -0.69438538921E-02  0.10166030831E-01  0.10237064138E+01  0.10235066332E+01 0.  0.
     999903    2    3    3    0    0 -0.11004194347E+00  0.40371973778E-01  0.57788788741E-01  0.13218831366E+00  0.19876633865E-01 0.  0.
         14    1    1    2    0    0 -0.16044567582E-01  0.69438538921E-02 -0.10166030831E-01  0.20223586196E-01  0.00000000000E+00 0. -1.
     999901    1    3    3    0    0  0.12608651105E+00 -0.47315827670E-01 -0.47622757910E-01  0.89151810015E+00  0.88000000000E+00 0. -1.
        -11    1    4    4    0    0 -0.12204783455E-01  0.11646088062E-01  0.94410131580E-02  0.19338613104E-01  0.51100000000E-03 0. -1.
         11    1    4    4    0    0 -0.97837160017E-01  0.28725885716E-01  0.48347775583E-01  0.11284970055E+00  0.51100000000E-03 0.  1.
</event>
<event>
 8    1  0.1095698E+005  0.1043930E+01  0.7957747E-01            NaN
         13   -1    0    0    0    0  0.00000000000E+00  0.00000000000E+00  0.74505805969E-08  0.10566000000E+00  0.10566000000E+00 0. -1.
     999900   -1    0    0    0    0 -0.00000000000E+00 -0.00000000000E+00 -0.74505805969E-08  0.93827000000E+00  0.93827000000E+00 0. -1.
     999902    2    1    2    0    0  0.43073575394E-02 -0.22546214212E-01  0.60219541284E-02  0.10201992386E+01  0.10199232017E+01 0.  0.
     999903    2    3    3    0    0  0.65730166034E-01  0.30912380753E-01  0.10669221064E+00  0.13072462778E+00  0.20728494557E-01 0.  0.
         14    1    1    2    0    0 -0.43073575394E-02  0.22546214212E-01 -0.60219541284E-02  0.23730761382E-01  0.00000000000E+00 0.  1.
     999901    1    3    3    0    0 -0.61422808495E-01 -0.53458594964E-01 -0.10067025651E+00  0.88947461084E+00  0.88000000000E+00 0. -1.
        -11    1    4    4    0    0  0.27478742231E-01  0.28867634135E-02  0.46554022772E-01  0.54138275138E-01  0.51100000000E-03 0.  1.
         11    1    4    4    0    0  0.38251423803E-01  0.28025617339E-01  0.60138187867E-01  0.76586352642E-01  0.51100000000E-03 0. -1.
</event>
<event>
 8    1  0.1095698E+005  0.1043930E+01  0.7957747E-01            NaN
         13   -1    0    0    0    0  0.00000000000E+00  0.00000000000E+00  0.74505805969E-08  0.10566000000E+00  0.10566000000E+00 0. -1.
     999900   -1    0    0    0    0 -0.00000000000E+00 -0.00000000000E+00 -0.74505805969E-08  0.93827000000E+00  0.93827000000E+00 0.  1.
     999902    2    1    2    0    0  0.21043008126E-01 -0.67524158441E-02  0.92300987706E-02  0.10199800932E+01  0.10196988735E+01 0.  0.
     999903    2    3    3    0    0 -0.63604015959E-01  0.44667556032E-01 -0.99678882232E-01  0.12775237660E+00  0.18550707680E-01 0.  0.
         14    1    1    2    0    0 -0.21043008126E-01  0.67524158441E-02 -0.92300987706E-02  0.23949906764E-01  0.00000000000E+00 0.  1.
     999901    1    3    3    0    0  0.84647024084E-01 -0.51419971876E-01  0.10890898100E+00  0.89222771664E+00  0.88000000000E+00 0. -1.
        -11    1    4    4    0    0 -0.34951224317E-01  0.35379237203E-01 -0.64145710700E-01  0.81167800442E-01  0.51100000000E-03 0.  1.
         11    1    4    4    0    0 -0.28652791642E-01  0.92883188294E-02 -0.35533171532E-01  0.46584576156E-01  0.51100000000E-03 0. -1.
</event>
<event>
 8    1  0.1095698E+005  0.1043930E+01  0.7957747E-01            NaN
         13   -1    0    0    0    0  0.00000000000E+00  0.00000000000E+00  0.74505805969E-08  0.10566000000E+00  0.10566000000E+00 0. -1.
     999900   -1    0    0    0    0 -0.00000000000E+00 -0.00000000000E+00 -0.74505805969E-08  0.93827000000E+00  0.93827000000E+00 0.  1.
     999902    2    1    2    0    0 -0.17114043357E-01  0.59242926884E-02 -0.95471089490E-02  0.10234572129E+01  0.10232524281E+01 0.  0.
     999903    2    3    3    0    0 -0.88263273932E-01  0.17564705590E-01 -0.99893735975E-01  0.13589863720E+00  0.19767566793E-01 0.  0.
         14    1    1    2    0    0  0.17114043357E-01 -0.59242926884E-02  0.95471089490E-02  0.20472787137E-01  0.00000000000E+00 0. -1.
     999901    1    3    3    0    0  0.71149230575E-01 -0.11640412902E-01  0.90346627026E-01  0.88755857567E+00  0.88000000000E+00 0. -1.
        -11    1    4    4    0    0 -0.63637301793E-01  0.13642089182E-01 -0.58186743049E-01  0.87302754621E-01  0.51100000000E-03 0.  1.
         11    1    4    4    0    0 -0.24625972139E-01  0.39226164076E-02 -0.41706992927E-01  0.48595882575E-01  0.51100000000E-03 0. -1.
</event>
<event>
 8    1  0.1095698E+005  0.1043930E+01  0.7957747E-01            NaN
         13   -1    0    0    0    0  0.00000000000E+00  0.00000000000E+00  0.74505805969E-08  0.10566000000E+00  0.10566000000E+00 0. -1.
     999900   -1    0    0    0    0 -0.00000000000E+00 -0.00000000000E+00 -0.74505805969E-08  0.93827000000E+00  0.93827000000E+00 0. -1.
     999902    2    1    2    0    0  0.19807947814E-01  0.86931680205E-02 -0.93347585187E-02  0.10203702105E+01  0.10200981829E+01 0.  0.
     999903    2    3    3    0    0  0.69161273871E-01 -0.70382706603E-01 -0.85619141826E-01  0.13216524994E+00  0.20000216335E-01 0.  0.
         14    1    1    2    0    0 -0.19807947814E-01 -0.86931680205E-02  0.93347585187E-02  0.23559789546E-01  0.00000000000E+00 0. -1.
     999901    1    3    3    0    0 -0.49353326057E-01  0.79075874623E-01  0.76284383307E-01  0.88820496051E+00  0.88000000000E+00 0. -1.
        -11    1    4    4    0    0  0.41284109407E-01 -0.53289514270E-01 -0.50915013255E-01  0.84479285724E-01  0.51100000000E-03 0. -1.
         11    1    4    4    0    0  0.27877164464E-01 -0.17093192332E-01 -0.34704128571E-01  0.47685964219E-01  0.51100000000E-03 0.  1.
</event>
<event>
 8    1  0.1095698E+005  0.1043930E+01  0.7957747E-01            NaN
         13   -1    0    0    0    0  0.00000000000E+00  0.00000000000E+00  0.74505805969E-08  0.10566000000E+00  0.10566000000E+00 0.  1.
     999900   -1    0    0    0    0 -0.00000000000E+00 -0.00000000000E+00 -0.74505805969E-08  0.93827000000E+00  0.93827000000E+00 0.  1.
     999902    2    1    2    0    0  0.14489039722E-01 -0.13154227073E-01  0.12015249426E-01  0.10209662856E+01  0.10207080014E+01 0.  0.
     999903    2    3    3    0    0  0.12803169646E+00 -0.29397922228E-01  0.13138498456E-01  0.13352217227E+00  0.19979920291E-01 0.  0.
         14    1    1    2    0    0 -0.14489039722E-01  0.13154227073E-01 -0.12015249426E-01  0.22963714437E-01  0.00000000000E+00 0. -1.
     999901    1    3    3    0    0 -0.11354265674E+00  0.16243695155E-01 -0.11232490294E-02  0.88744411329E+00  0.88000000000E+00 0.  1.
        -11    1    4    4    0    0  0.39319528076E-01 -0.76226635598E-03  0.81650216919E-02  0.40168831677E-01  0.51100000000E-03 0. -1.
         11    1    4    4    0    0  0.88712168389E-01 -0.28635655872E-01  0.49734767639E-02  0.93353340591E-01  0.51100000000E-03 0.  1.
</event>
<event>
 8    1  0.1095698E+005  0.1043930E+01  0.7957747E-01            NaN
         13   -1    0    0    0    0  0.00000000000E+00  0.00000000000E+00  0.74505805969E-08  0.10566000000E+00  0.10566000000E+00 0.  1.
     999900   -1    0    0    0    0 -0.00000000000E+00 -0.00000000000E+00 -0.74505805969E-08  0.93827000000E+00  0.93827000000E+00 0.  1.
     999902    2    1    2    0    0 -0.16264000461E-01  0.13961449857E-02 -0.20685429757E-01  0.10175794035E+01  0.10172381670E+01 0.  0.
     999903    2    3    3    0    0  0.89512475252E-01  0.81024326632E-01  0.29770243617E-01  0.12624608475E+00  0.21780307128E-01 0.  0.
         14    1    1    2    0    0  0.16264000461E-01 -0.13961449857E-02  0.20685429757E-01  0.26350596503E-01  0.00000000000E+00 0.  1.
     999901    1    3    3    0    0 -0.10577647571E+00 -0.79628181647E-01 -0.50455673374E-01  0.89133331874E+00  0.88000000000E+00 0.  1.
        -11    1    4    4    0    0  0.25523273691E-01  0.11743755833E-01  0.33193335087E-02  0.28295448343E-01  0.51100000000E-03 0. -1.
         11    1    4    4    0    0  0.63989201561E-01  0.69280570799E-01  0.26450910108E-01  0.97950636410E-01  0.51100000000E-03 0.  1.
</event>
<event>
 8    1  0.1130302E+005  0.1043930E+01  0.7957747E-01            NaN
         13   -1    0    0    0    0  0.00000000000E+00  0.00000000000E+00  0.74505805969E-08  0.10566000000E+00  0.10566000000E+00 0.  1.
     999900   -1    0    0    0    0 -0.00000000000E+00 -0.00000000000E+00 -0.74505805969E-08  0.93827000000E+00  0.93827000000E+00 0. -1.
     999902    2    1    2    0    0 -0.68447686777E-02  0.29141120680E-02  0.22635334296E-01  0.10201035175E+01  0.10198252229E+01 0.  0.
     999903    2    3    3    0    0  0.51508916462E-01  0.26806513447E-01  0.11774455989E+00  0.13273563205E+00  0.19575724625E-01 0.  0.
         14    1    1    2    0    0  0.68447686777E-02 -0.29141120680E-02 -0.22635334296E-01  0.23826482453E-01  0.00000000000E+00 0. -1.
     999901    1    3    3    0    0 -0.58353685139E-01 -0.23892401379E-01 -0.95109225594E-01  0.88736788549E+00  0.88000000000E+00 0. -1.
        -11    1    4    4    0    0  0.23794930791E-01  0.73839967934E-02  0.69255118513E-01  0.73602002019E-01  0.51100000000E-03 0. -1.
         11    1    4    4    0    0  0.27713985671E-01  0.19422516653E-01  0.48489441377E-01  0.59133630034E-01  0.51100000000E-03 0.  1.
</event>
<event>
 8    1  0.1095698E+005  0.1043930E+01  0.7957747E-01            NaN
         13   -1    0    0    0    0  0.00000000000E+00  0.00000000000E+00  0.74505805969E-08  0.10566000000E+00  0.10566000000E+00 0. -1.
     999900   -1    0    0    0    0 -0.00000000000E+00 -0.00000000000E+00 -0.74505805969E-08  0.93827000000E+00  0.93827000000E+00 0.  1.
     999902    2    1    2    0    0  0.11375937469E-03  0.23191522880E-01  0.12323287173E-02  0.10207054804E+01  0.10204412278E+01 0.  0.
     999903    2    3    3    0    0  0.94923007417E-01 -0.13321815796E-01 -0.86477921924E-01  0.13052847249E+00  0.19271819765E-01 0.  0.
         14    1    1    2    0    0 -0.11375937469E-03 -0.23191522880E-01 -0.12323287173E-02  0.23224519559E-01  0.00000000000E+00 0. -1.
     999901    1    3    3    0    0 -0.94809248043E-01  0.36513338676E-01  0.87710250642E-01  0.89017700795E+00  0.88000000000E+00 0. -1.
        -11    1    4    4    0    0  0.33676518857E-01  0.44088267145E-02 -0.28282705978E-01  0.44200885215E-01  0.51100000000E-03 0. -1.
         11    1    4    4    0    0  0.61246488560E-01 -0.17730642510E-01 -0.58195215946E-01  0.86327587275E-01  0.51100000000E-03 0.  1.
</event>
<event>
 8    1  0.1095698E+005  0.1043930E+01  0.7957747E-01            NaN
         13   -1    0    0    0    0  0.00000000000E+00  0.00000000000E+00  0.74505805969E-08  0.10566000000E+00  0.10566000000E+00 0. -1.
     999900   -1    0    0    0    0 -0.00000000000E+00 -0.00000000000E+00 -0.74505805969E-08  0.93827000000E+00  0.93827000000E+00 0. -1.
     999902    2    1    2    0    0 -0.69143924779E-03 -0.35044124687E-02  0.24543594825E-01  0.10191278420E+01  0.10188259966E+01 0.  0.
     999903    2    3    3    0    0  0.38557959813E-01  0.12103953073E+00  0.11876356135E-01  0.12940194709E+00  0.21599347515E-01 0.  0.
         14    1    1    2    0    0  0.69143924779E-03  0.35044124687E-02 -0.24543594825E-01  0.24802158009E-01  0.00000000000E+00 0.  1.
     999901    1    3    3    0    0 -0.39249399061E-01 -0.12454394320E+00  0.12667238690E-01  0.88972589490E+00  0.88000000000E+00 0.  1.
        -11    1    4    4    0    0  0.18654366629E-01  0.77159334312E-01 -0.14850213480E-02  0.79397825380E-01  0.51100000000E-03 0. -1.
         11    1    4    4    0    0  0.19903593184E-01  0.43880196416E-01  0.13361377483E-01  0.50004121714E-01  0.51100000000E-03 0.  1.
</event>
<event>
 8    1  0.1095698E+005  0.1043930E+01  0.7957747E-01            NaN
         13   -1    0    0    0    0  0.00000000000E+00  0.00000000000E+00  0.74505805969E-08  0.10566000000E+00  0.10566000000E+00 0.  1.
     999900   -1    0    0    0    0 -0.00000000000E+00 -0.00000000000E+00 -0.74505805969E-08  0.93827000000E+00  0.93827000000E+00 0. -1.
     999902    2    1    2    0    0 -0.13271960979E-01  0.16107763037E-01  0.10713216935E-01  0.10204698637E+01  0.10202001591E+01 0.  0.
     999903    2    3    3    0    0  0.87719612965E-01  0.34582187715E-01  0.88854681667E-01  0.13106180724E+00  0.19783444029E-01 0.  0.
         14    1    1    2    0    0  0.13271960979E-01 -0.16107763037E-01 -0.10713216935E-01  0.23460136303E-01  0.00000000000E+00 0. -1.
     999901    1    3    3    0    0 -0.10099157394E+00 -0.18474424679E-01 -0.78141464732E-01  0.88940805645E+00  0.88000000000E+00 0. -1.
        -11    1    4    4    0    0  0.14032518852E-01  0.12900160153E-01  0.12791209084E-01  0.22960876902E-01  0.51100000000E-03 0.  1.
         11    1    4    4    0    0  0.73687094113E-01  0.21682027563E-01  0.76063472583E-01  0.10810093034E+00  0.51100000000E-03 0. -1.
</event>
<event>
 8    1  0.1095698E+005  0.1043930E+01  0.7957747E-01            NaN
         13   -1    0    0    0    0  0.00000000000E+00  0.00000000000E+00  0.74505805969E-08  0.10566000000E+00  0.10566000000E+00 0.  1.
     999900   -1    0    0    0    0 -0.00000000000E+00 -0.00000000000E+00 -0.74505805969E-08  0.93827000000E+00  0.93827000000E+00 0.  1.
     999902    2    1    2    0    0 -0.13511245720E-01 -0.86158220620E-02  0.17809673604E-01  0.10199723160E+01  0.10196909114E+01 0.  0.
     999903    2    3    3    0    0  0.37813427862E-01 -0.65426612961E-01 -0.10187964766E+00  0.12857609558E+00  0.21020293464E-01 0.  0.
         14    1    1    2    0    0  0.13511245720E-01  0.86158220620E-02 -0.17809673604E-01  0.23957684041E-01  0.00000000000E+00 0. -1.
     999901    1    3    3    0    0 -0.51324673582E-01  0.56810790899E-01  0.11968932126E+00  0.89139622038E+00  0.88000000000E+00 0. -1.
        -11    1    4    4    0    0  0.26130884007E-01 -0.35118811962E-01 -0.43193349476E-01  0.61498622851E-01  0.51100000000E-03 0. -1.
         11    1    4    4    0    0  0.11682543855E-01 -0.30307800999E-01 -0.58686298183E-01  0.67077472729E-01  0.51100000000E-03 0.  1.
</event>
<event>
 8    1  0.1095698E+005  0.1043930E+01  0.7957747E-01            NaN
         13   -1    0    0    0    0  0.00000000000E+00  0.00000000000E+00  0.74505805969E-08  0.10566000000E+00  0.10566000000E+00 0. -1.
     999900   -1    0    0    0    0 -0.00000000000E+00 -0.00000000000E+00 -0.74505805969E-08  0.93827000000E+00  0.93827000000E+00 0.  1.
     999902    2    1    2    0    0 -0.15160841602E-01  0.17181322015E-01 -0.75060188457E-02  0.10198179851E+01  0.10195328996E+01 0.  0.
     999903    2    3    3    0    0 -0.78890060120E-01 -0.49399456830E-01 -0.89700088450E-01  0.13119529886E+00  0.22408762871E-01 0.  0.
         14    1    1    2    0    0  0.15160841602E-01 -0.17181322015E-01  0.75060188457E-02  0.24112014913E-01  0.00000000000E+00 0. -1.
     999901    1    3    3    0    0  0.63729218517E-01  0.66580778845E-01  0.82194069604E-01  0.88862268623E+00  0.88000000000E+00 0. -1.
        -11    1    4    4    0    0 -0.72933831011E-01 -0.49593334083E-01 -0.76697174790E-01  0.11688267722E+00  0.51100000000E-03 0.  1.
         11    1    4    4    0    0 -0.59562291087E-02  0.19387725303E-03 -0.13002913660E-01  0.14312621641E-01  0.51100000000E-03 0. -1.
</event>
<event>
 8    1  0.1249023E+005  0.1043930E+01  0.7957747E-01            NaN
         13   -1    0    0    0    0  0.00000000000E+00  0.00000000000E+00  0.74505805969E-08  0.10566000000E+00  0.10566000000E+00 0.  1.
     999900   -1    0    0    0    0 -0.00000000000E+00 -0.00000000000E+00 -0.74505805969E-08  0.93827000000E+00  0.93827000000E+00 0. -1.
     999902    2    1    2    0    0 -0.22752957021E-01  0.60717601805E-02  0.28040410081E-02  0.10202144783E+01  0.10199388000E+01 0.  0.
     999903    2    3    3    0    0  0.49625926248E-01 -0.68881005342E-01  0.95098199692E-01  0.12927405853E+00  0.21466000352E-01 0.  0.
         14    1    1    2    0    0  0.22752957021E-01 -0.60717601805E-02 -0.28040410081E-02  0.23715521729E-01  0.00000000000E+00 0. -1.
     999901    1    3    3    0    0 -0.72378883269E-01  0.74952765522E-01 -0.92294158684E-01  0.89094041974E+00  0.88000000000E+00 0.  1.
        -11    1    4    4    0    0  0.28832729794E-01 -0.40730185092E-01  0.70979330955E-01  0.86767510214E-01  0.51100000000E-03 0. -1.
         11    1    4    4    0    0  0.20793196453E-01 -0.28150820249E-01  0.24118868738E-01  0.42506548315E-01  0.51100000000E-03 0.  1.
</event>
<event>
 8    1  0.1095698E+005  0.1043930E+01  0.7957747E-01            NaN
         13   -1    0    0    0    0  0.00000000000E+00  0.00000000000E+00  0.74505805969E-08  0.10566000000E+00  0.10566000000E+00 0.  1.
     999900   -1    0    0    0    0 -0.00000000000E+00 -0.00000000000E+00 -0.74505805969E-08  0.93827000000E+00  0.93827000000E+00 0. -1.
     999902    2    1    2    0    0 -0.89503699777E-02  0.14088055051E-01 -0.16829336518E-01  0.10202274899E+01  0.10199521176E+01 0.  0.
     999903    2    3    3    0    0  0.23462620889E-01  0.35112088498E-01 -0.12439648918E+00  0.13283619836E+00  0.19687959171E-01 0.  0.
         14    1    1    2    0    0  0.89503699777E-02 -0.14088055051E-01  0.16829336518E-01  0.23702510110E-01  0.00000000000E+00 0.  1.
     999901    1    3    3    0    0 -0.32412990867E-01 -0.21024033447E-01  0.10756715266E+00  0.88739129153E+00  0.88000000000E+00 0.  1.
        -11    1    4    4    0    0  0.13603264738E-01  0.29735566190E-01 -0.69626205432E-01  0.76924133482E-01  0.51100000000E-03 0. -1.
         11    1    4    4    0    0  0.98593561513E-02  0.53765223076E-02 -0.54770283746E-01  0.55912064874E-01  0.51100000000E-03 0.  1.
</event>
<event>
 7    1  0.1095698E+005  0.1043930E+01  0.7957747E-01            NaN
         13   -1    0    0    0    0  0.00000000000E+00  0.00000000000E+00  0.74505805969E-08  0.10566000000E+00  0.10566000000E+00 0. -1.
     999900   -1    0    0    0    0 -0.00000000000E+00 -0.00000000000E+00 -0.74505805969E-08  0.93827000000E+00  0.93827000000E+00 0. -1.
     999902    2    1    2    0    0  0.22831673033E-01  0.76294482139E-03 -0.45969350793E-02  0.10206276570E+01  0.10203616099E+01 0.  0.
         14    1    1    2    0    0 -0.22831673033E-01 -0.76294482139E-03  0.45969350793E-02  0.23302343024E-01  0.00000000000E+00 0. -1.
     999901    1    3    3    0    0  0.74762139317E-01 -0.10932358046E+00 -0.21721697045E-01  0.89017574380E+00  0.88000000000E+00 0. -1.
        -11    1    3    3    0    0 -0.59177572802E-01  0.90907302637E-01  0.17840589595E-01  0.10993029861E+00  0.51100000000E-03 0. -1.
         11    1    3    3    0    0  0.72471065182E-02  0.19179222646E-01 -0.71582762892E-03  0.20521614565E-01  0.51100000000E-03 0.  1.
</event>
<event>
 8    1  0.1095698E+005  0.1043930E+01  0.7957747E-01            NaN
         13   -1    0    0    0    0  0.00000000000E+00  0.00000000000E+00  0.74505805969E-08  0.10566000000E+00  0.10566000000E+00 0. -1.
     999900   -1    0    0    0    0 -0.00000000000E+00 -0.00000000000E+00 -0.74505805969E-08  0.93827000000E+00  0.93827000000E+00 0.  1.
     999902    2    1    2    0    0 -0.11248022806E-01  0.56242395176E-02 -0.20849118913E-01  0.10195817794E+01  0.10192910129E+01 0.  0.
     999903    2    3    3    0    0  0.10811496267E+00  0.23299532220E-01 -0.65357677762E-01  0.13023316941E+00  0.21385486115E-01 0.  0.
         14    1    1    2    0    0  0.11248022806E-01 -0.56242395176E-02  0.20849118913E-01  0.24348220605E-01  0.00000000000E+00 0. -1.
     999901    1    3    3    0    0 -0.11936298548E+00 -0.17675292702E-01  0.44508558849E-01  0.88934860999E+00  0.88000000000E+00 0.  1.
        -11    1    4    4    0    0  0.30839972300E-01 -0.17621543115E-02 -0.23688861126E-01  0.38931123047E-01  0.51100000000E-03 0.  1.
         11    1    4    4    0    0  0.77274990372E-01  0.25061686532E-01 -0.41668816636E-01  0.91302046361E-01  0.51100000000E-03 0. -1.
</event>
<event>
 8    1  0.1095698E+005  0.1043930E+01  0.7957747E-01            NaN
         13   -1    0    0    0    0  0.00000000000E+00  0.00000000000E+00  0.74505805969E-08  0.10566000000E+00  0.10566000000E+00 0.  1.
     999900   -1    0    0    0    0 -0.00000000000E+00 -0.00000000000E+00 -0.74505805969E-08  0.93827000000E+00  0.93827000000E+00 0.  1.
     999902    2    1    2    0    0  0.92827617954E-02  0.39758608713E-02 -0.21840928979E-01  0.10198675123E+01  0.10195836107E+01 0.  0.
     999903    2    3    3    0    0  0.43075820475E-01 -0.41196731587E-01  0.11145507178E+00  0.12804333806E+00  0.20497960678E-01 0.  0.
         14    1    1    2    0    0 -0.92827617954E-02 -0.39758608713E-02  0.21840928979E-01  0.24062487712E-01  0.00000000000E+00 0.  1.
     999901    1    3    3    0    0 -0.33793058679E-01  0.45172592459E-01 -0.13329600076E+00  0.89182417423E+00  0.88000000000E+00 0.  1.
        -11    1    4    4    0    0  0.66768600058E-02 -0.16339754927E-01  0.21136866383E-01  0.27542626819E-01  0.51100000000E-03 0. -1.
         11    1    4    4    0    0  0.36398960469E-01 -0.24856976660E-01  0.90318205398E-01  0.10050071124E+00  0.51100000000E-03 0.  1.
</event>
<event>
 8    1  0.1095698E+005  0.1043930E+01  0.7957747E-01            NaN
         13   -1    0    0    0    0  0.00000000000E+00  0.00000000000E+00  0.74505805969E-08  0.10566000000E+00  0.10566000000E+00 0. -1.
     999900   -1    0    0    0    0 -0.00000000000E+00 -0.00000000000E+00 -0.74505805969E-08  0.93827000000E+00  0.93827000000E+00 0.  1.
     999902    2    1    2    0    0  0.11156377841E-01 -0.21722267435E-01  0.47417876402E-02  0.10190541841E+01  0.10187505209E+01 0.  0.
     999903    2    3    3    0    0 -0.38312193672E-01  0.10182533351E+00  0.62645280992E-01  0.12716631901E+00  0.20263729464E-01 0.  0.
         14    1    1    2    0    0 -0.11156377841E-01  0.21722267435E-01 -0.47417876402E-02  0.24875815948E-01  0.00000000000E+00 0.  1.
     999901    1    3    3    0    0  0.49468571513E-01 -0.12354760094E+00 -0.57903493352E-01  0.89188786504E+00  0.88000000000E+00 0.  1.
        -11    1    4    4    0    0 -0.30832168763E-01  0.93458259213E-01  0.61067571575E-01  0.11582132042E+00  0.51100000000E-03 0.  1.
         11    1    4    4    0    0 -0.74800249083E-02  0.83670742961E-02  0.15777094173E-02  0.11344998586E-01  0.51100000000E-03 0. -1.
</event>
<event>
 8    1  0.1095698E+005  0.1043930E+01  0.7957747E-01            NaN
         13   -1    0    0    0    0  0.00000000000E+00  0.00000000000E+00  0.74505805969E-08  0.10566000000E+00  0.10566000000E+00 0. -1.
     999900   -1    0    0    0    0 -0.00000000000E+00 -0.00000000000E+00 -0.74505805969E-08  0.93827000000E+00  0.93827000000E+00 0.  1.
     999902    2    1    2    0    0 -0.15187949612E-01 -0.17520696938E-01 -0.99781940016E-02  0.10186869219E+01  0.10183741120E+01 0.  0.
     999903    2    3    3    0    0  0.45359763475E-01 -0.35179637910E-01  0.11250106184E+00  0.12796865454E+00  0.20600304938E-01 0.  0.
         14    1    1    2    0    0  0.15187949612E-01  0.17520696938E-01  0.99781940016E-02  0.25243078064E-01  0.00000000000E+00 0. -1.
     999901    1    3    3    0    0 -0.60547713087E-01  0.17658940971E-01 -0.12247925584E+00  0.89071826739E+00  0.88000000000E+00 0.  1.
        -11    1    4    4    0    0  0.27063353304E-01 -0.26144940685E-01  0.52531434975E-01  0.64620397685E-01  0.51100000000E-03 0.  1.
         11    1    4    4    0    0  0.18296410171E-01 -0.90346972250E-02  0.59969626868E-01  0.63348256857E-01  0.51100000000E-03 0. -1.
</event>
<event>
 8    1  0.1095698E+005  0.1043930E+01  0.7957747E-01            NaN
         13   -1    0    0    0    0  0.00000000000E+00  0.00000000000E+00  0.74505805969E-08  0.10566000000E+00  0.10566000000E+00 0. -1.
     999900   -1    0    0    0    0 -0.00000000000E+00 -0.00000000000E+00 -0.74505805969E-08  0.93827000000E+00  0.93827000000E+00 0.  1.
     999902    2    1    2    0    0 -0.21370164446E-01 -0.52300181475E-02  0.51649970994E-02  0.10213310130E+01  0.10210809585E+01 0.  0.
     999903    2    3    3    0    0  0.37746816411E-01  0.68457191957E-01  0.10308108125E+00  0.13087484794E+00  0.19781487088E-01 0.  0.
         14    1    1    2    0    0  0.21370164446E-01  0.52300181475E-02 -0.51649970994E-02  0.22598986997E-01  0.00000000000E+00 0.  1.
     999901    1    3    3    0    0 -0.59116980857E-01 -0.73687210104E-01 -0.97916084155E-01  0.89045616506E+00  0.88000000000E+00 0. -1.
        -11    1    4    4    0    0  0.23444557141E-01  0.26040972162E-01  0.36098331937E-01  0.50310338702E-01  0.51100000000E-03 0.  1.
         11    1    4    4    0    0  0.14302259270E-01  0.42416219795E-01  0.66982749318E-01  0.80564509240E-01  0.51100000000E-03 0. -1.
</event>
<event>
 8    1  0.1095698E+005  0.1043930E+01  0.7957747E-01            NaN
         13   -1    0    0    0    0  0.00000000000E+00  0.00000000000E+00  0.74505805969E-08  0.10566000000E+00  0.10566000000E+00 0.  1.
     999900   -1    0    0    0    0 -0.00000000000E+00 -0.00000000000E+00 -0.74505805969E-08  0.93827000000E+00  0.93827000000E+00 0. -1.
     999902    2    1    2    0    0  0.10923426129E-01 -0.21372852542E-01 -0.35295374923E-02  0.10196693797E+01  0.10193807268E+01 0.  0.
     999903    2    3    3    0    0 -0.34946693701E-01 -0.12074727235E+00  0.35374529982E-01  0.13203608282E+00  0.19519083317E-01 0.  0.
         14    1    1    2    0    0 -0.10923426129E-01  0.21372852542E-01  0.35295374923E-02  0.24260620336E-01  0.00000000000E+00 0. -1.
     999901    1    3    3    0    0  0.45870119830E-01  0.99374419809E-01 -0.38904067474E-01  0.88763329685E+00  0.88000000000E+00 0. -1.
        -11    1    4    4    0    0 -0.23994153190E-01 -0.65900839150E-01  0.10870952575E-01  0.70972379971E-01  0.51100000000E-03 0.  1.
         11    1    4    4    0    0 -0.10952540511E-01 -0.54846433201E-01  0.24503577406E-01  0.61063702846E-01  0.51100000000E-03 0. -1.
</event>
<event>
 8    1  0.1095698E+005  0.1043930E+01  0.7957747E-01            NaN
         13   -1    0    0    0    0  0.00000000000E+00  0.00000000000E+00  0.74505805969E-08  0.10566000000E+00  0.10566000000E+00 0. -1.
     999900   -1    0    0    0    0 -0.00000000000E+00 -0.00000000000E+00 -0.74505805969E-08  0.93827000000E+00  0.93827000000E+00 0.  1.
     999902    2    1    2    0    0 -0.15238869930E-01 -0.33725601380E-02 -0.17764325358E-01  0.10202832545E+01  0.10200091915E+01 0.  0.
     999903    2    3    3    0    0  0.10317049721E+00 -0.61119842127E-01  0.41480261879E-01  0.12850668609E+00  0.20336411849E-01 0.  0.
         14    1    1    2    0    0  0.15238869930E-01  0.33725601380E-02  0.17764325358E-01  0.23646745528E-01  0.00000000000E+00 0. -1.
     999901    1    3    3    0    0 -0.11840936714E+00  0.57747281989E-01 -0.59244587237E-01  0.89177656839E+00  0.88000000000E+00 0.  1.
        -11    1    4    4    0    0  0.83549386345E-01 -0.49522990126E-01  0.41723183329E-01  0.10570767076E+00  0.51100000000E-03 0. -1.
         11    1    4    4    0    0  0.19621110867E-01 -0.11596852002E-01 -0.24292145027E-03  0.22799015326E-01  0.51100000000E-03 0.  1.
</event>
<event>
 8    1  0.1095698E+005  0.1043930E+01  0.7957747E-01            NaN
         13   -1    0    0    0    0  0.00000000000E+00  0.00000000000E+00  0.74505805969E-08  0.10566000000E+00  0.10566000000E+00 0. -1.
     999900   -1    0    0    0    0 -0.00000000000E+00 -0.00000000000E+00 -0.74505805969E-08  0.93827000000E+00  0.93827000000E+00 0. -1.
     999902    2    1    2    0    0 -0.13454142545E-01  0.16026647750E-01  0.13249897475E-01  0.10191625380E+01  0.10188615469E+01 0.  0.
     999903    2    3    3    0    0 -0.12394804941E+00  0.12092617799E-01  0.39952621777E-01  0.13184218126E+00  0.16637259779E-01 0.  0.
         14    1    1    2    0    0  0.13454142545E-01 -0.16026647750E-01 -0.13249897475E-01  0.24767461978E-01  0.00000000000E+00 0. -1.
     999901    1    3    3    0    0  0.11049390687E+00  0.39340299517E-02 -0.26702724302E-01  0.88732035677E+00  0.88000000000E+00 0. -1.
        -11    1    4    4    0    0 -0.10188911302E+00  0.49788862448E-02  0.36794524467E-01  0.10844481920E+00  0.51100000000E-03 0. -1.
         11    1    4    4    0    0 -0.22058936393E-01  0.71137315539E-02  0.31580973102E-02  0.23397362053E-01  0.51100000000E-03 0.  1.
</event>
<event>
 8    1  0.1095698E+005  0.1043930E+01  0.7957747E-01            NaN
         13   -1    0    0    0    0  0.00000000000E+00  0.00000000000E+00  0.74505805969E-08  0.10566000000E+00  0.10566000000E+00 0. -1.
     999900   -1    0    0    0    0 -0.00000000000E+00 -0.00000000000E+00 -0.74505805969E-08  0.93827000000E+00  0.93827000000E+00 0. -1.
     999902    2    1    2    0    0  0.23321814132E-01  0.11068776780E-01  0.22848249912E-02  0.10180138803E+01  0.10176839467E+01 0.  0.
     999903    2    3    3    0    0 -0.64898702738E-01  0.55563232840E-01 -0.92661226253E-01  0.12740882259E+00  0.18649149096E-01 0.  0.
         14    1    1    2    0    0 -0.23321814132E-01 -0.11068776780E-01 -0.22848249912E-02  0.25916119676E-01  0.00000000000E+00 0.  1.
     999901    1    3    3    0    0  0.88220516870E-01 -0.44494456060E-01  0.94946051244E-01  0.89060505774E+00  0.88000000000E+00 0.  1.
        -11    1    4    4    0    0 -0.45323007016E-01  0.27733953341E-01 -0.61397315421E-01  0.81198759811E-01  0.51100000000E-03 0.  1.
         11    1    4    4    0    0 -0.19575695722E-01  0.27829279499E-01 -0.31263910832E-01  0.46210062778E-01  0.51100000000E-03 0. -1.
</event>
<event>
 8    1  0.1433956E+005  0.1043930E+01  0.7957747E-01            NaN
         13   -1    0    0    0    0  0.00000000000E+00  0.00000000000E+00  0.74505805969E-08  0.10566000000E+00  0.10566000000E+00 0. -1.
     999900   -1    0    0    0    0 -0.00000000000E+00 -0.00000000000E+00 -0.74505805969E-08  0.93827000000E+00  0.93827000000E+00 0. -1.
     999902    2    1    2    0    0 -0.28176453140E-02 -0.35244750434E-01 -0.10970849568E-01  0.10069098555E+01  0.10062290823E+01 0.  0.
     999903    2    3    3    0    0 -0.61548015841E-01 -0.10138121643E+00  0.20368569775E-01  0.12192090204E+00  0.19583626331E-01 0.  0.
         14    1    1    2    0    0  0.28176453140E-02  0.35244750434E-01  0.10970849568E-01  0.37020144496E-01  0.00000000000E+00 0.  1.
     999901    1    3    3    0    0  0.58730370527E-01  0.66136465992E-01 -0.31339419343E-01  0.88498895347E+00  0.88000000000E+00 0. -1.
        -11    1    4    4    0    0 -0.22418803832E-01 -0.54137785074E-01  0.13984222944E-01  0.60243855706E-01  0.51100000000E-03 0. -1.
         11    1    4    4    0    0 -0.39129212009E-01 -0.47243431353E-01  0.63843468311E-02  0.61677046329E-01  0.51100000000E-03 0.  1.
</event>
<event>
 8    1  0.1095698E+005  0.1043930E+01  0.7957747E-01            NaN
         13   -1    0    0    0    0  0.00000000000E+00  0.00000000000E+00  0.74505805969E-08  0.10566000000E+00  0.10566000000E+00 0. -1.
     999900   -1    0    0    0    0 -0.00000000000E+00 -0.00000000000E+00 -0.74505805969E-08  0.93827000000E+00  0.93827000000E+00 0.  1.
     999902    2    1    2    0    0 -0.15788752648E-01 -0.75280563014E-02 -0.12275164466E-03  0.10264379615E+01  0.10262889055E+01 0.  0.
     999903    2    3    3    0    0 -0.10887327244E+00  0.40950419852E-01  0.70370792391E-01  0.13740239968E+00  0.19925980010E-01 0.  0.
         14    1    1    2    0    0  0.15788752648E-01  0.75280563014E-02  0.12275164466E-03  0.17492038470E-01  0.00000000000E+00 0.  1.
     999901    1    3    3    0    0  0.93084519792E-01 -0.48478476154E-01 -0.70493544036E-01  0.88903556185E+00  0.88000000000E+00 0.  1.
        -11    1    4    4    0    0 -0.77837153556E-01  0.36568952704E-01  0.44931895327E-01  0.97031165685E-01  0.51100000000E-03 0. -1.
         11    1    4    4    0    0 -0.31036118884E-01  0.43814671484E-02  0.25438897065E-01  0.40371234000E-01  0.51100000000E-03 0.  1.
</event>
<event>
 8    1  0.1095698E+005  0.1043930E+01  0.7957747E-01            NaN
         13   -1    0    0    0    0  0.00000000000E+00  0.00000000000E+00  0.74505805969E-08  0.10566000000E+00  0.10566000000E+00 0.  1.
     999900   -1    0    0    0    0 -0.00000000000E+00 -0.00000000000E+00 -0.74505805969E-08  0.93827000000E+00  0.93827000000E+00 0. -1.
     999902    2    1    2    0    0 -0.63018683697E-02  0.48673479081E-02  0.21945557825E-01  0.10205845052E+01  0.10203174604E+01 0.  0.
     999903    2    3    3    0    0 -0.51964992026E-01  0.87409876514E-01 -0.78391320896E-01  0.12987362103E+00  0.19522073140E-01 0.  0.
         14    1    1    2    0    0  0.63018683697E-02 -0.48673479081E-02 -0.21945557825E-01  0.23345494830E-01  0.00000000000E+00 0. -1.
     999901    1    3    3    0    0  0.45663123656E-01 -0.82542528606E-01  0.10033687872E+00  0.89071088414E+00  0.88000000000E+00 0.  1.
        -11    1    4    4    0    0 -0.15081935986E-01  0.42171243793E-01 -0.28519947734E-01  0.53099219729E-01  0.51100000000E-03 0. -1.
         11    1    4    4    0    0 -0.36883056040E-01  0.45238632722E-01 -0.49871373162E-01  0.76774401303E-01  0.51100000000E-03 0.  1.
</event>
<event>
 7    1  0.1095698E+005  0.1043930E+01  0.7957747E-01            NaN
         13   -1    0    0    0    0  0.00000000000E+00  0.00000000000E+00  0.74505805969E-08  0.10566000000E+00  0.10566000000E+00 0. -1.
     999900   -1    0    0    0    0 -0.00000000000E+00 -0.00000000000E+00 -0.74505805969E-08  0.93827000000E+00  0.93827000000E+00 0. -1.
     999902    2    1    2    0    0 -0.84360701525E-02  0.20805064391E-01  0.71783136770E-02  0.10203599730E+01  0.10200877062E+01 0.  0.
         14    1    1    2    0    0  0.84360701525E-02 -0.20805064391E-01 -0.71783136770E-02  0.23570026966E-01  0.00000000000E+00 0.  1.
     999901    1    3    3    0    0 -0.87181019250E-01 -0.65170251953E-01  0.54667129749E-01  0.88838965940E+00  0.88000000000E+00 0.  1.
        -11    1    3    3    0    0  0.42143568464E-01  0.18062378914E-01 -0.14827851857E-01  0.48191868677E-01  0.51100000000E-03 0. -1.
         11    1    3    3    0    0  0.36601380633E-01  0.67912937430E-01 -0.32660964215E-01  0.83778444955E-01  0.51100000000E-03 0.  1.
</event>
<event>
 8    1  0.1095698E+005  0.1043930E+01  0.7957747E-01            NaN
         13   -1    0    0    0    0  0.00000000000E+00  0.00000000000E+00  0.74505805969E-08  0.10566000000E+00  0.10566000000E+00 0. -1.
     999900   -1    0    0    0    0 -0.00000000000E+00 -0.00000000000E+00 -0.74505805969E-08  0.93827000000E+00  0.93827000000E+00 0.  1.
     999902    2    1    2    0    0  0.14694721189E-01 -0.13463419739E-01 -0.48693661846E-02  0.10234139275E+01  0.10232082671E+01 0.  0.
     999903    2    3    3    0    0 -0.10728359399E+00 -0.38656385021E-01  0.63385595502E-01  0.13202616980E+00  0.20225977159E-01 0.  0.
         14    1    1    2    0    0 -0.14694721189E-01  0.13463419739E-01  0.48693661846E-02  0.20516072454E-01  0.00000000000E+00 0. -1.
     999901    1    3    3    0    0  0.12197831518E+00  0.25192965281E-01 -0.68254961687E-01  0.89138775775E+00  0.88000000000E+00 0.  1.
        -11    1    4    4    0    0 -0.37891787631E-01 -0.20792891701E-01  0.32087497700E-01  0.53833080395E-01  0.51100000000E-03 0. -1.
         11    1    4    4    0    0 -0.69391806357E-01 -0.17863493319E-01  0.31298097802E-01  0.78193089401E-01  0.51100000000E-03 0.  1.
</event>
<event>
 8    1  0.1095698E+005  0.1043930E+01  0.7957747E-01            NaN
         13   -1    0    0    0    0  0.00000000000E+00  0.00000000000E+00  0.74505805969E-08  0.10566000000E+00  0.10566000000E+00 0. -1.
     999900   -1    0    0    0    0 -0.00000000000E+00 -0.00000000000E+00 -0.74505805969E-08  0.93827000000E+00  0.93827000000E+00 0.  1.
     999902    2    1    2    0    0 -0.74638733673E-02 -0.20882155466E-01  0.72743953525E-02  0.10205913914E+01  0.10203245060E+01 0.  0.
     999903    2    3    3    0    0  0.95873930050E-01 -0.83841289629E-01 -0.26750606617E-01  0.13165930462E+00  0.19935025181E-01 0.  0.
         14    1    1    2    0    0  0.74638733673E-02  0.20882155466E-01 -0.72743953525E-02  0.23338608576E-01  0.00000000000E+00 0. -1.
     999901    1    3    3    0    0 -0.10333780342E+00  0.62959134163E-01  0.34025001970E-01  0.88893208680E+00  0.88000000000E+00 0. -1.
        -11    1    4    4    0    0  0.39519290740E-01 -0.37782581869E-01 -0.17623086493E-02  0.54705252820E-01  0.51100000000E-03 0. -1.
         11    1    4    4    0    0  0.56354639309E-01 -0.46058707759E-01 -0.24988297968E-01  0.76954051800E-01  0.51100000000E-03 0.  1.
</event>
<event>
 8    1  0.1095698E+005  0.1043930E+01  0.7957747E-01            NaN
         13   -1    0    0    0    0  0.00000000000E+00  0.00000000000E+00  0.74505805969E-08  0.10566000000E+00  0.10566000000E+00 0. -1.
     999900   -1    0    0    0    0 -0.00000000000E+00 -0.00000000000E+00 -0.74505805969E-08  0.93827000000E+00  0.93827000000E+00 0.  1.
     999902    2    1    2    0    0 -0.68627894221E-02 -0.21084999445E-01  0.71297605180E-02  0.10206381867E+01  0.10203723828E+01 0.  0.
     999903    2    3    3    0    0 -0.96565412395E-01  0.53433458807E-01 -0.65701724328E-01  0.12996204673E+00  0.19834404931E-01 0.  0.
         14    1    1    2    0    0  0.68627894221E-02  0.21084999445E-01 -0.71297605180E-02  0.23291813268E-01  0.00000000000E+00 0. -1.
     999901    1    3    3    0    0  0.89702622972E-01 -0.74518458252E-01  0.72831484846E-01  0.89067614000E+00  0.88000000000E+00 0. -1.
        -11    1    4    4    0    0 -0.48889181731E-01  0.31296354863E-01 -0.45062186590E-01  0.73487928936E-01  0.51100000000E-03 0. -1.
         11    1    4    4    0    0 -0.47676230664E-01  0.22137103943E-01 -0.20639537738E-01  0.56474117792E-01  0.51100000000E-03 0.  1.
</event>
<event>
 8    1  0.1095698E+005  0.1043930E+01  0.7957747E-01            NaN
         13   -1    0    0    0    0  0.00000000000E+00  0.00000000000E+00  0.74505805969E-08  0.10566000000E+00  0.10566000000E+00 0.  1.
     999900   -1    0    0    0    0 -0.00000000000E+00 -0.00000000000E+00 -0.74505805969E-08  0.93827000000E+00  0.93827000000E+00 0. -1.
     999902    2    1    2    0    0 -0.13045534363E-01  0.10648386349E-01 -0.84386982597E-02  0.10250942434E+01  0.10249211785E+01 0.  0.
     999903    2    3    3    0    0  0.88015044766E-01 -0.56050247505E-01  0.79118577400E-01  0.13249790409E+00  0.20190763941E-01 0.  0.
         14    1    1    2    0    0  0.13045534363E-01 -0.10648386349E-01  0.84386982597E-02  0.18835756607E-01  0.00000000000E+00 0.  1.
     999901    1    3    3    0    0 -0.10106057913E+00  0.66698633855E-01 -0.87557275659E-01  0.89259633930E+00  0.88000000000E+00 0. -1.
        -11    1    4    4    0    0  0.60391471107E-01 -0.37113425629E-01  0.41549664860E-01  0.82165515366E-01  0.51100000000E-03 0.  1.
         11    1    4    4    0    0  0.27623573659E-01 -0.18936821876E-01  0.37568912540E-01  0.50332388726E-01  0.51100000000E-03 0. -1.
</event>
<event>
 8    1  0.1095698E+005  0.1043930E+01  0.7957747E-01            NaN
         13   -1    0    0    0    0  0.00000000000E+00  0.00000000000E+00  0.74505805969E-08  0.10566000000E+00  0.10566000000E+00 0.  1.
     999900   -1    0    0    0    0 -0.00000000000E+00 -0.00000000000E+00 -0.74505805969E-08  0.93827000000E+00  0.93827000000E+00 0. -1.
     999902    2    1    2    0    0 -0.22546144921E-01 -0.66427263725E-02 -0.11220393464E-02  0.10203988836E+01  0.10201275255E+01 0.  0.
     999903    2    3    3    0    0 -0.12722175498E+00 -0.32265180632E-01  0.16881537375E-01  0.13364208369E+00  0.18676279216E-01 0.  0.
         14    1    1    2    0    0  0.22546144921E-01  0.66427263725E-02  0.11220393464E-02  0.23531116351E-01  0.00000000000E+00 0.  1.
     999901    1    3    3    0    0  0.10467561006E+00  0.25622454259E-01 -0.18003576721E-01  0.88675679996E+00  0.88000000000E+00 0. -1.
        -11    1    4    4    0    0 -0.95781689004E-01 -0.29190890587E-01  0.19224497053E-01  0.10196118109E+00  0.51100000000E-03 0.  1.
         11    1    4    4    0    0 -0.31440065981E-01 -0.30742900449E-02 -0.23429596784E-02  0.31680902595E-01  0.51100000000E-03 0. -1.
</event>
<event>
 8    1  0.1095698E+005  0.1043930E+01  0.7957747E-01            NaN
         13   -1    0    0    0    0  0.00000000000E+00  0.00000000000E+00  0.74505805969E-08  0.10566000000E+00  0.10566000000E+00 0.  1.
     999900   -1    0    0    0    0 -0.00000000000E+00 -0.00000000000E+00 -0.74505805969E-08  0.93827000000E+00  0.93827000000E+00 0. -1.
     999902    2    1    2    0    0 -0.11390183404E-01  0.15007532299E-01 -0.15364013523E-01  0.10196191955E+01  0.10193293328E+01 0.  0.
     999903    2    3    3    0    0 -0.56590962055E-01 -0.11219187036E+00 -0.23125743480E-01  0.12929170358E+00  0.19798783862E-01 0.  0.
         14    1    1    2    0    0  0.11390183404E-01 -0.15007532299E-01  0.15364013523E-01  0.24310804496E-01  0.00000000000E+00 0.  1.
     999901    1    3    3    0    0  0.45200778652E-01  0.12719940266E+00  0.77617299567E-02  0.89032749193E+00  0.88000000000E+00 0.  1.
        -11    1    4    4    0    0 -0.17811376115E-01 -0.57027387558E-01 -0.12196640587E-01  0.60978579956E-01  0.51100000000E-03 0. -1.
         11    1    4    4    0    0 -0.38779585940E-01 -0.55164482798E-01 -0.10929102893E-01  0.68313123623E-01  0.51100000000E-03 0.  1.
</event>
<event>
 8    1  0.1248021E+005  0.1043930E+01  0.7957747E-01            NaN
         13   -1    0    0    0    0  0.00000000000E+00  0.00000000000E+00  0.74505805969E-08  0.10566000000E+00  0.10566000000E+00 0.  1.
     999900   -1    0    0    0    0 -0.00000000000E+00 -0.00000000000E+00 -0.74505805969E-08  0.93827000000E+00  0.93827000000E+00 0. -1.
     999902    2    1    2    0    0 -0.17909398572E-01 -0.16078322726E-01  0.17843036810E-02  0.10197961491E+01  0.10195105409E+01 0.  0.
     999903    2    3    3    0    0  0.15221302438E-01 -0.19677291417E-01 -0.12590696196E+00  0.12995590770E+00  0.20422806628E-01 0.  0.
         14    1    1    2    0    0  0.17909398572E-01  0.16078322726E-01 -0.17843036810E-02  0.24133850884E-01  0.00000000000E+00 0. -1.
     999901    1    3    3    0    0 -0.33130701010E-01  0.35989686914E-02  0.12769126564E+00  0.88984024142E+00  0.88000000000E+00 0.  1.
        -11    1    4    4    0    0  0.23086754105E-02 -0.18934244222E-01 -0.81272372241E-01  0.83482304694E-01  0.51100000000E-03 0. -1.
         11    1    4    4    0    0  0.12912627028E-01 -0.74304719539E-03 -0.44634589718E-01  0.46473603004E-01  0.51100000000E-03 0.  1.
</event>
<event>
 8    1  0.1095698E+005  0.1043930E+01  0.7957747E-01            NaN
         13   -1    0    0    0    0  0.00000000000E+00  0.00000000000E+00  0.74505805969E-08  0.10566000000E+00  0.10566000000E+00 0.  1.
     999900   -1    0    0    0    0 -0.00000000000E+00 -0.00000000000E+00 -0.74505805969E-08  0.93827000000E+00  0.93827000000E+00 0. -1.
     999902    2    1    2    0    0  0.87311624166E-02  0.18710506377E-01  0.29676513504E-01  0.10077773832E+01  0.10071287120E+01 0.  0.
     999903    2    3    3    0    0  0.10288149099E+00 -0.31247681769E-01 -0.44576526859E-01  0.11824176340E+00  0.20809350304E-01 0.  0.
         14    1    1    2    0    0 -0.87311624166E-02 -0.18710506377E-01 -0.29676513504E-01  0.36152616776E-01  0.00000000000E+00 0. -1.
     999901    1    3    3    0    0 -0.94150328576E-01  0.49958188146E-01  0.74253040363E-01  0.88953561982E+00  0.88000000000E+00 0.  1.
        -11    1    4    4    0    0  0.24163239821E-01 -0.16493885618E-01 -0.14844720641E-01  0.32810627445E-01  0.51100000000E-03 0.  1.
         11    1    4    4    0    0  0.78718251172E-01 -0.14753796151E-01 -0.29731806218E-01  0.85431135954E-01  0.51100000000E-03 0. -1.
</event>
<event>
 8    1  0.1095698E+005  0.1043930E+01  0.7957747E-01            NaN
         13   -1    0    0    0    0  0.00000000000E+00  0.00000000000E+00  0.74505805969E-08  0.10566000000E+00  0.10566000000E+00 0.  1.
     999900   -1    0    0    0    0 -0.00000000000E+00 -0.00000000000E+00 -0.74505805969E-08  0.93827000000E+00  0.93827000000E+00 0.  1.
     999902    2    1    2    0    0 -0.18814741034E-01 -0.55246577949E-02 -0.12759967581E-01  0.10205348489E+01  0.10202666537E+01 0.  0.
     999903    2    3    3    0    0  0.36119795289E-01 -0.52740009723E-01 -0.11351510923E+00  0.13182865934E+00  0.20173427139E-01 0.  0.
         14    1    1    2    0    0  0.18814741034E-01  0.55246577949E-02  0.12759967581E-01  0.23395151134E-01  0.00000000000E+00 0.  1.
     999901    1    3    3    0    0 -0.54934536323E-01  0.47215351928E-01  0.10075514165E+00  0.88870618953E+00  0.88000000000E+00 0. -1.
        -11    1    4    4    0    0  0.18822348376E-01 -0.42597572856E-01 -0.85670564959E-01  0.97511747154E-01  0.51100000000E-03 0.  1.
         11    1    4    4    0    0  0.17297446913E-01 -0.10142436867E-01 -0.27844544268E-01  0.34316912183E-01  0.51100000000E-03 0. -1.
</event>
<event>
 8    1  0.1095698E+005  0.1043930E+01  0.7957747E-01            NaN
         13   -1    0    0    0    0  0.00000000000E+00  0.00000000000E+00  0.74505805969E-08  0.10566000000E+00  0.10566000000E+00 0.  1.
     999900   -1    0    0    0    0 -0.00000000000E+00 -0.00000000000E+00 -0.74505805969E-08  0.93827000000E+00  0.93827000000E+00 0. -1.
     999902    2    1    2    0    0 -0.74499821672E-02 -0.15303573599E-01  0.17062776425E-01  0.10198293789E+01  0.10195445660E+01 0.  0.
     999903    2    3    3    0    0  0.16681586173E-01  0.12274870250E+00  0.28380419821E-01  0.12866786008E+00  0.20110959860E-01 0.  0.
         14    1    1    2    0    0  0.74499821672E-02  0.15303573599E-01 -0.17062776425E-01  0.24100621123E-01  0.00000000000E+00 0.  1.
     999901    1    3    3    0    0 -0.24131568340E-01 -0.13805227610E+00 -0.11317643396E-01  0.89116151879E+00  0.88000000000E+00 0. -1.
        -11    1    4    4    0    0 -0.46280078511E-02  0.19403988817E-01  0.54372221713E-02  0.20682305109E-01  0.51100000000E-03 0.  1.
         11    1    4    4    0    0  0.21309594024E-01  0.10334471368E+00  0.22943197650E-01  0.10798555497E+00  0.51100000000E-03 0. -1.
</event>
<event>
 8    1  0.1095698E+005  0.1043930E+01  0.7957747E-01            NaN
         13   -1    0    0    0    0  0.00000000000E+00  0.00000000000E+00  0.74505805969E-08  0.10566000000E+00  0.10566000000E+00 0. -1.
     999900   -1    0    0    0    0 -0.00000000000E+00 -0.00000000000E+00 -0.74505805969E-08  0.93827000000E+00  0.93827000000E+00 0. -1.
     999902    2    1    2    0    0 -0.14022901457E-01 -0.97865782488E-02  0.16053693215E-01  0.10204749378E+01  0.10202053512E+01 0.  0.
     999903    2    3    3    0    0 -0.10313066590E+00 -0.17876502424E-01  0.80573396446E-01  0.13358800434E+00  0.19954425588E-01 0.  0.
         14    1    1    2    0    0  0.14022901457E-01  0.97865782488E-02 -0.16053693215E-01  0.23455062246E-01  0.00000000000E+00 0.  1.
     999901    1    3    3    0    0  0.89107764443E-01  0.80899241754E-02 -0.64519703231E-01  0.88688693341E+00  0.88000000000E+00 0. -1.
        -11    1    4    4    0    0 -0.30344116593E-01 -0.12760073448E-01  0.32138905140E-01  0.46008208298E-01  0.51100000000E-03 0.  1.
         11    1    4    4    0    0 -0.72786549307E-01 -0.51164289762E-02  0.48434491306E-01  0.87579796041E-01  0.51100000000E-03 0. -1.
</event>
<event>
 8    1  0.1095698E+005  0.1043930E+01  0.7957747E-01            NaN
         13   -1    0    0    0    0  0.00000000000E+00  0.00000000000E+00  0.74505805969E-08  0.10566000000E+00  0.10566000000E+00 0.  1.
     999900   -1    0    0    0    0 -0.00000000000E+00 -0.00000000000E+00 -0.74505805969E-08  0.93827000000E+00  0.93827000000E+00 0. -1.
     999902    2    1    2    0    0 -0.19414013903E-01  0.11417768032E-01 -0.85233835576E-02  0.10198485252E+01  0.10195641701E+01 0.  0.
     999903    2    3    3    0    0  0.66547203127E-01 -0.10479035131E+00  0.20854902207E-01  0.12757236752E+00  0.20742083710E-01 0.  0.
         14    1    1    2    0    0  0.19414013903E-01 -0.11417768032E-01  0.85233835576E-02  0.24081474829E-01  0.00000000000E+00 0.  1.
     999901    1    3    3    0    0 -0.85961217029E-01  0.11620811935E+00 -0.29378285764E-01  0.89227615765E+00  0.88000000000E+00 0. -1.
        -11    1    4    4    0    0  0.20154722329E-01 -0.40503531926E-01 -0.12743674029E-02  0.45261838937E-01  0.51100000000E-03 0.  1.
         11    1    4    4    0    0  0.46392480797E-01 -0.64286819388E-01  0.22129269610E-01  0.82310528585E-01  0.51100000000E-03 0. -1.
</event>
<event>
 8    1  0.1095698E+005  0.1043930E+01  0.7957747E-01            NaN
         13   -1    0    0    0    0  0.00000000000E+00  0.00000000000E+00  0.74505805969E-08  0.10566000000E+00  0.10566000000E+00 0. -1.
     999900   -1    0    0    0    0 -0.00000000000E+00 -0.00000000000E+00 -0.74505805969E-08  0.93827000000E+00  0.93827000000E+00 0.  1.
     999902    2    1    2    0    0  0.39298519620E-02  0.22331947088E-01  0.98677690601E-02  0.10192008176E+01  0.10189007675E+01 0.  0.
     999903    2    3    3    0    0  0.38345731950E-01  0.89915420309E-01  0.87061215893E-01  0.13257191726E+00  0.20987614536E-01 0.  0.
         14    1    1    2    0    0 -0.39298519620E-02 -0.22331947088E-01 -0.98677690601E-02  0.24729182425E-01  0.00000000000E+00 0. -1.
     999901    1    3    3    0    0 -0.34415879988E-01 -0.67583473221E-01 -0.77193446833E-01  0.88662890032E+00  0.88000000000E+00 0.  1.
        -11    1    4    4    0    0  0.45133856415E-02  0.23914786782E-01  0.31964521243E-01  0.40178096223E-01  0.51100000000E-03 0. -1.
         11    1    4    4    0    0  0.33832346309E-01  0.66000633526E-01  0.55096694650E-01  0.92393821033E-01  0.51100000000E-03 0.  1.
</event>
<event>
 8    1  0.1095698E+005  0.1043930E+01  0.7957747E-01            NaN
         13   -1    0    0    0    0  0.00000000000E+00  0.00000000000E+00  0.74505805969E-08  0.10566000000E+00  0.10566000000E+00 0.  1.
     999900   -1    0    0    0    0 -0.00000000000E+00 -0.00000000000E+00 -0.74505805969E-08  0.93827000000E+00  0.93827000000E+00 0. -1.
     999902    2    1    2    0    0 -0.42795964898E-02 -0.18819135725E-01  0.12982590697E-01  0.10206701101E+01  0.10204050427E+01 0.  0.
     999903    2    3    3    0    0  0.39935457712E-02  0.10383840646E+00 -0.72110694283E-01  0.12805922924E+00  0.20021261209E-01 0.  0.
         14    1    1    2    0    0  0.42795964898E-02  0.18819135725E-01 -0.12982590697E-01  0.23259889869E-01  0.00000000000E+00 0. -1.
     999901    1    3    3    0    0 -0.82731422610E-02 -0.12265754218E+00  0.85093284980E-01  0.89261088089E+00  0.88000000000E+00 0.  1.
        -11    1    4    4    0    0  0.11166007831E-01  0.53518312237E-01 -0.42347734739E-01  0.69155485929E-01  0.51100000000E-03 0. -1.
         11    1    4    4    0    0 -0.71724620594E-02  0.50320094219E-01 -0.29762959544E-01  0.58903743311E-01  0.51100000000E-03 0.  1.
</event>
<event>
 8    1  0.1095698E+005  0.1043930E+01  0.7957747E-01            NaN
         13   -1    0    0    0    0  0.00000000000E+00  0.00000000000E+00  0.74505805969E-08  0.10566000000E+00  0.10566000000E+00 0. -1.
     999900   -1    0    0    0    0 -0.00000000000E+00 -0.00000000000E+00 -0.74505805969E-08  0.93827000000E+00  0.93827000000E+00 0.  1.
     999902    2    1    2    0    0  0.20951801524E-01  0.80765184214E-02 -0.78304474609E-02  0.10201492506E+01  0.10198720358E+01 0.  0.
     999903    2    3    3    0    0 -0.21440145759E-01 -0.36481389244E-01 -0.12196992489E+00  0.13064921984E+00  0.20049549995E-01 0.  0.
         14    1    1    2    0    0 -0.20951801524E-01 -0.80765184214E-02  0.78304474609E-02  0.23780749449E-01  0.00000000000E+00 0. -1.
     999901    1    3    3    0    0  0.42391947283E-01  0.44557907666E-01  0.11413947743E+00  0.88950003071E+00  0.88000000000E+00 0. -1.
        -11    1    4    4    0    0  0.51171203345E-03 -0.18124641505E-01 -0.43987400137E-01  0.47580636510E-01  0.51100000000E-03 0.  1.
         11    1    4    4    0    0 -0.21951857793E-01 -0.18356747739E-01 -0.77982524754E-01  0.83068583328E-01  0.51100000000E-03 0. -1.
</event>
<event>
 8    1  0.1095698E+005  0.1043930E+01  0.7957747E-01            NaN
         13   -1    0    0    0    0  0.00000000000E+00  0.00000000000E+00  0.74505805969E-08  0.10566000000E+00  0.10566000000E+00 0. -1.
     999900   -1    0    0    0    0 -0.00000000000E+00 -0.00000000000E+00 -0.74505805969E-08  0.93827000000E+00  0.93827000000E+00 0. -1.
     999902    2    1    2    0    0  0.10431092393E-01  0.19865506055E-01  0.53188532965E-02  0.10208705937E+01  0.10206101277E+01 0.  0.
     999903    2    3    3    0    0  0.38091998569E-01 -0.11299857170E+00 -0.44988751827E-01  0.12904726812E+00  0.20236898405E-01 0.  0.
         14    1    1    2    0    0 -0.10431092393E-01 -0.19865506055E-01 -0.53188532965E-02  0.23059406318E-01  0.00000000000E+00 0.  1.
     999901    1    3    3    0    0 -0.27660906175E-01  0.13286407775E+00  0.50307605124E-01  0.89182332556E+00  0.88000000000E+00 0.  1.
        -11    1    4    4    0    0  0.28428514771E-01 -0.76612982692E-01 -0.40269356185E-01  0.91102204900E-01  0.51100000000E-03 0. -1.
         11    1    4    4    0    0  0.96634837981E-02 -0.36385589005E-01 -0.47193956421E-02  0.37945063218E-01  0.51100000000E-03 0.  1.
</event>
<event>
 8    1  0.1095698E+005  0.1043930E+01  0.7957747E-01            NaN
         13   -1    0    0    0    0  0.00000000000E+00  0.00000000000E+00  0.74505805969E-08  0.10566000000E+00  0.10566000000E+00 0. -1.
     999900   -1    0    0    0    0 -0.00000000000E+00 -0.00000000000E+00 -0.74505805969E-08  0.93827000000E+00  0.93827000000E+00 0. -1.
     999902    2    1    2    0    0  0.52026526960E-03 -0.21777909106E-01 -0.10257122889E-01  0.10198518653E+01  0.10195675900E+01 0.  0.
     999903    2    3    3    0    0 -0.44948795459E-01 -0.12402682021E+00 -0.10062514261E-01  0.13276544719E+00  0.11061800487E-01 0.  0.
         14    1    1    2    0    0 -0.52026526960E-03  0.21777909106E-01  0.10257122889E-01  0.24078134706E-01  0.00000000000E+00 0. -1.
     999901    1    3    3    0    0  0.45469060728E-01  0.10224891111E+00 -0.19460862838E-03  0.88708641810E+00  0.88000000000E+00 0.  1.
        -11    1    4    4    0    0 -0.30657968335E-01 -0.73393932762E-01 -0.22345724833E-02  0.79572827170E-01  0.51100000000E-03 0. -1.
         11    1    4    4    0    0 -0.14290827124E-01 -0.50632887450E-01 -0.78279417775E-02  0.53192620023E-01  0.51100000000E-03 0.  1.
</event>
<event>
 8    1  0.1095698E+005  0.1043930E+01  0.7957747E-01            NaN
         13   -1    0    0    0    0  0.00000000000E+00  0.00000000000E+00  0.74505805969E-08  0.10566000000E+00  0.10566000000E+00 0. -1.
     999900   -1    0    0    0    0 -0.00000000000E+00 -0.00000000000E+00 -0.74505805969E-08  0.93827000000E+00  0.93827000000E+00 0.  1.
     999902    2    1    2    0    0  0.14542483125E-01 -0.13066214603E-01 -0.13488094602E-01  0.10201784006E+01  0.10199018730E+01 0.  0.
     999903    2    3    3    0    0 -0.11040259099E+00  0.56204597588E-01 -0.27745447710E-01  0.12854339168E+00  0.20147078894E-01 0.  0.
         14    1    1    2    0    0 -0.14542483125E-01  0.13066214603E-01  0.13488094602E-01  0.23751599430E-01  0.00000000000E+00 0. -1.
     999901    1    3    3    0    0  0.12494507411E+00 -0.69270812191E-01  0.14257353108E-01  0.89163500889E+00  0.88000000000E+00 0. -1.
        -11    1    4    4    0    0 -0.75882779276E-01  0.31601414510E-01 -0.10880442784E-01  0.82918579015E-01  0.51100000000E-03 0.  1.
         11    1    4    4    0    0 -0.34519811713E-01  0.24603183078E-01 -0.16865004926E-01  0.45624812662E-01  0.51100000000E-03 0. -1.
</event>
<event>
 8    1  0.1095698E+005  0.1043930E+01  0.7957747E-01            NaN
         13   -1    0    0    0    0  0.00000000000E+00  0.00000000000E+00  0.74505805969E-08  0.10566000000E+00  0.10566000000E+00 0. -1.
     999900   -1    0    0    0    0 -0.00000000000E+00 -0.00000000000E+00 -0.74505805969E-08  0.93827000000E+00  0.93827000000E+00 0. -1.
     999902    2    1    2    0    0 -0.14317766250E-01 -0.14180809054E-01  0.12744399471E-01  0.10200864790E+01  0.10198077815E+01 0.  0.
     999903    2    3    3    0    0 -0.47196944044E-01 -0.10693863864E+00 -0.58058801268E-01  0.13177451324E+00  0.18173441416E-01 0.  0.
         14    1    1    2    0    0  0.14317766250E-01  0.14180809054E-01 -0.12744399471E-01  0.23843521000E-01  0.00000000000E+00 0.  1.
     999901    1    3    3    0    0  0.32879177794E-01  0.92757829586E-01  0.70803200740E-01  0.88831196576E+00  0.88000000000E+00 0.  1.
        -11    1    4    4    0    0 -0.99711984040E-02 -0.44325669356E-01 -0.23278952862E-01  0.51052527155E-01  0.51100000000E-03 0. -1.
         11    1    4    4    0    0 -0.37225745640E-01 -0.62612969284E-01 -0.34779848406E-01  0.80721986082E-01  0.51100000000E-03 0.  1.
</event>
<event>
 8    1  0.1095698E+005  0.1043930E+01  0.7957747E-01            NaN
         13   -1    0    0    0    0  0.00000000000E+00  0.00000000000E+00  0.74505805969E-08  0.10566000000E+00  0.10566000000E+00 0.  1.
     999900   -1    0    0    0    0 -0.00000000000E+00 -0.00000000000E+00 -0.74505805969E-08  0.93827000000E+00  0.93827000000E+00 0.  1.
     999902    2    1    2    0    0 -0.16556623794E-02 -0.23922403796E-01 -0.60327969255E-03  0.10199427832E+01  0.10196606762E+01 0.  0.
     999903    2    3    3    0    0 -0.68092805117E-01  0.10576284917E+00 -0.10891142022E-01  0.12790130501E+00  0.20438113336E-01 0.  0.
         14    1    1    2    0    0  0.16556623794E-02  0.23922403796E-01  0.60327969255E-03  0.23987216755E-01  0.00000000000E+00 0. -1.
     999901    1    3    3    0    0  0.66437142737E-01 -0.12968525297E+00  0.10287862329E-01  0.89204147823E+00  0.88000000000E+00 0. -1.
        -11    1    4    4    0    0 -0.57719988741E-01  0.73024381398E-01 -0.85777844902E-02  0.93477253311E-01  0.51100000000E-03 0.  1.
         11    1    4    4    0    0 -0.10372816375E-01  0.32738467772E-01 -0.23133575318E-02  0.34424051703E-01  0.51100000000E-03 0. -1.
</event>
<event>
 8    1  0.1095698E+005  0.1043930E+01  0.7957747E-01            NaN
         13   -1    0    0    0    0  0.00000000000E+00  0.00000000000E+00  0.74505805969E-08  0.10566000000E+00  0.10566000000E+00 0.  1.
     999900   -1    0    0    0    0 -0.00000000000E+00 -0.00000000000E+00 -0.74505805969E-08  0.93827000000E+00  0.93827000000E+00 0. -1.
     999902    2    1    2    0    0  0.99933531739E-02  0.48719129494E-02  0.20708988878E-01  0.10204254289E+01  0.10201546898E+01 0.  0.
     999903    2    3    3    0    0  0.12468057717E+00 -0.37528822963E-01  0.20546709093E-02  0.13177534851E+00  0.20170818678E-01 0.  0.
         14    1    1    2    0    0 -0.99933531739E-02 -0.48719129494E-02 -0.20708988878E-01  0.23504571125E-01  0.00000000000E+00 0. -1.
     999901    1    3    3    0    0 -0.11468722400E+00  0.42400735913E-01  0.18654317968E-01  0.88865008036E+00  0.88000000000E+00 0.  1.
        -11    1    4    4    0    0  0.40202509657E-01 -0.42645151219E-02  0.61189873210E-02  0.40891698409E-01  0.51100000000E-03 0.  1.
         11    1    4    4    0    0  0.84478067512E-01 -0.33264307841E-01 -0.40643164117E-02  0.90883650100E-01  0.51100000000E-03 0. -1.
</event>
<event>
 8    1  0.1095698E+005  0.1043930E+01  0.7957747E-01            NaN
         13   -1    0    0    0    0  0.00000000000E+00  0.00000000000E+00  0.74505805969E-08  0.10566000000E+00  0.10566000000E+00 0. -1.
     999900   -1    0    0    0    0 -0.00000000000E+00 -0.00000000000E+00 -0.74505805969E-08  0.93827000000E+00  0.93827000000E+00 0.  1.
     999902    2    1    2    0    0 -0.16194457658E-01  0.12574679792E-01 -0.12157941687E-01  0.10200930837E+01  0.10198145424E+01 0.  0.
     999903    2    3    3    0    0  0.12294935656E+00  0.19873391946E-01  0.24897870630E-01  0.12836027316E+00  0.18573092898E-01 0.  0.
         14    1    1    2    0    0  0.16194457658E-01 -0.12574679792E-01  0.12157941687E-01  0.23836916259E-01  0.00000000000E+00 0. -1.
     999901    1    3    3    0    0 -0.13914381421E+00 -0.72987121542E-02 -0.37055812316E-01  0.89173281058E+00  0.88000000000E+00 0. -1.
        -11    1    4    4    0    0  0.89337279265E-01  0.15093556325E-01  0.95765742242E-02  0.91109477025E-01  0.51100000000E-03 0.  1.
         11    1    4    4    0    0  0.33612077291E-01  0.47798356216E-02  0.15321296405E-01  0.37250796139E-01  0.51100000000E-03 0. -1.
</event>
<event>
 8    1  0.1095698E+005  0.1043930E+01  0.7957747E-01            NaN
         13   -1    0    0    0    0  0.00000000000E+00  0.00000000000E+00  0.74505805969E-08  0.10566000000E+00  0.10566000000E+00 0. -1.
     999900   -1    0    0    0    0 -0.00000000000E+00 -0.00000000000E+00 -0.74505805969E-08  0.93827000000E+00  0.93827000000E+00 0.  1.
     999902    2    1    2    0    0  0.67986554019E-02 -0.24615720539E-02 -0.20765929673E-01  0.10219412554E+01  0.10217046661E+01 0.  0.
     999903    2    3    3    0    0 -0.25103702686E-01 -0.98068363898E-01 -0.85398489339E-01  0.13383327390E+00  0.19257293054E-01 0.  0.
         14    1    1    2    0    0 -0.67986554019E-02  0.24615720539E-02  0.20765929673E-01  0.21988744562E-01  0.00000000000E+00 0. -1.
     999901    1    3    3    0    0  0.31902358088E-01  0.95606791844E-01  0.64632559667E-01  0.88810798154E+00  0.88000000000E+00 0. -1.
        -11    1    4    4    0    0  0.31912175337E-02 -0.11545027024E-01 -0.10863238628E-01  0.16178460768E-01  0.51100000000E-03 0. -1.
         11    1    4    4    0    0 -0.28294920219E-01 -0.86523336875E-01 -0.74535250711E-01  0.11765481313E+00  0.51100000000E-03 0.  1.
</event>
<event>
 8    1  0.1095698E+005  0.1043930E+01  0.7957747E-01            NaN
         13   -1    0    0    0    0  0.00000000000E+00  0.00000000000E+00  0.74505805969E-08  0.10566000000E+00  0.10566000000E+00 0. -1.
     999900   -1    0    0    0    0 -0.00000000000E+00 -0.00000000000E+00 -0.74505805969E-08  0.93827000000E+00  0.93827000000E+00 0.  1.
     999902    2    1    2    0    0 -0.53467657902E-02 -0.11453435526E-02  0.23304100909E-01  0.10199929819E+01  0.10197120683E+01 0.  0.
     999903    2    3    3    0    0 -0.39914498587E-01  0.34444386587E-01  0.12073912484E+00  0.13322630406E+00  0.19792141389E-01 0.  0.
         14    1    1    2    0    0  0.53467657902E-02  0.11453435526E-02 -0.23304100909E-01  0.23937018099E-01  0.00000000000E+00 0.  1.
     999901    1    3    3    0    0  0.34567732796E-01 -0.35589730140E-01 -0.97435023933E-01  0.88676667784E+00  0.88000000000E+00 0.  1.
        -11    1    4    4    0    0 -0.24910812141E-01  0.21643514104E-01  0.50977171435E-01  0.60728275068E-01  0.51100000000E-03 0. -1.
         11    1    4    4    0    0 -0.15003686446E-01  0.12800872483E-01  0.69761953408E-01  0.72498028991E-01  0.51100000000E-03 0.  1.
</event>
<event>
 8    1  0.1095698E+005  0.1043930E+01  0.7957747E-01            NaN
         13   -1    0    0    0    0  0.00000000000E+00  0.00000000000E+00  0.74505805969E-08  0.10566000000E+00  0.10566000000E+00 0.  1.
     999900   -1    0    0    0    0 -0.00000000000E+00 -0.00000000000E+00 -0.74505805969E-08  0.93827000000E+00  0.93827000000E+00 0. -1.
     999902    2    1    2    0    0 -0.10284066578E-01  0.16391702818E-01  0.13316653711E-01  0.10204399337E+01  0.10201695326E+01 0.  0.
     999903    2    3    3    0    0 -0.78492758105E-01 -0.88547447178E-01  0.52099674564E-01  0.13073842565E+00  0.19400937464E-01 0.  0.
         14    1    1    2    0    0  0.10284066578E-01 -0.16391702818E-01 -0.13316653711E-01  0.23490066257E-01  0.00000000000E+00 0. -1.
     999901    1    3    3    0    0  0.68208691527E-01  0.10493915000E+00 -0.38783020852E-01  0.88970150810E+00  0.88000000000E+00 0. -1.
        -11    1    4    4    0    0 -0.67618320874E-01 -0.66585297227E-01  0.36468500633E-01  0.10166637489E+00  0.51100000000E-03 0. -1.
         11    1    4    4    0    0 -0.10874437231E-01 -0.21962149951E-01  0.15631173931E-01  0.29072050754E-01  0.51100000000E-03 0.  1.
</event>
<event>
 8    1  0.1095698E+005  0.1043930E+01  0.7957747E-01            NaN
         13   -1    0    0    0    0  0.00000000000E+00  0.00000000000E+00  0.74505805969E-08  0.10566000000E+00  0.10566000000E+00 0. -1.
     999900   -1    0    0    0    0 -0.00000000000E+00 -0.00000000000E+00 -0.74505805969E-08  0.93827000000E+00  0.93827000000E+00 0. -1.
     999902    2    1    2    0    0 -0.21333558374E-01 -0.10742732810E-01 -0.25004100630E-02  0.10199137748E+01  0.10196309769E+01 0.  0.
     999903    2    3    3    0    0 -0.58980870897E-01  0.83615974759E-01  0.78170427798E-01  0.13040342080E+00  0.20592765918E-01 0.  0.
         14    1    1    2    0    0  0.21333558374E-01  0.10742732810E-01  0.25004100630E-02  0.24016225174E-01  0.00000000000E+00 0.  1.
     999901    1    3    3    0    0  0.37647312524E-01 -0.94358707569E-01 -0.80670837861E-01  0.88951035402E+00  0.88000000000E+00 0. -1.
        -11    1    4    4    0    0 -0.47389462626E-01  0.52462042198E-01  0.58592874365E-01  0.91822726419E-01  0.51100000000E-03 0.  1.
         11    1    4    4    0    0 -0.11591408271E-01  0.31153932561E-01  0.19577553433E-01  0.38580694384E-01  0.51100000000E-03 0. -1.
</event>
<event>
 8    1  0.1095698E+005  0.1043930E+01  0.7957747E-01            NaN
         13   -1    0    0    0    0  0.00000000000E+00  0.00000000000E+00  0.74505805969E-08  0.10566000000E+00  0.10566000000E+00 0. -1.
     999900   -1    0    0    0    0 -0.00000000000E+00 -0.00000000000E+00 -0.74505805969E-08  0.93827000000E+00  0.93827000000E+00 0. -1.
     999902    2    1    2    0    0  0.12832952437E-01  0.77444731665E-02 -0.19624857039E-01  0.10192359411E+01  0.10189367532E+01 0.  0.
     999903    2    3    3    0    0  0.12902710862E+00 -0.11578132609E-02 -0.15715119442E-01  0.13154476803E+00  0.20192219457E-01 0.  0.
         14    1    1    2    0    0 -0.12832952437E-01 -0.77444731665E-02  0.19624857039E-01  0.24694058935E-01  0.00000000000E+00 0. -1.
     999901    1    3    3    0    0 -0.11619415618E+00  0.89022864274E-02 -0.39097375974E-02  0.88769117303E+00  0.88000000000E+00 0. -1.
        -11    1    4    4    0    0  0.10450228569E+00  0.10435546265E-02 -0.48368904442E-02  0.10462061628E+00  0.51100000000E-03 0. -1.
         11    1    4    4    0    0  0.24524822932E-01 -0.22013678875E-02 -0.10878228998E-01  0.26924151752E-01  0.51100000000E-03 0.  1.
</event>
<event>
 8    1  0.1095698E+005  0.1043930E+01  0.7957747E-01            NaN
         13   -1    0    0    0    0  0.00000000000E+00  0.00000000000E+00  0.74505805969E-08  0.10566000000E+00  0.10566000000E+00 0. -1.
     999900   -1    0    0    0    0 -0.00000000000E+00 -0.00000000000E+00 -0.74505805969E-08  0.93827000000E+00  0.93827000000E+00 0. -1.
     999902    2    1    2    0    0 -0.93513635200E-03 -0.18931496071E-01  0.13091958472E-01  0.10208936071E+01  0.10206336667E+01 0.  0.
     999903    2    3    3    0    0  0.72628414214E-01  0.10387630316E+00  0.18903579350E-01  0.12930674843E+00  0.17254476759E-01 0.  0.
         14    1    1    2    0    0  0.93513635200E-03  0.18931496071E-01 -0.13091958472E-01  0.23036392949E-01  0.00000000000E+00 0.  1.
     999901    1    3    3    0    0 -0.73563550566E-01 -0.12280779923E+00 -0.58116208786E-02  0.89158685862E+00  0.88000000000E+00 0. -1.
        -11    1    4    4    0    0  0.28813518722E-01  0.34128479242E-01 -0.54834810697E-03  0.44671397595E-01  0.51100000000E-03 0.  1.
         11    1    4    4    0    0  0.43814895492E-01  0.69747823919E-01  0.19451927457E-01  0.84635350837E-01  0.51100000000E-03 0. -1.
</event>
<event>
 8    1  0.1095698E+005  0.1043930E+01  0.7957747E-01            NaN
         13   -1    0    0    0    0  0.00000000000E+00  0.00000000000E+00  0.74505805969E-08  0.10566000000E+00  0.10566000000E+00 0.  1.
     999900   -1    0    0    0    0 -0.00000000000E+00 -0.00000000000E+00 -0.74505805969E-08  0.93827000000E+00  0.93827000000E+00 0.  1.
     999902    2    1    2    0    0  0.92079167113E-03 -0.19564216904E-01  0.11723800365E-01  0.10211033941E+01  0.10208482197E+01 0.  0.
     999903    2    3    3    0    0 -0.84034740464E-01  0.71934970520E-01 -0.64169087880E-01  0.12905559596E+00  0.17355040211E-01 0.  0.
         14    1    1    2    0    0 -0.92079167113E-03  0.19564216904E-01 -0.11723800365E-01  0.22826605866E-01  0.00000000000E+00 0. -1.
     999901    1    3    3    0    0  0.84955532135E-01 -0.91499187424E-01  0.75892888245E-01  0.89204779817E+00  0.88000000000E+00 0. -1.
        -11    1    4    4    0    0 -0.36074194532E-01  0.32744317362E-01 -0.18563001700E-01  0.52138124091E-01  0.51100000000E-03 0.  1.
         11    1    4    4    0    0 -0.47960545933E-01  0.39190653158E-01 -0.45606086181E-01  0.76917471870E-01  0.51100000000E-03 0. -1.
</event>
<event>
 8    1  0.1095698E+005  0.1043930E+01  0.7957747E-01            NaN
         13   -1    0    0    0    0  0.00000000000E+00  0.00000000000E+00  0.74505805969E-08  0.10566000000E+00  0.10566000000E+00 0.  1.
     999900   -1    0    0    0    0 -0.00000000000E+00 -0.00000000000E+00 -0.74505805969E-08  0.93827000000E+00  0.93827000000E+00 0. -1.
     999902    2    1    2    0    0 -0.13813885138E-01 -0.11818605910E-01  0.12193370593E-01  0.10220397932E+01  0.10218053424E+01 0.  0.
     999903    2    3    3    0    0  0.49639411179E-01 -0.12162686780E+00 -0.58961565874E-02  0.13276401695E+00  0.18285333469E-01 0.  0.
         14    1    1    2    0    0  0.13813885138E-01  0.11818605910E-01 -0.12193370593E-01  0.21890206822E-01  0.00000000000E+00 0. -1.
     999901    1    3    3    0    0 -0.63453296318E-01  0.10980826189E+00  0.18089527180E-01  0.88927577623E+00  0.88000000000E+00 0. -1.
        -11    1    4    4    0    0  0.25129814991E-01 -0.83739446205E-01 -0.60142813577E-02  0.87636950845E-01  0.51100000000E-03 0.  1.
         11    1    4    4    0    0  0.24509596188E-01 -0.37887421599E-01  0.11812477034E-03  0.45127066104E-01  0.51100000000E-03 0. -1.
</event>
<event>
 8    1  0.1095698E+005  0.1043930E+01  0.7957747E-01            NaN
         13   -1    0    0    0    0  0.00000000000E+00  0.00000000000E+00  0.74505805969E-08  0.10566000000E+00  0.10566000000E+00 0. -1.
     999900   -1    0    0    0    0 -0.00000000000E+00 -0.00000000000E+00 -0.74505805969E-08  0.93827000000E+00  0.93827000000E+00 0.  1.
     999902    2    1    2    0    0  0.11927290122E-02 -0.21048803337E-02 -0.23532502034E-01  0.10202734623E+01  0.10199991697E+01 0.  0.
     999903    2    3    3    0    0  0.99537889068E-01 -0.60160541935E-01 -0.59297609975E-01  0.13217359557E+00  0.20653586879E-01 0.  0.
         14    1    1    2    0    0 -0.11927290122E-02  0.21048803337E-02  0.23532502034E-01  0.23656537695E-01  0.00000000000E+00 0. -1.
     999901    1    3    3    0    0 -0.98345160056E-01  0.58055661601E-01  0.35765107941E-01  0.88809986674E+00  0.88000000000E+00 0. -1.
        -11    1    4    4    0    0  0.80664605860E-01 -0.48183458659E-01 -0.38190379022E-01  0.10142578813E+00  0.51100000000E-03 0.  1.
         11    1    4    4    0    0  0.18873283208E-01 -0.11977083276E-01 -0.21107230953E-01  0.30747807439E-01  0.51100000000E-03 0. -1.
</event>
<event>
 8    1  0.1095698E+005  0.1043930E+01  0.7957747E-01            NaN
         13   -1    0    0    0    0  0.00000000000E+00  0.00000000000E+00  0.74505805969E-08  0.10566000000E+00  0.10566000000E+00 0.  1.
     999900   -1    0    0    0    0 -0.00000000000E+00 -0.00000000000E+00 -0.74505805969E-08  0.93827000000E+00  0.93827000000E+00 0.  1.
     999902    2    1    2    0    0  0.17136706494E-01  0.14115346074E-02 -0.16592815378E-01  0.10200347984E+01  0.10197548770E+01 0.  0.
     999903    2    3    3    0    0  0.11584766309E+00  0.32919075915E-01 -0.53306915590E-01  0.13319518306E+00  0.19874177637E-01 0.  0.
         14    1    1    2    0    0 -0.17136706494E-01 -0.14115346074E-02  0.16592815378E-01  0.23895201644E-01  0.00000000000E+00 0. -1.
     999901    1    3    3    0    0 -0.98710956597E-01 -0.31507541308E-01  0.36714100212E-01  0.88683961530E+00  0.88000000000E+00 0. -1.
        -11    1    4    4    0    0  0.61140207825E-01  0.23934669929E-01 -0.20560056604E-01  0.68803855169E-01  0.51100000000E-03 0.  1.
         11    1    4    4    0    0  0.54707455266E-01  0.89844059866E-02 -0.32746858987E-01  0.64391327887E-01  0.51100000000E-03 0. -1.
</event>
<event>
 8    1  0.1439023E+005  0.1043930E+01  0.7957747E-01            NaN
         13   -1    0    0    0    0  0.00000000000E+00  0.00000000000E+00  0.74505805969E-08  0.10566000000E+00  0.10566000000E+00 0.  1.
     999900   -1    0    0    0    0 -0.00000000000E+00 -0.00000000000E+00 -0.74505805969E-08  0.93827000000E+00  0.93827000000E+00 0.  1.
     999902    2    1    2    0    0  0.11689883030E-01 -0.21239495768E-01 -0.17003986984E-02  0.10196264838E+01  0.10193367969E+01 0.  0.
     999903    2    3    3    0    0  0.21155016600E-01 -0.76013156588E-01 -0.10388663396E+00  0.13197127517E+00  0.19961213689E-01 0.  0.
         14    1    1    2    0    0 -0.11689883030E-01  0.21239495768E-01  0.17003986984E-02  0.24303516237E-01  0.00000000000E+00 0. -1.
     999901    1    3    3    0    0 -0.94651335705E-02  0.54773660819E-01  0.10218623526E+00  0.88765520860E+00  0.88000000000E+00 0. -1.
        -11    1    4    4    0    0  0.12799598586E-01 -0.19730347043E-01 -0.40118147220E-01  0.46506377797E-01  0.51100000000E-03 0.  1.
         11    1    4    4    0    0  0.83554180142E-02 -0.56282809544E-01 -0.63768486738E-01  0.85464897369E-01  0.51100000000E-03 0. -1.
</event>
<event>
 8    1  0.1095698E+005  0.1043930E+01  0.7957747E-01            NaN
         13   -1    0    0    0    0  0.00000000000E+00  0.00000000000E+00  0.74505805969E-08  0.10566000000E+00  0.10566000000E+00 0.  1.
     999900   -1    0    0    0    0 -0.00000000000E+00 -0.00000000000E+00 -0.74505805969E-08  0.93827000000E+00  0.93827000000E+00 0. -1.
     999902    2    1    2    0    0  0.96703606859E-02 -0.23412385285E-01  0.24760008361E-03  0.10185978669E+01  0.10182828180E+01 0.  0.
     999903    2    3    3    0    0 -0.12204923871E+00  0.28603786322E-01 -0.86959981754E-02  0.12723053359E+00  0.19944799630E-01 0.  0.
         14    1    1    2    0    0 -0.96703606859E-02  0.23412385285E-01 -0.24760008361E-03  0.25332133079E-01  0.00000000000E+00 0. -1.
     999901    1    3    3    0    0  0.13171959940E+00 -0.52016171607E-01  0.89435982591E-02  0.89136733333E+00  0.88000000000E+00 0.  1.
        -11    1    4    4    0    0 -0.15133506200E-01 -0.16041492346E-03 -0.65294489245E-02  0.16490711541E-01  0.51100000000E-03 0.  1.
         11    1    4    4    0    0 -0.10691573251E+00  0.28764201245E-01 -0.21665492510E-02  0.11073982205E+00  0.51100000000E-03 0. -1.
</event>
<event>
 8    1  0.1095698E+005  0.1043930E+01  0.7957747E-01            NaN
         13   -1    0    0    0    0  0.00000000000E+00  0.00000000000E+00  0.74505805969E-08  0.10566000000E+00  0.10566000000E+00 0.  1.
     999900   -1    0    0    0    0 -0.00000000000E+00 -0.00000000000E+00 -0.74505805969E-08  0.93827000000E+00  0.93827000000E+00 0.  1.
     999902    2    1    2    0    0  0.17380811043E-01  0.16385325976E-01 -0.28541912648E-02  0.10198734436E+01  0.10195896836E+01 0.  0.
     999903    2    3    3    0    0  0.12557218943E+00 -0.33218606367E-01  0.82994119167E-03  0.13185345657E+00  0.22644969446E-01 0.  0.
         14    1    1    2    0    0 -0.17380811043E-01 -0.16385325976E-01  0.28541912648E-02  0.24056556437E-01  0.00000000000E+00 0. -1.
     999901    1    3    3    0    0 -0.10819137839E+00  0.49603932343E-01 -0.36841324565E-02  0.88801998699E+00  0.88000000000E+00 0. -1.
        -11    1    4    4    0    0  0.63793328229E-01 -0.22354382448E-01  0.10415768776E-01  0.68396319356E-01  0.51100000000E-03 0.  1.
         11    1    4    4    0    0  0.61778861199E-01 -0.10864223919E-01 -0.95858275846E-02  0.63457137218E-01  0.51100000000E-03 0. -1.
</event>
<event>
 8    1  0.1095698E+005  0.1043930E+01  0.7957747E-01            NaN
         13   -1    0    0    0    0  0.00000000000E+00  0.00000000000E+00  0.74505805969E-08  0.10566000000E+00  0.10566000000E+00 0. -1.
     999900   -1    0    0    0    0 -0.00000000000E+00 -0.00000000000E+00 -0.74505805969E-08  0.93827000000E+00  0.93827000000E+00 0.  1.
     999902    2    1    2    0    0 -0.18008735534E-01 -0.11102363556E-01  0.82769969649E-02  0.10212124801E+01  0.10209597660E+01 0.  0.
     999903    2    3    3    0    0 -0.58824695752E-01 -0.63157839544E-01 -0.98253667226E-01  0.13232300575E+00  0.20157807418E-01 0.  0.
         14    1    1    2    0    0  0.18008735534E-01  0.11102363556E-01 -0.82769969649E-02  0.22717519910E-01  0.00000000000E+00 0.  1.
     999901    1    3    3    0    0  0.40815960218E-01  0.52055475987E-01  0.10653066419E+00  0.88888947435E+00  0.88000000000E+00 0. -1.
        -11    1    4    4    0    0 -0.39501887873E-01 -0.27802043634E-01 -0.55268896668E-01  0.73404801176E-01  0.51100000000E-03 0. -1.
         11    1    4    4    0    0 -0.19322807879E-01 -0.35355795910E-01 -0.42984770558E-01  0.58918204569E-01  0.51100000000E-03 0.  1.
</event>
<event>
 8    1  0.1095698E+005  0.1043930E+01  0.7957747E-01            NaN
         13   -1    0    0    0    0  0.00000000000E+00  0.00000000000E+00  0.74505805969E-08  0.10566000000E+00  0.10566000000E+00 0. -1.
     999900   -1    0    0    0    0 -0.00000000000E+00 -0.00000000000E+00 -0.74505805969E-08  0.93827000000E+00  0.93827000000E+00 0. -1.
     999902    2    1    2    0    0  0.14158805572E-02 -0.26414692880E-02  0.17593471143E-01  0.10260830870E+01  0.10259278674E+01 0.  0.
     999903    2    3    3    0    0 -0.12350616996E+00 -0.39727246568E-01 -0.31504297848E-01  0.13513333278E+00  0.20891833481E-01 0.  0.
         14    1    1    2    0    0 -0.14158805572E-02  0.26414692880E-02 -0.17593471143E-01  0.17846913028E-01  0.00000000000E+00 0.  1.
     999901    1    3    3    0    0  0.12492205052E+00  0.37085777280E-01  0.49097768991E-01  0.89094975420E+00  0.88000000000E+00 0.  1.
        -11    1    4    4    0    0 -0.10529922275E+00 -0.34772033664E-01 -0.34242582433E-01  0.11605962351E+00  0.51100000000E-03 0. -1.
         11    1    4    4    0    0 -0.18206947212E-01 -0.49552129036E-02  0.27382845860E-02  0.19073709267E-01  0.51100000000E-03 0.  1.
</event>
<event>
 8    1  0.1095698E+005  0.1043930E+01  0.7957747E-01            NaN
         13   -1    0    0    0    0  0.00000000000E+00  0.00000000000E+00  0.74505805969E-08  0.10566000000E+00  0.10566000000E+00 0.  1.
     999900   -1    0    0    0    0 -0.00000000000E+00 -0.00000000000E+00 -0.74505805969E-08  0.93827000000E+00  0.93827000000E+00 0.  1.
     999902    2    1    2    0    0  0.81891479975E-02  0.23994882846E-02  0.21087969073E-01  0.10211808873E+01  0.10209274619E+01 0.  0.
     999903    2    3    3    0    0  0.64805316887E-01  0.11034051117E+00 -0.24700886169E-01  0.13160049506E+00  0.18270167503E-01 0.  0.
         14    1    1    2    0    0 -0.81891479975E-02 -0.23994882846E-02 -0.21087969073E-01  0.22749112699E-01  0.00000000000E+00 0. -1.
     999901    1    3    3    0    0 -0.56616168890E-01 -0.10794102288E+00  0.45788855242E-01  0.88958039224E+00  0.88000000000E+00 0.  1.
        -11    1    4    4    0    0  0.37076685715E-01  0.47442250854E-01 -0.16057799291E-01  0.62318230308E-01  0.51100000000E-03 0.  1.
         11    1    4    4    0    0  0.27728631172E-01  0.62898260312E-01 -0.86430868777E-02  0.69282264749E-01  0.51100000000E-03 0. -1.
</event>
<event>
 7    1  0.1690724E+005  0.1043930E+01  0.7957747E-01            NaN
         13   -1    0    0    0    0  0.00000000000E+00  0.00000000000E+00  0.74505805969E-08  0.10566000000E+00  0.10566000000E+00 0.  1.
     999900   -1    0    0    0    0 -0.00000000000E+00 -0.00000000000E+00 -0.74505805969E-08  0.93827000000E+00  0.93827000000E+00 0.  1.
     999903    2    1    2    0    0 -0.82302324881E-01  0.39102300026E-01  0.54576333558E-01  0.10811840369E+00  0.20207683761E-01 0.  0.
         14    1    1    2    0    0  0.73816609509E-02  0.41730255766E-01  0.17850741367E-01  0.45984259612E-01  0.00000000000E+00 0.  1.
     999901    1    1    2    0    0  0.74920663930E-01 -0.80832555791E-01 -0.72427074925E-01  0.88982733670E+00  0.88000000000E+00 0. -1.
        -11    1    3    3    0    0 -0.43859657977E-01  0.15752049831E-01  0.38159992933E-01  0.60234897305E-01  0.51100000000E-03 0.  1.
         11    1    3    3    0    0 -0.38442666905E-01  0.23350250195E-01  0.16416340625E-01  0.47883506382E-01  0.51100000000E-03 0. -1.
</event>
<event>
 8    1  0.1095698E+005  0.1043930E+01  0.7957747E-01            NaN
         13   -1    0    0    0    0  0.00000000000E+00  0.00000000000E+00  0.74505805969E-08  0.10566000000E+00  0.10566000000E+00 0.  1.
     999900   -1    0    0    0    0 -0.00000000000E+00 -0.00000000000E+00 -0.74505805969E-08  0.93827000000E+00  0.93827000000E+00 0. -1.
     999902    2    1    2    0    0 -0.18878717808E-01  0.68274719076E-02 -0.96574677045E-02  0.10216524992E+01  0.10214095859E+01 0.  0.
     999903    2    3    3    0    0  0.16046256539E-01  0.12561228549E+00  0.31671420444E-01  0.13202467660E+00  0.19786554601E-01 0.  0.
         14    1    1    2    0    0  0.18878717808E-01 -0.68274719076E-02  0.96574677045E-02  0.22277500784E-01  0.00000000000E+00 0. -1.
     999901    1    3    3    0    0 -0.34924974347E-01 -0.11878481359E+00 -0.41328888148E-01  0.88962782261E+00  0.88000000000E+00 0.  1.
        -11    1    4    4    0    0  0.87955717991E-03  0.36607285579E-01  0.17650754143E-01  0.40653132981E-01  0.51100000000E-03 0.  1.
         11    1    4    4    0    0  0.15166699359E-01  0.89004999915E-01  0.14020666301E-01  0.91371543622E-01  0.51100000000E-03 0. -1.
</event>
<event>
 8    1  0.1095698E+005  0.1043930E+01  0.7957747E-01            NaN
         13   -1    0    0    0    0  0.00000000000E+00  0.00000000000E+00  0.74505805969E-08  0.10566000000E+00  0.10566000000E+00 0. -1.
     999900   -1    0    0    0    0 -0.00000000000E+00 -0.00000000000E+00 -0.74505805969E-08  0.93827000000E+00  0.93827000000E+00 0. -1.
     999902    2    1    2    0    0  0.10872029132E-01 -0.11086560607E-01  0.18769938305E-01  0.10195697162E+01  0.10192786580E+01 0.  0.
     999903    2    3    3    0    0  0.34762925965E-03 -0.10768019535E+00 -0.69842252728E-01  0.12979827718E+00  0.19352187888E-01 0.  0.
         14    1    1    2    0    0 -0.10872029132E-01  0.11086560607E-01 -0.18769938305E-01  0.24360283814E-01  0.00000000000E+00 0.  1.
     999901    1    3    3    0    0  0.10524399872E-01  0.96593634746E-01  0.88612191033E-01  0.88977143900E+00  0.88000000000E+00 0.  1.
        -11    1    4    4    0    0  0.72475389235E-02 -0.41732352918E-01 -0.19995002113E-01  0.46842046614E-01  0.51100000000E-03 0.  1.
         11    1    4    4    0    0 -0.68999096638E-02 -0.65947842435E-01 -0.49847250615E-01  0.82956230568E-01  0.51100000000E-03 0. -1.
</event>
<event>
 8    1  0.1095698E+005  0.1043930E+01  0.7957747E-01            NaN
         13   -1    0    0    0    0  0.00000000000E+00  0.00000000000E+00  0.74505805969E-08  0.10566000000E+00  0.10566000000E+00 0. -1.
     999900   -1    0    0    0    0 -0.00000000000E+00 -0.00000000000E+00 -0.74505805969E-08  0.93827000000E+00  0.93827000000E+00 0. -1.
     999902    2    1    2    0    0 -0.12002848821E-01 -0.33246605756E-02 -0.19683802294E-01  0.10206367860E+01  0.10203709497E+01 0.  0.
     999903    2    3    3    0    0 -0.12183475796E+00 -0.33064166005E-01 -0.38092780847E-01  0.13311981319E+00  0.18244927799E-01 0.  0.
         14    1    1    2    0    0  0.12002848821E-01  0.33246605756E-02  0.19683802294E-01  0.23293214045E-01  0.00000000000E+00 0. -1.
     999901    1    3    3    0    0  0.10983190914E+00  0.29739505429E-01  0.18408978553E-01  0.88751697276E+00  0.88000000000E+00 0.  1.
        -11    1    4    4    0    0 -0.18590496141E-01 -0.86128144206E-02 -0.12391625011E-01  0.23949960551E-01  0.51100000000E-03 0. -1.
         11    1    4    4    0    0 -0.10324426182E+00 -0.24451351584E-01 -0.25701155836E-01  0.10916985264E+00  0.51100000000E-03 0.  1.
</event>
<event>
 8    1  0.1095698E+005  0.1043930E+01  0.7957747E-01            NaN
         13   -1    0    0    0    0  0.00000000000E+00  0.00000000000E+00  0.74505805969E-08  0.10566000000E+00  0.10566000000E+00 0. -1.
     999900   -1    0    0    0    0 -0.00000000000E+00 -0.00000000000E+00 -0.74505805969E-08  0.93827000000E+00  0.93827000000E+00 0.  1.
     999902    2    1    2    0    0 -0.76723239143E-02  0.22570879884E-01 -0.23266100495E-02  0.10199774994E+01  0.10196962179E+01 0.  0.
     999903    2    3    3    0    0  0.17551118809E-01  0.87045945197E-01  0.95521410569E-01  0.13185166860E+00  0.19377416978E-01 0.  0.
         14    1    1    2    0    0  0.76723239143E-02 -0.22570879884E-01  0.23266100495E-02  0.23952500649E-01  0.00000000000E+00 0.  1.
     999901    1    3    3    0    0 -0.25223442723E-01 -0.64475065313E-01 -0.97848020618E-01  0.88812583075E+00  0.88000000000E+00 0.  1.
        -11    1    4    4    0    0  0.14464615560E-01  0.50921255805E-01  0.43925656244E-01  0.68788980175E-01  0.51100000000E-03 0.  1.
         11    1    4    4    0    0  0.30865032491E-02  0.36124689392E-01  0.51595754325E-01  0.63062688424E-01  0.51100000000E-03 0. -1.
</event>
<event>
 8    1  0.1095698E+005  0.1043930E+01  0.7957747E-01            NaN
         13   -1    0    0    0    0  0.00000000000E+00  0.00000000000E+00  0.74505805969E-08  0.10566000000E+00  0.10566000000E+00 0.  1.
     999900   -1    0    0    0    0 -0.00000000000E+00 -0.00000000000E+00 -0.74505805969E-08  0.93827000000E+00  0.93827000000E+00 0. -1.
     999902    2    1    2    0    0 -0.49111198947E-03  0.26566984836E-02  0.23258280705E-01  0.10205153281E+01  0.10202466800E+01 0.  0.
     999903    2    3    3    0    0  0.41735966730E-01 -0.73155456351E-01 -0.95030100497E-01  0.12837030060E+00  0.18830888550E-01 0.  0.
         14    1    1    2    0    0  0.49111198947E-03 -0.26566984836E-02 -0.23258280705E-01  0.23414671879E-01  0.00000000000E+00 0. -1.
     999901    1    3    3    0    0 -0.42227078719E-01  0.75812154835E-01  0.11828838120E+00  0.89214502752E+00  0.88000000000E+00 0.  1.
        -11    1    4    4    0    0  0.10015200933E-01 -0.34543555429E-01 -0.45614759822E-01  0.58090695520E-01  0.51100000000E-03 0. -1.
         11    1    4    4    0    0  0.31720765797E-01 -0.38611900922E-01 -0.49415340676E-01  0.70279605083E-01  0.51100000000E-03 0.  1.
</event>
<event>
 8    1  0.1095698E+005  0.1043930E+01  0.7957747E-01            NaN
         13   -1    0    0    0    0  0.00000000000E+00  0.00000000000E+00  0.74505805969E-08  0.10566000000E+00  0.10566000000E+00 0. -1.
     999900   -1    0    0    0    0 -0.00000000000E+00 -0.00000000000E+00 -0.74505805969E-08  0.93827000000E+00  0.93827000000E+00 0. -1.
     999902    2    1    2    0    0 -0.18080149655E-02  0.18993672773E-01 -0.13749711163E-01  0.10204122816E+01  0.10201412359E+01 0.  0.
     999903    2    3    3    0    0 -0.51488228618E-01 -0.53158749180E-01 -0.10633336912E+00  0.13122960666E+00  0.20917312816E-01 0.  0.
         14    1    1    2    0    0  0.18080149655E-02 -0.18993672773E-01  0.13749711163E-01  0.23517718439E-01  0.00000000000E+00 0. -1.
     999901    1    3    3    0    0  0.49680213652E-01  0.72152421953E-01  0.92583657956E-01  0.88918267490E+00  0.88000000000E+00 0.  1.
        -11    1    4    4    0    0 -0.43357382280E-01 -0.31109106421E-01 -0.75571708803E-01  0.92514773917E-01  0.51100000000E-03 0. -1.
         11    1    4    4    0    0 -0.81308463382E-02 -0.22049642759E-01 -0.30761660316E-01  0.38714832743E-01  0.51100000000E-03 0.  1.
</event>
<event>
 8    1  0.1095698E+005  0.1043930E+01  0.7957747E-01            NaN
         13   -1    0    0    0    0  0.00000000000E+00  0.00000000000E+00  0.74505805969E-08  0.10566000000E+00  0.10566000000E+00 0.  1.
     999900   -1    0    0    0    0 -0.00000000000E+00 -0.00000000000E+00 -0.74505805969E-08  0.93827000000E+00  0.93827000000E+00 0. -1.
     999902    2    1    2    0    0 -0.13400959339E-01 -0.16321052896E-01 -0.10646453247E-01  0.10202802760E+01  0.10200061432E+01 0.  0.
     999903    2    3    3    0    0 -0.11368146845E+00 -0.62847533306E-01  0.19781062764E-01  0.13284198089E+00  0.19555375995E-01 0.  0.
         14    1    1    2    0    0  0.13400959339E-01  0.16321052896E-01  0.10646453247E-01  0.23649724007E-01  0.00000000000E+00 0. -1.
     999901    1    3    3    0    0  0.10028050911E+00  0.46526480410E-01 -0.30427516011E-01  0.88743829510E+00  0.88000000000E+00 0.  1.
        -11    1    4    4    0    0 -0.18393611909E-01 -0.17704094525E-01 -0.13887960398E-03  0.25535080390E-01  0.51100000000E-03 0.  1.
         11    1    4    4    0    0 -0.95287856544E-01 -0.45143438781E-01  0.19919942368E-01  0.10730690050E+00  0.51100000000E-03 0. -1.
</event>
<event>
 8    1  0.1095698E+005  0.1043930E+01  0.7957747E-01            NaN
         13   -1    0    0    0    0  0.00000000000E+00  0.00000000000E+00  0.74505805969E-08  0.10566000000E+00  0.10566000000E+00 0.  1.
     999900   -1    0    0    0    0 -0.00000000000E+00 -0.00000000000E+00 -0.74505805969E-08  0.93827000000E+00  0.93827000000E+00 0. -1.
     999902    2    1    2    0    0  0.14578028341E-02  0.89261712113E-02 -0.23001003723E-01  0.10192146628E+01  0.10189149527E+01 0.  0.
     999903    2    3    3    0    0 -0.74702849535E-01  0.71906689594E-01  0.73010297015E-01  0.12849295510E+00  0.20708652851E-01 0.  0.
         14    1    1    2    0    0 -0.14578028341E-02 -0.89261712113E-02  0.23001003723E-01  0.24715337220E-01  0.00000000000E+00 0.  1.
     999901    1    3    3    0    0  0.76160652369E-01 -0.62980518383E-01 -0.96011300738E-01  0.89072170768E+00  0.88000000000E+00 0.  1.
        -11    1    4    4    0    0 -0.56707385790E-01  0.63315683715E-01  0.52622871122E-01  0.99970151013E-01  0.51100000000E-03 0. -1.
         11    1    4    4    0    0 -0.17995463745E-01  0.85910058792E-02  0.20387425893E-01  0.28522804086E-01  0.51100000000E-03 0.  1.
</event>
<event>
 8    1  0.1095698E+005  0.1043930E+01  0.7957747E-01            NaN
         13   -1    0    0    0    0  0.00000000000E+00  0.00000000000E+00  0.74505805969E-08  0.10566000000E+00  0.10566000000E+00 0.  1.
     999900   -1    0    0    0    0 -0.00000000000E+00 -0.00000000000E+00 -0.74505805969E-08  0.93827000000E+00  0.93827000000E+00 0.  1.
     999902    2    1    2    0    0 -0.22171273531E-01  0.12951762155E-01  0.12781913711E-02  0.10182211049E+01  0.10178964934E+01 0.  0.
     999903    2    3    3    0    0 -0.93539826416E-01 -0.49797666903E-02 -0.88697129598E-01  0.13057783849E+00  0.20221125151E-01 0.  0.
         14    1    1    2    0    0  0.22171273531E-01 -0.12951762155E-01 -0.12781913711E-02  0.25708895077E-01  0.00000000000E+00 0. -1.
     999901    1    3    3    0    0  0.71368552885E-01  0.17931528845E-01  0.89975320969E-01  0.88764326644E+00  0.88000000000E+00 0.  1.
        -11    1    4    4    0    0 -0.90359910060E-01 -0.87252417471E-02 -0.82648555734E-01  0.12276843273E+00  0.51100000000E-03 0. -1.
         11    1    4    4    0    0 -0.31799163560E-02  0.37454750568E-02 -0.60485738636E-02  0.78094057530E-02  0.51100000000E-03 0.  1.
</event>
<event>
 8    1  0.1095698E+005  0.1043930E+01  0.7957747E-01            NaN
         13   -1    0    0    0    0  0.00000000000E+00  0.00000000000E+00  0.74505805969E-08  0.10566000000E+00  0.10566000000E+00 0. -1.
     999900   -1    0    0    0    0 -0.00000000000E+00 -0.00000000000E+00 -0.74505805969E-08  0.93827000000E+00  0.93827000000E+00 0. -1.
     999902    2    1    2    0    0 -0.14378937335E-01 -0.12678579630E-01  0.27956980188E-01  0.10100317263E+01  0.10094627260E+01 0.  0.
     999903    2    3    3    0    0 -0.10739281710E+00 -0.43763446006E-02  0.59412185715E-01  0.12453190194E+00  0.20640184894E-01 0.  0.
         14    1    1    2    0    0  0.14378937335E-01  0.12678579630E-01 -0.27956980188E-01  0.33898273725E-01  0.00000000000E+00 0.  1.
     999901    1    3    3    0    0  0.93013879769E-01 -0.83022350292E-02 -0.31455205526E-01  0.88549982433E+00  0.88000000000E+00 0. -1.
        -11    1    4    4    0    0 -0.37063683986E-01  0.50335389182E-02  0.28998111386E-01  0.47330801489E-01  0.51100000000E-03 0. -1.
         11    1    4    4    0    0 -0.70329133119E-01 -0.94098835187E-02  0.30414074329E-01  0.77201100454E-01  0.51100000000E-03 0.  1.
</event>
<event>
 8    1  0.1095698E+005  0.1043930E+01  0.7957747E-01            NaN
         13   -1    0    0    0    0  0.00000000000E+00  0.00000000000E+00  0.74505805969E-08  0.10566000000E+00  0.10566000000E+00 0.  1.
     999900   -1    0    0    0    0 -0.00000000000E+00 -0.00000000000E+00 -0.74505805969E-08  0.93827000000E+00  0.93827000000E+00 0. -1.
     999902    2    1    2    0    0  0.13358338295E-01  0.48999118967E-02 -0.20557058257E-01  0.10189290604E+01  0.10186222966E+01 0.  0.
     999903    2    3    3    0    0  0.70744019273E-01 -0.34262448534E-01  0.99438909520E-01  0.12807225978E+00  0.18324174115E-01 0.  0.
         14    1    1    2    0    0 -0.13358338295E-01 -0.48999118967E-02  0.20557058257E-01  0.25000939638E-01  0.00000000000E+00 0. -1.
     999901    1    3    3    0    0 -0.57385680978E-01  0.39162360431E-01 -0.11999596778E+00  0.89085680058E+00  0.88000000000E+00 0. -1.
        -11    1    4    4    0    0  0.10171952874E-02 -0.49113288720E-02  0.68475402802E-02  0.85032797455E-02  0.51100000000E-03 0. -1.
         11    1    4    4    0    0  0.69726823985E-01 -0.29351119662E-01  0.92591369239E-01  0.11956898004E+00  0.51100000000E-03 0.  1.
</event>
<event>
 8    1  0.1095698E+005  0.1043930E+01  0.7957747E-01            NaN
         13   -1    0    0    0    0  0.00000000000E+00  0.00000000000E+00  0.74505805969E-08  0.10566000000E+00  0.10566000000E+00 0.  1.
     999900   -1    0    0    0    0 -0.00000000000E+00 -0.00000000000E+00 -0.74505805969E-08  0.93827000000E+00  0.93827000000E+00 0.  1.
     999902    2    1    2    0    0 -0.19790722818E-01  0.24458348207E-02 -0.10540403764E-01  0.10213744036E+01  0.10211253191E+01 0.  0.
     999903    2    3    3    0    0 -0.11702579976E+00  0.49075241397E-01  0.36511379395E-01  0.13354399634E+00  0.19937427289E-01 0.  0.
         14    1    1    2    0    0  0.19790722818E-01 -0.24458348207E-02  0.10540403764E-01  0.22555596404E-01  0.00000000000E+00 0.  1.
     999901    1    3    3    0    0  0.97235076939E-01 -0.46629406577E-01 -0.47051783160E-01  0.88783040725E+00  0.88000000000E+00 0.  1.
        -11    1    4    4    0    0 -0.23814764668E-01  0.13965645016E-01  0.46361283971E-03  0.27616269024E-01  0.51100000000E-03 0. -1.
         11    1    4    4    0    0 -0.93211035089E-01  0.35109596381E-01  0.36047766556E-01  0.10592772732E+00  0.51100000000E-03 0.  1.
</event>
<event>
 8    1  0.1095698E+005  0.1043930E+01  0.7957747E-01            NaN
         13   -1    0    0    0    0  0.00000000000E+00  0.00000000000E+00  0.74505805969E-08  0.10566000000E+00  0.10566000000E+00 0.  1.
     999900   -1    0    0    0    0 -0.00000000000E+00 -0.00000000000E+00 -0.74505805969E-08  0.93827000000E+00  0.93827000000E+00 0. -1.
     999902    2    1    2    0    0  0.18238866807E-01 -0.64487966636E-02 -0.11173625656E-01  0.10215896072E+01  0.10213453052E+01 0.  0.
     999903    2    3    3    0    0 -0.10624275844E+00 -0.96504636827E-02 -0.72594414712E-01  0.13070328502E+00  0.20802511781E-01 0.  0.
         14    1    1    2    0    0 -0.18238866807E-01  0.64487966636E-02  0.11173625656E-01  0.22340392815E-01  0.00000000000E+00 0. -1.
     999901    1    3    3    0    0  0.12448162525E+00  0.32016670191E-02  0.61420789056E-01  0.89088632217E+00  0.88000000000E+00 0.  1.
        -11    1    4    4    0    0 -0.38644747153E-01  0.63894775548E-02 -0.27880874296E-01  0.48081661561E-01  0.51100000000E-03 0.  1.
         11    1    4    4    0    0 -0.67598011289E-01 -0.16039941238E-01 -0.44713540417E-01  0.82621623457E-01  0.51100000000E-03 0. -1.
</event>
<event>
 8    1  0.1095698E+005  0.1043930E+01  0.7957747E-01            NaN
         13   -1    0    0    0    0  0.00000000000E+00  0.00000000000E+00  0.74505805969E-08  0.10566000000E+00  0.10566000000E+00 0.  1.
     999900   -1    0    0    0    0 -0.00000000000E+00 -0.00000000000E+00 -0.74505805969E-08  0.93827000000E+00  0.93827000000E+00 0.  1.
     999902    2    1    2    0    0  0.17510248219E-01  0.11035237416E-01  0.43502340441E-02  0.10227803004E+01  0.10225616036E+01 0.  0.
     999903    2    3    3    0    0  0.76759633421E-01 -0.76847812841E-01 -0.74181065051E-01  0.13294824595E+00  0.19359184562E-01 0.  0.
         14    1    1    2    0    0 -0.17510248219E-01 -0.11035237416E-01 -0.43502340441E-02  0.21149699614E-01  0.00000000000E+00 0.  1.
     999901    1    3    3    0    0 -0.59249385201E-01  0.87883050257E-01  0.78531299096E-01  0.88983205444E+00  0.88000000000E+00 0. -1.
        -11    1    4    4    0    0  0.58952999190E-01 -0.69140015925E-01 -0.59489128221E-01  0.10860485907E+00  0.51100000000E-03 0. -1.
         11    1    4    4    0    0  0.17806634230E-01 -0.77077969153E-02 -0.14691936831E-01  0.24343386879E-01  0.51100000000E-03 0.  1.
</event>
<event>
 8    1  0.1095698E+005  0.1043930E+01  0.7957747E-01            NaN
         13   -1    0    0    0    0  0.00000000000E+00  0.00000000000E+00  0.74505805969E-08  0.10566000000E+00  0.10566000000E+00 0. -1.
     999900   -1    0    0    0    0 -0.00000000000E+00 -0.00000000000E+00 -0.74505805969E-08  0.93827000000E+00  0.93827000000E+00 0. -1.
     999902    2    1    2    0    0  0.86072468719E-02  0.28460551209E-01  0.88945644642E-03  0.10141830874E+01  0.10137467416E+01 0.  0.
     999903    2    3    3    0    0 -0.94391628340E-01 -0.62665224118E-01  0.42670432507E-01  0.12252265590E+00  0.18823538019E-01 0.  0.
         14    1    1    2    0    0 -0.86072468719E-02 -0.28460551209E-01 -0.88945644642E-03  0.29746912556E-01  0.00000000000E+00 0.  1.
     999901    1    3    3    0    0  0.10299887521E+00  0.91125775327E-01 -0.41780976061E-01  0.89166043155E+00  0.88000000000E+00 0.  1.
        -11    1    4    4    0    0 -0.20035768529E-01 -0.52890538048E-02  0.10570070621E-01  0.23267866783E-01  0.51100000000E-03 0.  1.
         11    1    4    4    0    0 -0.74355859811E-01 -0.57376170314E-01  0.32100361886E-01  0.99254789115E-01  0.51100000000E-03 0. -1.
</event>
<event>
 8    1  0.1095698E+005  0.1043930E+01  0.7957747E-01            NaN
         13   -1    0    0    0    0  0.00000000000E+00  0.00000000000E+00  0.74505805969E-08  0.10566000000E+00  0.10566000000E+00 0.  1.
     999900   -1    0    0    0    0 -0.00000000000E+00 -0.00000000000E+00 -0.74505805969E-08  0.93827000000E+00  0.93827000000E+00 0.  1.
     999902    2    1    2    0    0 -0.30850353112E-02  0.14216966541E-01 -0.27148144407E-01  0.10131296538E+01  0.10126613620E+01 0.  0.
     999903    2    3    3    0    0 -0.70555097527E-01  0.10119824826E+00 -0.17094529568E-01  0.12621419683E+00  0.20461996558E-01 0.  0.
         14    1    1    2    0    0  0.30850353112E-02 -0.14216966541E-01  0.27148144407E-01  0.30800346187E-01  0.00000000000E+00 0.  1.
     999901    1    3    3    0    0  0.67470062216E-01 -0.86981281715E-01 -0.10053614839E-01  0.88691545698E+00  0.88000000000E+00 0.  1.
        -11    1    4    4    0    0 -0.16245294119E-01  0.21498289666E-01  0.46447666480E-02  0.27348144687E-01  0.51100000000E-03 0.  1.
         11    1    4    4    0    0 -0.54309803407E-01  0.79699958590E-01 -0.21739296216E-01  0.98866052143E-01  0.51100000000E-03 0. -1.
</event>
<event>
 8    1  0.1095698E+005  0.1043930E+01  0.7957747E-01            NaN
         13   -1    0    0    0    0  0.00000000000E+00  0.00000000000E+00  0.74505805969E-08  0.10566000000E+00  0.10566000000E+00 0.  1.
     999900   -1    0    0    0    0 -0.00000000000E+00 -0.00000000000E+00 -0.74505805969E-08  0.93827000000E+00  0.93827000000E+00 0. -1.
     999902    2    1    2    0    0  0.20667484578E-01 -0.72225086156E-02  0.10074143573E-01  0.10198302507E+01  0.10195454586E+01 0.  0.
     999903    2    3    3    0    0  0.98446822364E-02 -0.40530566967E-03 -0.12723849895E+00  0.12908990179E+00  0.19428975475E-01 0.  0.
         14    1    1    2    0    0 -0.20667484578E-01  0.72225086156E-02 -0.10074143573E-01  0.24099749339E-01  0.00000000000E+00 0. -1.
     999901    1    3    3    0    0  0.10822802342E-01 -0.68172029459E-02  0.13731264252E+00  0.89074034887E+00  0.88000000000E+00 0.  1.
        -11    1    4    4    0    0  0.91815124473E-02 -0.35840036122E-02 -0.26189157581E-01  0.27987110399E-01  0.51100000000E-03 0.  1.
         11    1    4    4    0    0  0.66316978914E-03  0.31786979425E-02 -0.10104934137E+00  0.10110279139E+00  0.51100000000E-03 0. -1.
</event>
<event>
 8    1  0.1095698E+005  0.1043930E+01  0.7957747E-01            NaN
         13   -1    0    0    0    0  0.00000000000E+00  0.00000000000E+00  0.74505805969E-08  0.10566000000E+00  0.10566000000E+00 0.  1.
     999900   -1    0    0    0    0 -0.00000000000E+00 -0.00000000000E+00 -0.74505805969E-08  0.93827000000E+00  0.93827000000E+00 0. -1.
     999902    2    1    2    0    0  0.18670576773E-01 -0.10137750937E-01  0.26281834893E-03  0.10226830354E+01  0.10224623012E+01 0.  0.
     999903    2    3    3    0    0  0.12197247154E+00  0.29654419753E-01  0.46921392274E-01  0.13452104521E+00  0.11731416244E-01 0.  0.
         14    1    1    2    0    0 -0.18670576773E-01  0.10137750937E-01 -0.26281834893E-03  0.21246964597E-01  0.00000000000E+00 0. -1.
     999901    1    3    3    0    0 -0.10330189476E+00 -0.39792170690E-01 -0.46658573925E-01  0.88816199020E+00  0.88000000000E+00 0. -1.
        -11    1    4    4    0    0  0.10069239797E+00  0.28954397577E-01  0.38801284407E-01  0.11172787002E+00  0.51100000000E-03 0. -1.
         11    1    4    4    0    0  0.21280073569E-01  0.70002217572E-03  0.81201078675E-02  0.22793175183E-01  0.51100000000E-03 0.  1.
</event>
<event>
 8    1  0.1095698E+005  0.1043930E+01  0.7957747E-01            NaN
         13   -1    0    0    0    0  0.00000000000E+00  0.00000000000E+00  0.74505805969E-08  0.10566000000E+00  0.10566000000E+00 0.  1.
     999900   -1    0    0    0    0 -0.00000000000E+00 -0.00000000000E+00 -0.74505805969E-08  0.93827000000E+00  0.93827000000E+00 0.  1.
     999902    2    1    2    0    0  0.39736452668E-02  0.16974040696E-01 -0.17071532894E-01  0.10195303043E+01  0.10192382922E+01 0.  0.
     999903    2    3    3    0    0 -0.41969735772E-01  0.23028732536E-01  0.11718765797E+00  0.12814207022E+00  0.19891247696E-01 0.  0.
         14    1    1    2    0    0 -0.39736452668E-02 -0.16974040696E-01  0.17071532894E-01  0.24399695687E-01  0.00000000000E+00 0. -1.
     999901    1    3    3    0    0  0.45943381039E-01 -0.60546918392E-02 -0.13425919087E+00  0.89138823410E+00  0.88000000000E+00 0.  1.
        -11    1    4    4    0    0 -0.18889972003E-01  0.16905256125E-01  0.80207895558E-01  0.84120071076E-01  0.51100000000E-03 0.  1.
         11    1    4    4    0    0 -0.23079763769E-01  0.61234764105E-02  0.36979762416E-01  0.44021999140E-01  0.51100000000E-03 0. -1.
</event>
<event>
 8    1  0.1095698E+005  0.1043930E+01  0.7957747E-01            NaN
         13   -1    0    0    0    0  0.00000000000E+00  0.00000000000E+00  0.74505805969E-08  0.10566000000E+00  0.10566000000E+00 0. -1.
     999900   -1    0    0    0    0 -0.00000000000E+00 -0.00000000000E+00 -0.74505805969E-08  0.93827000000E+00  0.93827000000E+00 0.  1.
     999902    2    1    2    0    0 -0.17210740688E-01 -0.15524498506E-01 -0.56152596829E-02  0.10200815034E+01  0.10198026882E+01 0.  0.
     999903    2    3    3    0    0 -0.68786713524E-02 -0.10091236357E+00 -0.83418386353E-01  0.13247169854E+00  0.18960550940E-01 0.  0.
         14    1    1    2    0    0  0.17210740688E-01  0.15524498506E-01  0.56152596829E-02  0.23848496603E-01  0.00000000000E+00 0.  1.
     999901    1    3    3    0    0 -0.10332069336E-01  0.85387865064E-01  0.77803126670E-01  0.88760980486E+00  0.88000000000E+00 0. -1.
        -11    1    4    4    0    0 -0.10346582966E-01 -0.36393343850E-01 -0.24896544971E-01  0.45294881920E-01  0.51100000000E-03 0.  1.
         11    1    4    4    0    0  0.34679116132E-02 -0.64519019720E-01 -0.58521841382E-01  0.87176816622E-01  0.51100000000E-03 0. -1.
</event>
<event>
 8    1  0.1095698E+005  0.1043930E+01  0.7957747E-01            NaN
         13   -1    0    0    0    0  0.00000000000E+00  0.00000000000E+00  0.74505805969E-08  0.10566000000E+00  0.10566000000E+00 0.  1.
     999900   -1    0    0    0    0 -0.00000000000E+00 -0.00000000000E+00 -0.74505805969E-08  0.93827000000E+00  0.93827000000E+00 0.  1.
     999902    2    1    2    0    0  0.18315965847E-01 -0.99120755455E-02  0.11147251992E-01  0.10203082923E+01  0.10200348162E+01 0.  0.
     999903    2    3    3    0    0  0.43549830935E-01  0.13174009919E-01  0.12330191141E+00  0.13253107764E+00  0.17058219986E-01 0.  0.
         14    1    1    2    0    0 -0.18315965847E-01  0.99120755455E-02 -0.11147251992E-01  0.23621707675E-01  0.00000000000E+00 0.  1.
     999901    1    3    3    0    0 -0.25233865088E-01 -0.23086085465E-01 -0.11215465942E+00  0.88777721469E+00  0.88000000000E+00 0.  1.
        -11    1    4    4    0    0  0.23380384642E-01 -0.16889261771E-02  0.63526879314E-01  0.67715732101E-01  0.51100000000E-03 0.  1.
         11    1    4    4    0    0  0.20169446293E-01  0.14862936096E-01  0.59775032100E-01  0.64815345535E-01  0.51100000000E-03 0. -1.
</event>
<event>
 8    1  0.1095698E+005  0.1043930E+01  0.7957747E-01            NaN
         13   -1    0    0    0    0  0.00000000000E+00  0.00000000000E+00  0.74505805969E-08  0.10566000000E+00  0.10566000000E+00 0. -1.
     999900   -1    0    0    0    0 -0.00000000000E+00 -0.00000000000E+00 -0.74505805969E-08  0.93827000000E+00  0.93827000000E+00 0. -1.
     999902    2    1    2    0    0 -0.18829301926E-01  0.18802945559E-02 -0.14392631087E-01  0.10201555190E+01  0.10198784520E+01 0.  0.
     999903    2    3    3    0    0 -0.48979211201E-01  0.11354638807E+00 -0.40701373415E-01  0.13219691442E+00  0.22971221370E-01 0.  0.
         14    1    1    2    0    0  0.18829301926E-01 -0.18802945559E-02  0.14392631087E-01  0.23774481030E-01  0.00000000000E+00 0. -1.
     999901    1    3    3    0    0  0.30149909275E-01 -0.11166609351E+00  0.26308742328E-01  0.88795860455E+00  0.88000000000E+00 0.  1.
        -11    1    4    4    0    0 -0.36181894323E-01  0.78553590283E-01 -0.39057928610E-01  0.94897728800E-01  0.51100000000E-03 0.  1.
         11    1    4    4    0    0 -0.12797316878E-01  0.34992797786E-01 -0.16434448054E-02  0.37299185621E-01  0.51100000000E-03 0. -1.
</event>
<event>
 8    1  0.1095698E+005  0.1043930E+01  0.7957747E-01            NaN
         13   -1    0    0    0    0  0.00000000000E+00  0.00000000000E+00  0.74505805969E-08  0.10566000000E+00  0.10566000000E+00 0. -1.
     999900   -1    0    0    0    0 -0.00000000000E+00 -0.00000000000E+00 -0.74505805969E-08  0.93827000000E+00  0.93827000000E+00 0.  1.
     999902    2    1    2    0    0 -0.19109833685E-01  0.74376785749E-02 -0.10623451290E-01  0.10208353573E+01  0.10205740856E+01 0.  0.
     999903    2    3    3    0    0  0.14392077405E-01  0.15856039252E-01 -0.12894154868E+00  0.13224522733E+00  0.20107990979E-01 0.  0.
         14    1    1    2    0    0  0.19109833685E-01 -0.74376785749E-02  0.10623451290E-01  0.23094642741E-01  0.00000000000E+00 0. -1.
     999901    1    3    3    0    0 -0.33501911089E-01 -0.84183606767E-02  0.11831809739E+00  0.88859012993E+00  0.88000000000E+00 0. -1.
        -11    1    4    4    0    0  0.40150333636E-03 -0.28472613555E-02 -0.31220759948E-02  0.42751118901E-02  0.51100000000E-03 0.  1.
         11    1    4    4    0    0  0.13990574068E-01  0.18703300607E-01 -0.12581947269E+00  0.12797011544E+00  0.51100000000E-03 0. -1.
</event>
<event>
 8    1  0.1095698E+005  0.1043930E+01  0.7957747E-01            NaN
         13   -1    0    0    0    0  0.00000000000E+00  0.00000000000E+00  0.74505805969E-08  0.10566000000E+00  0.10566000000E+00 0.  1.
     999900   -1    0    0    0    0 -0.00000000000E+00 -0.00000000000E+00 -0.74505805969E-08  0.93827000000E+00  0.93827000000E+00 0.  1.
     999902    2    1    2    0    0  0.67906411629E-02 -0.22106045881E-01 -0.21819406562E-02  0.10207017642E+01  0.10204374261E+01 0.  0.
     999903    2    3    3    0    0 -0.10174719062E+00  0.24051544971E-01 -0.74432057789E-01  0.12989815874E+00  0.20060727889E-01 0.  0.
         14    1    1    2    0    0 -0.67906411629E-02  0.22106045881E-01  0.21819406562E-02  0.23228235769E-01  0.00000000000E+00 0.  1.
     999901    1    3    3    0    0  0.10853783178E+00 -0.46157590853E-01  0.72250117133E-01  0.89080360549E+00  0.88000000000E+00 0. -1.
        -11    1    4    4    0    0 -0.46006469997E-01  0.92867065277E-02 -0.21517750154E-01  0.51634415774E-01  0.51100000000E-03 0.  1.
         11    1    4    4    0    0 -0.55740720625E-01  0.14764838444E-01 -0.52914307636E-01  0.78263742970E-01  0.51100000000E-03 0. -1.
</event>
<event>
 8    1  0.1095698E+005  0.1043930E+01  0.7957747E-01            NaN
         13   -1    0    0    0    0  0.00000000000E+00  0.00000000000E+00  0.74505805969E-08  0.10566000000E+00  0.10566000000E+00 0.  1.
     999900   -1    0    0    0    0 -0.00000000000E+00 -0.00000000000E+00 -0.74505805969E-08  0.93827000000E+00  0.93827000000E+00 0.  1.
     999902    2    1    2    0    0 -0.19047899448E-01 -0.62126463279E-02  0.13202485697E-01  0.10199357283E+01  0.10196534532E+01 0.  0.
     999903    2    3    3    0    0  0.52793225772E-01  0.10948145502E+00 -0.34435338192E-01  0.12818708956E+00  0.21744510425E-01 0.  0.
         14    1    1    2    0    0  0.19047899448E-01  0.62126463279E-02 -0.13202485697E-01  0.23994271741E-01  0.00000000000E+00 0. -1.
     999901    1    3    3    0    0 -0.71841125220E-01 -0.11569410134E+00  0.47637823889E-01  0.89174863870E+00  0.88000000000E+00 0.  1.
        -11    1    4    4    0    0  0.60845405370E-02  0.23724501069E-01  0.41510915429E-03  0.24501163669E-01  0.51100000000E-03 0. -1.
         11    1    4    4    0    0  0.46708685235E-01  0.85756953946E-01 -0.34850447346E-01  0.10368592589E+00  0.51100000000E-03 0.  1.
</event>
<event>
 8    1  0.1095698E+005  0.1043930E+01  0.7957747E-01            NaN
         13   -1    0    0    0    0  0.00000000000E+00  0.00000000000E+00  0.74505805969E-08  0.10566000000E+00  0.10566000000E+00 0.  1.
     999900   -1    0    0    0    0 -0.00000000000E+00 -0.00000000000E+00 -0.74505805969E-08  0.93827000000E+00  0.93827000000E+00 0. -1.
     999902    2    1    2    0    0  0.17927008919E-01 -0.15975170378E-01 -0.37716549738E-02  0.10196234351E+01  0.10193336746E+01 0.  0.
     999903    2    3    3    0    0  0.42544389232E-01 -0.11438247704E+00 -0.48296230324E-01  0.13267786108E+00  0.19429689874E-01 0.  0.
         14    1    1    2    0    0 -0.17927008919E-01  0.15975170378E-01  0.37716549738E-02  0.24306564929E-01  0.00000000000E+00 0.  1.
     999901    1    3    3    0    0 -0.24617380313E-01  0.98407306658E-01  0.44524575350E-01  0.88694557399E+00  0.88000000000E+00 0.  1.
        -11    1    4    4    0    0  0.80268354856E-02 -0.18399640446E-01 -0.16029094533E-01  0.25693770626E-01  0.51100000000E-03 0. -1.
         11    1    4    4    0    0  0.34517553747E-01 -0.95982836590E-01 -0.32267135790E-01  0.10698409045E+00  0.51100000000E-03 0.  1.
</event>
<event>
 8    1  0.1095698E+005  0.1043930E+01  0.7957747E-01            NaN
         13   -1    0    0    0    0  0.00000000000E+00  0.00000000000E+00  0.74505805969E-08  0.10566000000E+00  0.10566000000E+00 0. -1.
     999900   -1    0    0    0    0 -0.00000000000E+00 -0.00000000000E+00 -0.74505805969E-08  0.93827000000E+00  0.93827000000E+00 0. -1.
     999902    2    1    2    0    0  0.18877459580E-01 -0.11451590625E-01 -0.42908797573E-02  0.10214375778E+01  0.10211899021E+01 0.  0.
     999903    2    3    3    0    0  0.12965059382E+00 -0.28743325573E-01 -0.34786072312E-02  0.13432408383E+00  0.19884756653E-01 0.  0.
         14    1    1    2    0    0 -0.18877459580E-01  0.11451590625E-01  0.42908797573E-02  0.22492422216E-01  0.00000000000E+00 0. -1.
     999901    1    3    3    0    0 -0.11077313424E+00  0.17291734948E-01 -0.81227252611E-03  0.88711349395E+00  0.88000000000E+00 0.  1.
        -11    1    4    4    0    0  0.30749368888E-01 -0.15585447428E-01 -0.20851313228E-02  0.34540393052E-01  0.51100000000E-03 0.  1.
         11    1    4    4    0    0  0.98901224928E-01 -0.13157878145E-01 -0.13934759084E-02  0.99783690779E-01  0.51100000000E-03 0. -1.
</event>
<event>
 8    1  0.1095698E+005  0.1043930E+01  0.7957747E-01            NaN
         13   -1    0    0    0    0  0.00000000000E+00  0.00000000000E+00  0.74505805969E-08  0.10566000000E+00  0.10566000000E+00 0.  1.
     999900   -1    0    0    0    0 -0.00000000000E+00 -0.00000000000E+00 -0.74505805969E-08  0.93827000000E+00  0.93827000000E+00 0. -1.
     999902    2    1    2    0    0 -0.20367877632E-01 -0.89951930576E-02 -0.89922184721E-02  0.10199170050E+01  0.10196342840E+01 0.  0.
     999903    2    3    3    0    0 -0.11090859303E+00 -0.48659170192E-01 -0.51303286914E-01  0.13337254543E+00  0.22085691638E-01 0.  0.
         14    1    1    2    0    0  0.20367877632E-01  0.89951930576E-02  0.89922184721E-02  0.24012995033E-01  0.00000000000E+00 0. -1.
     999901    1    3    3    0    0  0.90540715394E-01  0.39663977134E-01  0.42311068442E-01  0.88654445954E+00  0.88000000000E+00 0. -1.
        -11    1    4    4    0    0 -0.48844835355E-01 -0.24094020991E-01 -0.11538340145E-01  0.55675256647E-01  0.51100000000E-03 0.  1.
         11    1    4    4    0    0 -0.62063757671E-01 -0.24565149201E-01 -0.39764946769E-01  0.77697288782E-01  0.51100000000E-03 0. -1.
</event>
<event>
 8    1  0.1095698E+005  0.1043930E+01  0.7957747E-01            NaN
         13   -1    0    0    0    0  0.00000000000E+00  0.00000000000E+00  0.74505805969E-08  0.10566000000E+00  0.10566000000E+00 0.  1.
     999900   -1    0    0    0    0 -0.00000000000E+00 -0.00000000000E+00 -0.74505805969E-08  0.93827000000E+00  0.93827000000E+00 0. -1.
     999902    2    1    2    0    0 -0.48115443874E-02 -0.52220638097E-02  0.21000674480E-01  0.10217613456E+01  0.10215208261E+01 0.  0.
     999903    2    3    3    0    0 -0.16681474093E-01  0.77589533509E-01  0.10582440988E+00  0.13373334943E+00  0.19682371171E-01 0.  0.
         14    1    1    2    0    0  0.48115443874E-02  0.52220638097E-02 -0.21000674480E-01  0.22168654412E-01  0.00000000000E+00 0. -1.
     999901    1    3    3    0    0  0.11869929705E-01 -0.82811597318E-01 -0.84823735396E-01  0.88802799616E+00  0.88000000000E+00 0. -1.
        -11    1    4    4    0    0 -0.10680959322E-01  0.70983806411E-01  0.86250348671E-01  0.11221482715E+00  0.51100000000E-03 0.  1.
         11    1    4    4    0    0 -0.60005147711E-02  0.66057270973E-02  0.19574061205E-01  0.21518522279E-01  0.51100000000E-03 0. -1.
</event>
<event>
 8    1  0.1095698E+005  0.1043930E+01  0.7957747E-01            NaN
         13   -1    0    0    0    0  0.00000000000E+00  0.00000000000E+00  0.74505805969E-08  0.10566000000E+00  0.10566000000E+00 0. -1.
     999900   -1    0    0    0    0 -0.00000000000E+00 -0.00000000000E+00 -0.74505805969E-08  0.93827000000E+00  0.93827000000E+00 0. -1.
     999902    2    1    2    0    0 -0.51102202569E-02  0.13493539083E-01  0.17560794313E-01  0.10212017919E+01  0.10209488372E+01 0.  0.
     999903    2    3    3    0    0 -0.10575138973E+00 -0.84178403528E-02 -0.73364211019E-01  0.13054130092E+00  0.20112367380E-01 0.  0.
         14    1    1    2    0    0  0.51102202569E-02 -0.13493539083E-01 -0.17560794313E-01  0.22728208134E-01  0.00000000000E+00 0.  1.
     999901    1    3    3    0    0  0.10064116947E+00  0.21911379436E-01  0.90925005332E-01  0.89066049095E+00  0.88000000000E+00 0. -1.
        -11    1    4    4    0    0 -0.48031242075E-01  0.37495277638E-02 -0.40950295035E-01  0.63231692672E-01  0.51100000000E-03 0.  1.
         11    1    4    4    0    0 -0.57720147652E-01 -0.12167368117E-01 -0.32413915984E-01  0.67309608246E-01  0.51100000000E-03 0. -1.
</event>
<event>
 8    1  0.1095698E+005  0.1043930E+01  0.7957747E-01            NaN
         13   -1    0    0    0    0  0.00000000000E+00  0.00000000000E+00  0.74505805969E-08  0.10566000000E+00  0.10566000000E+00 0.  1.
     999900   -1    0    0    0    0 -0.00000000000E+00 -0.00000000000E+00 -0.74505805969E-08  0.93827000000E+00  0.93827000000E+00 0.  1.
     999902    2    1    2    0    0 -0.14757209620E-01  0.13984744913E-01  0.10868969643E-01  0.10208760887E+01  0.10206157483E+01 0.  0.
     999903    2    3    3    0    0  0.28924173809E-01 -0.50013859351E-01  0.11620184675E+00  0.13121384962E+00  0.19396164209E-01 0.  0.
         14    1    1    2    0    0  0.14757209620E-01 -0.13984744913E-01 -0.10868969643E-01  0.23053911320E-01  0.00000000000E+00 0. -1.
     999901    1    3    3    0    0 -0.43681383429E-01  0.63998604265E-01 -0.10533287711E+00  0.88966223906E+00  0.88000000000E+00 0.  1.
        -11    1    4    4    0    0  0.79986074497E-02 -0.32786729883E-01  0.67823842426E-01  0.75758049738E-01  0.51100000000E-03 0. -1.
         11    1    4    4    0    0  0.20925566359E-01 -0.17227129468E-01  0.48378004326E-01  0.55455799884E-01  0.51100000000E-03 0.  1.
</event>
<event>
 7    1  0.1836268E+005  0.1043930E+01  0.7957747E-01            NaN
         13   -1    0    0    0    0  0.00000000000E+00  0.00000000000E+00  0.74505805969E-08  0.10566000000E+00  0.10566000000E+00 0. -1.
     999900   -1    0    0    0    0 -0.00000000000E+00 -0.00000000000E+00 -0.74505805969E-08  0.93827000000E+00  0.93827000000E+00 0.  1.
     999903    2    1    2    0    0  0.56569311417E-01  0.78981897216E-01 -0.11200464822E-01  0.99849831536E-01  0.20157166554E-01 0.  0.
         14    1    1    2    0    0 -0.56829232649E-02  0.19940289049E-01 -0.50844240682E-01  0.54909448683E-01  0.00000000000E+00 0.  1.
     999901    1    1    2    0    0 -0.50886388152E-01 -0.98922186265E-01  0.62044705504E-01  0.88917071978E+00  0.88000000000E+00 0. -1.
        -11    1    3    3    0    0  0.41061205358E-01  0.66465336223E-01 -0.26906024542E-02  0.78173934066E-01  0.51100000000E-03 0.  1.
         11    1    3    3    0    0  0.15508106059E-01  0.12516560992E-01 -0.85098623678E-02  0.21675897470E-01  0.51100000000E-03 0. -1.
</event>
<event>
 8    1  0.1095698E+005  0.1043930E+01  0.7957747E-01            NaN
         13   -1    0    0    0    0  0.00000000000E+00  0.00000000000E+00  0.74505805969E-08  0.10566000000E+00  0.10566000000E+00 0. -1.
     999900   -1    0    0    0    0 -0.00000000000E+00 -0.00000000000E+00 -0.74505805969E-08  0.93827000000E+00  0.93827000000E+00 0. -1.
     999902    2    1    2    0    0 -0.22828164204E-01 -0.85742075208E-03  0.37816562477E-02  0.10207748456E+01  0.10205121872E+01 0.  0.
     999903    2    3    3    0    0 -0.81227681700E-01 -0.70398590216E-01 -0.75083131668E-01  0.13259348311E+00  0.19739739730E-01 0.  0.
         14    1    1    2    0    0  0.22828164204E-01  0.85742075208E-03 -0.37816562477E-02  0.23155154400E-01  0.00000000000E+00 0.  1.
     999901    1    3    3    0    0  0.58399517496E-01  0.69541169464E-01  0.78864787916E-01  0.88818136249E+00  0.88000000000E+00 0. -1.
        -11    1    4    4    0    0 -0.46654680483E-01 -0.52743151322E-01 -0.50202577920E-01  0.86481553948E-01  0.51100000000E-03 0.  1.
         11    1    4    4    0    0 -0.34573001217E-01 -0.17655438893E-01 -0.24880553748E-01  0.46111929167E-01  0.51100000000E-03 0. -1.
</event>
<event>
 8    1  0.1095698E+005  0.1043930E+01  0.7957747E-01            NaN
         13   -1    0    0    0    0  0.00000000000E+00  0.00000000000E+00  0.74505805969E-08  0.10566000000E+00  0.10566000000E+00 0.  1.
     999900   -1    0    0    0    0 -0.00000000000E+00 -0.00000000000E+00 -0.74505805969E-08  0.93827000000E+00  0.93827000000E+00 0. -1.
     999902    2    1    2    0    0 -0.10252897603E-01 -0.20229461473E-01 -0.83271854592E-02  0.10197702186E+01  0.10194839889E+01 0.  0.
     999903    2    3    3    0    0  0.10822864674E+00 -0.67524615574E-01 -0.19086250399E-01  0.13050621648E+00  0.19863884346E-01 0.  0.
         14    1    1    2    0    0  0.10252897603E-01  0.20229461473E-01  0.83271854592E-02  0.24159781423E-01  0.00000000000E+00 0. -1.
     999901    1    3    3    0    0 -0.11848154434E+00  0.47295154101E-01  0.10759064940E-01  0.88926400210E+00  0.88000000000E+00 0.  1.
        -11    1    4    4    0    0  0.59735596895E-01 -0.25611463085E-01 -0.10358676181E-01  0.65816805384E-01  0.51100000000E-03 0. -1.
         11    1    4    4    0    0  0.48493049845E-01 -0.41913152489E-01 -0.87275742187E-02  0.64689411093E-01  0.51100000000E-03 0.  1.
</event>
<event>
 8    1  0.1095698E+005  0.1043930E+01  0.7957747E-01            NaN
         13   -1    0    0    0    0  0.00000000000E+00  0.00000000000E+00  0.74505805969E-08  0.10566000000E+00  0.10566000000E+00 0.  1.
     999900   -1    0    0    0    0 -0.00000000000E+00 -0.00000000000E+00 -0.74505805969E-08  0.93827000000E+00  0.93827000000E+00 0.  1.
     999902    2    1    2    0    0  0.23341119571E-01  0.13820299903E-02  0.12953985034E-01  0.10171994258E+01  0.10168481441E+01 0.  0.
     999903    2    3    3    0    0 -0.28221008506E-01 -0.97833608114E-01 -0.71978670687E-01  0.12606758823E+00  0.18554448793E-01 0.  0.
         14    1    1    2    0    0 -0.23341119571E-01 -0.13820299903E-02 -0.12953985034E-01  0.26730574217E-01  0.00000000000E+00 0.  1.
     999901    1    3    3    0    0  0.51562128077E-01  0.99215638105E-01  0.84932655720E-01  0.89113183755E+00  0.88000000000E+00 0. -1.
        -11    1    4    4    0    0 -0.23907923906E-01 -0.65972424769E-01 -0.40266045316E-01  0.80904667243E-01  0.51100000000E-03 0. -1.
         11    1    4    4    0    0 -0.43130846001E-02 -0.31861183345E-01 -0.31712625371E-01  0.45162920985E-01  0.51100000000E-03 0.  1.
</event>
<event>
 8    1  0.1095698E+005  0.1043930E+01  0.7957747E-01            NaN
         13   -1    0    0    0    0  0.00000000000E+00  0.00000000000E+00  0.74505805969E-08  0.10566000000E+00  0.10566000000E+00 0. -1.
     999900   -1    0    0    0    0 -0.00000000000E+00 -0.00000000000E+00 -0.74505805969E-08  0.93827000000E+00  0.93827000000E+00 0. -1.
     999902    2    1    2    0    0  0.47758743864E-02 -0.29012854508E-02 -0.22979822640E-01  0.10202805036E+01  0.10200063761E+01 0.  0.
     999903    2    3    3    0    0 -0.12759927043E+00 -0.14699942070E-01 -0.44686411549E-02  0.13010914303E+00  0.20267171377E-01 0.  0.
         14    1    1    2    0    0 -0.47758743864E-02  0.29012854508E-02  0.22979822640E-01  0.23649496442E-01  0.00000000000E+00 0. -1.
     999901    1    3    3    0    0  0.13237514481E+00  0.11798656619E-01 -0.18511181485E-01  0.89017136053E+00  0.88000000000E+00 0.  1.
        -11    1    4    4    0    0 -0.72405997670E-01 -0.15503892351E-01  0.44917438042E-02  0.74185147166E-01  0.51100000000E-03 0. -1.
         11    1    4    4    0    0 -0.55193272759E-01  0.80395028173E-03 -0.89603849591E-02  0.55923995865E-01  0.51100000000E-03 0.  1.
</event>
<event>
 8    1  0.1095698E+005  0.1043930E+01  0.7957747E-01            NaN
         13   -1    0    0    0    0  0.00000000000E+00  0.00000000000E+00  0.74505805969E-08  0.10566000000E+00  0.10566000000E+00 0.  1.
     999900   -1    0    0    0    0 -0.00000000000E+00 -0.00000000000E+00 -0.74505805969E-08  0.93827000000E+00  0.93827000000E+00 0. -1.
     999902    2    1    2    0    0 -0.13643534927E-01  0.66735752587E-02  0.15250439637E-01  0.10224065579E+01  0.10221799798E+01 0.  0.
     999903    2    3    3    0    0 -0.16927720794E-01  0.75627020656E-01  0.10838748276E+00  0.13480311471E+00  0.20446010163E-01 0.  0.
         14    1    1    2    0    0  0.13643534927E-01 -0.66735752587E-02 -0.15250439637E-01  0.21523442131E-01  0.00000000000E+00 0. -1.
     999901    1    3    3    0    0  0.32841858666E-02 -0.68953445398E-01 -0.93137043123E-01  0.88760344316E+00  0.88000000000E+00 0. -1.
        -11    1    4    4    0    0  0.75638328971E-03  0.42915079496E-01  0.56061639572E-01  0.70607681709E-01  0.51100000000E-03 0.  1.
         11    1    4    4    0    0 -0.17684104084E-01  0.32711941161E-01  0.52325843187E-01  0.64195433000E-01  0.51100000000E-03 0. -1.
</event>
<event>
 8    1  0.1095698E+005  0.1043930E+01  0.7957747E-01            NaN
         13   -1    0    0    0    0  0.00000000000E+00  0.00000000000E+00  0.74505805969E-08  0.10566000000E+00  0.10566000000E+00 0. -1.
     999900   -1    0    0    0    0 -0.00000000000E+00 -0.00000000000E+00 -0.74505805969E-08  0.93827000000E+00  0.93827000000E+00 0.  1.
     999902    2    1    2    0    0  0.10486913588E-01  0.70979429368E-02  0.19898642821E-01  0.10203437299E+01  0.10200710833E+01 0.  0.
     999903    2    3    3    0    0  0.85832824506E-01  0.97236784836E-01  0.20350851134E-01  0.13253619356E+00  0.18149913875E-01 0.  0.
         14    1    1    2    0    0 -0.10486913588E-01 -0.70979429368E-02 -0.19898642821E-01  0.23586270088E-01  0.00000000000E+00 0.  1.
     999901    1    3    3    0    0 -0.75345910917E-01 -0.90138841900E-01 -0.45220831331E-03  0.88780753635E+00  0.88000000000E+00 0. -1.
        -11    1    4    4    0    0  0.63780997778E-01  0.82692107440E-01  0.18412381553E-01  0.10604375147E+00  0.51100000000E-03 0.  1.
         11    1    4    4    0    0  0.22051826728E-01  0.14544677397E-01  0.19384695811E-02  0.26492442090E-01  0.51100000000E-03 0. -1.
</event>
<event>
 8    1  0.1095698E+005  0.1043930E+01  0.7957747E-01            NaN
         13   -1    0    0    0    0  0.00000000000E+00  0.00000000000E+00  0.74505805969E-08  0.10566000000E+00  0.10566000000E+00 0. -1.
     999900   -1    0    0    0    0 -0.00000000000E+00 -0.00000000000E+00 -0.74505805969E-08  0.93827000000E+00  0.93827000000E+00 0. -1.
     999902    2    1    2    0    0  0.10694878761E-01  0.20026903110E-01  0.98343010607E-02  0.10191879153E+01  0.10188875482E+01 0.  0.
     999903    2    3    3    0    0  0.84550459343E-02  0.70120659453E-01 -0.10726866230E+00  0.13001554429E+00  0.20225754874E-01 0.  0.
         14    1    1    2    0    0 -0.10694878761E-01 -0.20026903110E-01 -0.98343010607E-02  0.24742084739E-01  0.00000000000E+00 0.  1.
     999901    1    3    3    0    0  0.22398328267E-02 -0.50093756343E-01  0.11710296336E+00  0.88917237097E+00  0.88000000000E+00 0.  1.
        -11    1    4    4    0    0  0.11894834721E-01  0.32472608377E-01 -0.62374714693E-01  0.71321970961E-01  0.51100000000E-03 0. -1.
         11    1    4    4    0    0 -0.34397887866E-02  0.37648051076E-01 -0.44893947609E-01  0.58693573325E-01  0.51100000000E-03 0.  1.
</event>
<event>
 8    1  0.1095698E+005  0.1043930E+01  0.7957747E-01            NaN
         13   -1    0    0    0    0  0.00000000000E+00  0.00000000000E+00  0.74505805969E-08  0.10566000000E+00  0.10566000000E+00 0. -1.
     999900   -1    0    0    0    0 -0.00000000000E+00 -0.00000000000E+00 -0.74505805969E-08  0.93827000000E+00  0.93827000000E+00 0.  1.
     999902    2    1    2    0    0 -0.21240124312E-03  0.16362457154E-01  0.17686050865E-01  0.10198349484E+01  0.10195502687E+01 0.  0.
     999903    2    3    3    0    0 -0.10295365311E+00 -0.49752480601E-02  0.79008056695E-01  0.13148172419E+00  0.20517382663E-01 0.  0.
         14    1    1    2    0    0  0.21240124312E-03 -0.16362457154E-01 -0.17686050865E-01  0.24095051641E-01  0.00000000000E+00 0.  1.
     999901    1    3    3    0    0  0.10274125186E+00  0.21337705214E-01 -0.61322005830E-01  0.88835322417E+00  0.88000000000E+00 0.  1.
        -11    1    4    4    0    0 -0.64504131248E-01  0.67436788895E-02  0.50516920743E-01  0.82209978442E-01  0.51100000000E-03 0. -1.
         11    1    4    4    0    0 -0.38449521858E-01 -0.11718926950E-01  0.28491135951E-01  0.49271745745E-01  0.51100000000E-03 0.  1.
</event>
<event>
 8    1  0.1095698E+005  0.1043930E+01  0.7957747E-01            NaN
         13   -1    0    0    0    0  0.00000000000E+00  0.00000000000E+00  0.74505805969E-08  0.10566000000E+00  0.10566000000E+00 0.  1.
     999900   -1    0    0    0    0 -0.00000000000E+00 -0.00000000000E+00 -0.74505805969E-08  0.93827000000E+00  0.93827000000E+00 0.  1.
     999902    2    1    2    0    0 -0.15928270233E-01  0.16910531255E-01  0.59984536801E-02  0.10199371405E+01  0.10196548991E+01 0.  0.
     999903    2    3    3    0    0 -0.78153812488E-01  0.88816717888E-01  0.57992184528E-01  0.13328846948E+00  0.20156756888E-01 0.  0.
         14    1    1    2    0    0  0.15928270233E-01 -0.16910531255E-01 -0.59984536801E-02  0.23992859490E-01  0.00000000000E+00 0. -1.
     999901    1    3    3    0    0  0.62225542255E-01 -0.71906186633E-01 -0.51993730848E-01  0.88664867103E+00  0.88000000000E+00 0.  1.
        -11    1    4    4    0    0 -0.26728077743E-01  0.45253617766E-01  0.23455210119E-01  0.57555955934E-01  0.51100000000E-03 0. -1.
         11    1    4    4    0    0 -0.51425734744E-01  0.43563100123E-01  0.34536974409E-01  0.75732513550E-01  0.51100000000E-03 0.  1.
</event>
<event>
 8    1  0.1095698E+005  0.1043930E+01  0.7957747E-01            NaN
         13   -1    0    0    0    0  0.00000000000E+00  0.00000000000E+00  0.74505805969E-08  0.10566000000E+00  0.10566000000E+00 0. -1.
     999900   -1    0    0    0    0 -0.00000000000E+00 -0.00000000000E+00 -0.74505805969E-08  0.93827000000E+00  0.93827000000E+00 0. -1.
     999902    2    1    2    0    0 -0.80836251609E-02 -0.10646778190E-01 -0.20592100285E-01  0.10193793691E+01  0.10190836888E+01 0.  0.
     999903    2    3    3    0    0 -0.12453227350E+00 -0.18429787350E-01  0.27259164469E-01  0.13038521479E+00  0.20231114217E-01 0.  0.
         14    1    1    2    0    0  0.80836251609E-02  0.10646778190E-01  0.20592100285E-01  0.24550630862E-01  0.00000000000E+00 0. -1.
     999901    1    3    3    0    0  0.11644864834E+00  0.77830091602E-02 -0.47851264754E-01  0.88899415435E+00  0.88000000000E+00 0. -1.
        -11    1    4    4    0    0 -0.54352997140E-01 -0.85087808654E-03  0.45335655979E-02  0.54550771119E-01  0.51100000000E-03 0. -1.
         11    1    4    4    0    0 -0.70179276361E-01 -0.17578909264E-01  0.22725598871E-01  0.75834443668E-01  0.51100000000E-03 0.  1.
</event>
<event>
 8    1  0.1095698E+005  0.1043930E+01  0.7957747E-01            NaN
         13   -1    0    0    0    0  0.00000000000E+00  0.00000000000E+00  0.74505805969E-08  0.10566000000E+00  0.10566000000E+00 0.  1.
     999900   -1    0    0    0    0 -0.00000000000E+00 -0.00000000000E+00 -0.74505805969E-08  0.93827000000E+00  0.93827000000E+00 0.  1.
     999902    2    1    2    0    0  0.71876321206E-02  0.21060733586E-02 -0.21510492842E-01  0.10211528425E+01  0.10208987848E+01 0.  0.
     999903    2    3    3    0    0 -0.92029590996E-01 -0.90344544842E-01  0.30401079450E-02  0.13042622556E+00  0.19239949461E-01 0.  0.
         14    1    1    2    0    0 -0.71876321206E-02 -0.21060733586E-02  0.21510492842E-01  0.22777157478E-01  0.00000000000E+00 0.  1.
     999901    1    3    3    0    0  0.99217223117E-01  0.92450618201E-01 -0.24550600787E-01  0.89072661696E+00  0.88000000000E+00 0.  1.
        -11    1    4    4    0    0 -0.41317681120E-01 -0.32176211779E-01  0.85218594691E-02  0.53059801992E-01  0.51100000000E-03 0. -1.
         11    1    4    4    0    0 -0.50711909876E-01 -0.58168333063E-01 -0.54817515241E-02  0.77366423566E-01  0.51100000000E-03 0.  1.
</event>
<event>
 8    1  0.1095698E+005  0.1043930E+01  0.7957747E-01            NaN
         13   -1    0    0    0    0  0.00000000000E+00  0.00000000000E+00  0.74505805969E-08  0.10566000000E+00  0.10566000000E+00 0.  1.
     999900   -1    0    0    0    0 -0.00000000000E+00 -0.00000000000E+00 -0.74505805969E-08  0.93827000000E+00  0.93827000000E+00 0.  1.
     999902    2    1    2    0    0 -0.19919992664E-01  0.11262338770E-01 -0.66449907227E-02  0.10201013978E+01  0.10198230530E+01 0.  0.
     999903    2    3    3    0    0 -0.66186685605E-01 -0.74709356519E-01  0.81448489760E-01  0.13033052807E+00  0.19749044550E-01 0.  0.
         14    1    1    2    0    0  0.19919992664E-01 -0.11262338770E-01  0.66449907227E-02  0.23828602225E-01  0.00000000000E+00 0. -1.
     999901    1    3    3    0    0  0.46266692942E-01  0.85971695289E-01 -0.88093480483E-01  0.88977086970E+00  0.88000000000E+00 0. -1.
        -11    1    4    4    0    0 -0.59983722439E-01 -0.74023204833E-01  0.74269249362E-01  0.12080423972E+00  0.51100000000E-03 0.  1.
         11    1    4    4    0    0 -0.62029631661E-02 -0.68615168614E-03  0.71792403984E-02  0.95262883577E-02  0.51100000000E-03 0. -1.
</event>
<event>
 8    1  0.1095698E+005  0.1043930E+01  0.7957747E-01            NaN
         13   -1    0    0    0    0  0.00000000000E+00  0.00000000000E+00  0.74505805969E-08  0.10566000000E+00  0.10566000000E+00 0.  1.
     999900   -1    0    0    0    0 -0.00000000000E+00 -0.00000000000E+00 -0.74505805969E-08  0.93827000000E+00  0.93827000000E+00 0. -1.
     999902    2    1    2    0    0  0.84859140636E-03 -0.13918180781E-01  0.19646847122E-01  0.10198377924E+01  0.10195531808E+01 0.  0.
     999903    2    3    3    0    0 -0.12545322388E+00  0.23828025952E-01 -0.94176714853E-02  0.12954476713E+00  0.19668959039E-01 0.  0.
         14    1    1    2    0    0 -0.84859140636E-03  0.13918180781E-01 -0.19646847122E-01  0.24092207567E-01  0.00000000000E+00 0. -1.
     999901    1    3    3    0    0  0.12630181529E+00 -0.37746206732E-01  0.29064518607E-01  0.89029302531E+00  0.88000000000E+00 0.  1.
        -11    1    4    4    0    0 -0.42677579320E-01  0.66572445925E-02  0.59987456266E-02  0.43611245709E-01  0.51100000000E-03 0. -1.
         11    1    4    4    0    0 -0.82775644565E-01  0.17170781359E-01 -0.15416417112E-01  0.85933521418E-01  0.51100000000E-03 0.  1.
</event>
<event>
 8    1  0.1095698E+005  0.1043930E+01  0.7957747E-01            NaN
         13   -1    0    0    0    0  0.00000000000E+00  0.00000000000E+00  0.74505805969E-08  0.10566000000E+00  0.10566000000E+00 0. -1.
     999900   -1    0    0    0    0 -0.00000000000E+00 -0.00000000000E+00 -0.74505805969E-08  0.93827000000E+00  0.93827000000E+00 0. -1.
     999902    2    1    2    0    0 -0.24834124636E-03 -0.17442541690E-01 -0.16034977515E-01  0.10202356032E+01  0.10199604216E+01 0.  0.
     999903    2    3    3    0    0 -0.39225659768E-01 -0.59245480303E-01 -0.11100621213E+00  0.13328224909E+00  0.19826736221E-01 0.  0.
         14    1    1    2    0    0  0.24834124636E-03  0.17442541690E-01  0.16034977515E-01  0.23694396761E-01  0.00000000000E+00 0. -1.
     999901    1    3    3    0    0  0.38977318522E-01  0.41802938613E-01  0.94971234617E-01  0.88695335415E+00  0.88000000000E+00 0.  1.
        -11    1    4    4    0    0 -0.10729814615E-01 -0.17336167231E-01 -0.49812109706E-01  0.53825449467E-01  0.51100000000E-03 0.  1.
         11    1    4    4    0    0 -0.28495845153E-01 -0.41909313072E-01 -0.61194102426E-01  0.79456799621E-01  0.51100000000E-03 0. -1.
</event>
<event>
 8    1  0.1095698E+005  0.1043930E+01  0.7957747E-01            NaN
         13   -1    0    0    0    0  0.00000000000E+00  0.00000000000E+00  0.74505805969E-08  0.10566000000E+00  0.10566000000E+00 0.  1.
     999900   -1    0    0    0    0 -0.00000000000E+00 -0.00000000000E+00 -0.74505805969E-08  0.93827000000E+00  0.93827000000E+00 0.  1.
     999902    2    1    2    0    0  0.14767285428E-01 -0.67175096931E-03 -0.18222775310E-01  0.10204652710E+01  0.10201954596E+01 0.  0.
     999903    2    3    3    0    0  0.11672269022E+00 -0.29606490545E-01  0.49087093063E-01  0.13155428437E+00  0.19906188374E-01 0.  0.
         14    1    1    2    0    0 -0.14767285428E-01  0.67175096931E-03  0.18222775310E-01  0.23464729026E-01  0.00000000000E+00 0.  1.
     999901    1    3    3    0    0 -0.10195540480E+00  0.28934739576E-01 -0.67309868372E-01  0.88891098660E+00  0.88000000000E+00 0.  1.
        -11    1    4    4    0    0  0.17343584068E-01  0.77489990052E-04  0.13202869730E-01  0.21803275055E-01  0.51100000000E-03 0.  1.
         11    1    4    4    0    0  0.99379106156E-01 -0.29683980535E-01  0.35884223333E-01  0.10975100932E+00  0.51100000000E-03 0. -1.
</event>
<event>
 7    1  0.1095698E+005  0.1043930E+01  0.7957747E-01            NaN
         13   -1    0    0    0    0  0.00000000000E+00  0.00000000000E+00  0.74505805969E-08  0.10566000000E+00  0.10566000000E+00 0.  1.
     999900   -1    0    0    0    0 -0.00000000000E+00 -0.00000000000E+00 -0.74505805969E-08  0.93827000000E+00  0.93827000000E+00 0. -1.
     999903    2    1    2    0    0 -0.58606501189E-01 -0.28394763076E-01  0.88737057918E-01  0.11325470487E+00  0.26671673662E-01 0.  0.
         14    1    1    2    0    0 -0.25569439682E-01 -0.11238243340E-01 -0.34109901857E-01  0.44086049537E-01  0.00000000000E+00 0. -1.
     999901    1    1    2    0    0  0.84175940872E-01  0.39633006415E-01 -0.54627156060E-01  0.88658924559E+00  0.88000000000E+00 0. -1.
        -11    1    3    3    0    0 -0.20952237963E-01  0.26657685194E-02  0.21265390344E-01  0.29976333080E-01  0.51100000000E-03 0. -1.
         11    1    3    3    0    0 -0.37654263226E-01 -0.31060531595E-01  0.67471667574E-01  0.83278371792E-01  0.51100000000E-03 0.  1.
</event>
<event>
 8    1  0.1095698E+005  0.1043930E+01  0.7957747E-01            NaN
         13   -1    0    0    0    0  0.00000000000E+00  0.00000000000E+00  0.74505805969E-08  0.10566000000E+00  0.10566000000E+00 0.  1.
     999900   -1    0    0    0    0 -0.00000000000E+00 -0.00000000000E+00 -0.74505805969E-08  0.93827000000E+00  0.93827000000E+00 0. -1.
     999902    2    1    2    0    0  0.20296787597E-01  0.78653520584E-02 -0.76461911790E-02  0.10208586414E+01  0.10205979022E+01 0.  0.
     999903    2    3    3    0    0 -0.71185243892E-01  0.16926564736E-01 -0.10632073467E+00  0.13058467612E+00  0.19859795435E-01 0.  0.
         14    1    1    2    0    0 -0.20296787597E-01 -0.78653520584E-02  0.76461911790E-02  0.23071358636E-01  0.00000000000E+00 0.  1.
     999901    1    3    3    0    0  0.91482031489E-01 -0.90612126781E-02  0.98674543490E-01  0.89027396525E+00  0.88000000000E+00 0.  1.
        -11    1    4    4    0    0 -0.49045524905E-01  0.24139662591E-02 -0.73855663143E-01  0.88691661647E-01  0.51100000000E-03 0. -1.
         11    1    4    4    0    0 -0.22139718987E-01  0.14512598477E-01 -0.32465071526E-01  0.41893014472E-01  0.51100000000E-03 0.  1.
</event>
<event>
 8    1  0.1095698E+005  0.1043930E+01  0.7957747E-01            NaN
         13   -1    0    0    0    0  0.00000000000E+00  0.00000000000E+00  0.74505805969E-08  0.10566000000E+00  0.10566000000E+00 0.  1.
     999900   -1    0    0    0    0 -0.00000000000E+00 -0.00000000000E+00 -0.74505805969E-08  0.93827000000E+00  0.93827000000E+00 0.  1.
     999902    2    1    2    0    0  0.10455931263E-01  0.38232709053E-02 -0.20833096357E-01  0.10203087849E+01  0.10200353203E+01 0.  0.
     999903    2    3    3    0    0  0.93053720911E-01 -0.43437519287E-01 -0.81892964340E-01  0.13307472073E+00  0.21368449454E-01 0.  0.
         14    1    1    2    0    0 -0.10455931263E-01 -0.38232709053E-02  0.20833096357E-01  0.23621215100E-01  0.00000000000E+00 0.  1.
     999901    1    3    3    0    0 -0.82597789648E-01  0.47260790192E-01  0.61059867983E-01  0.88723406417E+00  0.88000000000E+00 0. -1.
        -11    1    4    4    0    0  0.52079426220E-01 -0.25759007047E-01 -0.32775380649E-01  0.66710417306E-01  0.51100000000E-03 0.  1.
         11    1    4    4    0    0  0.40974294691E-01 -0.17678512240E-01 -0.49117583691E-01  0.66364303425E-01  0.51100000000E-03 0. -1.
</event>
<event>
 8    1  0.1095698E+005  0.1043930E+01  0.7957747E-01            NaN
         13   -1    0    0    0    0  0.00000000000E+00  0.00000000000E+00  0.74505805969E-08  0.10566000000E+00  0.10566000000E+00 0.  1.
     999900   -1    0    0    0    0 -0.00000000000E+00 -0.00000000000E+00 -0.74505805969E-08  0.93827000000E+00  0.93827000000E+00 0.  1.
     999902    2    1    2    0    0 -0.24852382764E-02  0.22908523504E-01  0.54608112148E-03  0.10208805952E+01  0.10206203577E+01 0.  0.
     999903    2    3    3    0    0  0.97028866671E-01  0.88559185180E-01  0.46533909424E-03  0.13284170358E+00  0.19732496594E-01 0.  0.
         14    1    1    2    0    0  0.24852382764E-02 -0.22908523504E-01 -0.54608112148E-03  0.23049404830E-01  0.00000000000E+00 0.  1.
     999901    1    3    3    0    0 -0.99514104947E-01 -0.65650661676E-01  0.80742027234E-04  0.88803889159E+00  0.88000000000E+00 0.  1.
        -11    1    4    4    0    0  0.62377762602E-01  0.61331664636E-01 -0.84157266091E-02  0.87884264403E-01  0.51100000000E-03 0.  1.
         11    1    4    4    0    0  0.34651104069E-01  0.27227520544E-01  0.88810657034E-02  0.44957439175E-01  0.51100000000E-03 0. -1.
</event>
<event>
 8    1  0.1095698E+005  0.1043930E+01  0.7957747E-01            NaN
         13   -1    0    0    0    0  0.00000000000E+00  0.00000000000E+00  0.74505805969E-08  0.10566000000E+00  0.10566000000E+00 0.  1.
     999900   -1    0    0    0    0 -0.00000000000E+00 -0.00000000000E+00 -0.74505805969E-08  0.93827000000E+00  0.93827000000E+00 0. -1.
     999902    2    1    2    0    0 -0.90714429196E-02 -0.15447731639E-01 -0.15648038024E-01  0.10201437732E+01  0.10198664292E+01 0.  0.
     999903    2    3    3    0    0  0.76254258606E-01  0.72406758632E-01  0.69055145507E-01  0.12763410041E+00  0.21549937693E-01 0.  0.
         14    1    1    2    0    0  0.90714429196E-02  0.15447731639E-01  0.15648038024E-01  0.23786226759E-01  0.00000000000E+00 0.  1.
     999901    1    3    3    0    0 -0.85325701525E-01 -0.87854490272E-01 -0.84703183531E-01  0.89250967283E+00  0.88000000000E+00 0. -1.
        -11    1    4    4    0    0  0.18594040365E-01  0.31491191086E-01  0.21508599222E-01  0.42430112121E-01  0.51100000000E-03 0.  1.
         11    1    4    4    0    0  0.57660218241E-01  0.40915567546E-01  0.47546546286E-01  0.85203988286E-01  0.51100000000E-03 0. -1.
</event>
<event>
 8    1  0.1095698E+005  0.1043930E+01  0.7957747E-01            NaN
         13   -1    0    0    0    0  0.00000000000E+00  0.00000000000E+00  0.74505805969E-08  0.10566000000E+00  0.10566000000E+00 0. -1.
     999900   -1    0    0    0    0 -0.00000000000E+00 -0.00000000000E+00 -0.74505805969E-08  0.93827000000E+00  0.93827000000E+00 0.  1.
     999902    2    1    2    0    0 -0.18897720107E-01 -0.13982953784E-02  0.13672423744E-01  0.10205630527E+01  0.10202955113E+01 0.  0.
     999903    2    3    3    0    0 -0.60148173679E-02  0.10326146349E+00  0.79300903125E-01  0.13184108739E+00  0.19857774783E-01 0.  0.
         14    1    1    2    0    0  0.18897720107E-01  0.13982953784E-02 -0.13672423744E-01  0.23366947302E-01  0.00000000000E+00 0.  1.
     999901    1    3    3    0    0 -0.12882902739E-01 -0.10465975886E+00 -0.65628479381E-01  0.88872196530E+00  0.88000000000E+00 0.  1.
        -11    1    4    4    0    0 -0.12379024636E-01  0.77697946967E-01  0.55001456890E-01  0.95998086413E-01  0.51100000000E-03 0. -1.
         11    1    4    4    0    0  0.63642072685E-02  0.25563516519E-01  0.24299446235E-01  0.35843000981E-01  0.51100000000E-03 0.  1.
</event>
<event>
 8    1  0.1095698E+005  0.1043930E+01  0.7957747E-01            NaN
         13   -1    0    0    0    0  0.00000000000E+00  0.00000000000E+00  0.74505805969E-08  0.10566000000E+00  0.10566000000E+00 0.  1.
     999900   -1    0    0    0    0 -0.00000000000E+00 -0.00000000000E+00 -0.74505805969E-08  0.93827000000E+00  0.93827000000E+00 0. -1.
     999902    2    1    2    0    0 -0.17908320599E-01  0.15185446134E-01 -0.40610878540E-02  0.10201014844E+01  0.10198231417E+01 0.  0.
     999903    2    3    3    0    0 -0.25779048107E-01 -0.90530717400E-01 -0.87325501978E-01  0.12983701907E+00  0.19275323861E-01 0.  0.
         14    1    1    2    0    0  0.17908320599E-01 -0.15185446134E-01  0.40610878540E-02  0.23828515596E-01  0.00000000000E+00 0. -1.
     999901    1    3    3    0    0  0.78707275083E-02  0.10571616353E+00  0.83264414124E-01  0.89026446534E+00  0.88000000000E+00 0.  1.
        -11    1    4    4    0    0 -0.19591289883E-01 -0.50936043052E-01 -0.61176522588E-01  0.81982480800E-01  0.51100000000E-03 0.  1.
         11    1    4    4    0    0 -0.61877582242E-02 -0.39594674348E-01 -0.26148979390E-01  0.47854538266E-01  0.51100000000E-03 0. -1.
</event>
<event>
 8    1  0.1095698E+005  0.1043930E+01  0.7957747E-01            NaN
         13   -1    0    0    0    0  0.00000000000E+00  0.00000000000E+00  0.74505805969E-08  0.10566000000E+00  0.10566000000E+00 0. -1.
     999900   -1    0    0    0    0 -0.00000000000E+00 -0.00000000000E+00 -0.74505805969E-08  0.93827000000E+00  0.93827000000E+00 0.  1.
     999902    2    1    2    0    0 -0.72534278232E-02 -0.34168319835E-02 -0.24994385345E-01  0.10176810714E+01  0.10173424973E+01 0.  0.
     999903    2    3    3    0    0  0.67176377768E-01  0.10470524671E+00  0.16010096385E-01  0.12700068683E+00  0.19924779843E-01 0.  0.
         14    1    1    2    0    0  0.72534278232E-02  0.34168319835E-02  0.24994385345E-01  0.26248928640E-01  0.00000000000E+00 0. -1.
     999901    1    3    3    0    0 -0.74429805591E-01 -0.10812207869E+00 -0.41004481730E-01  0.89068038453E+00  0.88000000000E+00 0. -1.
        -11    1    4    4    0    0  0.94538069875E-03  0.76294202407E-02 -0.23540096944E-02  0.80563192908E-02  0.51100000000E-03 0.  1.
         11    1    4    4    0    0  0.66230997069E-01  0.97075826465E-01  0.18364106080E-01  0.11894436754E+00  0.51100000000E-03 0. -1.
</event>
<event>
 8    1  0.1095698E+005  0.1043930E+01  0.7957747E-01            NaN
         13   -1    0    0    0    0  0.00000000000E+00  0.00000000000E+00  0.74505805969E-08  0.10566000000E+00  0.10566000000E+00 0.  1.
     999900   -1    0    0    0    0 -0.00000000000E+00 -0.00000000000E+00 -0.74505805969E-08  0.93827000000E+00  0.93827000000E+00 0.  1.
     999902    2    1    2    0    0  0.35650727674E-02 -0.15625045570E-01  0.17636671965E-01  0.10200992637E+01  0.10198208685E+01 0.  0.
     999903    2    3    3    0    0  0.10773086637E+00  0.68991195136E-03  0.73839441840E-01  0.13202525683E+00  0.19287035092E-01 0.  0.
         14    1    1    2    0    0 -0.35650727674E-02  0.15625045570E-01 -0.17636671965E-01  0.23830736264E-01  0.00000000000E+00 0. -1.
     999901    1    3    3    0    0 -0.10416579360E+00 -0.16314957521E-01 -0.56202769875E-01  0.88807400690E+00  0.88000000000E+00 0. -1.
        -11    1    4    4    0    0  0.36750643725E-01  0.86011814055E-02  0.21122078167E-01  0.43254981712E-01  0.51100000000E-03 0. -1.
         11    1    4    4    0    0  0.70980222646E-01 -0.79112694542E-02  0.52717363672E-01  0.88770275120E-01  0.51100000000E-03 0.  1.
</event>
<event>
 8    1  0.1095698E+005  0.1043930E+01  0.7957747E-01            NaN
         13   -1    0    0    0    0  0.00000000000E+00  0.00000000000E+00  0.74505805969E-08  0.10566000000E+00  0.10566000000E+00 0. -1.
     999900   -1    0    0    0    0 -0.00000000000E+00 -0.00000000000E+00 -0.74505805969E-08  0.93827000000E+00  0.93827000000E+00 0.  1.
     999902    2    1    2    0    0  0.20133198827E-01 -0.12837965417E-01 -0.89171488622E-03  0.10200353519E+01  0.10197554437E+01 0.  0.
     999903    2    3    3    0    0 -0.15612582273E-01  0.12304995105E+00  0.26623221336E-01  0.12846350489E+00  0.20224564180E-01 0.  0.
         14    1    1    2    0    0 -0.20133198827E-01  0.12837965417E-01  0.89171488622E-03  0.23894648072E-01  0.00000000000E+00 0.  1.
     999901    1    3    3    0    0  0.35745781100E-01 -0.13588791647E+00 -0.27514936222E-01  0.89157184703E+00  0.88000000000E+00 0.  1.
        -11    1    4    4    0    0 -0.17250513987E-01  0.72079095725E-01  0.98043075509E-02  0.74762034756E-01  0.51100000000E-03 0.  1.
         11    1    4    4    0    0  0.16379317140E-02  0.50970855327E-01  0.16818913785E-01  0.53701470138E-01  0.51100000000E-03 0. -1.
</event>
<event>
 8    1  0.1095698E+005  0.1043930E+01  0.7957747E-01            NaN
         13   -1    0    0    0    0  0.00000000000E+00  0.00000000000E+00  0.74505805969E-08  0.10566000000E+00  0.10566000000E+00 0. -1.
     999900   -1    0    0    0    0 -0.00000000000E+00 -0.00000000000E+00 -0.74505805969E-08  0.93827000000E+00  0.93827000000E+00 0.  1.
     999902    2    1    2    0    0 -0.52205218142E-02  0.21649537407E-01  0.83089657613E-02  0.10201603717E+01  0.10198834192E+01 0.  0.
     999903    2    3    3    0    0  0.10480948505E+00  0.59782413139E-01 -0.46238467401E-01  0.13081446537E+00  0.20382919439E-01 0.  0.
         14    1    1    2    0    0  0.52205218142E-02 -0.21649537407E-01 -0.83089657613E-02  0.23769628310E-01  0.00000000000E+00 0.  1.
     999901    1    3    3    0    0 -0.11003000687E+00 -0.38132875732E-01  0.54547433163E-01  0.88934590632E+00  0.88000000000E+00 0. -1.
        -11    1    4    4    0    0  0.46563831184E-01  0.15802467767E-01 -0.22371748212E-01  0.54024666599E-01  0.51100000000E-03 0. -1.
         11    1    4    4    0    0  0.58245653868E-01  0.43979945373E-01 -0.23866719190E-01  0.76789798772E-01  0.51100000000E-03 0.  1.
</event>
<event>
 7    1  0.1095698E+005  0.1043930E+01  0.7957747E-01            NaN
         13   -1    0    0    0    0  0.00000000000E+00  0.00000000000E+00  0.74505805969E-08  0.10566000000E+00  0.10566000000E+00 0. -1.
     999900   -1    0    0    0    0 -0.00000000000E+00 -0.00000000000E+00 -0.74505805969E-08  0.93827000000E+00  0.93827000000E+00 0. -1.
     999903    2    1    2    0    0 -0.14573068938E-01 -0.11082049861E-01 -0.94622446002E-01  0.98444116953E-01  0.20066158274E-01 0.  0.
         14    1    1    2    0    0  0.26351298238E-02 -0.42235146088E-01 -0.34226627696E-01  0.54426220865E-01  0.00000000000E+00 0.  1.
     999901    1    1    2    0    0  0.11937939115E-01  0.53317195948E-01  0.12884907370E+00  0.89105966218E+00  0.88000000000E+00 0.  1.
        -11    1    3    3    0    0 -0.11389065392E-01 -0.69371730390E-02 -0.22715020226E-01  0.26345178784E-01  0.51100000000E-03 0. -1.
         11    1    3    3    0    0 -0.31840035466E-02 -0.41448768217E-02 -0.71907425776E-01  0.72098938170E-01  0.51100000000E-03 0.  1.
</event>
<event>
 8    1  0.1134121E+005  0.1043930E+01  0.7957747E-01            NaN
         13   -1    0    0    0    0  0.00000000000E+00  0.00000000000E+00  0.74505805969E-08  0.10566000000E+00  0.10566000000E+00 0.  1.
     999900   -1    0    0    0    0 -0.00000000000E+00 -0.00000000000E+00 -0.74505805969E-08  0.93827000000E+00  0.93827000000E+00 0. -1.
     999902    2    1    2    0    0  0.15470227073E-01  0.69092210633E-04  0.16782924371E-01  0.10211045920E+01  0.10208494446E+01 0.  0.
     999903    2    3    3    0    0  0.44474059600E-01  0.12116367767E+00 -0.16879700062E-01  0.13170125650E+00  0.20042902169E-01 0.  0.
         14    1    1    2    0    0 -0.15470227073E-01 -0.69092210633E-04 -0.16782924371E-01  0.22825407989E-01  0.00000000000E+00 0. -1.
     999901    1    3    3    0    0 -0.29003832527E-01 -0.12109458546E+00  0.33662624433E-01  0.88940333551E+00  0.88000000000E+00 0. -1.
        -11    1    4    4    0    0  0.14988214738E-01  0.52586561015E-01  0.19354143249E-02  0.54717455442E-01  0.51100000000E-03 0.  1.
         11    1    4    4    0    0  0.29485844862E-01  0.68577116651E-01 -0.18815114387E-01  0.76983801061E-01  0.51100000000E-03 0. -1.
</event>
<event>
 8    1  0.1095698E+005  0.1043930E+01  0.7957747E-01            NaN
         13   -1    0    0    0    0  0.00000000000E+00  0.00000000000E+00  0.74505805969E-08  0.10566000000E+00  0.10566000000E+00 0.  1.
     999900   -1    0    0    0    0 -0.00000000000E+00 -0.00000000000E+00 -0.74505805969E-08  0.93827000000E+00  0.93827000000E+00 0.  1.
     999902    2    1    2    0    0  0.13203982781E-01 -0.18432668699E-01  0.76573920334E-02  0.10199979276E+01  0.10197171315E+01 0.  0.
     999903    2    3    3    0    0 -0.99469634923E-01 -0.23320148745E-01  0.77842943498E-01  0.13002869037E+00  0.20245959014E-01 0.  0.
         14    1    1    2    0    0 -0.13203982781E-01  0.18432668699E-01 -0.76573920334E-02  0.23932072401E-01  0.00000000000E+00 0. -1.
     999901    1    3    3    0    0  0.11267361770E+00  0.48874800453E-02 -0.70185551465E-01  0.88996923723E+00  0.88000000000E+00 0. -1.
        -11    1    4    4    0    0 -0.83663267723E-01 -0.11738195077E-01  0.61327516538E-01  0.10439661391E+00  0.51100000000E-03 0.  1.
         11    1    4    4    0    0 -0.15806367200E-01 -0.11581953668E-01  0.16515426960E-01  0.25632076457E-01  0.51100000000E-03 0. -1.
</event>
<event>
 8    1  0.1095698E+005  0.1043930E+01  0.7957747E-01            NaN
         13   -1    0    0    0    0  0.00000000000E+00  0.00000000000E+00  0.74505805969E-08  0.10566000000E+00  0.10566000000E+00 0.  1.
     999900   -1    0    0    0    0 -0.00000000000E+00 -0.00000000000E+00 -0.74505805969E-08  0.93827000000E+00  0.93827000000E+00 0. -1.
     999902    2    1    2    0    0 -0.13527538336E-01  0.65350757474E-02  0.18031070234E-01  0.10204604239E+01  0.10201904997E+01 0.  0.
     999903    2    3    3    0    0  0.11671490484E+00 -0.37909878804E-01  0.36054641939E-01  0.12958260000E+00  0.20789061881E-01 0.  0.
         14    1    1    2    0    0  0.13527538336E-01 -0.65350757474E-02 -0.18031070234E-01  0.23469576099E-01  0.00000000000E+00 0. -1.
     999901    1    3    3    0    0 -0.13024244318E+00  0.44444954552E-01 -0.18023571705E-01  0.89087782391E+00  0.88000000000E+00 0.  1.
        -11    1    4    4    0    0  0.60020105005E-01 -0.86378019289E-02  0.16484618199E-01  0.62841295222E-01  0.51100000000E-03 0.  1.
         11    1    4    4    0    0  0.56694799834E-01 -0.29272076875E-01  0.19570023740E-01  0.66741304774E-01  0.51100000000E-03 0. -1.
</event>
<event>
 8    1  0.1095698E+005  0.1043930E+01  0.7957747E-01            NaN
         13   -1    0    0    0    0  0.00000000000E+00  0.00000000000E+00  0.74505805969E-08  0.10566000000E+00  0.10566000000E+00 0.  1.
     999900   -1    0    0    0    0 -0.00000000000E+00 -0.00000000000E+00 -0.74505805969E-08  0.93827000000E+00  0.93827000000E+00 0. -1.
     999902    2    1    2    0    0  0.20334434868E-01  0.93383326515E-02 -0.12467343830E-02  0.10215191088E+01  0.10212732453E+01 0.  0.
     999903    2    3    3    0    0  0.71193540412E-01 -0.88613484290E-01 -0.64722445459E-01  0.13235637174E+00  0.20207533260E-01 0.  0.
         14    1    1    2    0    0 -0.20334434868E-01 -0.93383326515E-02  0.12467343830E-02  0.22410891208E-01  0.00000000000E+00 0. -1.
     999901    1    3    3    0    0 -0.50859105545E-01  0.97951816942E-01  0.63475711076E-01  0.88916273705E+00  0.88000000000E+00 0.  1.
        -11    1    4    4    0    0  0.58717219029E-01 -0.65214129345E-01 -0.41365625082E-01  0.97015310833E-01  0.51100000000E-03 0. -1.
         11    1    4    4    0    0  0.12476321383E-01 -0.23399354946E-01 -0.23356820377E-01  0.35341060910E-01  0.51100000000E-03 0.  1.
</event>
<event>
 8    1  0.1095698E+005  0.1043930E+01  0.7957747E-01            NaN
         13   -1    0    0    0    0  0.00000000000E+00  0.00000000000E+00  0.74505805969E-08  0.10566000000E+00  0.10566000000E+00 0.  1.
     999900   -1    0    0    0    0 -0.00000000000E+00 -0.00000000000E+00 -0.74505805969E-08  0.93827000000E+00  0.93827000000E+00 0.  1.
     999902    2    1    2    0    0  0.55319474437E-02 -0.52319193452E-02 -0.20198613918E-01  0.10223439066E+01  0.10221159934E+01 0.  0.
     999903    2    3    3    0    0 -0.19350375330E-01 -0.11554449404E+00  0.57499156040E-01  0.13171214346E+00  0.17803613671E-01 0.  0.
         14    1    1    2    0    0 -0.55319474437E-02  0.52319193452E-02  0.20198613918E-01  0.21586093365E-01  0.00000000000E+00 0.  1.
     999901    1    3    3    0    0  0.24882322774E-01  0.11031257470E+00 -0.77697769958E-01  0.89063176318E+00  0.88000000000E+00 0.  1.
        -11    1    4    4    0    0 -0.11028777098E-01 -0.55243688997E-01  0.17983798101E-01  0.59136936118E-01  0.51100000000E-03 0.  1.
         11    1    4    4    0    0 -0.83215982323E-02 -0.60300805047E-01  0.39515357939E-01  0.72575207340E-01  0.51100000000E-03 0. -1.
</event>
<event>
 8    1  0.1095698E+005  0.1043930E+01  0.7957747E-01            NaN
         13   -1    0    0    0    0  0.00000000000E+00  0.00000000000E+00  0.74505805969E-08  0.10566000000E+00  0.10566000000E+00 0. -1.
     999900   -1    0    0    0    0 -0.00000000000E+00 -0.00000000000E+00 -0.74505805969E-08  0.93827000000E+00  0.93827000000E+00 0.  1.
     999902    2    1    2    0    0 -0.75480810561E-02  0.22659546107E-01 -0.12669285737E-02  0.10200127747E+01  0.10197323310E+01 0.  0.
     999903    2    3    3    0    0 -0.12877655463E+00 -0.57130149093E-03  0.13943705388E-01  0.13126794155E+00  0.21286572123E-01 0.  0.
         14    1    1    2    0    0  0.75480810561E-02 -0.22659546107E-01  0.12669285737E-02  0.23917225287E-01  0.00000000000E+00 0.  1.
     999901    1    3    3    0    0  0.12122847357E+00  0.23230847598E-01 -0.15210633961E-01  0.88874483316E+00  0.88000000000E+00 0.  1.
        -11    1    4    4    0    0 -0.79827712276E-01 -0.50900392021E-03  0.18985312541E-01  0.82057455149E-01  0.51100000000E-03 0.  1.
         11    1    4    4    0    0 -0.48948842350E-01 -0.62297570716E-04 -0.50416071536E-02  0.49210486404E-01  0.51100000000E-03 0. -1.
</event>
<event>
 8    1  0.1095698E+005  0.1043930E+01  0.7957747E-01            NaN
         13   -1    0    0    0    0  0.00000000000E+00  0.00000000000E+00  0.74505805969E-08  0.10566000000E+00  0.10566000000E+00 0. -1.
     999900   -1    0    0    0    0 -0.00000000000E+00 -0.00000000000E+00 -0.74505805969E-08  0.93827000000E+00  0.93827000000E+00 0.  1.
     999902    2    1    2    0    0  0.19891729176E-01  0.10753424026E-01 -0.52723067480E-02  0.10207111663E+01  0.10204470446E+01 0.  0.
     999903    2    3    3    0    0 -0.11290826044E+00  0.15979985259E-01 -0.57472869492E-01  0.12920230327E+00  0.19658820869E-01 0.  0.
         14    1    1    2    0    0 -0.19891729176E-01 -0.10753424026E-01  0.52723067480E-02  0.23218833656E-01  0.00000000000E+00 0.  1.
     999901    1    3    3    0    0  0.13279998962E+00 -0.52265612332E-02  0.52200562743E-01  0.89150886307E+00  0.88000000000E+00 0. -1.
        -11    1    4    4    0    0 -0.28376304210E-01  0.30717982899E-02 -0.24269784516E-01  0.37469109234E-01  0.51100000000E-03 0. -1.
         11    1    4    4    0    0 -0.84531956234E-01  0.12908186969E-01 -0.33203084976E-01  0.91733194038E-01  0.51100000000E-03 0.  1.
</event>
<event>
 8    1  0.1095698E+005  0.1043930E+01  0.7957747E-01            NaN
         13   -1    0    0    0    0  0.00000000000E+00  0.00000000000E+00  0.74505805969E-08  0.10566000000E+00  0.10566000000E+00 0. -1.
     999900   -1    0    0    0    0 -0.00000000000E+00 -0.00000000000E+00 -0.74505805969E-08  0.93827000000E+00  0.93827000000E+00 0.  1.
     999902    2    1    2    0    0 -0.18439153500E-01 -0.91308859052E-02  0.40735053025E-02  0.10229545643E+01  0.10227394935E+01 0.  0.
     999903    2    3    3    0    0  0.43744179384E-01  0.11998440929E+00  0.22234237753E-01  0.13117693584E+00  0.20080225705E-01 0.  0.
         14    1    1    2    0    0  0.18439153500E-01  0.91308859052E-02 -0.40735053025E-02  0.20975435744E-01  0.00000000000E+00 0.  1.
     999901    1    3    3    0    0 -0.62183332885E-01 -0.12911529520E+00 -0.18160732451E-01  0.89177762842E+00  0.88000000000E+00 0.  1.
        -11    1    4    4    0    0  0.11994033777E-01  0.51872415694E-01  0.16796980915E-01  0.55830135635E-01  0.51100000000E-03 0.  1.
         11    1    4    4    0    0  0.31750145607E-01  0.68111993597E-01  0.54372568382E-02  0.75346800203E-01  0.51100000000E-03 0. -1.
</event>
<event>
 8    1  0.1095698E+005  0.1043930E+01  0.7957747E-01            NaN
         13   -1    0    0    0    0  0.00000000000E+00  0.00000000000E+00  0.74505805969E-08  0.10566000000E+00  0.10566000000E+00 0. -1.
     999900   -1    0    0    0    0 -0.00000000000E+00 -0.00000000000E+00 -0.74505805969E-08  0.93827000000E+00  0.93827000000E+00 0.  1.
     999902    2    1    2    0    0  0.11313562033E-01 -0.14748174924E-01 -0.79657271005E-02  0.10237072861E+01  0.10235075229E+01 0.  0.
     999903    2    3    3    0    0  0.54182393748E-01  0.11894006459E+00  0.68542666628E-02  0.13245540569E+00  0.20371125842E-01 0.  0.
         14    1    1    2    0    0 -0.11313562033E-01  0.14748174924E-01  0.79657271005E-02  0.20222713906E-01  0.00000000000E+00 0. -1.
     999901    1    3    3    0    0 -0.42868831715E-01 -0.13368823951E+00 -0.14819993763E-01  0.89125188041E+00  0.88000000000E+00 0.  1.
        -11    1    4    4    0    0  0.19304154668E-01  0.25144141232E-01  0.65967261880E-02  0.32382960691E-01  0.51100000000E-03 0. -1.
         11    1    4    4    0    0  0.34878239080E-01  0.93795923354E-01  0.25754047479E-03  0.10007244499E+00  0.51100000000E-03 0.  1.
</event>
<event>
 8    1  0.1095698E+005  0.1043930E+01  0.7957747E-01            NaN
         13   -1    0    0    0    0  0.00000000000E+00  0.00000000000E+00  0.74505805969E-08  0.10566000000E+00  0.10566000000E+00 0. -1.
     999900   -1    0    0    0    0 -0.00000000000E+00 -0.00000000000E+00 -0.74505805969E-08  0.93827000000E+00  0.93827000000E+00 0.  1.
     999902    2    1    2    0    0 -0.12710720372E-01 -0.18254023173E-01 -0.81092642835E-02  0.10202544442E+01  0.10199797052E+01 0.  0.
     999903    2    3    3    0    0  0.10415637668E+00 -0.30858923850E-01 -0.69103681452E-01  0.13034595408E+00  0.20345146117E-01 0.  0.
         14    1    1    2    0    0  0.12710720372E-01  0.18254023173E-01  0.81092642835E-02  0.23675555782E-01  0.00000000000E+00 0.  1.
     999901    1    3    3    0    0 -0.11686709705E+00  0.12604900678E-01  0.60994417168E-01  0.88990849014E+00  0.88000000000E+00 0. -1.
        -11    1    4    4    0    0  0.43387285504E-01 -0.21447516289E-01 -0.37343399865E-01  0.61132995451E-01  0.51100000000E-03 0. -1.
         11    1    4    4    0    0  0.60769091177E-01 -0.94114075610E-02 -0.31760281587E-01  0.69212958629E-01  0.51100000000E-03 0.  1.
</event>
<event>
 8    1  0.1095698E+005  0.1043930E+01  0.7957747E-01            NaN
         13   -1    0    0    0    0  0.00000000000E+00  0.00000000000E+00  0.74505805969E-08  0.10566000000E+00  0.10566000000E+00 0. -1.
     999900   -1    0    0    0    0 -0.00000000000E+00 -0.00000000000E+00 -0.74505805969E-08  0.93827000000E+00  0.93827000000E+00 0.  1.
     999902    2    1    2    0    0 -0.12609392511E-01 -0.17318459545E-01  0.95430938077E-02  0.10204779967E+01  0.10202084813E+01 0.  0.
     999903    2    3    3    0    0  0.63888054940E-01  0.53876463977E-01 -0.95323265003E-01  0.12811174350E+00  0.18486130916E-01 0.  0.
         14    1    1    2    0    0  0.12609392511E-01  0.17318459545E-01 -0.95430938077E-02  0.23452003325E-01  0.00000000000E+00 0.  1.
     999901    1    3    3    0    0 -0.76497447451E-01 -0.71194923522E-01  0.10486635881E+00  0.89236625318E+00  0.88000000000E+00 0. -1.
        -11    1    4    4    0    0  0.53270459845E-01  0.50701163851E-01 -0.75521299712E-01  0.10541384036E+00  0.51100000000E-03 0.  1.
         11    1    4    4    0    0  0.10617595095E-01  0.31753001262E-02 -0.19801965291E-01  0.22697903138E-01  0.51100000000E-03 0. -1.
</event>
<event>
 8    1  0.1222509E+005  0.1043930E+01  0.7957747E-01            NaN
         13   -1    0    0    0    0  0.00000000000E+00  0.00000000000E+00  0.74505805969E-08  0.10566000000E+00  0.10566000000E+00 0. -1.
     999900   -1    0    0    0    0 -0.00000000000E+00 -0.00000000000E+00 -0.74505805969E-08  0.93827000000E+00  0.93827000000E+00 0.  1.
     999902    2    1    2    0    0  0.61920589034E-02  0.21842511152E-01 -0.23575583082E-02  0.10211046858E+01  0.10208495405E+01 0.  0.
     999903    2    3    3    0    0  0.27504050941E-01  0.80179044370E-01 -0.10128073051E+00  0.13338674293E+00  0.18683812279E-01 0.  0.
         14    1    1    2    0    0 -0.61920589034E-02 -0.21842511152E-01  0.23575583082E-02  0.22825314194E-01  0.00000000000E+00 0. -1.
     999901    1    3    3    0    0 -0.21311992037E-01 -0.58336533218E-01  0.98923172203E-01  0.88771794288E+00  0.88000000000E+00 0. -1.
        -11    1    4    4    0    0  0.20383932995E-01  0.32715134388E-01 -0.50202325572E-01  0.63295492385E-01  0.51100000000E-03 0.  1.
         11    1    4    4    0    0  0.71201179458E-02  0.47463909981E-01 -0.51078404940E-01  0.70091250541E-01  0.51100000000E-03 0. -1.
</event>
<event>
 8    1  0.1095698E+005  0.1043930E+01  0.7957747E-01            NaN
         13   -1    0    0    0    0  0.00000000000E+00  0.00000000000E+00  0.74505805969E-08  0.10566000000E+00  0.10566000000E+00 0.  1.
     999900   -1    0    0    0    0 -0.00000000000E+00 -0.00000000000E+00 -0.74505805969E-08  0.93827000000E+00  0.93827000000E+00 0. -1.
     999902    2    1    2    0    0  0.13504407144E-01 -0.18652556757E-01  0.35919772623E-02  0.10206235806E+01  0.10203574393E+01 0.  0.
     999903    2    3    3    0    0  0.98318787379E-01 -0.77173847924E-01  0.42918147390E-01  0.13373871303E+00  0.20535073245E-01 0.  0.
         14    1    1    2    0    0 -0.13504407144E-01  0.18652556757E-01 -0.35919772623E-02  0.23306419428E-01  0.00000000000E+00 0. -1.
     999901    1    3    3    0    0 -0.84814380234E-01  0.58521291166E-01 -0.39326170127E-01  0.88688486754E+00  0.88000000000E+00 0.  1.
        -11    1    4    4    0    0  0.73188773630E-01 -0.45454725515E-01  0.30718053287E-01  0.91469058024E-01  0.51100000000E-03 0.  1.
         11    1    4    4    0    0  0.25130013749E-01 -0.31719122408E-01  0.12200094102E-01  0.42269655008E-01  0.51100000000E-03 0. -1.
</event>
<event>
 8    1  0.1481632E+005  0.1043930E+01  0.7957747E-01            NaN
         13   -1    0    0    0    0  0.00000000000E+00  0.00000000000E+00  0.74505805969E-08  0.10566000000E+00  0.10566000000E+00 0.  1.
     999900   -1    0    0    0    0 -0.00000000000E+00 -0.00000000000E+00 -0.74505805969E-08  0.93827000000E+00  0.93827000000E+00 0. -1.
     999902    2    1    2    0    0 -0.12123403106E-01  0.65022407587E-02  0.18215065829E-01  0.10211035973E+01  0.10208484274E+01 0.  0.
     999903    2    3    3    0    0  0.97043035771E-01  0.31633669757E-01  0.80945771130E-01  0.13178698241E+00  0.19938681393E-01 0.  0.
         14    1    1    2    0    0  0.12123403106E-01 -0.65022407587E-02 -0.18215065829E-01  0.22826402715E-01  0.00000000000E+00 0. -1.
     999901    1    3    3    0    0 -0.10916643888E+00 -0.25131428998E-01 -0.62730705300E-01  0.88931661487E+00  0.88000000000E+00 0.  1.
        -11    1    4    4    0    0  0.49787563982E-01  0.68566675546E-02  0.44884567130E-01  0.67384723081E-01  0.51100000000E-03 0. -1.
         11    1    4    4    0    0  0.47255471789E-01  0.24777002203E-01  0.36061204000E-01  0.64402259332E-01  0.51100000000E-03 0.  1.
</event>
<event>
 8    1  0.1095698E+005  0.1043930E+01  0.7957747E-01            NaN
         13   -1    0    0    0    0  0.00000000000E+00  0.00000000000E+00  0.74505805969E-08  0.10566000000E+00  0.10566000000E+00 0.  1.
     999900   -1    0    0    0    0 -0.00000000000E+00 -0.00000000000E+00 -0.74505805969E-08  0.93827000000E+00  0.93827000000E+00 0. -1.
     999902    2    1    2    0    0  0.12432817204E-01  0.18944918920E-01  0.44404215543E-02  0.10208388277E+01  0.10205776354E+01 0.  0.
     999903    2    3    3    0    0 -0.11453469067E+00  0.57962568374E-01  0.18684329159E-01  0.13075680114E+00  0.16443302279E-01 0.  0.
         14    1    1    2    0    0 -0.12432817204E-01 -0.18944918920E-01 -0.44404215543E-02  0.23091172342E-01  0.00000000000E+00 0. -1.
     999901    1    3    3    0    0  0.12696750787E+00 -0.39017649453E-01 -0.14243907605E-01  0.89008202652E+00  0.88000000000E+00 0.  1.
        -11    1    4    4    0    0 -0.10916255253E+00  0.50692449061E-01  0.17525190994E-01  0.12162886461E+00  0.51100000000E-03 0. -1.
         11    1    4    4    0    0 -0.53721381394E-02  0.72701193131E-02  0.11591381656E-02  0.91279365304E-02  0.51100000000E-03 0.  1.
</event>
<event>
 8    1  0.1095698E+005  0.1043930E+01  0.7957747E-01            NaN
         13   -1    0    0    0    0  0.00000000000E+00  0.00000000000E+00  0.74505805969E-08  0.10566000000E+00  0.10566000000E+00 0.  1.
     999900   -1    0    0    0    0 -0.00000000000E+00 -0.00000000000E+00 -0.74505805969E-08  0.93827000000E+00  0.93827000000E+00 0.  1.
     999902    2    1    2    0    0  0.64655403319E-02  0.20899204018E-01 -0.70009996367E-02  0.10209605869E+01  0.10207021731E+01 0.  0.
     999903    2    3    3    0    0  0.65305646590E-02  0.12748728592E+00 -0.35762709243E-01  0.13406247590E+00  0.19952937792E-01 0.  0.
         14    1    1    2    0    0 -0.64655403319E-02 -0.20899204018E-01  0.70009996367E-02  0.22969413059E-01  0.00000000000E+00 0. -1.
     999901    1    3    3    0    0 -0.65024327085E-04 -0.10658808190E+00  0.28761709607E-01  0.88689811104E+00  0.88000000000E+00 0. -1.
        -11    1    4    4    0    0  0.10365939996E-01  0.89269832909E-01 -0.32278416898E-01  0.95491953054E-01  0.51100000000E-03 0.  1.
         11    1    4    4    0    0 -0.38353753373E-02  0.38217453008E-01 -0.34842923452E-02  0.38570522845E-01  0.51100000000E-03 0. -1.
</event>
<event>
 8    1  0.1095698E+005  0.1043930E+01  0.7957747E-01            NaN
         13   -1    0    0    0    0  0.00000000000E+00  0.00000000000E+00  0.74505805969E-08  0.10566000000E+00  0.10566000000E+00 0. -1.
     999900   -1    0    0    0    0 -0.00000000000E+00 -0.00000000000E+00 -0.74505805969E-08  0.93827000000E+00  0.93827000000E+00 0. -1.
     999902    2    1    2    0    0 -0.16165276347E-01  0.17974980712E-01 -0.32603176095E-03  0.10197531022E+01  0.10194664619E+01 0.  0.
     999903    2    3    3    0    0 -0.14995384723E-01  0.11982013386E+00 -0.50379991192E-01  0.13246554862E+00  0.20670075397E-01 0.  0.
         14    1    1    2    0    0  0.16165276347E-01 -0.17974980712E-01  0.32603176095E-03  0.24176897809E-01  0.00000000000E+00 0.  1.
     999901    1    3    3    0    0 -0.11698916241E-02 -0.10184515315E+00  0.50053959431E-01  0.88728755357E+00  0.88000000000E+00 0. -1.
        -11    1    4    4    0    0 -0.13773427123E-02  0.11909845209E-01  0.12522204294E-02  0.12065266795E-01  0.51100000000E-03 0. -1.
         11    1    4    4    0    0 -0.13618042011E-01  0.10791028865E+00 -0.51632211622E-01  0.12040028182E+00  0.51100000000E-03 0.  1.
</event>
<event>
 8    1  0.1095698E+005  0.1043930E+01  0.7957747E-01            NaN
         13   -1    0    0    0    0  0.00000000000E+00  0.00000000000E+00  0.74505805969E-08  0.10566000000E+00  0.10566000000E+00 0. -1.
     999900   -1    0    0    0    0 -0.00000000000E+00 -0.00000000000E+00 -0.74505805969E-08  0.93827000000E+00  0.93827000000E+00 0. -1.
     999902    2    1    2    0    0 -0.53138165910E-02  0.12151930387E-01 -0.20218772668E-01  0.10197493295E+01  0.10194625987E+01 0.  0.
     999903    2    3    3    0    0  0.10377641178E+00  0.75466787911E-01  0.13326051686E-01  0.13012316959E+00  0.17019867498E-01 0.  0.
         14    1    1    2    0    0  0.53138165910E-02 -0.12151930387E-01  0.20218772668E-01  0.24180670527E-01  0.00000000000E+00 0. -1.
     999901    1    3    3    0    0 -0.10909022838E+00 -0.63314857524E-01 -0.33544824354E-01  0.88962615988E+00  0.88000000000E+00 0. -1.
        -11    1    4    4    0    0  0.26160395947E-01  0.22048634881E-01  0.10747487419E-01  0.35864721149E-01  0.51100000000E-03 0. -1.
         11    1    4    4    0    0  0.77616015838E-01  0.53418153030E-01  0.25785642673E-02  0.94258448440E-01  0.51100000000E-03 0.  1.
</event>
<event>
 8    1  0.1095698E+005  0.1043930E+01  0.7957747E-01            NaN
         13   -1    0    0    0    0  0.00000000000E+00  0.00000000000E+00  0.74505805969E-08  0.10566000000E+00  0.10566000000E+00 0.  1.
     999900   -1    0    0    0    0 -0.00000000000E+00 -0.00000000000E+00 -0.74505805969E-08  0.93827000000E+00  0.93827000000E+00 0.  1.
     999902    2    1    2    0    0  0.27250059212E-02 -0.26908592415E-01  0.78199036860E-02  0.10157759790E+01  0.10153857349E+01 0.  0.
     999903    2    3    3    0    0 -0.78348093346E-01  0.80152568103E-01 -0.48619357034E-01  0.12380045825E+00  0.19996341692E-01 0.  0.
         14    1    1    2    0    0 -0.27250059212E-02  0.26908592415E-01 -0.78199036860E-02  0.28154020968E-01  0.00000000000E+00 0. -1.
     999901    1    3    3    0    0  0.81073099267E-01 -0.10706116052E+00  0.56439260720E-01  0.89197552078E+00  0.88000000000E+00 0.  1.
        -11    1    4    4    0    0 -0.61540850567E-01  0.54473456778E-01 -0.28015455288E-01  0.86831795086E-01  0.51100000000E-03 0. -1.
         11    1    4    4    0    0 -0.16807242778E-01  0.25679111325E-01 -0.20603901746E-01  0.36968663167E-01  0.51100000000E-03 0.  1.
</event>
<event>
 8    1  0.1095698E+005  0.1043930E+01  0.7957747E-01            NaN
         13   -1    0    0    0    0  0.00000000000E+00  0.00000000000E+00  0.74505805969E-08  0.10566000000E+00  0.10566000000E+00 0. -1.
     999900   -1    0    0    0    0 -0.00000000000E+00 -0.00000000000E+00 -0.74505805969E-08  0.93827000000E+00  0.93827000000E+00 0.  1.
     999902    2    1    2    0    0 -0.25284787592E-02  0.59186098003E-02 -0.21895906877E-01  0.10211077765E+01  0.10208527011E+01 0.  0.
     999903    2    3    3    0    0 -0.82316790887E-01  0.87980844903E-01  0.47517253175E-01  0.13098499174E+00  0.19557494243E-01 0.  0.
         14    1    1    2    0    0  0.25284787592E-02 -0.59186098003E-02  0.21895906877E-01  0.22822223484E-01  0.00000000000E+00 0. -1.
     999901    1    3    3    0    0  0.79788312127E-01 -0.82062235103E-01 -0.69413160052E-01  0.89012278477E+00  0.88000000000E+00 0.  1.
        -11    1    4    4    0    0 -0.55513648156E-01  0.46588288999E-01  0.32551734782E-01  0.79448790814E-01  0.51100000000E-03 0.  1.
         11    1    4    4    0    0 -0.26803142730E-01  0.41392555905E-01  0.14965518392E-01  0.51536200930E-01  0.51100000000E-03 0. -1.
</event>
<event>
 8    1  0.1095698E+005  0.1043930E+01  0.7957747E-01            NaN
         13   -1    0    0    0    0  0.00000000000E+00  0.00000000000E+00  0.74505805969E-08  0.10566000000E+00  0.10566000000E+00 0.  1.
     999900   -1    0    0    0    0 -0.00000000000E+00 -0.00000000000E+00 -0.74505805969E-08  0.93827000000E+00  0.93827000000E+00 0. -1.
     999902    2    1    2    0    0 -0.22771628526E-01 -0.31241008963E-02 -0.58319366204E-02  0.10202167430E+01  0.10199411180E+01 0.  0.
     999903    2    3    3    0    0  0.11143674248E+00 -0.54260770877E-01 -0.26710579320E-01  0.12832955083E+00  0.19815139096E-01 0.  0.
         14    1    1    2    0    0  0.22771628526E-01  0.31241008963E-02  0.58319366204E-02  0.23713256986E-01  0.00000000000E+00 0.  1.
     999901    1    3    3    0    0 -0.13420837101E+00  0.51136669980E-01  0.20878642699E-01  0.89188719219E+00  0.88000000000E+00 0.  1.
        -11    1    4    4    0    0  0.27998612647E-01 -0.23577738353E-01 -0.85032571640E-02  0.37581891376E-01  0.51100000000E-03 0. -1.
         11    1    4    4    0    0  0.83438129833E-01 -0.30683032523E-01 -0.18207322156E-01  0.90747659452E-01  0.51100000000E-03 0.  1.
</event>
<event>
 8    1  0.1095698E+005  0.1043930E+01  0.7957747E-01            NaN
         13   -1    0    0    0    0  0.00000000000E+00  0.00000000000E+00  0.74505805969E-08  0.10566000000E+00  0.10566000000E+00 0.  1.
     999900   -1    0    0    0    0 -0.00000000000E+00 -0.00000000000E+00 -0.74505805969E-08  0.93827000000E+00  0.93827000000E+00 0. -1.
     999902    2    1    2    0    0 -0.51340092755E-02  0.19674359570E-01 -0.12572758854E-01  0.10200236673E+01  0.10197434821E+01 0.  0.
     999903    2    3    3    0    0 -0.12686463279E+00 -0.37347733365E-02  0.23818303198E-01  0.13059090339E+00  0.19444508117E-01 0.  0.
         14    1    1    2    0    0  0.51340092755E-02 -0.19674359570E-01  0.12572758854E-01  0.23906332654E-01  0.00000000000E+00 0.  1.
     999901    1    3    3    0    0  0.12173062351E+00  0.23409132907E-01 -0.36391062052E-01  0.88943276396E+00  0.88000000000E+00 0.  1.
        -11    1    4    4    0    0 -0.55815240574E-02 -0.30158552869E-03 -0.29491832460E-02  0.63405967742E-02  0.51100000000E-03 0.  1.
         11    1    4    4    0    0 -0.12128310873E+00 -0.34331878078E-02  0.26767486444E-01  0.12425030661E+00  0.51100000000E-03 0. -1.
</event>
<event>
 8    1  0.1095698E+005  0.1043930E+01  0.7957747E-01            NaN
         13   -1    0    0    0    0  0.00000000000E+00  0.00000000000E+00  0.74505805969E-08  0.10566000000E+00  0.10566000000E+00 0. -1.
     999900   -1    0    0    0    0 -0.00000000000E+00 -0.00000000000E+00 -0.74505805969E-08  0.93827000000E+00  0.93827000000E+00 0. -1.
     999902    2    1    2    0    0 -0.89595024523E-02 -0.19378739051E-01  0.10253388204E-01  0.10202458242E+01  0.10199708828E+01 0.  0.
     999903    2    3    3    0    0 -0.31671216350E-01  0.79702682949E-01 -0.93639154317E-01  0.12832283961E+00  0.18516920100E-01 0.  0.
         14    1    1    2    0    0  0.89595024523E-02  0.19378739051E-01 -0.10253388204E-01  0.23684175752E-01  0.00000000000E+00 0.  1.
     999901    1    3    3    0    0  0.22711713898E-01 -0.99081422000E-01  0.10389254252E+00  0.89192298464E+00  0.88000000000E+00 0.  1.
        -11    1    4    4    0    0 -0.19645665022E-01  0.55184579436E-01 -0.50912365526E-01  0.77611983908E-01  0.51100000000E-03 0.  1.
         11    1    4    4    0    0 -0.12025551328E-01  0.24518103513E-01 -0.42726788792E-01  0.50710855702E-01  0.51100000000E-03 0. -1.
</event>
<event>
 8    1  0.1095698E+005  0.1043930E+01  0.7957747E-01            NaN
         13   -1    0    0    0    0  0.00000000000E+00  0.00000000000E+00  0.74505805969E-08  0.10566000000E+00  0.10566000000E+00 0. -1.
     999900   -1    0    0    0    0 -0.00000000000E+00 -0.00000000000E+00 -0.74505805969E-08  0.93827000000E+00  0.93827000000E+00 0.  1.
     999902    2    1    2    0    0 -0.17478280447E-01 -0.14449335521E-01 -0.70088642869E-02  0.10201939986E+01  0.10199178384E+01 0.  0.
     999903    2    3    3    0    0 -0.11328651696E+00  0.55768600515E-01 -0.32233145376E-01  0.13185507617E+00  0.20070219839E-01 0.  0.
         14    1    1    2    0    0  0.17478280447E-01  0.14449335521E-01  0.70088642869E-02  0.23736001411E-01  0.00000000000E+00 0.  1.
     999901    1    3    3    0    0  0.95808236508E-01 -0.70217936035E-01  0.25224281090E-01  0.88833892242E+00  0.88000000000E+00 0. -1.
        -11    1    4    4    0    0 -0.39473842395E-01  0.29953620441E-01 -0.15068646435E-01  0.51795065763E-01  0.51100000000E-03 0. -1.
         11    1    4    4    0    0 -0.73812674560E-01  0.25814980074E-01 -0.17164498941E-01  0.80060010410E-01  0.51100000000E-03 0.  1.
</event>
<event>
 8    1  0.1095698E+005  0.1043930E+01  0.7957747E-01            NaN
         13   -1    0    0    0    0  0.00000000000E+00  0.00000000000E+00  0.74505805969E-08  0.10566000000E+00  0.10566000000E+00 0.  1.
     999900   -1    0    0    0    0 -0.00000000000E+00 -0.00000000000E+00 -0.74505805969E-08  0.93827000000E+00  0.93827000000E+00 0.  1.
     999902    2    1    2    0    0 -0.51497653070E-02 -0.19327770643E-02  0.23266041037E-01  0.10200225874E+01  0.10197423765E+01 0.  0.
     999903    2    3    3    0    0  0.12781965284E+00 -0.75302413287E-02  0.10685209739E-01  0.12992682007E+00  0.19293436157E-01 0.  0.
         14    1    1    2    0    0  0.51497653070E-02  0.19327770643E-02 -0.23266041037E-01  0.23907412562E-01  0.00000000000E+00 0. -1.
     999901    1    3    3    0    0 -0.13296941815E+00  0.55974642644E-02  0.12580831297E-01  0.89009576737E+00  0.88000000000E+00 0.  1.
        -11    1    4    4    0    0  0.39033493735E-01 -0.84526539812E-02  0.98166820178E-02  0.41130151462E-01  0.51100000000E-03 0. -1.
         11    1    4    4    0    0  0.88786159109E-01  0.92241265249E-03  0.86852772152E-03  0.88796668608E-01  0.51100000000E-03 0.  1.
</event>
<event>
 8    1  0.1095698E+005  0.1043930E+01  0.7957747E-01            NaN
         13   -1    0    0    0    0  0.00000000000E+00  0.00000000000E+00  0.74505805969E-08  0.10566000000E+00  0.10566000000E+00 0. -1.
     999900   -1    0    0    0    0 -0.00000000000E+00 -0.00000000000E+00 -0.74505805969E-08  0.93827000000E+00  0.93827000000E+00 0.  1.
     999902    2    1    2    0    0 -0.55681538129E-02  0.34001222365E-02  0.22242929916E-01  0.10207499849E+01  0.10204867557E+01 0.  0.
     999903    2    3    3    0    0 -0.19462800476E-01  0.75984934684E-01  0.10631688370E+00  0.13365920833E+00  0.20223582990E-01 0.  0.
         14    1    1    2    0    0  0.55681538129E-02 -0.34001222365E-02 -0.22242929916E-01  0.23180015085E-01  0.00000000000E+00 0.  1.
     999901    1    3    3    0    0  0.13894646663E-01 -0.72584812447E-01 -0.84073953787E-01  0.88709077659E+00  0.88000000000E+00 0.  1.
        -11    1    4    4    0    0 -0.13753957073E-01  0.24419511054E-01  0.27278865032E-01  0.39113699055E-01  0.51100000000E-03 0.  1.
         11    1    4    4    0    0 -0.57088434025E-02  0.51565423629E-01  0.79038018670E-01  0.94545509272E-01  0.51100000000E-03 0. -1.
</event>
<event>
 8    1  0.1095698E+005  0.1043930E+01  0.7957747E-01            NaN
         13   -1    0    0    0    0  0.00000000000E+00  0.00000000000E+00  0.74505805969E-08  0.10566000000E+00  0.10566000000E+00 0. -1.
     999900   -1    0    0    0    0 -0.00000000000E+00 -0.00000000000E+00 -0.74505805969E-08  0.93827000000E+00  0.93827000000E+00 0.  1.
     999902    2    1    2    0    0 -0.62722850046E-02  0.19663778267E-01  0.11146220081E-01  0.10204727206E+01  0.10202030825E+01 0.  0.
     999903    2    3    3    0    0 -0.60952179565E-01 -0.22477393832E-01 -0.11013545874E+00  0.12947607926E+00  0.20342920167E-01 0.  0.
         14    1    1    2    0    0  0.62722850046E-02 -0.19663778267E-01 -0.11146220081E-01  0.23457279404E-01  0.00000000000E+00 0.  1.
     999901    1    3    3    0    0  0.54679894561E-01  0.42141172099E-01  0.12128167882E+00  0.89099664134E+00  0.88000000000E+00 0. -1.
        -11    1    4    4    0    0 -0.23991696113E-01 -0.18801300016E-01 -0.57057546597E-01  0.64690919837E-01  0.51100000000E-03 0.  1.
         11    1    4    4    0    0 -0.36960483452E-01 -0.36760938155E-02 -0.53077912145E-01  0.64785159423E-01  0.51100000000E-03 0. -1.
</event>
<event>
 7    1  0.1095698E+005  0.1043930E+01  0.7957747E-01            NaN
         13   -1    0    0    0    0  0.00000000000E+00  0.00000000000E+00  0.74505805969E-08  0.10566000000E+00  0.10566000000E+00 0. -1.
     999900   -1    0    0    0    0 -0.00000000000E+00 -0.00000000000E+00 -0.74505805969E-08  0.93827000000E+00  0.93827000000E+00 0.  1.
     999902    2    1    2    0    0 -0.42607203757E-02  0.31308304340E-02  0.23450614683E-01  0.10198907162E+01  0.10196073684E+01 0.  0.
         14    1    1    2    0    0  0.42607203757E-02 -0.31308304340E-02 -0.23450614683E-01  0.24039283815E-01  0.00000000000E+00 0.  1.
     999901    1    3    3    0    0  0.29759842502E-01  0.54427121641E-01  0.12951066828E+00  0.89163948600E+00  0.88000000000E+00 0. -1.
        -11    1    3    3    0    0 -0.10186181263E-01 -0.46135861319E-01 -0.76640549679E-01  0.90035054087E-01  0.51100000000E-03 0.  1.
         11    1    3    3    0    0 -0.23834381615E-01 -0.51604298883E-02 -0.29419503920E-01  0.38216176097E-01  0.51100000000E-03 0. -1.
</event>
<event>
 8    1  0.1095698E+005  0.1043930E+01  0.7957747E-01            NaN
         13   -1    0    0    0    0  0.00000000000E+00  0.00000000000E+00  0.74505805969E-08  0.10566000000E+00  0.10566000000E+00 0.  1.
     999900   -1    0    0    0    0 -0.00000000000E+00 -0.00000000000E+00 -0.74505805969E-08  0.93827000000E+00  0.93827000000E+00 0. -1.
     999902    2    1    2    0    0  0.26543209556E-01 -0.88577890024E-02 -0.66969739675E-02  0.10151575851E+01  0.10147497577E+01 0.  0.
     999903    2    3    3    0    0  0.10548759341E+00  0.69802919796E-01  0.50858134476E-03  0.12809972740E+00  0.20228730302E-01 0.  0.
         14    1    1    2    0    0 -0.26543209556E-01  0.88577890024E-02  0.66969739675E-02  0.28772414912E-01  0.00000000000E+00 0. -1.
     999901    1    3    3    0    0 -0.78944383859E-01 -0.78660708798E-01 -0.72055553122E-02  0.88705785768E+00  0.88000000000E+00 0. -1.
        -11    1    4    4    0    0  0.10139591169E+00  0.62491816787E-01  0.35807710125E-02  0.11916140783E+00  0.51100000000E-03 0. -1.
         11    1    4    4    0    0  0.40916817238E-02  0.73111030088E-02 -0.30721896677E-02  0.89383195785E-02  0.51100000000E-03 0.  1.
</event>
<event>
 8    1  0.1095698E+005  0.1043930E+01  0.7957747E-01            NaN
         13   -1    0    0    0    0  0.00000000000E+00  0.00000000000E+00  0.74505805969E-08  0.10566000000E+00  0.10566000000E+00 0.  1.
     999900   -1    0    0    0    0 -0.00000000000E+00 -0.00000000000E+00 -0.74505805969E-08  0.93827000000E+00  0.93827000000E+00 0.  1.
     999902    2    1    2    0    0 -0.11585936687E-01 -0.16620539645E-01  0.11600677739E-01  0.10205836514E+01  0.10203165869E+01 0.  0.
     999903    2    3    3    0    0  0.99770279111E-01  0.66550911186E-01  0.44942864506E-01  0.12905160017E+00  0.15853140456E-01 0.  0.
         14    1    1    2    0    0  0.11585936687E-01  0.16620539645E-01 -0.11600677739E-01  0.23346348558E-01  0.00000000000E+00 0. -1.
     999901    1    3    3    0    0 -0.11135621580E+00 -0.83171450831E-01 -0.33342186766E-01  0.89153205127E+00  0.88000000000E+00 0.  1.
        -11    1    4    4    0    0  0.67851738447E-01  0.51685064338E-01  0.36869001365E-01  0.92923563580E-01  0.51100000000E-03 0.  1.
         11    1    4    4    0    0  0.31918540664E-01  0.14865846849E-01  0.80738631409E-02  0.36128036587E-01  0.51100000000E-03 0. -1.
</event>
<event>
 8    1  0.1095698E+005  0.1043930E+01  0.7957747E-01            NaN
         13   -1    0    0    0    0  0.00000000000E+00  0.00000000000E+00  0.74505805969E-08  0.10566000000E+00  0.10566000000E+00 0. -1.
     999900   -1    0    0    0    0 -0.00000000000E+00 -0.00000000000E+00 -0.74505805969E-08  0.93827000000E+00  0.93827000000E+00 0.  1.
     999902    2    1    2    0    0  0.54602608182E-02 -0.17024636836E-02  0.22495002287E-01  0.10207192706E+01  0.10204553353E+01 0.  0.
     999903    2    3    3    0    0  0.10255473713E+00 -0.61058592901E-01  0.54483233412E-01  0.13281514609E+00  0.20635271580E-01 0.  0.
         14    1    1    2    0    0 -0.54602608182E-02  0.17024636836E-02 -0.22495002287E-01  0.23210729387E-01  0.00000000000E+00 0.  1.
     999901    1    3    3    0    0 -0.97094476316E-01  0.59356129217E-01 -0.31988231125E-01  0.88790412452E+00  0.88000000000E+00 0.  1.
        -11    1    4    4    0    0  0.92241431497E-01 -0.48372493641E-01  0.42296968448E-01  0.11241741185E+00  0.51100000000E-03 0.  1.
         11    1    4    4    0    0  0.10313305638E-01 -0.12686099260E-01  0.12186264964E-01  0.20397734247E-01  0.51100000000E-03 0. -1.
</event>
<event>
 8    1  0.1095698E+005  0.1043930E+01  0.7957747E-01            NaN
         13   -1    0    0    0    0  0.00000000000E+00  0.00000000000E+00  0.74505805969E-08  0.10566000000E+00  0.10566000000E+00 0. -1.
     999900   -1    0    0    0    0 -0.00000000000E+00 -0.00000000000E+00 -0.74505805969E-08  0.93827000000E+00  0.93827000000E+00 0.  1.
     999902    2    1    2    0    0  0.19226375470E-02  0.69453196708E-02 -0.23061177477E-01  0.10197690417E+01  0.10194827838E+01 0.  0.
     999903    2    3    3    0    0 -0.12506623105E+00 -0.12587355804E-01  0.23554670365E-01  0.12921823716E+00  0.18507475330E-01 0.  0.
         14    1    1    2    0    0 -0.19226375470E-02 -0.69453196708E-02  0.23061177477E-01  0.24160958323E-01  0.00000000000E+00 0. -1.
     999901    1    3    3    0    0  0.12698886860E+00  0.19532675475E-01 -0.46615847842E-01  0.89055080452E+00  0.88000000000E+00 0. -1.
        -11    1    4    4    0    0 -0.46991408176E-01 -0.52567826006E-02  0.18016051082E-01  0.50603017926E-01  0.51100000000E-03 0. -1.
         11    1    4    4    0    0 -0.78074822874E-01 -0.73305732032E-02  0.55386192832E-02  0.78615219232E-01  0.51100000000E-03 0.  1.
</event>
<event>
 8    1  0.1095698E+005  0.1043930E+01  0.7957747E-01            NaN
         13   -1    0    0    0    0  0.00000000000E+00  0.00000000000E+00  0.74505805969E-08  0.10566000000E+00  0.10566000000E+00 0. -1.
     999900   -1    0    0    0    0 -0.00000000000E+00 -0.00000000000E+00 -0.74505805969E-08  0.93827000000E+00  0.93827000000E+00 0. -1.
     999902    2    1    2    0    0 -0.18968457826E-01 -0.71115344082E-03 -0.13967025015E-01  0.10203633728E+01  0.10200911854E+01 0.  0.
     999903    2    3    3    0    0 -0.22275973616E-01 -0.20059413157E-01  0.12424788712E+00  0.12935907606E+00  0.19940763455E-01 0.  0.
         14    1    1    2    0    0  0.18968457826E-01  0.71115344082E-03  0.13967025015E-01  0.23566627237E-01  0.00000000000E+00 0. -1.
     999901    1    3    3    0    0  0.33075157895E-02  0.19348259717E-01 -0.13821491214E+00  0.89100429671E+00  0.88000000000E+00 0. -1.
        -11    1    4    4    0    0 -0.56889952231E-02 -0.16996635188E-01  0.47350035260E-01  0.50631385864E-01  0.51100000000E-03 0.  1.
         11    1    4    4    0    0 -0.16586978393E-01 -0.30627779690E-02  0.76897851861E-01  0.78727690192E-01  0.51100000000E-03 0. -1.
</event>
<event>
 8    1  0.1095698E+005  0.1043930E+01  0.7957747E-01            NaN
         13   -1    0    0    0    0  0.00000000000E+00  0.00000000000E+00  0.74505805969E-08  0.10566000000E+00  0.10566000000E+00 0.  1.
     999900   -1    0    0    0    0 -0.00000000000E+00 -0.00000000000E+00 -0.74505805969E-08  0.93827000000E+00  0.93827000000E+00 0.  1.
     999902    2    1    2    0    0  0.50709903180E-03  0.23406621824E-02 -0.23263183803E-01  0.10205438595E+01  0.10202758732E+01 0.  0.
     999903    2    3    3    0    0  0.11311125154E+00  0.53056807694E-01  0.29906844319E-01  0.13033103408E+00  0.21967681713E-01 0.  0.
         14    1    1    2    0    0 -0.50709903180E-03 -0.23406621824E-02  0.23263183803E-01  0.23386140543E-01  0.00000000000E+00 0.  1.
     999901    1    3    3    0    0 -0.11260415251E+00 -0.50716145511E-01 -0.53170028121E-01  0.89021282538E+00  0.88000000000E+00 0.  1.
        -11    1    4    4    0    0  0.47362019917E-01  0.14798998877E-01  0.32691155524E-02  0.49730468888E-01  0.51100000000E-03 0.  1.
         11    1    4    4    0    0  0.65749231621E-01  0.38257808817E-01  0.26637728766E-01  0.80600565190E-01  0.51100000000E-03 0. -1.
</event>
<event>
 8    1  0.1095698E+005  0.1043930E+01  0.7957747E-01            NaN
         13   -1    0    0    0    0  0.00000000000E+00  0.00000000000E+00  0.74505805969E-08  0.10566000000E+00  0.10566000000E+00 0. -1.
     999900   -1    0    0    0    0 -0.00000000000E+00 -0.00000000000E+00 -0.74505805969E-08  0.93827000000E+00  0.93827000000E+00 0.  1.
     999902    2    1    2    0    0  0.16578469605E-01 -0.13968430749E-01  0.84379967540E-02  0.10206671003E+01  0.10204019635E+01 0.  0.
     999903    2    3    3    0    0 -0.60507683965E-01  0.79016002795E-01  0.80483651361E-01  0.12949991270E+00  0.19695195768E-01 0.  0.
         14    1    1    2    0    0 -0.16578469605E-01  0.13968430749E-01 -0.84379967540E-02  0.23262899674E-01  0.00000000000E+00 0.  1.
     999901    1    3    3    0    0  0.77086153570E-01 -0.92984433544E-01 -0.72045654607E-01  0.89116718763E+00  0.88000000000E+00 0.  1.
        -11    1    4    4    0    0 -0.55512023617E-01  0.76082978941E-01  0.80156653227E-01  0.12367519811E+00  0.51100000000E-03 0.  1.
         11    1    4    4    0    0 -0.49956603481E-02  0.29330238533E-02  0.32699813370E-03  0.58247145867E-02  0.51100000000E-03 0. -1.
</event>
<event>
 8    1  0.1095698E+005  0.1043930E+01  0.7957747E-01            NaN
         13   -1    0    0    0    0  0.00000000000E+00  0.00000000000E+00  0.74505805969E-08  0.10566000000E+00  0.10566000000E+00 0. -1.
     999900   -1    0    0    0    0 -0.00000000000E+00 -0.00000000000E+00 -0.74505805969E-08  0.93827000000E+00  0.93827000000E+00 0. -1.
     999902    2    1    2    0    0  0.32772394512E-02  0.19670675611E-01  0.14175088789E-01  0.10194635144E+01  0.10191698819E+01 0.  0.
     999903    2    3    3    0    0 -0.96921025932E-01 -0.81082389192E-01 -0.37892970253E-02  0.12788424609E+00  0.19286848397E-01 0.  0.
         14    1    1    2    0    0 -0.32772394512E-02 -0.19670675611E-01 -0.14175088789E-01  0.24466485640E-01  0.00000000000E+00 0.  1.
     999901    1    3    3    0    0  0.10019826538E+00  0.10075306480E+00  0.17964385814E-01  0.89157926827E+00  0.88000000000E+00 0. -1.
        -11    1    4    4    0    0 -0.18151434790E-01 -0.64519580586E-02  0.66127195771E-03  0.19282135497E-01  0.51100000000E-03 0. -1.
         11    1    4    4    0    0 -0.78769591142E-01 -0.74630431133E-01 -0.44505689831E-02  0.10860211059E+00  0.51100000000E-03 0.  1.
</event>
<event>
 8    1  0.1095698E+005  0.1043930E+01  0.7957747E-01            NaN
         13   -1    0    0    0    0  0.00000000000E+00  0.00000000000E+00  0.74505805969E-08  0.10566000000E+00  0.10566000000E+00 0. -1.
     999900   -1    0    0    0    0 -0.00000000000E+00 -0.00000000000E+00 -0.74505805969E-08  0.93827000000E+00  0.93827000000E+00 0. -1.
     999902    2    1    2    0    0  0.10458070129E-01  0.16870098701E-01 -0.11277162257E-01  0.10211013809E+01  0.10208461609E+01 0.  0.
     999903    2    3    3    0    0 -0.59952605424E-01 -0.68182358927E-01  0.88759775343E-01  0.12857744696E+00  0.20266059882E-01 0.  0.
         14    1    1    2    0    0 -0.10458070129E-01 -0.16870098701E-01  0.11277162257E-01  0.22828619090E-01  0.00000000000E+00 0.  1.
     999901    1    3    3    0    0  0.70410675553E-01  0.85052457627E-01 -0.10003693760E+00  0.89252393395E+00  0.88000000000E+00 0. -1.
        -11    1    4    4    0    0 -0.33376985662E-01 -0.50195715921E-01  0.64963456917E-01  0.88623613808E-01  0.51100000000E-03 0.  1.
         11    1    4    4    0    0 -0.26575619761E-01 -0.17986643006E-01  0.23796318426E-01  0.39953833157E-01  0.51100000000E-03 0. -1.
</event>
<event>
 8    1  0.1095698E+005  0.1043930E+01  0.7957747E-01            NaN
         13   -1    0    0    0    0  0.00000000000E+00  0.00000000000E+00  0.74505805969E-08  0.10566000000E+00  0.10566000000E+00 0.  1.
     999900   -1    0    0    0    0 -0.00000000000E+00 -0.00000000000E+00 -0.74505805969E-08  0.93827000000E+00  0.93827000000E+00 0.  1.
     999902    2    1    2    0    0  0.18109458111E-01 -0.83393929977E-02 -0.12175902828E-01  0.10205686953E+01  0.10203012845E+01 0.  0.
     999903    2    3    3    0    0  0.10271437402E+00 -0.38606425569E-01 -0.73961172781E-01  0.13383789924E+00  0.20040695322E-01 0.  0.
         14    1    1    2    0    0 -0.18109458111E-01  0.83393929977E-02  0.12175902828E-01  0.23361304722E-01  0.00000000000E+00 0.  1.
     999901    1    3    3    0    0 -0.84604915907E-01  0.30267032572E-01  0.61785269953E-01  0.88673079604E+00  0.88000000000E+00 0. -1.
        -11    1    4    4    0    0  0.22268872453E-01 -0.16324818047E-01 -0.13321645302E-01  0.30661534846E-01  0.51100000000E-03 0.  1.
         11    1    4    4    0    0  0.80445501566E-01 -0.22281607523E-01 -0.60639527479E-01  0.10317636439E+00  0.51100000000E-03 0. -1.
</event>
<event>
 8    1  0.1095698E+005  0.1043930E+01  0.7957747E-01            NaN
         13   -1    0    0    0    0  0.00000000000E+00  0.00000000000E+00  0.74505805969E-08  0.10566000000E+00  0.10566000000E+00 0. -1.
     999900   -1    0    0    0    0 -0.00000000000E+00 -0.00000000000E+00 -0.74505805969E-08  0.93827000000E+00  0.93827000000E+00 0.  1.
     999902    2    1    2    0    0 -0.18751178017E-02  0.23783090781E-01  0.66250054743E-02  0.10191703116E+01  0.10188695117E+01 0.  0.
     999903    2    3    3    0    0  0.74146691282E-01  0.73029625465E-01  0.77960907456E-01  0.13164941179E+00  0.20557395466E-01 0.  0.
         14    1    1    2    0    0  0.18751178017E-02 -0.23783090781E-01 -0.66250054743E-02  0.24759688435E-01  0.00000000000E+00 0. -1.
     999901    1    3    3    0    0 -0.76021809084E-01 -0.49246534685E-01 -0.71335901982E-01  0.88752089978E+00  0.88000000000E+00 0.  1.
        -11    1    4    4    0    0  0.29881002308E-02  0.11550365821E-02  0.80998223452E-02  0.87253134912E-02  0.51100000000E-03 0. -1.
         11    1    4    4    0    0  0.71158591051E-01  0.71874588883E-01  0.69861085111E-01  0.12292409829E+00  0.51100000000E-03 0.  1.
</event>
<event>
 8    1  0.1095698E+005  0.1043930E+01  0.7957747E-01            NaN
         13   -1    0    0    0    0  0.00000000000E+00  0.00000000000E+00  0.74505805969E-08  0.10566000000E+00  0.10566000000E+00 0. -1.
     999900   -1    0    0    0    0 -0.00000000000E+00 -0.00000000000E+00 -0.74505805969E-08  0.93827000000E+00  0.93827000000E+00 0. -1.
     999902    2    1    2    0    0  0.11731110926E-01 -0.14409152887E-01  0.14085676655E-01  0.10206137195E+01  0.10203473504E+01 0.  0.
     999903    2    3    3    0    0 -0.53597625796E-01 -0.89939606072E-01 -0.75228790764E-01  0.13047341184E+00  0.20052481269E-01 0.  0.
         14    1    1    2    0    0 -0.11731110926E-01  0.14409152887E-01 -0.14085676655E-01  0.23316280521E-01  0.00000000000E+00 0.  1.
     999901    1    3    3    0    0  0.65328736721E-01  0.75530453185E-01  0.89314467419E-01  0.89014030764E+00  0.88000000000E+00 0.  1.
        -11    1    4    4    0    0 -0.16507924213E-01 -0.41466446104E-01 -0.40372973865E-01  0.60184847379E-01  0.51100000000E-03 0.  1.
         11    1    4    4    0    0 -0.37089701583E-01 -0.48473159969E-01 -0.34855816900E-01  0.70288564458E-01  0.51100000000E-03 0. -1.
</event>
<event>
 8    1  0.1095698E+005  0.1043930E+01  0.7957747E-01            NaN
         13   -1    0    0    0    0  0.00000000000E+00  0.00000000000E+00  0.74505805969E-08  0.10566000000E+00  0.10566000000E+00 0. -1.
     999900   -1    0    0    0    0 -0.00000000000E+00 -0.00000000000E+00 -0.74505805969E-08  0.93827000000E+00  0.93827000000E+00 0. -1.
     999902    2    1    2    0    0  0.59384077453E-02 -0.25764459586E-01  0.47531477793E-02  0.10170661865E+01  0.10167113470E+01 0.  0.
     999903    2    3    3    0    0  0.97457744053E-01 -0.35870837263E-01 -0.73620499364E-01  0.12879800828E+00  0.19601534875E-01 0.  0.
         14    1    1    2    0    0 -0.59384077453E-02  0.25764459586E-01 -0.47531477793E-02  0.26863813544E-01  0.00000000000E+00 0. -1.
     999901    1    3    3    0    0 -0.91519336308E-01  0.10106377677E-01  0.78373647143E-01  0.88826817817E+00  0.88000000000E+00 0.  1.
        -11    1    4    4    0    0  0.52357244171E-01 -0.17498245592E-01 -0.50769259078E-01  0.75001656010E-01  0.51100000000E-03 0.  1.
         11    1    4    4    0    0  0.45100499882E-01 -0.18372591671E-01 -0.22851240286E-01  0.53796352274E-01  0.51100000000E-03 0. -1.
</event>
<event>
 8    1  0.1095698E+005  0.1043930E+01  0.7957747E-01            NaN
         13   -1    0    0    0    0  0.00000000000E+00  0.00000000000E+00  0.74505805969E-08  0.10566000000E+00  0.10566000000E+00 0.  1.
     999900   -1    0    0    0    0 -0.00000000000E+00 -0.00000000000E+00 -0.74505805969E-08  0.93827000000E+00  0.93827000000E+00 0. -1.
     999902    2    1    2    0    0  0.98792115796E-03 -0.23532442175E-01  0.11058827388E-02  0.10203508821E+01  0.10200784028E+01 0.  0.
     999903    2    3    3    0    0 -0.10426690100E+00  0.37194688761E-01 -0.63584308301E-01  0.12964824778E+00  0.22598061273E-01 0.  0.
         14    1    1    2    0    0 -0.98792115796E-03  0.23532442175E-01 -0.11058827388E-02  0.23579117871E-01  0.00000000000E+00 0.  1.
     999901    1    3    3    0    0  0.10525482216E+00 -0.60727130936E-01  0.64690191039E-01  0.89070263435E+00  0.88000000000E+00 0.  1.
        -11    1    4    4    0    0 -0.54343801565E-01  0.31251455765E-01 -0.36374897194E-01  0.72479628330E-01  0.51100000000E-03 0.  1.
         11    1    4    4    0    0 -0.49923099439E-01  0.59432329957E-02 -0.27209411107E-01  0.57168619450E-01  0.51100000000E-03 0. -1.
</event>
<event>
 8    1  0.1095698E+005  0.1043930E+01  0.7957747E-01            NaN
         13   -1    0    0    0    0  0.00000000000E+00  0.00000000000E+00  0.74505805969E-08  0.10566000000E+00  0.10566000000E+00 0.  1.
     999900   -1    0    0    0    0 -0.00000000000E+00 -0.00000000000E+00 -0.74505805969E-08  0.93827000000E+00  0.93827000000E+00 0.  1.
     999902    2    1    2    0    0 -0.20848279947E-01  0.11109403794E-01 -0.69354196745E-02  0.10193094867E+01  0.10190121000E+01 0.  0.
     999903    2    3    3    0    0 -0.10502742887E+00 -0.33806596593E-01 -0.69656156487E-01  0.13193275326E+00  0.19509599178E-01 0.  0.
         14    1    1    2    0    0  0.20848279947E-01 -0.11109403794E-01  0.69354196745E-02  0.24620513307E-01  0.00000000000E+00 0.  1.
     999901    1    3    3    0    0  0.84179148919E-01  0.44916000388E-01  0.62720736812E-01  0.88737673343E+00  0.88000000000E+00 0. -1.
        -11    1    4    4    0    0 -0.71967456638E-01 -0.29085831671E-01 -0.40281411990E-01  0.87453723145E-01  0.51100000000E-03 0.  1.
         11    1    4    4    0    0 -0.33059972228E-01 -0.47207649219E-02 -0.29374744497E-01  0.44479030120E-01  0.51100000000E-03 0. -1.
</event>
<event>
 8    1  0.1095698E+005  0.1043930E+01  0.7957747E-01            NaN
         13   -1    0    0    0    0  0.00000000000E+00  0.00000000000E+00  0.74505805969E-08  0.10566000000E+00  0.10566000000E+00 0.  1.
     999900   -1    0    0    0    0 -0.00000000000E+00 -0.00000000000E+00 -0.74505805969E-08  0.93827000000E+00  0.93827000000E+00 0. -1.
     999902    2    1    2    0    0  0.20922839561E-01 -0.29653992601E-02  0.11380111221E-01  0.10199286305E+01  0.10196461864E+01 0.  0.
     999903    2    3    3    0    0  0.51521732338E-01  0.30258480175E-01  0.11661387454E+00  0.13250862655E+00  0.19740208940E-01 0.  0.
         14    1    1    2    0    0 -0.20922839561E-01  0.29653992601E-02 -0.11380111221E-01  0.24001369533E-01  0.00000000000E+00 0.  1.
     999901    1    3    3    0    0 -0.30598892777E-01 -0.33223879435E-01 -0.10523376332E+00  0.88742000391E+00  0.88000000000E+00 0. -1.
        -11    1    4    4    0    0  0.41714772733E-01  0.23807216526E-01  0.10714282868E+00  0.11741700338E+00  0.51100000000E-03 0. -1.
         11    1    4    4    0    0  0.98069596049E-02  0.64512636486E-02  0.94710458611E-02  0.15091623175E-01  0.51100000000E-03 0.  1.
</event>
<event>
 8    1  0.1095698E+005  0.1043930E+01  0.7957747E-01            NaN
         13   -1    0    0    0    0  0.00000000000E+00  0.00000000000E+00  0.74505805969E-08  0.10566000000E+00  0.10566000000E+00 0.  1.
     999900   -1    0    0    0    0 -0.00000000000E+00 -0.00000000000E+00 -0.74505805969E-08  0.93827000000E+00  0.93827000000E+00 0. -1.
     999902    2    1    2    0    0  0.16754583949E-01  0.87091306344E-02  0.12867709932E-01  0.10210795515E+01  0.10208238376E+01 0.  0.
     999903    2    3    3    0    0 -0.45704179615E-01 -0.11763644661E+00  0.23450436224E-01  0.12980165084E+00  0.19270184090E-01 0.  0.
         14    1    1    2    0    0 -0.16754583949E-01 -0.87091306344E-02 -0.12867709932E-01  0.22850448543E-01  0.00000000000E+00 0.  1.
     999901    1    3    3    0    0  0.62458763564E-01  0.12634557725E+00 -0.10582726292E-01  0.89127790062E+00  0.88000000000E+00 0.  1.
        -11    1    4    4    0    0 -0.35753088451E-01 -0.67064599419E-01  0.16733762333E-01  0.77821743439E-01  0.51100000000E-03 0.  1.
         11    1    4    4    0    0 -0.99510911638E-02 -0.50571847195E-01  0.67166738912E-02  0.51979907399E-01  0.51100000000E-03 0. -1.
</event>
<event>
 8    1  0.1095698E+005  0.1043930E+01  0.7957747E-01            NaN
         13   -1    0    0    0    0  0.00000000000E+00  0.00000000000E+00  0.74505805969E-08  0.10566000000E+00  0.10566000000E+00 0. -1.
     999900   -1    0    0    0    0 -0.00000000000E+00 -0.00000000000E+00 -0.74505805969E-08  0.93827000000E+00  0.93827000000E+00 0.  1.
     999902    2    1    2    0    0 -0.13459315120E-01  0.16670349985E-01  0.98684579783E-02  0.10203410154E+01  0.10200683053E+01 0.  0.
     999903    2    3    3    0    0  0.54744690985E-01 -0.11386757580E+00  0.84184369633E-02  0.12809999466E+00  0.19388979901E-01 0.  0.
         14    1    1    2    0    0  0.13459315120E-01 -0.16670349985E-01 -0.98684579783E-02  0.23588984611E-01  0.00000000000E+00 0. -1.
     999901    1    3    3    0    0 -0.68204006105E-01  0.13053792578E+00  0.14500210151E-02  0.89224102073E+00  0.88000000000E+00 0. -1.
        -11    1    4    4    0    0  0.30050789111E-01 -0.44834886559E-01  0.93247280941E-02  0.54776168668E-01  0.51100000000E-03 0.  1.
         11    1    4    4    0    0  0.24693901875E-01 -0.69032689237E-01 -0.90629113088E-03  0.73323825989E-01  0.51100000000E-03 0. -1.
</event>
<event>
 8    1  0.1095698E+005  0.1043930E+01  0.7957747E-01            NaN
         13   -1    0    0    0    0  0.00000000000E+00  0.00000000000E+00  0.74505805969E-08  0.10566000000E+00  0.10566000000E+00 0. -1.
     999900   -1    0    0    0    0 -0.00000000000E+00 -0.00000000000E+00 -0.74505805969E-08  0.93827000000E+00  0.93827000000E+00 0. -1.
     999902    2    1    2    0    0  0.18392190836E-01  0.13522802980E-01  0.83737919922E-02  0.10196141764E+01  0.10193241925E+01 0.  0.
     999903    2    3    3    0    0  0.14587492326E-01  0.12915716031E+00 -0.18948515331E-01  0.13162077058E+00  0.84032151792E-02 0.  0.
         14    1    1    2    0    0 -0.18392190836E-01 -0.13522802980E-01 -0.83737919922E-02  0.24315823583E-01  0.00000000000E+00 0.  1.
     999901    1    3    3    0    0  0.38046985099E-02 -0.11563435733E+00  0.27322307323E-01  0.88799340583E+00  0.88000000000E+00 0. -1.
        -11    1    4    4    0    0  0.13082428053E-01  0.10563479154E+00 -0.12471041719E-01  0.10717111136E+00  0.51100000000E-03 0. -1.
         11    1    4    4    0    0  0.15050642724E-02  0.23522368764E-01 -0.64774736114E-02  0.24449659223E-01  0.51100000000E-03 0.  1.
</event>
<event>
 8    1  0.1095698E+005  0.1043930E+01  0.7957747E-01            NaN
         13   -1    0    0    0    0  0.00000000000E+00  0.00000000000E+00  0.74505805969E-08  0.10566000000E+00  0.10566000000E+00 0.  1.
     999900   -1    0    0    0    0 -0.00000000000E+00 -0.00000000000E+00 -0.74505805969E-08  0.93827000000E+00  0.93827000000E+00 0.  1.
     999902    2    1    2    0    0 -0.18305387866E-01  0.14531668978E-01  0.52194092588E-02  0.10199821637E+01  0.10197009932E+01 0.  0.
     999903    2    3    3    0    0 -0.39557196836E-01 -0.55466470736E-01  0.10959987567E+00  0.13079902135E+00  0.21329557985E-01 0.  0.
         14    1    1    2    0    0  0.18305387866E-01 -0.14531668978E-01 -0.52194092588E-02  0.23947836254E-01  0.00000000000E+00 0. -1.
     999901    1    3    3    0    0  0.21251808970E-01  0.69998139715E-01 -0.10438046641E+00  0.88918314239E+00  0.88000000000E+00 0.  1.
        -11    1    4    4    0    0 -0.12805232589E-02 -0.11757102525E-01  0.29987089188E-01  0.32239042147E-01  0.51100000000E-03 0. -1.
         11    1    4    4    0    0 -0.38276673577E-01 -0.43709368211E-01  0.79612786477E-01  0.98559979207E-01  0.51100000000E-03 0.  1.
</event>
<event>
 8    1  0.1095698E+005  0.1043930E+01  0.7957747E-01            NaN
         13   -1    0    0    0    0  0.00000000000E+00  0.00000000000E+00  0.74505805969E-08  0.10566000000E+00  0.10566000000E+00 0.  1.
     999900   -1    0    0    0    0 -0.00000000000E+00 -0.00000000000E+00 -0.74505805969E-08  0.93827000000E+00  0.93827000000E+00 0. -1.
     999902    2    1    2    0    0 -0.10240660243E-01  0.21039388111E-01 -0.49468140994E-02  0.10200135215E+01  0.10197330955E+01 0.  0.
     999903    2    3    3    0    0  0.57096401327E-01 -0.64589203100E-01  0.92511184831E-01  0.12795713480E+00  0.19568976091E-01 0.  0.
         14    1    1    2    0    0  0.10240660243E-01 -0.21039388111E-01  0.49468140994E-02  0.23916478504E-01  0.00000000000E+00 0. -1.
     999901    1    3    3    0    0 -0.67337061570E-01  0.85628591211E-01 -0.97457998931E-01  0.89205638670E+00  0.88000000000E+00 0. -1.
        -11    1    4    4    0    0  0.75244798980E-02 -0.12755576498E-01  0.27091592513E-01  0.30879411190E-01  0.51100000000E-03 0. -1.
         11    1    4    4    0    0  0.49571921429E-01 -0.51833626602E-01  0.65419592318E-01  0.97077723608E-01  0.51100000000E-03 0.  1.
</event>
<event>
 8    1  0.1095698E+005  0.1043930E+01  0.7957747E-01            NaN
         13   -1    0    0    0    0  0.00000000000E+00  0.00000000000E+00  0.74505805969E-08  0.10566000000E+00  0.10566000000E+00 0. -1.
     999900   -1    0    0    0    0 -0.00000000000E+00 -0.00000000000E+00 -0.74505805969E-08  0.93827000000E+00  0.93827000000E+00 0. -1.
     999902    2    1    2    0    0  0.16575805023E-01 -0.18477018531E-01  0.24683892472E-02  0.10189850512E+01  0.10186796769E+01 0.  0.
     999903    2    3    3    0    0  0.55395109273E-02 -0.81851113938E-01 -0.99549739496E-01  0.13075885570E+00  0.21387769296E-01 0.  0.
         14    1    1    2    0    0 -0.16575805023E-01  0.18477018531E-01 -0.24683892472E-02  0.24944948816E-01  0.00000000000E+00 0. -1.
     999901    1    3    3    0    0  0.11036294096E-01  0.63374095408E-01  0.10201812874E+00  0.88822619549E+00  0.88000000000E+00 0.  1.
        -11    1    4    4    0    0  0.44691124585E-02 -0.12257730596E-01 -0.28231748131E-01  0.31104945734E-01  0.51100000000E-03 0. -1.
         11    1    4    4    0    0  0.10703984688E-02 -0.69593383342E-01 -0.71317991365E-01  0.99653909964E-01  0.51100000000E-03 0.  1.
</event>
<event>
 8    1  0.1378996E+005  0.1043930E+01  0.7957747E-01            NaN
         13   -1    0    0    0    0  0.00000000000E+00  0.00000000000E+00  0.74505805969E-08  0.10566000000E+00  0.10566000000E+00 0.  1.
     999900   -1    0    0    0    0 -0.00000000000E+00 -0.00000000000E+00 -0.74505805969E-08  0.93827000000E+00  0.93827000000E+00 0. -1.
     999902    2    1    2    0    0  0.14200492779E-01 -0.21154206318E-01 -0.31405735271E-03  0.10184495551E+01  0.10181307594E+01 0.  0.
     999903    2    3    3    0    0  0.32963921470E-01  0.34980392458E-01  0.11767164659E+00  0.12860474517E+00  0.19552904988E-01 0.  0.
         14    1    1    2    0    0 -0.14200492779E-01  0.21154206318E-01  0.31405735271E-03  0.25480444896E-01  0.00000000000E+00 0. -1.
     999901    1    3    3    0    0 -0.18763428691E-01 -0.56134598775E-01 -0.11798570394E+00  0.88984480994E+00  0.88000000000E+00 0.  1.
        -11    1    4    4    0    0  0.10238484846E-01  0.99371676900E-02  0.60646790962E-01  0.62304640666E-01  0.51100000000E-03 0. -1.
         11    1    4    4    0    0  0.22725436624E-01  0.25043224768E-01  0.57024855628E-01  0.66300104501E-01  0.51100000000E-03 0.  1.
</event>
<event>
 8    1  0.1095698E+005  0.1043930E+01  0.7957747E-01            NaN
         13   -1    0    0    0    0  0.00000000000E+00  0.00000000000E+00  0.74505805969E-08  0.10566000000E+00  0.10566000000E+00 0.  1.
     999900   -1    0    0    0    0 -0.00000000000E+00 -0.00000000000E+00 -0.74505805969E-08  0.93827000000E+00  0.93827000000E+00 0. -1.
     999902    2    1    2    0    0 -0.17700698402E-01 -0.97307332641E-02  0.12550747318E-01  0.10201492693E+01  0.10198720550E+01 0.  0.
     999903    2    3    3    0    0 -0.11783569580E+00  0.48930177077E-01  0.29045192114E-01  0.13237667072E+00  0.20013653660E-01 0.  0.
         14    1    1    2    0    0  0.17700698402E-01  0.97307332641E-02 -0.12550747318E-01  0.23780730687E-01  0.00000000000E+00 0. -1.
     999901    1    3    3    0    0  0.10013499740E+00 -0.58660910341E-01 -0.16494444797E-01  0.88777259859E+00  0.88000000000E+00 0. -1.
        -11    1    4    4    0    0 -0.72929253831E-01  0.19626705440E-01  0.17247027779E-01  0.77470024648E-01  0.51100000000E-03 0.  1.
         11    1    4    4    0    0 -0.44906441967E-01  0.29303471637E-01  0.11798164335E-01  0.54906646071E-01  0.51100000000E-03 0. -1.
</event>
<event>
 8    1  0.1095698E+005  0.1043930E+01  0.7957747E-01            NaN
         13   -1    0    0    0    0  0.00000000000E+00  0.00000000000E+00  0.74505805969E-08  0.10566000000E+00  0.10566000000E+00 0.  1.
     999900   -1    0    0    0    0 -0.00000000000E+00 -0.00000000000E+00 -0.74505805969E-08  0.93827000000E+00  0.93827000000E+00 0. -1.
     999902    2    1    2    0    0 -0.48865680581E-02 -0.22249221312E-01  0.78750720288E-02  0.10198276525E+01  0.10195427983E+01 0.  0.
     999903    2    3    3    0    0  0.22168261622E-01 -0.12235454399E+00 -0.40868016529E-01  0.13239938602E+00  0.19933298373E-01 0.  0.
         14    1    1    2    0    0  0.48865680581E-02  0.22249221312E-01 -0.78750720288E-02  0.24102347517E-01  0.00000000000E+00 0. -1.
     999901    1    3    3    0    0 -0.27054829680E-01  0.10010532268E+00  0.48743088558E-01  0.88742826646E+00  0.88000000000E+00 0.  1.
        -11    1    4    4    0    0  0.16122512597E-03 -0.56077836203E-01 -0.17122095480E-01  0.58635970030E-01  0.51100000000E-03 0.  1.
         11    1    4    4    0    0  0.22007036496E-01 -0.66276707790E-01 -0.23745921049E-01  0.73763415988E-01  0.51100000000E-03 0. -1.
</event>
<event>
 8    1  0.1095698E+005  0.1043930E+01  0.7957747E-01            NaN
         13   -1    0    0    0    0  0.00000000000E+00  0.00000000000E+00  0.74505805969E-08  0.10566000000E+00  0.10566000000E+00 0.  1.
     999900   -1    0    0    0    0 -0.00000000000E+00 -0.00000000000E+00 -0.74505805969E-08  0.93827000000E+00  0.93827000000E+00 0.  1.
     999902    2    1    2    0    0  0.17516439480E-01 -0.15134685927E-01  0.58170430699E-02  0.10200611425E+01  0.10197818453E+01 0.  0.
     999903    2    3    3    0    0 -0.17267461478E-01 -0.62341783792E-01  0.11268175461E+00  0.13165892700E+00  0.21265747237E-01 0.  0.
         14    1    1    2    0    0 -0.17516439480E-01  0.15134685927E-01 -0.58170430699E-02  0.23868857539E-01  0.00000000000E+00 0.  1.
     999901    1    3    3    0    0  0.34783900958E-01  0.47207097865E-01 -0.10686471154E+00  0.88840221546E+00  0.88000000000E+00 0.  1.
        -11    1    4    4    0    0 -0.19110670676E-02 -0.29840184838E-01  0.34829434002E-01  0.45906855723E-01  0.51100000000E-03 0.  1.
         11    1    4    4    0    0 -0.15356394410E-01 -0.32501598954E-01  0.77852320609E-01  0.85752071282E-01  0.51100000000E-03 0. -1.
</event>
<event>
 8    1  0.1095698E+005  0.1043930E+01  0.7957747E-01            NaN
         13   -1    0    0    0    0  0.00000000000E+00  0.00000000000E+00  0.74505805969E-08  0.10566000000E+00  0.10566000000E+00 0.  1.
     999900   -1    0    0    0    0 -0.00000000000E+00 -0.00000000000E+00 -0.74505805969E-08  0.93827000000E+00  0.93827000000E+00 0. -1.
     999902    2    1    2    0    0  0.97898909282E-02 -0.20529991749E-01  0.98607366535E-02  0.10191397468E+01  0.10188381947E+01 0.  0.
     999903    2    3    3    0    0 -0.10290268127E+00  0.41761601744E-01  0.61045732438E-01  0.12829758221E+00  0.20017366431E-01 0.  0.
         14    1    1    2    0    0 -0.97898909282E-02  0.20529991749E-01 -0.98607366535E-02  0.24790253184E-01  0.00000000000E+00 0. -1.
     999901    1    3    3    0    0  0.11269257220E+00 -0.62291593493E-01 -0.51184995785E-01  0.89084216461E+00  0.88000000000E+00 0.  1.
        -11    1    4    4    0    0 -0.72245563285E-02  0.89366555876E-02  0.40712724734E-02  0.12202229624E-01  0.51100000000E-03 0.  1.
         11    1    4    4    0    0 -0.95678124942E-01  0.32824946156E-01  0.56974459965E-01  0.11609535258E+00  0.51100000000E-03 0. -1.
</event>
<event>
 8    1  0.1095698E+005  0.1043930E+01  0.7957747E-01            NaN
         13   -1    0    0    0    0  0.00000000000E+00  0.00000000000E+00  0.74505805969E-08  0.10566000000E+00  0.10566000000E+00 0. -1.
     999900   -1    0    0    0    0 -0.00000000000E+00 -0.00000000000E+00 -0.74505805969E-08  0.93827000000E+00  0.93827000000E+00 0.  1.
     999902    2    1    2    0    0  0.14067603967E-01 -0.14491384079E-01  0.20161304971E-01  0.10153927277E+01  0.10149916332E+01 0.  0.
     999903    2    3    3    0    0 -0.10520760995E+00 -0.40382309696E-01  0.53387299459E-01  0.12634780001E+00  0.20351675515E-01 0.  0.
         14    1    1    2    0    0 -0.14067603967E-01  0.14491384079E-01 -0.20161304971E-01  0.28537272330E-01  0.00000000000E+00 0.  1.
     999901    1    3    3    0    0  0.11927521392E+00  0.25890925617E-01 -0.33225994488E-01  0.88904492766E+00  0.88000000000E+00 0.  1.
        -11    1    4    4    0    0 -0.99109910643E-02  0.10445279168E-02  0.11537033025E-02  0.10045443482E-01  0.51100000000E-03 0. -1.
         11    1    4    4    0    0 -0.95296618887E-01 -0.41426837613E-01  0.52233596157E-01  0.11630235653E+00  0.51100000000E-03 0.  1.
</event>
<event>
 8    1  0.1095698E+005  0.1043930E+01  0.7957747E-01            NaN
         13   -1    0    0    0    0  0.00000000000E+00  0.00000000000E+00  0.74505805969E-08  0.10566000000E+00  0.10566000000E+00 0.  1.
     999900   -1    0    0    0    0 -0.00000000000E+00 -0.00000000000E+00 -0.74505805969E-08  0.93827000000E+00  0.93827000000E+00 0. -1.
     999902    2    1    2    0    0 -0.12649119669E-01 -0.20891438350E-01 -0.42201772880E-02  0.10191456840E+01  0.10188442780E+01 0.  0.
     999903    2    3    3    0    0  0.85591895375E-01 -0.17682789352E-01 -0.93085393034E-01  0.12922511502E+00  0.19889353017E-01 0.  0.
         14    1    1    2    0    0  0.12649119669E-01  0.20891438350E-01  0.42201772880E-02  0.24784316030E-01  0.00000000000E+00 0.  1.
     999901    1    3    3    0    0 -0.98241015043E-01 -0.32086489976E-02  0.88865215746E-01  0.88992056895E+00  0.88000000000E+00 0.  1.
        -11    1    4    4    0    0  0.24189964944E-01 -0.12142680169E-01 -0.37236122636E-01  0.46036822606E-01  0.51100000000E-03 0. -1.
         11    1    4    4    0    0  0.61401930431E-01 -0.55401091838E-02 -0.55849270397E-01  0.83188292417E-01  0.51100000000E-03 0.  1.
</event>
<event>
 8    1  0.1095698E+005  0.1043930E+01  0.7957747E-01            NaN
         13   -1    0    0    0    0  0.00000000000E+00  0.00000000000E+00  0.74505805969E-08  0.10566000000E+00  0.10566000000E+00 0. -1.
     999900   -1    0    0    0    0 -0.00000000000E+00 -0.00000000000E+00 -0.74505805969E-08  0.93827000000E+00  0.93827000000E+00 0. -1.
     999902    2    1    2    0    0  0.36760332087E-02  0.38704775703E-02 -0.21936783092E-01  0.10213531032E+01  0.10211035428E+01 0.  0.
     999903    2    3    3    0    0 -0.60220584647E-01  0.11061219398E+00 -0.36038979900E-01  0.13249122205E+00  0.19837831957E-01 0.  0.
         14    1    1    2    0    0 -0.36760332087E-02 -0.38704775703E-02  0.21936783092E-01  0.22576896802E-01  0.00000000000E+00 0. -1.
     999901    1    3    3    0    0  0.63896617855E-01 -0.10674171641E+00  0.14102196808E-01  0.88886188114E+00  0.88000000000E+00 0.  1.
        -11    1    4    4    0    0 -0.27185575029E-01  0.51763804000E-01 -0.26987989709E-01  0.64398444110E-01  0.51100000000E-03 0.  1.
         11    1    4    4    0    0 -0.33035009618E-01  0.58848389981E-01 -0.90509901910E-02  0.68092777945E-01  0.51100000000E-03 0. -1.
</event>
<event>
 8    1  0.1095698E+005  0.1043930E+01  0.7957747E-01            NaN
         13   -1    0    0    0    0  0.00000000000E+00  0.00000000000E+00  0.74505805969E-08  0.10566000000E+00  0.10566000000E+00 0. -1.
     999900   -1    0    0    0    0 -0.00000000000E+00 -0.00000000000E+00 -0.74505805969E-08  0.93827000000E+00  0.93827000000E+00 0. -1.
     999902    2    1    2    0    0  0.91863434119E-02 -0.71139557876E-02 -0.19932674175E-01  0.10208581823E+01  0.10205974327E+01 0.  0.
     999903    2    3    3    0    0 -0.10547249988E+00  0.59711665458E-01  0.38973683094E-01  0.12896005307E+00  0.20538161794E-01 0.  0.
         14    1    1    2    0    0 -0.91863434119E-02  0.71139557876E-02  0.19932674175E-01  0.23071817700E-01  0.00000000000E+00 0. -1.
     999901    1    3    3    0    0  0.11465884330E+00 -0.66825621246E-01 -0.58906357269E-01  0.89189812923E+00  0.88000000000E+00 0. -1.
        -11    1    4    4    0    0 -0.60101839693E-01  0.34291614743E-01  0.11522779612E-01  0.70151133613E-01  0.51100000000E-03 0. -1.
         11    1    4    4    0    0 -0.45370660190E-01  0.25420050715E-01  0.27450903482E-01  0.58808919455E-01  0.51100000000E-03 0.  1.
</event>
<event>
 7    1  0.1095698E+005  0.1043930E+01  0.7957747E-01            NaN
         13   -1    0    0    0    0  0.00000000000E+00  0.00000000000E+00  0.74505805969E-08  0.10566000000E+00  0.10566000000E+00 0. -1.
     999900   -1    0    0    0    0 -0.00000000000E+00 -0.00000000000E+00 -0.74505805969E-08  0.93827000000E+00  0.93827000000E+00 0.  1.
     999903    2    1    2    0    0 -0.78697442662E-01 -0.29030899939E-01  0.73701150030E-01  0.11346660461E+00  0.20167553488E-01 0.  0.
         14    1    1    2    0    0 -0.79628375934E-04 -0.99168540078E-02  0.37805327815E-01  0.39084436101E-01  0.00000000000E+00 0. -1.
     999901    1    1    2    0    0  0.78777071038E-01  0.38947753947E-01 -0.11150647785E+00  0.89137895929E+00  0.88000000000E+00 0.  1.
        -11    1    3    3    0    0 -0.63335511508E-01 -0.25513288484E-01  0.48557460586E-01  0.83787845221E-01  0.51100000000E-03 0. -1.
         11    1    3    3    0    0 -0.15361931153E-01 -0.35176114549E-02  0.25143689444E-01  0.29678759390E-01  0.51100000000E-03 0.  1.
</event>
<event>
 8    1  0.1095698E+005  0.1043930E+01  0.7957747E-01            NaN
         13   -1    0    0    0    0  0.00000000000E+00  0.00000000000E+00  0.74505805969E-08  0.10566000000E+00  0.10566000000E+00 0.  1.
     999900   -1    0    0    0    0 -0.00000000000E+00 -0.00000000000E+00 -0.74505805969E-08  0.93827000000E+00  0.93827000000E+00 0. -1.
     999902    2    1    2    0    0  0.46847218065E-02  0.57604864826E-02  0.22633404069E-01  0.10201098236E+01  0.10198316780E+01 0.  0.
     999903    2    3    3    0    0 -0.59794764784E-01 -0.78263759768E-01 -0.79117674415E-01  0.12793777737E+00  0.20195011363E-01 0.  0.
         14    1    1    2    0    0 -0.46847218065E-02 -0.57604864826E-02 -0.22633404069E-01  0.23820176377E-01  0.00000000000E+00 0. -1.
     999901    1    3    3    0    0  0.64479486590E-01  0.84024246251E-01  0.10175107848E+00  0.89217204626E+00  0.88000000000E+00 0.  1.
        -11    1    4    4    0    0 -0.26814414209E-01 -0.49790388237E-01 -0.38902542513E-01  0.68642293851E-01  0.51100000000E-03 0. -1.
         11    1    4    4    0    0 -0.32980350574E-01 -0.28473371531E-01 -0.40215131902E-01  0.59295483515E-01  0.51100000000E-03 0.  1.
</event>
<event>
 8    1  0.1095698E+005  0.1043930E+01  0.7957747E-01            NaN
         13   -1    0    0    0    0  0.00000000000E+00  0.00000000000E+00  0.74505805969E-08  0.10566000000E+00  0.10566000000E+00 0. -1.
     999900   -1    0    0    0    0 -0.00000000000E+00 -0.00000000000E+00 -0.74505805969E-08  0.93827000000E+00  0.93827000000E+00 0. -1.
     999902    2    1    2    0    0  0.23168119006E-01  0.54025911679E-03 -0.26697405170E-02  0.10206023097E+01  0.10203356769E+01 0.  0.
     999903    2    3    3    0    0  0.82603322270E-01  0.64030225918E-01  0.78087090470E-01  0.13263542690E+00  0.23903641792E-01 0.  0.
         14    1    1    2    0    0 -0.23168119006E-01 -0.54025911679E-03  0.26697405170E-02  0.23327690254E-01  0.00000000000E+00 0. -1.
     999901    1    3    3    0    0 -0.59435203264E-01 -0.63489966801E-01 -0.80756830987E-01  0.88796688284E+00  0.88000000000E+00 0. -1.
        -11    1    4    4    0    0  0.32244345619E-01  0.11878129891E-01  0.20218010141E-01  0.39872507435E-01  0.51100000000E-03 0.  1.
         11    1    4    4    0    0  0.50358976651E-01  0.52152096027E-01  0.57869080329E-01  0.92762919469E-01  0.51100000000E-03 0. -1.
</event>
<event>
 8    1  0.1095698E+005  0.1043930E+01  0.7957747E-01            NaN
         13   -1    0    0    0    0  0.00000000000E+00  0.00000000000E+00  0.74505805969E-08  0.10566000000E+00  0.10566000000E+00 0. -1.
     999900   -1    0    0    0    0 -0.00000000000E+00 -0.00000000000E+00 -0.74505805969E-08  0.93827000000E+00  0.93827000000E+00 0. -1.
     999902    2    1    2    0    0  0.16953495920E-01 -0.16181707047E-01 -0.75834605797E-02  0.10192971451E+01  0.10189994565E+01 0.  0.
     999903    2    3    3    0    0 -0.41131015211E-01  0.91819500608E-01 -0.76355432757E-01  0.12813629796E+00  0.21591147254E-01 0.  0.
         14    1    1    2    0    0 -0.16953495920E-01  0.16181707047E-01  0.75834605797E-02  0.24632854914E-01  0.00000000000E+00 0. -1.
     999901    1    3    3    0    0  0.58084511131E-01 -0.10800120766E+00  0.68771972178E-01  0.89116084712E+00  0.88000000000E+00 0.  1.
        -11    1    4    4    0    0 -0.85238554865E-02  0.42997303709E-01 -0.27433543936E-01  0.51713486563E-01  0.51100000000E-03 0.  1.
         11    1    4    4    0    0 -0.32607159725E-01  0.48822196899E-01 -0.48921888821E-01  0.76422811400E-01  0.51100000000E-03 0. -1.
</event>
<event>
 8    1  0.1095698E+005  0.1043930E+01  0.7957747E-01            NaN
         13   -1    0    0    0    0  0.00000000000E+00  0.00000000000E+00  0.74505805969E-08  0.10566000000E+00  0.10566000000E+00 0.  1.
     999900   -1    0    0    0    0 -0.00000000000E+00 -0.00000000000E+00 -0.74505805969E-08  0.93827000000E+00  0.93827000000E+00 0. -1.
     999902    2    1    2    0    0 -0.93957959365E-02  0.21403916692E-01  0.77892409095E-02  0.10192909881E+01  0.10189931490E+01 0.  0.
     999903    2    3    3    0    0 -0.11418376676E-01 -0.52789401262E-01  0.11606715924E+00  0.12955347244E+00  0.19885083766E-01 0.  0.
         14    1    1    2    0    0  0.93957959365E-02 -0.21403916692E-01 -0.77892409095E-02  0.24639011851E-01  0.00000000000E+00 0.  1.
     999901    1    3    3    0    0  0.20225807391E-02  0.74193317954E-01 -0.10827791833E+00  0.88973751571E+00  0.88000000000E+00 0. -1.
        -11    1    4    4    0    0 -0.13680549501E-03 -0.35953002550E-01  0.60190308892E-01  0.70112563166E-01  0.51100000000E-03 0.  1.
         11    1    4    4    0    0 -0.11281571181E-01 -0.16836398711E-01  0.55876850345E-01  0.59440909274E-01  0.51100000000E-03 0. -1.
</event>
<event>
 8    1  0.1095698E+005  0.1043930E+01  0.7957747E-01            NaN
         13   -1    0    0    0    0  0.00000000000E+00  0.00000000000E+00  0.74505805969E-08  0.10566000000E+00  0.10566000000E+00 0. -1.
     999900   -1    0    0    0    0 -0.00000000000E+00 -0.00000000000E+00 -0.74505805969E-08  0.93827000000E+00  0.93827000000E+00 0. -1.
     999902    2    1    2    0    0 -0.56875920215E-02 -0.22136387240E-01  0.52834647382E-02  0.10204718811E+01  0.10202022235E+01 0.  0.
     999903    2    3    3    0    0 -0.54531682320E-01  0.62808993513E-01  0.98249911674E-01  0.13016619026E+00  0.19274799630E-01 0.  0.
         14    1    1    2    0    0  0.56875920215E-02  0.22136387240E-01 -0.52834647382E-02  0.23458118907E-01  0.00000000000E+00 0.  1.
     999901    1    3    3    0    0  0.48844090299E-01 -0.84945380753E-01 -0.92966446935E-01  0.89030569083E+00  0.88000000000E+00 0.  1.
        -11    1    4    4    0    0 -0.63970139965E-02  0.19261580116E-01  0.26988690559E-01  0.33772485780E-01  0.51100000000E-03 0.  1.
         11    1    4    4    0    0 -0.48134668324E-01  0.43547413397E-01  0.71261221115E-01  0.96393704483E-01  0.51100000000E-03 0. -1.
</event>
<event>
 8    1  0.1095698E+005  0.1043930E+01  0.7957747E-01            NaN
         13   -1    0    0    0    0  0.00000000000E+00  0.00000000000E+00  0.74505805969E-08  0.10566000000E+00  0.10566000000E+00 0. -1.
     999900   -1    0    0    0    0 -0.00000000000E+00 -0.00000000000E+00 -0.74505805969E-08  0.93827000000E+00  0.93827000000E+00 0. -1.
     999902    2    1    2    0    0  0.52219190392E-02 -0.13083662704E-03 -0.22533853916E-01  0.10207986332E+01  0.10205365204E+01 0.  0.
     999903    2    3    3    0    0 -0.78589753788E-01 -0.14543371374E-01  0.98469166511E-01  0.12845685531E+00  0.20423708549E-01 0.  0.
         14    1    1    2    0    0 -0.52219190392E-02  0.13083662704E-03  0.22533853916E-01  0.23131366777E-01  0.00000000000E+00 0. -1.
     999901    1    3    3    0    0  0.83811672827E-01  0.14412534747E-01 -0.12100302043E+00  0.89234177791E+00  0.88000000000E+00 0. -1.
        -11    1    4    4    0    0 -0.34876265878E-01 -0.16229361824E-01  0.40889149266E-01  0.56142049798E-01  0.51100000000E-03 0. -1.
         11    1    4    4    0    0 -0.43713487910E-01  0.16859904498E-02  0.57580017245E-01  0.72314805510E-01  0.51100000000E-03 0.  1.
</event>
<event>
 8    1  0.1095698E+005  0.1043930E+01  0.7957747E-01            NaN
         13   -1    0    0    0    0  0.00000000000E+00  0.00000000000E+00  0.74505805969E-08  0.10566000000E+00  0.10566000000E+00 0.  1.
     999900   -1    0    0    0    0 -0.00000000000E+00 -0.00000000000E+00 -0.74505805969E-08  0.93827000000E+00  0.93827000000E+00 0.  1.
     999902    2    1    2    0    0  0.96785876477E-02  0.18566479015E-05  0.21430056489E-01  0.10204156983E+01  0.10201447324E+01 0.  0.
     999903    2    3    3    0    0  0.63485897438E-01  0.11063562904E+00 -0.20095603327E-01  0.13088804917E+00  0.21380985879E-01 0.  0.
         14    1    1    2    0    0 -0.96785876477E-02 -0.18566479014E-05 -0.21430056489E-01  0.23514301678E-01  0.00000000000E+00 0. -1.
     999901    1    3    3    0    0 -0.53807309790E-01 -0.11063377239E+00  0.41525659816E-01  0.88952764915E+00  0.88000000000E+00 0. -1.
        -11    1    4    4    0    0  0.19903691274E-01  0.32263610239E-01 -0.15905793803E-01  0.41113901171E-01  0.51100000000E-03 0. -1.
         11    1    4    4    0    0  0.43582206164E-01  0.78372018797E-01 -0.41898095249E-02  0.89774148000E-01  0.51100000000E-03 0.  1.
</event>
<event>
 8    1  0.1095698E+005  0.1043930E+01  0.7957747E-01            NaN
         13   -1    0    0    0    0  0.00000000000E+00  0.00000000000E+00  0.74505805969E-08  0.10566000000E+00  0.10566000000E+00 0. -1.
     999900   -1    0    0    0    0 -0.00000000000E+00 -0.00000000000E+00 -0.74505805969E-08  0.93827000000E+00  0.93827000000E+00 0. -1.
     999902    2    1    2    0    0  0.22958453381E-01  0.34928646920E-02 -0.95514205912E-03  0.10206877329E+01  0.10204230716E+01 0.  0.
     999903    2    3    3    0    0 -0.11113474826E+00 -0.35174532857E-01 -0.49896633219E-01  0.12834731356E+00  0.19879106073E-01 0.  0.
         14    1    1    2    0    0 -0.22958453381E-01 -0.34928646920E-02  0.95514205912E-03  0.23242267139E-01  0.00000000000E+00 0. -1.
     999901    1    3    3    0    0  0.13409320164E+00  0.38667397549E-01  0.48941491160E-01  0.89234041930E+00  0.88000000000E+00 0.  1.
        -11    1    4    4    0    0 -0.75763546545E-01 -0.32869137926E-01 -0.31340778670E-01  0.88334595385E-01  0.51100000000E-03 0.  1.
         11    1    4    4    0    0 -0.35371201718E-01 -0.23053949314E-02 -0.18555854549E-01  0.40012718176E-01  0.51100000000E-03 0. -1.
</event>
<event>
 8    1  0.1095698E+005  0.1043930E+01  0.7957747E-01            NaN
         13   -1    0    0    0    0  0.00000000000E+00  0.00000000000E+00  0.74505805969E-08  0.10566000000E+00  0.10566000000E+00 0. -1.
     999900   -1    0    0    0    0 -0.00000000000E+00 -0.00000000000E+00 -0.74505805969E-08  0.93827000000E+00  0.93827000000E+00 0.  1.
     999902    2    1    2    0    0 -0.75073268889E-02 -0.20224864616E-01  0.91297422565E-02  0.10205044306E+01  0.10202355295E+01 0.  0.
     999903    2    3    3    0    0 -0.94911844472E-01  0.46589764730E-01 -0.72520928513E-01  0.12990318631E+00  0.20897089305E-01 0.  0.
         14    1    1    2    0    0  0.75073268889E-02  0.20224864616E-01 -0.91297422565E-02  0.23425569351E-01  0.00000000000E+00 0. -1.
     999901    1    3    3    0    0  0.87404517583E-01 -0.66814629346E-01  0.81650670769E-01  0.89060124434E+00  0.88000000000E+00 0. -1.
        -11    1    4    4    0    0 -0.90705363056E-02  0.14055639508E-02 -0.73465068774E-03  0.92223137836E-02  0.51100000000E-03 0.  1.
         11    1    4    4    0    0 -0.85841308166E-01  0.45184200779E-01 -0.71786277825E-01  0.12068087252E+00  0.51100000000E-03 0. -1.
</event>
<event>
 8    1  0.1095698E+005  0.1043930E+01  0.7957747E-01            NaN
         13   -1    0    0    0    0  0.00000000000E+00  0.00000000000E+00  0.74505805969E-08  0.10566000000E+00  0.10566000000E+00 0.  1.
     999900   -1    0    0    0    0 -0.00000000000E+00 -0.00000000000E+00 -0.74505805969E-08  0.93827000000E+00  0.93827000000E+00 0. -1.
     999902    2    1    2    0    0  0.62856142011E-02  0.12053110071E-01 -0.20128468236E-01  0.10196412857E+01  0.10193519558E+01 0.  0.
     999903    2    3    3    0    0  0.92455384124E-01  0.60674144000E-02 -0.92378063303E-01  0.13246539459E+00  0.20701753867E-01 0.  0.
         14    1    1    2    0    0 -0.62856142011E-02 -0.12053110071E-01  0.20128468236E-01  0.24288714288E-01  0.00000000000E+00 0.  1.
     999901    1    3    3    0    0 -0.86169769923E-01  0.59856956709E-02  0.72249595067E-01  0.88717589112E+00  0.88000000000E+00 0.  1.
        -11    1    4    4    0    0  0.50509639315E-01 -0.62751706123E-02 -0.55011723392E-01  0.74947663483E-01  0.51100000000E-03 0. -1.
         11    1    4    4    0    0  0.41945744808E-01  0.12342585012E-01 -0.37366339911E-01  0.57517731107E-01  0.51100000000E-03 0.  1.
</event>
<event>
 8    1  0.1095698E+005  0.1043930E+01  0.7957747E-01            NaN
         13   -1    0    0    0    0  0.00000000000E+00  0.00000000000E+00  0.74505805969E-08  0.10566000000E+00  0.10566000000E+00 0.  1.
     999900   -1    0    0    0    0 -0.00000000000E+00 -0.00000000000E+00 -0.74505805969E-08  0.93827000000E+00  0.93827000000E+00 0.  1.
     999902    2    1    2    0    0  0.10907789814E-01 -0.20630288916E-01  0.30642360753E-03  0.10205915640E+01  0.10203246826E+01 0.  0.
     999903    2    3    3    0    0  0.34527660151E-01  0.12041420835E+00  0.22566214456E-01  0.12876930213E+00  0.19507902227E-01 0.  0.
         14    1    1    2    0    0 -0.10907789814E-01  0.20630288916E-01 -0.30642360753E-03  0.23338435998E-01  0.00000000000E+00 0. -1.
     999901    1    3    3    0    0 -0.23619870337E-01 -0.14104449726E+00 -0.22259790848E-01  0.89182226187E+00  0.88000000000E+00 0.  1.
        -11    1    4    4    0    0  0.17284199026E-01  0.50884394710E-01  0.27349197181E-03  0.53742916556E-01  0.51100000000E-03 0.  1.
         11    1    4    4    0    0  0.17243461125E-01  0.69529813635E-01  0.22292722484E-01  0.75026385574E-01  0.51100000000E-03 0. -1.
</event>
<event>
 8    1  0.1095698E+005  0.1043930E+01  0.7957747E-01            NaN
         13   -1    0    0    0    0  0.00000000000E+00  0.00000000000E+00  0.74505805969E-08  0.10566000000E+00  0.10566000000E+00 0.  1.
     999900   -1    0    0    0    0 -0.00000000000E+00 -0.00000000000E+00 -0.74505805969E-08  0.93827000000E+00  0.93827000000E+00 0.  1.
     999902    2    1    2    0    0  0.17589338684E-01 -0.12959711274E-01  0.87103092037E-02  0.10204096165E+01  0.10201385088E+01 0.  0.
     999903    2    3    3    0    0  0.10276334328E+00 -0.78774804764E-01  0.26209330046E-01  0.13367828557E+00  0.20424996094E-01 0.  0.
         14    1    1    2    0    0 -0.17589338684E-01  0.12959711274E-01 -0.87103092037E-02  0.23520383459E-01  0.00000000000E+00 0. -1.
     999901    1    3    3    0    0 -0.85174004593E-01  0.65815093490E-01 -0.17499020842E-01  0.88673133097E+00  0.88000000000E+00 0.  1.
        -11    1    4    4    0    0  0.28999851531E-01 -0.18265853552E-01 -0.15574438461E-02  0.34312090393E-01  0.51100000000E-03 0. -1.
         11    1    4    4    0    0  0.73763491746E-01 -0.60508951212E-01  0.27766773892E-01  0.99366195180E-01  0.51100000000E-03 0.  1.
</event>
<event>
 8    1  0.1095698E+005  0.1043930E+01  0.7957747E-01            NaN
         13   -1    0    0    0    0  0.00000000000E+00  0.00000000000E+00  0.74505805969E-08  0.10566000000E+00  0.10566000000E+00 0. -1.
     999900   -1    0    0    0    0 -0.00000000000E+00 -0.00000000000E+00 -0.74505805969E-08  0.93827000000E+00  0.93827000000E+00 0.  1.
     999902    2    1    2    0    0  0.30822847495E-02  0.11534863960E-01  0.20919564185E-01  0.10198430381E+01  0.10195585519E+01 0.  0.
     999903    2    3    3    0    0 -0.54917347091E-01  0.10959783622E+00 -0.39794934612E-01  0.13042381517E+00  0.19978338973E-01 0.  0.
         14    1    1    2    0    0 -0.30822847495E-02 -0.11534863960E-01 -0.20919564185E-01  0.24086961858E-01  0.00000000000E+00 0.  1.
     999901    1    3    3    0    0  0.57999631840E-01 -0.98062972260E-01  0.60714498798E-01  0.88941922297E+00  0.88000000000E+00 0. -1.
        -11    1    4    4    0    0 -0.17907881173E-01  0.43284283320E-01 -0.57454622811E-02  0.47196322404E-01  0.51100000000E-03 0.  1.
         11    1    4    4    0    0 -0.37009465918E-01  0.66313552899E-01 -0.34049472331E-01  0.83227492770E-01  0.51100000000E-03 0. -1.
</event>
<event>
 8    1  0.1095698E+005  0.1043930E+01  0.7957747E-01            NaN
         13   -1    0    0    0    0  0.00000000000E+00  0.00000000000E+00  0.74505805969E-08  0.10566000000E+00  0.10566000000E+00 0.  1.
     999900   -1    0    0    0    0 -0.00000000000E+00 -0.00000000000E+00 -0.74505805969E-08  0.93827000000E+00  0.93827000000E+00 0. -1.
     999902    2    1    2    0    0  0.98439191043E-02  0.13282877032E-01 -0.15985447340E-01  0.10209327808E+01  0.10206737337E+01 0.  0.
     999903    2    3    3    0    0 -0.10293014859E+00  0.74290644726E-01 -0.28082519292E-01  0.13155868782E+00  0.20133183243E-01 0.  0.
         14    1    1    2    0    0 -0.98439191043E-02 -0.13282877032E-01  0.15985447340E-01  0.22997219228E-01  0.00000000000E+00 0.  1.
     999901    1    3    3    0    0  0.11277406770E+00 -0.61007767694E-01  0.12097071952E-01  0.88937409295E+00  0.88000000000E+00 0.  1.
        -11    1    4    4    0    0 -0.66069538597E-01  0.56909493051E-01 -0.13330077660E-01  0.88214661033E-01  0.51100000000E-03 0. -1.
         11    1    4    4    0    0 -0.36860609997E-01  0.17381151674E-01 -0.14752441633E-01  0.43344026786E-01  0.51100000000E-03 0.  1.
</event>
<event>
 8    1  0.1095698E+005  0.1043930E+01  0.7957747E-01            NaN
         13   -1    0    0    0    0  0.00000000000E+00  0.00000000000E+00  0.74505805969E-08  0.10566000000E+00  0.10566000000E+00 0.  1.
     999900   -1    0    0    0    0 -0.00000000000E+00 -0.00000000000E+00 -0.74505805969E-08  0.93827000000E+00  0.93827000000E+00 0.  1.
     999902    2    1    2    0    0  0.94769913076E-02  0.68085333126E-02  0.20440540197E-01  0.10203931104E+01  0.10201216175E+01 0.  0.
     999903    2    3    3    0    0  0.12847906762E-01  0.71218360256E-01  0.11033961294E+00  0.13346479750E+00  0.20022448452E-01 0.  0.
         14    1    1    2    0    0 -0.94769913076E-02 -0.68085333126E-02 -0.20440540197E-01  0.23536889634E-01  0.00000000000E+00 0. -1.
     999901    1    3    3    0    0 -0.33709154540E-02 -0.64409826944E-01 -0.89899072747E-01  0.88692831286E+00  0.88000000000E+00 0.  1.
        -11    1    4    4    0    0  0.63605993256E-02  0.61407826349E-02  0.75761431304E-02  0.11654419800E-01  0.51100000000E-03 0. -1.
         11    1    4    4    0    0  0.64873074360E-02  0.65077577622E-01  0.10276346981E+00  0.12181037770E+00  0.51100000000E-03 0.  1.
</event>
<event>
 8    1  0.1095698E+005  0.1043930E+01  0.7957747E-01            NaN
         13   -1    0    0    0    0  0.00000000000E+00  0.00000000000E+00  0.74505805969E-08  0.10566000000E+00  0.10566000000E+00 0.  1.
     999900   -1    0    0    0    0 -0.00000000000E+00 -0.00000000000E+00 -0.74505805969E-08  0.93827000000E+00  0.93827000000E+00 0.  1.
     999902    2    1    2    0    0  0.27731884974E-03 -0.20735939710E-01  0.11097907404E-01  0.10204093782E+01  0.10201382649E+01 0.  0.
     999903    2    3    3    0    0  0.23682472187E-01 -0.90853257018E-01  0.92490648767E-01  0.13356721764E+00  0.21691189891E-01 0.  0.
         14    1    1    2    0    0 -0.27731884974E-03  0.20735939710E-01 -0.11097907404E-01  0.23520621806E-01  0.00000000000E+00 0. -1.
     999901    1    3    3    0    0 -0.23405153337E-01  0.70117317308E-01 -0.81392741363E-01  0.88684216055E+00  0.88000000000E+00 0.  1.
        -11    1    4    4    0    0  0.32669697236E-02 -0.10714626478E-01  0.27776976067E-02  0.11552187530E-01  0.51100000000E-03 0. -1.
         11    1    4    4    0    0  0.20415502463E-01 -0.80138630541E-01  0.89712951161E-01  0.12201503011E+00  0.51100000000E-03 0.  1.
</event>
<event>
 7    1  0.1095698E+005  0.1043930E+01  0.7957747E-01            NaN
         13   -1    0    0    0    0  0.00000000000E+00  0.00000000000E+00  0.74505805969E-08  0.10566000000E+00  0.10566000000E+00 0.  1.
     999900   -1    0    0    0    0 -0.00000000000E+00 -0.00000000000E+00 -0.74505805969E-08  0.93827000000E+00  0.93827000000E+00 0.  1.
     999903    2    1    2    0    0 -0.21956188334E-01  0.95051023111E-01 -0.35680480458E-01  0.10520258513E+00  0.16664814179E-01 0.  0.
         14    1    1    2    0    0  0.82357057743E-02  0.40399202506E-01  0.24954417457E-01  0.48193831176E-01  0.00000000000E+00 0.  1.
     999901    1    1    2    0    0  0.13720482559E-01 -0.13545022562E+00  0.10726063000E-01  0.89053358370E+00  0.88000000000E+00 0.  1.
        -11    1    3    3    0    0 -0.15706011086E-01  0.50463525129E-01 -0.26986544462E-01  0.59344594157E-01  0.51100000000E-03 0. -1.
         11    1    3    3    0    0 -0.62501772476E-02  0.44587497981E-01 -0.86939359962E-02  0.45857990972E-01  0.51100000000E-03 0.  1.
</event>
<event>
 8    1  0.1095698E+005  0.1043930E+01  0.7957747E-01            NaN
         13   -1    0    0    0    0  0.00000000000E+00  0.00000000000E+00  0.74505805969E-08  0.10566000000E+00  0.10566000000E+00 0. -1.
     999900   -1    0    0    0    0 -0.00000000000E+00 -0.00000000000E+00 -0.74505805969E-08  0.93827000000E+00  0.93827000000E+00 0.  1.
     999902    2    1    2    0    0  0.26873333888E-02 -0.12974003367E-01  0.19503916168E-01  0.10203514235E+01  0.10200789568E+01 0.  0.
     999903    2    3    3    0    0 -0.32248152635E-01  0.62083773636E-01  0.10988816678E+00  0.13185636395E+00  0.20404735196E-01 0.  0.
         14    1    1    2    0    0 -0.26873333888E-02  0.12974003367E-01 -0.19503916168E-01  0.23578576505E-01  0.00000000000E+00 0.  1.
     999901    1    3    3    0    0  0.34935486024E-01 -0.75057777003E-01 -0.90384250617E-01  0.88849505954E+00  0.88000000000E+00 0.  1.
        -11    1    4    4    0    0 -0.23278311407E-01  0.38319165416E-01  0.85981833599E-01  0.96971001079E-01  0.51100000000E-03 0. -1.
         11    1    4    4    0    0 -0.89698412282E-02  0.23764608220E-01  0.23906333185E-01  0.34885362874E-01  0.51100000000E-03 0.  1.
</event>
<event>
 8    1  0.1095698E+005  0.1043930E+01  0.7957747E-01            NaN
         13   -1    0    0    0    0  0.00000000000E+00  0.00000000000E+00  0.74505805969E-08  0.10566000000E+00  0.10566000000E+00 0. -1.
     999900   -1    0    0    0    0 -0.00000000000E+00 -0.00000000000E+00 -0.74505805969E-08  0.93827000000E+00  0.93827000000E+00 0.  1.
     999902    2    1    2    0    0  0.17685498265E-01 -0.10052927058E-01  0.13685936086E-01  0.10194117815E+01  0.10191168909E+01 0.  0.
     999903    2    3    3    0    0  0.47567835861E-02 -0.11963670367E+00 -0.47628945040E-01  0.13040375545E+00  0.20026361979E-01 0.  0.
         14    1    1    2    0    0 -0.17685498265E-01  0.10052927058E-01 -0.13685936086E-01  0.24518218489E-01  0.00000000000E+00 0. -1.
     999901    1    3    3    0    0  0.12928714679E-01  0.10958377661E+00  0.61314881126E-01  0.88900802606E+00  0.88000000000E+00 0. -1.
        -11    1    4    4    0    0  0.53977196536E-02 -0.44951938682E-01 -0.84398635307E-02  0.46057622455E-01  0.51100000000E-03 0. -1.
         11    1    4    4    0    0 -0.64093606745E-03 -0.74684764986E-01 -0.39189081509E-01  0.84346132992E-01  0.51100000000E-03 0.  1.
</event>
<event>
 8    1  0.1095698E+005  0.1043930E+01  0.7957747E-01            NaN
         13   -1    0    0    0    0  0.00000000000E+00  0.00000000000E+00  0.74505805969E-08  0.10566000000E+00  0.10566000000E+00 0. -1.
     999900   -1    0    0    0    0 -0.00000000000E+00 -0.00000000000E+00 -0.74505805969E-08  0.93827000000E+00  0.93827000000E+00 0.  1.
     999902    2    1    2    0    0 -0.78765616124E-03 -0.38743033100E-02 -0.23534101533E-01  0.10200661243E+01  0.10197869451E+01 0.  0.
     999903    2    3    3    0    0  0.10631122064E-01  0.11070599057E-01  0.12497896869E+00  0.12742405122E+00  0.19533747566E-01 0.  0.
         14    1    1    2    0    0  0.78765616124E-03  0.38743033100E-02  0.23534101533E-01  0.23863875698E-01  0.00000000000E+00 0. -1.
     999901    1    3    3    0    0 -0.11418778226E-01 -0.14944902367E-01 -0.14851307023E+00  0.89264207308E+00  0.88000000000E+00 0.  1.
        -11    1    4    4    0    0  0.14153829708E-01  0.12164440801E-02  0.64926595464E-01  0.66464536041E-01  0.51100000000E-03 0. -1.
         11    1    4    4    0    0 -0.35227076435E-02  0.98541549772E-02  0.60052373231E-01  0.60959515181E-01  0.51100000000E-03 0.  1.
</event>
<event>
 8    1  0.1095698E+005  0.1043930E+01  0.7957747E-01            NaN
         13   -1    0    0    0    0  0.00000000000E+00  0.00000000000E+00  0.74505805969E-08  0.10566000000E+00  0.10566000000E+00 0. -1.
     999900   -1    0    0    0    0 -0.00000000000E+00 -0.00000000000E+00 -0.74505805969E-08  0.93827000000E+00  0.93827000000E+00 0. -1.
     999902    2    1    2    0    0  0.18400119084E-01  0.11757186820E-01  0.74730781194E-04  0.10220942172E+01  0.10218609433E+01 0.  0.
     999903    2    3    3    0    0  0.36373674426E-01  0.99453343448E-01 -0.79894596463E-01  0.13394515436E+00  0.18551175691E-01 0.  0.
         14    1    1    2    0    0 -0.18400119084E-01 -0.11757186820E-01 -0.74730781194E-04  0.21835782765E-01  0.00000000000E+00 0.  1.
     999901    1    3    3    0    0 -0.17973555342E-01 -0.87696156627E-01  0.79969327245E-01  0.88814906287E+00  0.88000000000E+00 0.  1.
        -11    1    4    4    0    0  0.11978642656E-01  0.59045636603E-01 -0.46916174337E-01  0.76362710907E-01  0.51100000000E-03 0.  1.
         11    1    4    4    0    0  0.24395031771E-01  0.40407706845E-01 -0.32978422126E-01  0.57582443457E-01  0.51100000000E-03 0. -1.
</event>
<event>
 8    1  0.1095698E+005  0.1043930E+01  0.7957747E-01            NaN
         13   -1    0    0    0    0  0.00000000000E+00  0.00000000000E+00  0.74505805969E-08  0.10566000000E+00  0.10566000000E+00 0. -1.
     999900   -1    0    0    0    0 -0.00000000000E+00 -0.00000000000E+00 -0.74505805969E-08  0.93827000000E+00  0.93827000000E+00 0. -1.
     999902    2    1    2    0    0 -0.81385098139E-02  0.36149789913E-02  0.21891365758E-01  0.10202966484E+01  0.10200228994E+01 0.  0.
     999903    2    3    3    0    0 -0.58775244426E-01 -0.11202487907E+00 -0.23385058093E-01  0.13013564594E+00  0.19604145354E-01 0.  0.
         14    1    1    2    0    0  0.81385098139E-02 -0.36149789913E-02 -0.21891365758E-01  0.23633351642E-01  0.00000000000E+00 0.  1.
     999901    1    3    3    0    0  0.50636734613E-01  0.11563985806E+00  0.45276423851E-01  0.89016100242E+00  0.88000000000E+00 0.  1.
        -11    1    4    4    0    0 -0.46641862885E-01 -0.72917653027E-01 -0.21249789418E-01  0.89130590527E-01  0.51100000000E-03 0.  1.
         11    1    4    4    0    0 -0.12133381541E-01 -0.39107226042E-01 -0.21352686752E-02  0.41005055415E-01  0.51100000000E-03 0. -1.
</event>
<event>
 8    1  0.1095698E+005  0.1043930E+01  0.7957747E-01            NaN
         13   -1    0    0    0    0  0.00000000000E+00  0.00000000000E+00  0.74505805969E-08  0.10566000000E+00  0.10566000000E+00 0.  1.
     999900   -1    0    0    0    0 -0.00000000000E+00 -0.00000000000E+00 -0.74505805969E-08  0.93827000000E+00  0.93827000000E+00 0.  1.
     999902    2    1    2    0    0  0.94580889832E-02 -0.21336069088E-01  0.19472189453E-02  0.10205104579E+01  0.10202416967E+01 0.  0.
     999903    2    3    3    0    0  0.28657490909E-02  0.28887660963E-01  0.12554182776E+00  0.13043096181E+00  0.20218204861E-01 0.  0.
         14    1    1    2    0    0 -0.94580889832E-02  0.21336069088E-01 -0.19472189453E-02  0.23419542117E-01  0.00000000000E+00 0. -1.
     999901    1    3    3    0    0  0.65923398923E-02 -0.50223730051E-01 -0.12359460881E+00  0.89007949607E+00  0.88000000000E+00 0.  1.
        -11    1    4    4    0    0  0.11224283165E-01  0.11622795926E-01  0.59696403474E-01  0.61846549026E-01  0.51100000000E-03 0. -1.
         11    1    4    4    0    0 -0.83585340744E-02  0.17264865037E-01  0.65845424283E-01  0.68584412782E-01  0.51100000000E-03 0.  1.
</event>
<event>
 8    1  0.1095698E+005  0.1043930E+01  0.7957747E-01            NaN
         13   -1    0    0    0    0  0.00000000000E+00  0.00000000000E+00  0.74505805969E-08  0.10566000000E+00  0.10566000000E+00 0. -1.
     999900   -1    0    0    0    0 -0.00000000000E+00 -0.00000000000E+00 -0.74505805969E-08  0.93827000000E+00  0.93827000000E+00 0. -1.
     999902    2    1    2    0    0 -0.13930055922E-01 -0.25566569755E-02 -0.20468136930E-01  0.10190396890E+01  0.10187356675E+01 0.  0.
     999903    2    3    3    0    0  0.12167956609E+00  0.73202578655E-02 -0.35707390583E-01  0.12846697557E+00  0.19215699082E-01 0.  0.
         14    1    1    2    0    0  0.13930055922E-01  0.25566569755E-02  0.20468136930E-01  0.24890311012E-01  0.00000000000E+00 0. -1.
     999901    1    3    3    0    0 -0.13560962201E+00 -0.98769148411E-02  0.15239253654E-01  0.89057271342E+00  0.88000000000E+00 0.  1.
        -11    1    4    4    0    0  0.62517096463E-01 -0.48499247451E-02 -0.22619457197E-01  0.66661908802E-01  0.51100000000E-03 0. -1.
         11    1    4    4    0    0  0.59162469627E-01  0.12170182611E-01 -0.13087933387E-01  0.61805066771E-01  0.51100000000E-03 0.  1.
</event>
<event>
 8    1  0.1095698E+005  0.1043930E+01  0.7957747E-01            NaN
         13   -1    0    0    0    0  0.00000000000E+00  0.00000000000E+00  0.74505805969E-08  0.10566000000E+00  0.10566000000E+00 0. -1.
     999900   -1    0    0    0    0 -0.00000000000E+00 -0.00000000000E+00 -0.74505805969E-08  0.93827000000E+00  0.93827000000E+00 0.  1.
     999902    2    1    2    0    0 -0.68284056887E-02  0.16285366408E-01 -0.16681207781E-01  0.10196379648E+01  0.10193485548E+01 0.  0.
     999903    2    3    3    0    0 -0.32570651024E-01 -0.61646208313E-01 -0.10902893837E+00  0.13100750338E+00  0.20360604939E-01 0.  0.
         14    1    1    2    0    0  0.68284056887E-02 -0.16285366408E-01  0.16681207781E-01  0.24292035244E-01  0.00000000000E+00 0. -1.
     999901    1    3    3    0    0  0.25742245335E-01  0.77931574720E-01  0.92347730588E-01  0.88863046137E+00  0.88000000000E+00 0. -1.
        -11    1    4    4    0    0 -0.22206516098E-01 -0.38580068689E-01 -0.50941782702E-01  0.67652623032E-01  0.51100000000E-03 0. -1.
         11    1    4    4    0    0 -0.10364134926E-01 -0.23066139624E-01 -0.58087155667E-01  0.63354880352E-01  0.51100000000E-03 0.  1.
</event>
<event>
 8    1  0.1095698E+005  0.1043930E+01  0.7957747E-01            NaN
         13   -1    0    0    0    0  0.00000000000E+00  0.00000000000E+00  0.74505805969E-08  0.10566000000E+00  0.10566000000E+00 0. -1.
     999900   -1    0    0    0    0 -0.00000000000E+00 -0.00000000000E+00 -0.74505805969E-08  0.93827000000E+00  0.93827000000E+00 0.  1.
     999902    2    1    2    0    0  0.61753805409E-02 -0.18571568963E-01 -0.13291080836E-01  0.10202722036E+01  0.10199978815E+01 0.  0.
     999903    2    3    3    0    0  0.89394876547E-01  0.68640113111E-01 -0.63058049385E-01  0.13066098903E+00  0.19825927017E-01 0.  0.
         14    1    1    2    0    0 -0.61753805409E-02  0.18571568963E-01  0.13291080836E-01  0.23657796355E-01  0.00000000000E+00 0.  1.
     999901    1    3    3    0    0 -0.83219496006E-01 -0.87211682074E-01  0.49766968549E-01  0.88961121461E+00  0.88000000000E+00 0. -1.
        -11    1    4    4    0    0  0.71255911484E-01  0.45948506397E-01 -0.40992717791E-01  0.94177142633E-01  0.51100000000E-03 0. -1.
         11    1    4    4    0    0  0.18138965062E-01  0.22691606714E-01 -0.22065331594E-01  0.36483846400E-01  0.51100000000E-03 0.  1.
</event>
<event>
 8    1  0.1095698E+005  0.1043930E+01  0.7957747E-01            NaN
         13   -1    0    0    0    0  0.00000000000E+00  0.00000000000E+00  0.74505805969E-08  0.10566000000E+00  0.10566000000E+00 0. -1.
     999900   -1    0    0    0    0 -0.00000000000E+00 -0.00000000000E+00 -0.74505805969E-08  0.93827000000E+00  0.93827000000E+00 0.  1.
     999902    2    1    2    0    0  0.65857382450E-02 -0.26817614629E-01 -0.17838769589E-01  0.10110548102E+01  0.10105201884E+01 0.  0.
     999903    2    3    3    0    0  0.11819225277E+00 -0.10965468075E-01  0.24184382301E-01  0.12286944109E+00  0.20551523138E-01 0.  0.
         14    1    1    2    0    0 -0.65857382450E-02  0.26817614629E-01  0.17838769589E-01  0.32875189780E-01  0.00000000000E+00 0. -1.
     999901    1    3    3    0    0 -0.11160651452E+00 -0.15852146554E-01 -0.42023151889E-01  0.88818536913E+00  0.88000000000E+00 0. -1.
        -11    1    4    4    0    0  0.31879520755E-01  0.30785897349E-02  0.13534855708E-01  0.34774056398E-01  0.51100000000E-03 0. -1.
         11    1    4    4    0    0  0.86312732012E-01 -0.14044057810E-01  0.10649526593E-01  0.88095384697E-01  0.51100000000E-03 0.  1.
</event>
<event>
 8    1  0.1095698E+005  0.1043930E+01  0.7957747E-01            NaN
         13   -1    0    0    0    0  0.00000000000E+00  0.00000000000E+00  0.74505805969E-08  0.10566000000E+00  0.10566000000E+00 0. -1.
     999900   -1    0    0    0    0 -0.00000000000E+00 -0.00000000000E+00 -0.74505805969E-08  0.93827000000E+00  0.93827000000E+00 0. -1.
     999902    2    1    2    0    0  0.93454279639E-02 -0.78837318642E-02  0.23123179124E-01  0.10177733247E+01  0.10174371571E+01 0.  0.
     999903    2    3    3    0    0 -0.21323498351E-01  0.49335411670E-01 -0.11114829485E+00  0.12522447885E+00  0.20941638648E-01 0.  0.
         14    1    1    2    0    0 -0.93454279639E-02  0.78837318642E-02 -0.23123179124E-01  0.26156675338E-01  0.00000000000E+00 0.  1.
     999901    1    3    3    0    0  0.30668926315E-01 -0.57219143535E-01  0.13427147398E+00  0.89254884581E+00  0.88000000000E+00 0.  1.
        -11    1    4    4    0    0 -0.22608846408E-01  0.35809679669E-01 -0.95652135367E-01  0.10460920234E+00  0.51100000000E-03 0. -1.
         11    1    4    4    0    0  0.12853480566E-02  0.13525732001E-01 -0.15496159485E-01  0.20615276510E-01  0.51100000000E-03 0.  1.
</event>
<event>
 8    1  0.1095698E+005  0.1043930E+01  0.7957747E-01            NaN
         13   -1    0    0    0    0  0.00000000000E+00  0.00000000000E+00  0.74505805969E-08  0.10566000000E+00  0.10566000000E+00 0. -1.
     999900   -1    0    0    0    0 -0.00000000000E+00 -0.00000000000E+00 -0.74505805969E-08  0.93827000000E+00  0.93827000000E+00 0.  1.
     999902    2    1    2    0    0 -0.18549894719E-01  0.41272261408E-02  0.14305197279E-01  0.10201440533E+01  0.10198667159E+01 0.  0.
     999903    2    3    3    0    0 -0.22533287602E-01  0.44127451119E-02 -0.12536928972E+00  0.12911941211E+00  0.20667423895E-01 0.  0.
         14    1    1    2    0    0  0.18549894719E-01 -0.41272261408E-02 -0.14305197279E-01  0.23785946668E-01  0.00000000000E+00 0.  1.
     999901    1    3    3    0    0  0.39833928830E-02 -0.28551897105E-03  0.13967448700E+00  0.89102464122E+00  0.88000000000E+00 0. -1.
        -11    1    4    4    0    0 -0.67176560684E-02 -0.72556136824E-02 -0.61519689227E-01  0.62311348217E-01  0.51100000000E-03 0. -1.
         11    1    4    4    0    0 -0.15815631534E-01  0.11668358794E-01 -0.63849600491E-01  0.66808063897E-01  0.51100000000E-03 0.  1.
</event>
<event>
 8    1  0.1095698E+005  0.1043930E+01  0.7957747E-01            NaN
         13   -1    0    0    0    0  0.00000000000E+00  0.00000000000E+00  0.74505805969E-08  0.10566000000E+00  0.10566000000E+00 0.  1.
     999900   -1    0    0    0    0 -0.00000000000E+00 -0.00000000000E+00 -0.74505805969E-08  0.93827000000E+00  0.93827000000E+00 0. -1.
     999902    2    1    2    0    0 -0.14165728229E-01  0.48243333192E-02 -0.20465646530E-01  0.10185768003E+01  0.10182612206E+01 0.  0.
     999903    2    3    3    0    0 -0.11358135255E+00 -0.34353816929E-01  0.47500390297E-01  0.12951112443E+00  0.20879077769E-01 0.  0.
         14    1    1    2    0    0  0.14165728229E-01 -0.48243333192E-02  0.20465646530E-01  0.25353199721E-01  0.00000000000E+00 0.  1.
     999901    1    3    3    0    0  0.99415624316E-01  0.39178150249E-01 -0.67966036827E-01  0.88906567585E+00  0.88000000000E+00 0.  1.
        -11    1    4    4    0    0 -0.70076109178E-01 -0.31509226315E-01  0.28526609695E-01  0.81960484395E-01  0.51100000000E-03 0.  1.
         11    1    4    4    0    0 -0.43505243367E-01 -0.28445906143E-02  0.18973780601E-01  0.47550640032E-01  0.51100000000E-03 0. -1.
</event>
<event>
 8    1  0.1095698E+005  0.1043930E+01  0.7957747E-01            NaN
         13   -1    0    0    0    0  0.00000000000E+00  0.00000000000E+00  0.74505805969E-08  0.10566000000E+00  0.10566000000E+00 0.  1.
     999900   -1    0    0    0    0 -0.00000000000E+00 -0.00000000000E+00 -0.74505805969E-08  0.93827000000E+00  0.93827000000E+00 0.  1.
     999902    2    1    2    0    0  0.11984263974E-01 -0.65999310083E-02  0.18907439534E-01  0.10205917708E+01  0.10203248942E+01 0.  0.
     999903    2    3    3    0    0 -0.24470526606E-01 -0.12270742790E+00  0.37239811293E-01  0.13202777286E+00  0.19713186587E-01 0.  0.
         14    1    1    2    0    0 -0.11984263974E-01  0.65999310083E-02 -0.18907439534E-01  0.23338229197E-01  0.00000000000E+00 0. -1.
     999901    1    3    3    0    0  0.36454790580E-01  0.11610749690E+00 -0.18332371759E-01  0.88856399795E+00  0.88000000000E+00 0. -1.
        -11    1    4    4    0    0 -0.26460540820E-01 -0.90582364034E-01  0.30114659657E-01  0.99057956479E-01  0.51100000000E-03 0. -1.
         11    1    4    4    0    0  0.19900142142E-02 -0.32125063870E-01  0.71251516353E-02  0.32969816379E-01  0.51100000000E-03 0.  1.
</event>
<event>
 8    1  0.1095698E+005  0.1043930E+01  0.7957747E-01            NaN
         13   -1    0    0    0    0  0.00000000000E+00  0.00000000000E+00  0.74505805969E-08  0.10566000000E+00  0.10566000000E+00 0. -1.
     999900   -1    0    0    0    0 -0.00000000000E+00 -0.00000000000E+00 -0.74505805969E-08  0.93827000000E+00  0.93827000000E+00 0.  1.
     999902    2    1    2    0    0 -0.23595803700E-01 -0.26093332323E-02 -0.12382471410E-02  0.10201580874E+01  0.10198810810E+01 0.  0.
     999903    2    3    3    0    0 -0.41540197360E-01 -0.78046940946E-01 -0.95387924075E-01  0.13174546054E+00  0.21002317141E-01 0.  0.
         14    1    1    2    0    0  0.23595803700E-01  0.26093332323E-02  0.12382471410E-02  0.23771912589E-01  0.00000000000E+00 0. -1.
     999901    1    3    3    0    0  0.17944393660E-01  0.75437607713E-01  0.94149676934E-01  0.88841262687E+00  0.88000000000E+00 0. -1.
        -11    1    4    4    0    0 -0.65014593064E-02 -0.13465674146E-01 -0.29397653530E-01  0.32986004720E-01  0.51100000000E-03 0. -1.
         11    1    4    4    0    0 -0.35038738054E-01 -0.64581266799E-01 -0.65990270545E-01  0.98759455818E-01  0.51100000000E-03 0.  1.
</event>
<event>
 8    1  0.1095698E+005  0.1043930E+01  0.7957747E-01            NaN
         13   -1    0    0    0    0  0.00000000000E+00  0.00000000000E+00  0.74505805969E-08  0.10566000000E+00  0.10566000000E+00 0. -1.
     999900   -1    0    0    0    0 -0.00000000000E+00 -0.00000000000E+00 -0.74505805969E-08  0.93827000000E+00  0.93827000000E+00 0. -1.
     999902    2    1    2    0    0  0.24875110307E-02  0.31610409647E-02 -0.22306778837E-01  0.10212634548E+01  0.10210118862E+01 0.  0.
     999903    2    3    3    0    0  0.54104269839E-01  0.90976599116E-01 -0.79396232383E-01  0.13355006196E+00  0.18106455536E-01 0.  0.
         14    1    1    2    0    0 -0.24875110307E-02 -0.31610409647E-02  0.22306778837E-01  0.22666545242E-01  0.00000000000E+00 0. -1.
     999901    1    3    3    0    0 -0.51616758809E-01 -0.87815558151E-01  0.57089453546E-01  0.88771339280E+00  0.88000000000E+00 0. -1.
        -11    1    4    4    0    0  0.39807517369E-01  0.50453294052E-01 -0.44175207247E-01  0.77986430718E-01  0.51100000000E-03 0.  1.
         11    1    4    4    0    0  0.14296752470E-01  0.40523305063E-01 -0.35221025136E-01  0.55563631244E-01  0.51100000000E-03 0. -1.
</event>
<event>
 8    1  0.1095698E+005  0.1043930E+01  0.7957747E-01            NaN
         13   -1    0    0    0    0  0.00000000000E+00  0.00000000000E+00  0.74505805969E-08  0.10566000000E+00  0.10566000000E+00 0.  1.
     999900   -1    0    0    0    0 -0.00000000000E+00 -0.00000000000E+00 -0.74505805969E-08  0.93827000000E+00  0.93827000000E+00 0. -1.
     999902    2    1    2    0    0 -0.58866360871E-03  0.19740898790E-01 -0.10699591176E-01  0.10214682356E+01  0.10212212422E+01 0.  0.
     999903    2    3    3    0    0  0.96337711111E-01 -0.78688299018E-02 -0.88197487361E-01  0.13233216997E+00  0.19751794019E-01 0.  0.
         14    1    1    2    0    0  0.58866360871E-03 -0.19740898790E-01  0.10699591176E-01  0.22461764428E-01  0.00000000000E+00 0.  1.
     999901    1    3    3    0    0 -0.96926374720E-01  0.27609728692E-01  0.77497896185E-01  0.88913606560E+00  0.88000000000E+00 0.  1.
        -11    1    4    4    0    0  0.78322294706E-01 -0.19037896675E-02 -0.78908792188E-01  0.11119741395E+00  0.51100000000E-03 0.  1.
         11    1    4    4    0    0  0.18015416406E-01 -0.59650402343E-02 -0.92886951730E-02  0.21134756026E-01  0.51100000000E-03 0. -1.
</event>
<event>
 8    1  0.1095698E+005  0.1043930E+01  0.7957747E-01            NaN
         13   -1    0    0    0    0  0.00000000000E+00  0.00000000000E+00  0.74505805969E-08  0.10566000000E+00  0.10566000000E+00 0.  1.
     999900   -1    0    0    0    0 -0.00000000000E+00 -0.00000000000E+00 -0.74505805969E-08  0.93827000000E+00  0.93827000000E+00 0. -1.
     999902    2    1    2    0    0 -0.22906179543E-01 -0.51749982532E-02  0.26304656894E-02  0.10202996590E+01  0.10200259806E+01 0.  0.
     999903    2    3    3    0    0  0.63234186532E-01  0.10015844022E+00 -0.46145435547E-01  0.12850686662E+00  0.18823869203E-01 0.  0.
         14    1    1    2    0    0  0.22906179543E-01  0.51749982532E-02 -0.26304656894E-02  0.23630341045E-01  0.00000000000E+00 0. -1.
     999901    1    3    3    0    0 -0.86140366075E-01 -0.10533343847E+00  0.48775901236E-01  0.89179279234E+00  0.88000000000E+00 0.  1.
        -11    1    4    4    0    0  0.39414233257E-01  0.73319082487E-01 -0.38945082999E-01  0.91902939293E-01  0.51100000000E-03 0. -1.
         11    1    4    4    0    0  0.23819953276E-01  0.26839357733E-01 -0.72003525474E-02  0.36603927322E-01  0.51100000000E-03 0.  1.
</event>
<event>
 8    1  0.1095698E+005  0.1043930E+01  0.7957747E-01            NaN
         13   -1    0    0    0    0  0.00000000000E+00  0.00000000000E+00  0.74505805969E-08  0.10566000000E+00  0.10566000000E+00 0.  1.
     999900   -1    0    0    0    0 -0.00000000000E+00 -0.00000000000E+00 -0.74505805969E-08  0.93827000000E+00  0.93827000000E+00 0.  1.
     999902    2    1    2    0    0  0.37682444292E-02  0.14365462756E-01  0.18134115319E-01  0.10204904538E+01  0.10202212280E+01 0.  0.
     999903    2    3    3    0    0  0.90850183998E-01  0.27433946203E-01 -0.85912573668E-01  0.12999634214E+00  0.22620816068E-01 0.  0.
         14    1    1    2    0    0 -0.37682444292E-02 -0.14365462756E-01 -0.18134115319E-01  0.23439546171E-01  0.00000000000E+00 0.  1.
     999901    1    3    3    0    0 -0.87081939569E-01 -0.13068483447E-01  0.10404668899E+00  0.89049411169E+00  0.88000000000E+00 0. -1.
        -11    1    4    4    0    0  0.19649727635E-01  0.15998565583E-01 -0.19780115727E-01  0.32149338967E-01  0.51100000000E-03 0. -1.
         11    1    4    4    0    0  0.71200456364E-01  0.11435380620E-01 -0.66132457940E-01  0.97847003176E-01  0.51100000000E-03 0.  1.
</event>
<event>
 8    1  0.1095698E+005  0.1043930E+01  0.7957747E-01            NaN
         13   -1    0    0    0    0  0.00000000000E+00  0.00000000000E+00  0.74505805969E-08  0.10566000000E+00  0.10566000000E+00 0.  1.
     999900   -1    0    0    0    0 -0.00000000000E+00 -0.00000000000E+00 -0.74505805969E-08  0.93827000000E+00  0.93827000000E+00 0. -1.
     999902    2    1    2    0    0 -0.83777827701E-02  0.84937668637E-02 -0.14265467488E-01  0.10253333637E+01  0.10251647047E+01 0.  0.
     999903    2    3    3    0    0  0.12363190428E+00  0.45003178119E-01 -0.22279616005E-01  0.13470228340E+00  0.18389944705E-01 0.  0.
         14    1    1    2    0    0  0.83777827701E-02 -0.84937668637E-02  0.14265467488E-01  0.18596636318E-01  0.00000000000E+00 0.  1.
     999901    1    3    3    0    0 -0.13200968705E+00 -0.36509411255E-01  0.80141485167E-02  0.89063108028E+00  0.88000000000E+00 0.  1.
        -11    1    4    4    0    0  0.16520911093E-01  0.13046658449E-01 -0.28755563816E-02  0.21252899698E-01  0.51100000000E-03 0.  1.
         11    1    4    4    0    0  0.10711099319E+00  0.31956519669E-01 -0.19404059623E-01  0.11344938370E+00  0.51100000000E-03 0. -1.
</event>
<event>
 8    1  0.1095698E+005  0.1043930E+01  0.7957747E-01            NaN
         13   -1    0    0    0    0  0.00000000000E+00  0.00000000000E+00  0.74505805969E-08  0.10566000000E+00  0.10566000000E+00 0. -1.
     999900   -1    0    0    0    0 -0.00000000000E+00 -0.00000000000E+00 -0.74505805969E-08  0.93827000000E+00  0.93827000000E+00 0.  1.
     999902    2    1    2    0    0 -0.66298111154E-02  0.11249040310E-01 -0.16122073547E-01  0.10231835170E+01  0.10229731633E+01 0.  0.
     999903    2    3    3    0    0  0.92739835169E-01 -0.47862466989E-01  0.76294813364E-01  0.13082183138E+00  0.20048946243E-01 0.  0.
         14    1    1    2    0    0  0.66298111154E-02 -0.11249040310E-01  0.16122073547E-01  0.20746483046E-01  0.00000000000E+00 0. -1.
     999901    1    3    3    0    0 -0.99369646285E-01  0.59111507298E-01 -0.92416886911E-01  0.89236168558E+00  0.88000000000E+00 0. -1.
        -11    1    4    4    0    0  0.57769901414E-01 -0.31684185359E-01  0.36066112786E-01  0.75115076541E-01  0.51100000000E-03 0. -1.
         11    1    4    4    0    0  0.34969933756E-01 -0.16178281630E-01  0.40228700578E-01  0.55706754838E-01  0.51100000000E-03 0.  1.
</event>
<event>
 8    1  0.1095698E+005  0.1043930E+01  0.7957747E-01            NaN
         13   -1    0    0    0    0  0.00000000000E+00  0.00000000000E+00  0.74505805969E-08  0.10566000000E+00  0.10566000000E+00 0. -1.
     999900   -1    0    0    0    0 -0.00000000000E+00 -0.00000000000E+00 -0.74505805969E-08  0.93827000000E+00  0.93827000000E+00 0.  1.
     999902    2    1    2    0    0  0.13558804024E-01 -0.14577358364E-01 -0.12872322623E-01  0.10202226755E+01  0.10199471900E+01 0.  0.
     999903    2    3    3    0    0  0.34697673676E-01  0.55586547134E-01  0.10892740249E+00  0.12881648390E+00  0.20849813672E-01 0.  0.
         14    1    1    2    0    0 -0.13558804024E-01  0.14577358364E-01  0.12872322623E-01  0.23707324463E-01  0.00000000000E+00 0. -1.
     999901    1    3    3    0    0 -0.21138869652E-01 -0.70163905498E-01 -0.12179972512E+00  0.89140619163E+00  0.88000000000E+00 0.  1.
        -11    1    4    4    0    0  0.29415791421E-01  0.41883764503E-01  0.66502876837E-01  0.83919200797E-01  0.51100000000E-03 0.  1.
         11    1    4    4    0    0  0.52818822545E-02  0.13702782631E-01  0.42424525658E-01  0.44897283106E-01  0.51100000000E-03 0. -1.
</event>
<event>
 8    1  0.1306846E+005  0.1043930E+01  0.7957747E-01            NaN
         13   -1    0    0    0    0  0.00000000000E+00  0.00000000000E+00  0.74505805969E-08  0.10566000000E+00  0.10566000000E+00 0. -1.
     999900   -1    0    0    0    0 -0.00000000000E+00 -0.00000000000E+00 -0.74505805969E-08  0.93827000000E+00  0.93827000000E+00 0. -1.
     999902    2    1    2    0    0 -0.15845667058E-01 -0.16183716438E-01  0.41249644680E-02  0.10209079850E+01  0.10206483727E+01 0.  0.
     999903    2    3    3    0    0  0.95851767467E-01  0.28468556244E-01  0.79794933433E-01  0.12950679220E+00  0.20168237515E-01 0.  0.
         14    1    1    2    0    0  0.15845667058E-01  0.16183716438E-01 -0.41249644680E-02  0.23022014988E-01  0.00000000000E+00 0. -1.
     999901    1    3    3    0    0 -0.11169743452E+00 -0.44652272682E-01 -0.75669968965E-01  0.89140119281E+00  0.88000000000E+00 0.  1.
        -11    1    4    4    0    0  0.31866779927E-01 -0.21888483107E-03  0.25719076462E-01  0.40954506328E-01  0.51100000000E-03 0. -1.
         11    1    4    4    0    0  0.63984987540E-01  0.28687441075E-01  0.54075856971E-01  0.88552285877E-01  0.51100000000E-03 0.  1.
</event>
<event>
 8    1  0.1095698E+005  0.1043930E+01  0.7957747E-01            NaN
         13   -1    0    0    0    0  0.00000000000E+00  0.00000000000E+00  0.74505805969E-08  0.10566000000E+00  0.10566000000E+00 0.  1.
     999900   -1    0    0    0    0 -0.00000000000E+00 -0.00000000000E+00 -0.74505805969E-08  0.93827000000E+00  0.93827000000E+00 0.  1.
     999902    2    1    2    0    0  0.56347544078E-02 -0.70153437238E-02  0.19208199402E-01  0.10227186722E+01  0.10224986855E+01 0.  0.
     999903    2    3    3    0    0 -0.23775416667E-02  0.10501821438E+00 -0.74958244391E-01  0.13059590360E+00  0.20051772482E-01 0.  0.
         14    1    1    2    0    0 -0.56347544078E-02  0.70153437238E-02 -0.19208199402E-01  0.21211327848E-01  0.00000000000E+00 0. -1.
     999901    1    3    3    0    0  0.80122960745E-02 -0.11203355810E+00  0.94166443793E-01  0.89212276855E+00  0.88000000000E+00 0.  1.
        -11    1    4    4    0    0  0.67741515264E-02  0.79833634838E-01 -0.55097246855E-01  0.97238192663E-01  0.51100000000E-03 0.  1.
         11    1    4    4    0    0 -0.91516931932E-02  0.25184579541E-01 -0.19860997536E-01  0.33357710939E-01  0.51100000000E-03 0. -1.
</event>
<event>
 8    1  0.1095698E+005  0.1043930E+01  0.7957747E-01            NaN
         13   -1    0    0    0    0  0.00000000000E+00  0.00000000000E+00  0.74505805969E-08  0.10566000000E+00  0.10566000000E+00 0.  1.
     999900   -1    0    0    0    0 -0.00000000000E+00 -0.00000000000E+00 -0.74505805969E-08  0.93827000000E+00  0.93827000000E+00 0. -1.
     999902    2    1    2    0    0  0.12212498694E-01 -0.45720823370E-02  0.19656680703E-01  0.10203411434E+01  0.10200684363E+01 0.  0.
     999903    2    3    3    0    0 -0.99113471976E-01  0.80223747302E-01 -0.39346237261E-02  0.12897121224E+00  0.18941023298E-01 0.  0.
         14    1    1    2    0    0 -0.12212498694E-01  0.45720823370E-02 -0.19656680703E-01  0.23588856638E-01  0.00000000000E+00 0. -1.
     999901    1    3    3    0    0  0.11132597067E+00 -0.84795829639E-01  0.23591304429E-01  0.89136993113E+00  0.88000000000E+00 0.  1.
        -11    1    4    4    0    0 -0.58536684532E-01  0.54531101655E-01 -0.97336133162E-02  0.80592734368E-01  0.51100000000E-03 0. -1.
         11    1    4    4    0    0 -0.40576787444E-01  0.25692645647E-01  0.57989895901E-02  0.48378477869E-01  0.51100000000E-03 0.  1.
</event>
<event>
 8    1  0.1095698E+005  0.1043930E+01  0.7957747E-01            NaN
         13   -1    0    0    0    0  0.00000000000E+00  0.00000000000E+00  0.74505805969E-08  0.10566000000E+00  0.10566000000E+00 0.  1.
     999900   -1    0    0    0    0 -0.00000000000E+00 -0.00000000000E+00 -0.74505805969E-08  0.93827000000E+00  0.93827000000E+00 0. -1.
     999902    2    1    2    0    0  0.11994894658E-01  0.79324059913E-02 -0.19197073762E-01  0.10199439998E+01  0.10196619217E+01 0.  0.
     999903    2    3    3    0    0 -0.97958430815E-02 -0.11649959615E+00  0.47171893616E-01  0.12844918817E+00  0.24614872521E-01 0.  0.
         14    1    1    2    0    0 -0.11994894658E-01 -0.79324059913E-02  0.19197073762E-01  0.23986000161E-01  0.00000000000E+00 0.  1.
     999901    1    3    3    0    0  0.21790737740E-01  0.12443200214E+00 -0.66368967378E-01  0.89149481167E+00  0.88000000000E+00 0. -1.
        -11    1    4    4    0    0  0.66898059102E-02 -0.27914991592E-01  0.17301603557E-01  0.33520245603E-01  0.51100000000E-03 0.  1.
         11    1    4    4    0    0 -0.16485648992E-01 -0.88584604556E-01  0.29870290059E-01  0.94928942564E-01  0.51100000000E-03 0. -1.
</event>
<event>
 8    1  0.1095698E+005  0.1043930E+01  0.7957747E-01            NaN
         13   -1    0    0    0    0  0.00000000000E+00  0.00000000000E+00  0.74505805969E-08  0.10566000000E+00  0.10566000000E+00 0.  1.
     999900   -1    0    0    0    0 -0.00000000000E+00 -0.00000000000E+00 -0.74505805969E-08  0.93827000000E+00  0.93827000000E+00 0.  1.
     999902    2    1    2    0    0 -0.22109708140E-01 -0.99908942436E-02 -0.26607593475E-02  0.10195222799E+01  0.10192300733E+01 0.  0.
     999903    2    3    3    0    0  0.10968461150E+00  0.18009169331E-01  0.59276595367E-01  0.12711543198E+00  0.17016877137E-01 0.  0.
         14    1    1    2    0    0  0.22109708140E-01  0.99908942436E-02  0.26607593475E-02  0.24407720134E-01  0.00000000000E+00 0.  1.
     999901    1    3    3    0    0 -0.13179431964E+00 -0.28000063575E-01 -0.61937354714E-01  0.89240684789E+00  0.88000000000E+00 0.  1.
        -11    1    4    4    0    0  0.43298233374E-01  0.15180378111E-01  0.21403361681E-01  0.50631471489E-01  0.51100000000E-03 0. -1.
         11    1    4    4    0    0  0.66386378130E-01  0.28287912195E-02  0.37873233686E-01  0.76483960487E-01  0.51100000000E-03 0.  1.
</event>
<event>
 8    1  0.1095698E+005  0.1043930E+01  0.7957747E-01            NaN
         13   -1    0    0    0    0  0.00000000000E+00  0.00000000000E+00  0.74505805969E-08  0.10566000000E+00  0.10566000000E+00 0.  1.
     999900   -1    0    0    0    0 -0.00000000000E+00 -0.00000000000E+00 -0.74505805969E-08  0.93827000000E+00  0.93827000000E+00 0. -1.
     999902    2    1    2    0    0  0.16328346378E-01  0.13155270028E-01 -0.33988204056E-02  0.10226878719E+01  0.10224672393E+01 0.  0.
     999903    2    3    3    0    0 -0.32888134635E-01  0.96711484580E-01 -0.83780493393E-01  0.13371930311E+00  0.20662533754E-01 0.  0.
         14    1    1    2    0    0 -0.16328346378E-01 -0.13155270028E-01  0.33988204056E-02  0.21242128074E-01  0.00000000000E+00 0.  1.
     999901    1    3    3    0    0  0.49216481013E-01 -0.83556214552E-01  0.80381672988E-01  0.88896856882E+00  0.88000000000E+00 0.  1.
        -11    1    4    4    0    0 -0.72794768271E-02  0.27689965338E-01 -0.35799884065E-01  0.45843405015E-01  0.51100000000E-03 0.  1.
         11    1    4    4    0    0 -0.25608657808E-01  0.69021519243E-01 -0.47980609328E-01  0.87875898094E-01  0.51100000000E-03 0. -1.
</event>
<event>
 8    1  0.1095698E+005  0.1043930E+01  0.7957747E-01            NaN
         13   -1    0    0    0    0  0.00000000000E+00  0.00000000000E+00  0.74505805969E-08  0.10566000000E+00  0.10566000000E+00 0. -1.
     999900   -1    0    0    0    0 -0.00000000000E+00 -0.00000000000E+00 -0.74505805969E-08  0.93827000000E+00  0.93827000000E+00 0. -1.
     999902    2    1    2    0    0 -0.18864617965E-01 -0.70597772171E-02  0.12395212483E-01  0.10202793011E+01  0.10200051454E+01 0.  0.
     999903    2    3    3    0    0  0.24721630565E-01 -0.12005704631E+00  0.43075403889E-01  0.13145456134E+00  0.19998947235E-01 0.  0.
         14    1    1    2    0    0  0.18864617965E-01  0.70597772171E-02 -0.12395212483E-01  0.23650698886E-01  0.00000000000E+00 0.  1.
     999901    1    3    3    0    0 -0.43586248530E-01  0.11299726910E+00 -0.30680191406E-01  0.88882473977E+00  0.88000000000E+00 0. -1.
        -11    1    4    4    0    0  0.67413581228E-02 -0.78319288682E-01  0.30260071883E-01  0.84233544151E-01  0.51100000000E-03 0. -1.
         11    1    4    4    0    0  0.17980272443E-01 -0.41737757631E-01  0.12815332006E-01  0.47221017192E-01  0.51100000000E-03 0.  1.
</event>
<event>
 8    1  0.1095698E+005  0.1043930E+01  0.7957747E-01            NaN
         13   -1    0    0    0    0  0.00000000000E+00  0.00000000000E+00  0.74505805969E-08  0.10566000000E+00  0.10566000000E+00 0. -1.
     999900   -1    0    0    0    0 -0.00000000000E+00 -0.00000000000E+00 -0.74505805969E-08  0.93827000000E+00  0.93827000000E+00 0. -1.
     999902    2    1    2    0    0 -0.15386479605E-02 -0.21162446596E-01  0.22482400956E-02  0.10225929157E+01  0.10223702852E+01 0.  0.
     999903    2    3    3    0    0 -0.10156232877E+00  0.79315637975E-01  0.13270196550E-01  0.13117715089E+00  0.20626918038E-01 0.  0.
         14    1    1    2    0    0  0.15386479605E-02  0.21162446596E-01 -0.22482400956E-02  0.21337084314E-01  0.00000000000E+00 0. -1.
     999901    1    3    3    0    0  0.10002368081E+00 -0.10047808457E+00 -0.11021956454E-01  0.89141576479E+00  0.88000000000E+00 0. -1.
        -11    1    4    4    0    0 -0.38559947106E-01  0.41360188148E-01  0.10868606065E-01  0.57584046431E-01  0.51100000000E-03 0. -1.
         11    1    4    4    0    0 -0.63002381660E-01  0.37955449826E-01  0.24015904846E-02  0.73593104461E-01  0.51100000000E-03 0.  1.
</event>
<event>
 8    1  0.1095698E+005  0.1043930E+01  0.7957747E-01            NaN
         13   -1    0    0    0    0  0.00000000000E+00  0.00000000000E+00  0.74505805969E-08  0.10566000000E+00  0.10566000000E+00 0. -1.
     999900   -1    0    0    0    0 -0.00000000000E+00 -0.00000000000E+00 -0.74505805969E-08  0.93827000000E+00  0.93827000000E+00 0. -1.
     999902    2    1    2    0    0  0.50634164641E-02  0.45140925886E-02 -0.90229840933E-02  0.10326415342E+01  0.10325798316E+01 0.  0.
     999903    2    3    3    0    0 -0.28934721504E-01 -0.13450532737E+00 -0.22943539935E-01  0.14097116103E+00  0.20434309856E-01 0.  0.
         14    1    1    2    0    0 -0.50634164641E-02 -0.45140925886E-02  0.90229840933E-02  0.11288465801E-01  0.00000000000E+00 0. -1.
     999901    1    3    3    0    0  0.33998137968E-01  0.13901941996E+00  0.13920555842E-01  0.89167037317E+00  0.88000000000E+00 0.  1.
        -11    1    4    4    0    0 -0.10667406670E-01 -0.78866133004E-01 -0.21290040872E-01  0.82384388457E-01  0.51100000000E-03 0. -1.
         11    1    4    4    0    0 -0.18267314834E-01 -0.55639194363E-01 -0.16534990634E-02  0.58586772575E-01  0.51100000000E-03 0.  1.
</event>
<event>
 8    1  0.1095698E+005  0.1043930E+01  0.7957747E-01            NaN
         13   -1    0    0    0    0  0.00000000000E+00  0.00000000000E+00  0.74505805969E-08  0.10566000000E+00  0.10566000000E+00 0. -1.
     999900   -1    0    0    0    0 -0.00000000000E+00 -0.00000000000E+00 -0.74505805969E-08  0.93827000000E+00  0.93827000000E+00 0. -1.
     999902    2    1    2    0    0 -0.50028216703E-02 -0.23520912489E-01 -0.94642458415E-02  0.10180875253E+01  0.10177594881E+01 0.  0.
     999903    2    3    3    0    0 -0.82785592541E-01  0.56586281017E-02  0.95323016971E-01  0.12798529776E+00  0.20206050427E-01 0.  0.
         14    1    1    2    0    0  0.50028216703E-02  0.23520912489E-01  0.94642458415E-02  0.25842474695E-01  0.00000000000E+00 0.  1.
     999901    1    3    3    0    0  0.77782770871E-01 -0.29179540591E-01 -0.10478726281E+00  0.89010222755E+00  0.88000000000E+00 0. -1.
        -11    1    4    4    0    0 -0.56382832378E-01 -0.48500814363E-02  0.57557468642E-01  0.80719702640E-01  0.51100000000E-03 0. -1.
         11    1    4    4    0    0 -0.26402760163E-01  0.10508709538E-01  0.37765548330E-01  0.47265595120E-01  0.51100000000E-03 0.  1.
</event>
<event>
 8    1  0.1095698E+005  0.1043930E+01  0.7957747E-01            NaN
         13   -1    0    0    0    0  0.00000000000E+00  0.00000000000E+00  0.74505805969E-08  0.10566000000E+00  0.10566000000E+00 0.  1.
     999900   -1    0    0    0    0 -0.00000000000E+00 -0.00000000000E+00 -0.74505805969E-08  0.93827000000E+00  0.93827000000E+00 0. -1.
     999902    2    1    2    0    0  0.51898054763E-02  0.10165907274E-01  0.20375765081E-01  0.10205750957E+01  0.10203078332E+01 0.  0.
     999903    2    3    3    0    0 -0.73121751382E-01  0.39248944500E-01  0.10137070505E+00  0.13291598136E+00  0.22435866152E-01 0.  0.
         14    1    1    2    0    0 -0.51898054763E-02 -0.10165907274E-01 -0.20375765081E-01  0.23354904287E-01  0.00000000000E+00 0.  1.
     999901    1    3    3    0    0  0.78311556858E-01 -0.29083037225E-01 -0.80994939966E-01  0.88765911435E+00  0.88000000000E+00 0. -1.
        -11    1    4    4    0    0 -0.58184319335E-01  0.37595913565E-01  0.92118265808E-01  0.11526015682E+00  0.51100000000E-03 0.  1.
         11    1    4    4    0    0 -0.14937432047E-01  0.16530309345E-02  0.92524392394E-02  0.17655824543E-01  0.51100000000E-03 0. -1.
</event>
<event>
 8    1  0.1095698E+005  0.1043930E+01  0.7957747E-01            NaN
         13   -1    0    0    0    0  0.00000000000E+00  0.00000000000E+00  0.74505805969E-08  0.10566000000E+00  0.10566000000E+00 0. -1.
     999900   -1    0    0    0    0 -0.00000000000E+00 -0.00000000000E+00 -0.74505805969E-08  0.93827000000E+00  0.93827000000E+00 0.  1.
     999902    2    1    2    0    0 -0.23102228586E-01  0.15453994163E-02  0.48089716133E-02  0.10202820100E+01  0.10200079178E+01 0.  0.
     999903    2    3    3    0    0  0.67978852730E-01  0.45162815839E-01 -0.97120740701E-01  0.12866106548E+00  0.21457566075E-01 0.  0.
         14    1    1    2    0    0  0.23102228586E-01 -0.15453994163E-02 -0.48089716133E-02  0.23647990041E-01  0.00000000000E+00 0. -1.
     999901    1    3    3    0    0 -0.91081081317E-01 -0.43617416423E-01  0.10192971231E+00  0.89162094448E+00  0.88000000000E+00 0. -1.
        -11    1    4    4    0    0  0.40636616403E-01  0.36179141215E-01 -0.73363412857E-01  0.91338471187E-01  0.51100000000E-03 0. -1.
         11    1    4    4    0    0  0.27342236327E-01  0.89836746241E-02 -0.23757327844E-01  0.37322594288E-01  0.51100000000E-03 0.  1.
</event>
<event>
 8    1  0.1095698E+005  0.1043930E+01  0.7957747E-01            NaN
         13   -1    0    0    0    0  0.00000000000E+00  0.00000000000E+00  0.74505805969E-08  0.10566000000E+00  0.10566000000E+00 0. -1.
     999900   -1    0    0    0    0 -0.00000000000E+00 -0.00000000000E+00 -0.74505805969E-08  0.93827000000E+00  0.93827000000E+00 0. -1.
     999902    2    1    2    0    0  0.22652795009E-01 -0.31100572738E-02  0.73427667645E-02  0.10199146340E+01  0.10196318566E+01 0.  0.
     999903    2    3    3    0    0  0.22856700390E-01 -0.82991389578E-01  0.98044011055E-01  0.13165353249E+00  0.17607527264E-01 0.  0.
         14    1    1    2    0    0 -0.22652795009E-01  0.31100572738E-02 -0.73427667645E-02  0.24015365950E-01  0.00000000000E+00 0.  1.
     999901    1    3    3    0    0 -0.20390538102E-03  0.79881332305E-01 -0.90701244291E-01  0.88826110156E+00  0.88000000000E+00 0. -1.
        -11    1    4    4    0    0  0.18963296791E-01 -0.35925404315E-01  0.46211919352E-01  0.61530837078E-01  0.51100000000E-03 0.  1.
         11    1    4    4    0    0  0.38934035988E-02 -0.47065985264E-01  0.51832091704E-01  0.70122695412E-01  0.51100000000E-03 0. -1.
</event>
<event>
 8    1  0.1095698E+005  0.1043930E+01  0.7957747E-01            NaN
         13   -1    0    0    0    0  0.00000000000E+00  0.00000000000E+00  0.74505805969E-08  0.10566000000E+00  0.10566000000E+00 0. -1.
     999900   -1    0    0    0    0 -0.00000000000E+00 -0.00000000000E+00 -0.74505805969E-08  0.93827000000E+00  0.93827000000E+00 0.  1.
     999902    2    1    2    0    0 -0.13548417703E-01  0.16298303675E-01 -0.71570428836E-02  0.10215599846E+01  0.10213150271E+01 0.  0.
     999903    2    3    3    0    0  0.10515256865E+00  0.74635234908E-01  0.14312060523E-01  0.13141727466E+00  0.20932845453E-01 0.  0.
         14    1    1    2    0    0  0.13548417703E-01 -0.16298303675E-01  0.71570428836E-02  0.22370015373E-01  0.00000000000E+00 0. -1.
     999901    1    3    3    0    0 -0.11870098635E+00 -0.58336931233E-01 -0.21469103407E-01  0.89014270997E+00  0.88000000000E+00 0. -1.
        -11    1    4    4    0    0  0.69337754195E-01  0.45228594366E-01  0.18681938910E-01  0.84868285405E-01  0.51100000000E-03 0. -1.
         11    1    4    4    0    0  0.35814814457E-01  0.29406640542E-01 -0.43698783867E-02  0.46548989255E-01  0.51100000000E-03 0.  1.
</event>
<event>
 8    1  0.1095698E+005  0.1043930E+01  0.7957747E-01            NaN
         13   -1    0    0    0    0  0.00000000000E+00  0.00000000000E+00  0.74505805969E-08  0.10566000000E+00  0.10566000000E+00 0. -1.
     999900   -1    0    0    0    0 -0.00000000000E+00 -0.00000000000E+00 -0.74505805969E-08  0.93827000000E+00  0.93827000000E+00 0.  1.
     999902    2    1    2    0    0  0.95124395731E-03  0.19507673004E-01 -0.13501931558E-01  0.10201864466E+01  0.10199101086E+01 0.  0.
     999903    2    3    3    0    0 -0.65224731459E-01  0.58460854807E-01 -0.97779243297E-01  0.13283123287E+00  0.20283462931E-01 0.  0.
         14    1    1    2    0    0 -0.95124395731E-03 -0.19507673004E-01  0.13501931558E-01  0.23743553376E-01  0.00000000000E+00 0.  1.
     999901    1    3    3    0    0  0.66175975417E-01 -0.38953181803E-01  0.84277311739E-01  0.88735521375E+00  0.88000000000E+00 0. -1.
        -11    1    4    4    0    0 -0.48172007415E-01  0.31411449925E-01 -0.68832062645E-01  0.89695793958E-01  0.51100000000E-03 0.  1.
         11    1    4    4    0    0 -0.17052724045E-01  0.27049404882E-01 -0.28947180652E-01  0.43135438917E-01  0.51100000000E-03 0. -1.
</event>
<event>
 7    1  0.1646798E+005  0.1043930E+01  0.7957747E-01            NaN
         13   -1    0    0    0    0  0.00000000000E+00  0.00000000000E+00  0.74505805969E-08  0.10566000000E+00  0.10566000000E+00 0. -1.
     999900   -1    0    0    0    0 -0.00000000000E+00 -0.00000000000E+00 -0.74505805969E-08  0.93827000000E+00  0.93827000000E+00 0. -1.
     999903    2    1    2    0    0 -0.13508599962E-01  0.57649294269E-01 -0.88716850366E-01  0.10842727498E+00  0.19490280119E-01 0.  0.
         14    1    1    2    0    0  0.39991964413E-01 -0.88051987283E-02 -0.22565956112E-01  0.46755867199E-01  0.00000000000E+00 0.  1.
     999901    1    1    2    0    0 -0.26483364451E-01 -0.48844095541E-01  0.11128280648E+00  0.88874685782E+00  0.88000000000E+00 0.  1.
        -11    1    3    3    0    0  0.16837511768E-02  0.34963493318E-01 -0.48451939144E-01  0.59775684110E-01  0.51100000000E-03 0.  1.
         11    1    3    3    0    0 -0.15192351139E-01  0.22685800951E-01 -0.40264911221E-01  0.48651590874E-01  0.51100000000E-03 0. -1.
</event>
<event>
 8    1  0.1095698E+005  0.1043930E+01  0.7957747E-01            NaN
         13   -1    0    0    0    0  0.00000000000E+00  0.00000000000E+00  0.74505805969E-08  0.10566000000E+00  0.10566000000E+00 0.  1.
     999900   -1    0    0    0    0 -0.00000000000E+00 -0.00000000000E+00 -0.74505805969E-08  0.93827000000E+00  0.93827000000E+00 0.  1.
     999902    2    1    2    0    0 -0.22434896457E-01  0.83410254232E-02 -0.20963590028E-02  0.10199030983E+01  0.10196200459E+01 0.  0.
     999903    2    3    3    0    0  0.61832668018E-01  0.11060588108E+00 -0.19289023200E-01  0.12981618635E+00  0.20572701810E-01 0.  0.
         14    1    1    2    0    0  0.22434896457E-01 -0.83410254232E-02  0.20963590028E-02  0.24026901698E-01  0.00000000000E+00 0.  1.
     999901    1    3    3    0    0 -0.84267564474E-01 -0.10226485565E+00  0.17192664197E-01  0.89008691195E+00  0.88000000000E+00 0. -1.
        -11    1    4    4    0    0  0.43018025054E-01  0.58569338649E-01 -0.60797004291E-02  0.72925590759E-01  0.51100000000E-03 0. -1.
         11    1    4    4    0    0  0.18814642964E-01  0.52036542428E-01 -0.13209322771E-01  0.56890595592E-01  0.51100000000E-03 0.  1.
</event>
<event>
 8    1  0.1095698E+005  0.1043930E+01  0.7957747E-01            NaN
         13   -1    0    0    0    0  0.00000000000E+00  0.00000000000E+00  0.74505805969E-08  0.10566000000E+00  0.10566000000E+00 0.  1.
     999900   -1    0    0    0    0 -0.00000000000E+00 -0.00000000000E+00 -0.74505805969E-08  0.93827000000E+00  0.93827000000E+00 0. -1.
     999902    2    1    2    0    0  0.45714706232E-02  0.51955757320E-02  0.21380825546E-01  0.10214570818E+01  0.10212098403E+01 0.  0.
     999903    2    3    3    0    0 -0.98937727946E-01  0.66974317729E-01  0.53769246456E-01  0.13264901650E+00  0.20745998849E-01 0.  0.
         14    1    1    2    0    0 -0.45714706232E-02 -0.51955757320E-02 -0.21380825546E-01  0.22472918188E-01  0.00000000000E+00 0. -1.
     999901    1    3    3    0    0  0.10350919857E+00 -0.61778741997E-01 -0.32388420910E-01  0.88880806531E+00  0.88000000000E+00 0.  1.
        -11    1    4    4    0    0 -0.63218463782E-01  0.30460186284E-01  0.31673425142E-01  0.76992623625E-01  0.51100000000E-03 0.  1.
         11    1    4    4    0    0 -0.35719264164E-01  0.36514131445E-01  0.22095821314E-01  0.55656392878E-01  0.51100000000E-03 0. -1.
</event>
<event>
 8    1  0.1095698E+005  0.1043930E+01  0.7957747E-01            NaN
         13   -1    0    0    0    0  0.00000000000E+00  0.00000000000E+00  0.74505805969E-08  0.10566000000E+00  0.10566000000E+00 0.  1.
     999900   -1    0    0    0    0 -0.00000000000E+00 -0.00000000000E+00 -0.74505805969E-08  0.93827000000E+00  0.93827000000E+00 0. -1.
     999902    2    1    2    0    0  0.66224560773E-02 -0.20490459213E-01 -0.88660158757E-02  0.10206421903E+01  0.10203764788E+01 0.  0.
     999903    2    3    3    0    0 -0.13954901003E-01 -0.11013451900E+00  0.69370104849E-01  0.13239651726E+00  0.19805928371E-01 0.  0.
         14    1    1    2    0    0 -0.66224560773E-02  0.20490459213E-01  0.88660158757E-02  0.23287809703E-01  0.00000000000E+00 0.  1.
     999901    1    3    3    0    0  0.20577357080E-01  0.89644059787E-01 -0.78236120725E-01  0.88824567304E+00  0.88000000000E+00 0. -1.
        -11    1    4    4    0    0  0.36476787881E-02 -0.54996786036E-02  0.49520384441E-02  0.82665489193E-02  0.51100000000E-03 0.  1.
         11    1    4    4    0    0 -0.17602579791E-01 -0.10463484040E+00  0.64418066405E-01  0.12412996834E+00  0.51100000000E-03 0. -1.
</event>
<event>
 8    1  0.1095698E+005  0.1043930E+01  0.7957747E-01            NaN
         13   -1    0    0    0    0  0.00000000000E+00  0.00000000000E+00  0.74505805969E-08  0.10566000000E+00  0.10566000000E+00 0. -1.
     999900   -1    0    0    0    0 -0.00000000000E+00 -0.00000000000E+00 -0.74505805969E-08  0.93827000000E+00  0.93827000000E+00 0.  1.
     999902    2    1    2    0    0  0.63720633241E-02 -0.21645185866E-01  0.67622616559E-02  0.10203748425E+01  0.10201029231E+01 0.  0.
     999903    2    3    3    0    0 -0.10299564089E+00  0.96387681330E-02 -0.75070054601E-01  0.12928758051E+00  0.19461692707E-01 0.  0.
         14    1    1    2    0    0 -0.63720633241E-02  0.21645185866E-01 -0.67622616559E-02  0.23555157500E-01  0.00000000000E+00 0. -1.
     999901    1    3    3    0    0  0.10936770421E+00 -0.31283953999E-01  0.81832316257E-01  0.89108726199E+00  0.88000000000E+00 0. -1.
        -11    1    4    4    0    0 -0.32493620141E-01 -0.23054219936E-02 -0.14867612036E-01  0.35811413391E-01  0.51100000000E-03 0. -1.
         11    1    4    4    0    0 -0.70502020744E-01  0.11944190127E-01 -0.60202442565E-01  0.93476167116E-01  0.51100000000E-03 0.  1.
</event>
<event>
 8    1  0.1095698E+005  0.1043930E+01  0.7957747E-01            NaN
         13   -1    0    0    0    0  0.00000000000E+00  0.00000000000E+00  0.74505805969E-08  0.10566000000E+00  0.10566000000E+00 0. -1.
     999900   -1    0    0    0    0 -0.00000000000E+00 -0.00000000000E+00 -0.74505805969E-08  0.93827000000E+00  0.93827000000E+00 0. -1.
     999902    2    1    2    0    0  0.11875344288E-01  0.20362147333E-01  0.14048241906E-02  0.10203161402E+01  0.10200428479E+01 0.  0.
     999903    2    3    3    0    0  0.11045663929E+00 -0.33951136758E-01 -0.59694636994E-01  0.13104601881E+00  0.16008138837E-01 0.  0.
         14    1    1    2    0    0 -0.11875344288E-01 -0.20362147333E-01 -0.14048241906E-02  0.23613859849E-01  0.00000000000E+00 0. -1.
     999901    1    3    3    0    0 -0.98581295004E-01  0.54313284090E-01  0.61099461185E-01  0.88927012134E+00  0.88000000000E+00 0.  1.
        -11    1    4    4    0    0  0.15448469679E-01 -0.48924234759E-02 -0.15053649540E-01  0.22123844792E-01  0.51100000000E-03 0.  1.
         11    1    4    4    0    0  0.95008169613E-01 -0.29058713282E-01 -0.44640987454E-01  0.10892217402E+00  0.51100000000E-03 0. -1.
</event>
<event>
 8    1  0.1095698E+005  0.1043930E+01  0.7957747E-01            NaN
         13   -1    0    0    0    0  0.00000000000E+00  0.00000000000E+00  0.74505805969E-08  0.10566000000E+00  0.10566000000E+00 0.  1.
     999900   -1    0    0    0    0 -0.00000000000E+00 -0.00000000000E+00 -0.74505805969E-08  0.93827000000E+00  0.93827000000E+00 0.  1.
     999902    2    1    2    0    0 -0.28151097345E-02 -0.50008747570E-02  0.23174457968E-01  0.10200555556E+01  0.10197761262E+01 0.  0.
     999903    2    3    3    0    0  0.77369179864E-01 -0.98731165341E-01 -0.27429177935E-01  0.13001307596E+00  0.20425648503E-01 0.  0.
         14    1    1    2    0    0  0.28151097345E-02  0.50008747570E-02 -0.23174457968E-01  0.23874444355E-01  0.00000000000E+00 0. -1.
     999901    1    3    3    0    0 -0.80184289598E-01  0.93730290584E-01  0.50603635903E-01  0.89004247968E+00  0.88000000000E+00 0.  1.
        -11    1    4    4    0    0  0.24280154098E-01 -0.46524282784E-01 -0.82821675304E-02  0.53130877949E-01  0.51100000000E-03 0.  1.
         11    1    4    4    0    0  0.53089025766E-01 -0.52206882557E-01 -0.19147010405E-01  0.76882198014E-01  0.51100000000E-03 0. -1.
</event>
<event>
 8    1  0.1095698E+005  0.1043930E+01  0.7957747E-01            NaN
         13   -1    0    0    0    0  0.00000000000E+00  0.00000000000E+00  0.74505805969E-08  0.10566000000E+00  0.10566000000E+00 0. -1.
     999900   -1    0    0    0    0 -0.00000000000E+00 -0.00000000000E+00 -0.74505805969E-08  0.93827000000E+00  0.93827000000E+00 0.  1.
     999902    2    1    2    0    0 -0.59545601640E-03  0.39628937916E-02  0.12318406248E-01  0.10309761501E+01  0.10308947666E+01 0.  0.
     999903    2    3    3    0    0 -0.58297676737E-01 -0.10690045036E+00  0.67208940291E-01  0.14045203583E+00  0.19580789375E-01 0.  0.
         14    1    1    2    0    0  0.59545601640E-03 -0.39628937916E-02 -0.12318406248E-01  0.12953849913E-01  0.00000000000E+00 0.  1.
     999901    1    3    3    0    0  0.57702220721E-01  0.11086334415E+00 -0.54890534043E-01  0.89052411426E+00  0.88000000000E+00 0. -1.
        -11    1    4    4    0    0 -0.29008528964E-01 -0.34090328202E-01  0.21979896766E-01  0.49870053263E-01  0.51100000000E-03 0. -1.
         11    1    4    4    0    0 -0.29289147773E-01 -0.72810122158E-01  0.45229043525E-01  0.90581982563E-01  0.51100000000E-03 0.  1.
</event>
<event>
 8    1  0.1095698E+005  0.1043930E+01  0.7957747E-01            NaN
         13   -1    0    0    0    0  0.00000000000E+00  0.00000000000E+00  0.74505805969E-08  0.10566000000E+00  0.10566000000E+00 0.  1.
     999900   -1    0    0    0    0 -0.00000000000E+00 -0.00000000000E+00 -0.74505805969E-08  0.93827000000E+00  0.93827000000E+00 0. -1.
     999902    2    1    2    0    0 -0.16414715543E-02  0.21370975187E-01  0.96376729113E-02  0.10204289841E+01  0.10201583278E+01 0.  0.
     999903    2    3    3    0    0  0.85449046487E-01 -0.45757083116E-01  0.84993811852E-01  0.13038995000E+00  0.19553536927E-01 0.  0.
         14    1    1    2    0    0  0.16414715543E-02 -0.21370975187E-01 -0.96376729113E-02  0.23501015903E-01  0.00000000000E+00 0.  1.
     999901    1    3    3    0    0 -0.87090518042E-01  0.67128058303E-01 -0.75356138941E-01  0.89003903410E+00  0.88000000000E+00 0. -1.
        -11    1    4    4    0    0  0.33630638611E-01 -0.12321791280E-01  0.21028636914E-01  0.41536864172E-01  0.51100000000E-03 0. -1.
         11    1    4    4    0    0  0.51818407876E-01 -0.33435291836E-01  0.63965174938E-01  0.88853085826E-01  0.51100000000E-03 0.  1.
</event>
<event>
 8    1  0.1095698E+005  0.1043930E+01  0.7957747E-01            NaN
         13   -1    0    0    0    0  0.00000000000E+00  0.00000000000E+00  0.74505805969E-08  0.10566000000E+00  0.10566000000E+00 0. -1.
     999900   -1    0    0    0    0 -0.00000000000E+00 -0.00000000000E+00 -0.74505805969E-08  0.93827000000E+00  0.93827000000E+00 0.  1.
     999902    2    1    2    0    0 -0.65989083617E-02  0.10387200653E-01 -0.24760194603E-01  0.10162802845E+01  0.10159040850E+01 0.  0.
     999903    2    3    3    0    0 -0.10112049717E+00  0.35495299161E-01 -0.69867589047E-01  0.12971419878E+00  0.21424802329E-01 0.  0.
         14    1    1    2    0    0  0.65989083617E-02 -0.10387200653E-01  0.24760194603E-01  0.27649715474E-01  0.00000000000E+00 0.  1.
     999901    1    3    3    0    0  0.94521588812E-01 -0.25108098507E-01  0.45107394443E-01  0.88656608575E+00  0.88000000000E+00 0.  1.
        -11    1    4    4    0    0 -0.53269307084E-01  0.10996929652E-01 -0.25813060365E-01  0.60209025448E-01  0.51100000000E-03 0.  1.
         11    1    4    4    0    0 -0.47851190089E-01  0.24498369508E-01 -0.44054528682E-01  0.69505173332E-01  0.51100000000E-03 0. -1.
</event>
<event>
 8    1  0.1095698E+005  0.1043930E+01  0.7957747E-01            NaN
         13   -1    0    0    0    0  0.00000000000E+00  0.00000000000E+00  0.74505805969E-08  0.10566000000E+00  0.10566000000E+00 0. -1.
     999900   -1    0    0    0    0 -0.00000000000E+00 -0.00000000000E+00 -0.74505805969E-08  0.93827000000E+00  0.93827000000E+00 0.  1.
     999902    2    1    2    0    0 -0.20098821326E-01  0.14688141918E-02 -0.13256031703E-01  0.10198085902E+01  0.10195232799E+01 0.  0.
     999903    2    3    3    0    0  0.10685005025E+00  0.67246014487E-01  0.92025291333E-02  0.12798627437E+00  0.18890213903E-01 0.  0.
         14    1    1    2    0    0  0.20098821326E-01 -0.14688141918E-02  0.13256031703E-01  0.24121409792E-01  0.00000000000E+00 0. -1.
     999901    1    3    3    0    0 -0.12694887158E+00 -0.65777200295E-01 -0.22458560837E-01  0.89182231584E+00  0.88000000000E+00 0.  1.
        -11    1    4    4    0    0  0.30784166409E-01  0.14112751413E-01 -0.45948799228E-02  0.34179068104E-01  0.51100000000E-03 0.  1.
         11    1    4    4    0    0  0.76065883842E-01  0.53133263073E-01  0.13797409056E-01  0.93807206265E-01  0.51100000000E-03 0. -1.
</event>
<event>
 8    1  0.1095698E+005  0.1043930E+01  0.7957747E-01            NaN
         13   -1    0    0    0    0  0.00000000000E+00  0.00000000000E+00  0.74505805969E-08  0.10566000000E+00  0.10566000000E+00 0. -1.
     999900   -1    0    0    0    0 -0.00000000000E+00 -0.00000000000E+00 -0.74505805969E-08  0.93827000000E+00  0.93827000000E+00 0. -1.
     999902    2    1    2    0    0 -0.33391966263E-02  0.98332258559E-02 -0.20498170976E-01  0.10209513669E+01  0.10206927432E+01 0.  0.
     999903    2    3    3    0    0  0.41596589063E-01 -0.11563887819E+00  0.33279830721E-01  0.12929305389E+00  0.22506005408E-01 0.  0.
         14    1    1    2    0    0  0.33391966263E-02 -0.98332258559E-02  0.20498170976E-01  0.22978633080E-01  0.00000000000E+00 0. -1.
     999901    1    3    3    0    0 -0.44935785690E-01  0.12547210405E+00 -0.53778001697E-01  0.89165831303E+00  0.88000000000E+00 0. -1.
        -11    1    4    4    0    0  0.41267575014E-02 -0.99112379715E-03  0.51626860243E-03  0.43058225842E-02  0.51100000000E-03 0. -1.
         11    1    4    4    0    0  0.37469831562E-01 -0.11464775440E+00  0.32763562118E-01  0.12498723131E+00  0.51100000000E-03 0.  1.
</event>
<event>
 8    1  0.1095698E+005  0.1043930E+01  0.7957747E-01            NaN
         13   -1    0    0    0    0  0.00000000000E+00  0.00000000000E+00  0.74505805969E-08  0.10566000000E+00  0.10566000000E+00 0. -1.
     999900   -1    0    0    0    0 -0.00000000000E+00 -0.00000000000E+00 -0.74505805969E-08  0.93827000000E+00  0.93827000000E+00 0.  1.
     999902    2    1    2    0    0  0.12590226307E-01  0.12364108929E-01  0.34992141841E-02  0.10259402949E+01  0.10257825595E+01 0.  0.
     999903    2    3    3    0    0 -0.88051492164E-01 -0.99009983905E-01 -0.73435628770E-02  0.13316344160E+00  0.11069420863E-01 0.  0.
         14    1    1    2    0    0 -0.12590226307E-01 -0.12364108929E-01 -0.34992141841E-02  0.17989705055E-01  0.00000000000E+00 0.  1.
     999901    1    3    3    0    0  0.10064171847E+00  0.11137409283E+00  0.10842777061E-01  0.89277685334E+00  0.88000000000E+00 0. -1.
        -11    1    4    4    0    0 -0.59193633499E-01 -0.73379176445E-01 -0.30988489322E-02  0.94330555857E-01  0.51100000000E-03 0. -1.
         11    1    4    4    0    0 -0.28857858665E-01 -0.25630807460E-01 -0.42447139448E-02  0.38832885744E-01  0.51100000000E-03 0.  1.
</event>
<event>
 8    1  0.1095698E+005  0.1043930E+01  0.7957747E-01            NaN
         13   -1    0    0    0    0  0.00000000000E+00  0.00000000000E+00  0.74505805969E-08  0.10566000000E+00  0.10566000000E+00 0. -1.
     999900   -1    0    0    0    0 -0.00000000000E+00 -0.00000000000E+00 -0.74505805969E-08  0.93827000000E+00  0.93827000000E+00 0.  1.
     999902    2    1    2    0    0 -0.25361279012E-01 -0.42121135179E-02  0.44632968862E-03  0.10182174431E+01  0.10178927379E+01 0.  0.
     999903    2    3    3    0    0  0.64424304996E-01 -0.79009253818E-01 -0.73262511337E-01  0.12743741605E+00  0.21907674003E-01 0.  0.
         14    1    1    2    0    0  0.25361279012E-01  0.42121135179E-02 -0.44632968862E-03  0.25712556925E-01  0.00000000000E+00 0.  1.
     999901    1    3    3    0    0 -0.89785584008E-01  0.74797140300E-01  0.73708841025E-01  0.89078002702E+00  0.88000000000E+00 0.  1.
        -11    1    4    4    0    0  0.34189014026E-01 -0.24941609377E-01 -0.29507383835E-01  0.51593792069E-01  0.51100000000E-03 0.  1.
         11    1    4    4    0    0  0.30235290971E-01 -0.54067644441E-01 -0.43755127502E-01  0.75843623985E-01  0.51100000000E-03 0. -1.
</event>
<event>
 8    1  0.1095698E+005  0.1043930E+01  0.7957747E-01            NaN
         13   -1    0    0    0    0  0.00000000000E+00  0.00000000000E+00  0.74505805969E-08  0.10566000000E+00  0.10566000000E+00 0. -1.
     999900   -1    0    0    0    0 -0.00000000000E+00 -0.00000000000E+00 -0.74505805969E-08  0.93827000000E+00  0.93827000000E+00 0.  1.
     999902    2    1    2    0    0  0.11313974337E-01  0.14998417964E-01  0.14095583704E-01  0.10204428964E+01  0.10201725642E+01 0.  0.
     999903    2    3    3    0    0  0.17135354672E-01  0.12359895279E+00  0.42623069977E-01  0.13328914301E+00  0.19466587793E-01 0.  0.
         14    1    1    2    0    0 -0.11313974337E-01 -0.14998417964E-01 -0.14095583704E-01  0.23487103625E-01  0.00000000000E+00 0.  1.
     999901    1    3    3    0    0 -0.58213803353E-02 -0.10860053483E+00 -0.28527486272E-01  0.88715375336E+00  0.88000000000E+00 0.  1.
        -11    1    4    4    0    0  0.14617724932E-01  0.44240260573E-01  0.11394876856E-01  0.47968561343E-01  0.51100000000E-03 0.  1.
         11    1    4    4    0    0  0.25176297407E-02  0.79358692216E-01  0.31228193120E-01  0.85320581669E-01  0.51100000000E-03 0. -1.
</event>
<event>
 8    1  0.1095698E+005  0.1043930E+01  0.7957747E-01            NaN
         13   -1    0    0    0    0  0.00000000000E+00  0.00000000000E+00  0.74505805969E-08  0.10566000000E+00  0.10566000000E+00 0.  1.
     999900   -1    0    0    0    0 -0.00000000000E+00 -0.00000000000E+00 -0.74505805969E-08  0.93827000000E+00  0.93827000000E+00 0.  1.
     999902    2    1    2    0    0 -0.16735508153E-01  0.92490581138E-02  0.13789858727E-01  0.10203549600E+01  0.10200825760E+01 0.  0.
     999903    2    3    3    0    0 -0.48574890532E-01 -0.10993455967E+00  0.45964952282E-01  0.13116784936E+00  0.25438169487E-01 0.  0.
         14    1    1    2    0    0  0.16735508153E-01 -0.92490581138E-02 -0.13789858727E-01  0.23575040039E-01  0.00000000000E+00 0. -1.
     999901    1    3    3    0    0  0.31839382380E-01  0.11918361778E+00 -0.32175093555E-01  0.88918711060E+00  0.88000000000E+00 0.  1.
        -11    1    4    4    0    0 -0.13584629061E-01 -0.40856999340E-01  0.28945374385E-01  0.51883835258E-01  0.51100000000E-03 0. -1.
         11    1    4    4    0    0 -0.34990261472E-01 -0.69077560330E-01  0.17019577896E-01  0.79284014100E-01  0.51100000000E-03 0.  1.
</event>
<event>
 8    1  0.1095698E+005  0.1043930E+01  0.7957747E-01            NaN
         13   -1    0    0    0    0  0.00000000000E+00  0.00000000000E+00  0.74505805969E-08  0.10566000000E+00  0.10566000000E+00 0.  1.
     999900   -1    0    0    0    0 -0.00000000000E+00 -0.00000000000E+00 -0.74505805969E-08  0.93827000000E+00  0.93827000000E+00 0.  1.
     999902    2    1    2    0    0  0.11260986499E-01  0.53921412069E-02  0.17980179910E-01  0.10220400052E+01  0.10218055590E+01 0.  0.
     999903    2    3    3    0    0 -0.28180978930E-01  0.11455448705E+00 -0.54915966185E-01  0.13143013857E+00  0.18472138595E-01 0.  0.
         14    1    1    2    0    0 -0.11260986499E-01 -0.53921412069E-02 -0.17980179910E-01  0.21889994822E-01  0.00000000000E+00 0. -1.
     999901    1    3    3    0    0  0.39441965429E-01 -0.10916234585E+00  0.72896146095E-01  0.89060986661E+00  0.88000000000E+00 0. -1.
        -11    1    4    4    0    0 -0.56822770749E-02  0.23932914379E-01 -0.20121856113E-01  0.31784003490E-01  0.51100000000E-03 0.  1.
         11    1    4    4    0    0 -0.22498701855E-01  0.90621572675E-01 -0.34794110073E-01  0.99646135078E-01  0.51100000000E-03 0. -1.
</event>
<event>
 8    1  0.1095698E+005  0.1043930E+01  0.7957747E-01            NaN
         13   -1    0    0    0    0  0.00000000000E+00  0.00000000000E+00  0.74505805969E-08  0.10566000000E+00  0.10566000000E+00 0. -1.
     999900   -1    0    0    0    0 -0.00000000000E+00 -0.00000000000E+00 -0.74505805969E-08  0.93827000000E+00  0.93827000000E+00 0. -1.
     999902    2    1    2    0    0  0.38185065894E-02 -0.18828508643E-01 -0.14406365849E-01  0.10199167306E+01  0.10196340031E+01 0.  0.
     999903    2    3    3    0    0  0.60802731402E-01 -0.86075933941E-01 -0.78712431969E-01  0.13317850078E+00  0.20852519593E-01 0.  0.
         14    1    1    2    0    0 -0.38185065894E-02  0.18828508643E-01  0.14406365849E-01  0.24013269400E-01  0.00000000000E+00 0. -1.
     999901    1    3    3    0    0 -0.56984224813E-01  0.67247425298E-01  0.64306066120E-01  0.88673822982E+00  0.88000000000E+00 0.  1.
        -11    1    4    4    0    0  0.52890725731E-01 -0.63707587566E-01 -0.67975105627E-01  0.10713058241E+00  0.51100000000E-03 0.  1.
         11    1    4    4    0    0  0.79120056712E-02 -0.22368346375E-01 -0.10737326342E-01  0.26047918367E-01  0.51100000000E-03 0. -1.
</event>
<event>
 8    1  0.1095698E+005  0.1043930E+01  0.7957747E-01            NaN
         13   -1    0    0    0    0  0.00000000000E+00  0.00000000000E+00  0.74505805969E-08  0.10566000000E+00  0.10566000000E+00 0.  1.
     999900   -1    0    0    0    0 -0.00000000000E+00 -0.00000000000E+00 -0.74505805969E-08  0.93827000000E+00  0.93827000000E+00 0. -1.
     999902    2    1    2    0    0 -0.26171102171E-02  0.37705347687E-02 -0.23572366632E-01  0.10199149492E+01  0.10196321792E+01 0.  0.
     999903    2    3    3    0    0 -0.14388987861E-01  0.12854433100E+00 -0.36161831320E-02  0.13081128446E+00  0.19178825758E-01 0.  0.
         14    1    1    2    0    0  0.26171102171E-02 -0.37705347687E-02  0.23572366632E-01  0.24015050842E-01  0.00000000000E+00 0.  1.
     999901    1    3    3    0    0  0.11771877644E-01 -0.12477379623E+00 -0.19956183500E-01  0.88910366470E+00  0.88000000000E+00 0. -1.
        -11    1    4    4    0    0 -0.14613855431E-02  0.52775998734E-01  0.68341611453E-02  0.53239163870E-01  0.51100000000E-03 0.  1.
         11    1    4    4    0    0 -0.12927602318E-01  0.75768332263E-01 -0.10450344277E-01  0.77572120585E-01  0.51100000000E-03 0. -1.
</event>
<event>
 8    1  0.1095698E+005  0.1043930E+01  0.7957747E-01            NaN
         13   -1    0    0    0    0  0.00000000000E+00  0.00000000000E+00  0.74505805969E-08  0.10566000000E+00  0.10566000000E+00 0.  1.
     999900   -1    0    0    0    0 -0.00000000000E+00 -0.00000000000E+00 -0.74505805969E-08  0.93827000000E+00  0.93827000000E+00 0.  1.
     999902    2    1    2    0    0 -0.14335541011E-01  0.95843118048E-02 -0.15965986817E-01  0.10204293723E+01  0.10201587250E+01 0.  0.
     999903    2    3    3    0    0 -0.44233623554E-02 -0.10070056263E+00  0.77166005788E-01  0.12861404785E+00  0.20659414461E-01 0.  0.
         14    1    1    2    0    0  0.14335541011E-01 -0.95843118048E-02  0.15965986817E-01  0.23500627734E-01  0.00000000000E+00 0.  1.
     999901    1    3    3    0    0 -0.99121786556E-02  0.11028487444E+00 -0.93131992604E-01  0.89181532442E+00  0.88000000000E+00 0.  1.
        -11    1    4    4    0    0  0.46393579202E-02 -0.61991985803E-01  0.55491465556E-01  0.83331229538E-01  0.51100000000E-03 0.  1.
         11    1    4    4    0    0 -0.90627202756E-02 -0.38708576831E-01  0.21674540232E-01  0.45282818313E-01  0.51100000000E-03 0. -1.
</event>
<event>
 7    1  0.2600437E+005  0.1043930E+01  0.7957747E-01            NaN
         13   -1    0    0    0    0  0.00000000000E+00  0.00000000000E+00  0.74505805969E-08  0.10566000000E+00  0.10566000000E+00 0. -1.
     999900   -1    0    0    0    0 -0.00000000000E+00 -0.00000000000E+00 -0.74505805969E-08  0.93827000000E+00  0.93827000000E+00 0. -1.
     999903    2    1    2    0    0  0.38055387632E-01  0.55016999055E-01  0.84662619130E-01  0.10985345915E+00  0.20614089743E-01 0.  0.
         14    1    1    2    0    0 -0.47467083361E-01  0.36212883157E-02  0.31810902672E-02  0.47711183879E-01  0.00000000000E+00 0. -1.
     999901    1    1    2    0    0  0.94116957285E-02 -0.58638287371E-01 -0.87843709397E-01  0.88636535697E+00  0.88000000000E+00 0. -1.
        -11    1    3    3    0    0  0.12770327709E-01  0.35398357815E-01  0.40189518038E-01  0.55059817353E-01  0.51100000000E-03 0.  1.
         11    1    3    3    0    0  0.25285059923E-01  0.19618641240E-01  0.44473101091E-01  0.54793641794E-01  0.51100000000E-03 0. -1.
</event>
<event>
 8    1  0.1095698E+005  0.1043930E+01  0.7957747E-01            NaN
         13   -1    0    0    0    0  0.00000000000E+00  0.00000000000E+00  0.74505805969E-08  0.10566000000E+00  0.10566000000E+00 0. -1.
     999900   -1    0    0    0    0 -0.00000000000E+00 -0.00000000000E+00 -0.74505805969E-08  0.93827000000E+00  0.93827000000E+00 0. -1.
     999902    2    1    2    0    0 -0.12192823127E-01 -0.16080240123E-01  0.10300649856E-01  0.10212729383E+01  0.10210215825E+01 0.  0.
     999903    2    3    3    0    0  0.10333733729E-01 -0.12869658582E+00  0.28481136428E-01  0.13362412418E+00  0.19355468909E-01 0.  0.
         14    1    1    2    0    0  0.12192823127E-01  0.16080240123E-01 -0.10300649856E-01  0.22657061718E-01  0.00000000000E+00 0.  1.
     999901    1    3    3    0    0 -0.22526556856E-01  0.11261634570E+00 -0.18180486572E-01  0.88764881410E+00  0.88000000000E+00 0.  1.
        -11    1    4    4    0    0  0.11838118385E-01 -0.12084063884E+00  0.30827972887E-01  0.12527260705E+00  0.51100000000E-03 0.  1.
         11    1    4    4    0    0 -0.15043846567E-02 -0.78559469766E-02 -0.23468364591E-02  0.83515171352E-02  0.51100000000E-03 0. -1.
</event>
<event>
 8    1  0.1095698E+005  0.1043930E+01  0.7957747E-01            NaN
         13   -1    0    0    0    0  0.00000000000E+00  0.00000000000E+00  0.74505805969E-08  0.10566000000E+00  0.10566000000E+00 0.  1.
     999900   -1    0    0    0    0 -0.00000000000E+00 -0.00000000000E+00 -0.74505805969E-08  0.93827000000E+00  0.93827000000E+00 0.  1.
     999902    2    1    2    0    0  0.21033841977E-01 -0.25416331453E-02  0.11711575708E-01  0.10197216665E+01  0.10194342714E+01 0.  0.
     999903    2    3    3    0    0  0.61364171906E-01  0.54597016446E-01 -0.98695251809E-01  0.13006947130E+00  0.20758584625E-01 0.  0.
         14    1    1    2    0    0 -0.21033841977E-01  0.25416331453E-02 -0.11711575708E-01  0.24208333543E-01  0.00000000000E+00 0. -1.
     999901    1    3    3    0    0 -0.40330329929E-01 -0.57138649592E-01  0.11040682752E+00  0.88965219516E+00  0.88000000000E+00 0.  1.
        -11    1    4    4    0    0  0.31062513342E-01  0.31776241602E-01 -0.37888563277E-01  0.58398746679E-01  0.51100000000E-03 0. -1.
         11    1    4    4    0    0  0.30301658564E-01  0.22820774844E-01 -0.60806688532E-01  0.71670724619E-01  0.51100000000E-03 0.  1.
</event>
<event>
 8    1  0.1095698E+005  0.1043930E+01  0.7957747E-01            NaN
         13   -1    0    0    0    0  0.00000000000E+00  0.00000000000E+00  0.74505805969E-08  0.10566000000E+00  0.10566000000E+00 0.  1.
     999900   -1    0    0    0    0 -0.00000000000E+00 -0.00000000000E+00 -0.74505805969E-08  0.93827000000E+00  0.93827000000E+00 0.  1.
     999902    2    1    2    0    0 -0.11733042204E-01 -0.51672247772E-02 -0.19961946082E-01  0.10202056711E+01  0.10199297856E+01 0.  0.
     999903    2    3    3    0    0  0.12716687999E+00  0.67195367981E-02 -0.48077260266E-02  0.12910290828E+00  0.20685240051E-01 0.  0.
         14    1    1    2    0    0  0.11733042204E-01  0.51672247772E-02  0.19961946082E-01  0.23724328919E-01  0.00000000000E+00 0.  1.
     999901    1    3    3    0    0 -0.13889992219E+00 -0.11886761575E-01 -0.15154220056E-01  0.89110276280E+00  0.88000000000E+00 0. -1.
        -11    1    4    4    0    0  0.10648128027E+00 -0.20327708100E-03  0.11352981581E-02  0.10648875242E+00  0.51100000000E-03 0. -1.
         11    1    4    4    0    0  0.20685599724E-01  0.69228138791E-02 -0.59430241846E-02  0.22614155863E-01  0.51100000000E-03 0.  1.
</event>
<event>
 8    1  0.1095698E+005  0.1043930E+01  0.7957747E-01            NaN
         13   -1    0    0    0    0  0.00000000000E+00  0.00000000000E+00  0.74505805969E-08  0.10566000000E+00  0.10566000000E+00 0.  1.
     999900   -1    0    0    0    0 -0.00000000000E+00 -0.00000000000E+00 -0.74505805969E-08  0.93827000000E+00  0.93827000000E+00 0.  1.
     999902    2    1    2    0    0 -0.21869614827E-01  0.56007908740E-02  0.70929207824E-02  0.10202665591E+01  0.10199921044E+01 0.  0.
     999903    2    3    3    0    0 -0.15709547235E-01 -0.79923923182E-01 -0.99066134411E-01  0.12974863778E+00  0.19646542905E-01 0.  0.
         14    1    1    2    0    0  0.21869614827E-01 -0.56007908740E-02 -0.70929207824E-02  0.23663440924E-01  0.00000000000E+00 0.  1.
     999901    1    3    3    0    0 -0.61600675929E-02  0.85524714056E-01  0.10615905519E+00  0.89051792129E+00  0.88000000000E+00 0. -1.
        -11    1    4    4    0    0 -0.11731507360E-01 -0.56286636078E-01 -0.82683935158E-01  0.10071101191E+00  0.51100000000E-03 0.  1.
         11    1    4    4    0    0 -0.39780398742E-02 -0.23637287103E-01 -0.16382199252E-01  0.29037625871E-01  0.51100000000E-03 0. -1.
</event>
<event>
 8    1  0.1095698E+005  0.1043930E+01  0.7957747E-01            NaN
         13   -1    0    0    0    0  0.00000000000E+00  0.00000000000E+00  0.74505805969E-08  0.10566000000E+00  0.10566000000E+00 0. -1.
     999900   -1    0    0    0    0 -0.00000000000E+00 -0.00000000000E+00 -0.74505805969E-08  0.93827000000E+00  0.93827000000E+00 0. -1.
     999902    2    1    2    0    0 -0.21934395058E-01 -0.37437089505E-02 -0.27463162096E-02  0.10215095786E+01  0.10212635036E+01 0.  0.
     999903    2    3    3    0    0 -0.28177951817E-01  0.11532584447E+00  0.53840673886E-01  0.13166766679E+00  0.18533994220E-01 0.  0.
         14    1    1    2    0    0  0.21934395058E-01  0.37437089505E-02  0.27463162096E-02  0.22420421406E-01  0.00000000000E+00 0. -1.
     999901    1    3    3    0    0  0.62435567588E-02 -0.11906955342E+00 -0.56586990096E-01  0.88984191180E+00  0.88000000000E+00 0. -1.
        -11    1    4    4    0    0 -0.16738178046E-01  0.48859234890E-01  0.32067118024E-01  0.60794346922E-01  0.51100000000E-03 0.  1.
         11    1    4    4    0    0 -0.11439773771E-01  0.66466609583E-01  0.21773555862E-01  0.70873319869E-01  0.51100000000E-03 0. -1.
</event>
<event>
 8    1  0.1095698E+005  0.1043930E+01  0.7957747E-01            NaN
         13   -1    0    0    0    0  0.00000000000E+00  0.00000000000E+00  0.74505805969E-08  0.10566000000E+00  0.10566000000E+00 0.  1.
     999900   -1    0    0    0    0 -0.00000000000E+00 -0.00000000000E+00 -0.74505805969E-08  0.93827000000E+00  0.93827000000E+00 0. -1.
     999902    2    1    2    0    0  0.12915059024E-01  0.77046354127E-02 -0.18070031759E-01  0.10204207209E+01  0.10201498720E+01 0.  0.
     999903    2    3    3    0    0  0.54219942750E-01  0.39526788430E-02 -0.11996256369E+00  0.13357109516E+00  0.22243985972E-01 0.  0.
         14    1    1    2    0    0 -0.12915059024E-01 -0.77046354127E-02  0.18070031759E-01  0.23509279108E-01  0.00000000000E+00 0.  1.
     999901    1    3    3    0    0 -0.41304883726E-01  0.37519565697E-02  0.10189253194E+00  0.88684962573E+00  0.88000000000E+00 0.  1.
        -11    1    4    4    0    0  0.34565619416E-01  0.11747483841E-01 -0.87672091734E-01  0.94970743981E-01  0.51100000000E-03 0. -1.
         11    1    4    4    0    0  0.19654323333E-01 -0.77948049975E-02 -0.32290471961E-01  0.38600351178E-01  0.51100000000E-03 0.  1.
</event>
<event>
 8    1  0.1095698E+005  0.1043930E+01  0.7957747E-01            NaN
         13   -1    0    0    0    0  0.00000000000E+00  0.00000000000E+00  0.74505805969E-08  0.10566000000E+00  0.10566000000E+00 0.  1.
     999900   -1    0    0    0    0 -0.00000000000E+00 -0.00000000000E+00 -0.74505805969E-08  0.93827000000E+00  0.93827000000E+00 0. -1.
     999902    2    1    2    0    0 -0.23078455055E-01 -0.19733628657E-02  0.65929701827E-03  0.10207579496E+01  0.10204949033E+01 0.  0.
     999903    2    3    3    0    0 -0.12827016584E+00 -0.26545809015E-01  0.18966299741E-01  0.13396358362E+00  0.20702796676E-01 0.  0.
         14    1    1    2    0    0  0.23078455055E-01  0.19733628657E-02 -0.65929701827E-03  0.23172050433E-01  0.00000000000E+00 0.  1.
     999901    1    3    3    0    0  0.10519171078E+00  0.24572446149E-01 -0.18307002722E-01  0.88679436595E+00  0.88000000000E+00 0.  1.
        -11    1    4    4    0    0 -0.39303449875E-01 -0.99772883074E-02  0.15452570513E-01  0.43397586460E-01  0.51100000000E-03 0.  1.
         11    1    4    4    0    0 -0.88966715962E-01 -0.16568520707E-01  0.35137292274E-02  0.90565997160E-01  0.51100000000E-03 0. -1.
</event>
<event>
 8    1  0.1095698E+005  0.1043930E+01  0.7957747E-01            NaN
         13   -1    0    0    0    0  0.00000000000E+00  0.00000000000E+00  0.74505805969E-08  0.10566000000E+00  0.10566000000E+00 0.  1.
     999900   -1    0    0    0    0 -0.00000000000E+00 -0.00000000000E+00 -0.74505805969E-08  0.93827000000E+00  0.93827000000E+00 0.  1.
     999902    2    1    2    0    0 -0.16691063011E-01  0.11363573058E-01 -0.85858531076E-02  0.10219882760E+01  0.10217527084E+01 0.  0.
     999903    2    3    3    0    0 -0.73077112960E-01 -0.15286633980E-01  0.10731456789E+00  0.13220036436E+00  0.19661491274E-01 0.  0.
         14    1    1    2    0    0  0.16691063011E-01 -0.11363573058E-01  0.85858531076E-02  0.21941723967E-01  0.00000000000E+00 0. -1.
     999901    1    3    3    0    0  0.56386049950E-01  0.26650207038E-01 -0.11590042100E+00  0.88978791167E+00  0.88000000000E+00 0.  1.
        -11    1    4    4    0    0 -0.33279888982E-01 -0.21403156687E-03  0.35058080886E-01  0.48341772584E-01  0.51100000000E-03 0.  1.
         11    1    4    4    0    0 -0.39797223978E-01 -0.15072602413E-01  0.72256487006E-01  0.83858591780E-01  0.51100000000E-03 0. -1.
</event>
<event>
 8    1  0.1095698E+005  0.1043930E+01  0.7957747E-01            NaN
         13   -1    0    0    0    0  0.00000000000E+00  0.00000000000E+00  0.74505805969E-08  0.10566000000E+00  0.10566000000E+00 0. -1.
     999900   -1    0    0    0    0 -0.00000000000E+00 -0.00000000000E+00 -0.74505805969E-08  0.93827000000E+00  0.93827000000E+00 0. -1.
     999902    2    1    2    0    0 -0.23212436031E-01  0.13495112743E-02  0.63468775589E-02  0.10198276926E+01  0.10195428394E+01 0.  0.
     999903    2    3    3    0    0 -0.13039898005E+00  0.14910556219E-03 -0.17373211203E-01  0.13300581714E+00  0.19616388400E-01 0.  0.
         14    1    1    2    0    0  0.23212436031E-01 -0.13495112743E-02 -0.63468775589E-02  0.24102307399E-01  0.00000000000E+00 0. -1.
     999901    1    3    3    0    0  0.10718654402E+00  0.12004057121E-02  0.23720088762E-01  0.88682187547E+00  0.88000000000E+00 0. -1.
        -11    1    4    4    0    0 -0.17666810300E-01 -0.54444589284E-02 -0.65359245957E-02  0.19614732996E-01  0.51100000000E-03 0.  1.
         11    1    4    4    0    0 -0.11273216975E+00  0.55935644906E-02 -0.10837286607E-01  0.11339108414E+00  0.51100000000E-03 0. -1.
</event>
<event>
 8    1  0.1095698E+005  0.1043930E+01  0.7957747E-01            NaN
         13   -1    0    0    0    0  0.00000000000E+00  0.00000000000E+00  0.74505805969E-08  0.10566000000E+00  0.10566000000E+00 0.  1.
     999900   -1    0    0    0    0 -0.00000000000E+00 -0.00000000000E+00 -0.74505805969E-08  0.93827000000E+00  0.93827000000E+00 0.  1.
     999902    2    1    2    0    0 -0.23730686436E-01  0.27115544071E-02 -0.14819673952E-03  0.10200444402E+01  0.10197647474E+01 0.  0.
     999903    2    3    3    0    0 -0.82530265713E-01  0.86264499119E-01  0.54184416754E-01  0.13246879946E+00  0.18953185614E-01 0.  0.
         14    1    1    2    0    0  0.23730686436E-01 -0.27115544071E-02  0.14819673952E-03  0.23885559828E-01  0.00000000000E+00 0.  1.
     999901    1    3    3    0    0  0.58799579276E-01 -0.83552944712E-01 -0.54332613493E-01  0.88757564071E+00  0.88000000000E+00 0.  1.
        -11    1    4    4    0    0 -0.64280210359E-01  0.59864231360E-01  0.46809314135E-01  0.99534138118E-01  0.51100000000E-03 0. -1.
         11    1    4    4    0    0 -0.18250055353E-01  0.26400267759E-01  0.73751026191E-02  0.32934661343E-01  0.51100000000E-03 0.  1.
</event>
<event>
 8    1  0.1095698E+005  0.1043930E+01  0.7957747E-01            NaN
         13   -1    0    0    0    0  0.00000000000E+00  0.00000000000E+00  0.74505805969E-08  0.10566000000E+00  0.10566000000E+00 0.  1.
     999900   -1    0    0    0    0 -0.00000000000E+00 -0.00000000000E+00 -0.74505805969E-08  0.93827000000E+00  0.93827000000E+00 0.  1.
     999902    2    1    2    0    0 -0.25214889769E-02 -0.16124756818E-01  0.17337974446E-01  0.10201188462E+01  0.10198409137E+01 0.  0.
     999903    2    3    3    0    0  0.11805747184E+00 -0.27589727021E-01 -0.38308401064E-01  0.13008106582E+00  0.27473448950E-01 0.  0.
         14    1    1    2    0    0  0.25214889769E-02  0.16124756818E-01 -0.17337974446E-01  0.23811153836E-01  0.00000000000E+00 0. -1.
     999901    1    3    3    0    0 -0.12057896082E+00  0.11464970203E-01  0.55646375510E-01  0.89003778035E+00  0.88000000000E+00 0. -1.
        -11    1    4    4    0    0  0.48497271145E-01 -0.24711540725E-01 -0.12660905777E-01  0.55885644039E-01  0.51100000000E-03 0.  1.
         11    1    4    4    0    0  0.69560200699E-01 -0.28781862953E-02 -0.25647495287E-01  0.74195421780E-01  0.51100000000E-03 0. -1.
</event>
<event>
 8    1  0.1095698E+005  0.1043930E+01  0.7957747E-01            NaN
         13   -1    0    0    0    0  0.00000000000E+00  0.00000000000E+00  0.74505805969E-08  0.10566000000E+00  0.10566000000E+00 0. -1.
     999900   -1    0    0    0    0 -0.00000000000E+00 -0.00000000000E+00 -0.74505805969E-08  0.93827000000E+00  0.93827000000E+00 0. -1.
     999902    2    1    2    0    0  0.18489040791E-01 -0.96897565534E-02 -0.12789823952E-01  0.10194490766E+01  0.10191550933E+01 0.  0.
     999903    2    3    3    0    0 -0.44179425063E-01  0.70000068925E-01  0.94388929066E-01  0.12716824081E+00  0.20264754952E-01 0.  0.
         14    1    1    2    0    0 -0.18489040791E-01  0.96897565534E-02  0.12789823952E-01  0.24480923352E-01  0.00000000000E+00 0. -1.
     999901    1    3    3    0    0  0.62668465854E-01 -0.79689825479E-01 -0.10717875302E+00  0.89228083583E+00  0.88000000000E+00 0.  1.
        -11    1    4    4    0    0 -0.41233202396E-02  0.17626442647E-01  0.12369763920E-01  0.21930924071E-01  0.51100000000E-03 0.  1.
         11    1    4    4    0    0 -0.40056104823E-01  0.52373626278E-01  0.82019165145E-01  0.10523731674E+00  0.51100000000E-03 0. -1.
</event>
<event>
 8    1  0.1095698E+005  0.1043930E+01  0.7957747E-01            NaN
         13   -1    0    0    0    0  0.00000000000E+00  0.00000000000E+00  0.74505805969E-08  0.10566000000E+00  0.10566000000E+00 0.  1.
     999900   -1    0    0    0    0 -0.00000000000E+00 -0.00000000000E+00 -0.74505805969E-08  0.93827000000E+00  0.93827000000E+00 0.  1.
     999902    2    1    2    0    0  0.85774725692E-02  0.20031752419E-02 -0.21468193843E-01  0.10207250632E+01  0.10204612611E+01 0.  0.
     999903    2    3    3    0    0  0.94146971841E-01 -0.83546269232E-01  0.29762361248E-01  0.13096924473E+00  0.20579443861E-01 0.  0.
         14    1    1    2    0    0 -0.85774725692E-02 -0.20031752419E-02  0.21468193843E-01  0.23204936837E-01  0.00000000000E+00 0.  1.
     999901    1    3    3    0    0 -0.85569499271E-01  0.85549444474E-01 -0.51230555091E-01  0.88975581843E+00  0.88000000000E+00 0.  1.
        -11    1    4    4    0    0  0.10322584920E-01 -0.51787041496E-02  0.82880192852E-02  0.14224173817E-01  0.51100000000E-03 0.  1.
         11    1    4    4    0    0  0.83824386921E-01 -0.78367565082E-01  0.21474341963E-01  0.11674507092E+00  0.51100000000E-03 0. -1.
</event>
<event>
 8    1  0.1095698E+005  0.1043930E+01  0.7957747E-01            NaN
         13   -1    0    0    0    0  0.00000000000E+00  0.00000000000E+00  0.74505805969E-08  0.10566000000E+00  0.10566000000E+00 0.  1.
     999900   -1    0    0    0    0 -0.00000000000E+00 -0.00000000000E+00 -0.74505805969E-08  0.93827000000E+00  0.93827000000E+00 0. -1.
     999902    2    1    2    0    0 -0.88670653071E-02 -0.21433422436E-01 -0.30717455560E-02  0.10205323064E+01  0.10202640523E+01 0.  0.
     999903    2    3    3    0    0  0.12447328473E+00 -0.54352165698E-02 -0.31188350742E-01  0.12989987099E+00  0.19445386835E-01 0.  0.
         14    1    1    2    0    0  0.88670653071E-02  0.21433422436E-01  0.30717455560E-02  0.23397693588E-01  0.00000000000E+00 0. -1.
     999901    1    3    3    0    0 -0.13334035004E+00 -0.15998205866E-01  0.28116605186E-01  0.89063243542E+00  0.88000000000E+00 0.  1.
        -11    1    4    4    0    0  0.75498225371E-01 -0.54585532772E-03 -0.28171132356E-01  0.80586312805E-01  0.51100000000E-03 0.  1.
         11    1    4    4    0    0  0.48975059363E-01 -0.48893612421E-02 -0.30172183862E-02  0.49313558184E-01  0.51100000000E-03 0. -1.
</event>
<event>
 8    1  0.1095698E+005  0.1043930E+01  0.7957747E-01            NaN
         13   -1    0    0    0    0  0.00000000000E+00  0.00000000000E+00  0.74505805969E-08  0.10566000000E+00  0.10566000000E+00 0. -1.
     999900   -1    0    0    0    0 -0.00000000000E+00 -0.00000000000E+00 -0.74505805969E-08  0.93827000000E+00  0.93827000000E+00 0. -1.
     999902    2    1    2    0    0 -0.31996695293E-03 -0.95371425280E-02  0.23118086367E-01  0.10189198944E+01  0.10186129028E+01 0.  0.
     999903    2    3    3    0    0  0.95678829631E-01 -0.29925536899E-01 -0.76900720069E-01  0.12783335693E+00  0.19433738642E-01 0.  0.
         14    1    1    2    0    0  0.31996695293E-03  0.95371425280E-02 -0.23118086367E-01  0.25010105632E-01  0.00000000000E+00 0.  1.
     999901    1    3    3    0    0 -0.95998796584E-01  0.20388394371E-01  0.10001880644E+00  0.89108653744E+00  0.88000000000E+00 0.  1.
        -11    1    4    4    0    0  0.45169340535E-01 -0.43726099412E-02 -0.31088426187E-01  0.55010366349E-01  0.51100000000E-03 0.  1.
         11    1    4    4    0    0  0.50509489096E-01 -0.25552926958E-01 -0.45812293882E-01  0.72822990577E-01  0.51100000000E-03 0. -1.
</event>
<event>
 8    1  0.1095698E+005  0.1043930E+01  0.7957747E-01            NaN
         13   -1    0    0    0    0  0.00000000000E+00  0.00000000000E+00  0.74505805969E-08  0.10566000000E+00  0.10566000000E+00 0. -1.
     999900   -1    0    0    0    0 -0.00000000000E+00 -0.00000000000E+00 -0.74505805969E-08  0.93827000000E+00  0.93827000000E+00 0. -1.
     999902    2    1    2    0    0 -0.18158751566E-01  0.14473342502E-01  0.49332042906E-02  0.10201906991E+01  0.10199144612E+01 0.  0.
     999903    2    3    3    0    0 -0.35691042683E-01 -0.54255316503E-01  0.11179047269E+00  0.13089351279E+00  0.20457566088E-01 0.  0.
         14    1    1    2    0    0  0.18158751566E-01 -0.14473342502E-01 -0.49332042906E-02  0.23739300878E-01  0.00000000000E+00 0. -1.
     999901    1    3    3    0    0  0.17532291117E-01  0.68728659005E-01 -0.10685726840E+00  0.88929718633E+00  0.88000000000E+00 0.  1.
        -11    1    4    4    0    0 -0.34569682287E-01 -0.39675962674E-01  0.78247598822E-01  0.94298424112E-01  0.51100000000E-03 0.  1.
         11    1    4    4    0    0 -0.11213603957E-02 -0.14579353829E-01  0.33542873870E-01  0.36595088682E-01  0.51100000000E-03 0. -1.
</event>
<event>
 8    1  0.1095698E+005  0.1043930E+01  0.7957747E-01            NaN
         13   -1    0    0    0    0  0.00000000000E+00  0.00000000000E+00  0.74505805969E-08  0.10566000000E+00  0.10566000000E+00 0. -1.
     999900   -1    0    0    0    0 -0.00000000000E+00 -0.00000000000E+00 -0.74505805969E-08  0.93827000000E+00  0.93827000000E+00 0.  1.
     999902    2    1    2    0    0 -0.22799260440E-01 -0.48739711414E-02 -0.39421840750E-02  0.10202846477E+01  0.10200106174E+01 0.  0.
     999903    2    3    3    0    0  0.12143902195E-01  0.70588058390E-01  0.10573623145E+00  0.12958554172E+00  0.21957086171E-01 0.  0.
         14    1    1    2    0    0  0.22799260440E-01  0.48739711414E-02  0.39421840750E-02  0.23645352325E-01  0.00000000000E+00 0.  1.
     999901    1    3    3    0    0 -0.34943162635E-01 -0.75462029532E-01 -0.10967841553E+00  0.89069910595E+00  0.88000000000E+00 0.  1.
        -11    1    4    4    0    0 -0.31752759135E-02  0.12051691002E-01  0.31060472734E-01  0.33471476223E-01  0.51100000000E-03 0. -1.
         11    1    4    4    0    0  0.15319178109E-01  0.58536367389E-01  0.74675758719E-01  0.96114065497E-01  0.51100000000E-03 0.  1.
</event>
<event>
 8    1  0.1095698E+005  0.1043930E+01  0.7957747E-01            NaN
         13   -1    0    0    0    0  0.00000000000E+00  0.00000000000E+00  0.74505805969E-08  0.10566000000E+00  0.10566000000E+00 0.  1.
     999900   -1    0    0    0    0 -0.00000000000E+00 -0.00000000000E+00 -0.74505805969E-08  0.93827000000E+00  0.93827000000E+00 0.  1.
     999902    2    1    2    0    0 -0.19277274188E-01 -0.90047478475E-02  0.10606175466E-01  0.10201562804E+01  0.10198792315E+01 0.  0.
     999903    2    3    3    0    0  0.17083811005E-01  0.12109028125E+00 -0.34593572775E-01  0.12870248895E+00  0.20320004234E-01 0.  0.
         14    1    1    2    0    0  0.19277274188E-01  0.90047478475E-02 -0.10606175466E-01  0.23773719565E-01  0.00000000000E+00 0.  1.
     999901    1    3    3    0    0 -0.36361085194E-01 -0.13009502910E+00  0.45199748241E-01  0.89145379149E+00  0.88000000000E+00 0. -1.
        -11    1    4    4    0    0  0.13570740210E-01  0.56709570317E-01 -0.25271744059E-01  0.63553619284E-01  0.51100000000E-03 0.  1.
         11    1    4    4    0    0  0.35130707958E-02  0.64380710936E-01 -0.93218287165E-02  0.65148869666E-01  0.51100000000E-03 0. -1.
</event>
<event>
 7    1  0.2078940E+005  0.1043930E+01  0.7957747E-01            NaN
         13   -1    0    0    0    0  0.00000000000E+00  0.00000000000E+00  0.74505805969E-08  0.10566000000E+00  0.10566000000E+00 0. -1.
     999900   -1    0    0    0    0 -0.00000000000E+00 -0.00000000000E+00 -0.74505805969E-08  0.93827000000E+00  0.93827000000E+00 0. -1.
     999903    2    1    2    0    0  0.21609699530E-01  0.13043348829E-01  0.64864720914E-01  0.72305637156E-01  0.19584817660E-01 0.  0.
         14    1    1    2    0    0  0.28531453834E-01 -0.69651871519E-02 -0.85015783755E-01  0.89945767979E-01  0.00000000000E+00 0.  1.
     999901    1    1    2    0    0 -0.50141153364E-01 -0.60781616772E-02  0.20151062841E-01  0.88167859487E+00  0.88000000000E+00 0. -1.
        -11    1    3    3    0    0  0.13931101983E-01 -0.17824065210E-02  0.39583745461E-01  0.42004602143E-01  0.51100000000E-03 0. -1.
         11    1    3    3    0    0  0.76785975474E-02  0.14825755350E-01  0.25280975453E-01  0.30301035013E-01  0.51100000000E-03 0.  1.
</event>
<event>
 8    1  0.1095698E+005  0.1043930E+01  0.7957747E-01            NaN
         13   -1    0    0    0    0  0.00000000000E+00  0.00000000000E+00  0.74505805969E-08  0.10566000000E+00  0.10566000000E+00 0.  1.
     999900   -1    0    0    0    0 -0.00000000000E+00 -0.00000000000E+00 -0.74505805969E-08  0.93827000000E+00  0.93827000000E+00 0.  1.
     999902    2    1    2    0    0  0.19167055782E-01 -0.11474844558E-01  0.76111361045E-02  0.10203296297E+01  0.10200566532E+01 0.  0.
     999903    2    3    3    0    0  0.53567365172E-01 -0.10476053812E+00  0.59188401082E-01  0.13322996441E+00  0.20067975360E-01 0.  0.
         14    1    1    2    0    0 -0.19167055782E-01  0.11474844558E-01 -0.76111361045E-02  0.23600370289E-01  0.00000000000E+00 0. -1.
     999901    1    3    3    0    0 -0.34400309389E-01  0.93285693567E-01 -0.51577264978E-01  0.88709966530E+00  0.88000000000E+00 0.  1.
        -11    1    4    4    0    0  0.17543666024E-01 -0.23024848876E-01  0.22494806033E-01  0.36663350948E-01  0.51100000000E-03 0. -1.
         11    1    4    4    0    0  0.36023699148E-01 -0.81735689249E-01  0.36693595050E-01  0.96566613464E-01  0.51100000000E-03 0.  1.
</event>
<event>
 8    1  0.1095698E+005  0.1043930E+01  0.7957747E-01            NaN
         13   -1    0    0    0    0  0.00000000000E+00  0.00000000000E+00  0.74505805969E-08  0.10566000000E+00  0.10566000000E+00 0.  1.
     999900   -1    0    0    0    0 -0.00000000000E+00 -0.00000000000E+00 -0.74505805969E-08  0.93827000000E+00  0.93827000000E+00 0. -1.
     999902    2    1    2    0    0  0.11970329630E-01  0.27156023639E-02 -0.27983924194E-01  0.10133724592E+01  0.10129116337E+01 0.  0.
     999903    2    3    3    0    0  0.86234353283E-01  0.26489603476E-01 -0.88466513409E-01  0.12785651244E+00  0.19567856285E-01 0.  0.
         14    1    1    2    0    0 -0.11970329630E-01 -0.27156023639E-02  0.27983924194E-01  0.30557540819E-01  0.00000000000E+00 0.  1.
     999901    1    3    3    0    0 -0.74264023653E-01 -0.23774001112E-01  0.60482589215E-01  0.88551594674E+00  0.88000000000E+00 0.  1.
        -11    1    4    4    0    0  0.54412731818E-01  0.13629648084E-01 -0.41954060853E-01  0.70049389961E-01  0.51100000000E-03 0.  1.
         11    1    4    4    0    0  0.31821621465E-01  0.12859955391E-01 -0.46512452556E-01  0.57807122477E-01  0.51100000000E-03 0. -1.
</event>
<event>
 8    1  0.1095698E+005  0.1043930E+01  0.7957747E-01            NaN
         13   -1    0    0    0    0  0.00000000000E+00  0.00000000000E+00  0.74505805969E-08  0.10566000000E+00  0.10566000000E+00 0.  1.
     999900   -1    0    0    0    0 -0.00000000000E+00 -0.00000000000E+00 -0.74505805969E-08  0.93827000000E+00  0.93827000000E+00 0. -1.
     999902    2    1    2    0    0  0.23493904348E-01 -0.43204245466E-02  0.70989288917E-03  0.10200315993E+01  0.10197516021E+01 0.  0.
     999903    2    3    3    0    0 -0.82446938271E-01 -0.54096650267E-01 -0.80047221534E-01  0.12861539664E+00  0.20258760478E-01 0.  0.
         14    1    1    2    0    0 -0.23493904348E-01  0.43204245466E-02 -0.70989288917E-03  0.23898400735E-01  0.00000000000E+00 0.  1.
     999901    1    3    3    0    0  0.10594084262E+00  0.49776225720E-01  0.80757114423E-01  0.89141620263E+00  0.88000000000E+00 0.  1.
        -11    1    4    4    0    0 -0.63882379428E-01 -0.36845973054E-01 -0.68896964280E-01  0.10092391659E+00  0.51100000000E-03 0.  1.
         11    1    4    4    0    0 -0.18564558842E-01 -0.17250677213E-01 -0.11150257253E-01  0.27691480046E-01  0.51100000000E-03 0. -1.
</event>
<event>
 8    1  0.1095698E+005  0.1043930E+01  0.7957747E-01            NaN
         13   -1    0    0    0    0  0.00000000000E+00  0.00000000000E+00  0.74505805969E-08  0.10566000000E+00  0.10566000000E+00 0. -1.
     999900   -1    0    0    0    0 -0.00000000000E+00 -0.00000000000E+00 -0.74505805969E-08  0.93827000000E+00  0.93827000000E+00 0. -1.
     999902    2    1    2    0    0  0.21129292141E-01 -0.97177348721E-02  0.78066003701E-02  0.10193978911E+01  0.10191026622E+01 0.  0.
     999903    2    3    3    0    0 -0.11327992780E+00  0.17757846383E-01  0.52479182842E-01  0.12764883134E+00  0.19811016155E-01 0.  0.
         14    1    1    2    0    0 -0.21129292141E-01  0.97177348721E-02 -0.78066003701E-02  0.24532108894E-01  0.00000000000E+00 0. -1.
     999901    1    3    3    0    0  0.13440921994E+00 -0.27475581255E-01 -0.44672582472E-01  0.89174905977E+00  0.88000000000E+00 0.  1.
        -11    1    4    4    0    0 -0.10347042150E+00  0.16999575349E-01  0.53545792258E-01  0.11773923168E+00  0.51100000000E-03 0.  1.
         11    1    4    4    0    0 -0.98095062980E-02  0.75827103321E-03 -0.10666094166E-02  0.99095996598E-02  0.51100000000E-03 0. -1.
</event>
<event>
 8    1  0.1095698E+005  0.1043930E+01  0.7957747E-01            NaN
         13   -1    0    0    0    0  0.00000000000E+00  0.00000000000E+00  0.74505805969E-08  0.10566000000E+00  0.10566000000E+00 0.  1.
     999900   -1    0    0    0    0 -0.00000000000E+00 -0.00000000000E+00 -0.74505805969E-08  0.93827000000E+00  0.93827000000E+00 0. -1.
     999902    2    1    2    0    0 -0.93208352082E-02 -0.15793686627E-01  0.15134076595E-01  0.10201527255E+01  0.10198755927E+01 0.  0.
     999903    2    3    3    0    0  0.81053254396E-01  0.97126792526E-01 -0.20916620834E-02  0.12818005962E+00  0.20555017843E-01 0.  0.
         14    1    1    2    0    0  0.93208352082E-02  0.15793686627E-01 -0.15134076595E-01  0.23777274458E-01  0.00000000000E+00 0. -1.
     999901    1    3    3    0    0 -0.90374089604E-01 -0.11292047915E+00  0.17225738679E-01  0.89197266592E+00  0.88000000000E+00 0.  1.
        -11    1    4    4    0    0  0.45636725307E-01  0.38968736857E-01 -0.28543643429E-02  0.60080626376E-01  0.51100000000E-03 0.  1.
         11    1    4    4    0    0  0.35416529089E-01  0.58158055670E-01  0.76270225948E-03  0.68099433241E-01  0.51100000000E-03 0. -1.
</event>
<event>
 8    1  0.1095698E+005  0.1043930E+01  0.7957747E-01            NaN
         13   -1    0    0    0    0  0.00000000000E+00  0.00000000000E+00  0.74505805969E-08  0.10566000000E+00  0.10566000000E+00 0.  1.
     999900   -1    0    0    0    0 -0.00000000000E+00 -0.00000000000E+00 -0.74505805969E-08  0.93827000000E+00  0.93827000000E+00 0. -1.
     999902    2    1    2    0    0  0.76219424297E-02  0.10554189520E-01  0.19361669109E-01  0.10205984944E+01  0.10203317733E+01 0.  0.
     999903    2    3    3    0    0  0.67875103114E-01 -0.86203196425E-01 -0.65354184107E-01  0.12921237666E+00  0.19663372202E-01 0.  0.
         14    1    1    2    0    0 -0.76219424297E-02 -0.10554189520E-01 -0.19361669109E-01  0.23331505599E-01  0.00000000000E+00 0. -1.
     999901    1    3    3    0    0 -0.60253160685E-01  0.96757385945E-01  0.84715853216E-01  0.89138611774E+00  0.88000000000E+00 0.  1.
        -11    1    4    4    0    0  0.29358338115E-01 -0.35982911457E-01 -0.39025884389E-01  0.60662696175E-01  0.51100000000E-03 0. -1.
         11    1    4    4    0    0  0.38516764999E-01 -0.50220284968E-01 -0.26328299718E-01  0.68549680490E-01  0.51100000000E-03 0.  1.
</event>
<event>
 8    1  0.1095698E+005  0.1043930E+01  0.7957747E-01            NaN
         13   -1    0    0    0    0  0.00000000000E+00  0.00000000000E+00  0.74505805969E-08  0.10566000000E+00  0.10566000000E+00 0.  1.
     999900   -1    0    0    0    0 -0.00000000000E+00 -0.00000000000E+00 -0.74505805969E-08  0.93827000000E+00  0.93827000000E+00 0. -1.
     999902    2    1    2    0    0 -0.98791456983E-02 -0.19534329535E-01  0.10220151513E-01  0.10197713774E+01  0.10194851755E+01 0.  0.
     999903    2    3    3    0    0 -0.61033065765E-01 -0.10412414108E+00  0.52707792637E-01  0.13321773579E+00  0.20049485130E-01 0.  0.
         14    1    1    2    0    0  0.98791456983E-02  0.19534329535E-01 -0.10220151513E-01  0.24158622624E-01  0.00000000000E+00 0. -1.
     999901    1    3    3    0    0  0.51153920066E-01  0.84589811540E-01 -0.42487641124E-01  0.88655364158E+00  0.88000000000E+00 0. -1.
        -11    1    4    4    0    0 -0.17740831820E-01 -0.47123141892E-01  0.16409683983E-01  0.52960990029E-01  0.51100000000E-03 0.  1.
         11    1    4    4    0    0 -0.43292233945E-01 -0.57000999183E-01  0.36298108655E-01  0.80256745765E-01  0.51100000000E-03 0. -1.
</event>
<event>
 8    1  0.1095698E+005  0.1043930E+01  0.7957747E-01            NaN
         13   -1    0    0    0    0  0.00000000000E+00  0.00000000000E+00  0.74505805969E-08  0.10566000000E+00  0.10566000000E+00 0.  1.
     999900   -1    0    0    0    0 -0.00000000000E+00 -0.00000000000E+00 -0.74505805969E-08  0.93827000000E+00  0.93827000000E+00 0.  1.
     999902    2    1    2    0    0 -0.15547708599E-01  0.27733823860E-02  0.16224828839E-01  0.10212878278E+01  0.10210368060E+01 0.  0.
     999903    2    3    3    0    0  0.32933120969E-01 -0.15154424764E-01  0.12628515223E+00  0.13292693720E+00  0.20183753701E-01 0.  0.
         14    1    1    2    0    0  0.15547708599E-01 -0.27733823860E-02 -0.16224828839E-01  0.22642172232E-01  0.00000000000E+00 0. -1.
     999901    1    3    3    0    0 -0.48480829567E-01  0.17927807150E-01 -0.11006032339E+00  0.88836089057E+00  0.88000000000E+00 0.  1.
        -11    1    4    4    0    0  0.19667011604E-02  0.40068688961E-02  0.22317217366E-01  0.22764934082E-01  0.51100000000E-03 0. -1.
         11    1    4    4    0    0  0.30966419808E-01 -0.19161293660E-01  0.10396793486E+00  0.11016200312E+00  0.51100000000E-03 0.  1.
</event>
<event>
 8    1  0.1095698E+005  0.1043930E+01  0.7957747E-01            NaN
         13   -1    0    0    0    0  0.00000000000E+00  0.00000000000E+00  0.74505805969E-08  0.10566000000E+00  0.10566000000E+00 0. -1.
     999900   -1    0    0    0    0 -0.00000000000E+00 -0.00000000000E+00 -0.74505805969E-08  0.93827000000E+00  0.93827000000E+00 0. -1.
     999902    2    1    2    0    0 -0.78698053830E-02  0.19652388892E-01 -0.93291935482E-02  0.10207959541E+01  0.10205337799E+01 0.  0.
     999903    2    3    3    0    0  0.52920053910E-01  0.49553524566E-01  0.10677177809E+00  0.13058871954E+00  0.19927798946E-01 0.  0.
         14    1    1    2    0    0  0.78698053830E-02 -0.19652388892E-01  0.93291935482E-02  0.23134045867E-01  0.00000000000E+00 0. -1.
     999901    1    3    3    0    0 -0.60789859293E-01 -0.29901135674E-01 -0.11610097164E+00  0.89020723459E+00  0.88000000000E+00 0. -1.
        -11    1    4    4    0    0  0.38255078451E-01  0.28155547924E-01  0.54959022163E-01  0.72642557391E-01  0.51100000000E-03 0.  1.
         11    1    4    4    0    0  0.14664975459E-01  0.21397976642E-01  0.51812755930E-01  0.57946162147E-01  0.51100000000E-03 0. -1.
</event>
<event>
 8    1  0.1095698E+005  0.1043930E+01  0.7957747E-01            NaN
         13   -1    0    0    0    0  0.00000000000E+00  0.00000000000E+00  0.74505805969E-08  0.10566000000E+00  0.10566000000E+00 0. -1.
     999900   -1    0    0    0    0 -0.00000000000E+00 -0.00000000000E+00 -0.74505805969E-08  0.93827000000E+00  0.93827000000E+00 0.  1.
     999902    2    1    2    0    0 -0.17277741608E-01  0.17477914124E-02  0.17067336508E-01  0.10195810964E+01  0.10192903134E+01 0.  0.
     999903    2    3    3    0    0 -0.26506775654E-01  0.65592025014E-01 -0.10566715899E+00  0.12872475693E+00  0.19989788788E-01 0.  0.
         14    1    1    2    0    0  0.17277741608E-01 -0.17477914124E-02 -0.17067336508E-01  0.24348903576E-01  0.00000000000E+00 0.  1.
     999901    1    3    3    0    0  0.92290340459E-02 -0.63844233601E-01  0.12273449550E+00  0.89085633950E+00  0.88000000000E+00 0. -1.
        -11    1    4    4    0    0 -0.23193129101E-01  0.60322518320E-01 -0.82898173090E-01  0.10511467869E+00  0.51100000000E-03 0. -1.
         11    1    4    4    0    0 -0.33136465528E-02  0.52695066934E-02 -0.22768985903E-01  0.23610078236E-01  0.51100000000E-03 0.  1.
</event>
<event>
 8    1  0.1095698E+005  0.1043930E+01  0.7957747E-01            NaN
         13   -1    0    0    0    0  0.00000000000E+00  0.00000000000E+00  0.74505805969E-08  0.10566000000E+00  0.10566000000E+00 0. -1.
     999900   -1    0    0    0    0 -0.00000000000E+00 -0.00000000000E+00 -0.74505805969E-08  0.93827000000E+00  0.93827000000E+00 0. -1.
     999902    2    1    2    0    0 -0.32506664340E-02  0.73701881281E-02 -0.21621964500E-01  0.10208562952E+01  0.10205955024E+01 0.  0.
     999903    2    3    3    0    0  0.93476902658E-01  0.62141025441E-01  0.60883830914E-01  0.13003461071E+00  0.24550371535E-01 0.  0.
         14    1    1    2    0    0  0.32506664340E-02 -0.73701881281E-02  0.21621964500E-01  0.23073704821E-01  0.00000000000E+00 0. -1.
     999901    1    3    3    0    0 -0.96727569092E-01 -0.54770837313E-01 -0.82505795414E-01  0.89082168447E+00  0.88000000000E+00 0. -1.
        -11    1    4    4    0    0  0.76463925872E-01  0.42898953430E-01  0.37731251276E-01  0.95451352054E-01  0.51100000000E-03 0. -1.
         11    1    4    4    0    0  0.17012976786E-01  0.19242072011E-01  0.23152579638E-01  0.34583258656E-01  0.51100000000E-03 0.  1.
</event>
<event>
 8    1  0.1095698E+005  0.1043930E+01  0.7957747E-01            NaN
         13   -1    0    0    0    0  0.00000000000E+00  0.00000000000E+00  0.74505805969E-08  0.10566000000E+00  0.10566000000E+00 0. -1.
     999900   -1    0    0    0    0 -0.00000000000E+00 -0.00000000000E+00 -0.74505805969E-08  0.93827000000E+00  0.93827000000E+00 0. -1.
     999902    2    1    2    0    0  0.33491185828E-03  0.72543047943E-02  0.22968896550E-01  0.10198404315E+01  0.10195558829E+01 0.  0.
     999903    2    3    3    0    0  0.10232596856E+00  0.98788715268E-02 -0.74479685372E-01  0.12860236555E+00  0.20570584502E-01 0.  0.
         14    1    1    2    0    0 -0.33491185828E-03 -0.72543047943E-02 -0.22968896550E-01  0.24089568546E-01  0.00000000000E+00 0.  1.
     999901    1    3    3    0    0 -0.10199105671E+00 -0.26245667325E-02  0.97448581922E-01  0.89123806590E+00  0.88000000000E+00 0.  1.
        -11    1    4    4    0    0  0.39125049890E-01 -0.18887550471E-02 -0.38519081003E-01  0.54939217748E-01  0.51100000000E-03 0.  1.
         11    1    4    4    0    0  0.63200918674E-01  0.11767626574E-01 -0.35960604369E-01  0.73663147801E-01  0.51100000000E-03 0. -1.
</event>
<event>
 8    1  0.1095698E+005  0.1043930E+01  0.7957747E-01            NaN
         13   -1    0    0    0    0  0.00000000000E+00  0.00000000000E+00  0.74505805969E-08  0.10566000000E+00  0.10566000000E+00 0.  1.
     999900   -1    0    0    0    0 -0.00000000000E+00 -0.00000000000E+00 -0.74505805969E-08  0.93827000000E+00  0.93827000000E+00 0.  1.
     999902    2    1    2    0    0 -0.11904952403E-01 -0.11508588644E-01 -0.16870641473E-01  0.10202911750E+01  0.10200172977E+01 0.  0.
     999903    2    3    3    0    0 -0.12178637485E-01  0.12603842792E+00  0.13838229433E-01  0.12907723242E+00  0.20866978965E-01 0.  0.
         14    1    1    2    0    0  0.11904952403E-01  0.11508588644E-01  0.16870641473E-01  0.23638825013E-01  0.00000000000E+00 0.  1.
     999901    1    3    3    0    0  0.27368508216E-03 -0.13754701657E+00 -0.30708870906E-01  0.89121394257E+00  0.88000000000E+00 0.  1.
        -11    1    4    4    0    0 -0.10108059538E-01  0.10375370768E+00  0.19338897151E-01  0.10602480270E+00  0.51100000000E-03 0.  1.
         11    1    4    4    0    0 -0.20705779471E-02  0.22284720248E-01 -0.55006677187E-02  0.23052429718E-01  0.51100000000E-03 0. -1.
</event>
<event>
 8    1  0.1129149E+005  0.1043930E+01  0.7957747E-01            NaN
         13   -1    0    0    0    0  0.00000000000E+00  0.00000000000E+00  0.74505805969E-08  0.10566000000E+00  0.10566000000E+00 0.  1.
     999900   -1    0    0    0    0 -0.00000000000E+00 -0.00000000000E+00 -0.74505805969E-08  0.93827000000E+00  0.93827000000E+00 0. -1.
     999902    2    1    2    0    0 -0.71128241526E-02 -0.15406109011E-01  0.19053897280E-01  0.10184154656E+01  0.10180958055E+01 0.  0.
     999903    2    3    3    0    0  0.21827841495E-01  0.12230011639E+00 -0.14840532911E-01  0.12659182890E+00  0.19273728076E-01 0.  0.
         14    1    1    2    0    0  0.71128241526E-02  0.15406109011E-01 -0.19053897280E-01  0.25514534364E-01  0.00000000000E+00 0.  1.
     999901    1    3    3    0    0 -0.28940665648E-01 -0.13770622540E+00  0.33894430191E-01  0.89182363674E+00  0.88000000000E+00 0. -1.
        -11    1    4    4    0    0  0.73518816255E-03  0.56631153243E-01 -0.92731441166E-02  0.57392336963E-01  0.51100000000E-03 0.  1.
         11    1    4    4    0    0  0.21092653333E-01  0.65668963146E-01 -0.55673887940E-02  0.69199491937E-01  0.51100000000E-03 0. -1.
</event>
<event>
 8    1  0.1095698E+005  0.1043930E+01  0.7957747E-01            NaN
         13   -1    0    0    0    0  0.00000000000E+00  0.00000000000E+00  0.74505805969E-08  0.10566000000E+00  0.10566000000E+00 0.  1.
     999900   -1    0    0    0    0 -0.00000000000E+00 -0.00000000000E+00 -0.74505805969E-08  0.93827000000E+00  0.93827000000E+00 0. -1.
     999902    2    1    2    0    0  0.10517429062E-01  0.21774888102E-01  0.17303447706E-02  0.10196863171E+01  0.10193980720E+01 0.  0.
     999903    2    3    3    0    0 -0.49867900872E-02 -0.28137175437E-02  0.12842281588E+00  0.13013813824E+00  0.20266482292E-01 0.  0.
         14    1    1    2    0    0 -0.10517429062E-01 -0.21774888102E-01 -0.17303447706E-02  0.24243682867E-01  0.00000000000E+00 0. -1.
     999901    1    3    3    0    0  0.15504219150E-01  0.24588605645E-01 -0.12669247111E+00  0.88954817889E+00  0.88000000000E+00 0. -1.
        -11    1    4    4    0    0 -0.72570093798E-03 -0.11249674816E-01  0.58590623594E-01  0.59667446061E-01  0.51100000000E-03 0.  1.
         11    1    4    4    0    0 -0.42610891493E-02  0.84359572726E-02  0.69832192284E-01  0.70470692178E-01  0.51100000000E-03 0. -1.
</event>
<event>
 8    1  0.1095698E+005  0.1043930E+01  0.7957747E-01            NaN
         13   -1    0    0    0    0  0.00000000000E+00  0.00000000000E+00  0.74505805969E-08  0.10566000000E+00  0.10566000000E+00 0. -1.
     999900   -1    0    0    0    0 -0.00000000000E+00 -0.00000000000E+00 -0.74505805969E-08  0.93827000000E+00  0.93827000000E+00 0.  1.
     999902    2    1    2    0    0  0.37380106358E-02 -0.12059090838E-01 -0.18409059310E-01  0.10216076377E+01  0.10213637342E+01 0.  0.
     999903    2    3    3    0    0  0.57930153722E-01  0.11390986507E+00 -0.16027399540E-01  0.13098390200E+00  0.23844181199E-01 0.  0.
         14    1    1    2    0    0 -0.37380106358E-02  0.12059090838E-01  0.18409059310E-01  0.22322362331E-01  0.00000000000E+00 0. -1.
     999901    1    3    3    0    0 -0.54192143087E-01 -0.12596895591E+00 -0.23816597700E-02  0.89062373566E+00  0.88000000000E+00 0.  1.
        -11    1    4    4    0    0  0.46721145583E-02  0.23746631030E-01 -0.96853417970E-02  0.26072938201E-01  0.51100000000E-03 0.  1.
         11    1    4    4    0    0  0.53258039164E-01  0.90163234044E-01 -0.63420577428E-02  0.10491096380E+00  0.51100000000E-03 0. -1.
</event>
<event>
 8    1  0.1095698E+005  0.1043930E+01  0.7957747E-01            NaN
         13   -1    0    0    0    0  0.00000000000E+00  0.00000000000E+00  0.74505805969E-08  0.10566000000E+00  0.10566000000E+00 0. -1.
     999900   -1    0    0    0    0 -0.00000000000E+00 -0.00000000000E+00 -0.74505805969E-08  0.93827000000E+00  0.93827000000E+00 0.  1.
     999902    2    1    2    0    0  0.32655585586E-02 -0.21654942482E-01  0.39370092272E-02  0.10216791472E+01  0.10214368211E+01 0.  0.
     999903    2    3    3    0    0  0.43231302031E-01  0.20743272652E-01  0.12137881047E+00  0.13196714554E+00  0.19577615664E-01 0.  0.
         14    1    1    2    0    0 -0.32655585586E-02  0.21654942482E-01 -0.39370092272E-02  0.22250852754E-01  0.00000000000E+00 0. -1.
     999901    1    3    3    0    0 -0.39965743472E-01 -0.42398215134E-01 -0.11744180125E+00  0.88971200170E+00  0.88000000000E+00 0.  1.
        -11    1    4    4    0    0  0.39741706957E-01  0.16499284971E-01  0.86057353936E-01  0.96217248786E-01  0.51100000000E-03 0. -1.
         11    1    4    4    0    0  0.34895950743E-02  0.42439876804E-02  0.35321456536E-01  0.35749896756E-01  0.51100000000E-03 0.  1.
</event>
<event>
 8    1  0.1095698E+005  0.1043930E+01  0.7957747E-01            NaN
         13   -1    0    0    0    0  0.00000000000E+00  0.00000000000E+00  0.74505805969E-08  0.10566000000E+00  0.10566000000E+00 0. -1.
     999900   -1    0    0    0    0 -0.00000000000E+00 -0.00000000000E+00 -0.74505805969E-08  0.93827000000E+00  0.93827000000E+00 0.  1.
     999902    2    1    2    0    0 -0.21099823559E-01 -0.98686110561E-02 -0.90577590174E-02  0.10189373003E+01  0.10186307412E+01 0.  0.
     999903    2    3    3    0    0 -0.30289351396E-01  0.78959915912E-01 -0.96839746318E-01  0.13007250076E+00  0.19718160595E-01 0.  0.
         14    1    1    2    0    0  0.21099823559E-01  0.98686110561E-02  0.90577590174E-02  0.24992699671E-01  0.00000000000E+00 0. -1.
     999901    1    3    3    0    0  0.91895278370E-02 -0.88828526969E-01  0.87781987300E-01  0.88886479957E+00  0.88000000000E+00 0. -1.
        -11    1    4    4    0    0 -0.74985838325E-02  0.46471795663E-01 -0.49851031367E-01  0.68565610921E-01  0.51100000000E-03 0.  1.
         11    1    4    4    0    0 -0.22790767564E-01  0.32488120249E-01 -0.46988714951E-01  0.61506889835E-01  0.51100000000E-03 0. -1.
</event>
<event>
 8    1  0.1095698E+005  0.1043930E+01  0.7957747E-01            NaN
         13   -1    0    0    0    0  0.00000000000E+00  0.00000000000E+00  0.74505805969E-08  0.10566000000E+00  0.10566000000E+00 0.  1.
     999900   -1    0    0    0    0 -0.00000000000E+00 -0.00000000000E+00 -0.74505805969E-08  0.93827000000E+00  0.93827000000E+00 0. -1.
     999902    2    1    2    0    0  0.55415171921E-02  0.21204495049E-01  0.92643083964E-02  0.10201357479E+01  0.10198582145E+01 0.  0.
     999903    2    3    3    0    0  0.61942931287E-01  0.58984084312E-01  0.99734340862E-01  0.13289663489E+00  0.19963163053E-01 0.  0.
         14    1    1    2    0    0 -0.55415171921E-02 -0.21204495049E-01 -0.92643083964E-02  0.23794252103E-01  0.00000000000E+00 0. -1.
     999901    1    3    3    0    0 -0.56401414095E-01 -0.37779589263E-01 -0.90470032465E-01  0.88723911301E+00  0.88000000000E+00 0.  1.
        -11    1    4    4    0    0  0.52132858342E-01  0.57606457512E-01  0.85278633735E-01  0.11536483588E+00  0.51100000000E-03 0.  1.
         11    1    4    4    0    0  0.98100729454E-02  0.13776267999E-02  0.14455707127E-01  0.17531799004E-01  0.51100000000E-03 0. -1.
</event>
<event>
 8    1  0.1095698E+005  0.1043930E+01  0.7957747E-01            NaN
         13   -1    0    0    0    0  0.00000000000E+00  0.00000000000E+00  0.74505805969E-08  0.10566000000E+00  0.10566000000E+00 0. -1.
     999900   -1    0    0    0    0 -0.00000000000E+00 -0.00000000000E+00 -0.74505805969E-08  0.93827000000E+00  0.93827000000E+00 0.  1.
     999902    2    1    2    0    0  0.48664091320E-02 -0.22213218846E-01  0.31783529570E-02  0.10209689252E+01  0.10207107010E+01 0.  0.
     999903    2    3    3    0    0 -0.47370132347E-01  0.11248536272E+00 -0.34469989431E-01  0.12839413177E+00  0.19999665904E-01 0.  0.
         14    1    1    2    0    0 -0.48664091320E-02  0.22213218846E-01 -0.31783529570E-02  0.22961074819E-01  0.00000000000E+00 0. -1.
     999901    1    3    3    0    0  0.52236541479E-01 -0.13469858157E+00  0.37648342388E-01  0.89257479341E+00  0.88000000000E+00 0.  1.
        -11    1    4    4    0    0 -0.48367547358E-01  0.10704877455E+00 -0.29928826909E-01  0.12122233940E+00  0.51100000000E-03 0. -1.
         11    1    4    4    0    0  0.99741501123E-03  0.54365881786E-02 -0.45411625222E-02  0.71717923689E-02  0.51100000000E-03 0.  1.
</event>
<event>
 8    1  0.1095698E+005  0.1043930E+01  0.7957747E-01            NaN
         13   -1    0    0    0    0  0.00000000000E+00  0.00000000000E+00  0.74505805969E-08  0.10566000000E+00  0.10566000000E+00 0.  1.
     999900   -1    0    0    0    0 -0.00000000000E+00 -0.00000000000E+00 -0.74505805969E-08  0.93827000000E+00  0.93827000000E+00 0.  1.
     999902    2    1    2    0    0  0.21776285294E-01 -0.31705377012E-02 -0.81734353384E-02  0.10204552485E+01  0.10201852039E+01 0.  0.
     999903    2    3    3    0    0 -0.75794919138E-01  0.10116303922E+00 -0.14896423245E-01  0.12891117573E+00  0.20429330171E-01 0.  0.
         14    1    1    2    0    0 -0.21776285294E-01  0.31705377012E-02  0.81734353384E-02  0.23474751453E-01  0.00000000000E+00 0.  1.
     999901    1    3    3    0    0  0.97571204432E-01 -0.10433357692E+00  0.67229879068E-02  0.89154407282E+00  0.88000000000E+00 0. -1.
        -11    1    4    4    0    0 -0.26643211100E-01  0.51252751223E-01 -0.10576889282E-01  0.58726798938E-01  0.51100000000E-03 0.  1.
         11    1    4    4    0    0 -0.49151708038E-01  0.49910287998E-01 -0.43195339632E-02  0.70184376793E-01  0.51100000000E-03 0. -1.
</event>
<event>
 8    1  0.1095698E+005  0.1043930E+01  0.7957747E-01            NaN
         13   -1    0    0    0    0  0.00000000000E+00  0.00000000000E+00  0.74505805969E-08  0.10566000000E+00  0.10566000000E+00 0.  1.
     999900   -1    0    0    0    0 -0.00000000000E+00 -0.00000000000E+00 -0.74505805969E-08  0.93827000000E+00  0.93827000000E+00 0. -1.
     999902    2    1    2    0    0 -0.20542841726E-01  0.84000666321E-02  0.95391922492E-02  0.10197728964E+01  0.10194867309E+01 0.  0.
     999903    2    3    3    0    0  0.10236305345E+00  0.70733978815E-01  0.27090793919E-01  0.12887479089E+00  0.19832048338E-01 0.  0.
         14    1    1    2    0    0  0.20542841726E-01 -0.84000666321E-02 -0.95391922492E-02  0.24157103600E-01  0.00000000000E+00 0.  1.
     999901    1    3    3    0    0 -0.12290589518E+00 -0.62333912182E-01 -0.17551601670E-01  0.89089810551E+00  0.88000000000E+00 0.  1.
        -11    1    4    4    0    0  0.58116796706E-01  0.42867382980E-01  0.59241415900E-02  0.72460548973E-01  0.51100000000E-03 0.  1.
         11    1    4    4    0    0  0.44246256745E-01  0.27866595835E-01  0.21166652329E-01  0.56414241918E-01  0.51100000000E-03 0. -1.
</event>
<event>
 8    1  0.1095698E+005  0.1043930E+01  0.7957747E-01            NaN
         13   -1    0    0    0    0  0.00000000000E+00  0.00000000000E+00  0.74505805969E-08  0.10566000000E+00  0.10566000000E+00 0.  1.
     999900   -1    0    0    0    0 -0.00000000000E+00 -0.00000000000E+00 -0.74505805969E-08  0.93827000000E+00  0.93827000000E+00 0.  1.
     999902    2    1    2    0    0  0.18392575353E-01 -0.15278834852E-01 -0.13435890719E-02  0.10199814123E+01  0.10197002239E+01 0.  0.
     999903    2    3    3    0    0  0.57302179359E-01 -0.10651073163E+00  0.51280475814E-01  0.13284753935E+00  0.19766279368E-01 0.  0.
         14    1    1    2    0    0 -0.18392575353E-01  0.15278834852E-01  0.13435890719E-02  0.23948587727E-01  0.00000000000E+00 0.  1.
     999901    1    3    3    0    0 -0.38909604006E-01  0.91231896783E-01 -0.52624064886E-01  0.88713387292E+00  0.88000000000E+00 0.  1.
        -11    1    4    4    0    0  0.52104998856E-01 -0.79604447457E-01  0.39664581415E-01  0.10307928551E+00  0.51100000000E-03 0. -1.
         11    1    4    4    0    0  0.51971805027E-02 -0.26906284178E-01  0.11615894399E-01  0.29768253847E-01  0.51100000000E-03 0.  1.
</event>
<event>
 8    1  0.1095698E+005  0.1043930E+01  0.7957747E-01            NaN
         13   -1    0    0    0    0  0.00000000000E+00  0.00000000000E+00  0.74505805969E-08  0.10566000000E+00  0.10566000000E+00 0. -1.
     999900   -1    0    0    0    0 -0.00000000000E+00 -0.00000000000E+00 -0.74505805969E-08  0.93827000000E+00  0.93827000000E+00 0. -1.
     999902    2    1    2    0    0 -0.22392800491E-01  0.86861272272E-02 -0.16730073914E-02  0.10198533459E+01  0.10195691060E+01 0.  0.
     999903    2    3    3    0    0  0.64675777110E-01  0.46238346268E-01 -0.10017219362E+00  0.12929554537E+00  0.19024428179E-01 0.  0.
         14    1    1    2    0    0  0.22392800491E-01 -0.86861272272E-02  0.16730073914E-02  0.24076654123E-01  0.00000000000E+00 0. -1.
     999901    1    3    3    0    0 -0.87068577601E-01 -0.37552219041E-01  0.98499186225E-01  0.89055780051E+00  0.88000000000E+00 0.  1.
        -11    1    4    4    0    0  0.43430485251E-01  0.22899405164E-01 -0.70934866570E-01  0.86270540872E-01  0.51100000000E-03 0.  1.
         11    1    4    4    0    0  0.21245291859E-01  0.23338941104E-01 -0.29237327046E-01  0.43025004496E-01  0.51100000000E-03 0. -1.
</event>
<event>
 8    1  0.1095698E+005  0.1043930E+01  0.7957747E-01            NaN
         13   -1    0    0    0    0  0.00000000000E+00  0.00000000000E+00  0.74505805969E-08  0.10566000000E+00  0.10566000000E+00 0.  1.
     999900   -1    0    0    0    0 -0.00000000000E+00 -0.00000000000E+00 -0.74505805969E-08  0.93827000000E+00  0.93827000000E+00 0. -1.
     999902    2    1    2    0    0 -0.18100409580E-01 -0.10548758860E-01 -0.87794019918E-02  0.10212148280E+01  0.10209621667E+01 0.  0.
     999903    2    3    3    0    0  0.10798829582E+00  0.92108659476E-02  0.66616303119E-01  0.12881731748E+00  0.20244934105E-01 0.  0.
         14    1    1    2    0    0  0.18100409580E-01  0.10548758860E-01  0.87794019918E-02  0.22715172017E-01  0.00000000000E+00 0. -1.
     999901    1    3    3    0    0 -0.12608870540E+00 -0.19759624807E-01 -0.75395705110E-01  0.89239751050E+00  0.88000000000E+00 0. -1.
        -11    1    4    4    0    0  0.57562421746E-01  0.13674689128E-01  0.41754719220E-01  0.72416484436E-01  0.51100000000E-03 0.  1.
         11    1    4    4    0    0  0.50425874070E-01 -0.44638231802E-02  0.24861583899E-01  0.56400833044E-01  0.51100000000E-03 0. -1.
</event>
<event>
 8    1  0.1095698E+005  0.1043930E+01  0.7957747E-01            NaN
         13   -1    0    0    0    0  0.00000000000E+00  0.00000000000E+00  0.74505805969E-08  0.10566000000E+00  0.10566000000E+00 0. -1.
     999900   -1    0    0    0    0 -0.00000000000E+00 -0.00000000000E+00 -0.74505805969E-08  0.93827000000E+00  0.93827000000E+00 0. -1.
     999902    2    1    2    0    0 -0.15966818109E-01 -0.20457397278E-02  0.17534322102E-01  0.10201271266E+01  0.10198493897E+01 0.  0.
     999903    2    3    3    0    0  0.11026806345E+00 -0.51044807434E-01 -0.35404715663E-01  0.12819736719E+00  0.20407177177E-01 0.  0.
         14    1    1    2    0    0  0.15966818109E-01  0.20457397278E-02 -0.17534322102E-01  0.23802873422E-01  0.00000000000E+00 0. -1.
     999901    1    3    3    0    0 -0.12623488156E+00  0.48999067707E-01  0.52939037765E-01  0.89192975939E+00  0.88000000000E+00 0.  1.
        -11    1    4    4    0    0  0.69022402117E-01 -0.22487295459E-01 -0.15549757290E-01  0.74241676462E-01  0.51100000000E-03 0.  1.
         11    1    4    4    0    0  0.41245661334E-01 -0.28557511975E-01 -0.19854958373E-01  0.53955690730E-01  0.51100000000E-03 0. -1.
</event>
<event>
 8    1  0.1095698E+005  0.1043930E+01  0.7957747E-01            NaN
         13   -1    0    0    0    0  0.00000000000E+00  0.00000000000E+00  0.74505805969E-08  0.10566000000E+00  0.10566000000E+00 0.  1.
     999900   -1    0    0    0    0 -0.00000000000E+00 -0.00000000000E+00 -0.74505805969E-08  0.93827000000E+00  0.93827000000E+00 0. -1.
     999902    2    1    2    0    0  0.10556761536E-01  0.70339645819E-02  0.18895202107E-01  0.10211714734E+01  0.10209178358E+01 0.  0.
     999903    2    3    3    0    0 -0.42731482102E-01  0.85583922314E-01 -0.85571519276E-01  0.12992345590E+00  0.20175038025E-01 0.  0.
         14    1    1    2    0    0 -0.10556761536E-01 -0.70339645819E-02 -0.18895202107E-01  0.22758526633E-01  0.00000000000E+00 0. -1.
     999901    1    3    3    0    0  0.53288243638E-01 -0.78549957732E-01  0.10446672138E+00  0.89124801747E+00  0.88000000000E+00 0.  1.
        -11    1    4    4    0    0 -0.27181184322E-02  0.42590713700E-02 -0.12524886301E-01  0.13515241567E-01  0.51100000000E-03 0.  1.
         11    1    4    4    0    0 -0.40013363670E-01  0.81324850944E-01 -0.73046632975E-01  0.11640821433E+00  0.51100000000E-03 0. -1.
</event>
<event>
 8    1  0.1095698E+005  0.1043930E+01  0.7957747E-01            NaN
         13   -1    0    0    0    0  0.00000000000E+00  0.00000000000E+00  0.74505805969E-08  0.10566000000E+00  0.10566000000E+00 0.  1.
     999900   -1    0    0    0    0 -0.00000000000E+00 -0.00000000000E+00 -0.74505805969E-08  0.93827000000E+00  0.93827000000E+00 0. -1.
     999902    2    1    2    0    0  0.80783376425E-02  0.28982316861E-02 -0.24262323336E-01  0.10181944289E+01  0.10178691347E+01 0.  0.
     999903    2    3    3    0    0  0.44194889704E-01 -0.97253678235E-02 -0.12216016377E+00  0.13193952891E+00  0.20908434231E-01 0.  0.
         14    1    1    2    0    0 -0.80783376425E-02 -0.28982316861E-02  0.24262323336E-01  0.25735571096E-01  0.00000000000E+00 0.  1.
     999901    1    3    3    0    0 -0.36116552061E-01  0.12623599510E-01  0.97897840435E-01  0.88625489999E+00  0.88000000000E+00 0.  1.
        -11    1    4    4    0    0  0.28170945875E-01  0.11543406917E-03 -0.93534220250E-01  0.97685858727E-01  0.51100000000E-03 0. -1.
         11    1    4    4    0    0  0.16023943829E-01 -0.98408018926E-02 -0.28625943521E-01  0.34253670186E-01  0.51100000000E-03 0.  1.
</event>
<event>
 8    1  0.1095698E+005  0.1043930E+01  0.7957747E-01            NaN
         13   -1    0    0    0    0  0.00000000000E+00  0.00000000000E+00  0.74505805969E-08  0.10566000000E+00  0.10566000000E+00 0. -1.
     999900   -1    0    0    0    0 -0.00000000000E+00 -0.00000000000E+00 -0.74505805969E-08  0.93827000000E+00  0.93827000000E+00 0.  1.
     999902    2    1    2    0    0 -0.20278128123E-01 -0.90961051413E-02  0.73790896460E-02  0.10205122167E+01  0.10202434964E+01 0.  0.
     999903    2    3    3    0    0 -0.51258248061E-01 -0.10063313718E+00  0.67752092892E-01  0.13316578181E+00  0.19706421796E-01 0.  0.
         14    1    1    2    0    0  0.20278128123E-01  0.90961051413E-02 -0.73790896460E-02  0.23417783262E-01  0.00000000000E+00 0.  1.
     999901    1    3    3    0    0  0.30980119938E-01  0.91537032037E-01 -0.60373003246E-01  0.88734643493E+00  0.88000000000E+00 0.  1.
        -11    1    4    4    0    0 -0.35316997758E-01 -0.76964572891E-01  0.41155616506E-01  0.94153500742E-01  0.51100000000E-03 0.  1.
         11    1    4    4    0    0 -0.15941250303E-01 -0.23668564287E-01  0.26596476386E-01  0.39012281064E-01  0.51100000000E-03 0. -1.
</event>
<event>
 8    1  0.1095698E+005  0.1043930E+01  0.7957747E-01            NaN
         13   -1    0    0    0    0  0.00000000000E+00  0.00000000000E+00  0.74505805969E-08  0.10566000000E+00  0.10566000000E+00 0. -1.
     999900   -1    0    0    0    0 -0.00000000000E+00 -0.00000000000E+00 -0.74505805969E-08  0.93827000000E+00  0.93827000000E+00 0.  1.
     999902    2    1    2    0    0  0.79445591152E-02 -0.20625149097E-01  0.98476639535E-02  0.10197331142E+01  0.10194459942E+01 0.  0.
     999903    2    3    3    0    0  0.83221965007E-01  0.14857806561E-01  0.98475024566E-01  0.13137477606E+00  0.20380172855E-01 0.  0.
         14    1    1    2    0    0 -0.79445591152E-02  0.20625149097E-01 -0.98476639535E-02  0.24196885753E-01  0.00000000000E+00 0.  1.
     999901    1    3    3    0    0 -0.75277405892E-01 -0.35482955659E-01 -0.88627360613E-01  0.88835833819E+00  0.88000000000E+00 0.  1.
        -11    1    4    4    0    0  0.54180184385E-01  0.14367186783E-02  0.53315820342E-01  0.76028904768E-01  0.51100000000E-03 0.  1.
         11    1    4    4    0    0  0.29041780622E-01  0.13421087883E-01  0.45159204224E-01  0.55345871290E-01  0.51100000000E-03 0. -1.
</event>
<event>
 8    1  0.1095698E+005  0.1043930E+01  0.7957747E-01            NaN
         13   -1    0    0    0    0  0.00000000000E+00  0.00000000000E+00  0.74505805969E-08  0.10566000000E+00  0.10566000000E+00 0.  1.
     999900   -1    0    0    0    0 -0.00000000000E+00 -0.00000000000E+00 -0.74505805969E-08  0.93827000000E+00  0.93827000000E+00 0.  1.
     999902    2    1    2    0    0 -0.56321565688E-02 -0.14268983354E-01 -0.20782119731E-01  0.10180993675E+01  0.10177716348E+01 0.  0.
     999903    2    3    3    0    0  0.27394543200E-01  0.11377172834E+00 -0.47220807386E-01  0.12782739169E+00  0.20385540206E-01 0.  0.
         14    1    1    2    0    0  0.56321565688E-02  0.14268983354E-01  0.20782119731E-01  0.25830632476E-01  0.00000000000E+00 0.  1.
     999901    1    3    3    0    0 -0.33026699768E-01 -0.12804071170E+00  0.26438687654E-01  0.89027197583E+00  0.88000000000E+00 0. -1.
        -11    1    4    4    0    0  0.44213057491E-02  0.61801559893E-01 -0.24466958634E-01  0.66617369624E-01  0.51100000000E-03 0. -1.
         11    1    4    4    0    0  0.22973237451E-01  0.51970168448E-01 -0.22753848751E-01  0.61210022068E-01  0.51100000000E-03 0.  1.
</event>
<event>
 8    1  0.1095698E+005  0.1043930E+01  0.7957747E-01            NaN
         13   -1    0    0    0    0  0.00000000000E+00  0.00000000000E+00  0.74505805969E-08  0.10566000000E+00  0.10566000000E+00 0.  1.
     999900   -1    0    0    0    0 -0.00000000000E+00 -0.00000000000E+00 -0.74505805969E-08  0.93827000000E+00  0.93827000000E+00 0. -1.
     999902    2    1    2    0    0  0.25810271461E-02  0.21993615148E-01  0.74736202707E-02  0.10205583118E+01  0.10202906606E+01 0.  0.
     999903    2    3    3    0    0 -0.79275046115E-01  0.23643777087E-01 -0.99630193317E-01  0.13029185359E+00  0.14360729793E-01 0.  0.
         14    1    1    2    0    0 -0.25810271461E-02 -0.21993615148E-01 -0.74736202707E-02  0.23371688180E-01  0.00000000000E+00 0. -1.
     999901    1    3    3    0    0  0.81856073261E-01 -0.16501619388E-02  0.10710381359E+00  0.89026645823E+00  0.88000000000E+00 0.  1.
        -11    1    4    4    0    0 -0.59851618455E-01  0.23746173809E-01 -0.73265868725E-01  0.97540994680E-01  0.51100000000E-03 0. -1.
         11    1    4    4    0    0 -0.19423427660E-01 -0.10239672160E-03 -0.26364324592E-01  0.32750858910E-01  0.51100000000E-03 0.  1.
</event>
<event>
 8    1  0.1095698E+005  0.1043930E+01  0.7957747E-01            NaN
         13   -1    0    0    0    0  0.00000000000E+00  0.00000000000E+00  0.74505805969E-08  0.10566000000E+00  0.10566000000E+00 0.  1.
     999900   -1    0    0    0    0 -0.00000000000E+00 -0.00000000000E+00 -0.74505805969E-08  0.93827000000E+00  0.93827000000E+00 0. -1.
     999902    2    1    2    0    0  0.20591923045E-01  0.10449771296E-01 -0.46887284002E-02  0.10203671227E+01  0.10200950229E+01 0.  0.
     999903    2    3    3    0    0 -0.63051196455E-01 -0.92341358083E-01  0.59354905077E-01  0.12814306183E+00  0.19881140613E-01 0.  0.
         14    1    1    2    0    0 -0.20591923045E-01 -0.10449771296E-01  0.46887284002E-02  0.23562877346E-01  0.00000000000E+00 0.  1.
     999901    1    3    3    0    0  0.83643119500E-01  0.10279112938E+00 -0.64043633477E-01  0.89222406082E+00  0.88000000000E+00 0. -1.
        -11    1    4    4    0    0 -0.67842026663E-03 -0.27897749235E-02  0.59871987266E-02  0.66596372104E-02  0.51100000000E-03 0. -1.
         11    1    4    4    0    0 -0.62372776189E-01 -0.89551583160E-01  0.53367706350E-01  0.12148342462E+00  0.51100000000E-03 0.  1.
</event>
<event>
 8    1  0.1095698E+005  0.1043930E+01  0.7957747E-01            NaN
         13   -1    0    0    0    0  0.00000000000E+00  0.00000000000E+00  0.74505805969E-08  0.10566000000E+00  0.10566000000E+00 0.  1.
     999900   -1    0    0    0    0 -0.00000000000E+00 -0.00000000000E+00 -0.74505805969E-08  0.93827000000E+00  0.93827000000E+00 0. -1.
     999902    2    1    2    0    0 -0.36284629393E-02  0.20603122532E-01 -0.10744442106E-01  0.10204119763E+01  0.10201409236E+01 0.  0.
     999903    2    3    3    0    0  0.56332384215E-01  0.11322029449E+00 -0.36266189704E-01  0.13315519087E+00  0.20564429110E-01 0.  0.
         14    1    1    2    0    0  0.36284629393E-02 -0.20603122532E-01  0.10744442106E-01  0.23518023674E-01  0.00000000000E+00 0.  1.
     999901    1    3    3    0    0 -0.59960847154E-01 -0.92617171959E-01  0.25521747598E-01  0.88725678545E+00  0.88000000000E+00 0. -1.
        -11    1    4    4    0    0  0.35993321797E-01  0.63943109703E-01 -0.11144377507E-01  0.74220608751E-01  0.51100000000E-03 0.  1.
         11    1    4    4    0    0  0.20339062418E-01  0.49277184788E-01 -0.25121812197E-01  0.58934582121E-01  0.51100000000E-03 0. -1.
</event>
<event>
 8    1  0.1095698E+005  0.1043930E+01  0.7957747E-01            NaN
         13   -1    0    0    0    0  0.00000000000E+00  0.00000000000E+00  0.74505805969E-08  0.10566000000E+00  0.10566000000E+00 0.  1.
     999900   -1    0    0    0    0 -0.00000000000E+00 -0.00000000000E+00 -0.74505805969E-08  0.93827000000E+00  0.93827000000E+00 0.  1.
     999902    2    1    2    0    0 -0.59092202270E-02  0.10404914254E-01  0.19775940845E-01  0.10208157412E+01  0.10205540204E+01 0.  0.
     999903    2    3    3    0    0 -0.79008634438E-02  0.12183105417E+00 -0.44465980873E-01  0.13146385593E+00  0.20007312608E-01 0.  0.
         14    1    1    2    0    0  0.59092202270E-02 -0.10404914254E-01 -0.19775940845E-01  0.23114258816E-01  0.00000000000E+00 0. -1.
     999901    1    3    3    0    0  0.19916432167E-02 -0.11142613991E+00  0.64241921719E-01  0.88935188525E+00  0.88000000000E+00 0. -1.
        -11    1    4    4    0    0 -0.13586173234E-01  0.58330430673E-01 -0.19411786180E-01  0.62961113469E-01  0.51100000000E-03 0. -1.
         11    1    4    4    0    0  0.56853097906E-02  0.63500623496E-01 -0.25054194694E-01  0.68502742460E-01  0.51100000000E-03 0.  1.
</event>
<event>
 8    1  0.1095698E+005  0.1043930E+01  0.7957747E-01            NaN
         13   -1    0    0    0    0  0.00000000000E+00  0.00000000000E+00  0.74505805969E-08  0.10566000000E+00  0.10566000000E+00 0. -1.
     999900   -1    0    0    0    0 -0.00000000000E+00 -0.00000000000E+00 -0.74505805969E-08  0.93827000000E+00  0.93827000000E+00 0. -1.
     999902    2    1    2    0    0 -0.12652305804E-01 -0.32538389929E-02 -0.20503489994E-01  0.10196182454E+01  0.10193283597E+01 0.  0.
     999903    2    3    3    0    0 -0.31630455869E-01 -0.12085504124E+00 -0.35414705911E-01  0.13146704356E+00  0.20565879883E-01 0.  0.
         14    1    1    2    0    0  0.12652305804E-01  0.32538389929E-02  0.20503489994E-01  0.24311754611E-01  0.00000000000E+00 0. -1.
     999901    1    3    3    0    0  0.18978150065E-01  0.11760120225E+00  0.14911215917E-01  0.88815120183E+00  0.88000000000E+00 0. -1.
        -11    1    4    4    0    0 -0.24233912344E-01 -0.55085671893E-01 -0.20896819782E-01  0.63707550207E-01  0.51100000000E-03 0. -1.
         11    1    4    4    0    0 -0.73965435255E-02 -0.65769369350E-01 -0.14517886128E-01  0.67759493353E-01  0.51100000000E-03 0.  1.
</event>
<event>
 8    1  0.1095698E+005  0.1043930E+01  0.7957747E-01            NaN
         13   -1    0    0    0    0  0.00000000000E+00  0.00000000000E+00  0.74505805969E-08  0.10566000000E+00  0.10566000000E+00 0. -1.
     999900   -1    0    0    0    0 -0.00000000000E+00 -0.00000000000E+00 -0.74505805969E-08  0.93827000000E+00  0.93827000000E+00 0.  1.
     999902    2    1    2    0    0  0.30096083374E-02 -0.24639570483E-01  0.82678599632E-02  0.10177665965E+01  0.10174302537E+01 0.  0.
     999903    2    3    3    0    0 -0.97199923348E-01  0.43941619940E-01  0.67664941452E-01  0.12744455181E+00  0.16878341802E-01 0.  0.
         14    1    1    2    0    0 -0.30096083374E-02  0.24639570483E-01 -0.82678599632E-02  0.26163403531E-01  0.00000000000E+00 0.  1.
     999901    1    3    3    0    0  0.10020953169E+00 -0.68581190423E-01 -0.59397081489E-01  0.89032204466E+00  0.88000000000E+00 0.  1.
        -11    1    4    4    0    0 -0.34409968598E-01  0.18160738927E-01  0.15704368456E-01  0.41961252209E-01  0.51100000000E-03 0.  1.
         11    1    4    4    0    0 -0.62789954750E-01  0.25780881013E-01  0.51960572996E-01  0.85483299599E-01  0.51100000000E-03 0. -1.
</event>
<event>
 8    1  0.1095698E+005  0.1043930E+01  0.7957747E-01            NaN
         13   -1    0    0    0    0  0.00000000000E+00  0.00000000000E+00  0.74505805969E-08  0.10566000000E+00  0.10566000000E+00 0. -1.
     999900   -1    0    0    0    0 -0.00000000000E+00 -0.00000000000E+00 -0.74505805969E-08  0.93827000000E+00  0.93827000000E+00 0. -1.
     999902    2    1    2    0    0  0.16490035460E-01  0.72713688645E-02 -0.14625392681E-01  0.10207201705E+01  0.10204562559E+01 0.  0.
     999903    2    3    3    0    0 -0.74513581697E-01 -0.70992502926E-01  0.73781242800E-01  0.12818298630E+00  0.19874527916E-01 0.  0.
         14    1    1    2    0    0 -0.16490035460E-01 -0.72713688645E-02  0.14625392681E-01  0.23209829506E-01  0.00000000000E+00 0.  1.
     999901    1    3    3    0    0  0.91003617157E-01  0.78263871791E-01 -0.88406635481E-01  0.89253718419E+00  0.88000000000E+00 0.  1.
        -11    1    4    4    0    0 -0.52685727249E-01 -0.53266622094E-01  0.63588866586E-01  0.98269649229E-01  0.51100000000E-03 0. -1.
         11    1    4    4    0    0 -0.21827854448E-01 -0.17725880833E-01  0.10192376214E-01  0.29913337075E-01  0.51100000000E-03 0.  1.
</event>
<event>
 8    1  0.1095698E+005  0.1043930E+01  0.7957747E-01            NaN
         13   -1    0    0    0    0  0.00000000000E+00  0.00000000000E+00  0.74505805969E-08  0.10566000000E+00  0.10566000000E+00 0. -1.
     999900   -1    0    0    0    0 -0.00000000000E+00 -0.00000000000E+00 -0.74505805969E-08  0.93827000000E+00  0.93827000000E+00 0. -1.
     999902    2    1    2    0    0  0.54400443354E-02  0.71762645950E-02  0.22677806511E-01  0.10195296770E+01  0.10192376496E+01 0.  0.
     999903    2    3    3    0    0  0.10631230515E+00 -0.93781405699E-02 -0.69837148991E-01  0.12879499238E+00  0.17907175594E-01 0.  0.
         14    1    1    2    0    0 -0.54400443354E-02 -0.71762645950E-02 -0.22677806511E-01  0.24400323032E-01  0.00000000000E+00 0. -1.
     999901    1    3    3    0    0 -0.10087226081E+00  0.16554405165E-01  0.92514955503E-01  0.89073468459E+00  0.88000000000E+00 0.  1.
        -11    1    4    4    0    0  0.55697130593E-01 -0.11291731856E-01 -0.29440648529E-01  0.64005362833E-01  0.51100000000E-03 0. -1.
         11    1    4    4    0    0  0.50615174553E-01  0.19135912856E-02 -0.40396500462E-01  0.64789629550E-01  0.51100000000E-03 0.  1.
</event>
<event>
 8    1  0.1095698E+005  0.1043930E+01  0.7957747E-01            NaN
         13   -1    0    0    0    0  0.00000000000E+00  0.00000000000E+00  0.74505805969E-08  0.10566000000E+00  0.10566000000E+00 0. -1.
     999900   -1    0    0    0    0 -0.00000000000E+00 -0.00000000000E+00 -0.74505805969E-08  0.93827000000E+00  0.93827000000E+00 0.  1.
     999902    2    1    2    0    0 -0.11857708529E-01  0.48730215963E-02  0.20062738475E-01  0.10201210717E+01  0.10198431918E+01 0.  0.
     999903    2    3    3    0    0 -0.76262849686E-01  0.71476341154E-01  0.79435987654E-01  0.13326752850E+00  0.22918735399E-01 0.  0.
         14    1    1    2    0    0  0.11857708529E-01 -0.48730215963E-02 -0.20062738475E-01  0.23808928286E-01  0.00000000000E+00 0. -1.
     999901    1    3    3    0    0  0.64405141157E-01 -0.66603319558E-01 -0.59373249179E-01  0.88685354321E+00  0.88000000000E+00 0. -1.
        -11    1    4    4    0    0 -0.20430553875E-02  0.11154466065E-01  0.90216405941E-02  0.14499907190E-01  0.51100000000E-03 0. -1.
         11    1    4    4    0    0 -0.74219794299E-01  0.60321875089E-01  0.70414347060E-01  0.11876762132E+00  0.51100000000E-03 0.  1.
</event>
<event>
 8    1  0.1095698E+005  0.1043930E+01  0.7957747E-01            NaN
         13   -1    0    0    0    0  0.00000000000E+00  0.00000000000E+00  0.74505805969E-08  0.10566000000E+00  0.10566000000E+00 0.  1.
     999900   -1    0    0    0    0 -0.00000000000E+00 -0.00000000000E+00 -0.74505805969E-08  0.93827000000E+00  0.93827000000E+00 0.  1.
     999902    2    1    2    0    0 -0.20184729730E-02  0.18985610749E-01  0.12152202770E-01  0.10212980827E+01  0.10210472908E+01 0.  0.
     999903    2    3    3    0    0  0.10416065921E+00  0.33700937876E-01  0.72522501207E-01  0.13274019381E+00  0.19371363708E-01 0.  0.
         14    1    1    2    0    0  0.20184729730E-02 -0.18985610749E-01 -0.12152202770E-01  0.22631917303E-01  0.00000000000E+00 0. -1.
     999901    1    3    3    0    0 -0.10617913218E+00 -0.14715327127E-01 -0.60370298436E-01  0.88855788888E+00  0.88000000000E+00 0.  1.
        -11    1    4    4    0    0  0.32054250968E-01  0.19625337356E-01  0.27488443821E-01  0.46567204513E-01  0.51100000000E-03 0. -1.
         11    1    4    4    0    0  0.72106408241E-01  0.14075600520E-01  0.45034057385E-01  0.86172989300E-01  0.51100000000E-03 0.  1.
</event>
<event>
 8    1  0.1095698E+005  0.1043930E+01  0.7957747E-01            NaN
         13   -1    0    0    0    0  0.00000000000E+00  0.00000000000E+00  0.74505805969E-08  0.10566000000E+00  0.10566000000E+00 0.  1.
     999900   -1    0    0    0    0 -0.00000000000E+00 -0.00000000000E+00 -0.74505805969E-08  0.93827000000E+00  0.93827000000E+00 0. -1.
     999902    2    1    2    0    0  0.68314550637E-02  0.19524604762E-01 -0.11440348134E-01  0.10202918839E+01  0.10200180232E+01 0.  0.
     999903    2    3    3    0    0 -0.29852860330E-01  0.11326341386E+00 -0.59970717150E-01  0.13322486269E+00  0.20798628201E-01 0.  0.
         14    1    1    2    0    0 -0.68314550637E-02 -0.19524604762E-01  0.11440348134E-01  0.23638116143E-01  0.00000000000E+00 0.  1.
     999901    1    3    3    0    0  0.36684315394E-01 -0.93738809093E-01  0.48530369017E-01  0.88706702117E+00  0.88000000000E+00 0.  1.
        -11    1    4    4    0    0 -0.91568279508E-02  0.72944214606E-01 -0.40011539337E-01  0.83701196788E-01  0.51100000000E-03 0.  1.
         11    1    4    4    0    0 -0.20696032379E-01  0.40319199249E-01 -0.19959177814E-01  0.49523665901E-01  0.51100000000E-03 0. -1.
</event>
<event>
 8    1  0.1095698E+005  0.1043930E+01  0.7957747E-01            NaN
         13   -1    0    0    0    0  0.00000000000E+00  0.00000000000E+00  0.74505805969E-08  0.10566000000E+00  0.10566000000E+00 0. -1.
     999900   -1    0    0    0    0 -0.00000000000E+00 -0.00000000000E+00 -0.74505805969E-08  0.93827000000E+00  0.93827000000E+00 0.  1.
     999902    2    1    2    0    0  0.19992925209E-01  0.99250411267E-02  0.10193363924E-01  0.10193917000E+01  0.10190963202E+01 0.  0.
     999903    2    3    3    0    0  0.71600054337E-01 -0.44797671311E-01  0.99064460911E-01  0.13172287496E+00  0.20093512288E-01 0.  0.
         14    1    1    2    0    0 -0.19992925209E-01 -0.99250411267E-02 -0.10193363924E-01  0.24538300020E-01  0.00000000000E+00 0.  1.
     999901    1    3    3    0    0 -0.51607129128E-01  0.54722712438E-01 -0.88871096987E-01  0.88766882502E+00  0.88000000000E+00 0.  1.
        -11    1    4    4    0    0  0.63126616239E-01 -0.37574982308E-01  0.73913163495E-01  0.10421259920E+00  0.51100000000E-03 0. -1.
         11    1    4    4    0    0  0.84734380979E-02 -0.72226890029E-02  0.25151297417E-01  0.27510275760E-01  0.51100000000E-03 0.  1.
</event>
<event>
 8    1  0.1095698E+005  0.1043930E+01  0.7957747E-01            NaN
         13   -1    0    0    0    0  0.00000000000E+00  0.00000000000E+00  0.74505805969E-08  0.10566000000E+00  0.10566000000E+00 0. -1.
     999900   -1    0    0    0    0 -0.00000000000E+00 -0.00000000000E+00 -0.74505805969E-08  0.93827000000E+00  0.93827000000E+00 0. -1.
     999902    2    1    2    0    0 -0.15390297200E-01  0.27041347171E-01  0.38165554063E-02  0.10125825631E+01  0.10120972213E+01 0.  0.
     999903    2    3    3    0    0  0.61212787433E-02  0.92747669262E-01 -0.82232171606E-01  0.12568659847E+00  0.19884435655E-01 0.  0.
         14    1    1    2    0    0  0.15390297200E-01 -0.27041347171E-01 -0.38165554063E-02  0.31347436895E-01  0.00000000000E+00 0.  1.
     999901    1    3    3    0    0 -0.21511575943E-01 -0.65706322091E-01  0.86048727012E-01  0.88689596463E+00  0.88000000000E+00 0.  1.
        -11    1    4    4    0    0  0.39617869895E-02  0.68468054918E-01 -0.48222084429E-01  0.83840329485E-01  0.51100000000E-03 0. -1.
         11    1    4    4    0    0  0.21594917538E-02  0.24279614344E-01 -0.34010087177E-01  0.41846268987E-01  0.51100000000E-03 0.  1.
</event>
<event>
 8    1  0.1095698E+005  0.1043930E+01  0.7957747E-01            NaN
         13   -1    0    0    0    0  0.00000000000E+00  0.00000000000E+00  0.74505805969E-08  0.10566000000E+00  0.10566000000E+00 0. -1.
     999900   -1    0    0    0    0 -0.00000000000E+00 -0.00000000000E+00 -0.74505805969E-08  0.93827000000E+00  0.93827000000E+00 0.  1.
     999902    2    1    2    0    0 -0.13129571558E-01  0.20984153674E-01 -0.29243764513E-02  0.10190046649E+01  0.10186997765E+01 0.  0.
     999903    2    3    3    0    0 -0.89649986072E-01 -0.85079097539E-01 -0.30406754953E-01  0.12891474342E+00  0.20466252338E-01 0.  0.
         14    1    1    2    0    0  0.13129571558E-01 -0.20984153674E-01  0.29243764513E-02  0.24925335149E-01  0.00000000000E+00 0.  1.
     999901    1    3    3    0    0  0.76520414514E-01  0.10606325121E+00  0.27482378502E-01  0.89008992143E+00  0.88000000000E+00 0. -1.
        -11    1    4    4    0    0 -0.49385537866E-01 -0.53872728538E-01 -0.26795631614E-01  0.77842592615E-01  0.51100000000E-03 0.  1.
         11    1    4    4    0    0 -0.40264448206E-01 -0.31206369001E-01 -0.36111233389E-02  0.51072150810E-01  0.51100000000E-03 0. -1.
</event>
<event>
 8    1  0.1095698E+005  0.1043930E+01  0.7957747E-01            NaN
         13   -1    0    0    0    0  0.00000000000E+00  0.00000000000E+00  0.74505805969E-08  0.10566000000E+00  0.10566000000E+00 0. -1.
     999900   -1    0    0    0    0 -0.00000000000E+00 -0.00000000000E+00 -0.74505805969E-08  0.93827000000E+00  0.93827000000E+00 0.  1.
     999902    2    1    2    0    0  0.20271532088E-01  0.24356093005E-02  0.42865031641E-02  0.10230675621E+01  0.10228548261E+01 0.  0.
     999903    2    3    3    0    0  0.47620789689E-01  0.64764949702E-02  0.12426950608E+00  0.13449554384E+00  0.18342752568E-01 0.  0.
         14    1    1    2    0    0 -0.20271532088E-01 -0.24356093005E-02 -0.42865031641E-02  0.20862437903E-01  0.00000000000E+00 0. -1.
     999901    1    3    3    0    0 -0.27349257601E-01 -0.40408856697E-02 -0.11998300292E+00  0.88857201826E+00  0.88000000000E+00 0.  1.
        -11    1    4    4    0    0  0.34900305131E-01  0.60478697453E-02  0.66588402673E-01  0.75424694353E-01  0.51100000000E-03 0.  1.
         11    1    4    4    0    0  0.12720484558E-01  0.42862522495E-03  0.57681103410E-01  0.59070849482E-01  0.51100000000E-03 0. -1.
</event>
<event>
 8    1  0.1095698E+005  0.1043930E+01  0.7957747E-01            NaN
         13   -1    0    0    0    0  0.00000000000E+00  0.00000000000E+00  0.74505805969E-08  0.10566000000E+00  0.10566000000E+00 0. -1.
     999900   -1    0    0    0    0 -0.00000000000E+00 -0.00000000000E+00 -0.74505805969E-08  0.93827000000E+00  0.93827000000E+00 0. -1.
     999902    2    1    2    0    0 -0.11043658548E-01  0.12640412494E-02 -0.21662874857E-01  0.10195816871E+01  0.10192909184E+01 0.  0.
     999903    2    3    3    0    0 -0.48726197760E-01  0.92658028443E-01 -0.78321832207E-01  0.13223560348E+00  0.19803859316E-01 0.  0.
         14    1    1    2    0    0  0.11043658548E-01 -0.12640412494E-02  0.21662874857E-01  0.24348312908E-01  0.00000000000E+00 0.  1.
     999901    1    3    3    0    0  0.37682539212E-01 -0.91393987194E-01  0.56658957351E-01  0.88734608361E+00  0.88000000000E+00 0.  1.
        -11    1    4    4    0    0 -0.13330329113E-01  0.35915889004E-01 -0.18675246965E-01  0.42622467402E-01  0.51100000000E-03 0. -1.
         11    1    4    4    0    0 -0.35395868647E-01  0.56742139439E-01 -0.59646585242E-01  0.89613136077E-01  0.51100000000E-03 0.  1.
</event>
<event>
 8    1  0.1095698E+005  0.1043930E+01  0.7957747E-01            NaN
         13   -1    0    0    0    0  0.00000000000E+00  0.00000000000E+00  0.74505805969E-08  0.10566000000E+00  0.10566000000E+00 0. -1.
     999900   -1    0    0    0    0 -0.00000000000E+00 -0.00000000000E+00 -0.74505805969E-08  0.93827000000E+00  0.93827000000E+00 0. -1.
     999902    2    1    2    0    0  0.91384821513E-02 -0.21651102462E-01 -0.46197469609E-02  0.10199795479E+01  0.10196983152E+01 0.  0.
     999903    2    3    3    0    0 -0.45289628798E-01  0.19158490708E-01  0.11755651336E+00  0.12893808941E+00  0.19679909175E-01 0.  0.
         14    1    1    2    0    0 -0.91384821513E-02  0.21651102462E-01  0.46197469609E-02  0.23950452101E-01  0.00000000000E+00 0.  1.
     999901    1    3    3    0    0  0.54428110949E-01 -0.40809593170E-01 -0.12217626032E+00  0.89104145849E+00  0.88000000000E+00 0. -1.
        -11    1    4    4    0    0 -0.41720564400E-01  0.16709648127E-01  0.85566140399E-01  0.96652177100E-01  0.51100000000E-03 0. -1.
         11    1    4    4    0    0 -0.35690643976E-02  0.24488425802E-02  0.31990372961E-01  0.32285912313E-01  0.51100000000E-03 0.  1.
</event>
<event>
 8    1  0.1095698E+005  0.1043930E+01  0.7957747E-01            NaN
         13   -1    0    0    0    0  0.00000000000E+00  0.00000000000E+00  0.74505805969E-08  0.10566000000E+00  0.10566000000E+00 0.  1.
     999900   -1    0    0    0    0 -0.00000000000E+00 -0.00000000000E+00 -0.74505805969E-08  0.93827000000E+00  0.93827000000E+00 0. -1.
     999902    2    1    2    0    0  0.12663851469E-01  0.19310773687E-01  0.37859328879E-02  0.10205288803E+01  0.10202605467E+01 0.  0.
     999903    2    3    3    0    0  0.36789009268E-01  0.82595573961E-01  0.95664759569E-01  0.13315708227E+00  0.20089855507E-01 0.  0.
         14    1    1    2    0    0 -0.12663851469E-01 -0.19310773687E-01 -0.37859328879E-02  0.23401119679E-01  0.00000000000E+00 0.  1.
     999901    1    3    3    0    0 -0.24125157799E-01 -0.63284800274E-01 -0.91878826681E-01  0.88737179805E+00  0.88000000000E+00 0. -1.
        -11    1    4    4    0    0  0.45837200291E-02  0.29986443352E-01  0.24640158648E-01  0.39084470233E-01  0.51100000000E-03 0.  1.
         11    1    4    4    0    0  0.32205289238E-01  0.52609130609E-01  0.71024600921E-01  0.94072612037E-01  0.51100000000E-03 0. -1.
</event>
<event>
 8    1  0.1095698E+005  0.1043930E+01  0.7957747E-01            NaN
         13   -1    0    0    0    0  0.00000000000E+00  0.00000000000E+00  0.74505805969E-08  0.10566000000E+00  0.10566000000E+00 0.  1.
     999900   -1    0    0    0    0 -0.00000000000E+00 -0.00000000000E+00 -0.74505805969E-08  0.93827000000E+00  0.93827000000E+00 0.  1.
     999902    2    1    2    0    0 -0.15644712733E-01  0.11456254094E-01 -0.14446144158E-01  0.10197495559E+01  0.10194628306E+01 0.  0.
     999903    2    3    3    0    0  0.54856369908E-01 -0.18828569476E-01 -0.11540127824E+00  0.13066040838E+00  0.19772479641E-01 0.  0.
         14    1    1    2    0    0  0.15644712733E-01 -0.11456254094E-01  0.14446144158E-01  0.24180444070E-01  0.00000000000E+00 0.  1.
     999901    1    3    3    0    0 -0.70501082641E-01  0.30284823570E-01  0.10095513408E+00  0.88908914755E+00  0.88000000000E+00 0. -1.
        -11    1    4    4    0    0  0.40653459157E-01 -0.13848666281E-01 -0.63828427314E-01  0.76933858304E-01  0.51100000000E-03 0. -1.
         11    1    4    4    0    0  0.14202910751E-01 -0.49799031945E-02 -0.51572850925E-01  0.53726550077E-01  0.51100000000E-03 0.  1.
</event>
<event>
 8    1  0.1095698E+005  0.1043930E+01  0.7957747E-01            NaN
         13   -1    0    0    0    0  0.00000000000E+00  0.00000000000E+00  0.74505805969E-08  0.10566000000E+00  0.10566000000E+00 0.  1.
     999900   -1    0    0    0    0 -0.00000000000E+00 -0.00000000000E+00 -0.74505805969E-08  0.93827000000E+00  0.93827000000E+00 0. -1.
     999902    2    1    2    0    0  0.18951379096E-01 -0.13233981417E-01  0.44110556250E-02  0.10203980973E+01  0.10201267208E+01 0.  0.
     999903    2    3    3    0    0 -0.55447098981E-01  0.11385668045E+00  0.15224476640E-02  0.12815625006E+00  0.19595461569E-01 0.  0.
         14    1    1    2    0    0 -0.18951379096E-01  0.13233981417E-01 -0.44110556250E-02  0.23531902717E-01  0.00000000000E+00 0.  1.
     999901    1    3    3    0    0  0.74398478076E-01 -0.12709066187E+00  0.28886079610E-02  0.89224184722E+00  0.88000000000E+00 0. -1.
        -11    1    4    4    0    0 -0.18033058334E-01  0.59284313780E-01  0.15650552073E-02  0.61988156708E-01  0.51100000000E-03 0.  1.
         11    1    4    4    0    0 -0.37414040647E-01  0.54572366673E-01 -0.42607543348E-04  0.66168093355E-01  0.51100000000E-03 0. -1.
</event>
<event>
 8    1  0.1095698E+005  0.1043930E+01  0.7957747E-01            NaN
         13   -1    0    0    0    0  0.00000000000E+00  0.00000000000E+00  0.74505805969E-08  0.10566000000E+00  0.10566000000E+00 0.  1.
     999900   -1    0    0    0    0 -0.00000000000E+00 -0.00000000000E+00 -0.74505805969E-08  0.93827000000E+00  0.93827000000E+00 0.  1.
     999902    2    1    2    0    0 -0.72624466073E-02  0.22567493791E-01 -0.34678596426E-02  0.10199704308E+01  0.10196889814E+01 0.  0.
     999903    2    3    3    0    0  0.89883665290E-01 -0.28032083788E-01 -0.86366484947E-01  0.12931344496E+00  0.19948090595E-01 0.  0.
         14    1    1    2    0    0  0.72624466073E-02 -0.22567493791E-01  0.34678596426E-02  0.23959569220E-01  0.00000000000E+00 0.  1.
     999901    1    3    3    0    0 -0.97146111897E-01  0.50599577579E-01  0.82898625305E-01  0.89065698582E+00  0.88000000000E+00 0.  1.
        -11    1    4    4    0    0  0.64226661867E-01 -0.28635573522E-01 -0.59030504061E-01  0.91814605026E-01  0.51100000000E-03 0.  1.
         11    1    4    4    0    0  0.25657003423E-01  0.60348973332E-03 -0.27335980886E-01  0.37498839936E-01  0.51100000000E-03 0. -1.
</event>
<event>
 8    1  0.1095698E+005  0.1043930E+01  0.7957747E-01            NaN
         13   -1    0    0    0    0  0.00000000000E+00  0.00000000000E+00  0.74505805969E-08  0.10566000000E+00  0.10566000000E+00 0.  1.
     999900   -1    0    0    0    0 -0.00000000000E+00 -0.00000000000E+00 -0.74505805969E-08  0.93827000000E+00  0.93827000000E+00 0. -1.
     999902    2    1    2    0    0 -0.20060544689E-01 -0.14427213973E-01 -0.89176103531E-02  0.10176603649E+01  0.10173212494E+01 0.  0.
     999903    2    3    3    0    0  0.69407799755E-01 -0.73183373415E-01  0.74863992538E-01  0.12722438854E+00  0.20203436583E-01 0.  0.
         14    1    1    2    0    0  0.20060544689E-01  0.14427213973E-01  0.89176103531E-02  0.26269635145E-01  0.00000000000E+00 0. -1.
     999901    1    3    3    0    0 -0.89468344445E-01  0.58756159443E-01 -0.83781602891E-01  0.89043597631E+00  0.88000000000E+00 0. -1.
        -11    1    4    4    0    0  0.50208532507E-01 -0.42413097974E-01  0.55955527521E-01  0.86319463607E-01  0.51100000000E-03 0. -1.
         11    1    4    4    0    0  0.19199267248E-01 -0.30770275441E-01  0.18908465017E-01  0.40904924934E-01  0.51100000000E-03 0.  1.
</event>
<event>
 8    1  0.1095698E+005  0.1043930E+01  0.7957747E-01            NaN
         13   -1    0    0    0    0  0.00000000000E+00  0.00000000000E+00  0.74505805969E-08  0.10566000000E+00  0.10566000000E+00 0. -1.
     999900   -1    0    0    0    0 -0.00000000000E+00 -0.00000000000E+00 -0.74505805969E-08  0.93827000000E+00  0.93827000000E+00 0. -1.
     999902    2    1    2    0    0  0.14973995093E-01  0.16742258761E-01  0.46297853619E-02  0.10209962112E+01  0.10207386074E+01 0.  0.
     999903    2    3    3    0    0 -0.55849590088E-01 -0.64684609322E-01  0.95479466648E-01  0.12976112454E+00  0.20453495866E-01 0.  0.
         14    1    1    2    0    0 -0.14973995093E-01 -0.16742258761E-01 -0.46297853619E-02  0.22933788827E-01  0.00000000000E+00 0. -1.
     999901    1    3    3    0    0  0.70823585181E-01  0.81426868083E-01 -0.90849681287E-01  0.89123508664E+00  0.88000000000E+00 0.  1.
        -11    1    4    4    0    0 -0.32119672631E-01 -0.45676701768E-01  0.49422411291E-01  0.74571243205E-01  0.51100000000E-03 0. -1.
         11    1    4    4    0    0 -0.23729917457E-01 -0.19007907554E-01  0.46057055357E-01  0.55189881330E-01  0.51100000000E-03 0.  1.
</event>
<event>
 8    1  0.1095698E+005  0.1043930E+01  0.7957747E-01            NaN
         13   -1    0    0    0    0  0.00000000000E+00  0.00000000000E+00  0.74505805969E-08  0.10566000000E+00  0.10566000000E+00 0.  1.
     999900   -1    0    0    0    0 -0.00000000000E+00 -0.00000000000E+00 -0.74505805969E-08  0.93827000000E+00  0.93827000000E+00 0.  1.
     999902    2    1    2    0    0  0.21785533627E-01 -0.15331244952E-02 -0.57087931906E-02  0.10213567799E+01  0.10211073017E+01 0.  0.
     999903    2    3    3    0    0 -0.63643115829E-01 -0.38275087072E-01 -0.10590684747E+00  0.13080207858E+00  0.19429228935E-01 0.  0.
         14    1    1    2    0    0 -0.21785533627E-01  0.15331244952E-02  0.57087931906E-02  0.22573220103E-01  0.00000000000E+00 0.  1.
     999901    1    3    3    0    0  0.85428649456E-01  0.36741962577E-01  0.10019805428E+00  0.89055470132E+00  0.88000000000E+00 0. -1.
        -11    1    4    4    0    0 -0.34831635963E-01 -0.10340474782E-01 -0.56057162236E-01  0.66804452259E-01  0.51100000000E-03 0.  1.
         11    1    4    4    0    0 -0.28811479865E-01 -0.27934612290E-01 -0.49849685231E-01  0.63997626319E-01  0.51100000000E-03 0. -1.
</event>
<event>
 8    1  0.1095698E+005  0.1043930E+01  0.7957747E-01            NaN
         13   -1    0    0    0    0  0.00000000000E+00  0.00000000000E+00  0.74505805969E-08  0.10566000000E+00  0.10566000000E+00 0. -1.
     999900   -1    0    0    0    0 -0.00000000000E+00 -0.00000000000E+00 -0.74505805969E-08  0.93827000000E+00  0.93827000000E+00 0.  1.
     999902    2    1    2    0    0 -0.10359027527E-01 -0.57799559694E-02  0.21526757124E-01  0.10193511755E+01  0.10190548073E+01 0.  0.
     999903    2    3    3    0    0 -0.49224970843E-01  0.68280538535E-01 -0.94070286772E-01  0.12785905833E+00  0.20332000530E-01 0.  0.
         14    1    1    2    0    0  0.10359027527E-01  0.57799559694E-02 -0.21526757124E-01  0.24578824516E-01  0.00000000000E+00 0.  1.
     999901    1    3    3    0    0  0.38865943316E-01 -0.74060494505E-01  0.11559704390E+00  0.89149211716E+00  0.88000000000E+00 0. -1.
        -11    1    4    4    0    0 -0.41345813736E-01  0.44930476418E-01 -0.58339751634E-01  0.84451238986E-01  0.51100000000E-03 0. -1.
         11    1    4    4    0    0 -0.78791571077E-02  0.23350062117E-01 -0.35730535138E-01  0.43407819340E-01  0.51100000000E-03 0.  1.
</event>
<event>
 8    1  0.1095698E+005  0.1043930E+01  0.7957747E-01            NaN
         13   -1    0    0    0    0  0.00000000000E+00  0.00000000000E+00  0.74505805969E-08  0.10566000000E+00  0.10566000000E+00 0. -1.
     999900   -1    0    0    0    0 -0.00000000000E+00 -0.00000000000E+00 -0.74505805969E-08  0.93827000000E+00  0.93827000000E+00 0.  1.
     999902    2    1    2    0    0 -0.12504579137E-02 -0.10348755102E-01  0.21854697954E-01  0.10197166111E+01  0.10194290946E+01 0.  0.
     999903    2    3    3    0    0 -0.65414633302E-01 -0.36267992306E-01 -0.10228803230E+00  0.12831307417E+00  0.20173297550E-01 0.  0.
         14    1    1    2    0    0  0.12504579137E-02  0.10348755102E-01 -0.21854697954E-01  0.24213388855E-01  0.00000000000E+00 0.  1.
     999901    1    3    3    0    0  0.64164175389E-01  0.25919237204E-01  0.12414273026E+00  0.89140353698E+00  0.88000000000E+00 0. -1.
        -11    1    4    4    0    0 -0.57435456583E-01 -0.26038909426E-01 -0.92933201743E-01  0.11231071892E+00  0.51100000000E-03 0. -1.
         11    1    4    4    0    0 -0.79791767196E-02 -0.10229082881E-01 -0.93548305590E-02  0.16002355248E-01  0.51100000000E-03 0.  1.
</event>
<event>
 8    1  0.1095698E+005  0.1043930E+01  0.7957747E-01            NaN
         13   -1    0    0    0    0  0.00000000000E+00  0.00000000000E+00  0.74505805969E-08  0.10566000000E+00  0.10566000000E+00 0. -1.
     999900   -1    0    0    0    0 -0.00000000000E+00 -0.00000000000E+00 -0.74505805969E-08  0.93827000000E+00  0.93827000000E+00 0. -1.
     999902    2    1    2    0    0 -0.96668892100E-02 -0.10517872025E-01 -0.20580071544E-01  0.10188777801E+01  0.10185697409E+01 0.  0.
     999903    2    3    3    0    0 -0.14880238038E-01 -0.12333887078E+00 -0.36294795153E-01  0.13152063139E+00  0.23376607894E-01 0.  0.
         14    1    1    2    0    0  0.96668892100E-02  0.10517872025E-01  0.20580071544E-01  0.25052219936E-01  0.00000000000E+00 0. -1.
     999901    1    3    3    0    0  0.52133488280E-02  0.11282099875E+00  0.15714723609E-01  0.88735714867E+00  0.88000000000E+00 0. -1.
        -11    1    4    4    0    0 -0.86247586197E-02 -0.67198516959E-01 -0.31824959510E-01  0.74853966572E-01  0.51100000000E-03 0. -1.
         11    1    4    4    0    0 -0.62554794183E-02 -0.56140353821E-01 -0.44698356426E-02  0.56666664818E-01  0.51100000000E-03 0.  1.
</event>
<event>
 8    1  0.1095698E+005  0.1043930E+01  0.7957747E-01            NaN
         13   -1    0    0    0    0  0.00000000000E+00  0.00000000000E+00  0.74505805969E-08  0.10566000000E+00  0.10566000000E+00 0.  1.
     999900   -1    0    0    0    0 -0.00000000000E+00 -0.00000000000E+00 -0.74505805969E-08  0.93827000000E+00  0.93827000000E+00 0. -1.
     999902    2    1    2    0    0 -0.10531721242E-02 -0.38839429653E-03  0.23615583074E-01  0.10202877542E+01  0.10200137968E+01 0.  0.
     999903    2    3    3    0    0  0.19640906340E-01 -0.86067332645E-01  0.97238280748E-01  0.13282540179E+00  0.19848253527E-01 0.  0.
         14    1    1    2    0    0  0.10531721242E-02  0.38839429653E-03 -0.23615583074E-01  0.23642245782E-01  0.00000000000E+00 0. -1.
     999901    1    3    3    0    0 -0.20694078464E-01  0.85678938349E-01 -0.73622697674E-01  0.88746235243E+00  0.88000000000E+00 0. -1.
        -11    1    4    4    0    0  0.66506632118E-03 -0.38207770639E-01  0.32942899728E-01  0.50455642042E-01  0.51100000000E-03 0. -1.
         11    1    4    4    0    0  0.18975840019E-01 -0.47859562006E-01  0.64295381020E-01  0.82369759751E-01  0.51100000000E-03 0.  1.
</event>
<event>
 8    1  0.1095698E+005  0.1043930E+01  0.7957747E-01            NaN
         13   -1    0    0    0    0  0.00000000000E+00  0.00000000000E+00  0.74505805969E-08  0.10566000000E+00  0.10566000000E+00 0. -1.
     999900   -1    0    0    0    0 -0.00000000000E+00 -0.00000000000E+00 -0.74505805969E-08  0.93827000000E+00  0.93827000000E+00 0.  1.
     999902    2    1    2    0    0  0.10609409214E-01 -0.22916229074E-01 -0.86134781522E-02  0.10172484497E+01  0.10168984725E+01 0.  0.
     999903    2    3    3    0    0  0.12315484269E-01 -0.30499771583E-01  0.12168222658E+00  0.12762077959E+00  0.19964766388E-01 0.  0.
         14    1    1    2    0    0 -0.10609409214E-01  0.22916229074E-01  0.86134781522E-02  0.26681550269E-01  0.00000000000E+00 0. -1.
     999901    1    3    3    0    0 -0.17060750543E-02  0.75835425089E-02 -0.13029570474E+00  0.88962767014E+00  0.88000000000E+00 0.  1.
        -11    1    4    4    0    0  0.15007646275E-01 -0.25515513915E-01  0.11543916325E+00  0.11917521735E+00  0.51100000000E-03 0.  1.
         11    1    4    4    0    0 -0.26921620064E-02 -0.49842576686E-02  0.62430633360E-02  0.84455622425E-02  0.51100000000E-03 0. -1.
</event>
<event>
 8    1  0.1095698E+005  0.1043930E+01  0.7957747E-01            NaN
         13   -1    0    0    0    0  0.00000000000E+00  0.00000000000E+00  0.74505805969E-08  0.10566000000E+00  0.10566000000E+00 0. -1.
     999900   -1    0    0    0    0 -0.00000000000E+00 -0.00000000000E+00 -0.74505805969E-08  0.93827000000E+00  0.93827000000E+00 0. -1.
     999902    2    1    2    0    0 -0.12258023293E-01 -0.19005968370E-01 -0.61119606285E-02  0.10205026222E+01  0.10202336790E+01 0.  0.
     999903    2    3    3    0    0 -0.85313766180E-01 -0.12870359447E-01 -0.98794114654E-01  0.13260354631E+00  0.19476615481E-01 0.  0.
         14    1    1    2    0    0  0.12258023293E-01  0.19005968370E-01  0.61119606285E-02  0.23427377819E-01  0.00000000000E+00 0. -1.
     999901    1    3    3    0    0  0.73055742887E-01 -0.61356089225E-02  0.92682154025E-01  0.88789907588E+00  0.88000000000E+00 0.  1.
        -11    1    4    4    0    0 -0.29226690284E-01 -0.76021757291E-02 -0.48211200884E-01  0.56890891296E-01  0.51100000000E-03 0.  1.
         11    1    4    4    0    0 -0.56087075896E-01 -0.52681837182E-02 -0.50582913770E-01  0.75712655010E-01  0.51100000000E-03 0. -1.
</event>
<event>
 8    1  0.1095698E+005  0.1043930E+01  0.7957747E-01            NaN
         13   -1    0    0    0    0  0.00000000000E+00  0.00000000000E+00  0.74505805969E-08  0.10566000000E+00  0.10566000000E+00 0.  1.
     999900   -1    0    0    0    0 -0.00000000000E+00 -0.00000000000E+00 -0.74505805969E-08  0.93827000000E+00  0.93827000000E+00 0. -1.
     999902    2    1    2    0    0 -0.18501992919E-01  0.13071290360E-01 -0.73697329209E-02  0.10201078394E+01  0.10198296469E+01 0.  0.
     999903    2    3    3    0    0 -0.10689600051E+00  0.39450231526E-02  0.74510233704E-01  0.13185049025E+00  0.19760028325E-01 0.  0.
         14    1    1    2    0    0  0.18501992919E-01 -0.13071290360E-01  0.73697329209E-02  0.23822160628E-01  0.00000000000E+00 0. -1.
     999901    1    3    3    0    0  0.88394007595E-01  0.91262672078E-02 -0.81879966625E-01  0.88825734912E+00  0.88000000000E+00 0. -1.
        -11    1    4    4    0    0 -0.41188532652E-01  0.26697039072E-02  0.40589538314E-01  0.57891228028E-01  0.51100000000E-03 0.  1.
         11    1    4    4    0    0 -0.65707467862E-01  0.12753192453E-02  0.33920695390E-01  0.73959262224E-01  0.51100000000E-03 0. -1.
</event>
<event>
 8    1  0.1095698E+005  0.1043930E+01  0.7957747E-01            NaN
         13   -1    0    0    0    0  0.00000000000E+00  0.00000000000E+00  0.74505805969E-08  0.10566000000E+00  0.10566000000E+00 0. -1.
     999900   -1    0    0    0    0 -0.00000000000E+00 -0.00000000000E+00 -0.74505805969E-08  0.93827000000E+00  0.93827000000E+00 0. -1.
     999902    2    1    2    0    0 -0.13849768403E-01 -0.24294193183E-02  0.19018260861E-01  0.10202780992E+01  0.10200039154E+01 0.  0.
     999903    2    3    3    0    0  0.80760941199E-01 -0.34209461850E-01  0.95620878360E-01  0.13132977764E+00  0.20286478605E-01 0.  0.
         14    1    1    2    0    0  0.13849768403E-01  0.24294193183E-02 -0.19018260861E-01  0.23651900753E-01  0.00000000000E+00 0.  1.
     999901    1    3    3    0    0 -0.94610709602E-01  0.31780042531E-01 -0.76602617499E-01  0.88894832160E+00  0.88000000000E+00 0. -1.
        -11    1    4    4    0    0  0.13416545366E-01 -0.10326785694E-01  0.29276799805E-01  0.33823635525E-01  0.51100000000E-03 0.  1.
         11    1    4    4    0    0  0.67344395833E-01 -0.23882676155E-01  0.66344078555E-01  0.97506142118E-01  0.51100000000E-03 0. -1.
</event>
<event>
 8    1  0.1095698E+005  0.1043930E+01  0.7957747E-01            NaN
         13   -1    0    0    0    0  0.00000000000E+00  0.00000000000E+00  0.74505805969E-08  0.10566000000E+00  0.10566000000E+00 0. -1.
     999900   -1    0    0    0    0 -0.00000000000E+00 -0.00000000000E+00 -0.74505805969E-08  0.93827000000E+00  0.93827000000E+00 0.  1.
     999902    2    1    2    0    0  0.28071720833E-01 -0.76773777077E-02 -0.22376751728E-02  0.10147414607E+01  0.10143215768E+01 0.  0.
     999903    2    3    3    0    0  0.17610018780E-01  0.12330413344E-01  0.12231476891E+00  0.12568405517E+00  0.19324263932E-01 0.  0.
         14    1    1    2    0    0 -0.28071720833E-01  0.76773777077E-02  0.22376751728E-02  0.29188539346E-01  0.00000000000E+00 0. -1.
     999901    1    3    3    0    0  0.10461702053E-01 -0.20007791052E-01 -0.12455244408E+00  0.88905740548E+00  0.88000000000E+00 0.  1.
        -11    1    4    4    0    0  0.20731276856E-01  0.58053149833E-02  0.86271543620E-01  0.88918658794E-01  0.51100000000E-03 0. -1.
         11    1    4    4    0    0 -0.31212580760E-02  0.65250983610E-02  0.36043225290E-01  0.36765396379E-01  0.51100000000E-03 0.  1.
</event>
<event>
 8    1  0.1095698E+005  0.1043930E+01  0.7957747E-01            NaN
         13   -1    0    0    0    0  0.00000000000E+00  0.00000000000E+00  0.74505805969E-08  0.10566000000E+00  0.10566000000E+00 0. -1.
     999900   -1    0    0    0    0 -0.00000000000E+00 -0.00000000000E+00 -0.74505805969E-08  0.93827000000E+00  0.93827000000E+00 0. -1.
     999902    2    1    2    0    0  0.18426785727E-01  0.84890594234E-02 -0.11293199492E-01  0.10207104626E+01  0.10204463247E+01 0.  0.
     999903    2    3    3    0    0  0.74260093560E-01  0.19645424164E-01 -0.10693367811E+00  0.13369923162E+00  0.23241532561E-01 0.  0.
         14    1    1    2    0    0 -0.18426785727E-01 -0.84890594234E-02  0.11293199492E-01  0.23219537396E-01  0.00000000000E+00 0.  1.
     999901    1    3    3    0    0 -0.55833307833E-01 -0.11156364741E-01  0.95640478619E-01  0.88701123098E+00  0.88000000000E+00 0.  1.
        -11    1    4    4    0    0  0.61730584979E-01  0.68733124972E-02 -0.78519068103E-01  0.10011699518E+00  0.51100000000E-03 0.  1.
         11    1    4    4    0    0  0.12529508581E-01  0.12772111667E-01 -0.28414610009E-01  0.33582236445E-01  0.51100000000E-03 0. -1.
</event>
<event>
 8    1  0.1095698E+005  0.1043930E+01  0.7957747E-01            NaN
         13   -1    0    0    0    0  0.00000000000E+00  0.00000000000E+00  0.74505805969E-08  0.10566000000E+00  0.10566000000E+00 0.  1.
     999900   -1    0    0    0    0 -0.00000000000E+00 -0.00000000000E+00 -0.74505805969E-08  0.93827000000E+00  0.93827000000E+00 0. -1.
     999902    2    1    2    0    0  0.93018215013E-02 -0.43088004092E-02 -0.21476103905E-01  0.10201326749E+01  0.10198550689E+01 0.  0.
     999903    2    3    3    0    0  0.98166529347E-01 -0.25197193547E-01 -0.83800897557E-01  0.13321799963E+00  0.21280952660E-01 0.  0.
         14    1    1    2    0    0 -0.93018215013E-02  0.43088004092E-02  0.21476103905E-01  0.23797325126E-01  0.00000000000E+00 0.  1.
     999901    1    3    3    0    0 -0.88864707846E-01  0.20888393138E-01  0.62324793652E-01  0.88691467525E+00  0.88000000000E+00 0.  1.
        -11    1    4    4    0    0  0.33821808730E-01 -0.14842432196E-01 -0.19965343007E-01  0.41989148380E-01  0.51100000000E-03 0. -1.
         11    1    4    4    0    0  0.64344720617E-01 -0.10354761351E-01 -0.63835554549E-01  0.91228851245E-01  0.51100000000E-03 0.  1.
</event>
<event>
 8    1  0.1095698E+005  0.1043930E+01  0.7957747E-01            NaN
         13   -1    0    0    0    0  0.00000000000E+00  0.00000000000E+00  0.74505805969E-08  0.10566000000E+00  0.10566000000E+00 0.  1.
     999900   -1    0    0    0    0 -0.00000000000E+00 -0.00000000000E+00 -0.74505805969E-08  0.93827000000E+00  0.93827000000E+00 0. -1.
     999902    2    1    2    0    0  0.10462188244E-01 -0.30682687548E-02 -0.24049372323E-01  0.10175246224E+01  0.10171819470E+01 0.  0.
     999903    2    3    3    0    0 -0.11238487841E-01  0.81539063332E-01 -0.98730524475E-01  0.13005259781E+00  0.19774713018E-01 0.  0.
         14    1    1    2    0    0 -0.10462188244E-01  0.30682687548E-02  0.24049372323E-01  0.26405377580E-01  0.00000000000E+00 0. -1.
     999901    1    3    3    0    0  0.21700676085E-01 -0.84607332087E-01  0.74681152152E-01  0.88747202461E+00  0.88000000000E+00 0. -1.
        -11    1    4    4    0    0 -0.99220306329E-02  0.64423727290E-01 -0.88986343909E-01  0.11030727017E+00  0.51100000000E-03 0.  1.
         11    1    4    4    0    0 -0.13164572077E-02  0.17115336042E-01 -0.97441805660E-02  0.19745327632E-01  0.51100000000E-03 0. -1.
</event>
<event>
 8    1  0.1095698E+005  0.1043930E+01  0.7957747E-01            NaN
         13   -1    0    0    0    0  0.00000000000E+00  0.00000000000E+00  0.74505805969E-08  0.10566000000E+00  0.10566000000E+00 0.  1.
     999900   -1    0    0    0    0 -0.00000000000E+00 -0.00000000000E+00 -0.74505805969E-08  0.93827000000E+00  0.93827000000E+00 0. -1.
     999902    2    1    2    0    0 -0.46337210124E-02  0.22458640454E-01 -0.45714193084E-02  0.10205471051E+01  0.10202791941E+01 0.  0.
     999903    2    3    3    0    0  0.28727819460E-01  0.43542467958E-01 -0.12047735445E+00  0.13206992135E+00  0.14367917851E-01 0.  0.
         14    1    1    2    0    0  0.46337210124E-02 -0.22458640454E-01  0.45714193084E-02  0.23382894944E-01  0.00000000000E+00 0.  1.
     999901    1    3    3    0    0 -0.33361540473E-01 -0.21083827504E-01  0.11590593514E+00  0.88847718371E+00  0.88000000000E+00 0.  1.
        -11    1    4    4    0    0  0.13882460310E-01  0.32387877592E-01 -0.72191910291E-01  0.80334490424E-01  0.51100000000E-03 0.  1.
         11    1    4    4    0    0  0.14845359150E-01  0.11154590366E-01 -0.48285444159E-01  0.51735430926E-01  0.51100000000E-03 0. -1.
</event>
<event>
 8    1  0.1095698E+005  0.1043930E+01  0.7957747E-01            NaN
         13   -1    0    0    0    0  0.00000000000E+00  0.00000000000E+00  0.74505805969E-08  0.10566000000E+00  0.10566000000E+00 0. -1.
     999900   -1    0    0    0    0 -0.00000000000E+00 -0.00000000000E+00 -0.74505805969E-08  0.93827000000E+00  0.93827000000E+00 0. -1.
     999902    2    1    2    0    0  0.23415670730E-01 -0.41032493286E-03 -0.57788178954E-02  0.10198082932E+01  0.10195229758E+01 0.  0.
     999903    2    3    3    0    0 -0.48984358318E-01 -0.10573547758E+00 -0.52341733889E-01  0.12935713950E+00  0.20350770371E-01 0.  0.
         14    1    1    2    0    0 -0.23415670730E-01  0.41032493286E-03  0.57788178954E-02  0.24121706792E-01  0.00000000000E+00 0.  1.
     999901    1    3    3    0    0  0.72400029048E-01  0.10532515265E+00  0.46562915994E-01  0.89045115370E+00  0.88000000000E+00 0.  1.
        -11    1    4    4    0    0 -0.45403556300E-01 -0.82393363039E-01 -0.46893820215E-01  0.10511631982E+00  0.51100000000E-03 0. -1.
         11    1    4    4    0    0 -0.35808020179E-02 -0.23342114543E-01 -0.54479136741E-02  0.24240819682E-01  0.51100000000E-03 0.  1.
</event>
<event>
 8    1  0.1095698E+005  0.1043930E+01  0.7957747E-01            NaN
         13   -1    0    0    0    0  0.00000000000E+00  0.00000000000E+00  0.74505805969E-08  0.10566000000E+00  0.10566000000E+00 0.  1.
     999900   -1    0    0    0    0 -0.00000000000E+00 -0.00000000000E+00 -0.74505805969E-08  0.93827000000E+00  0.93827000000E+00 0. -1.
     999902    2    1    2    0    0 -0.16383976250E-01  0.14910508998E-01  0.64871534886E-02  0.10208466485E+01  0.10205856351E+01 0.  0.
     999903    2    3    3    0    0  0.70438517668E-01 -0.59258309647E-01  0.89058674479E-01  0.12963555387E+00  0.20019922397E-01 0.  0.
         14    1    1    2    0    0  0.16383976250E-01 -0.14910508998E-01 -0.64871534886E-02  0.23083351505E-01  0.00000000000E+00 0. -1.
     999901    1    3    3    0    0 -0.86822493918E-01  0.74168818645E-01 -0.82571520991E-01  0.89121109463E+00  0.88000000000E+00 0.  1.
        -11    1    4    4    0    0  0.62066442103E-01 -0.42363264551E-01  0.74393547924E-01  0.10574285088E+00  0.51100000000E-03 0. -1.
         11    1    4    4    0    0  0.83720755650E-02 -0.16895045096E-01  0.14665126556E-01  0.23892702986E-01  0.51100000000E-03 0.  1.
</event>
<event>
 8    1  0.1095698E+005  0.1043930E+01  0.7957747E-01            NaN
         13   -1    0    0    0    0  0.00000000000E+00  0.00000000000E+00  0.74505805969E-08  0.10566000000E+00  0.10566000000E+00 0. -1.
     999900   -1    0    0    0    0 -0.00000000000E+00 -0.00000000000E+00 -0.74505805969E-08  0.93827000000E+00  0.93827000000E+00 0. -1.
     999902    2    1    2    0    0  0.11368385951E-01 -0.17367190826E-01  0.97103009310E-02  0.10210138603E+01  0.10207566573E+01 0.  0.
     999903    2    3    3    0    0  0.36282567215E-01  0.32251031559E-01 -0.11899686793E+00  0.12992002697E+00  0.19036940662E-01 0.  0.
         14    1    1    2    0    0 -0.11368385951E-01  0.17367190826E-01 -0.97103009310E-02  0.22916139738E-01  0.00000000000E+00 0.  1.
     999901    1    3    3    0    0 -0.24914181264E-01 -0.49618222385E-01  0.12870716886E+00  0.89109383330E+00  0.88000000000E+00 0.  1.
        -11    1    4    4    0    0  0.31554778585E-01  0.20014891369E-01 -0.10062139539E+00  0.10733697527E+00  0.51100000000E-03 0.  1.
         11    1    4    4    0    0  0.47277886301E-02  0.12236140190E-01 -0.18375472540E-01  0.22583051702E-01  0.51100000000E-03 0. -1.
</event>
<event>
 8    1  0.1095698E+005  0.1043930E+01  0.7957747E-01            NaN
         13   -1    0    0    0    0  0.00000000000E+00  0.00000000000E+00  0.74505805969E-08  0.10566000000E+00  0.10566000000E+00 0.  1.
     999900   -1    0    0    0    0 -0.00000000000E+00 -0.00000000000E+00 -0.74505805969E-08  0.93827000000E+00  0.93827000000E+00 0. -1.
     999902    2    1    2    0    0 -0.17358783989E-01 -0.31484960694E-03 -0.16866963562E-01  0.10197241955E+01  0.10194368612E+01 0.  0.
     999903    2    3    3    0    0  0.22019542238E-01 -0.99411111702E-01  0.75868343616E-01  0.12844951341E+00  0.19386659353E-01 0.  0.
         14    1    1    2    0    0  0.17358783989E-01  0.31484960694E-03  0.16866963562E-01  0.24205804504E-01  0.00000000000E+00 0.  1.
     999901    1    3    3    0    0 -0.39378326228E-01  0.99096262095E-01 -0.92735307179E-01  0.89127468209E+00  0.88000000000E+00 0. -1.
        -11    1    4    4    0    0  0.22794646258E-01 -0.59989759871E-01  0.48739223786E-01  0.80586228623E-01  0.51100000000E-03 0. -1.
         11    1    4    4    0    0 -0.77510402000E-03 -0.39421351831E-01  0.27129119830E-01  0.47863284782E-01  0.51100000000E-03 0.  1.
</event>
<event>
 8    1  0.1095698E+005  0.1043930E+01  0.7957747E-01            NaN
         13   -1    0    0    0    0  0.00000000000E+00  0.00000000000E+00  0.74505805969E-08  0.10566000000E+00  0.10566000000E+00 0. -1.
     999900   -1    0    0    0    0 -0.00000000000E+00 -0.00000000000E+00 -0.74505805969E-08  0.93827000000E+00  0.93827000000E+00 0. -1.
     999902    2    1    2    0    0 -0.12787583409E-01  0.20385368160E-02  0.19731247009E-01  0.10203291519E+01  0.10200561642E+01 0.  0.
     999903    2    3    3    0    0 -0.10558633469E+00  0.52819220707E-01 -0.53366362895E-01  0.13098470421E+00  0.19253049081E-01 0.  0.
         14    1    1    2    0    0  0.12787583409E-01 -0.20385368160E-02 -0.19731247009E-01  0.23600848085E-01  0.00000000000E+00 0. -1.
     999901    1    3    3    0    0  0.92798751277E-01 -0.50780683891E-01  0.73097609905E-01  0.88934444771E+00  0.88000000000E+00 0. -1.
        -11    1    4    4    0    0 -0.45703749056E-01  0.31354460110E-01 -0.31278267850E-01  0.63643742876E-01  0.51100000000E-03 0.  1.
         11    1    4    4    0    0 -0.59882585630E-01  0.21464760597E-01 -0.22088095045E-01  0.67340961331E-01  0.51100000000E-03 0. -1.
</event>
<event>
 8    1  0.1095698E+005  0.1043930E+01  0.7957747E-01            NaN
         13   -1    0    0    0    0  0.00000000000E+00  0.00000000000E+00  0.74505805969E-08  0.10566000000E+00  0.10566000000E+00 0.  1.
     999900   -1    0    0    0    0 -0.00000000000E+00 -0.00000000000E+00 -0.74505805969E-08  0.93827000000E+00  0.93827000000E+00 0.  1.
     999902    2    1    2    0    0 -0.90956683405E-04 -0.97277047170E-02  0.21596757067E-01  0.10202433703E+01  0.10199683712E+01 0.  0.
     999903    2    3    3    0    0  0.45438888630E-01 -0.10551214434E+00  0.63809380713E-01  0.13287110832E+00  0.19636424167E-01 0.  0.
         14    1    1    2    0    0  0.90956683405E-04  0.97277047170E-02 -0.21596757067E-01  0.23686629731E-01  0.00000000000E+00 0. -1.
     999901    1    3    3    0    0 -0.45529845313E-01  0.95784439627E-01 -0.42212623646E-01  0.88737226195E+00  0.88000000000E+00 0.  1.
        -11    1    4    4    0    0  0.73634495542E-02 -0.46284228229E-02  0.45106555318E-02  0.98106993375E-02  0.51100000000E-03 0. -1.
         11    1    4    4    0    0  0.38075439076E-01 -0.10088372152E+00  0.59298725182E-01  0.12306040898E+00  0.51100000000E-03 0.  1.
</event>
<event>
 8    1  0.1095698E+005  0.1043930E+01  0.7957747E-01            NaN
         13   -1    0    0    0    0  0.00000000000E+00  0.00000000000E+00  0.74505805969E-08  0.10566000000E+00  0.10566000000E+00 0.  1.
     999900   -1    0    0    0    0 -0.00000000000E+00 -0.00000000000E+00 -0.74505805969E-08  0.93827000000E+00  0.93827000000E+00 0. -1.
     999902    2    1    2    0    0  0.12111164886E-01 -0.13349716454E-01 -0.14585376583E-01  0.10207431836E+01  0.10204797981E+01 0.  0.
     999903    2    3    3    0    0 -0.11314975043E+00 -0.77304353220E-02  0.57839794040E-01  0.12890952279E+00  0.20238518674E-01 0.  0.
         14    1    1    2    0    0 -0.12111164886E-01  0.13349716454E-01  0.14585376583E-01  0.23186816392E-01  0.00000000000E+00 0. -1.
     999901    1    3    3    0    0  0.12526091532E+00 -0.56192811320E-02 -0.72425170623E-01  0.89183366082E+00  0.88000000000E+00 0. -1.
        -11    1    4    4    0    0 -0.88836307238E-01 -0.13747127060E-01  0.48724169734E-01  0.10225056882E+00  0.51100000000E-03 0.  1.
         11    1    4    4    0    0 -0.24313443196E-01  0.60166917381E-02  0.91156243059E-02  0.26658953974E-01  0.51100000000E-03 0. -1.
</event>
<event>
 8    1  0.1095698E+005  0.1043930E+01  0.7957747E-01            NaN
         13   -1    0    0    0    0  0.00000000000E+00  0.00000000000E+00  0.74505805969E-08  0.10566000000E+00  0.10566000000E+00 0.  1.
     999900   -1    0    0    0    0 -0.00000000000E+00 -0.00000000000E+00 -0.74505805969E-08  0.93827000000E+00  0.93827000000E+00 0.  1.
     999902    2    1    2    0    0  0.12210361024E-01  0.18623388363E-02  0.20059366854E-01  0.10203728478E+01  0.10201008818E+01 0.  0.
     999903    2    3    3    0    0 -0.27002708507E-01 -0.85767314996E-01  0.94526382278E-01  0.13202496691E+00  0.20252810988E-01 0.  0.
         14    1    1    2    0    0 -0.12210361024E-01 -0.18623388363E-02 -0.20059366854E-01  0.23557152223E-01  0.00000000000E+00 0. -1.
     999901    1    3    3    0    0  0.39213069531E-01  0.87629653832E-01 -0.74467015424E-01  0.88834788087E+00  0.88000000000E+00 0.  1.
        -11    1    4    4    0    0 -0.26746628508E-01 -0.62515215004E-01  0.78079178996E-01  0.10353817440E+00  0.51100000000E-03 0.  1.
         11    1    4    4    0    0 -0.25607999982E-03 -0.23252099993E-01  0.16447203282E-01  0.28486792516E-01  0.51100000000E-03 0. -1.
</event>
<event>
 8    1  0.1095698E+005  0.1043930E+01  0.7957747E-01            NaN
         13   -1    0    0    0    0  0.00000000000E+00  0.00000000000E+00  0.74505805969E-08  0.10566000000E+00  0.10566000000E+00 0. -1.
     999900   -1    0    0    0    0 -0.00000000000E+00 -0.00000000000E+00 -0.74505805969E-08  0.93827000000E+00  0.93827000000E+00 0. -1.
     999902    2    1    2    0    0 -0.15475045376E-01  0.85616039809E-02 -0.16043372925E-01  0.10200518111E+01  0.10197722929E+01 0.  0.
     999903    2    3    3    0    0 -0.77413414570E-01 -0.12438071842E-01 -0.10569929352E+00  0.13308195134E+00  0.19771766093E-01 0.  0.
         14    1    1    2    0    0  0.15475045376E-01 -0.85616039809E-02  0.16043372925E-01  0.23878188937E-01  0.00000000000E+00 0. -1.
     999901    1    3    3    0    0  0.61938369194E-01  0.20999675823E-01  0.89655920596E-01  0.88696985973E+00  0.88000000000E+00 0. -1.
        -11    1    4    4    0    0 -0.47565167383E-01 -0.16735606244E-01 -0.60748153805E-01  0.78950142345E-01  0.51100000000E-03 0.  1.
         11    1    4    4    0    0 -0.29848247187E-01  0.42975344019E-02 -0.44951139716E-01  0.54131808993E-01  0.51100000000E-03 0. -1.
</event>
<event>
 8    1  0.1095698E+005  0.1043930E+01  0.7957747E-01            NaN
         13   -1    0    0    0    0  0.00000000000E+00  0.00000000000E+00  0.74505805969E-08  0.10566000000E+00  0.10566000000E+00 0. -1.
     999900   -1    0    0    0    0 -0.00000000000E+00 -0.00000000000E+00 -0.74505805969E-08  0.93827000000E+00  0.93827000000E+00 0.  1.
     999902    2    1    2    0    0  0.17809519734E-01 -0.10953509623E-01  0.94780411341E-02  0.10209737017E+01  0.10207155862E+01 0.  0.
     999903    2    3    3    0    0  0.12867340237E+00  0.31165424983E-02  0.30940560569E-01  0.13364658811E+00  0.18372123158E-01 0.  0.
         14    1    1    2    0    0 -0.17809519734E-01  0.10953509623E-01 -0.94780411341E-02  0.22956298263E-01  0.00000000000E+00 0.  1.
     999901    1    3    3    0    0 -0.11086388264E+00 -0.14070052121E-01 -0.21462519435E-01  0.88732711363E+00  0.88000000000E+00 0.  1.
        -11    1    4    4    0    0  0.48158836961E-01  0.25704154524E-02  0.26490446059E-02  0.48302786373E-01  0.51100000000E-03 0. -1.
         11    1    4    4    0    0  0.80514565411E-01  0.54612704591E-03  0.28291515963E-01  0.85343801735E-01  0.51100000000E-03 0.  1.
</event>
<event>
 8    1  0.1095698E+005  0.1043930E+01  0.7957747E-01            NaN
         13   -1    0    0    0    0  0.00000000000E+00  0.00000000000E+00  0.74505805969E-08  0.10566000000E+00  0.10566000000E+00 0.  1.
     999900   -1    0    0    0    0 -0.00000000000E+00 -0.00000000000E+00 -0.74505805969E-08  0.93827000000E+00  0.93827000000E+00 0. -1.
     999902    2    1    2    0    0  0.75208939574E-03  0.52093480562E-02  0.20401214226E-01  0.10228607692E+01  0.10226437506E+01 0.  0.
     999903    2    3    3    0    0  0.12249921308E+00  0.29411460297E-01 -0.35478709115E-01  0.13239422281E+00  0.19959965693E-01 0.  0.
         14    1    1    2    0    0 -0.75208939574E-03 -0.52093480562E-02 -0.20401214226E-01  0.21069230824E-01  0.00000000000E+00 0. -1.
     999901    1    3    3    0    0 -0.12174712369E+00 -0.24202112241E-01  0.55879923341E-01  0.89046654637E+00  0.88000000000E+00 0. -1.
        -11    1    4    4    0    0  0.51497289992E-01  0.22261090499E-01 -0.18001775153E-01  0.58922424054E-01  0.51100000000E-03 0.  1.
         11    1    4    4    0    0  0.71001923091E-01  0.71503697982E-02 -0.17476933962E-01  0.73471798757E-01  0.51100000000E-03 0. -1.
</event>
<event>
 8    1  0.1095698E+005  0.1043930E+01  0.7957747E-01            NaN
         13   -1    0    0    0    0  0.00000000000E+00  0.00000000000E+00  0.74505805969E-08  0.10566000000E+00  0.10566000000E+00 0.  1.
     999900   -1    0    0    0    0 -0.00000000000E+00 -0.00000000000E+00 -0.74505805969E-08  0.93827000000E+00  0.93827000000E+00 0.  1.
     999902    2    1    2    0    0  0.12662245999E-01  0.17106637405E-01 -0.11494374492E-01  0.10197413630E+01  0.10194544409E+01 0.  0.
     999903    2    3    3    0    0  0.71310779792E-01  0.85372009930E-01  0.67522427007E-01  0.13162905783E+00  0.19832380641E-01 0.  0.
         14    1    1    2    0    0 -0.12662245999E-01 -0.17106637405E-01  0.11494374492E-01  0.24188637043E-01  0.00000000000E+00 0. -1.
     999901    1    3    3    0    0 -0.58648533793E-01 -0.68265372525E-01 -0.79016801499E-01  0.88811230513E+00  0.88000000000E+00 0.  1.
        -11    1    4    4    0    0  0.42810492122E-01  0.44052161346E-01  0.26934998965E-01  0.67075229744E-01  0.51100000000E-03 0.  1.
         11    1    4    4    0    0  0.28500287670E-01  0.41319848584E-01  0.40587428043E-01  0.64553828085E-01  0.51100000000E-03 0. -1.
</event>
<event>
 7    1  0.1095698E+005  0.1043930E+01  0.7957747E-01            NaN
         13   -1    0    0    0    0  0.00000000000E+00  0.00000000000E+00  0.74505805969E-08  0.10566000000E+00  0.10566000000E+00 0. -1.
     999900   -1    0    0    0    0 -0.00000000000E+00 -0.00000000000E+00 -0.74505805969E-08  0.93827000000E+00  0.93827000000E+00 0.  1.
     999903    2    1    2    0    0 -0.25233781486E-02  0.18352437029E-01  0.73851494444E-01  0.78870283834E-01  0.20574232872E-01 0.  0.
         14    1    1    2    0    0  0.20727709592E-01 -0.44016061999E-01  0.56876418893E-01  0.74846367213E-01  0.00000000000E+00 0. -1.
     999901    1    1    2    0    0 -0.18204331443E-01  0.25663624971E-01 -0.13072791334E+00  0.89021334895E+00  0.88000000000E+00 0.  1.
        -11    1    3    3    0    0  0.13605746919E-02  0.29702070528E-02  0.50654300275E-01  0.50762117280E-01  0.51100000000E-03 0.  1.
         11    1    3    3    0    0 -0.38839528406E-02  0.15382229976E-01  0.23197194169E-01  0.28108166553E-01  0.51100000000E-03 0. -1.
</event>
<event>
 8    1  0.1095698E+005  0.1043930E+01  0.7957747E-01            NaN
         13   -1    0    0    0    0  0.00000000000E+00  0.00000000000E+00  0.74505805969E-08  0.10566000000E+00  0.10566000000E+00 0. -1.
     999900   -1    0    0    0    0 -0.00000000000E+00 -0.00000000000E+00 -0.74505805969E-08  0.93827000000E+00  0.93827000000E+00 0. -1.
     999902    2    1    2    0    0 -0.33115493526E-02  0.23188164418E-01  0.60198024298E-02  0.10197453902E+01  0.10194585649E+01 0.  0.
     999903    2    3    3    0    0  0.11431588803E+00  0.53745864130E-01  0.28808290051E-01  0.13110074686E+00  0.20018693363E-01 0.  0.
         14    1    1    2    0    0  0.33115493526E-02 -0.23188164418E-01 -0.60198024298E-02  0.24184609765E-01  0.00000000000E+00 0. -1.
     999901    1    3    3    0    0 -0.11762743738E+00 -0.30557699711E-01 -0.22788487622E-01  0.88864464338E+00  0.88000000000E+00 0.  1.
        -11    1    4    4    0    0  0.57898774258E-01  0.37188263406E-01  0.19871474409E-01  0.71626612456E-01  0.51100000000E-03 0. -1.
         11    1    4    4    0    0  0.56417113770E-01  0.16557600723E-01  0.89368156428E-02  0.59474134400E-01  0.51100000000E-03 0.  1.
</event>
<event>
 8    1  0.1095698E+005  0.1043930E+01  0.7957747E-01            NaN
         13   -1    0    0    0    0  0.00000000000E+00  0.00000000000E+00  0.74505805969E-08  0.10566000000E+00  0.10566000000E+00 0.  1.
     999900   -1    0    0    0    0 -0.00000000000E+00 -0.00000000000E+00 -0.74505805969E-08  0.93827000000E+00  0.93827000000E+00 0. -1.
     999902    2    1    2    0    0  0.15800510093E-01  0.75082785902E-02 -0.15132016806E-01  0.10207997536E+01  0.10205376664E+01 0.  0.
     999903    2    3    3    0    0 -0.78976716650E-01  0.88269482378E-01 -0.52869030095E-01  0.13123290567E+00  0.19952891869E-01 0.  0.
         14    1    1    2    0    0 -0.15800510093E-01 -0.75082785902E-02  0.15132016806E-01  0.23130246415E-01  0.00000000000E+00 0. -1.
     999901    1    3    3    0    0  0.94777226743E-01 -0.80761203788E-01  0.37737013290E-01  0.88956684792E+00  0.88000000000E+00 0.  1.
        -11    1    4    4    0    0 -0.27235644166E-01  0.39422580918E-01 -0.29801182775E-01  0.56429529638E-01  0.51100000000E-03 0.  1.
         11    1    4    4    0    0 -0.51741072484E-01  0.48846901460E-01 -0.23067847320E-01  0.74803376027E-01  0.51100000000E-03 0. -1.
</event>
<event>
 8    1  0.1095698E+005  0.1043930E+01  0.7957747E-01            NaN
         13   -1    0    0    0    0  0.00000000000E+00  0.00000000000E+00  0.74505805969E-08  0.10566000000E+00  0.10566000000E+00 0.  1.
     999900   -1    0    0    0    0 -0.00000000000E+00 -0.00000000000E+00 -0.74505805969E-08  0.93827000000E+00  0.93827000000E+00 0. -1.
     999902    2    1    2    0    0 -0.22206304721E-01  0.15403995405E-02 -0.10750522411E-01  0.10192102400E+01  0.10189104214E+01 0.  0.
     999903    2    3    3    0    0  0.14828242749E-01 -0.88306596994E-01  0.89721851336E-01  0.12817783975E+00  0.19016207289E-01 0.  0.
         14    1    1    2    0    0  0.22206304721E-01 -0.15403995405E-02  0.10750522411E-01  0.24719759955E-01  0.00000000000E+00 0.  1.
     999901    1    3    3    0    0 -0.37034547470E-01  0.89846996534E-01 -0.10047237375E+00  0.89103240030E+00  0.88000000000E+00 0. -1.
        -11    1    4    4    0    0 -0.33202257514E-02 -0.36298405121E-01  0.35871746636E-01  0.51143342099E-01  0.51100000000E-03 0. -1.
         11    1    4    4    0    0  0.18148468500E-01 -0.52008191872E-01  0.53850104701E-01  0.77034497649E-01  0.51100000000E-03 0.  1.
</event>
<event>
 8    1  0.1095698E+005  0.1043930E+01  0.7957747E-01            NaN
         13   -1    0    0    0    0  0.00000000000E+00  0.00000000000E+00  0.74505805969E-08  0.10566000000E+00  0.10566000000E+00 0.  1.
     999900   -1    0    0    0    0 -0.00000000000E+00 -0.00000000000E+00 -0.74505805969E-08  0.93827000000E+00  0.93827000000E+00 0. -1.
     999902    2    1    2    0    0 -0.18415902124E-01  0.42751294795E-02  0.13205720994E-01  0.10208689235E+01  0.10206084194E+01 0.  0.
     999903    2    3    3    0    0  0.65832434552E-02  0.37320454344E-01  0.12555806377E+00  0.13275857015E+00  0.20587743049E-01 0.  0.
         14    1    1    2    0    0  0.18415902124E-01 -0.42751294795E-02 -0.13205720994E-01  0.23061076516E-01  0.00000000000E+00 0.  1.
     999901    1    3    3    0    0 -0.24999145579E-01 -0.33045324864E-01 -0.11235234277E+00  0.88811035334E+00  0.88000000000E+00 0. -1.
        -11    1    4    4    0    0  0.54491450767E-02  0.18267649252E-01  0.93668634391E-01  0.95590137467E-01  0.51100000000E-03 0.  1.
         11    1    4    4    0    0  0.11340983785E-02  0.19052805092E-01  0.31889429377E-01  0.37168432682E-01  0.51100000000E-03 0. -1.
</event>
<event>
 8    1  0.1095698E+005  0.1043930E+01  0.7957747E-01            NaN
         13   -1    0    0    0    0  0.00000000000E+00  0.00000000000E+00  0.74505805969E-08  0.10566000000E+00  0.10566000000E+00 0. -1.
     999900   -1    0    0    0    0 -0.00000000000E+00 -0.00000000000E+00 -0.74505805969E-08  0.93827000000E+00  0.93827000000E+00 0.  1.
     999902    2    1    2    0    0 -0.90696914857E-02 -0.78738800972E-02  0.24523326774E-01  0.10166233919E+01  0.10162565966E+01 0.  0.
     999903    2    3    3    0    0 -0.49387544252E-01  0.10480298292E+00 -0.45415150424E-01  0.12577380002E+00  0.18267953544E-01 0.  0.
         14    1    1    2    0    0  0.90696914857E-02  0.78738800972E-02 -0.24523326774E-01  0.27306608129E-01  0.00000000000E+00 0.  1.
     999901    1    3    3    0    0  0.40317852766E-01 -0.11267686302E+00  0.69938477198E-01  0.89084959185E+00  0.88000000000E+00 0.  1.
        -11    1    4    4    0    0 -0.32871750639E-01  0.66774170657E-01 -0.19729540585E-01  0.76999076291E-01  0.51100000000E-03 0.  1.
         11    1    4    4    0    0 -0.16515793613E-01  0.38028812264E-01 -0.25685609839E-01  0.48774723727E-01  0.51100000000E-03 0. -1.
</event>
<event>
 8    1  0.1095698E+005  0.1043930E+01  0.7957747E-01            NaN
         13   -1    0    0    0    0  0.00000000000E+00  0.00000000000E+00  0.74505805969E-08  0.10566000000E+00  0.10566000000E+00 0. -1.
     999900   -1    0    0    0    0 -0.00000000000E+00 -0.00000000000E+00 -0.74505805969E-08  0.93827000000E+00  0.93827000000E+00 0.  1.
     999902    2    1    2    0    0  0.15211710214E-02  0.10094015002E-01 -0.20781844816E-01  0.10207764220E+01  0.10205137998E+01 0.  0.
     999903    2    3    3    0    0  0.73762977928E-01 -0.10481561453E+00 -0.11889216184E-01  0.13032587286E+00  0.20400728228E-01 0.  0.
         14    1    1    2    0    0 -0.15211710214E-02 -0.10094015002E-01  0.20781844816E-01  0.23153577998E-01  0.00000000000E+00 0. -1.
     999901    1    3    3    0    0 -0.72241806907E-01  0.11490962953E+00 -0.88926286322E-02  0.89045054914E+00  0.88000000000E+00 0.  1.
        -11    1    4    4    0    0  0.59750657093E-01 -0.71839471009E-01 -0.13732049897E-01  0.94445121278E-01  0.51100000000E-03 0. -1.
         11    1    4    4    0    0  0.14012320835E-01 -0.32976143524E-01  0.18428337130E-02  0.35880751581E-01  0.51100000000E-03 0.  1.
</event>
<event>
 8    1  0.1095698E+005  0.1043930E+01  0.7957747E-01            NaN
         13   -1    0    0    0    0  0.00000000000E+00  0.00000000000E+00  0.74505805969E-08  0.10566000000E+00  0.10566000000E+00 0.  1.
     999900   -1    0    0    0    0 -0.00000000000E+00 -0.00000000000E+00 -0.74505805969E-08  0.93827000000E+00  0.93827000000E+00 0.  1.
     999902    2    1    2    0    0 -0.57563732524E-02 -0.22918447314E-01  0.25343116070E-02  0.10201641885E+01  0.10198873260E+01 0.  0.
     999903    2    3    3    0    0  0.90681926153E-01  0.23762723887E-02 -0.90620328229E-01  0.12964863258E+00  0.19179823772E-01 0.  0.
         14    1    1    2    0    0  0.57563732524E-02  0.22918447314E-01 -0.25343116070E-02  0.23765811487E-01  0.00000000000E+00 0.  1.
     999901    1    3    3    0    0 -0.96438299406E-01 -0.25294719703E-01  0.93154639836E-01  0.89051555593E+00  0.88000000000E+00 0. -1.
        -11    1    4    4    0    0  0.22265716083E-01  0.77079773204E-02 -0.29437924163E-01  0.37709780258E-01  0.51100000000E-03 0. -1.
         11    1    4    4    0    0  0.68416210070E-01 -0.53317049317E-02 -0.61182404067E-01  0.91938852322E-01  0.51100000000E-03 0.  1.
</event>
<event>
 8    1  0.1251722E+005  0.1043930E+01  0.7957747E-01            NaN
         13   -1    0    0    0    0  0.00000000000E+00  0.00000000000E+00  0.74505805969E-08  0.10566000000E+00  0.10566000000E+00 0.  1.
     999900   -1    0    0    0    0 -0.00000000000E+00 -0.00000000000E+00 -0.74505805969E-08  0.93827000000E+00  0.93827000000E+00 0.  1.
     999902    2    1    2    0    0  0.24440131154E-01 -0.38053210208E-02  0.45681524861E-02  0.10187770977E+01  0.10184665464E+01 0.  0.
     999903    2    3    3    0    0  0.67117212302E-01  0.10627969568E+00  0.29426052191E-01  0.13054404303E+00  0.19384548572E-01 0.  0.
         14    1    1    2    0    0 -0.24440131154E-01  0.38053210208E-02 -0.45681524861E-02  0.25152902338E-01  0.00000000000E+00 0.  1.
     999901    1    3    3    0    0 -0.42677081148E-01 -0.11008501670E+00 -0.24857899705E-01  0.88823305463E+00  0.88000000000E+00 0.  1.
        -11    1    4    4    0    0  0.13625048522E-01  0.34372223812E-01  0.14334263702E-01  0.39658844586E-01  0.51100000000E-03 0. -1.
         11    1    4    4    0    0  0.53492163780E-01  0.71907471866E-01  0.15091788489E-01  0.90885198447E-01  0.51100000000E-03 0.  1.
</event>
<event>
 8    1  0.1095698E+005  0.1043930E+01  0.7957747E-01            NaN
         13   -1    0    0    0    0  0.00000000000E+00  0.00000000000E+00  0.74505805969E-08  0.10566000000E+00  0.10566000000E+00 0. -1.
     999900   -1    0    0    0    0 -0.00000000000E+00 -0.00000000000E+00 -0.74505805969E-08  0.93827000000E+00  0.93827000000E+00 0. -1.
     999902    2    1    2    0    0 -0.22251834118E-02  0.22486294175E-01  0.60627005257E-02  0.10205346756E+01  0.10202664764E+01 0.  0.
     999903    2    3    3    0    0 -0.81673591488E-02 -0.83543846490E-01  0.96546647641E-01  0.12954362912E+00  0.20347398713E-01 0.  0.
         14    1    1    2    0    0  0.22251834118E-02 -0.22486294175E-01 -0.60627005257E-02  0.23395324418E-01  0.00000000000E+00 0.  1.
     999901    1    3    3    0    0  0.59421757370E-02  0.10603014066E+00 -0.90483947115E-01  0.89099104646E+00  0.88000000000E+00 0. -1.
        -11    1    4    4    0    0 -0.12692044886E-01 -0.47869558937E-01  0.46651843791E-01  0.68038506203E-01  0.51100000000E-03 0. -1.
         11    1    4    4    0    0  0.45246857376E-02 -0.35674287552E-01  0.49894803850E-01  0.61505122922E-01  0.51100000000E-03 0.  1.
</event>
<event>
 8    1  0.1095698E+005  0.1043930E+01  0.7957747E-01            NaN
         13   -1    0    0    0    0  0.00000000000E+00  0.00000000000E+00  0.74505805969E-08  0.10566000000E+00  0.10566000000E+00 0.  1.
     999900   -1    0    0    0    0 -0.00000000000E+00 -0.00000000000E+00 -0.74505805969E-08  0.93827000000E+00  0.93827000000E+00 0. -1.
     999902    2    1    2    0    0  0.16244706621E-01  0.15959855302E-01 -0.21750345171E-02  0.10210534126E+01  0.10207971068E+01 0.  0.
     999903    2    3    3    0    0 -0.10653851225E+00 -0.50060021811E-01 -0.48253469682E-01  0.12888887332E+00  0.20675685083E-01 0.  0.
         14    1    1    2    0    0 -0.16244706621E-01 -0.15959855302E-01  0.21750345171E-02  0.22876587368E-01  0.00000000000E+00 0. -1.
     999901    1    3    3    0    0  0.12278321887E+00  0.66019877113E-01  0.46078435165E-01  0.89216453931E+00  0.88000000000E+00 0. -1.
        -11    1    4    4    0    0 -0.50210932252E-01 -0.31250287641E-01 -0.15823967862E-01  0.61223992642E-01  0.51100000000E-03 0.  1.
         11    1    4    4    0    0 -0.56327580002E-01 -0.18809734170E-01 -0.32429501821E-01  0.67664880682E-01  0.51100000000E-03 0. -1.
</event>
<event>
 8    1  0.1095698E+005  0.1043930E+01  0.7957747E-01            NaN
         13   -1    0    0    0    0  0.00000000000E+00  0.00000000000E+00  0.74505805969E-08  0.10566000000E+00  0.10566000000E+00 0. -1.
     999900   -1    0    0    0    0 -0.00000000000E+00 -0.00000000000E+00 -0.74505805969E-08  0.93827000000E+00  0.93827000000E+00 0. -1.
     999902    2    1    2    0    0  0.47799537037E-02  0.19464087835E-01  0.11067385109E-01  0.10210348982E+01  0.10207781726E+01 0.  0.
     999903    2    3    3    0    0  0.99557192369E-01 -0.52229960615E-01 -0.62241305641E-01  0.13002596128E+00  0.19828442735E-01 0.  0.
         14    1    1    2    0    0 -0.47799537037E-02 -0.19464087835E-01 -0.11067385109E-01  0.22895101786E-01  0.00000000000E+00 0.  1.
     999901    1    3    3    0    0 -0.94777238665E-01  0.71694048450E-01  0.73308690750E-01  0.89100893693E+00  0.88000000000E+00 0. -1.
        -11    1    4    4    0    0  0.42582461399E-01 -0.14445958658E-01 -0.17150452275E-01  0.48128482987E-01  0.51100000000E-03 0.  1.
         11    1    4    4    0    0  0.56974730970E-01 -0.37784001956E-01 -0.45090853366E-01  0.81897478295E-01  0.51100000000E-03 0. -1.
</event>
<event>
 8    1  0.1095698E+005  0.1043930E+01  0.7957747E-01            NaN
         13   -1    0    0    0    0  0.00000000000E+00  0.00000000000E+00  0.74505805969E-08  0.10566000000E+00  0.10566000000E+00 0.  1.
     999900   -1    0    0    0    0 -0.00000000000E+00 -0.00000000000E+00 -0.74505805969E-08  0.93827000000E+00  0.93827000000E+00 0. -1.
     999902    2    1    2    0    0 -0.19172313025E-01  0.12401066944E-01  0.32010271019E-02  0.10208733172E+01  0.10206129135E+01 0.  0.
     999903    2    3    3    0    0  0.86593545520E-01  0.73045300301E-01 -0.60828489517E-01  0.13016353343E+00  0.20208470410E-01 0.  0.
         14    1    1    2    0    0  0.19172313025E-01 -0.12401066944E-01 -0.32010271019E-02  0.23056682818E-01  0.00000000000E+00 0. -1.
     999901    1    3    3    0    0 -0.10576585854E+00 -0.60644233357E-01  0.64029516619E-01  0.89070978375E+00  0.88000000000E+00 0.  1.
        -11    1    4    4    0    0  0.37252623363E-01  0.44453175401E-01 -0.28831291617E-01  0.64771500276E-01  0.51100000000E-03 0. -1.
         11    1    4    4    0    0  0.49340922157E-01  0.28592124899E-01 -0.31997197900E-01  0.65392033154E-01  0.51100000000E-03 0.  1.
</event>
<event>
 8    1  0.1095698E+005  0.1043930E+01  0.7957747E-01            NaN
         13   -1    0    0    0    0  0.00000000000E+00  0.00000000000E+00  0.74505805969E-08  0.10566000000E+00  0.10566000000E+00 0.  1.
     999900   -1    0    0    0    0 -0.00000000000E+00 -0.00000000000E+00 -0.74505805969E-08  0.93827000000E+00  0.93827000000E+00 0. -1.
     999902    2    1    2    0    0  0.14050169087E-01  0.16667436646E-01 -0.86047151295E-02  0.10204938779E+01  0.10202247316E+01 0.  0.
     999903    2    3    3    0    0 -0.11187714380E+00 -0.53860756152E-01  0.24348751285E-01  0.12812744810E+00  0.20157006475E-01 0.  0.
         14    1    1    2    0    0 -0.14050169087E-01 -0.16667436646E-01  0.86047151295E-02  0.23436122081E-01  0.00000000000E+00 0.  1.
     999901    1    3    3    0    0  0.12592731289E+00  0.70528192798E-01 -0.32953466414E-01  0.89236642981E+00  0.88000000000E+00 0. -1.
        -11    1    4    4    0    0 -0.16096170422E-01 -0.86189780147E-02  0.11096576096E-01  0.21372145572E-01  0.51100000000E-03 0. -1.
         11    1    4    4    0    0 -0.95780973380E-01 -0.45241778137E-01  0.13252175188E-01  0.10675530253E+00  0.51100000000E-03 0.  1.
</event>
<event>
 8    1  0.1095698E+005  0.1043930E+01  0.7957747E-01            NaN
         13   -1    0    0    0    0  0.00000000000E+00  0.00000000000E+00  0.74505805969E-08  0.10566000000E+00  0.10566000000E+00 0.  1.
     999900   -1    0    0    0    0 -0.00000000000E+00 -0.00000000000E+00 -0.74505805969E-08  0.93827000000E+00  0.93827000000E+00 0. -1.
     999902    2    1    2    0    0 -0.76814126386E-02  0.17753930357E-01  0.14185415183E-01  0.10199418332E+01  0.10196597035E+01 0.  0.
     999903    2    3    3    0    0  0.78247187018E-01 -0.97425769696E-01  0.20970722715E-01  0.12826020394E+00  0.19912454023E-01 0.  0.
         14    1    1    2    0    0  0.76814126386E-02 -0.17753930357E-01 -0.14185415183E-01  0.23988166815E-01  0.00000000000E+00 0.  1.
     999901    1    3    3    0    0 -0.85928599656E-01  0.11517970005E+00 -0.67853075317E-02  0.89168162925E+00  0.88000000000E+00 0.  1.
        -11    1    4    4    0    0  0.27971114969E-01 -0.50092910828E-01  0.12126236539E-01  0.58642900009E-01  0.51100000000E-03 0.  1.
         11    1    4    4    0    0  0.50276072049E-01 -0.47332858868E-01  0.88444861757E-02  0.69617303926E-01  0.51100000000E-03 0. -1.
</event>
<event>
 8    1  0.1095698E+005  0.1043930E+01  0.7957747E-01            NaN
         13   -1    0    0    0    0  0.00000000000E+00  0.00000000000E+00  0.74505805969E-08  0.10566000000E+00  0.10566000000E+00 0.  1.
     999900   -1    0    0    0    0 -0.00000000000E+00 -0.00000000000E+00 -0.74505805969E-08  0.93827000000E+00  0.93827000000E+00 0.  1.
     999902    2    1    2    0    0 -0.73213855793E-02 -0.14703160348E-02 -0.22008669601E-01  0.10206889576E+01  0.10204243245E+01 0.  0.
     999903    2    3    3    0    0 -0.34482600009E-01 -0.34453048106E-01  0.11749778515E+00  0.12867570480E+00  0.19381570217E-01 0.  0.
         14    1    1    2    0    0  0.73213855793E-02  0.14703160348E-02  0.22008669601E-01  0.23241042439E-01  0.00000000000E+00 0.  1.
     999901    1    3    3    0    0  0.27161214430E-01  0.32982732072E-01 -0.13950645475E+00  0.89201325276E+00  0.88000000000E+00 0.  1.
        -11    1    4    4    0    0 -0.20016196424E-01 -0.68151735928E-02  0.43491918315E-01  0.48362204149E-01  0.51100000000E-03 0. -1.
         11    1    4    4    0    0 -0.14466403585E-01 -0.27637874514E-01  0.74005866832E-01  0.80313500652E-01  0.51100000000E-03 0.  1.
</event>
<event>
 8    1  0.1095698E+005  0.1043930E+01  0.7957747E-01            NaN
         13   -1    0    0    0    0  0.00000000000E+00  0.00000000000E+00  0.74505805969E-08  0.10566000000E+00  0.10566000000E+00 0. -1.
     999900   -1    0    0    0    0 -0.00000000000E+00 -0.00000000000E+00 -0.74505805969E-08  0.93827000000E+00  0.93827000000E+00 0.  1.
     999902    2    1    2    0    0  0.11461685589E-01 -0.10900151545E-01 -0.18216691737E-01  0.10198046731E+01  0.10195192690E+01 0.  0.
     999903    2    3    3    0    0 -0.10553110414E+00 -0.96355098911E-02  0.68490199661E-01  0.12783662592E+00  0.20533837563E-01 0.  0.
         14    1    1    2    0    0 -0.11461685589E-01  0.10900151545E-01  0.18216691737E-01  0.24125326901E-01  0.00000000000E+00 0. -1.
     999901    1    3    3    0    0  0.11699278973E+00 -0.12646416539E-02 -0.86706891398E-01  0.89196804718E+00  0.88000000000E+00 0.  1.
        -11    1    4    4    0    0 -0.37392146191E-01  0.32925199442E-02  0.15772696677E-01  0.40719189160E-01  0.51100000000E-03 0. -1.
         11    1    4    4    0    0 -0.68138957952E-01 -0.12928029835E-01  0.52717502984E-01  0.87117436762E-01  0.51100000000E-03 0.  1.
</event>
<event>
 8    1  0.1095698E+005  0.1043930E+01  0.7957747E-01            NaN
         13   -1    0    0    0    0  0.00000000000E+00  0.00000000000E+00  0.74505805969E-08  0.10566000000E+00  0.10566000000E+00 0. -1.
     999900   -1    0    0    0    0 -0.00000000000E+00 -0.00000000000E+00 -0.74505805969E-08  0.93827000000E+00  0.93827000000E+00 0. -1.
     999902    2    1    2    0    0 -0.58910751842E-02 -0.76680925123E-02  0.21962498499E-01  0.10199330054E+01  0.10196506655E+01 0.  0.
     999903    2    3    3    0    0  0.84707141323E-01 -0.90791973509E-01  0.37656532158E-01  0.13124637946E+00  0.19726009802E-01 0.  0.
         14    1    1    2    0    0  0.58910751842E-02  0.76680925123E-02 -0.21962498499E-01  0.23996994602E-01  0.00000000000E+00 0.  1.
     999901    1    3    3    0    0 -0.90598216507E-01  0.83123880997E-01 -0.15694033658E-01  0.88868662594E+00  0.88000000000E+00 0.  1.
        -11    1    4    4    0    0  0.46341021203E-01 -0.35311181138E-01  0.18217667073E-01  0.61045182235E-01  0.51100000000E-03 0.  1.
         11    1    4    4    0    0  0.38366120119E-01 -0.55480792372E-01  0.19438865085E-01  0.70201197226E-01  0.51100000000E-03 0. -1.
</event>
<event>
 8    1  0.1095698E+005  0.1043930E+01  0.7957747E-01            NaN
         13   -1    0    0    0    0  0.00000000000E+00  0.00000000000E+00  0.74505805969E-08  0.10566000000E+00  0.10566000000E+00 0. -1.
     999900   -1    0    0    0    0 -0.00000000000E+00 -0.00000000000E+00 -0.74505805969E-08  0.93827000000E+00  0.93827000000E+00 0.  1.
     999902    2    1    2    0    0  0.16758622320E-01  0.16416892010E-01  0.21291031845E-02  0.10203737090E+01  0.10201017631E+01 0.  0.
     999903    2    3    3    0    0 -0.10836638206E-01  0.12645263166E+00 -0.32229828248E-01  0.13242669562E+00  0.19757709925E-01 0.  0.
         14    1    1    2    0    0 -0.16758622320E-01 -0.16416892010E-01 -0.21291031845E-02  0.23556291000E-01  0.00000000000E+00 0.  1.
     999901    1    3    3    0    0  0.27595260525E-01 -0.11003573965E+00  0.34358931432E-01  0.88794701338E+00  0.88000000000E+00 0. -1.
        -11    1    4    4    0    0 -0.52818644756E-02  0.10381959188E+00 -0.19172136634E-01  0.10570826692E+00  0.51100000000E-03 0. -1.
         11    1    4    4    0    0 -0.55547737302E-02  0.22633039784E-01 -0.13057691614E-01  0.26718428703E-01  0.51100000000E-03 0.  1.
</event>
<event>
 8    1  0.1095698E+005  0.1043930E+01  0.7957747E-01            NaN
         13   -1    0    0    0    0  0.00000000000E+00  0.00000000000E+00  0.74505805969E-08  0.10566000000E+00  0.10566000000E+00 0. -1.
     999900   -1    0    0    0    0 -0.00000000000E+00 -0.00000000000E+00 -0.74505805969E-08  0.93827000000E+00  0.93827000000E+00 0.  1.
     999902    2    1    2    0    0  0.13439886397E-01  0.30219330254E-02  0.19003903774E-01  0.10204585070E+01  0.10201885382E+01 0.  0.
     999903    2    3    3    0    0  0.11923813577E+00  0.32800086284E-01 -0.37860627305E-01  0.13180020208E+00  0.25382818714E-01 0.  0.
         14    1    1    2    0    0 -0.13439886397E-01 -0.30219330254E-02 -0.19003903774E-01  0.23471493012E-01  0.00000000000E+00 0.  1.
     999901    1    3    3    0    0 -0.10579824938E+00 -0.29778153259E-01  0.56864531079E-01  0.88865830491E+00  0.88000000000E+00 0.  1.
        -11    1    4    4    0    0  0.56353201806E-01  0.28651450889E-01 -0.18709341286E-01  0.65930945421E-01  0.51100000000E-03 0.  1.
         11    1    4    4    0    0  0.62884933968E-01  0.41486353949E-02 -0.19151286019E-01  0.65869256661E-01  0.51100000000E-03 0. -1.
</event>
<event>
 8    1  0.1095698E+005  0.1043930E+01  0.7957747E-01            NaN
         13   -1    0    0    0    0  0.00000000000E+00  0.00000000000E+00  0.74505805969E-08  0.10566000000E+00  0.10566000000E+00 0. -1.
     999900   -1    0    0    0    0 -0.00000000000E+00 -0.00000000000E+00 -0.74505805969E-08  0.93827000000E+00  0.93827000000E+00 0. -1.
     999902    2    1    2    0    0 -0.67011117428E-02 -0.20165197231E-01  0.10998491454E-01  0.10200028837E+01  0.10197222053E+01 0.  0.
     999903    2    3    3    0    0 -0.12728060668E+00 -0.81862152923E-02 -0.21434766471E-01  0.13110759923E+00  0.21503171970E-01 0.  0.
         14    1    1    2    0    0  0.67011117428E-02  0.20165197231E-01 -0.10998491454E-01  0.23927116254E-01  0.00000000000E+00 0.  1.
     999901    1    3    3    0    0  0.12057949494E+00 -0.11978981939E-01  0.32433257925E-01  0.88889528451E+00  0.88000000000E+00 0. -1.
        -11    1    4    4    0    0 -0.10083778353E+00 -0.37236708475E-02 -0.25242251024E-01  0.10401709797E+00  0.51100000000E-03 0. -1.
         11    1    4    4    0    0 -0.26442823155E-01 -0.44625444447E-02  0.38074845536E-02  0.27090501268E-01  0.51100000000E-03 0.  1.
</event>
<event>
 8    1  0.1095698E+005  0.1043930E+01  0.7957747E-01            NaN
         13   -1    0    0    0    0  0.00000000000E+00  0.00000000000E+00  0.74505805969E-08  0.10566000000E+00  0.10566000000E+00 0. -1.
     999900   -1    0    0    0    0 -0.00000000000E+00 -0.00000000000E+00 -0.74505805969E-08  0.93827000000E+00  0.93827000000E+00 0. -1.
     999902    2    1    2    0    0 -0.21818769479E-01  0.14687322771E-01 -0.61624270356E-02  0.10169160840E+01  0.10165572144E+01 0.  0.
     999903    2    3    3    0    0 -0.10879104620E+00  0.51133158983E-01  0.46526361788E-01  0.13031099469E+00  0.19135342001E-01 0.  0.
         14    1    1    2    0    0  0.21818769479E-01 -0.14687322771E-01  0.61624270356E-02  0.27013916020E-01  0.00000000000E+00 0.  1.
     999901    1    3    3    0    0  0.86972276722E-01 -0.36445836213E-01 -0.52688788824E-01  0.88660508929E+00  0.88000000000E+00 0. -1.
        -11    1    4    4    0    0 -0.48641881744E-01  0.22269568901E-01  0.10616908558E-01  0.54543067634E-01  0.51100000000E-03 0.  1.
         11    1    4    4    0    0 -0.60149164457E-01  0.28863590082E-01  0.35909453230E-01  0.75767927051E-01  0.51100000000E-03 0. -1.
</event>
<event>
 8    1  0.1095698E+005  0.1043930E+01  0.7957747E-01            NaN
         13   -1    0    0    0    0  0.00000000000E+00  0.00000000000E+00  0.74505805969E-08  0.10566000000E+00  0.10566000000E+00 0.  1.
     999900   -1    0    0    0    0 -0.00000000000E+00 -0.00000000000E+00 -0.74505805969E-08  0.93827000000E+00  0.93827000000E+00 0. -1.
     999902    2    1    2    0    0 -0.60377993492E-02  0.22213159579E-01  0.65175657374E-02  0.10200059923E+01  0.10197253877E+01 0.  0.
     999903    2    3    3    0    0 -0.54688047232E-02  0.94063744145E-01  0.91719355649E-01  0.13297601806E+00  0.19806195794E-01 0.  0.
         14    1    1    2    0    0  0.60377993492E-02 -0.22213159579E-01 -0.65175657374E-02  0.23924007662E-01  0.00000000000E+00 0.  1.
     999901    1    3    3    0    0 -0.56899462598E-03 -0.71850584566E-01 -0.85201789911E-01  0.88702997427E+00  0.88000000000E+00 0. -1.
        -11    1    4    4    0    0 -0.96761786475E-02  0.64672891885E-01  0.72340250860E-01  0.97517097954E-01  0.51100000000E-03 0. -1.
         11    1    4    4    0    0  0.42073739242E-02  0.29390852260E-01  0.19379104789E-01  0.35458920110E-01  0.51100000000E-03 0.  1.
</event>
<event>
 8    1  0.1095698E+005  0.1043930E+01  0.7957747E-01            NaN
         13   -1    0    0    0    0  0.00000000000E+00  0.00000000000E+00  0.74505805969E-08  0.10566000000E+00  0.10566000000E+00 0. -1.
     999900   -1    0    0    0    0 -0.00000000000E+00 -0.00000000000E+00 -0.74505805969E-08  0.93827000000E+00  0.93827000000E+00 0.  1.
     999902    2    1    2    0    0  0.67017650034E-02  0.20801811060E-01  0.10639957130E-01  0.10196228470E+01  0.10193330724E+01 0.  0.
     999903    2    3    3    0    0  0.11031471396E+00 -0.40895056448E-01  0.53419397216E-01  0.13036909970E+00  0.17341522423E-01 0.  0.
         14    1    1    2    0    0 -0.67017650034E-02 -0.20801811060E-01 -0.10639957130E-01  0.24307152965E-01  0.00000000000E+00 0.  1.
     999901    1    3    3    0    0 -0.10361294896E+00  0.61696867508E-01 -0.42779440086E-01  0.88925374733E+00  0.88000000000E+00 0.  1.
        -11    1    4    4    0    0  0.78222142098E-01 -0.25164793801E-01  0.29259321616E-01  0.87225795404E-01  0.51100000000E-03 0. -1.
         11    1    4    4    0    0  0.32092571863E-01 -0.15730262646E-01  0.24160075600E-01  0.43143304298E-01  0.51100000000E-03 0.  1.
</event>
<event>
 8    1  0.1095698E+005  0.1043930E+01  0.7957747E-01            NaN
         13   -1    0    0    0    0  0.00000000000E+00  0.00000000000E+00  0.74505805969E-08  0.10566000000E+00  0.10566000000E+00 0.  1.
     999900   -1    0    0    0    0 -0.00000000000E+00 -0.00000000000E+00 -0.74505805969E-08  0.93827000000E+00  0.93827000000E+00 0. -1.
     999902    2    1    2    0    0  0.18074803857E-01  0.11591817593E-01  0.10371306421E-01  0.10200839780E+01  0.10198052213E+01 0.  0.
     999903    2    3    3    0    0 -0.11858005344E+00  0.46412217398E-01 -0.11245991938E-02  0.12878202795E+00  0.19189137604E-01 0.  0.
         14    1    1    2    0    0 -0.18074803857E-01 -0.11591817593E-01 -0.10371306421E-01  0.23846022026E-01  0.00000000000E+00 0. -1.
     999901    1    3    3    0    0  0.13665485730E+00 -0.34820399805E-01  0.11495905615E-01  0.89130195002E+00  0.88000000000E+00 0. -1.
        -11    1    4    4    0    0 -0.51625392287E-01  0.26559821914E-01 -0.79955965530E-02  0.58607132281E-01  0.51100000000E-03 0. -1.
         11    1    4    4    0    0 -0.66954661155E-01  0.19852395484E-01  0.68709973592E-02  0.70174895672E-01  0.51100000000E-03 0.  1.
</event>
<event>
 8    1  0.1095698E+005  0.1043930E+01  0.7957747E-01            NaN
         13   -1    0    0    0    0  0.00000000000E+00  0.00000000000E+00  0.74505805969E-08  0.10566000000E+00  0.10566000000E+00 0. -1.
     999900   -1    0    0    0    0 -0.00000000000E+00 -0.00000000000E+00 -0.74505805969E-08  0.93827000000E+00  0.93827000000E+00 0. -1.
     999902    2    1    2    0    0  0.92976311324E-02 -0.14698867957E-01  0.17966363504E-01  0.10189241431E+01  0.10186172571E+01 0.  0.
     999903    2    3    3    0    0 -0.39493030854E-01  0.56402894317E-01 -0.10387076538E+00  0.12635466382E+00  0.20865742131E-01 0.  0.
         14    1    1    2    0    0 -0.92976311324E-02  0.14698867957E-01 -0.17966363504E-01  0.25005856943E-01  0.00000000000E+00 0. -1.
     999901    1    3    3    0    0  0.48790661987E-01 -0.71101762274E-01  0.12183712888E+00  0.89256947924E+00  0.88000000000E+00 0.  1.
        -11    1    4    4    0    0 -0.11051978141E-02  0.15748929972E-01 -0.27301562919E-01  0.31541824873E-01  0.51100000000E-03 0. -1.
         11    1    4    4    0    0 -0.38387833040E-01  0.40653964345E-01 -0.76569202460E-01  0.94812838945E-01  0.51100000000E-03 0.  1.
</event>
<event>
 8    1  0.1095698E+005  0.1043930E+01  0.7957747E-01            NaN
         13   -1    0    0    0    0  0.00000000000E+00  0.00000000000E+00  0.74505805969E-08  0.10566000000E+00  0.10566000000E+00 0.  1.
     999900   -1    0    0    0    0 -0.00000000000E+00 -0.00000000000E+00 -0.74505805969E-08  0.93827000000E+00  0.93827000000E+00 0. -1.
     999902    2    1    2    0    0 -0.19128187675E-01 -0.11836536721E-01 -0.10267248736E-01  0.10192033431E+01  0.10189033551E+01 0.  0.
     999903    2    3    3    0    0 -0.62450611088E-01  0.55309110337E-01  0.95509760169E-01  0.12927405045E+00  0.25109546399E-01 0.  0.
         14    1    1    2    0    0  0.19128187675E-01  0.11836536721E-01  0.10267248736E-01  0.24726656909E-01  0.00000000000E+00 0. -1.
     999901    1    3    3    0    0  0.43322423413E-01 -0.67145647059E-01 -0.10577700891E+00  0.88992929264E+00  0.88000000000E+00 0. -1.
        -11    1    4    4    0    0 -0.44211720873E-01  0.23519657798E-01  0.61072690433E-01  0.78980916703E-01  0.51100000000E-03 0. -1.
         11    1    4    4    0    0 -0.18238890215E-01  0.31789452539E-01  0.34437069736E-01  0.50293133746E-01  0.51100000000E-03 0.  1.
</event>
<event>
 8    1  0.1095698E+005  0.1043930E+01  0.7957747E-01            NaN
         13   -1    0    0    0    0  0.00000000000E+00  0.00000000000E+00  0.74505805969E-08  0.10566000000E+00  0.10566000000E+00 0. -1.
     999900   -1    0    0    0    0 -0.00000000000E+00 -0.00000000000E+00 -0.74505805969E-08  0.93827000000E+00  0.93827000000E+00 0. -1.
     999902    2    1    2    0    0  0.18003479110E-01 -0.12340556943E-01  0.11215927234E-01  0.10193899994E+01  0.10190945782E+01 0.  0.
     999903    2    3    3    0    0  0.38867294985E-01  0.11842846725E+00  0.27531608533E-01  0.12933267655E+00  0.20808250318E-01 0.  0.
         14    1    1    2    0    0 -0.18003479110E-01  0.12340556943E-01 -0.11215927234E-01  0.24540000600E-01  0.00000000000E+00 0.  1.
     999901    1    3    3    0    0 -0.20863815875E-01 -0.13076902419E+00 -0.16315681299E-01  0.89005732285E+00  0.88000000000E+00 0.  1.
        -11    1    4    4    0    0  0.15781900568E-01  0.49410433003E-01  0.21999274301E-01  0.56344373862E-01  0.51100000000E-03 0.  1.
         11    1    4    4    0    0  0.23085394417E-01  0.69018034245E-01  0.55323342315E-02  0.72988302689E-01  0.51100000000E-03 0. -1.
</event>
<event>
 8    1  0.1095698E+005  0.1043930E+01  0.7957747E-01            NaN
         13   -1    0    0    0    0  0.00000000000E+00  0.00000000000E+00  0.74505805969E-08  0.10566000000E+00  0.10566000000E+00 0. -1.
     999900   -1    0    0    0    0 -0.00000000000E+00 -0.00000000000E+00 -0.74505805969E-08  0.93827000000E+00  0.93827000000E+00 0. -1.
     999902    2    1    2    0    0  0.14864394061E-01  0.13768744237E-01  0.13820008081E-01  0.10194040718E+01  0.10191089935E+01 0.  0.
     999903    2    3    3    0    0 -0.42723817088E-01 -0.47619814715E-01  0.11159190854E+00  0.12999735849E+00  0.18803932107E-01 0.  0.
         14    1    1    2    0    0 -0.14864394061E-01 -0.13768744237E-01 -0.13820008081E-01  0.24525928158E-01  0.00000000000E+00 0. -1.
     999901    1    3    3    0    0  0.57588211149E-01  0.61388558952E-01 -0.97771900461E-01  0.88940671335E+00  0.88000000000E+00 0. -1.
        -11    1    4    4    0    0 -0.32146578175E-02 -0.57179098640E-02  0.26092606244E-01  0.26909361562E-01  0.51100000000E-03 0. -1.
         11    1    4    4    0    0 -0.39509159270E-01 -0.41901904851E-01  0.85499302298E-01  0.10308799693E+00  0.51100000000E-03 0.  1.
</event>
<event>
 8    1  0.1095698E+005  0.1043930E+01  0.7957747E-01            NaN
         13   -1    0    0    0    0  0.00000000000E+00  0.00000000000E+00  0.74505805969E-08  0.10566000000E+00  0.10566000000E+00 0.  1.
     999900   -1    0    0    0    0 -0.00000000000E+00 -0.00000000000E+00 -0.74505805969E-08  0.93827000000E+00  0.93827000000E+00 0. -1.
     999902    2    1    2    0    0  0.55326474040E-03  0.20596958428E-01  0.84721038387E-02  0.10216518192E+01  0.10214088908E+01 0.  0.
     999903    2    3    3    0    0  0.62825568496E-01 -0.63016083796E-01  0.94538650626E-01  0.13132804034E+00  0.19784308014E-01 0.  0.
         14    1    1    2    0    0 -0.55326474040E-03 -0.20596958428E-01 -0.84721038387E-02  0.22278180846E-01  0.00000000000E+00 0. -1.
     999901    1    3    3    0    0 -0.62272303756E-01  0.83613042224E-01 -0.86066546788E-01  0.89032377881E+00  0.88000000000E+00 0.  1.
        -11    1    4    4    0    0  0.33157179126E-01 -0.19481078744E-01  0.38892690564E-01  0.54697472126E-01  0.51100000000E-03 0.  1.
         11    1    4    4    0    0  0.29668389371E-01 -0.43535005052E-01  0.55645960062E-01  0.76630568215E-01  0.51100000000E-03 0. -1.
</event>
<event>
 8    1  0.1095698E+005  0.1043930E+01  0.7957747E-01            NaN
         13   -1    0    0    0    0  0.00000000000E+00  0.00000000000E+00  0.74505805969E-08  0.10566000000E+00  0.10566000000E+00 0.  1.
     999900   -1    0    0    0    0 -0.00000000000E+00 -0.00000000000E+00 -0.74505805969E-08  0.93827000000E+00  0.93827000000E+00 0. -1.
     999902    2    1    2    0    0 -0.22059236623E-01 -0.55888270405E-02  0.60043021468E-02  0.10203949930E+01  0.10201235441E+01 0.  0.
     999903    2    3    3    0    0  0.82616656146E-01  0.94850022467E-01  0.16709844172E-01  0.12845350749E+00  0.19976137276E-01 0.  0.
         14    1    1    2    0    0  0.22059236623E-01  0.55888270405E-02 -0.60043021468E-02  0.23535006955E-01  0.00000000000E+00 0. -1.
     999901    1    3    3    0    0 -0.10467589277E+00 -0.10043884951E+00 -0.10705542025E-01  0.89194148555E+00  0.88000000000E+00 0. -1.
        -11    1    4    4    0    0  0.22224865135E-01  0.38949139127E-01  0.22883255390E-02  0.44905207090E-01  0.51100000000E-03 0. -1.
         11    1    4    4    0    0  0.60391791011E-01  0.55900883340E-01  0.14421518633E-01  0.83548300404E-01  0.51100000000E-03 0.  1.
</event>
<event>
 8    1  0.1095698E+005  0.1043930E+01  0.7957747E-01            NaN
         13   -1    0    0    0    0  0.00000000000E+00  0.00000000000E+00  0.74505805969E-08  0.10566000000E+00  0.10566000000E+00 0.  1.
     999900   -1    0    0    0    0 -0.00000000000E+00 -0.00000000000E+00 -0.74505805969E-08  0.93827000000E+00  0.93827000000E+00 0. -1.
     999902    2    1    2    0    0  0.68482054013E-02 -0.18052094002E-01 -0.58257355031E-02  0.10237628185E+01  0.10235641618E+01 0.  0.
     999903    2    3    3    0    0 -0.10263142911E+00 -0.30579161805E-01 -0.78343512671E-01  0.13393050520E+00  0.18203814687E-01 0.  0.
         14    1    1    2    0    0 -0.68482054013E-02  0.18052094002E-01  0.58257355031E-02  0.20167181489E-01  0.00000000000E+00 0.  1.
     999901    1    3    3    0    0  0.10947963451E+00  0.12527067803E-01  0.72517777168E-01  0.88983231331E+00  0.88000000000E+00 0.  1.
        -11    1    4    4    0    0 -0.35260102097E-01 -0.19136494259E-01 -0.25431484415E-01  0.47502649747E-01  0.51100000000E-03 0. -1.
         11    1    4    4    0    0 -0.67371327011E-01 -0.11442667546E-01 -0.52912028256E-01  0.86427855457E-01  0.51100000000E-03 0.  1.
</event>
<event>
 8    1  0.1095698E+005  0.1043930E+01  0.7957747E-01            NaN
         13   -1    0    0    0    0  0.00000000000E+00  0.00000000000E+00  0.74505805969E-08  0.10566000000E+00  0.10566000000E+00 0. -1.
     999900   -1    0    0    0    0 -0.00000000000E+00 -0.00000000000E+00 -0.74505805969E-08  0.93827000000E+00  0.93827000000E+00 0.  1.
     999902    2    1    2    0    0 -0.13129382572E-01  0.76175852469E-02 -0.19107359594E-01  0.10195271419E+01  0.10192350532E+01 0.  0.
     999903    2    3    3    0    0  0.24425053263E-01 -0.24232245854E-01 -0.12558965712E+00  0.13174156698E+00  0.19982330368E-01 0.  0.
         14    1    1    2    0    0  0.13129382572E-01 -0.76175852469E-02  0.19107359594E-01  0.24402858078E-01  0.00000000000E+00 0. -1.
     999901    1    3    3    0    0 -0.37554435835E-01  0.31849831101E-01  0.10648229753E+00  0.88778557494E+00  0.88000000000E+00 0. -1.
        -11    1    4    4    0    0  0.49392356111E-02  0.27296427099E-02 -0.29923114086E-01  0.30454899037E-01  0.51100000000E-03 0. -1.
         11    1    4    4    0    0  0.19485817652E-01 -0.26961888564E-01 -0.95666543038E-01  0.10128666794E+00  0.51100000000E-03 0.  1.
</event>
<event>
 8    1  0.1095698E+005  0.1043930E+01  0.7957747E-01            NaN
         13   -1    0    0    0    0  0.00000000000E+00  0.00000000000E+00  0.74505805969E-08  0.10566000000E+00  0.10566000000E+00 0. -1.
     999900   -1    0    0    0    0 -0.00000000000E+00 -0.00000000000E+00 -0.74505805969E-08  0.93827000000E+00  0.93827000000E+00 0.  1.
     999902    2    1    2    0    0  0.14556904979E-01 -0.10309397461E-01  0.10733645151E-01  0.10231117797E+01  0.10228999538E+01 0.  0.
     999903    2    3    3    0    0  0.55029661058E-01  0.30371353062E-01  0.11751833136E+00  0.13480105891E+00  0.20250545561E-01 0.  0.
         14    1    1    2    0    0 -0.14556904979E-01  0.10309397461E-01 -0.10733645151E-01  0.20818220309E-01  0.00000000000E+00 0.  1.
     999901    1    3    3    0    0 -0.40472756079E-01 -0.40680750523E-01 -0.10678468620E+00  0.88831072078E+00  0.88000000000E+00 0.  1.
        -11    1    4    4    0    0  0.45266849784E-01  0.15710416383E-01  0.78186228146E-01  0.91701975251E-01  0.51100000000E-03 0.  1.
         11    1    4    4    0    0  0.97628112740E-02  0.14660936679E-01  0.39332103210E-01  0.43099083659E-01  0.51100000000E-03 0. -1.
</event>
<event>
 8    1  0.1095698E+005  0.1043930E+01  0.7957747E-01            NaN
         13   -1    0    0    0    0  0.00000000000E+00  0.00000000000E+00  0.74505805969E-08  0.10566000000E+00  0.10566000000E+00 0. -1.
     999900   -1    0    0    0    0 -0.00000000000E+00 -0.00000000000E+00 -0.74505805969E-08  0.93827000000E+00  0.93827000000E+00 0. -1.
     999902    2    1    2    0    0 -0.21401781821E-01  0.83523067463E-02 -0.70952655559E-02  0.10198854562E+01  0.10196019830E+01 0.  0.
     999903    2    3    3    0    0 -0.44285581994E-01  0.11783827967E+00  0.34113210892E-01  0.13184886624E+00  0.19321993780E-01 0.  0.
         14    1    1    2    0    0  0.21401781821E-01 -0.83523067463E-02  0.70952655559E-02  0.24044543797E-01  0.00000000000E+00 0. -1.
     999901    1    3    3    0    0  0.22883800173E-01 -0.10948597292E+00 -0.41208476447E-01  0.88803658996E+00  0.88000000000E+00 0. -1.
        -11    1    4    4    0    0 -0.45339784854E-02  0.34156343121E-01  0.12985296131E-01  0.36825151364E-01  0.51100000000E-03 0. -1.
         11    1    4    4    0    0 -0.39751603509E-01  0.83681936550E-01  0.21127914760E-01  0.95023714879E-01  0.51100000000E-03 0.  1.
</event>
<event>
 8    1  0.1095698E+005  0.1043930E+01  0.7957747E-01            NaN
         13   -1    0    0    0    0  0.00000000000E+00  0.00000000000E+00  0.74505805969E-08  0.10566000000E+00  0.10566000000E+00 0. -1.
     999900   -1    0    0    0    0 -0.00000000000E+00 -0.00000000000E+00 -0.74505805969E-08  0.93827000000E+00  0.93827000000E+00 0.  1.
     999902    2    1    2    0    0 -0.18314168813E-01  0.16007668472E-01 -0.17095402355E-02  0.10195460553E+01  0.10192544247E+01 0.  0.
     999903    2    3    3    0    0 -0.10802169589E+00  0.10648743942E-01 -0.72516790963E-01  0.13213982072E+00  0.20497919846E-01 0.  0.
         14    1    1    2    0    0  0.18314168813E-01 -0.16007668472E-01  0.17095402355E-02  0.24383944658E-01  0.00000000000E+00 0.  1.
     999901    1    3    3    0    0  0.89707527079E-01  0.53589245300E-02  0.70807250727E-01  0.88740623462E+00  0.88000000000E+00 0.  1.
        -11    1    4    4    0    0 -0.45495336500E-01 -0.29159289956E-02 -0.22019982927E-01  0.50630712559E-01  0.51100000000E-03 0.  1.
         11    1    4    4    0    0 -0.62526359392E-01  0.13564672938E-01 -0.50496808035E-01  0.81509108163E-01  0.51100000000E-03 0. -1.
</event>
<event>
 8    1  0.1095698E+005  0.1043930E+01  0.7957747E-01            NaN
         13   -1    0    0    0    0  0.00000000000E+00  0.00000000000E+00  0.74505805969E-08  0.10566000000E+00  0.10566000000E+00 0. -1.
     999900   -1    0    0    0    0 -0.00000000000E+00 -0.00000000000E+00 -0.74505805969E-08  0.93827000000E+00  0.93827000000E+00 0. -1.
     999902    2    1    2    0    0  0.42329810801E-02  0.17464871240E-01  0.15141504791E-01  0.10204309570E+01  0.10201603467E+01 0.  0.
     999903    2    3    3    0    0  0.76042346007E-01  0.86066866656E-01 -0.60854263490E-01  0.13159004012E+00  0.20560966678E-01 0.  0.
         14    1    1    2    0    0 -0.42329810801E-02 -0.17464871240E-01 -0.15141504791E-01  0.23499043036E-01  0.00000000000E+00 0. -1.
     999901    1    3    3    0    0 -0.71809364927E-01 -0.68601995416E-01  0.75995768281E-01  0.88884091685E+00  0.88000000000E+00 0.  1.
        -11    1    4    4    0    0  0.17204270495E-01  0.18199126208E-01 -0.23374119711E-01  0.34260848082E-01  0.51100000000E-03 0. -1.
         11    1    4    4    0    0  0.58838075512E-01  0.67867740448E-01 -0.37480143778E-01  0.97329192034E-01  0.51100000000E-03 0.  1.
</event>
<event>
 8    1  0.1095698E+005  0.1043930E+01  0.7957747E-01            NaN
         13   -1    0    0    0    0  0.00000000000E+00  0.00000000000E+00  0.74505805969E-08  0.10566000000E+00  0.10566000000E+00 0. -1.
     999900   -1    0    0    0    0 -0.00000000000E+00 -0.00000000000E+00 -0.74505805969E-08  0.93827000000E+00  0.93827000000E+00 0.  1.
     999902    2    1    2    0    0 -0.65257059799E-02 -0.15367766131E-01  0.17436525746E-01  0.10197890492E+01  0.10195032709E+01 0.  0.
     999903    2    3    3    0    0 -0.69157371829E-01  0.39676783474E-01  0.10281319904E+00  0.13173398091E+00  0.20646999898E-01 0.  0.
         14    1    1    2    0    0  0.65257059799E-02  0.15367766131E-01 -0.17436525746E-01  0.24140950778E-01  0.00000000000E+00 0.  1.
     999901    1    3    3    0    0  0.62631665850E-01 -0.55044549605E-01 -0.85376673294E-01  0.88805506831E+00  0.88000000000E+00 0.  1.
        -11    1    4    4    0    0 -0.61437039887E-01  0.38622634022E-01  0.81983409916E-01  0.10948862202E+00  0.51100000000E-03 0.  1.
         11    1    4    4    0    0 -0.77203319421E-02  0.10541494520E-02  0.20829789124E-01  0.22245358894E-01  0.51100000000E-03 0. -1.
</event>
<event>
 8    1  0.1095698E+005  0.1043930E+01  0.7957747E-01            NaN
         13   -1    0    0    0    0  0.00000000000E+00  0.00000000000E+00  0.74505805969E-08  0.10566000000E+00  0.10566000000E+00 0. -1.
     999900   -1    0    0    0    0 -0.00000000000E+00 -0.00000000000E+00 -0.74505805969E-08  0.93827000000E+00  0.93827000000E+00 0.  1.
     999902    2    1    2    0    0  0.17260719471E-01  0.47984879399E-02  0.15207633887E-01  0.10204304244E+01  0.10201598017E+01 0.  0.
     999903    2    3    3    0    0 -0.39826820251E-01  0.11994749520E+00  0.27674301503E-01  0.13100718499E+00  0.20577617432E-01 0.  0.
         14    1    1    2    0    0 -0.17260719471E-01 -0.47984879399E-02 -0.15207633887E-01  0.23499575562E-01  0.00000000000E+00 0. -1.
     999901    1    3    3    0    0  0.57087539722E-01 -0.11514900726E+00 -0.12466667616E-01  0.88942323945E+00  0.88000000000E+00 0. -1.
        -11    1    4    4    0    0 -0.35510950011E-01  0.83106160262E-01  0.25219102867E-01  0.93829236992E-01  0.51100000000E-03 0.  1.
         11    1    4    4    0    0 -0.43158702407E-02  0.36841334940E-01  0.24551986364E-02  0.37177948000E-01  0.51100000000E-03 0. -1.
</event>
<event>
 8    1  0.1095698E+005  0.1043930E+01  0.7957747E-01            NaN
         13   -1    0    0    0    0  0.00000000000E+00  0.00000000000E+00  0.74505805969E-08  0.10566000000E+00  0.10566000000E+00 0. -1.
     999900   -1    0    0    0    0 -0.00000000000E+00 -0.00000000000E+00 -0.74505805969E-08  0.93827000000E+00  0.93827000000E+00 0. -1.
     999902    2    1    2    0    0 -0.46008372892E-02 -0.13362067082E-01  0.18798918860E-01  0.10204116690E+01  0.10201406092E+01 0.  0.
     999903    2    3    3    0    0  0.74098413321E-01  0.22204940033E-01 -0.10034434033E+00  0.12819325394E+00  0.19516390600E-01 0.  0.
         14    1    1    2    0    0  0.46008372892E-02  0.13362067082E-01 -0.18798918860E-01  0.23518330952E-01  0.00000000000E+00 0.  1.
     999901    1    3    3    0    0 -0.78699250610E-01 -0.35567007115E-01  0.11914325919E+00  0.89221841510E+00  0.88000000000E+00 0.  1.
        -11    1    4    4    0    0  0.61674749710E-01  0.10651115696E-01 -0.82638084038E-01  0.10366549605E+00  0.51100000000E-03 0.  1.
         11    1    4    4    0    0  0.12423663611E-01  0.11553824337E-01 -0.17706256291E-01  0.24527757891E-01  0.51100000000E-03 0. -1.
</event>
<event>
 8    1  0.1095698E+005  0.1043930E+01  0.7957747E-01            NaN
         13   -1    0    0    0    0  0.00000000000E+00  0.00000000000E+00  0.74505805969E-08  0.10566000000E+00  0.10566000000E+00 0. -1.
     999900   -1    0    0    0    0 -0.00000000000E+00 -0.00000000000E+00 -0.74505805969E-08  0.93827000000E+00  0.93827000000E+00 0.  1.
     999902    2    1    2    0    0 -0.24871631331E-02  0.11980263210E-01  0.19933786637E-01  0.10205405037E+01  0.10202724397E+01 0.  0.
     999903    2    3    3    0    0 -0.30727023900E-01 -0.59576333305E-01 -0.10725913541E+00  0.12807432751E+00  0.20125152201E-01 0.  0.
         14    1    1    2    0    0  0.24871631331E-02 -0.11980263210E-01 -0.19933786637E-01  0.23389496290E-01  0.00000000000E+00 0.  1.
     999901    1    3    3    0    0  0.28239860767E-01  0.71556596515E-01  0.12719292204E+00  0.89246617620E+00  0.88000000000E+00 0. -1.
        -11    1    4    4    0    0 -0.10098681857E-01 -0.40316826138E-01 -0.68543211464E-01  0.80161479552E-01  0.51100000000E-03 0.  1.
         11    1    4    4    0    0 -0.20628342043E-01 -0.19259507166E-01 -0.38715923943E-01  0.47912847959E-01  0.51100000000E-03 0. -1.
</event>
<event>
 8    1  0.1095698E+005  0.1043930E+01  0.7957747E-01            NaN
         13   -1    0    0    0    0  0.00000000000E+00  0.00000000000E+00  0.74505805969E-08  0.10566000000E+00  0.10566000000E+00 0. -1.
     999900   -1    0    0    0    0 -0.00000000000E+00 -0.00000000000E+00 -0.74505805969E-08  0.93827000000E+00  0.93827000000E+00 0. -1.
     999902    2    1    2    0    0  0.16634403887E-01 -0.12850518532E-01  0.86987636842E-02  0.10211812042E+01  0.10209277860E+01 0.  0.
     999903    2    3    3    0    0 -0.10592430057E+00  0.42898040733E-03  0.73122786273E-01  0.13025615923E+00  0.19989589038E-01 0.  0.
         14    1    1    2    0    0 -0.16634403887E-01  0.12850518532E-01 -0.86987636842E-02  0.22748795767E-01  0.00000000000E+00 0.  1.
     999901    1    3    3    0    0  0.12255870445E+00 -0.13279498940E-01 -0.64424022588E-01  0.89092504500E+00  0.88000000000E+00 0. -1.
        -11    1    4    4    0    0 -0.59492060619E-01 -0.84402151389E-02  0.46663549832E-01  0.76080815665E-01  0.51100000000E-03 0.  1.
         11    1    4    4    0    0 -0.46432239948E-01  0.88691955462E-02  0.26459236440E-01  0.54175343564E-01  0.51100000000E-03 0. -1.
</event>
<event>
 7    1  0.1095698E+005  0.1043930E+01  0.7957747E-01            NaN
         13   -1    0    0    0    0  0.00000000000E+00  0.00000000000E+00  0.74505805969E-08  0.10566000000E+00  0.10566000000E+00 0.  1.
     999900   -1    0    0    0    0 -0.00000000000E+00 -0.00000000000E+00 -0.74505805969E-08  0.93827000000E+00  0.93827000000E+00 0.  1.
     999903    2    1    2    0    0  0.73983029412E-01 -0.42903264313E-01  0.68765039576E-01  0.11172339198E+00  0.20959649774E-01 0.  0.
         14    1    1    2    0    0  0.64423698760E-02  0.34956329647E-01  0.25126944030E-01  0.43529443234E-01  0.00000000000E+00 0.  1.
     999901    1    1    2    0    0 -0.80425399288E-01  0.79469346659E-02 -0.93891983606E-01  0.88867716478E+00  0.88000000000E+00 0.  1.
        -11    1    3    3    0    0  0.17666851891E-01 -0.59080515105E-02  0.58429613392E-02  0.19530080558E-01  0.51100000000E-03 0.  1.
         11    1    3    3    0    0  0.56316177520E-01 -0.36995212802E-01  0.62922078237E-01  0.92193311425E-01  0.51100000000E-03 0. -1.
</event>
<event>
 8    1  0.1095698E+005  0.1043930E+01  0.7957747E-01            NaN
         13   -1    0    0    0    0  0.00000000000E+00  0.00000000000E+00  0.74505805969E-08  0.10566000000E+00  0.10566000000E+00 0.  1.
     999900   -1    0    0    0    0 -0.00000000000E+00 -0.00000000000E+00 -0.74505805969E-08  0.93827000000E+00  0.93827000000E+00 0.  1.
     999902    2    1    2    0    0  0.19948692818E-01 -0.96906317323E-02  0.77353705300E-02  0.10204418190E+01  0.10201714617E+01 0.  0.
     999903    2    3    3    0    0  0.75211883343E-01  0.80559990083E-01  0.69685541686E-01  0.13193913547E+00  0.20127626560E-01 0.  0.
         14    1    1    2    0    0 -0.19948692818E-01  0.96906317323E-02 -0.77353705300E-02  0.23488180980E-01  0.00000000000E+00 0.  1.
     999901    1    3    3    0    0 -0.55263190525E-01 -0.90250621815E-01 -0.61950171156E-01  0.88850268355E+00  0.88000000000E+00 0. -1.
        -11    1    4    4    0    0  0.38891143577E-01  0.27112727845E-01  0.29251091966E-01  0.55709142536E-01  0.51100000000E-03 0.  1.
         11    1    4    4    0    0  0.36320739766E-01  0.53447262237E-01  0.40434449720E-01  0.76229992936E-01  0.51100000000E-03 0. -1.
</event>
<event>
 8    1  0.1095698E+005  0.1043930E+01  0.7957747E-01            NaN
         13   -1    0    0    0    0  0.00000000000E+00  0.00000000000E+00  0.74505805969E-08  0.10566000000E+00  0.10566000000E+00 0. -1.
     999900   -1    0    0    0    0 -0.00000000000E+00 -0.00000000000E+00 -0.74505805969E-08  0.93827000000E+00  0.93827000000E+00 0. -1.
     999902    2    1    2    0    0  0.23307366450E-01 -0.29269214897E-02 -0.16934459333E-02  0.10203786102E+01  0.10201067789E+01 0.  0.
     999903    2    3    3    0    0  0.99770418341E-01 -0.36976783661E-01 -0.77700630650E-01  0.13314522294E+00  0.19205298298E-01 0.  0.
         14    1    1    2    0    0 -0.23307366450E-01  0.29269214897E-02  0.16934459333E-02  0.23551389755E-01  0.00000000000E+00 0. -1.
     999901    1    3    3    0    0 -0.76463051891E-01  0.34049862172E-01  0.76007184717E-01  0.88723338730E+00  0.88000000000E+00 0.  1.
        -11    1    4    4    0    0  0.45259774370E-01 -0.23597806620E-01 -0.45816044889E-01  0.68590631602E-01  0.51100000000E-03 0. -1.
         11    1    4    4    0    0  0.54510643971E-01 -0.13378977042E-01 -0.31884585761E-01  0.64554591339E-01  0.51100000000E-03 0.  1.
</event>
<event>
 8    1  0.1095698E+005  0.1043930E+01  0.7957747E-01            NaN
         13   -1    0    0    0    0  0.00000000000E+00  0.00000000000E+00  0.74505805969E-08  0.10566000000E+00  0.10566000000E+00 0.  1.
     999900   -1    0    0    0    0 -0.00000000000E+00 -0.00000000000E+00 -0.74505805969E-08  0.93827000000E+00  0.93827000000E+00 0. -1.
     999902    2    1    2    0    0 -0.14212729450E-01 -0.13770883225E-01 -0.25122649568E-02  0.10239813063E+01  0.10237869727E+01 0.  0.
     999903    2    3    3    0    0  0.37495549078E-01 -0.12734031431E+00 -0.15436943510E-01  0.13508378185E+00  0.19694086531E-01 0.  0.
         14    1    1    2    0    0  0.14212729450E-01  0.13770883225E-01  0.25122649568E-02  0.19948693653E-01  0.00000000000E+00 0.  1.
     999901    1    3    3    0    0 -0.51708278529E-01  0.11356943108E+00  0.12924678553E-01  0.88889752450E+00  0.88000000000E+00 0.  1.
        -11    1    4    4    0    0  0.21738738991E-01 -0.50476211634E-01  0.75687971541E-03  0.54965941289E-01  0.51100000000E-03 0. -1.
         11    1    4    4    0    0  0.15756810087E-01 -0.76864102675E-01 -0.16193823225E-01  0.80117840559E-01  0.51100000000E-03 0.  1.
</event>
<event>
 8    1  0.1095698E+005  0.1043930E+01  0.7957747E-01            NaN
         13   -1    0    0    0    0  0.00000000000E+00  0.00000000000E+00  0.74505805969E-08  0.10566000000E+00  0.10566000000E+00 0. -1.
     999900   -1    0    0    0    0 -0.00000000000E+00 -0.00000000000E+00 -0.74505805969E-08  0.93827000000E+00  0.93827000000E+00 0.  1.
     999902    2    1    2    0    0  0.11415590785E-01 -0.13704440113E-01  0.15253845845E-01  0.10204607178E+01  0.10201908005E+01 0.  0.
     999903    2    3    3    0    0  0.16854013793E-01 -0.63317167929E-01  0.11457806052E+00  0.13346787750E+00  0.19809614746E-01 0.  0.
         14    1    1    2    0    0 -0.11415590785E-01  0.13704440113E-01 -0.15253845845E-01  0.23469282154E-01  0.00000000000E+00 0.  1.
     999901    1    3    3    0    0 -0.54384230081E-02  0.49612727816E-01 -0.99324214674E-01  0.88699284035E+00  0.88000000000E+00 0.  1.
        -11    1    4    4    0    0  0.16718989038E-01 -0.64646686193E-01  0.11010387740E+00  0.12877050738E+00  0.51100000000E-03 0. -1.
         11    1    4    4    0    0  0.13502475476E-03  0.13295182642E-02  0.44741831178E-02  0.46973701228E-02  0.51100000000E-03 0.  1.
</event>
<event>
 8    1  0.1095698E+005  0.1043930E+01  0.7957747E-01            NaN
         13   -1    0    0    0    0  0.00000000000E+00  0.00000000000E+00  0.74505805969E-08  0.10566000000E+00  0.10566000000E+00 0.  1.
     999900   -1    0    0    0    0 -0.00000000000E+00 -0.00000000000E+00 -0.74505805969E-08  0.93827000000E+00  0.93827000000E+00 0.  1.
     999902    2    1    2    0    0 -0.76500436656E-03  0.21760567374E-01  0.63251946574E-02  0.10212558823E+01  0.10210041438E+01 0.  0.
     999903    2    3    3    0    0 -0.62930388553E-01 -0.86274235043E-01 -0.69656766025E-01  0.12923048367E+00  0.21094440531E-01 0.  0.
         14    1    1    2    0    0  0.76500436656E-03 -0.21760567374E-01 -0.63251946574E-02  0.22674117658E-01  0.00000000000E+00 0.  1.
     999901    1    3    3    0    0  0.62165384186E-01  0.10803480242E+00  0.75981960683E-01  0.89202539867E+00  0.88000000000E+00 0. -1.
        -11    1    4    4    0    0 -0.42447875167E-01 -0.61857009885E-01 -0.59574535354E-01  0.95799259714E-01  0.51100000000E-03 0. -1.
         11    1    4    4    0    0 -0.20482513386E-01 -0.24417225158E-01 -0.10082230672E-01  0.33431223958E-01  0.51100000000E-03 0.  1.
</event>
<event>
 8    1  0.1095698E+005  0.1043930E+01  0.7957747E-01            NaN
         13   -1    0    0    0    0  0.00000000000E+00  0.00000000000E+00  0.74505805969E-08  0.10566000000E+00  0.10566000000E+00 0.  1.
     999900   -1    0    0    0    0 -0.00000000000E+00 -0.00000000000E+00 -0.74505805969E-08  0.93827000000E+00  0.93827000000E+00 0.  1.
     999902    2    1    2    0    0 -0.20465823207E-01 -0.64729527077E-02 -0.77774616259E-02  0.10210993639E+01  0.10208440983E+01 0.  0.
     999903    2    3    3    0    0  0.92063993148E-01 -0.83965312183E-01 -0.32357024012E-01  0.13021655440E+00  0.19581152972E-01 0.  0.
         14    1    1    2    0    0  0.20465823207E-01  0.64729527077E-02  0.77774616259E-02  0.22830636120E-01  0.00000000000E+00 0. -1.
     999901    1    3    3    0    0 -0.11252981635E+00  0.77492359475E-01  0.24579562386E-01  0.89088280948E+00  0.88000000000E+00 0. -1.
        -11    1    4    4    0    0  0.55880843704E-01 -0.51482531560E-01 -0.29489919363E-01  0.81504823256E-01  0.51100000000E-03 0. -1.
         11    1    4    4    0    0  0.36183149444E-01 -0.32482780623E-01 -0.28671046485E-02  0.48711731141E-01  0.51100000000E-03 0.  1.
</event>
<event>
 8    1  0.1095698E+005  0.1043930E+01  0.7957747E-01            NaN
         13   -1    0    0    0    0  0.00000000000E+00  0.00000000000E+00  0.74505805969E-08  0.10566000000E+00  0.10566000000E+00 0.  1.
     999900   -1    0    0    0    0 -0.00000000000E+00 -0.00000000000E+00 -0.74505805969E-08  0.93827000000E+00  0.93827000000E+00 0.  1.
     999902    2    1    2    0    0  0.13453068589E-01 -0.16274722545E-01 -0.12108166719E-01  0.10195895121E+01  0.10192989326E+01 0.  0.
     999903    2    3    3    0    0  0.10719285720E+00  0.63236232504E-01  0.32098548061E-01  0.12994723932E+00  0.19153028015E-01 0.  0.
         14    1    1    2    0    0 -0.13453068589E-01  0.16274722545E-01  0.12108166719E-01  0.24340487869E-01  0.00000000000E+00 0.  1.
     999901    1    3    3    0    0 -0.93739788616E-01 -0.79510955049E-01 -0.44206714781E-01  0.88964227281E+00  0.88000000000E+00 0. -1.
        -11    1    4    4    0    0  0.35949598634E-02  0.66813918264E-02 -0.94732495372E-04  0.76049213279E-02  0.51100000000E-03 0. -1.
         11    1    4    4    0    0  0.10359789734E+00  0.56554840677E-01  0.32193280557E-01  0.12234231799E+00  0.51100000000E-03 0.  1.
</event>
<event>
 8    1  0.1095698E+005  0.1043930E+01  0.7957747E-01            NaN
         13   -1    0    0    0    0  0.00000000000E+00  0.00000000000E+00  0.74505805969E-08  0.10566000000E+00  0.10566000000E+00 0. -1.
     999900   -1    0    0    0    0 -0.00000000000E+00 -0.00000000000E+00 -0.74505805969E-08  0.93827000000E+00  0.93827000000E+00 0. -1.
     999902    2    1    2    0    0  0.95375605931E-02 -0.16873067719E-01 -0.12578739110E-01  0.10208239369E+01  0.10205624037E+01 0.  0.
     999903    2    3    3    0    0 -0.39432811012E-01  0.57236185944E-01  0.10604508225E+00  0.12843282879E+00  0.20457381913E-01 0.  0.
         14    1    1    2    0    0 -0.95375605931E-02  0.16873067719E-01  0.12578739110E-01  0.23106063141E-01  0.00000000000E+00 0. -1.
     999901    1    3    3    0    0  0.48970371605E-01 -0.74109253663E-01 -0.11862382136E+00  0.89239110807E+00  0.88000000000E+00 0. -1.
        -11    1    4    4    0    0 -0.23736138227E-01  0.19245618450E-01  0.54695910805E-01  0.62655421691E-01  0.51100000000E-03 0. -1.
         11    1    4    4    0    0 -0.15696672785E-01  0.37990567494E-01  0.51349171445E-01  0.65777407095E-01  0.51100000000E-03 0.  1.
</event>
<event>
 8    1  0.1095698E+005  0.1043930E+01  0.7957747E-01            NaN
         13   -1    0    0    0    0  0.00000000000E+00  0.00000000000E+00  0.74505805969E-08  0.10566000000E+00  0.10566000000E+00 0. -1.
     999900   -1    0    0    0    0 -0.00000000000E+00 -0.00000000000E+00 -0.74505805969E-08  0.93827000000E+00  0.93827000000E+00 0. -1.
     999902    2    1    2    0    0 -0.16468966939E-01  0.59614290277E-02  0.16358725356E-01  0.10199639114E+01  0.10196823070E+01 0.  0.
     999903    2    3    3    0    0  0.74462340274E-01  0.97961033680E-01 -0.33710405032E-01  0.12909952906E+00  0.19730503205E-01 0.  0.
         14    1    1    2    0    0  0.16468966939E-01 -0.59614290277E-02 -0.16358725356E-01  0.23966088612E-01  0.00000000000E+00 0.  1.
     999901    1    3    3    0    0 -0.90931307213E-01 -0.91999604652E-01  0.50069130388E-01  0.89086438233E+00  0.88000000000E+00 0. -1.
        -11    1    4    4    0    0  0.35975585474E-01  0.35480100726E-01 -0.70414406602E-02  0.51018852450E-01  0.51100000000E-03 0. -1.
         11    1    4    4    0    0  0.38486754800E-01  0.62480932953E-01 -0.26668964372E-01  0.78080676607E-01  0.51100000000E-03 0.  1.
</event>
<event>
 8    1  0.1095698E+005  0.1043930E+01  0.7957747E-01            NaN
         13   -1    0    0    0    0  0.00000000000E+00  0.00000000000E+00  0.74505805969E-08  0.10566000000E+00  0.10566000000E+00 0.  1.
     999900   -1    0    0    0    0 -0.00000000000E+00 -0.00000000000E+00 -0.74505805969E-08  0.93827000000E+00  0.93827000000E+00 0. -1.
     999902    2    1    2    0    0  0.19303891209E-01  0.13994185915E-01  0.92446836573E-03  0.10200693190E+01  0.10197902154E+01 0.  0.
     999903    2    3    3    0    0 -0.23814859182E-01 -0.96276143493E-01  0.79138725318E-01  0.12870169442E+00  0.21562582839E-01 0.  0.
         14    1    1    2    0    0 -0.19303891209E-01 -0.13994185915E-01 -0.92446836573E-03  0.23860680983E-01  0.00000000000E+00 0. -1.
     999901    1    3    3    0    0  0.43118750391E-01  0.11027032941E+00 -0.78214256953E-01  0.89136762459E+00  0.88000000000E+00 0. -1.
        -11    1    4    4    0    0 -0.18643888129E-01 -0.66914121455E-01  0.66988715578E-01  0.96503074305E-01  0.51100000000E-03 0.  1.
         11    1    4    4    0    0 -0.51709710526E-02 -0.29362022038E-01  0.12150009741E-01  0.32198620118E-01  0.51100000000E-03 0. -1.
</event>
<event>
 8    1  0.1095698E+005  0.1043930E+01  0.7957747E-01            NaN
         13   -1    0    0    0    0  0.00000000000E+00  0.00000000000E+00  0.74505805969E-08  0.10566000000E+00  0.10566000000E+00 0. -1.
     999900   -1    0    0    0    0 -0.00000000000E+00 -0.00000000000E+00 -0.74505805969E-08  0.93827000000E+00  0.93827000000E+00 0. -1.
     999902    2    1    2    0    0 -0.14977071511E-01 -0.14855820411E-01 -0.10666549013E-01  0.10202914015E+01  0.10200175296E+01 0.  0.
     999903    2    3    3    0    0  0.46430582335E-01  0.70424414509E-01 -0.96666545318E-01  0.12987598284E+00  0.20197841496E-01 0.  0.
         14    1    1    2    0    0  0.14977071511E-01  0.14855820411E-01  0.10666549013E-01  0.23638598499E-01  0.00000000000E+00 0.  1.
     999901    1    3    3    0    0 -0.61407653846E-01 -0.85280234919E-01  0.85999996304E-01  0.89041541866E+00  0.88000000000E+00 0.  1.
        -11    1    4    4    0    0  0.29967022010E-01  0.56352212167E-01 -0.81075922782E-01  0.10318507935E+00  0.51100000000E-03 0. -1.
         11    1    4    4    0    0  0.16463560325E-01  0.14072202341E-01 -0.15590622536E-01  0.26690903495E-01  0.51100000000E-03 0.  1.
</event>
<event>
 8    1  0.1095698E+005  0.1043930E+01  0.7957747E-01            NaN
         13   -1    0    0    0    0  0.00000000000E+00  0.00000000000E+00  0.74505805969E-08  0.10566000000E+00  0.10566000000E+00 0. -1.
     999900   -1    0    0    0    0 -0.00000000000E+00 -0.00000000000E+00 -0.74505805969E-08  0.93827000000E+00  0.93827000000E+00 0. -1.
     999902    2    1    2    0    0 -0.14104654898E-02 -0.23310410402E-01  0.28508473191E-02  0.10204035898E+01  0.10201323415E+01 0.  0.
     999903    2    3    3    0    0 -0.99379254430E-01  0.79571799306E-01 -0.48242906635E-02  0.12897690162E+00  0.20096266174E-01 0.  0.
         14    1    1    2    0    0  0.14104654898E-02  0.23310410402E-01 -0.28508473191E-02  0.23526410191E-01  0.00000000000E+00 0.  1.
     999901    1    3    3    0    0  0.97968788940E-01 -0.10288220971E+00  0.76751379827E-02  0.89142668819E+00  0.88000000000E+00 0. -1.
        -11    1    4    4    0    0 -0.41751949178E-01  0.33493542306E-01 -0.11954535027E-01  0.54847193776E-01  0.51100000000E-03 0. -1.
         11    1    4    4    0    0 -0.57627305252E-01  0.46078257000E-01  0.71302443633E-02  0.74129707840E-01  0.51100000000E-03 0.  1.
</event>
<event>
 8    1  0.1095698E+005  0.1043930E+01  0.7957747E-01            NaN
         13   -1    0    0    0    0  0.00000000000E+00  0.00000000000E+00  0.74505805969E-08  0.10566000000E+00  0.10566000000E+00 0. -1.
     999900   -1    0    0    0    0 -0.00000000000E+00 -0.00000000000E+00 -0.74505805969E-08  0.93827000000E+00  0.93827000000E+00 0.  1.
     999902    2    1    2    0    0  0.79579355637E-02 -0.14470970023E-01  0.17045200203E-01  0.10201965518E+01  0.10199204517E+01 0.  0.
     999903    2    3    3    0    0 -0.11181137295E+00 -0.49875901554E-01 -0.37942545769E-01  0.12967880993E+00  0.19686754134E-01 0.  0.
         14    1    1    2    0    0 -0.79579355637E-02  0.14470970023E-01 -0.17045200203E-01  0.23733448165E-01  0.00000000000E+00 0.  1.
     999901    1    3    3    0    0  0.11976930852E+00  0.35404931531E-01  0.54987745973E-01  0.89051774190E+00  0.88000000000E+00 0.  1.
        -11    1    4    4    0    0 -0.75092956294E-01 -0.37285713897E-01 -0.34648142392E-01  0.90718969560E-01  0.51100000000E-03 0. -1.
         11    1    4    4    0    0 -0.36718416658E-01 -0.12590187657E-01 -0.32944033773E-02  0.38959840371E-01  0.51100000000E-03 0.  1.
</event>
<event>
 8    1  0.1095698E+005  0.1043930E+01  0.7957747E-01            NaN
         13   -1    0    0    0    0  0.00000000000E+00  0.00000000000E+00  0.74505805969E-08  0.10566000000E+00  0.10566000000E+00 0.  1.
     999900   -1    0    0    0    0 -0.00000000000E+00 -0.00000000000E+00 -0.74505805969E-08  0.93827000000E+00  0.93827000000E+00 0.  1.
     999902    2    1    2    0    0 -0.81512357519E-02 -0.21161731373E-01  0.78994413740E-02  0.10199161979E+01  0.10196334577E+01 0.  0.
     999903    2    3    3    0    0 -0.60765202833E-01 -0.21030704439E-02 -0.11311663727E+00  0.12987330374E+00  0.19361524163E-01 0.  0.
         14    1    1    2    0    0  0.81512357519E-02  0.21161731373E-01 -0.78994413740E-02  0.24013802135E-01  0.00000000000E+00 0. -1.
     999901    1    3    3    0    0  0.52613967081E-01 -0.19058660929E-01  0.12101607864E+00  0.89004289412E+00  0.88000000000E+00 0. -1.
        -11    1    4    4    0    0 -0.20877356643E-01 -0.98953286803E-02 -0.43631632698E-01  0.49373697887E-01  0.51100000000E-03 0.  1.
         11    1    4    4    0    0 -0.39887846190E-01  0.77922582364E-02 -0.69485004568E-01  0.80499605855E-01  0.51100000000E-03 0. -1.
</event>
<event>
 8    1  0.1095698E+005  0.1043930E+01  0.7957747E-01            NaN
         13   -1    0    0    0    0  0.00000000000E+00  0.00000000000E+00  0.74505805969E-08  0.10566000000E+00  0.10566000000E+00 0.  1.
     999900   -1    0    0    0    0 -0.00000000000E+00 -0.00000000000E+00 -0.74505805969E-08  0.93827000000E+00  0.93827000000E+00 0.  1.
     999902    2    1    2    0    0  0.10997504556E-01 -0.67612313912E-02  0.19561085091E-01  0.10204929480E+01  0.10202237801E+01 0.  0.
     999903    2    3    3    0    0  0.52654816951E-01  0.11070819169E+00 -0.36988219205E-01  0.12991323745E+00  0.21920023945E-01 0.  0.
         14    1    1    2    0    0 -0.10997504556E-01  0.67612313912E-02 -0.19561085091E-01  0.23437051997E-01  0.00000000000E+00 0. -1.
     999901    1    3    3    0    0 -0.41657312395E-01 -0.11746942308E+00  0.56549304296E-01  0.89057971055E+00  0.88000000000E+00 0. -1.
        -11    1    4    4    0    0  0.13143637206E-01  0.45138923098E-01 -0.21980591838E-01  0.51900723656E-01  0.51100000000E-03 0.  1.
         11    1    4    4    0    0  0.39511179745E-01  0.65569268588E-01 -0.15007627368E-01  0.78012513793E-01  0.51100000000E-03 0. -1.
</event>
<event>
 8    1  0.1095698E+005  0.1043930E+01  0.7957747E-01            NaN
         13   -1    0    0    0    0  0.00000000000E+00  0.00000000000E+00  0.74505805969E-08  0.10566000000E+00  0.10566000000E+00 0.  1.
     999900   -1    0    0    0    0 -0.00000000000E+00 -0.00000000000E+00 -0.74505805969E-08  0.93827000000E+00  0.93827000000E+00 0.  1.
     999902    2    1    2    0    0 -0.15304063255E-01 -0.63045367965E-02  0.16346785628E-01  0.10206667471E+01  0.10204016021E+01 0.  0.
     999903    2    3    3    0    0  0.23443862216E-02 -0.16702486945E-01  0.13035424382E+00  0.13307602740E+00  0.20797378873E-01 0.  0.
         14    1    1    2    0    0  0.15304063255E-01  0.63045367965E-02 -0.16346785628E-01  0.23263252926E-01  0.00000000000E+00 0. -1.
     999901    1    3    3    0    0 -0.17648449477E-01  0.10397950149E-01 -0.11400745819E+00  0.88759071968E+00  0.88000000000E+00 0.  1.
        -11    1    4    4    0    0 -0.90107041791E-02 -0.67407089666E-02  0.67259412611E-01  0.68196185032E-01  0.51100000000E-03 0.  1.
         11    1    4    4    0    0  0.11355090401E-01 -0.99617779784E-02  0.63094831211E-01  0.64879842363E-01  0.51100000000E-03 0. -1.
</event>
<event>
 8    1  0.1095698E+005  0.1043930E+01  0.7957747E-01            NaN
         13   -1    0    0    0    0  0.00000000000E+00  0.00000000000E+00  0.74505805969E-08  0.10566000000E+00  0.10566000000E+00 0.  1.
     999900   -1    0    0    0    0 -0.00000000000E+00 -0.00000000000E+00 -0.74505805969E-08  0.93827000000E+00  0.93827000000E+00 0. -1.
     999902    2    1    2    0    0 -0.74248116173E-02  0.81668082462E-02  0.22730778709E-01  0.10186611875E+01  0.10183477314E+01 0.  0.
     999903    2    3    3    0    0 -0.82452818487E-02 -0.12341932653E+00  0.30249549613E-01  0.12884541109E+00  0.19641534363E-01 0.  0.
         14    1    1    2    0    0  0.74248116173E-02 -0.81668082462E-02 -0.22730778709E-01  0.25268812501E-01  0.00000000000E+00 0. -1.
     999901    1    3    3    0    0  0.82047023134E-03  0.13158613478E+00 -0.75187709042E-02  0.88981577641E+00  0.88000000000E+00 0. -1.
        -11    1    4    4    0    0  0.49135031670E-02 -0.59435484676E-01  0.18731721290E-01  0.62512861521E-01  0.51100000000E-03 0.  1.
         11    1    4    4    0    0 -0.13158785016E-01 -0.63983841855E-01  0.11517828324E-01  0.66332549565E-01  0.51100000000E-03 0. -1.
</event>
<event>
 8    1  0.1095698E+005  0.1043930E+01  0.7957747E-01            NaN
         13   -1    0    0    0    0  0.00000000000E+00  0.00000000000E+00  0.74505805969E-08  0.10566000000E+00  0.10566000000E+00 0.  1.
     999900   -1    0    0    0    0 -0.00000000000E+00 -0.00000000000E+00 -0.74505805969E-08  0.93827000000E+00  0.93827000000E+00 0.  1.
     999902    2    1    2    0    0 -0.12165096267E-02 -0.35258933973E-02  0.24882047292E-01  0.10187699504E+01  0.10184592204E+01 0.  0.
     999903    2    3    3    0    0 -0.80833140886E-01 -0.94145664623E-01 -0.29001050597E-01  0.12890808516E+00  0.19463572440E-01 0.  0.
         14    1    1    2    0    0  0.12165096267E-02  0.35258933973E-02 -0.24882047292E-01  0.25160049629E-01  0.00000000000E+00 0. -1.
     999901    1    3    3    0    0  0.79616631260E-01  0.90619771226E-01  0.53883097889E-01  0.88986186521E+00  0.88000000000E+00 0.  1.
        -11    1    4    4    0    0 -0.63013425832E-01 -0.68988083564E-01 -0.13529389593E-01  0.94410555622E-01  0.51100000000E-03 0. -1.
         11    1    4    4    0    0 -0.17819715054E-01 -0.25157581059E-01 -0.15471661004E-01  0.34497529543E-01  0.51100000000E-03 0.  1.
</event>
<event>
 8    1  0.1095698E+005  0.1043930E+01  0.7957747E-01            NaN
         13   -1    0    0    0    0  0.00000000000E+00  0.00000000000E+00  0.74505805969E-08  0.10566000000E+00  0.10566000000E+00 0. -1.
     999900   -1    0    0    0    0 -0.00000000000E+00 -0.00000000000E+00 -0.74505805969E-08  0.93827000000E+00  0.93827000000E+00 0.  1.
     999902    2    1    2    0    0  0.95676756872E-02 -0.20919867567E-01 -0.29612054405E-02  0.10207362505E+01  0.10204727057E+01 0.  0.
     999903    2    3    3    0    0 -0.12682485538E+00  0.15217830718E-02  0.16974115992E-01  0.12972336215E+00  0.21287797131E-01 0.  0.
         14    1    1    2    0    0 -0.95676756872E-02  0.20919867567E-01  0.29612054405E-02  0.23193749476E-01  0.00000000000E+00 0.  1.
     999901    1    3    3    0    0  0.13639253107E+00 -0.22441650639E-01 -0.19935321433E-01  0.89101288838E+00  0.88000000000E+00 0. -1.
        -11    1    4    4    0    0 -0.10584141205E+00 -0.63095053998E-02  0.16564329486E-01  0.10731659935E+00  0.51100000000E-03 0.  1.
         11    1    4    4    0    0 -0.20983443333E-01  0.78312884716E-02  0.40978650566E-03  0.22406762801E-01  0.51100000000E-03 0. -1.
</event>
<event>
 8    1  0.1095698E+005  0.1043930E+01  0.7957747E-01            NaN
         13   -1    0    0    0    0  0.00000000000E+00  0.00000000000E+00  0.74505805969E-08  0.10566000000E+00  0.10566000000E+00 0. -1.
     999900   -1    0    0    0    0 -0.00000000000E+00 -0.00000000000E+00 -0.74505805969E-08  0.93827000000E+00  0.93827000000E+00 0.  1.
     999902    2    1    2    0    0 -0.59486909120E-02  0.20331008985E-01 -0.10737159179E-01  0.10201808224E+01  0.10199043519E+01 0.  0.
     999903    2    3    3    0    0 -0.82114947040E-01  0.78877116118E-01  0.63430204938E-01  0.13185107329E+00  0.19921110792E-01 0.  0.
         14    1    1    2    0    0  0.59486909120E-02 -0.20331008985E-01  0.10737159179E-01  0.23749177610E-01  0.00000000000E+00 0.  1.
     999901    1    3    3    0    0  0.76166256128E-01 -0.58546107133E-01 -0.74167364117E-01  0.88832974910E+00  0.88000000000E+00 0.  1.
        -11    1    4    4    0    0 -0.49393933221E-01  0.43222577077E-01  0.25714324730E-01  0.70494251011E-01  0.51100000000E-03 0. -1.
         11    1    4    4    0    0 -0.32721013819E-01  0.35654539041E-01  0.37715880208E-01  0.61356822281E-01  0.51100000000E-03 0.  1.
</event>
<event>
 8    1  0.1095698E+005  0.1043930E+01  0.7957747E-01            NaN
         13   -1    0    0    0    0  0.00000000000E+00  0.00000000000E+00  0.74505805969E-08  0.10566000000E+00  0.10566000000E+00 0.  1.
     999900   -1    0    0    0    0 -0.00000000000E+00 -0.00000000000E+00 -0.74505805969E-08  0.93827000000E+00  0.93827000000E+00 0. -1.
     999902    2    1    2    0    0  0.11547984759E-01  0.17009979377E-02 -0.20822669924E-01  0.10200588264E+01  0.10197794744E+01 0.  0.
     999903    2    3    3    0    0 -0.12433057270E+00  0.21820095025E-01  0.14729200578E-01  0.12869375196E+00  0.20271274948E-01 0.  0.
         14    1    1    2    0    0 -0.11547984759E-01 -0.17009979377E-02  0.20822669924E-01  0.23871173594E-01  0.00000000000E+00 0.  1.
     999901    1    3    3    0    0  0.13587855746E+00 -0.20119097087E-01 -0.35551870502E-01  0.89136507445E+00  0.88000000000E+00 0. -1.
        -11    1    4    4    0    0 -0.22728191444E-01 -0.33380167511E-02 -0.90149026434E-04  0.22977865219E-01  0.51100000000E-03 0. -1.
         11    1    4    4    0    0 -0.10160238126E+00  0.25158111776E-01  0.14819349605E-01  0.10571588674E+00  0.51100000000E-03 0.  1.
</event>
<event>
 8    1  0.1095698E+005  0.1043930E+01  0.7957747E-01            NaN
         13   -1    0    0    0    0  0.00000000000E+00  0.00000000000E+00  0.74505805969E-08  0.10566000000E+00  0.10566000000E+00 0.  1.
     999900   -1    0    0    0    0 -0.00000000000E+00 -0.00000000000E+00 -0.74505805969E-08  0.93827000000E+00  0.93827000000E+00 0.  1.
     999902    2    1    2    0    0 -0.17946544259E-01  0.65814519615E-02  0.13904670625E-01  0.10202924488E+01  0.10200186014E+01 0.  0.
     999903    2    3    3    0    0  0.10119830642E+00 -0.44239422806E-01 -0.60947411789E-01  0.12766649636E+00  0.19644936662E-01 0.  0.
         14    1    1    2    0    0  0.17946544259E-01 -0.65814519615E-02 -0.13904670625E-01  0.23637551183E-01  0.00000000000E+00 0.  1.
     999901    1    3    3    0    0 -0.11914485068E+00  0.50820874767E-01  0.74852082413E-01  0.89262595246E+00  0.88000000000E+00 0. -1.
        -11    1    4    4    0    0  0.79113483498E-01 -0.33550344639E-01 -0.56172457108E-01  0.10266535421E+00  0.51100000000E-03 0. -1.
         11    1    4    4    0    0  0.22084822924E-01 -0.10689078166E-01 -0.47749546811E-02  0.25001142151E-01  0.51100000000E-03 0.  1.
</event>
<event>
 8    1  0.1095698E+005  0.1043930E+01  0.7957747E-01            NaN
         13   -1    0    0    0    0  0.00000000000E+00  0.00000000000E+00  0.74505805969E-08  0.10566000000E+00  0.10566000000E+00 0. -1.
     999900   -1    0    0    0    0 -0.00000000000E+00 -0.00000000000E+00 -0.74505805969E-08  0.93827000000E+00  0.93827000000E+00 0. -1.
     999902    2    1    2    0    0 -0.15655959993E-01  0.18144090392E-01  0.51420056651E-02  0.10194196487E+01  0.10191249496E+01 0.  0.
     999903    2    3    3    0    0  0.11513585497E+00  0.51793980920E-01 -0.16326163674E-01  0.12885819865E+00  0.19975239123E-01 0.  0.
         14    1    1    2    0    0  0.15655959993E-01 -0.18144090392E-01 -0.51420056651E-02  0.24510351318E-01  0.00000000000E+00 0.  1.
     999901    1    3    3    0    0 -0.13079181497E+00 -0.33649890528E-01  0.21468169339E-01  0.89056145004E+00  0.88000000000E+00 0.  1.
        -11    1    4    4    0    0  0.65048717262E-01  0.34850187756E-01 -0.17971673459E-01  0.75954679724E-01  0.51100000000E-03 0.  1.
         11    1    4    4    0    0  0.50087137712E-01  0.16943793164E-01  0.16455097842E-02  0.52903518923E-01  0.51100000000E-03 0. -1.
</event>
<event>
 8    1  0.1095698E+005  0.1043930E+01  0.7957747E-01            NaN
         13   -1    0    0    0    0  0.00000000000E+00  0.00000000000E+00  0.74505805969E-08  0.10566000000E+00  0.10566000000E+00 0. -1.
     999900   -1    0    0    0    0 -0.00000000000E+00 -0.00000000000E+00 -0.74505805969E-08  0.93827000000E+00  0.93827000000E+00 0. -1.
     999902    2    1    2    0    0  0.13924865712E-01 -0.17339764363E-01  0.84663787768E-02  0.10201340154E+01  0.10198564411E+01 0.  0.
     999903    2    3    3    0    0 -0.94682293602E-01  0.62426162616E-01  0.57001080163E-01  0.12855466650E+00  0.20381772190E-01 0.  0.
         14    1    1    2    0    0 -0.13924865712E-01  0.17339764363E-01 -0.84663787768E-02  0.23795984595E-01  0.00000000000E+00 0.  1.
     999901    1    3    3    0    0  0.10860715931E+00 -0.79765926978E-01 -0.48534701386E-01  0.89157934891E+00  0.88000000000E+00 0. -1.
        -11    1    4    4    0    0 -0.30686828378E-01  0.14348141637E-01  0.26040630432E-01  0.42730857219E-01  0.51100000000E-03 0. -1.
         11    1    4    4    0    0 -0.63995465224E-01  0.48078020978E-01  0.30960449731E-01  0.85823809278E-01  0.51100000000E-03 0.  1.
</event>
<event>
 8    1  0.1095698E+005  0.1043930E+01  0.7957747E-01            NaN
         13   -1    0    0    0    0  0.00000000000E+00  0.00000000000E+00  0.74505805969E-08  0.10566000000E+00  0.10566000000E+00 0.  1.
     999900   -1    0    0    0    0 -0.00000000000E+00 -0.00000000000E+00 -0.74505805969E-08  0.93827000000E+00  0.93827000000E+00 0.  1.
     999902    2    1    2    0    0  0.49995008544E-02 -0.19346693069E-01 -0.11087194017E-01  0.10210779670E+01  0.10208222173E+01 0.  0.
     999903    2    3    3    0    0 -0.61273409903E-01 -0.97558819476E-01  0.59006997002E-01  0.13235842122E+00  0.27654510560E-01 0.  0.
         14    1    1    2    0    0 -0.49995008544E-02  0.19346693069E-01  0.11087194017E-01  0.22852033010E-01  0.00000000000E+00 0.  1.
     999901    1    3    3    0    0  0.66272910758E-01  0.78212126407E-01 -0.70094191019E-01  0.88871954577E+00  0.88000000000E+00 0.  1.
        -11    1    4    4    0    0 -0.48271758415E-01 -0.62210098135E-01  0.51097661352E-01  0.93869542915E-01  0.51100000000E-03 0. -1.
         11    1    4    4    0    0 -0.13001651489E-01 -0.35348721341E-01  0.79093356497E-02  0.38488878306E-01  0.51100000000E-03 0.  1.
</event>
<event>
 8    1  0.1095698E+005  0.1043930E+01  0.7957747E-01            NaN
         13   -1    0    0    0    0  0.00000000000E+00  0.00000000000E+00  0.74505805969E-08  0.10566000000E+00  0.10566000000E+00 0. -1.
     999900   -1    0    0    0    0 -0.00000000000E+00 -0.00000000000E+00 -0.74505805969E-08  0.93827000000E+00  0.93827000000E+00 0. -1.
     999902    2    1    2    0    0 -0.23754161933E-01 -0.18702913660E-02  0.69955936164E-02  0.10190966247E+01  0.10187940096E+01 0.  0.
     999903    2    3    3    0    0  0.10728536978E+00  0.61768468142E-01 -0.18637073077E-01  0.12675236143E+00  0.19832458493E-01 0.  0.
         14    1    1    2    0    0  0.23754161933E-01  0.18702913660E-02 -0.69955936164E-02  0.24833375304E-01  0.00000000000E+00 0.  1.
     999901    1    3    3    0    0 -0.13103953171E+00 -0.63638759508E-01  0.25632666694E-01  0.89234426327E+00  0.88000000000E+00 0.  1.
        -11    1    4    4    0    0  0.92679522904E-01  0.52369243752E-01 -0.88773576394E-02  0.10682275159E+00  0.51100000000E-03 0. -1.
         11    1    4    4    0    0  0.14605846875E-01  0.93992243897E-02 -0.97597154377E-02  0.19929609843E-01  0.51100000000E-03 0.  1.
</event>
<event>
 8    1  0.1095698E+005  0.1043930E+01  0.7957747E-01            NaN
         13   -1    0    0    0    0  0.00000000000E+00  0.00000000000E+00  0.74505805969E-08  0.10566000000E+00  0.10566000000E+00 0. -1.
     999900   -1    0    0    0    0 -0.00000000000E+00 -0.00000000000E+00 -0.74505805969E-08  0.93827000000E+00  0.93827000000E+00 0.  1.
     999902    2    1    2    0    0 -0.19693566224E-01  0.16865642002E-02 -0.12341097503E-01  0.10206279886E+01  0.10203619492E+01 0.  0.
     999903    2    3    3    0    0 -0.37193995356E-01 -0.56015970656E-01  0.10966404425E+00  0.13016681470E+00  0.19900120311E-01 0.  0.
         14    1    1    2    0    0  0.19693566224E-01 -0.16865642002E-02  0.12341097503E-01  0.23302011437E-01  0.00000000000E+00 0. -1.
     999901    1    3    3    0    0  0.17500429132E-01  0.57702534856E-01 -0.12200514175E+00  0.89046117387E+00  0.88000000000E+00 0.  1.
        -11    1    4    4    0    0 -0.18476720045E-01 -0.17914036911E-01  0.56842998024E-01  0.62399434672E-01  0.51100000000E-03 0. -1.
         11    1    4    4    0    0 -0.18717275311E-01 -0.38101933745E-01  0.52821046225E-01  0.67767380025E-01  0.51100000000E-03 0.  1.
</event>
<event>
 8    1  0.1095698E+005  0.1043930E+01  0.7957747E-01            NaN
         13   -1    0    0    0    0  0.00000000000E+00  0.00000000000E+00  0.74505805969E-08  0.10566000000E+00  0.10566000000E+00 0. -1.
     999900   -1    0    0    0    0 -0.00000000000E+00 -0.00000000000E+00 -0.74505805969E-08  0.93827000000E+00  0.93827000000E+00 0. -1.
     999902    2    1    2    0    0 -0.11032441565E-01  0.21037321017E-01  0.52250827484E-02  0.10196074769E+01  0.10193173312E+01 0.  0.
     999903    2    3    3    0    0  0.95496458440E-01  0.86497564411E-01 -0.71618587779E-02  0.13068290957E+00  0.20623491675E-01 0.  0.
         14    1    1    2    0    0  0.11032441565E-01 -0.21037321017E-01 -0.52250827484E-02  0.24322523146E-01  0.00000000000E+00 0.  1.
     999901    1    3    3    0    0 -0.10652890000E+00 -0.65460243394E-01  0.12386941526E-01  0.88892456728E+00  0.88000000000E+00 0. -1.
        -11    1    4    4    0    0  0.27731150926E-01  0.13805483883E-01  0.71959188674E-03  0.30990112139E-01  0.51100000000E-03 0. -1.
         11    1    4    4    0    0  0.67765307514E-01  0.72692080528E-01 -0.78814506647E-02  0.99692797430E-01  0.51100000000E-03 0.  1.
</event>
<event>
 8    1  0.1095698E+005  0.1043930E+01  0.7957747E-01            NaN
         13   -1    0    0    0    0  0.00000000000E+00  0.00000000000E+00  0.74505805969E-08  0.10566000000E+00  0.10566000000E+00 0. -1.
     999900   -1    0    0    0    0 -0.00000000000E+00 -0.00000000000E+00 -0.74505805969E-08  0.93827000000E+00  0.93827000000E+00 0.  1.
     999902    2    1    2    0    0  0.21098445732E-02  0.81796591595E-03  0.23116704069E-01  0.10207028065E+01  0.10204384923E+01 0.  0.
     999903    2    3    3    0    0  0.73020275599E-01  0.10587642140E+00  0.18012556874E-01  0.13160684955E+00  0.21310405538E-01 0.  0.
         14    1    1    2    0    0 -0.21098445732E-02 -0.81796591595E-03 -0.23116704069E-01  0.23227193532E-01  0.00000000000E+00 0.  1.
     999901    1    3    3    0    0 -0.70910431026E-01 -0.10505845549E+00  0.51041471946E-02  0.88909595692E+00  0.88000000000E+00 0. -1.
        -11    1    4    4    0    0  0.40009168285E-01  0.59233193616E-01 -0.67233509747E-03  0.71484389403E-01  0.51100000000E-03 0. -1.
         11    1    4    4    0    0  0.33011107313E-01  0.46643227788E-01  0.18684891972E-01  0.60122460142E-01  0.51100000000E-03 0.  1.
</event>
<event>
 8    1  0.1095698E+005  0.1043930E+01  0.7957747E-01            NaN
         13   -1    0    0    0    0  0.00000000000E+00  0.00000000000E+00  0.74505805969E-08  0.10566000000E+00  0.10566000000E+00 0.  1.
     999900   -1    0    0    0    0 -0.00000000000E+00 -0.00000000000E+00 -0.74505805969E-08  0.93827000000E+00  0.93827000000E+00 0.  1.
     999902    2    1    2    0    0 -0.65170819244E-02 -0.18167336276E-01  0.11562642669E-01  0.10214306851E+01  0.10211828560E+01 0.  0.
     999903    2    3    3    0    0 -0.29686483066E-01 -0.12914868708E+00  0.57832932562E-02  0.13413869133E+00  0.19976770990E-01 0.  0.
         14    1    1    2    0    0  0.65170819244E-02  0.18167336276E-01 -0.11562642669E-01  0.22499314871E-01  0.00000000000E+00 0. -1.
     999901    1    3    3    0    0  0.23169401141E-01  0.11098135081E+00  0.57793494127E-02  0.88729199380E+00  0.88000000000E+00 0. -1.
        -11    1    4    4    0    0 -0.82177890720E-02 -0.68677790598E-01 -0.37122070593E-02  0.69269131516E-01  0.51100000000E-03 0.  1.
         11    1    4    4    0    0 -0.21468693994E-01 -0.60470896486E-01  0.94955003154E-02  0.64869559817E-01  0.51100000000E-03 0. -1.
</event>
<event>
 8    1  0.1095698E+005  0.1043930E+01  0.7957747E-01            NaN
         13   -1    0    0    0    0  0.00000000000E+00  0.00000000000E+00  0.74505805969E-08  0.10566000000E+00  0.10566000000E+00 0.  1.
     999900   -1    0    0    0    0 -0.00000000000E+00 -0.00000000000E+00 -0.74505805969E-08  0.93827000000E+00  0.93827000000E+00 0.  1.
     999902    2    1    2    0    0 -0.54766443086E-02  0.22379968966E-01 -0.50582557769E-02  0.10203409645E+01  0.10200682532E+01 0.  0.
     999903    2    3    3    0    0 -0.33461062714E-01  0.25806017499E-01 -0.12336042522E+00  0.13197714896E+00  0.20361239675E-01 0.  0.
         14    1    1    2    0    0  0.54766443086E-02 -0.22379968966E-01  0.50582557769E-02  0.23589035489E-01  0.00000000000E+00 0. -1.
     999901    1    3    3    0    0  0.27984418405E-01 -0.34260485329E-02  0.11830216944E+00  0.88836381555E+00  0.88000000000E+00 0. -1.
        -11    1    4    4    0    0 -0.66251269978E-02  0.17557478704E-01 -0.52545215538E-01  0.55798012178E-01  0.51100000000E-03 0.  1.
         11    1    4    4    0    0 -0.26835935716E-01  0.82485387951E-02 -0.70815209680E-01  0.76179136783E-01  0.51100000000E-03 0. -1.
</event>
<event>
 8    1  0.1095698E+005  0.1043930E+01  0.7957747E-01            NaN
         13   -1    0    0    0    0  0.00000000000E+00  0.00000000000E+00  0.74505805969E-08  0.10566000000E+00  0.10566000000E+00 0. -1.
     999900   -1    0    0    0    0 -0.00000000000E+00 -0.00000000000E+00 -0.74505805969E-08  0.93827000000E+00  0.93827000000E+00 0.  1.
     999902    2    1    2    0    0 -0.19077837211E-01  0.64926684529E-02 -0.12715132753E-01  0.10201015880E+01  0.10198232478E+01 0.  0.
     999903    2    3    3    0    0  0.11757742533E+00  0.46111819549E-01 -0.14912212944E-01  0.12867062319E+00  0.19570496353E-01 0.  0.
         14    1    1    2    0    0  0.19077837211E-01 -0.64926684529E-02  0.12715132753E-01  0.23828411975E-01  0.00000000000E+00 0. -1.
     999901    1    3    3    0    0 -0.13665526254E+00 -0.39619151096E-01  0.21970801907E-02  0.89143096484E+00  0.88000000000E+00 0.  1.
        -11    1    4    4    0    0  0.50097887311E-01  0.21237842182E-01 -0.16077154504E-01  0.56741345345E-01  0.51100000000E-03 0.  1.
         11    1    4    4    0    0  0.67479538016E-01  0.24873977367E-01  0.11649415605E-02  0.71929277841E-01  0.51100000000E-03 0. -1.
</event>
<event>
 8    1  0.1095698E+005  0.1043930E+01  0.7957747E-01            NaN
         13   -1    0    0    0    0  0.00000000000E+00  0.00000000000E+00  0.74505805969E-08  0.10566000000E+00  0.10566000000E+00 0.  1.
     999900   -1    0    0    0    0 -0.00000000000E+00 -0.00000000000E+00 -0.74505805969E-08  0.93827000000E+00  0.93827000000E+00 0.  1.
     999902    2    1    2    0    0 -0.79082427539E-02  0.55485890347E-02  0.21626285586E-01  0.10202440681E+01  0.10199690853E+01 0.  0.
     999903    2    3    3    0    0 -0.10452211870E+00  0.33713782438E-01  0.72472359882E-01  0.13305026600E+00  0.19713901492E-01 0.  0.
         14    1    1    2    0    0  0.79082427539E-02 -0.55485890347E-02 -0.21626285586E-01  0.23685931943E-01  0.00000000000E+00 0. -1.
     999901    1    3    3    0    0  0.96613875941E-01 -0.28165193403E-01 -0.50846074296E-01  0.88719380206E+00  0.88000000000E+00 0.  1.
        -11    1    4    4    0    0 -0.69662202331E-01  0.16414290107E-01  0.37872126093E-01  0.80974134198E-01  0.51100000000E-03 0. -1.
         11    1    4    4    0    0 -0.34859916364E-01  0.17299492331E-01  0.34600233789E-01  0.52076131798E-01  0.51100000000E-03 0.  1.
</event>
<event>
 8    1  0.1095698E+005  0.1043930E+01  0.7957747E-01            NaN
         13   -1    0    0    0    0  0.00000000000E+00  0.00000000000E+00  0.74505805969E-08  0.10566000000E+00  0.10566000000E+00 0. -1.
     999900   -1    0    0    0    0 -0.00000000000E+00 -0.00000000000E+00 -0.74505805969E-08  0.93827000000E+00  0.93827000000E+00 0. -1.
     999902    2    1    2    0    0  0.28802012208E-01  0.10928759201E-01 -0.51510560306E-02  0.10126965714E+01  0.10122148085E+01 0.  0.
     999903    2    3    3    0    0  0.39067290338E-01  0.10455347399E+00 -0.55639801012E-01  0.12623163890E+00  0.19518122447E-01 0.  0.
         14    1    1    2    0    0 -0.28802012208E-01 -0.10928759201E-01  0.51510560306E-02  0.31233428616E-01  0.00000000000E+00 0.  1.
     999901    1    3    3    0    0 -0.10265278130E-01 -0.93624714793E-01  0.50488744982E-01  0.88646493248E+00  0.88000000000E+00 0.  1.
        -11    1    4    4    0    0  0.20559031909E-01  0.36412677946E-01 -0.28387090022E-01  0.50543495221E-01  0.51100000000E-03 0.  1.
         11    1    4    4    0    0  0.18508258429E-01  0.68140796048E-01 -0.27252710991E-01  0.75688143678E-01  0.51100000000E-03 0. -1.
</event>
<event>
 8    1  0.1095698E+005  0.1043930E+01  0.7957747E-01            NaN
         13   -1    0    0    0    0  0.00000000000E+00  0.00000000000E+00  0.74505805969E-08  0.10566000000E+00  0.10566000000E+00 0.  1.
     999900   -1    0    0    0    0 -0.00000000000E+00 -0.00000000000E+00 -0.74505805969E-08  0.93827000000E+00  0.93827000000E+00 0. -1.
     999902    2    1    2    0    0  0.19887144208E-01  0.60668467468E-02 -0.19618477950E-01  0.10153434680E+01  0.10149409678E+01 0.  0.
     999903    2    3    3    0    0 -0.11833863195E+00  0.14285242026E-01  0.24723034687E-01  0.12341293430E+00  0.20283588389E-01 0.  0.
         14    1    1    2    0    0 -0.19887144208E-01 -0.60668467468E-02  0.19618477950E-01  0.28586531991E-01  0.00000000000E+00 0.  1.
     999901    1    3    3    0    0  0.13822577616E+00 -0.82183952788E-02 -0.44341512637E-01  0.89193053371E+00  0.88000000000E+00 0. -1.
        -11    1    4    4    0    0 -0.48842218563E-01  0.13046883556E-01  0.17628087973E-01  0.53542451300E-01  0.51100000000E-03 0. -1.
         11    1    4    4    0    0 -0.69496413384E-01  0.12383584699E-02  0.70949467146E-02  0.69870483002E-01  0.51100000000E-03 0.  1.
</event>
<event>
 8    1  0.1095698E+005  0.1043930E+01  0.7957747E-01            NaN
         13   -1    0    0    0    0  0.00000000000E+00  0.00000000000E+00  0.74505805969E-08  0.10566000000E+00  0.10566000000E+00 0.  1.
     999900   -1    0    0    0    0 -0.00000000000E+00 -0.00000000000E+00 -0.74505805969E-08  0.93827000000E+00  0.93827000000E+00 0. -1.
     999902    2    1    2    0    0  0.51293617553E-02 -0.12506377116E-01 -0.16499517897E-01  0.10226003514E+01  0.10223778776E+01 0.  0.
     999903    2    3    3    0    0  0.38481977457E-01  0.11554513421E+00 -0.47218167506E-01  0.13217729350E+00  0.20242058792E-01 0.  0.
         14    1    1    2    0    0 -0.51293617553E-02  0.12506377116E-01  0.16499517897E-01  0.21329648647E-01  0.00000000000E+00 0.  1.
     999901    1    3    3    0    0 -0.33352615701E-01 -0.12805151133E+00  0.30718649609E-01  0.89042305786E+00  0.88000000000E+00 0. -1.
        -11    1    4    4    0    0  0.23576892426E-01  0.83808970159E-01 -0.42208404788E-01  0.96755485071E-01  0.51100000000E-03 0. -1.
         11    1    4    4    0    0  0.14905085031E-01  0.31736164054E-01 -0.50097627180E-02  0.35421808426E-01  0.51100000000E-03 0.  1.
</event>
<event>
 8    1  0.1095698E+005  0.1043930E+01  0.7957747E-01            NaN
         13   -1    0    0    0    0  0.00000000000E+00  0.00000000000E+00  0.74505805969E-08  0.10566000000E+00  0.10566000000E+00 0. -1.
     999900   -1    0    0    0    0 -0.00000000000E+00 -0.00000000000E+00 -0.74505805969E-08  0.93827000000E+00  0.93827000000E+00 0. -1.
     999902    2    1    2    0    0 -0.15430778780E-01 -0.15096696418E-01 -0.70885791022E-02  0.10212084875E+01  0.10209556836E+01 0.  0.
     999903    2    3    3    0    0 -0.15338459299E-01  0.95184401466E-01 -0.85590846965E-01  0.13085769420E+00  0.22418840988E-01 0.  0.
         14    1    1    2    0    0  0.15430778780E-01  0.15096696418E-01  0.70885791022E-02  0.22721512497E-01  0.00000000000E+00 0. -1.
     999901    1    3    3    0    0 -0.92319481102E-04 -0.11028109788E+00  0.78502267863E-01  0.89035079330E+00  0.88000000000E+00 0.  1.
        -11    1    4    4    0    0 -0.16410354585E-01  0.62767712298E-01 -0.45289289520E-01  0.79123108578E-01  0.51100000000E-03 0. -1.
         11    1    4    4    0    0  0.10718952868E-02  0.32416689168E-01 -0.40301557445E-01  0.51734585623E-01  0.51100000000E-03 0.  1.
</event>
<event>
 8    1  0.1095698E+005  0.1043930E+01  0.7957747E-01            NaN
         13   -1    0    0    0    0  0.00000000000E+00  0.00000000000E+00  0.74505805969E-08  0.10566000000E+00  0.10566000000E+00 0. -1.
     999900   -1    0    0    0    0 -0.00000000000E+00 -0.00000000000E+00 -0.74505805969E-08  0.93827000000E+00  0.93827000000E+00 0. -1.
     999902    2    1    2    0    0 -0.17517826766E-01  0.19363521241E-02  0.16639806195E-01  0.10196914591E+01  0.10194033377E+01 0.  0.
     999903    2    3    3    0    0  0.81928370619E-01 -0.29029521663E-01 -0.90128491054E-01  0.12714011560E+00  0.22056587543E-01 0.  0.
         14    1    1    2    0    0  0.17517826766E-01 -0.19363521241E-02 -0.16639806195E-01  0.24238540888E-01  0.00000000000E+00 0.  1.
     999901    1    3    3    0    0 -0.99446197385E-01  0.30965873787E-01  0.10676829725E+00  0.89255134352E+00  0.88000000000E+00 0.  1.
        -11    1    4    4    0    0  0.36603223337E-01 -0.18019462711E-01 -0.28151542738E-01  0.49570832902E-01  0.51100000000E-03 0.  1.
         11    1    4    4    0    0  0.45325147282E-01 -0.11010058952E-01 -0.61976948316E-01  0.77569282695E-01  0.51100000000E-03 0. -1.
</event>
<event>
 8    1  0.1095698E+005  0.1043930E+01  0.7957747E-01            NaN
         13   -1    0    0    0    0  0.00000000000E+00  0.00000000000E+00  0.74505805969E-08  0.10566000000E+00  0.10566000000E+00 0.  1.
     999900   -1    0    0    0    0 -0.00000000000E+00 -0.00000000000E+00 -0.74505805969E-08  0.93827000000E+00  0.93827000000E+00 0. -1.
     999902    2    1    2    0    0 -0.13815339987E-01 -0.12054466079E-01  0.14622771795E-01  0.10204779377E+01  0.10202084209E+01 0.  0.
     999903    2    3    3    0    0 -0.10879202819E+00  0.36779027941E-01 -0.59807594139E-01  0.13090210573E+00  0.19235661530E-01 0.  0.
         14    1    1    2    0    0  0.13815339987E-01  0.12054466079E-01 -0.14622771795E-01  0.23452062306E-01  0.00000000000E+00 0. -1.
     999901    1    3    3    0    0  0.94976688201E-01 -0.48833494020E-01  0.74430365935E-01  0.88957583196E+00  0.88000000000E+00 0.  1.
        -11    1    4    4    0    0 -0.10109277889E+00  0.39085990021E-01 -0.55667774616E-01  0.12184673492E+00  0.51100000000E-03 0. -1.
         11    1    4    4    0    0 -0.76992492995E-02 -0.23069620796E-02 -0.41398195230E-02  0.90553708094E-02  0.51100000000E-03 0.  1.
</event>
<event>
 8    1  0.1095698E+005  0.1043930E+01  0.7957747E-01            NaN
         13   -1    0    0    0    0  0.00000000000E+00  0.00000000000E+00  0.74505805969E-08  0.10566000000E+00  0.10566000000E+00 0. -1.
     999900   -1    0    0    0    0 -0.00000000000E+00 -0.00000000000E+00 -0.74505805969E-08  0.93827000000E+00  0.93827000000E+00 0.  1.
     999902    2    1    2    0    0 -0.20915224136E-02  0.23083358431E-01  0.71231504671E-03  0.10207411386E+01  0.10204777061E+01 0.  0.
     999903    2    3    3    0    0  0.68186238697E-01  0.28467015685E-01  0.10688814382E+00  0.13156103639E+00  0.20579039720E-01 0.  0.
         14    1    1    2    0    0  0.20915224136E-02 -0.23083358431E-01 -0.71231504671E-03  0.23188861447E-01  0.00000000000E+00 0.  1.
     999901    1    3    3    0    0 -0.70277761110E-01 -0.53836572537E-02 -0.10617582878E+00  0.88918010217E+00  0.88000000000E+00 0.  1.
        -11    1    4    4    0    0  0.33604209466E-01  0.22777890425E-01  0.46429066730E-01  0.61676531554E-01  0.51100000000E-03 0. -1.
         11    1    4    4    0    0  0.34582029231E-01  0.56891252600E-02  0.60459077092E-01  0.69884504833E-01  0.51100000000E-03 0.  1.
</event>
<event>
 8    1  0.1095698E+005  0.1043930E+01  0.7957747E-01            NaN
         13   -1    0    0    0    0  0.00000000000E+00  0.00000000000E+00  0.74505805969E-08  0.10566000000E+00  0.10566000000E+00 0. -1.
     999900   -1    0    0    0    0 -0.00000000000E+00 -0.00000000000E+00 -0.74505805969E-08  0.93827000000E+00  0.93827000000E+00 0.  1.
     999902    2    1    2    0    0  0.80830976662E-03  0.21943132829E-01  0.96862721613E-02  0.10199304518E+01  0.10196480512E+01 0.  0.
     999903    2    3    3    0    0  0.45771588312E-01 -0.10879607659E+00  0.46109636516E-01  0.12839183868E+00  0.20657712453E-01 0.  0.
         14    1    1    2    0    0 -0.80830976662E-03 -0.21943132829E-01 -0.96862721613E-02  0.23999548150E-01  0.00000000000E+00 0.  1.
     999901    1    3    3    0    0 -0.44963278546E-01  0.13073920941E+00 -0.36423364355E-01  0.89153861317E+00  0.88000000000E+00 0. -1.
        -11    1    4    4    0    0  0.43971629529E-01 -0.91412943827E-01  0.33474605379E-01  0.10682060114E+00  0.51100000000E-03 0. -1.
         11    1    4    4    0    0  0.17999587837E-02 -0.17383132758E-01  0.12635031138E-01  0.21571237539E-01  0.51100000000E-03 0.  1.
</event>
<event>
 8    1  0.1095698E+005  0.1043930E+01  0.7957747E-01            NaN
         13   -1    0    0    0    0  0.00000000000E+00  0.00000000000E+00  0.74505805969E-08  0.10566000000E+00  0.10566000000E+00 0. -1.
     999900   -1    0    0    0    0 -0.00000000000E+00 -0.00000000000E+00 -0.74505805969E-08  0.93827000000E+00  0.93827000000E+00 0. -1.
     999902    2    1    2    0    0 -0.25978180872E-01 -0.38857864823E-02 -0.12395264930E-01  0.10148850725E+01  0.10144693700E+01 0.  0.
     999903    2    3    3    0    0 -0.10704705766E+00  0.23732472458E-01 -0.65280530262E-01  0.12914708516E+00  0.19877604793E-01 0.  0.
         14    1    1    2    0    0  0.25978180872E-01  0.38857864823E-02  0.12395264930E-01  0.29044927452E-01  0.00000000000E+00 0. -1.
     999901    1    3    3    0    0  0.81068876786E-01 -0.27618258940E-01  0.52885265332E-01  0.88573798739E+00  0.88000000000E+00 0.  1.
        -11    1    4    4    0    0 -0.32514590908E-01 -0.14724002714E-02 -0.15624245978E-01  0.36107405997E-01  0.51100000000E-03 0.  1.
         11    1    4    4    0    0 -0.74532466750E-01  0.25204872729E-01 -0.49656284284E-01  0.93039679165E-01  0.51100000000E-03 0. -1.
</event>
<event>
 8    1  0.1095698E+005  0.1043930E+01  0.7957747E-01            NaN
         13   -1    0    0    0    0  0.00000000000E+00  0.00000000000E+00  0.74505805969E-08  0.10566000000E+00  0.10566000000E+00 0. -1.
     999900   -1    0    0    0    0 -0.00000000000E+00 -0.00000000000E+00 -0.74505805969E-08  0.93827000000E+00  0.93827000000E+00 0.  1.
     999902    2    1    2    0    0 -0.24545246559E-01  0.51418403201E-02 -0.51638399869E-02  0.10183258423E+01  0.10180039038E+01 0.  0.
     999903    2    3    3    0    0 -0.12284395726E+00 -0.23952781591E-01  0.34967596604E-01  0.13146640257E+00  0.19907501416E-01 0.  0.
         14    1    1    2    0    0  0.24545246559E-01 -0.51418403201E-02  0.51638399869E-02  0.25604157747E-01  0.00000000000E+00 0.  1.
     999901    1    3    3    0    0  0.98298710697E-01  0.29094621911E-01 -0.40131436591E-01  0.88685943968E+00  0.88000000000E+00 0.  1.
        -11    1    4    4    0    0 -0.80389737147E-01 -0.10209784690E-01  0.14309788189E-01  0.82290829993E-01  0.51100000000E-03 0. -1.
         11    1    4    4    0    0 -0.42454220109E-01 -0.13742996901E-01  0.20657808416E-01  0.49175572578E-01  0.51100000000E-03 0.  1.
</event>
<event>
 8    1  0.1095698E+005  0.1043930E+01  0.7957747E-01            NaN
         13   -1    0    0    0    0  0.00000000000E+00  0.00000000000E+00  0.74505805969E-08  0.10566000000E+00  0.10566000000E+00 0. -1.
     999900   -1    0    0    0    0 -0.00000000000E+00 -0.00000000000E+00 -0.74505805969E-08  0.93827000000E+00  0.93827000000E+00 0.  1.
     999902    2    1    2    0    0  0.39247989520E-02  0.21963404729E-01  0.71044921016E-02  0.10205148553E+01  0.10202461962E+01 0.  0.
     999903    2    3    3    0    0  0.80927164795E-01 -0.95342524413E-01 -0.23631881196E-01  0.12886763244E+00  0.20223696965E-01 0.  0.
         14    1    1    2    0    0 -0.39247989520E-02 -0.21963404729E-01 -0.71044921016E-02  0.23415144718E-01  0.00000000000E+00 0.  1.
     999901    1    3    3    0    0 -0.77002365843E-01  0.11730592914E+00  0.30736373298E-01  0.89164722284E+00  0.88000000000E+00 0.  1.
        -11    1    4    4    0    0  0.32646258348E-01 -0.46231374143E-01 -0.19535270812E-01  0.59874920175E-01  0.51100000000E-03 0. -1.
         11    1    4    4    0    0  0.48280906447E-01 -0.49111150270E-01 -0.40966103839E-02  0.68992712266E-01  0.51100000000E-03 0.  1.
</event>
<event>
 8    1  0.1095698E+005  0.1043930E+01  0.7957747E-01            NaN
         13   -1    0    0    0    0  0.00000000000E+00  0.00000000000E+00  0.74505805969E-08  0.10566000000E+00  0.10566000000E+00 0. -1.
     999900   -1    0    0    0    0 -0.00000000000E+00 -0.00000000000E+00 -0.74505805969E-08  0.93827000000E+00  0.93827000000E+00 0. -1.
     999902    2    1    2    0    0 -0.51490594693E-03 -0.22776604378E-01 -0.46061241685E-03  0.10211429204E+01  0.10208886388E+01 0.  0.
     999903    2    3    3    0    0 -0.87115617110E-01 -0.67580336152E-01 -0.71445534268E-01  0.13291664474E+00  0.20152853483E-01 0.  0.
         14    1    1    2    0    0  0.51490594693E-03  0.22776604378E-01  0.46061241685E-03  0.22787079648E-01  0.00000000000E+00 0. -1.
     999901    1    3    3    0    0  0.86600711163E-01  0.44803731774E-01  0.70984921852E-01  0.88822627561E+00  0.88000000000E+00 0.  1.
        -11    1    4    4    0    0 -0.66905890851E-01 -0.61272794568E-01 -0.54903336388E-01  0.10604428816E+00  0.51100000000E-03 0.  1.
         11    1    4    4    0    0 -0.20209726258E-01 -0.63075415845E-02 -0.16542197880E-01  0.26872356577E-01  0.51100000000E-03 0. -1.
</event>
<event>
 8    1  0.1095698E+005  0.1043930E+01  0.7957747E-01            NaN
         13   -1    0    0    0    0  0.00000000000E+00  0.00000000000E+00  0.74505805969E-08  0.10566000000E+00  0.10566000000E+00 0. -1.
     999900   -1    0    0    0    0 -0.00000000000E+00 -0.00000000000E+00 -0.74505805969E-08  0.93827000000E+00  0.93827000000E+00 0.  1.
     999902    2    1    2    0    0 -0.31681787798E-03  0.12139614767E-01  0.20682230033E-01  0.10199461459E+01  0.10196641188E+01 0.  0.
     999903    2    3    3    0    0  0.29838673162E-01 -0.98128633575E-01 -0.73337841536E-01  0.12758511237E+00  0.19492222913E-01 0.  0.
         14    1    1    2    0    0  0.31681787798E-03 -0.12139614767E-01 -0.20682230033E-01  0.23983854140E-01  0.00000000000E+00 0. -1.
     999901    1    3    3    0    0 -0.30155491040E-01  0.11026824834E+00  0.94020071569E-01  0.89236103349E+00  0.88000000000E+00 0. -1.
        -11    1    4    4    0    0  0.32350291573E-01 -0.86740635320E-01 -0.67202519198E-01  0.11439807205E+00  0.51100000000E-03 0. -1.
         11    1    4    4    0    0 -0.25116184108E-02 -0.11387998255E-01 -0.61353223375E-02  0.13187040324E-01  0.51100000000E-03 0.  1.
</event>
<event>
 8    1  0.1095698E+005  0.1043930E+01  0.7957747E-01            NaN
         13   -1    0    0    0    0  0.00000000000E+00  0.00000000000E+00  0.74505805969E-08  0.10566000000E+00  0.10566000000E+00 0.  1.
     999900   -1    0    0    0    0 -0.00000000000E+00 -0.00000000000E+00 -0.74505805969E-08  0.93827000000E+00  0.93827000000E+00 0.  1.
     999902    2    1    2    0    0 -0.79181418969E-02 -0.28948894185E-02  0.22583582169E-01  0.10198240767E+01  0.10195391370E+01 0.  0.
     999903    2    3    3    0    0  0.70107632184E-01 -0.79221994685E-01  0.75287313832E-01  0.13151583527E+00  0.20905280904E-01 0.  0.
         14    1    1    2    0    0  0.79181418969E-02  0.28948894185E-02 -0.22583582169E-01  0.24105923327E-01  0.00000000000E+00 0. -1.
     999901    1    3    3    0    0 -0.78025774080E-01  0.76327105266E-01 -0.52703731662E-01  0.88830824141E+00  0.88000000000E+00 0.  1.
        -11    1    4    4    0    0  0.31954931101E-01 -0.45097980084E-01  0.28605972356E-01  0.62237514449E-01  0.51100000000E-03 0.  1.
         11    1    4    4    0    0  0.38152701082E-01 -0.34124014601E-01  0.46681341476E-01  0.69278320818E-01  0.51100000000E-03 0. -1.
</event>
<event>
 8    1  0.1095698E+005  0.1043930E+01  0.7957747E-01            NaN
         13   -1    0    0    0    0  0.00000000000E+00  0.00000000000E+00  0.74505805969E-08  0.10566000000E+00  0.10566000000E+00 0.  1.
     999900   -1    0    0    0    0 -0.00000000000E+00 -0.00000000000E+00 -0.74505805969E-08  0.93827000000E+00  0.93827000000E+00 0. -1.
     999902    2    1    2    0    0  0.21865749538E-02  0.14035732159E-01 -0.40048306502E-02  0.10291712211E+01  0.10290653918E+01 0.  0.
     999903    2    3    3    0    0 -0.67136484921E-02  0.11363950283E+00 -0.79453705056E-01  0.14029965679E+00  0.20300068205E-01 0.  0.
         14    1    1    2    0    0 -0.21865749538E-02 -0.14035732159E-01  0.40048306502E-02  0.14758778940E-01  0.00000000000E+00 0.  1.
     999901    1    3    3    0    0  0.89002234458E-02 -0.99603770675E-01  0.75448874406E-01  0.88887156427E+00  0.88000000000E+00 0.  1.
        -11    1    4    4    0    0 -0.11067972657E-01  0.37152417214E-01 -0.22384326457E-01  0.44767413545E-01  0.51100000000E-03 0.  1.
         11    1    4    4    0    0  0.43543241654E-02  0.76487085620E-01 -0.57069378599E-01  0.95532243249E-01  0.51100000000E-03 0. -1.
</event>
<event>
 8    1  0.1095698E+005  0.1043930E+01  0.7957747E-01            NaN
         13   -1    0    0    0    0  0.00000000000E+00  0.00000000000E+00  0.74505805969E-08  0.10566000000E+00  0.10566000000E+00 0. -1.
     999900   -1    0    0    0    0 -0.00000000000E+00 -0.00000000000E+00 -0.74505805969E-08  0.93827000000E+00  0.93827000000E+00 0. -1.
     999902    2    1    2    0    0  0.86681840094E-02 -0.23698024224E-02 -0.21657486252E-01  0.10204821837E+01  0.10202127657E+01 0.  0.
     999903    2    3    3    0    0  0.26574964730E-03  0.12863413267E+00  0.54258058672E-02  0.13033268132E+00  0.20257288596E-01 0.  0.
         14    1    1    2    0    0 -0.86681840094E-02  0.23698024224E-02  0.21657486252E-01  0.23447816280E-01  0.00000000000E+00 0. -1.
     999901    1    3    3    0    0  0.84024343621E-02 -0.13100393509E+00 -0.27083292119E-01  0.89014950240E+00  0.88000000000E+00 0. -1.
        -11    1    4    4    0    0 -0.84623494947E-02  0.78845987426E-01 -0.14728947478E-02  0.79314132612E-01  0.51100000000E-03 0.  1.
         11    1    4    4    0    0  0.87280991420E-02  0.49788145240E-01  0.68987006151E-02  0.51018548708E-01  0.51100000000E-03 0. -1.
</event>
<event>
 8    1  0.1095698E+005  0.1043930E+01  0.7957747E-01            NaN
         13   -1    0    0    0    0  0.00000000000E+00  0.00000000000E+00  0.74505805969E-08  0.10566000000E+00  0.10566000000E+00 0.  1.
     999900   -1    0    0    0    0 -0.00000000000E+00 -0.00000000000E+00 -0.74505805969E-08  0.93827000000E+00  0.93827000000E+00 0. -1.
     999902    2    1    2    0    0 -0.70949649580E-02 -0.12928798957E-01  0.18632977421E-01  0.10201669990E+01  0.10198902027E+01 0.  0.
     999903    2    3    3    0    0  0.25761844122E-01  0.98433899915E-01 -0.74391061681E-01  0.12767907611E+00  0.20371822547E-01 0.  0.
         14    1    1    2    0    0  0.70949649580E-02  0.12928798957E-01 -0.18632977421E-01  0.23763001026E-01  0.00000000000E+00 0. -1.
     999901    1    3    3    0    0 -0.32856809080E-01 -0.11136269887E+00  0.93024039101E-01  0.89248792286E+00  0.88000000000E+00 0.  1.
        -11    1    4    4    0    0 -0.24059018857E-02  0.16579218469E-01 -0.79309600682E-02  0.18542386511E-01  0.51100000000E-03 0. -1.
         11    1    4    4    0    0  0.28167746008E-01  0.81854681446E-01 -0.66460101613E-01  0.10913668960E+00  0.51100000000E-03 0.  1.
</event>
<event>
 8    1  0.1095698E+005  0.1043930E+01  0.7957747E-01            NaN
         13   -1    0    0    0    0  0.00000000000E+00  0.00000000000E+00  0.74505805969E-08  0.10566000000E+00  0.10566000000E+00 0.  1.
     999900   -1    0    0    0    0 -0.00000000000E+00 -0.00000000000E+00 -0.74505805969E-08  0.93827000000E+00  0.93827000000E+00 0.  1.
     999902    2    1    2    0    0 -0.23451998571E-01  0.41200030513E-02 -0.27650219233E-02  0.10199588505E+01  0.10196771257E+01 0.  0.
     999903    2    3    3    0    0 -0.99756743088E-01 -0.33485817007E-01  0.77381028400E-01  0.13223141422E+00  0.20606203406E-01 0.  0.
         14    1    1    2    0    0  0.23451998571E-01 -0.41200030513E-02  0.27650219233E-02  0.23971149500E-01  0.00000000000E+00 0. -1.
     999901    1    3    3    0    0  0.76304744517E-01  0.37605820058E-01 -0.80146050324E-01  0.88772743628E+00  0.88000000000E+00 0.  1.
        -11    1    4    4    0    0 -0.59362583917E-01 -0.19705372579E-01  0.33258593004E-01  0.70842171108E-01  0.51100000000E-03 0.  1.
         11    1    4    4    0    0 -0.40394159171E-01 -0.13780444428E-01  0.44122435397E-01  0.61389243114E-01  0.51100000000E-03 0. -1.
</event>
<event>
 8    1  0.1095698E+005  0.1043930E+01  0.7957747E-01            NaN
         13   -1    0    0    0    0  0.00000000000E+00  0.00000000000E+00  0.74505805969E-08  0.10566000000E+00  0.10566000000E+00 0. -1.
     999900   -1    0    0    0    0 -0.00000000000E+00 -0.00000000000E+00 -0.74505805969E-08  0.93827000000E+00  0.93827000000E+00 0.  1.
     999902    2    1    2    0    0 -0.60445801449E-02 -0.20360773920E-01  0.10580795932E-01  0.10202012978E+01  0.10199253094E+01 0.  0.
     999903    2    3    3    0    0  0.13591720140E-01  0.38896981125E-01 -0.11988994279E+00  0.12839432350E+00  0.20341925323E-01 0.  0.
         14    1    1    2    0    0  0.60445801449E-02  0.20360773920E-01 -0.10580795932E-01  0.23728702163E-01  0.00000000000E+00 0.  1.
     999901    1    3    3    0    0 -0.19636300285E-01 -0.59257755045E-01  0.13047073873E+00  0.89180697434E+00  0.88000000000E+00 0. -1.
        -11    1    4    4    0    0  0.75957590620E-02  0.38936066670E-01 -0.10824407281E+00  0.11528552929E+00  0.51100000000E-03 0.  1.
         11    1    4    4    0    0  0.59959610778E-02 -0.39085545389E-04 -0.11645869981E-01  0.13108794207E-01  0.51100000000E-03 0. -1.
</event>
<event>
 8    1  0.1095698E+005  0.1043930E+01  0.7957747E-01            NaN
         13   -1    0    0    0    0  0.00000000000E+00  0.00000000000E+00  0.74505805969E-08  0.10566000000E+00  0.10566000000E+00 0. -1.
     999900   -1    0    0    0    0 -0.00000000000E+00 -0.00000000000E+00 -0.74505805969E-08  0.93827000000E+00  0.93827000000E+00 0.  1.
     999902    2    1    2    0    0  0.94932642618E-02  0.21697821773E-01  0.83981037181E-02  0.10188014170E+01  0.10184914735E+01 0.  0.
     999903    2    3    3    0    0  0.12213283727E+00  0.19448622422E-01 -0.36591476650E-01  0.13047895607E+00  0.19777334470E-01 0.  0.
         14    1    1    2    0    0 -0.94932642618E-02 -0.21697821773E-01 -0.83981037181E-02  0.25128582971E-01  0.00000000000E+00 0.  1.
     999901    1    3    3    0    0 -0.11263957301E+00  0.22491993510E-02  0.44989580368E-01  0.88832246096E+00  0.88000000000E+00 0.  1.
        -11    1    4    4    0    0  0.11315523897E+00  0.18709686901E-01 -0.28090599341E-01  0.11808261254E+00  0.51100000000E-03 0. -1.
         11    1    4    4    0    0  0.89775982987E-02  0.73893552160E-03 -0.85008773091E-02  0.12396343531E-01  0.51100000000E-03 0.  1.
</event>
<event>
 8    1  0.1095698E+005  0.1043930E+01  0.7957747E-01            NaN
         13   -1    0    0    0    0  0.00000000000E+00  0.00000000000E+00  0.74505805969E-08  0.10566000000E+00  0.10566000000E+00 0. -1.
     999900   -1    0    0    0    0 -0.00000000000E+00 -0.00000000000E+00 -0.74505805969E-08  0.93827000000E+00  0.93827000000E+00 0.  1.
     999902    2    1    2    0    0 -0.24311297966E-01  0.23737068504E-02  0.16995153400E-02  0.10194440439E+01  0.10191499382E+01 0.  0.
     999903    2    3    3    0    0  0.39043414578E-01 -0.11998642163E+00 -0.14594912460E-01  0.12857293706E+00  0.19921322182E-01 0.  0.
         14    1    1    2    0    0  0.24311297966E-01 -0.23737068504E-02 -0.16995153400E-02  0.24485956085E-01  0.00000000000E+00 0.  1.
     999901    1    3    3    0    0 -0.63354712544E-01  0.12236012848E+00  0.16294427800E-01  0.89087110685E+00  0.88000000000E+00 0.  1.
        -11    1    4    4    0    0  0.49128784568E-02 -0.37299364675E-01  0.16190441331E-02  0.37659811534E-01  0.51100000000E-03 0. -1.
         11    1    4    4    0    0  0.34130536121E-01 -0.82687056958E-01 -0.16213956593E-01  0.90913125530E-01  0.51100000000E-03 0.  1.
</event>
<event>
 8    1  0.1095698E+005  0.1043930E+01  0.7957747E-01            NaN
         13   -1    0    0    0    0  0.00000000000E+00  0.00000000000E+00  0.74505805969E-08  0.10566000000E+00  0.10566000000E+00 0. -1.
     999900   -1    0    0    0    0 -0.00000000000E+00 -0.00000000000E+00 -0.74505805969E-08  0.93827000000E+00  0.93827000000E+00 0.  1.
     999902    2    1    2    0    0  0.11535877510E-01  0.20388428576E-01 -0.63403574195E-02  0.10196614067E+01  0.10193725617E+01 0.  0.
     999903    2    3    3    0    0  0.18388334788E-01 -0.65446010982E-01 -0.10864910623E+00  0.12955939720E+00  0.18965703472E-01 0.  0.
         14    1    1    2    0    0 -0.11535877510E-01 -0.20388428576E-01  0.63403574195E-02  0.24268593324E-01  0.00000000000E+00 0.  1.
     999901    1    3    3    0    0 -0.68524572777E-02  0.85834439558E-01  0.10230874881E+00  0.89010200947E+00  0.88000000000E+00 0. -1.
        -11    1    4    4    0    0  0.18287601604E-01 -0.58560793896E-01 -0.10533664027E+00  0.12190107407E+00  0.51100000000E-03 0.  1.
         11    1    4    4    0    0  0.10073318340E-03 -0.68852170858E-02 -0.33124659652E-02  0.76583231365E-02  0.51100000000E-03 0. -1.
</event>
<event>
 8    1  0.1095698E+005  0.1043930E+01  0.7957747E-01            NaN
         13   -1    0    0    0    0  0.00000000000E+00  0.00000000000E+00  0.74505805969E-08  0.10566000000E+00  0.10566000000E+00 0. -1.
     999900   -1    0    0    0    0 -0.00000000000E+00 -0.00000000000E+00 -0.74505805969E-08  0.93827000000E+00  0.93827000000E+00 0. -1.
     999902    2    1    2    0    0 -0.21281448775E-01 -0.77027527230E-02 -0.11082437956E-01  0.10187297442E+01  0.10184180079E+01 0.  0.
     999903    2    3    3    0    0  0.66183883921E-01 -0.10812419169E+00  0.58211329826E-02  0.12854977333E+00  0.20494177545E-01 0.  0.
         14    1    1    2    0    0  0.21281448775E-01  0.77027527230E-02  0.11082437956E-01  0.25200255802E-01  0.00000000000E+00 0. -1.
     999901    1    3    3    0    0 -0.87465332695E-01  0.10042143897E+00 -0.16903570939E-01  0.89017997087E+00  0.88000000000E+00 0. -1.
        -11    1    4    4    0    0  0.63686859863E-01 -0.91172742401E-01  0.36927487411E-02  0.11127615464E+00  0.51100000000E-03 0.  1.
         11    1    4    4    0    0  0.24970240575E-02 -0.16951449292E-01  0.21283842415E-02  0.17273618692E-01  0.51100000000E-03 0. -1.
</event>
<event>
 8    1  0.1095698E+005  0.1043930E+01  0.7957747E-01            NaN
         13   -1    0    0    0    0  0.00000000000E+00  0.00000000000E+00  0.74505805969E-08  0.10566000000E+00  0.10566000000E+00 0. -1.
     999900   -1    0    0    0    0 -0.00000000000E+00 -0.00000000000E+00 -0.74505805969E-08  0.93827000000E+00  0.93827000000E+00 0.  1.
     999902    2    1    2    0    0 -0.11020427087E-01 -0.20181881830E-02 -0.17177090718E-01  0.10234220664E+01  0.10232165707E+01 0.  0.
     999903    2    3    3    0    0 -0.60637983842E-01 -0.19529342321E-01 -0.11853896109E+00  0.13604234424E+00  0.19941761048E-01 0.  0.
         14    1    1    2    0    0  0.11020427087E-01  0.20181881830E-02  0.17177090718E-01  0.20507933642E-01  0.00000000000E+00 0. -1.
     999901    1    3    3    0    0  0.49617556756E-01  0.17511154138E-01  0.10136187038E+00  0.88737972212E+00  0.88000000000E+00 0. -1.
        -11    1    4    4    0    0 -0.14185444541E-01 -0.13550808782E-01 -0.29420550467E-01  0.35364970893E-01  0.51100000000E-03 0. -1.
         11    1    4    4    0    0 -0.46452539302E-01 -0.59785335394E-02 -0.89118410626E-01  0.10067737335E+00  0.51100000000E-03 0.  1.
</event>
<event>
 8    1  0.1095698E+005  0.1043930E+01  0.7957747E-01            NaN
         13   -1    0    0    0    0  0.00000000000E+00  0.00000000000E+00  0.74505805969E-08  0.10566000000E+00  0.10566000000E+00 0. -1.
     999900   -1    0    0    0    0 -0.00000000000E+00 -0.00000000000E+00 -0.74505805969E-08  0.93827000000E+00  0.93827000000E+00 0. -1.
     999902    2    1    2    0    0 -0.17446575916E-01  0.10706217109E-01  0.11698181639E-01  0.10203534534E+01  0.10200810342E+01 0.  0.
     999903    2    3    3    0    0 -0.42656770552E-01  0.29069703954E-01 -0.11800668751E+00  0.13029945243E+00  0.19690638505E-01 0.  0.
         14    1    1    2    0    0  0.17446575916E-01 -0.10706217109E-01 -0.11698181639E-01  0.23576546601E-01  0.00000000000E+00 0.  1.
     999901    1    3    3    0    0  0.25210194636E-01 -0.18363486845E-01  0.12970486915E+00  0.89005400097E+00  0.88000000000E+00 0.  1.
        -11    1    4    4    0    0 -0.30971927260E-01  0.96060742746E-02 -0.73400391336E-01  0.80245968812E-01  0.51100000000E-03 0.  1.
         11    1    4    4    0    0 -0.11684843292E-01  0.19463629680E-01 -0.44606296171E-01  0.50053483617E-01  0.51100000000E-03 0. -1.
</event>
<event>
 8    1  0.1095698E+005  0.1043930E+01  0.7957747E-01            NaN
         13   -1    0    0    0    0  0.00000000000E+00  0.00000000000E+00  0.74505805969E-08  0.10566000000E+00  0.10566000000E+00 0.  1.
     999900   -1    0    0    0    0 -0.00000000000E+00 -0.00000000000E+00 -0.74505805969E-08  0.93827000000E+00  0.93827000000E+00 0.  1.
     999902    2    1    2    0    0 -0.11775927599E-01 -0.63415377098E-02 -0.19709650277E-01  0.10201107245E+01  0.10198326002E+01 0.  0.
     999903    2    3    3    0    0  0.10344890852E+00  0.73842012210E-01  0.20054419812E-02  0.12871983955E+00  0.20259710135E-01 0.  0.
         14    1    1    2    0    0  0.11775927599E-01  0.63415377098E-02  0.19709650277E-01  0.23819275501E-01  0.00000000000E+00 0.  1.
     999901    1    3    3    0    0 -0.11522483612E+00 -0.80183549919E-01 -0.21715092258E-01  0.89139088495E+00  0.88000000000E+00 0.  1.
        -11    1    4    4    0    0  0.10663391206E-01  0.24950010577E-02  0.39621450456E-02  0.11657300573E-01  0.51100000000E-03 0. -1.
         11    1    4    4    0    0  0.92785517317E-01  0.71347011152E-01 -0.19567030644E-02  0.11706253898E+00  0.51100000000E-03 0.  1.
</event>
<event>
 8    1  0.1095698E+005  0.1043930E+01  0.7957747E-01            NaN
         13   -1    0    0    0    0  0.00000000000E+00  0.00000000000E+00  0.74505805969E-08  0.10566000000E+00  0.10566000000E+00 0. -1.
     999900   -1    0    0    0    0 -0.00000000000E+00 -0.00000000000E+00 -0.74505805969E-08  0.93827000000E+00  0.93827000000E+00 0. -1.
     999902    2    1    2    0    0  0.41267881267E-02 -0.24884906609E-01 -0.69953481772E-02  0.10177532192E+01  0.10174165279E+01 0.  0.
     999903    2    3    3    0    0 -0.92489930341E-01 -0.81179653678E-01 -0.36389005035E-01  0.13019033359E+00  0.21928061656E-01 0.  0.
         14    1    1    2    0    0 -0.41267881267E-02  0.24884906609E-01  0.69953481772E-02  0.26176780805E-01  0.00000000000E+00 0. -1.
     999901    1    3    3    0    0  0.96616718468E-01  0.56294747069E-01  0.29393656858E-01  0.88756288560E+00  0.88000000000E+00 0. -1.
        -11    1    4    4    0    0 -0.42233313969E-01 -0.49509480193E-01 -0.24933436944E-01  0.69690593602E-01  0.51100000000E-03 0. -1.
         11    1    4    4    0    0 -0.50256616372E-01 -0.31670173485E-01 -0.11455568091E-01  0.60499739991E-01  0.51100000000E-03 0.  1.
</event>
<event>
 8    1  0.1095698E+005  0.1043930E+01  0.7957747E-01            NaN
         13   -1    0    0    0    0  0.00000000000E+00  0.00000000000E+00  0.74505805969E-08  0.10566000000E+00  0.10566000000E+00 0.  1.
     999900   -1    0    0    0    0 -0.00000000000E+00 -0.00000000000E+00 -0.74505805969E-08  0.93827000000E+00  0.93827000000E+00 0. -1.
     999902    2    1    2    0    0 -0.76308717407E-02  0.22579612450E-01 -0.36175576905E-02  0.10198228263E+01  0.10195378566E+01 0.  0.
     999903    2    3    3    0    0 -0.53686678230E-01 -0.93819158157E-01  0.65705698758E-01  0.12826490611E+00  0.21221532284E-01 0.  0.
         14    1    1    2    0    0  0.76308717407E-02 -0.22579612450E-01  0.36175576905E-02  0.24107173737E-01  0.00000000000E+00 0.  1.
     999901    1    3    3    0    0  0.46055806489E-01  0.11639877061E+00 -0.69323256449E-01  0.89155792016E+00  0.88000000000E+00 0.  1.
        -11    1    4    4    0    0 -0.48656116548E-01 -0.75217767046E-01  0.61126654647E-01  0.10845210550E+00  0.51100000000E-03 0.  1.
         11    1    4    4    0    0 -0.50305616820E-02 -0.18601391110E-01  0.45790441113E-02  0.19812800611E-01  0.51100000000E-03 0. -1.
</event>
<event>
 8    1  0.1095698E+005  0.1043930E+01  0.7957747E-01            NaN
         13   -1    0    0    0    0  0.00000000000E+00  0.00000000000E+00  0.74505805969E-08  0.10566000000E+00  0.10566000000E+00 0. -1.
     999900   -1    0    0    0    0 -0.00000000000E+00 -0.00000000000E+00 -0.74505805969E-08  0.93827000000E+00  0.93827000000E+00 0.  1.
     999902    2    1    2    0    0  0.10565651887E-01 -0.19851265122E-01  0.19119460046E-01  0.10144128951E+01  0.10139833639E+01 0.  0.
     999903    2    3    3    0    0 -0.22853664228E-01  0.64894867880E-01  0.10327706308E+00  0.12571651285E+00  0.20121033772E-01 0.  0.
         14    1    1    2    0    0 -0.10565651887E-01  0.19851265122E-01 -0.19119460046E-01  0.29517104858E-01  0.00000000000E+00 0.  1.
     999901    1    3    3    0    0  0.33419316115E-01 -0.84746133002E-01 -0.84157603031E-01  0.88869638229E+00  0.88000000000E+00 0.  1.
        -11    1    4    4    0    0 -0.41008479727E-02  0.96031343790E-02  0.31505653230E-01  0.33194946158E-01  0.51100000000E-03 0.  1.
         11    1    4    4    0    0 -0.18752816255E-01  0.55291733501E-01  0.71771409847E-01  0.92521566693E-01  0.51100000000E-03 0. -1.
</event>
<event>
 8    1  0.1095698E+005  0.1043930E+01  0.7957747E-01            NaN
         13   -1    0    0    0    0  0.00000000000E+00  0.00000000000E+00  0.74505805969E-08  0.10566000000E+00  0.10566000000E+00 0.  1.
     999900   -1    0    0    0    0 -0.00000000000E+00 -0.00000000000E+00 -0.74505805969E-08  0.93827000000E+00  0.93827000000E+00 0. -1.
     999902    2    1    2    0    0  0.22869878719E-01 -0.23870802491E-02  0.42656288178E-03  0.10209319248E+01  0.10206728583E+01 0.  0.
     999903    2    3    3    0    0 -0.76535415960E-01 -0.85285916879E-02  0.10228806398E+00  0.12947530999E+00  0.19251002338E-01 0.  0.
         14    1    1    2    0    0 -0.22869878719E-01  0.23870802491E-02 -0.42656288178E-03  0.22998075150E-01  0.00000000000E+00 0. -1.
     999901    1    3    3    0    0  0.99405294679E-01  0.61415114389E-02 -0.10186150110E+00  0.89145661486E+00  0.88000000000E+00 0.  1.
        -11    1    4    4    0    0 -0.48851541058E-01 -0.12054418666E-01  0.54851532644E-01  0.74436105671E-01  0.51100000000E-03 0. -1.
         11    1    4    4    0    0 -0.27683874903E-01  0.35258269778E-02  0.47436531338E-01  0.55039204317E-01  0.51100000000E-03 0.  1.
</event>
<event>
 8    1  0.1095698E+005  0.1043930E+01  0.7957747E-01            NaN
         13   -1    0    0    0    0  0.00000000000E+00  0.00000000000E+00  0.74505805969E-08  0.10566000000E+00  0.10566000000E+00 0.  1.
     999900   -1    0    0    0    0 -0.00000000000E+00 -0.00000000000E+00 -0.74505805969E-08  0.93827000000E+00  0.93827000000E+00 0.  1.
     999902    2    1    2    0    0  0.22950145798E-01 -0.22592651503E-02 -0.99929306314E-03  0.10208472779E+01  0.10205862790E+01 0.  0.
     999903    2    3    3    0    0 -0.10639199637E+00  0.60441175169E-01 -0.33836889291E-01  0.12858103814E+00  0.20390089378E-01 0.  0.
         14    1    1    2    0    0 -0.22950145798E-01  0.22592651503E-02  0.99929306314E-03  0.23082722062E-01  0.00000000000E+00 0. -1.
     999901    1    3    3    0    0  0.12934214217E+00 -0.62700440319E-01  0.32837596228E-01  0.89226623980E+00  0.88000000000E+00 0. -1.
        -11    1    4    4    0    0 -0.46139166614E-01  0.14852480631E-01 -0.12168407772E-01  0.49977496390E-01  0.51100000000E-03 0.  1.
         11    1    4    4    0    0 -0.60252829756E-01  0.45588694538E-01 -0.21668481519E-01  0.78603541750E-01  0.51100000000E-03 0. -1.
</event>
<event>
 8    1  0.1095698E+005  0.1043930E+01  0.7957747E-01            NaN
         13   -1    0    0    0    0  0.00000000000E+00  0.00000000000E+00  0.74505805969E-08  0.10566000000E+00  0.10566000000E+00 0. -1.
     999900   -1    0    0    0    0 -0.00000000000E+00 -0.00000000000E+00 -0.74505805969E-08  0.93827000000E+00  0.93827000000E+00 0. -1.
     999902    2    1    2    0    0 -0.14219904541E-01 -0.17493021560E-01  0.65798771831E-02  0.10204458293E+01  0.10201755654E+01 0.  0.
     999903    2    3    3    0    0  0.39001368145E-01  0.47113418658E-01 -0.11128209663E+00  0.12865104304E+00  0.20654416230E-01 0.  0.
         14    1    1    2    0    0  0.14219904541E-01  0.17493021560E-01 -0.65798771831E-02  0.23484170673E-01  0.00000000000E+00 0. -1.
     999901    1    3    3    0    0 -0.53221272686E-01 -0.64606440218E-01  0.11786197381E+00  0.89179478629E+00  0.88000000000E+00 0.  1.
        -11    1    4    4    0    0  0.22864312664E-01  0.17866014257E-01 -0.68320449851E-01  0.74228810093E-01  0.51100000000E-03 0.  1.
         11    1    4    4    0    0  0.16137055480E-01  0.29247404402E-01 -0.42961646777E-01  0.54422232944E-01  0.51100000000E-03 0. -1.
</event>
<event>
 8    1  0.1095698E+005  0.1043930E+01  0.7957747E-01            NaN
         13   -1    0    0    0    0  0.00000000000E+00  0.00000000000E+00  0.74505805969E-08  0.10566000000E+00  0.10566000000E+00 0. -1.
     999900   -1    0    0    0    0 -0.00000000000E+00 -0.00000000000E+00 -0.74505805969E-08  0.93827000000E+00  0.93827000000E+00 0. -1.
     999902    2    1    2    0    0  0.20077901892E-01  0.42124538508E-02  0.12849276029E-01  0.10197231661E+01  0.10194358071E+01 0.  0.
     999903    2    3    3    0    0 -0.56152183970E-01  0.27028602015E-01  0.11292038557E+00  0.13048426146E+00  0.19786761219E-01 0.  0.
         14    1    1    2    0    0 -0.20077901892E-01 -0.42124538508E-02 -0.12849276029E-01  0.24206833876E-01  0.00000000000E+00 0.  1.
     999901    1    3    3    0    0  0.76230085861E-01 -0.22816148164E-01 -0.10007110954E+00  0.88923890467E+00  0.88000000000E+00 0. -1.
        -11    1    4    4    0    0 -0.41318331823E-01  0.28789799047E-01  0.84365628462E-01  0.98254147294E-01  0.51100000000E-03 0.  1.
         11    1    4    4    0    0 -0.14833852147E-01 -0.17611970318E-02  0.28554757108E-01  0.32230114164E-01  0.51100000000E-03 0. -1.
</event>
<event>
 8    1  0.1095698E+005  0.1043930E+01  0.7957747E-01            NaN
         13   -1    0    0    0    0  0.00000000000E+00  0.00000000000E+00  0.74505805969E-08  0.10566000000E+00  0.10566000000E+00 0. -1.
     999900   -1    0    0    0    0 -0.00000000000E+00 -0.00000000000E+00 -0.74505805969E-08  0.93827000000E+00  0.93827000000E+00 0.  1.
     999902    2    1    2    0    0 -0.26446917960E-03 -0.17085097327E-02  0.23586637689E-01  0.10202800861E+01  0.10200059488E+01 0.  0.
     999903    2    3    3    0    0  0.75770685327E-01  0.91807631849E-01  0.52353091827E-01  0.13159897213E+00  0.20189235307E-01 0.  0.
         14    1    1    2    0    0  0.26446917960E-03  0.17085097327E-02 -0.23586637689E-01  0.23649913888E-01  0.00000000000E+00 0.  1.
     999901    1    3    3    0    0 -0.76035154506E-01 -0.93516141582E-01 -0.28766454137E-01  0.88868111398E+00  0.88000000000E+00 0. -1.
        -11    1    4    4    0    0  0.41234121257E-01  0.58047315598E-01  0.21878280205E-01  0.74489354070E-01  0.51100000000E-03 0.  1.
         11    1    4    4    0    0  0.34536564069E-01  0.33760316251E-01  0.30474811621E-01  0.57109618064E-01  0.51100000000E-03 0. -1.
</event>
<event>
 8    1  0.1095698E+005  0.1043930E+01  0.7957747E-01            NaN
         13   -1    0    0    0    0  0.00000000000E+00  0.00000000000E+00  0.74505805969E-08  0.10566000000E+00  0.10566000000E+00 0. -1.
     999900   -1    0    0    0    0 -0.00000000000E+00 -0.00000000000E+00 -0.74505805969E-08  0.93827000000E+00  0.93827000000E+00 0. -1.
     999902    2    1    2    0    0 -0.19957962845E-01  0.79505798214E-02  0.97325990526E-02  0.10203449309E+01  0.10200723124E+01 0.  0.
     999903    2    3    3    0    0  0.97343678292E-01 -0.36456360770E-01  0.73903913707E-01  0.12913810360E+00  0.20248540613E-01 0.  0.
         14    1    1    2    0    0  0.19957962845E-01 -0.79505798214E-02 -0.97325990526E-02  0.23585069106E-01  0.00000000000E+00 0.  1.
     999901    1    3    3    0    0 -0.11730164114E+00  0.44406940591E-01 -0.64171314654E-01  0.89120682729E+00  0.88000000000E+00 0. -1.
        -11    1    4    4    0    0  0.27893965963E-01 -0.15656809567E-02  0.23411575450E-01  0.36453911726E-01  0.51100000000E-03 0. -1.
         11    1    4    4    0    0  0.69449712328E-01 -0.34890679813E-01  0.50492338256E-01  0.92684191877E-01  0.51100000000E-03 0.  1.
</event>
<event>
 8    1  0.1095698E+005  0.1043930E+01  0.7957747E-01            NaN
         13   -1    0    0    0    0  0.00000000000E+00  0.00000000000E+00  0.74505805969E-08  0.10566000000E+00  0.10566000000E+00 0.  1.
     999900   -1    0    0    0    0 -0.00000000000E+00 -0.00000000000E+00 -0.74505805969E-08  0.93827000000E+00  0.93827000000E+00 0.  1.
     999902    2    1    2    0    0 -0.12220195890E-01  0.20755776014E-01  0.40547237831E-02  0.10195050904E+01  0.10192124671E+01 0.  0.
     999903    2    3    3    0    0 -0.91931414560E-01 -0.37478829649E-01 -0.81350534199E-01  0.12987640054E+00  0.19847477105E-01 0.  0.
         14    1    1    2    0    0  0.12220195890E-01 -0.20755776014E-01 -0.40547237831E-02  0.24424909631E-01  0.00000000000E+00 0.  1.
     999901    1    3    3    0    0  0.79711218670E-01  0.58234605664E-01  0.85405257982E-01  0.88962868983E+00  0.88000000000E+00 0. -1.
        -11    1    4    4    0    0 -0.76589021019E-01 -0.38756317496E-01 -0.68967597194E-01  0.11011231026E+00  0.51100000000E-03 0. -1.
         11    1    4    4    0    0 -0.15342393541E-01  0.12774878466E-02 -0.12382937005E-01  0.19764090281E-01  0.51100000000E-03 0.  1.
</event>
<event>
 8    1  0.1095698E+005  0.1043930E+01  0.7957747E-01            NaN
         13   -1    0    0    0    0  0.00000000000E+00  0.00000000000E+00  0.74505805969E-08  0.10566000000E+00  0.10566000000E+00 0. -1.
     999900   -1    0    0    0    0 -0.00000000000E+00 -0.00000000000E+00 -0.74505805969E-08  0.93827000000E+00  0.93827000000E+00 0.  1.
     999902    2    1    2    0    0 -0.23672300099E-01  0.14184806571E-02 -0.61419466363E-02  0.10194327882E+01  0.10191384088E+01 0.  0.
     999903    2    3    3    0    0  0.71473837316E-01  0.93741064799E-01  0.45590545414E-01  0.12799995404E+00  0.20238422712E-01 0.  0.
         14    1    1    2    0    0  0.23672300099E-01 -0.14184806571E-02  0.61419466363E-02  0.24497211838E-01  0.00000000000E+00 0.  1.
     999901    1    3    3    0    0 -0.95146137416E-01 -0.92322584142E-01 -0.51732492050E-01  0.89143283412E+00  0.88000000000E+00 0.  1.
        -11    1    4    4    0    0  0.55664363410E-01  0.84436499304E-01  0.36496700507E-01  0.10751890084E+00  0.51100000000E-03 0. -1.
         11    1    4    4    0    0  0.15809473906E-01  0.93045654950E-02  0.90938449072E-02  0.20481053206E-01  0.51100000000E-03 0.  1.
</event>
<event>
 8    1  0.1095698E+005  0.1043930E+01  0.7957747E-01            NaN
         13   -1    0    0    0    0  0.00000000000E+00  0.00000000000E+00  0.74505805969E-08  0.10566000000E+00  0.10566000000E+00 0. -1.
     999900   -1    0    0    0    0 -0.00000000000E+00 -0.00000000000E+00 -0.74505805969E-08  0.93827000000E+00  0.93827000000E+00 0.  1.
     999902    2    1    2    0    0 -0.33015945041E-02 -0.55989362225E-02 -0.21628111293E-01  0.10213462932E+01  0.10210965806E+01 0.  0.
     999903    2    3    3    0    0  0.76439259124E-01 -0.10267272688E+00  0.19612192417E-01  0.13146838744E+00  0.22685890415E-01 0.  0.
         14    1    1    2    0    0  0.33015945041E-02  0.55989362225E-02  0.21628111293E-01  0.22583706764E-01  0.00000000000E+00 0. -1.
     999901    1    3    3    0    0 -0.79740853628E-01  0.97073790661E-01 -0.41240303710E-01  0.88987790579E+00  0.88000000000E+00 0. -1.
        -11    1    4    4    0    0  0.38346824582E-01 -0.33232585378E-01  0.59227196604E-02  0.51090345620E-01  0.51100000000E-03 0. -1.
         11    1    4    4    0    0  0.38092434542E-01 -0.69440141506E-01  0.13689472757E-01  0.80378041821E-01  0.51100000000E-03 0.  1.
</event>
<event>
 8    1  0.1095698E+005  0.1043930E+01  0.7957747E-01            NaN
         13   -1    0    0    0    0  0.00000000000E+00  0.00000000000E+00  0.74505805969E-08  0.10566000000E+00  0.10566000000E+00 0.  1.
     999900   -1    0    0    0    0 -0.00000000000E+00 -0.00000000000E+00 -0.74505805969E-08  0.93827000000E+00  0.93827000000E+00 0. -1.
     999902    2    1    2    0    0  0.12457303363E-01 -0.18822552356E-01 -0.79155195076E-02  0.10200107957E+01  0.10197303051E+01 0.  0.
     999903    2    3    3    0    0 -0.90933938410E-01  0.34757786906E-02  0.88581090462E-01  0.12843995716E+00  0.19213297862E-01 0.  0.
         14    1    1    2    0    0 -0.12457303363E-01  0.18822552356E-01  0.79155195076E-02  0.23919204279E-01  0.00000000000E+00 0.  1.
     999901    1    3    3    0    0  0.10339124177E+00 -0.22298331046E-01 -0.96496609969E-01  0.89157083856E+00  0.88000000000E+00 0. -1.
        -11    1    4    4    0    0 -0.30788962183E-01 -0.93474692788E-03  0.18310154212E-01  0.35837924220E-01  0.51100000000E-03 0.  1.
         11    1    4    4    0    0 -0.60144976227E-01  0.44105256185E-02  0.70270936250E-01  0.92602032937E-01  0.51100000000E-03 0. -1.
</event>
<event>
 8    1  0.1095698E+005  0.1043930E+01  0.7957747E-01            NaN
         13   -1    0    0    0    0  0.00000000000E+00  0.00000000000E+00  0.74505805969E-08  0.10566000000E+00  0.10566000000E+00 0. -1.
     999900   -1    0    0    0    0 -0.00000000000E+00 -0.00000000000E+00 -0.74505805969E-08  0.93827000000E+00  0.93827000000E+00 0.  1.
     999902    2    1    2    0    0 -0.15629641143E-01  0.17024549491E-01 -0.38345339363E-02  0.10205029938E+01  0.10202340593E+01 0.  0.
     999903    2    3    3    0    0 -0.12443227699E+00 -0.73011414247E-02  0.39662406682E-01  0.13240292253E+00  0.20511683636E-01 0.  0.
         14    1    1    2    0    0  0.15629641143E-01 -0.17024549491E-01  0.38345339363E-02  0.23427006171E-01  0.00000000000E+00 0.  1.
     999901    1    3    3    0    0  0.10880263585E+00  0.24325690916E-01 -0.43496940619E-01  0.88810007130E+00  0.88000000000E+00 0.  1.
        -11    1    4    4    0    0 -0.94264231060E-01 -0.11749677346E-01  0.23378951665E-01  0.97829630875E-01  0.51100000000E-03 0. -1.
         11    1    4    4    0    0 -0.30168045933E-01  0.44485359210E-02  0.16283455018E-01  0.34573291651E-01  0.51100000000E-03 0.  1.
</event>
<event>
 8    1  0.1095698E+005  0.1043930E+01  0.7957747E-01            NaN
         13   -1    0    0    0    0  0.00000000000E+00  0.00000000000E+00  0.74505805969E-08  0.10566000000E+00  0.10566000000E+00 0.  1.
     999900   -1    0    0    0    0 -0.00000000000E+00 -0.00000000000E+00 -0.74505805969E-08  0.93827000000E+00  0.93827000000E+00 0. -1.
     999902    2    1    2    0    0 -0.43287115060E-02 -0.18731320210E-01  0.14266445797E-01  0.10199898334E+01  0.10197088451E+01 0.  0.
     999903    2    3    3    0    0  0.80581417488E-01 -0.28046600383E-01  0.98829618343E-01  0.13181899704E+00  0.18137747404E-01 0.  0.
         14    1    1    2    0    0  0.43287115060E-02  0.18731320210E-01 -0.14266445797E-01  0.23940166579E-01  0.00000000000E+00 0. -1.
     999901    1    3    3    0    0 -0.84910128994E-01  0.93152801723E-02 -0.84563172546E-01  0.88817083638E+00  0.88000000000E+00 0.  1.
        -11    1    4    4    0    0  0.34277803525E-01 -0.25924111617E-02  0.38055874513E-01  0.51285466909E-01  0.51100000000E-03 0.  1.
         11    1    4    4    0    0  0.46303613963E-01 -0.25454189221E-01  0.60773743830E-01  0.80533530129E-01  0.51100000000E-03 0. -1.
</event>
<event>
 8    1  0.1095698E+005  0.1043930E+01  0.7957747E-01            NaN
         13   -1    0    0    0    0  0.00000000000E+00  0.00000000000E+00  0.74505805969E-08  0.10566000000E+00  0.10566000000E+00 0. -1.
     999900   -1    0    0    0    0 -0.00000000000E+00 -0.00000000000E+00 -0.74505805969E-08  0.93827000000E+00  0.93827000000E+00 0.  1.
     999902    2    1    2    0    0  0.10053105430E-01  0.72756183090E-02  0.18993224928E-01  0.10212420705E+01  0.10209900217E+01 0.  0.
     999903    2    3    3    0    0  0.24563266877E-01  0.16027964249E-01  0.12945066956E+00  0.13417499560E+00  0.19626611475E-01 0.  0.
         14    1    1    2    0    0 -0.10053105430E-01 -0.72756183090E-02 -0.18993224928E-01  0.22687929472E-01  0.00000000000E+00 0.  1.
     999901    1    3    3    0    0 -0.14510161447E-01 -0.87523459402E-02 -0.11045744463E+00  0.88706707493E+00  0.88000000000E+00 0.  1.
        -11    1    4    4    0    0 -0.25493872258E-02  0.50669784603E-02  0.14963640209E-01  0.16010786840E-01  0.51100000000E-03 0. -1.
         11    1    4    4    0    0  0.27112654103E-01  0.10960985789E-01  0.11448702935E+00  0.11816420876E+00  0.51100000000E-03 0.  1.
</event>
<event>
 8    1  0.1095698E+005  0.1043930E+01  0.7957747E-01            NaN
         13   -1    0    0    0    0  0.00000000000E+00  0.00000000000E+00  0.74505805969E-08  0.10566000000E+00  0.10566000000E+00 0. -1.
     999900   -1    0    0    0    0 -0.00000000000E+00 -0.00000000000E+00 -0.74505805969E-08  0.93827000000E+00  0.93827000000E+00 0.  1.
     999902    2    1    2    0    0 -0.22578629665E-01 -0.63370737922E-02  0.88827276335E-02  0.10188530011E+01  0.10185443447E+01 0.  0.
     999903    2    3    3    0    0 -0.60951815110E-01 -0.11160506370E+00  0.27990997817E-01  0.13154303441E+00  0.18688497389E-01 0.  0.
         14    1    1    2    0    0  0.22578629665E-01  0.63370737922E-02 -0.88827276335E-02  0.25076998864E-01  0.00000000000E+00 0. -1.
     999901    1    3    3    0    0  0.38373185444E-01  0.10526798991E+00 -0.19108270183E-01  0.88730996673E+00  0.88000000000E+00 0. -1.
        -11    1    4    4    0    0 -0.21687388688E-01 -0.24500141912E-01  0.10812644299E-01  0.34464099866E-01  0.51100000000E-03 0.  1.
         11    1    4    4    0    0 -0.39264426422E-01 -0.87104921788E-01  0.17178353517E-01  0.97078934545E-01  0.51100000000E-03 0. -1.
</event>
<event>
 8    1  0.1095698E+005  0.1043930E+01  0.7957747E-01            NaN
         13   -1    0    0    0    0  0.00000000000E+00  0.00000000000E+00  0.74505805969E-08  0.10566000000E+00  0.10566000000E+00 0.  1.
     999900   -1    0    0    0    0 -0.00000000000E+00 -0.00000000000E+00 -0.74505805969E-08  0.93827000000E+00  0.93827000000E+00 0.  1.
     999902    2    1    2    0    0 -0.21444775624E-01  0.15896505922E-01  0.10389461749E-01  0.10152853108E+01  0.10148811478E+01 0.  0.
     999903    2    3    3    0    0 -0.88572821383E-01  0.83867550187E-01 -0.36819965748E-01  0.12885710312E+00  0.19223227726E-01 0.  0.
         14    1    1    2    0    0  0.21444775624E-01 -0.15896505922E-01 -0.10389461749E-01  0.28644689168E-01  0.00000000000E+00 0.  1.
     999901    1    3    3    0    0  0.67128045759E-01 -0.67971044266E-01  0.47209427497E-01  0.88642820771E+00  0.88000000000E+00 0. -1.
        -11    1    4    4    0    0 -0.43318071832E-01  0.44302166457E-01 -0.28382663110E-01  0.68154046000E-01  0.51100000000E-03 0.  1.
         11    1    4    4    0    0 -0.45254749551E-01  0.39565383730E-01 -0.84373026379E-02  0.60703057118E-01  0.51100000000E-03 0. -1.
</event>
<event>
 8    1  0.1095698E+005  0.1043930E+01  0.7957747E-01            NaN
         13   -1    0    0    0    0  0.00000000000E+00  0.00000000000E+00  0.74505805969E-08  0.10566000000E+00  0.10566000000E+00 0.  1.
     999900   -1    0    0    0    0 -0.00000000000E+00 -0.00000000000E+00 -0.74505805969E-08  0.93827000000E+00  0.93827000000E+00 0. -1.
     999902    2    1    2    0    0  0.13799237400E-01 -0.13016324287E-01 -0.14973438651E-01  0.10197629250E+01  0.10194765204E+01 0.  0.
     999903    2    3    3    0    0 -0.72163883642E-01  0.22656137189E-01  0.99738279577E-01  0.12745078172E+00  0.23980214608E-01 0.  0.
         14    1    1    2    0    0 -0.13799237400E-01  0.13016324287E-01  0.14973438651E-01  0.24167075036E-01  0.00000000000E+00 0.  1.
     999901    1    3    3    0    0  0.85963121043E-01 -0.35672461476E-01 -0.11471171823E+00  0.89231214325E+00  0.88000000000E+00 0. -1.
        -11    1    4    4    0    0 -0.35401293013E-02  0.84674065150E-02  0.98270010003E-02  0.13455874487E-01  0.51100000000E-03 0.  1.
         11    1    4    4    0    0 -0.68623754341E-01  0.14188730674E-01  0.89911278577E-01  0.11399490723E+00  0.51100000000E-03 0. -1.
</event>
<event>
 8    1  0.1095698E+005  0.1043930E+01  0.7957747E-01            NaN
         13   -1    0    0    0    0  0.00000000000E+00  0.00000000000E+00  0.74505805969E-08  0.10566000000E+00  0.10566000000E+00 0. -1.
     999900   -1    0    0    0    0 -0.00000000000E+00 -0.00000000000E+00 -0.74505805969E-08  0.93827000000E+00  0.93827000000E+00 0. -1.
     999902    2    1    2    0    0 -0.18549264742E-01 -0.13510275707E-01  0.58071585686E-02  0.10202587968E+01  0.10199841599E+01 0.  0.
     999903    2    3    3    0    0 -0.99208224464E-01 -0.26459769658E-02  0.86076839442E-01  0.13286535390E+00  0.19867233888E-01 0.  0.
         14    1    1    2    0    0  0.18549264742E-01  0.13510275707E-01 -0.58071585686E-02  0.23671203239E-01  0.00000000000E+00 0.  1.
     999901    1    3    3    0    0  0.80658959722E-01 -0.10864298741E-01 -0.80269680873E-01  0.88739344286E+00  0.88000000000E+00 0. -1.
        -11    1    4    4    0    0 -0.46582561340E-01 -0.10558995199E-01  0.36296181022E-01  0.59992510185E-01  0.51100000000E-03 0.  1.
         11    1    4    4    0    0 -0.52625663124E-01  0.79130182330E-02  0.49780658420E-01  0.72872843711E-01  0.51100000000E-03 0. -1.
</event>
<event>
 8    1  0.1095698E+005  0.1043930E+01  0.7957747E-01            NaN
         13   -1    0    0    0    0  0.00000000000E+00  0.00000000000E+00  0.74505805969E-08  0.10566000000E+00  0.10566000000E+00 0. -1.
     999900   -1    0    0    0    0 -0.00000000000E+00 -0.00000000000E+00 -0.74505805969E-08  0.93827000000E+00  0.93827000000E+00 0.  1.
     999902    2    1    2    0    0  0.12710780435E-01  0.17168217550E-01 -0.38844595344E-02  0.10222182369E+01  0.10219876335E+01 0.  0.
     999903    2    3    3    0    0  0.21634314936E-01  0.13066448629E+00  0.13982275987E-01  0.13470471429E+00  0.20213966709E-01 0.  0.
         14    1    1    2    0    0 -0.12710780435E-01 -0.17168217550E-01  0.38844595344E-02  0.21711763148E-01  0.00000000000E+00 0. -1.
     999901    1    3    3    0    0 -0.89235345004E-02 -0.11349626874E+00 -0.17866735521E-01  0.88751352256E+00  0.88000000000E+00 0.  1.
        -11    1    4    4    0    0  0.64120192182E-02  0.63021652705E-01 -0.26387870740E-02  0.63403998441E-01  0.51100000000E-03 0.  1.
         11    1    4    4    0    0  0.15222295717E-01  0.67642833588E-01  0.16621063061E-01  0.71300715852E-01  0.51100000000E-03 0. -1.
</event>
<event>
 7    1  0.1095698E+005  0.1043930E+01  0.7957747E-01            NaN
         13   -1    0    0    0    0  0.00000000000E+00  0.00000000000E+00  0.74505805969E-08  0.10566000000E+00  0.10566000000E+00 0. -1.
     999900   -1    0    0    0    0 -0.00000000000E+00 -0.00000000000E+00 -0.74505805969E-08  0.93827000000E+00  0.93827000000E+00 0. -1.
     999903    2    1    2    0    0  0.10789900057E-01 -0.11059022686E+00 -0.27381837763E-01  0.11616978592E+00  0.19975832920E-01 0.  0.
         14    1    1    2    0    0 -0.39117494418E-01 -0.46053572328E-02  0.35423788247E-03  0.39389251951E-01  0.00000000000E+00 0.  1.
     999901    1    1    2    0    0  0.28327594361E-01  0.11519558410E+00  0.27027599881E-01  0.88837096213E+00  0.88000000000E+00 0.  1.
        -11    1    3    3    0    0  0.81949049909E-02 -0.61920806647E-01 -0.25276003396E-01  0.67383085654E-01  0.51100000000E-03 0.  1.
         11    1    3    3    0    0  0.25949950660E-02 -0.48669420216E-01 -0.21058343672E-02  0.48786700267E-01  0.51100000000E-03 0. -1.
</event>
<event>
 8    1  0.1095698E+005  0.1043930E+01  0.7957747E-01            NaN
         13   -1    0    0    0    0  0.00000000000E+00  0.00000000000E+00  0.74505805969E-08  0.10566000000E+00  0.10566000000E+00 0. -1.
     999900   -1    0    0    0    0 -0.00000000000E+00 -0.00000000000E+00 -0.74505805969E-08  0.93827000000E+00  0.93827000000E+00 0.  1.
     999902    2    1    2    0    0  0.10516230634E-01 -0.20816844640E-01 -0.38269633415E-02  0.10202957499E+01  0.10200219799E+01 0.  0.
     999903    2    3    3    0    0  0.73197547943E-01  0.10335267056E+00 -0.17624693598E-01  0.12926410437E+00  0.18945271656E-01 0.  0.
         14    1    1    2    0    0 -0.10516230634E-01  0.20816844640E-01  0.38269633415E-02  0.23634250060E-01  0.00000000000E+00 0. -1.
     999901    1    3    3    0    0 -0.62681317309E-01 -0.12416951520E+00  0.13797730256E-01  0.89103164557E+00  0.88000000000E+00 0.  1.
        -11    1    4    4    0    0  0.37278043858E-01  0.67151119268E-01 -0.66266702571E-02  0.77091499223E-01  0.51100000000E-03 0.  1.
         11    1    4    4    0    0  0.35919504085E-01  0.36201551291E-01 -0.10998023340E-01  0.52172605148E-01  0.51100000000E-03 0. -1.
</event>
<event>
 8    1  0.1095698E+005  0.1043930E+01  0.7957747E-01            NaN
         13   -1    0    0    0    0  0.00000000000E+00  0.00000000000E+00  0.74505805969E-08  0.10566000000E+00  0.10566000000E+00 0.  1.
     999900   -1    0    0    0    0 -0.00000000000E+00 -0.00000000000E+00 -0.74505805969E-08  0.93827000000E+00  0.93827000000E+00 0. -1.
     999902    2    1    2    0    0  0.86029770969E-02 -0.57052883941E-02 -0.25407350824E-01  0.10165056494E+01  0.10161356407E+01 0.  0.
     999903    2    3    3    0    0 -0.96220927581E-01 -0.16866859342E-01 -0.81578410555E-01  0.12843593388E+00  0.17256714442E-01 0.  0.
         14    1    1    2    0    0 -0.86029770969E-02  0.57052883941E-02  0.25407350824E-01  0.27424350612E-01  0.00000000000E+00 0.  1.
     999901    1    3    3    0    0  0.10482390468E+00  0.11161570948E-01  0.56171059731E-01  0.88806971551E+00  0.88000000000E+00 0. -1.
        -11    1    4    4    0    0 -0.21798732283E-01  0.53393413707E-03 -0.25980550969E-01  0.33922263552E-01  0.51100000000E-03 0.  1.
         11    1    4    4    0    0 -0.74422195297E-01 -0.17400793479E-01 -0.55597859586E-01  0.94513670324E-01  0.51100000000E-03 0. -1.
</event>
<event>
 8    1  0.1095698E+005  0.1043930E+01  0.7957747E-01            NaN
         13   -1    0    0    0    0  0.00000000000E+00  0.00000000000E+00  0.74505805969E-08  0.10566000000E+00  0.10566000000E+00 0. -1.
     999900   -1    0    0    0    0 -0.00000000000E+00 -0.00000000000E+00 -0.74505805969E-08  0.93827000000E+00  0.93827000000E+00 0. -1.
     999902    2    1    2    0    0 -0.45403267026E-02  0.21639389193E-01  0.82039354399E-02  0.10203464827E+01  0.10200739005E+01 0.  0.
     999903    2    3    3    0    0 -0.96812597843E-01 -0.65086167749E-01 -0.52042812427E-01  0.12924314141E+00  0.19658253786E-01 0.  0.
         14    1    1    2    0    0  0.45403267026E-02 -0.21639389193E-01 -0.82039354399E-02  0.23583517293E-01  0.00000000000E+00 0.  1.
     999901    1    3    3    0    0  0.92272271140E-01  0.86725556942E-01  0.60246747867E-01  0.89110334130E+00  0.88000000000E+00 0.  1.
        -11    1    4    4    0    0 -0.69770307248E-01 -0.56666668310E-01 -0.37400731910E-01  0.97355446376E-01  0.51100000000E-03 0.  1.
         11    1    4    4    0    0 -0.27042290595E-01 -0.84194994390E-02 -0.14642080517E-01  0.31887695030E-01  0.51100000000E-03 0. -1.
</event>
<event>
 8    1  0.1095698E+005  0.1043930E+01  0.7957747E-01            NaN
         13   -1    0    0    0    0  0.00000000000E+00  0.00000000000E+00  0.74505805969E-08  0.10566000000E+00  0.10566000000E+00 0.  1.
     999900   -1    0    0    0    0 -0.00000000000E+00 -0.00000000000E+00 -0.74505805969E-08  0.93827000000E+00  0.93827000000E+00 0.  1.
     999902    2    1    2    0    0 -0.86966018309E-02  0.19783535582E-01 -0.27415885724E-02  0.10221461649E+01  0.10219140115E+01 0.  0.
     999903    2    3    3    0    0 -0.39417734856E-01  0.83507630735E-01 -0.95734999672E-01  0.13442305333E+00  0.19418673802E-01 0.  0.
         14    1    1    2    0    0  0.86966018309E-02 -0.19783535582E-01  0.27415885724E-02  0.21783835095E-01  0.00000000000E+00 0. -1.
     999901    1    3    3    0    0  0.30721133025E-01 -0.63724095153E-01  0.92993411099E-01  0.88772311158E+00  0.88000000000E+00 0. -1.
        -11    1    4    4    0    0 -0.23947226982E-01  0.28775083190E-01 -0.36004313798E-01  0.51942726399E-01  0.51100000000E-03 0. -1.
         11    1    4    4    0    0 -0.15470507874E-01  0.54732547545E-01 -0.59730685874E-01  0.82480326931E-01  0.51100000000E-03 0.  1.
</event>
<event>
 8    1  0.1095698E+005  0.1043930E+01  0.7957747E-01            NaN
         13   -1    0    0    0    0  0.00000000000E+00  0.00000000000E+00  0.74505805969E-08  0.10566000000E+00  0.10566000000E+00 0.  1.
     999900   -1    0    0    0    0 -0.00000000000E+00 -0.00000000000E+00 -0.74505805969E-08  0.93827000000E+00  0.93827000000E+00 0.  1.
     999902    2    1    2    0    0  0.73507895372E-02  0.21716220464E-01  0.95093187627E-02  0.10191095350E+01  0.10188072383E+01 0.  0.
     999903    2    3    3    0    0 -0.11532247983E+00 -0.39787210426E-01  0.33949694384E-01  0.12813886492E+00  0.19613528191E-01 0.  0.
         14    1    1    2    0    0 -0.73507895372E-02 -0.21716220464E-01 -0.95093187627E-02  0.24820464971E-01  0.00000000000E+00 0. -1.
     999901    1    3    3    0    0  0.12267326936E+00  0.61503430890E-01 -0.24440375621E-01  0.89097067011E+00  0.88000000000E+00 0.  1.
        -11    1    4    4    0    0 -0.10189379815E+00 -0.41480676680E-01  0.30160218844E-01  0.11407406612E+00  0.51100000000E-03 0. -1.
         11    1    4    4    0    0 -0.13428681676E-01  0.16934662534E-02  0.37894755396E-02  0.14064798803E-01  0.51100000000E-03 0.  1.
</event>
<event>
 8    1  0.1095698E+005  0.1043930E+01  0.7957747E-01            NaN
         13   -1    0    0    0    0  0.00000000000E+00  0.00000000000E+00  0.74505805969E-08  0.10566000000E+00  0.10566000000E+00 0. -1.
     999900   -1    0    0    0    0 -0.00000000000E+00 -0.00000000000E+00 -0.74505805969E-08  0.93827000000E+00  0.93827000000E+00 0. -1.
     999902    2    1    2    0    0  0.22465199279E-01 -0.46184358715E-02  0.18093546318E-02  0.10209237206E+01  0.10206644671E+01 0.  0.
     999903    2    3    3    0    0 -0.45866708498E-01  0.11143069326E+00  0.43447374243E-01  0.12970524306E+00  0.20376982094E-01 0.  0.
         14    1    1    2    0    0 -0.22465199279E-01  0.46184358715E-02 -0.18093546318E-02  0.23006279419E-01  0.00000000000E+00 0. -1.
     999901    1    3    3    0    0  0.68331907777E-01 -0.11604912914E+00 -0.41638019611E-01  0.89121847752E+00  0.88000000000E+00 0. -1.
        -11    1    4    4    0    0 -0.20445588589E-01  0.33803456243E-01  0.64498637554E-02  0.40031957361E-01  0.51100000000E-03 0.  1.
         11    1    4    4    0    0 -0.25421119909E-01  0.77627237022E-01  0.36997510487E-01  0.89673285701E-01  0.51100000000E-03 0. -1.
</event>
<event>
 7    1  0.1095698E+005  0.1043930E+01  0.7957747E-01            NaN
         13   -1    0    0    0    0  0.00000000000E+00  0.00000000000E+00  0.74505805969E-08  0.10566000000E+00  0.10566000000E+00 0. -1.
     999900   -1    0    0    0    0 -0.00000000000E+00 -0.00000000000E+00 -0.74505805969E-08  0.93827000000E+00  0.93827000000E+00 0. -1.
     999902    2    1    2    0    0  0.11596792081E-01  0.18203649336E-01  0.10995492080E-01  0.10197068854E+01  0.10194191350E+01 0.  0.
         14    1    1    2    0    0 -0.11596792081E-01 -0.18203649336E-01 -0.10995492080E-01  0.24223114618E-01  0.00000000000E+00 0.  1.
     999901    1    3    3    0    0  0.38670405105E-01  0.12473782968E+00 -0.45248389748E-01  0.89078748485E+00  0.88000000000E+00 0. -1.
        -11    1    3    3    0    0 -0.15978012221E-01 -0.33477909032E-01  0.37356010168E-01  0.52647885849E-01  0.51100000000E-03 0.  1.
         11    1    3    3    0    0 -0.11095600803E-01 -0.73056271315E-01  0.18887871660E-01  0.76271514686E-01  0.51100000000E-03 0. -1.
</event>
<event>
 8    1  0.1095698E+005  0.1043930E+01  0.7957747E-01            NaN
         13   -1    0    0    0    0  0.00000000000E+00  0.00000000000E+00  0.74505805969E-08  0.10566000000E+00  0.10566000000E+00 0. -1.
     999900   -1    0    0    0    0 -0.00000000000E+00 -0.00000000000E+00 -0.74505805969E-08  0.93827000000E+00  0.93827000000E+00 0. -1.
     999902    2    1    2    0    0 -0.17524031191E-01 -0.15723863353E-02 -0.15908441086E-01  0.10202099122E+01  0.10199341265E+01 0.  0.
     999903    2    3    3    0    0 -0.16718259898E-02  0.94036255125E-01  0.86009582525E-01  0.12904236999E+00  0.20215654496E-01 0.  0.
         14    1    1    2    0    0  0.17524031191E-01  0.15723863353E-02  0.15908441086E-01  0.23720087811E-01  0.00000000000E+00 0. -1.
     999901    1    3    3    0    0 -0.15852205201E-01 -0.95608641460E-01 -0.10191802361E+00  0.89116754220E+00  0.88000000000E+00 0.  1.
        -11    1    4    4    0    0  0.79254698795E-02  0.31291536123E-01  0.34948424962E-01  0.47577587519E-01  0.51100000000E-03 0.  1.
         11    1    4    4    0    0 -0.95972958692E-02  0.62744719002E-01  0.51061157563E-01  0.81464782472E-01  0.51100000000E-03 0. -1.
</event>
<event>
 8    1  0.1095698E+005  0.1043930E+01  0.7957747E-01            NaN
         13   -1    0    0    0    0  0.00000000000E+00  0.00000000000E+00  0.74505805969E-08  0.10566000000E+00  0.10566000000E+00 0. -1.
     999900   -1    0    0    0    0 -0.00000000000E+00 -0.00000000000E+00 -0.74505805969E-08  0.93827000000E+00  0.93827000000E+00 0.  1.
     999902    2    1    2    0    0  0.43864589624E-02 -0.51607154522E-02 -0.22801752342E-01  0.10201435771E+01  0.10198662284E+01 0.  0.
     999903    2    3    3    0    0  0.10403120782E+00  0.29243993038E-01  0.68086867838E-01  0.12920390390E+00  0.19496765919E-01 0.  0.
         14    1    1    2    0    0 -0.43864589624E-02  0.51607154522E-02  0.22801752342E-01  0.23786422936E-01  0.00000000000E+00 0. -1.
     999901    1    3    3    0    0 -0.99644748858E-01 -0.34404708490E-01 -0.90888620180E-01  0.89093967317E+00  0.88000000000E+00 0.  1.
        -11    1    4    4    0    0  0.66662684888E-01  0.19040038484E-01  0.54371610032E-01  0.88107716577E-01  0.51100000000E-03 0. -1.
         11    1    4    4    0    0  0.37368522933E-01  0.10203954554E-01  0.13715257806E-01  0.41096187322E-01  0.51100000000E-03 0.  1.
</event>
<event>
 8    1  0.1095698E+005  0.1043930E+01  0.7957747E-01            NaN
         13   -1    0    0    0    0  0.00000000000E+00  0.00000000000E+00  0.74505805969E-08  0.10566000000E+00  0.10566000000E+00 0. -1.
     999900   -1    0    0    0    0 -0.00000000000E+00 -0.00000000000E+00 -0.74505805969E-08  0.93827000000E+00  0.93827000000E+00 0. -1.
     999902    2    1    2    0    0  0.17352393213E-01 -0.15290566515E-01 -0.43960067238E-02  0.10203878707E+01  0.10201162556E+01 0.  0.
     999903    2    3    3    0    0  0.21427211152E-01 -0.83049029413E-01 -0.99101312310E-01  0.13270723654E+00  0.20829639110E-01 0.  0.
         14    1    1    2    0    0 -0.17352393213E-01  0.15290566515E-01  0.43960067238E-02  0.23542129251E-01  0.00000000000E+00 0. -1.
     999901    1    3    3    0    0 -0.40748179394E-02  0.67758462898E-01  0.94705305586E-01  0.88768063420E+00  0.88000000000E+00 0. -1.
        -11    1    4    4    0    0  0.18737175433E-01 -0.79467181060E-01 -0.98824875033E-01  0.12819021669E+00  0.51100000000E-03 0. -1.
         11    1    4    4    0    0  0.26900357189E-02 -0.35818483529E-02 -0.27643727703E-03  0.45170198538E-02  0.51100000000E-03 0.  1.
</event>
<event>
 7    1  0.1095698E+005  0.1043930E+01  0.7957747E-01            NaN
         13   -1    0    0    0    0  0.00000000000E+00  0.00000000000E+00  0.74505805969E-08  0.10566000000E+00  0.10566000000E+00 0.  1.
     999900   -1    0    0    0    0 -0.00000000000E+00 -0.00000000000E+00 -0.74505805969E-08  0.93827000000E+00  0.93827000000E+00 0.  1.
     999902    2    1    2    0    0  0.36079178445E-02 -0.21802834498E-01 -0.58449455539E-02  0.10210707775E+01  0.10208148650E+01 0.  0.
         14    1    1    2    0    0 -0.36079178445E-02  0.21802834498E-01  0.58449455539E-02  0.22859222468E-01  0.00000000000E+00 0.  1.
     999901    1    3    3    0    0 -0.70713990406E-01 -0.11929981358E+00 -0.20953812972E-01  0.89110716316E+00  0.88000000000E+00 0.  1.
        -11    1    3    3    0    0  0.20493721772E-01  0.47337044251E-02 -0.28091888396E-02  0.21226239719E-01  0.51100000000E-03 0. -1.
         11    1    3    3    0    0  0.53828186478E-01  0.92763274659E-01  0.17918056257E-01  0.10873737465E+00  0.51100000000E-03 0.  1.
</event>
<event>
 8    1  0.1095698E+005  0.1043930E+01  0.7957747E-01            NaN
         13   -1    0    0    0    0  0.00000000000E+00  0.00000000000E+00  0.74505805969E-08  0.10566000000E+00  0.10566000000E+00 0. -1.
     999900   -1    0    0    0    0 -0.00000000000E+00 -0.00000000000E+00 -0.74505805969E-08  0.93827000000E+00  0.93827000000E+00 0. -1.
     999902    2    1    2    0    0  0.94108946989E-02 -0.19991104693E-01  0.90543591271E-02  0.10200513354E+01  0.10197718059E+01 0.  0.
     999903    2    3    3    0    0  0.76628018955E-01 -0.32929644784E-01 -0.98898697270E-01  0.13081604029E+00  0.19382189768E-01 0.  0.
         14    1    1    2    0    0 -0.94108946989E-02  0.19991104693E-01 -0.90543591271E-02  0.23878664642E-01  0.00000000000E+00 0.  1.
     999901    1    3    3    0    0 -0.67217124256E-01  0.12938540092E-01  0.10795305640E+00  0.88923529507E+00  0.88000000000E+00 0.  1.
        -11    1    4    4    0    0  0.58363564966E-01 -0.18203915975E-01 -0.61903296908E-01  0.87005560520E-01  0.51100000000E-03 0. -1.
         11    1    4    4    0    0  0.18264453989E-01 -0.14725728810E-01 -0.36995400362E-01  0.43810479768E-01  0.51100000000E-03 0.  1.
</event>
<event>
 8    1  0.1095698E+005  0.1043930E+01  0.7957747E-01            NaN
         13   -1    0    0    0    0  0.00000000000E+00  0.00000000000E+00  0.74505805969E-08  0.10566000000E+00  0.10566000000E+00 0.  1.
     999900   -1    0    0    0    0 -0.00000000000E+00 -0.00000000000E+00 -0.74505805969E-08  0.93827000000E+00  0.93827000000E+00 0. -1.
     999902    2    1    2    0    0 -0.14426283903E-01 -0.13980888554E-01 -0.28636359209E-01  0.10089496629E+01  0.10083430956E+01 0.  0.
     999903    2    3    3    0    0 -0.31680177425E-01 -0.65644952079E-01  0.91977573515E-01  0.11905383023E+00  0.20026160105E-01 0.  0.
         14    1    1    2    0    0  0.14426283903E-01  0.13980888554E-01  0.28636359209E-01  0.34980337059E-01  0.00000000000E+00 0.  1.
     999901    1    3    3    0    0  0.17253893522E-01  0.51664063524E-01 -0.12061393272E+00  0.88989583271E+00  0.88000000000E+00 0. -1.
        -11    1    4    4    0    0 -0.16608622917E-01 -0.27617047775E-01  0.55816826188E-01  0.64454068062E-01  0.51100000000E-03 0. -1.
         11    1    4    4    0    0 -0.15071554507E-01 -0.38027904303E-01  0.36160747327E-01  0.54599762172E-01  0.51100000000E-03 0.  1.
</event>
<event>
 8    1  0.1095698E+005  0.1043930E+01  0.7957747E-01            NaN
         13   -1    0    0    0    0  0.00000000000E+00  0.00000000000E+00  0.74505805969E-08  0.10566000000E+00  0.10566000000E+00 0. -1.
     999900   -1    0    0    0    0 -0.00000000000E+00 -0.00000000000E+00 -0.74505805969E-08  0.93827000000E+00  0.93827000000E+00 0.  1.
     999902    2    1    2    0    0 -0.20451884859E-01 -0.67366527253E-02 -0.10459855430E-01  0.10199911057E+01  0.10197101476E+01 0.  0.
     999903    2    3    3    0    0 -0.89306349373E-01  0.68502173321E-01 -0.66366305601E-01  0.13233838679E+00  0.20995006830E-01 0.  0.
         14    1    1    2    0    0  0.20451884859E-01  0.67366527253E-02  0.10459855430E-01  0.23938894291E-01  0.00000000000E+00 0. -1.
     999901    1    3    3    0    0  0.68854464514E-01 -0.75238826047E-01  0.55906450171E-01  0.88765271892E+00  0.88000000000E+00 0.  1.
        -11    1    4    4    0    0 -0.56437378240E-01  0.46079878264E-01 -0.53928166175E-01  0.90647896123E-01  0.51100000000E-03 0. -1.
         11    1    4    4    0    0 -0.32868971133E-01  0.22422295058E-01 -0.12438139426E-01  0.41690490671E-01  0.51100000000E-03 0.  1.
</event>
<event>
 8    1  0.1095698E+005  0.1043930E+01  0.7957747E-01            NaN
         13   -1    0    0    0    0  0.00000000000E+00  0.00000000000E+00  0.74505805969E-08  0.10566000000E+00  0.10566000000E+00 0. -1.
     999900   -1    0    0    0    0 -0.00000000000E+00 -0.00000000000E+00 -0.74505805969E-08  0.93827000000E+00  0.93827000000E+00 0. -1.
     999902    2    1    2    0    0 -0.12928921005E-02  0.19890991702E-01 -0.11414089400E-01  0.10209603557E+01  0.10207019366E+01 0.  0.
     999903    2    3    3    0    0  0.79429023541E-01 -0.96734437094E-01  0.23699456460E-01  0.12891188205E+00  0.19750645450E-01 0.  0.
         14    1    1    2    0    0  0.12928921005E-02 -0.19890991702E-01  0.11414089400E-01  0.22969644265E-01  0.00000000000E+00 0. -1.
     999901    1    3    3    0    0 -0.80721915641E-01  0.11662542880E+00 -0.35113545860E-01  0.89204847369E+00  0.88000000000E+00 0.  1.
        -11    1    4    4    0    0  0.36230554689E-01 -0.54387746085E-01  0.47770410559E-02  0.65526798026E-01  0.51100000000E-03 0.  1.
         11    1    4    4    0    0  0.43198468852E-01 -0.42346691009E-01  0.18922415404E-01  0.63385084021E-01  0.51100000000E-03 0. -1.
</event>
<event>
 8    1  0.1095698E+005  0.1043930E+01  0.7957747E-01            NaN
         13   -1    0    0    0    0  0.00000000000E+00  0.00000000000E+00  0.74505805969E-08  0.10566000000E+00  0.10566000000E+00 0. -1.
     999900   -1    0    0    0    0 -0.00000000000E+00 -0.00000000000E+00 -0.74505805969E-08  0.93827000000E+00  0.93827000000E+00 0. -1.
     999902    2    1    2    0    0  0.20101104524E-01 -0.47857420157E-02 -0.11517939001E-01  0.10202736975E+01  0.10199994104E+01 0.  0.
     999903    2    3    3    0    0 -0.34837926039E-01  0.93850797869E-01 -0.81022332145E-01  0.13034205700E+00  0.20069383767E-01 0.  0.
         14    1    1    2    0    0 -0.20101104524E-01  0.47857420157E-02  0.11517939001E-01  0.23656302512E-01  0.00000000000E+00 0.  1.
     999901    1    3    3    0    0  0.54939030563E-01 -0.98636539884E-01  0.69504393144E-01  0.88993164049E+00  0.88000000000E+00 0.  1.
        -11    1    4    4    0    0 -0.13443463963E-01  0.19372570303E-01 -0.11522931017E-01  0.26249995499E-01  0.51100000000E-03 0. -1.
         11    1    4    4    0    0 -0.21394462076E-01  0.74478227565E-01 -0.69499401128E-01  0.10409206150E+00  0.51100000000E-03 0.  1.
</event>
<event>
 8    1  0.1095698E+005  0.1043930E+01  0.7957747E-01            NaN
         13   -1    0    0    0    0  0.00000000000E+00  0.00000000000E+00  0.74505805969E-08  0.10566000000E+00  0.10566000000E+00 0. -1.
     999900   -1    0    0    0    0 -0.00000000000E+00 -0.00000000000E+00 -0.74505805969E-08  0.93827000000E+00  0.93827000000E+00 0.  1.
     999902    2    1    2    0    0 -0.18163605076E-01  0.37638855295E-02  0.14572739091E-01  0.10203408477E+01  0.10200681337E+01 0.  0.
     999903    2    3    3    0    0  0.12545006924E+00  0.16022457954E-01  0.13589207848E-01  0.12861436079E+00  0.19040698522E-01 0.  0.
         14    1    1    2    0    0  0.18163605076E-01 -0.37638855295E-02 -0.14572739091E-01  0.23589152343E-01  0.00000000000E+00 0.  1.
     999901    1    3    3    0    0 -0.14361367432E+00 -0.12258572425E-01  0.98353124329E-03  0.89172648687E+00  0.88000000000E+00 0. -1.
        -11    1    4    4    0    0  0.32937163980E-01  0.11777917584E-01  0.76662026021E-02  0.35813515564E-01  0.51100000000E-03 0. -1.
         11    1    4    4    0    0  0.92512905259E-01  0.42445403699E-02  0.59230052457E-02  0.92800845225E-01  0.51100000000E-03 0.  1.
</event>
<event>
 8    1  0.1095698E+005  0.1043930E+01  0.7957747E-01            NaN
         13   -1    0    0    0    0  0.00000000000E+00  0.00000000000E+00  0.74505805969E-08  0.10566000000E+00  0.10566000000E+00 0. -1.
     999900   -1    0    0    0    0 -0.00000000000E+00 -0.00000000000E+00 -0.74505805969E-08  0.93827000000E+00  0.93827000000E+00 0. -1.
     999902    2    1    2    0    0 -0.21053668471E-01  0.98518573280E-02  0.37840429736E-02  0.10203793093E+01  0.10201074943E+01 0.  0.
     999903    2    3    3    0    0 -0.87453534965E-01  0.67878049607E-01  0.71428259154E-01  0.13338904940E+00  0.20858856584E-01 0.  0.
         14    1    1    2    0    0  0.21053668471E-01 -0.98518573280E-02 -0.37840429736E-02  0.23550690651E-01  0.00000000000E+00 0. -1.
     999901    1    3    3    0    0  0.66399866494E-01 -0.58026192279E-01 -0.67644216181E-01  0.88699025995E+00  0.88000000000E+00 0.  1.
        -11    1    4    4    0    0 -0.22210502288E-01  0.29563347522E-01  0.24241398449E-01  0.44217693838E-01  0.51100000000E-03 0. -1.
         11    1    4    4    0    0 -0.65243032677E-01  0.38314702085E-01  0.47186860706E-01  0.89171355563E-01  0.51100000000E-03 0.  1.
</event>
<event>
 8    1  0.1095698E+005  0.1043930E+01  0.7957747E-01            NaN
         13   -1    0    0    0    0  0.00000000000E+00  0.00000000000E+00  0.74505805969E-08  0.10566000000E+00  0.10566000000E+00 0.  1.
     999900   -1    0    0    0    0 -0.00000000000E+00 -0.00000000000E+00 -0.74505805969E-08  0.93827000000E+00  0.93827000000E+00 0.  1.
     999902    2    1    2    0    0 -0.12687752830E-01 -0.16307467979E-01  0.12106320364E-01  0.10199826499E+01  0.10197014909E+01 0.  0.
     999903    2    3    3    0    0  0.79945915647E-01  0.93384738161E-01 -0.28310539404E-01  0.12743186750E+00  0.18037058038E-01 0.  0.
         14    1    1    2    0    0  0.12687752830E-01  0.16307467979E-01 -0.12106320364E-01  0.23947350094E-01  0.00000000000E+00 0.  1.
     999901    1    3    3    0    0 -0.92633668477E-01 -0.10969220614E+00  0.40416859768E-01  0.89255078241E+00  0.88000000000E+00 0. -1.
        -11    1    4    4    0    0  0.56518886561E-01  0.67779357153E-01 -0.11945796392E-01  0.89058345856E-01  0.51100000000E-03 0. -1.
         11    1    4    4    0    0  0.23427029086E-01  0.25605381008E-01 -0.16364743012E-01  0.38373521642E-01  0.51100000000E-03 0.  1.
</event>
<event>
 8    1  0.1095698E+005  0.1043930E+01  0.7957747E-01            NaN
         13   -1    0    0    0    0  0.00000000000E+00  0.00000000000E+00  0.74505805969E-08  0.10566000000E+00  0.10566000000E+00 0.  1.
     999900   -1    0    0    0    0 -0.00000000000E+00 -0.00000000000E+00 -0.74505805969E-08  0.93827000000E+00  0.93827000000E+00 0. -1.
     999902    2    1    2    0    0  0.31401219070E-01 -0.64997856200E-02  0.12788666270E-01  0.10094070546E+01  0.10088165186E+01 0.  0.
     999903    2    3    3    0    0 -0.40508742513E-01 -0.59304378020E-01  0.95364644276E-01  0.12105005449E+00  0.20018312649E-01 0.  0.
         14    1    1    2    0    0 -0.31401219070E-01  0.64997856200E-02 -0.12788666270E-01  0.34522945372E-01  0.00000000000E+00 0.  1.
     999901    1    3    3    0    0  0.71909961584E-01  0.52804592400E-01 -0.82575978006E-01  0.88835700014E+00  0.88000000000E+00 0. -1.
        -11    1    4    4    0    0 -0.85379366452E-02 -0.24902872180E-01  0.24063110164E-01  0.35669928466E-01  0.51100000000E-03 0.  1.
         11    1    4    4    0    0 -0.31970805868E-01 -0.34401505841E-01  0.71301534111E-01  0.85380126022E-01  0.51100000000E-03 0. -1.
</event>
<event>
 8    1  0.1268301E+005  0.1043930E+01  0.7957747E-01            NaN
         13   -1    0    0    0    0  0.00000000000E+00  0.00000000000E+00  0.74505805969E-08  0.10566000000E+00  0.10566000000E+00 0. -1.
     999900   -1    0    0    0    0 -0.00000000000E+00 -0.00000000000E+00 -0.74505805969E-08  0.93827000000E+00  0.93827000000E+00 0. -1.
     999902    2    1    2    0    0  0.47692591613E-02  0.14361564444E-01  0.18847963800E-01  0.10197588166E+01  0.10194723135E+01 0.  0.
     999903    2    3    3    0    0  0.81613600895E-01 -0.96853613543E-01  0.18150633713E-01  0.12943620378E+00  0.19567397333E-01 0.  0.
         14    1    1    2    0    0 -0.47692591613E-02 -0.14361564444E-01 -0.18847963800E-01  0.24171183373E-01  0.00000000000E+00 0.  1.
     999901    1    3    3    0    0 -0.76844341733E-01  0.11121517799E+00  0.69733008683E-03  0.89032261284E+00  0.88000000000E+00 0. -1.
        -11    1    4    4    0    0  0.32393305718E-01 -0.53118030868E-01  0.63548865499E-02  0.62541963214E-01  0.51100000000E-03 0.  1.
         11    1    4    4    0    0  0.49220295177E-01 -0.43735582676E-01  0.11795747164E-01  0.66894240570E-01  0.51100000000E-03 0. -1.
</event>
<event>
 8    1  0.1095698E+005  0.1043930E+01  0.7957747E-01            NaN
         13   -1    0    0    0    0  0.00000000000E+00  0.00000000000E+00  0.74505805969E-08  0.10566000000E+00  0.10566000000E+00 0. -1.
     999900   -1    0    0    0    0 -0.00000000000E+00 -0.00000000000E+00 -0.74505805969E-08  0.93827000000E+00  0.93827000000E+00 0.  1.
     999902    2    1    2    0    0 -0.15622743659E-01  0.18244267960E-03 -0.89279364426E-02  0.10259352382E+01  0.10257774132E+01 0.  0.
     999903    2    3    3    0    0  0.11801607042E+00  0.50402782174E-01  0.31964116708E-01  0.13349276094E+00  0.18176334581E-01 0.  0.
         14    1    1    2    0    0  0.15622743659E-01 -0.18244267960E-03  0.89279364426E-02  0.17994761846E-01  0.00000000000E+00 0.  1.
     999901    1    3    3    0    0 -0.13363881408E+00 -0.50220339495E-01 -0.40892053151E-01  0.89244247721E+00  0.88000000000E+00 0.  1.
        -11    1    4    4    0    0  0.72505034189E-01  0.28533632107E-01  0.28170293669E-01  0.82855142932E-01  0.51100000000E-03 0.  1.
         11    1    4    4    0    0  0.45511036228E-01  0.21869150067E-01  0.37938230397E-02  0.50637618007E-01  0.51100000000E-03 0. -1.
</event>
<event>
 8    1  0.1095698E+005  0.1043930E+01  0.7957747E-01            NaN
         13   -1    0    0    0    0  0.00000000000E+00  0.00000000000E+00  0.74505805969E-08  0.10566000000E+00  0.10566000000E+00 0.  1.
     999900   -1    0    0    0    0 -0.00000000000E+00 -0.00000000000E+00 -0.74505805969E-08  0.93827000000E+00  0.93827000000E+00 0. -1.
     999902    2    1    2    0    0  0.22057377064E-01  0.26720830239E-02  0.71823509416E-02  0.10205793239E+01  0.10203121592E+01 0.  0.
     999903    2    3    3    0    0  0.79677661766E-01 -0.76573136442E-01 -0.69152605952E-01  0.13185724827E+00  0.19805958755E-01 0.  0.
         14    1    1    2    0    0 -0.22057377064E-01 -0.26720830239E-02 -0.71823509416E-02  0.23350676129E-01  0.00000000000E+00 0. -1.
     999901    1    3    3    0    0 -0.57620284702E-01  0.79245219466E-01  0.76334956893E-01  0.88872207560E+00  0.88000000000E+00 0.  1.
        -11    1    4    4    0    0  0.52997817220E-01 -0.51276111498E-01 -0.56747443752E-01  0.93051285503E-01  0.51100000000E-03 0. -1.
         11    1    4    4    0    0  0.26679844546E-01 -0.25297024944E-01 -0.12405162200E-01  0.38805962766E-01  0.51100000000E-03 0.  1.
</event>
<event>
 8    1  0.1095698E+005  0.1043930E+01  0.7957747E-01            NaN
         13   -1    0    0    0    0  0.00000000000E+00  0.00000000000E+00  0.74505805969E-08  0.10566000000E+00  0.10566000000E+00 0. -1.
     999900   -1    0    0    0    0 -0.00000000000E+00 -0.00000000000E+00 -0.74505805969E-08  0.93827000000E+00  0.93827000000E+00 0.  1.
     999902    2    1    2    0    0 -0.22509162623E-01  0.26803960774E-02  0.50597458156E-02  0.10207039811E+01  0.10204396940E+01 0.  0.
     999903    2    3    3    0    0  0.11302688128E-01 -0.11209319868E+00  0.63147762598E-01  0.13070935361E+00  0.20116144041E-01 0.  0.
         14    1    1    2    0    0  0.22509162623E-01 -0.26803960774E-02 -0.50597458156E-02  0.23226018876E-01  0.00000000000E+00 0.  1.
     999901    1    3    3    0    0 -0.33811850751E-01  0.11477359476E+00 -0.58088016783E-01  0.88999462751E+00  0.88000000000E+00 0.  1.
        -11    1    4    4    0    0  0.58187617114E-02 -0.24977497704E-01  0.23684955413E-01  0.34913773977E-01  0.51100000000E-03 0.  1.
         11    1    4    4    0    0  0.54839264168E-02 -0.87115700978E-01  0.39462807185E-01  0.95795579636E-01  0.51100000000E-03 0. -1.
</event>
<event>
 8    1  0.1095698E+005  0.1043930E+01  0.7957747E-01            NaN
         13   -1    0    0    0    0  0.00000000000E+00  0.00000000000E+00  0.74505805969E-08  0.10566000000E+00  0.10566000000E+00 0. -1.
     999900   -1    0    0    0    0 -0.00000000000E+00 -0.00000000000E+00 -0.74505805969E-08  0.93827000000E+00  0.93827000000E+00 0. -1.
     999902    2    1    2    0    0  0.10664913388E-01 -0.20965445278E-01  0.29956598893E-02  0.10202178881E+01  0.10199422900E+01 0.  0.
     999903    2    3    3    0    0  0.82130277303E-01  0.33398218166E-01  0.94192033485E-01  0.13096006006E+00  0.20434645410E-01 0.  0.
         14    1    1    2    0    0 -0.10664913388E-01  0.20965445278E-01 -0.29956598893E-02  0.23712111915E-01  0.00000000000E+00 0.  1.
     999901    1    3    3    0    0 -0.71465363915E-01 -0.54363663444E-01 -0.91196373596E-01  0.88925782802E+00  0.88000000000E+00 0. -1.
        -11    1    4    4    0    0  0.57602352495E-01  0.24434101534E-01  0.52103284254E-01  0.81425239833E-01  0.51100000000E-03 0. -1.
         11    1    4    4    0    0  0.24527924807E-01  0.89641166325E-02  0.42088749232E-01  0.49534820230E-01  0.51100000000E-03 0.  1.
</event>
<event>
 8    1  0.1095698E+005  0.1043930E+01  0.7957747E-01            NaN
         13   -1    0    0    0    0  0.00000000000E+00  0.00000000000E+00  0.74505805969E-08  0.10566000000E+00  0.10566000000E+00 0.  1.
     999900   -1    0    0    0    0 -0.00000000000E+00 -0.00000000000E+00 -0.74505805969E-08  0.93827000000E+00  0.93827000000E+00 0. -1.
     999902    2    1    2    0    0 -0.11383396626E-01 -0.11641882634E-01  0.16739300280E-01  0.10205779268E+01  0.10203107298E+01 0.  0.
     999903    2    3    3    0    0  0.54419888511E-01  0.32665490142E-01 -0.10941792844E+00  0.12804845277E+00  0.19888807936E-01 0.  0.
         14    1    1    2    0    0  0.11383396626E-01  0.11641882634E-01 -0.16739300280E-01  0.23352073224E-01  0.00000000000E+00 0. -1.
     999901    1    3    3    0    0 -0.65803285137E-01 -0.44307372776E-01  0.12615722872E+00  0.89252947401E+00  0.88000000000E+00 0.  1.
        -11    1    4    4    0    0  0.17652351465E-01  0.21095616836E-01 -0.38328283907E-01  0.47179964288E-01  0.51100000000E-03 0. -1.
         11    1    4    4    0    0  0.36767537046E-01  0.11569873307E-01 -0.71089644528E-01  0.80868488479E-01  0.51100000000E-03 0.  1.
</event>
<event>
 8    1  0.1095698E+005  0.1043930E+01  0.7957747E-01            NaN
         13   -1    0    0    0    0  0.00000000000E+00  0.00000000000E+00  0.74505805969E-08  0.10566000000E+00  0.10566000000E+00 0.  1.
     999900   -1    0    0    0    0 -0.00000000000E+00 -0.00000000000E+00 -0.74505805969E-08  0.93827000000E+00  0.93827000000E+00 0.  1.
     999902    2    1    2    0    0  0.22646490316E-01  0.77823921276E-03 -0.21422140016E-02  0.10211691068E+01  0.10209154159E+01 0.  0.
     999903    2    3    3    0    0  0.88004325108E-01  0.63861848836E-01 -0.74067782978E-01  0.13357433670E+00  0.23086142517E-01 0.  0.
         14    1    1    2    0    0 -0.22646490316E-01 -0.77823921276E-03  0.21422140016E-02  0.22760893232E-01  0.00000000000E+00 0. -1.
     999901    1    3    3    0    0 -0.65357834792E-01 -0.63083609623E-01  0.71925568976E-01  0.88759477006E+00  0.88000000000E+00 0. -1.
        -11    1    4    4    0    0  0.32658846124E-01  0.10599341753E-01 -0.23468695124E-01  0.41593112982E-01  0.51100000000E-03 0. -1.
         11    1    4    4    0    0  0.55345478984E-01  0.53262507083E-01 -0.50599087853E-01  0.91981223722E-01  0.51100000000E-03 0.  1.
</event>
<event>
 8    1  0.1095698E+005  0.1043930E+01  0.7957747E-01            NaN
         13   -1    0    0    0    0  0.00000000000E+00  0.00000000000E+00  0.74505805969E-08  0.10566000000E+00  0.10566000000E+00 0. -1.
     999900   -1    0    0    0    0 -0.00000000000E+00 -0.00000000000E+00 -0.74505805969E-08  0.93827000000E+00  0.93827000000E+00 0.  1.
     999902    2    1    2    0    0 -0.18456135390E-01  0.15116413908E-01 -0.92323561726E-04  0.10200732729E+01  0.10197942629E+01 0.  0.
     999903    2    3    3    0    0 -0.10141759344E+00 -0.66371170229E-02 -0.81862053063E-01  0.13213064624E+00  0.20676855705E-01 0.  0.
         14    1    1    2    0    0  0.18456135390E-01 -0.15116413908E-01  0.92323561726E-04  0.23856727073E-01  0.00000000000E+00 0. -1.
     999901    1    3    3    0    0  0.82961458051E-01  0.21753530931E-01  0.81769729501E-01  0.88794262669E+00  0.88000000000E+00 0. -1.
        -11    1    4    4    0    0 -0.53920867571E-01  0.24306893216E-02 -0.32389647105E-01  0.62950127647E-01  0.51100000000E-03 0.  1.
         11    1    4    4    0    0 -0.47496725870E-01 -0.90678063446E-02 -0.49472405957E-01  0.69180518591E-01  0.51100000000E-03 0. -1.
</event>
<event>
 8    1  0.1095698E+005  0.1043930E+01  0.7957747E-01            NaN
         13   -1    0    0    0    0  0.00000000000E+00  0.00000000000E+00  0.74505805969E-08  0.10566000000E+00  0.10566000000E+00 0.  1.
     999900   -1    0    0    0    0 -0.00000000000E+00 -0.00000000000E+00 -0.74505805969E-08  0.93827000000E+00  0.93827000000E+00 0.  1.
     999902    2    1    2    0    0  0.15653359026E-01  0.18035291632E-01 -0.40817158844E-02  0.10197027468E+01  0.10194148969E+01 0.  0.
     999903    2    3    3    0    0  0.81595979029E-01 -0.76909569360E-01 -0.63075895087E-01  0.13018418660E+00  0.19908999136E-01 0.  0.
         14    1    1    2    0    0 -0.15653359026E-01 -0.18035291632E-01  0.40817158844E-02  0.24227253200E-01  0.00000000000E+00 0.  1.
     999901    1    3    3    0    0 -0.65942620003E-01  0.94944860993E-01  0.58994179202E-01  0.88951856020E+00  0.88000000000E+00 0. -1.
        -11    1    4    4    0    0  0.25939667420E-01 -0.27154466697E-01 -0.10911178983E-01  0.39109415174E-01  0.51100000000E-03 0.  1.
         11    1    4    4    0    0  0.55656311609E-01 -0.49755102663E-01 -0.52164716103E-01  0.91074771425E-01  0.51100000000E-03 0. -1.
</event>
<event>
 8    1  0.1095698E+005  0.1043930E+01  0.7957747E-01            NaN
         13   -1    0    0    0    0  0.00000000000E+00  0.00000000000E+00  0.74505805969E-08  0.10566000000E+00  0.10566000000E+00 0. -1.
     999900   -1    0    0    0    0 -0.00000000000E+00 -0.00000000000E+00 -0.74505805969E-08  0.93827000000E+00  0.93827000000E+00 0. -1.
     999902    2    1    2    0    0 -0.20266789466E-01 -0.63390185446E-02  0.97718327122E-02  0.10205544866E+01  0.10202867467E+01 0.  0.
     999903    2    3    3    0    0  0.10764047119E+00 -0.46030247137E-01 -0.50613974502E-01  0.12837619352E+00  0.14608831556E-01 0.  0.
         14    1    1    2    0    0  0.20266789466E-01  0.63390185446E-02 -0.97718327122E-02  0.23375513383E-01  0.00000000000E+00 0.  1.
     999901    1    3    3    0    0 -0.12790726065E+00  0.39691228592E-01  0.60385807215E-01  0.89217829309E+00  0.88000000000E+00 0. -1.
        -11    1    4    4    0    0  0.10517177764E+00 -0.42842093617E-01 -0.46889982969E-01  0.12286366192E+00  0.51100000000E-03 0.  1.
         11    1    4    4    0    0  0.24686935498E-02 -0.31881535196E-02 -0.37239915334E-02  0.55125316007E-02  0.51100000000E-03 0. -1.
</event>
<event>
 8    1  0.1095698E+005  0.1043930E+01  0.7957747E-01            NaN
         13   -1    0    0    0    0  0.00000000000E+00  0.00000000000E+00  0.74505805969E-08  0.10566000000E+00  0.10566000000E+00 0. -1.
     999900   -1    0    0    0    0 -0.00000000000E+00 -0.00000000000E+00 -0.74505805969E-08  0.93827000000E+00  0.93827000000E+00 0. -1.
     999902    2    1    2    0    0 -0.12003875084E-01 -0.16436205074E-01 -0.12239933618E-01  0.10201800983E+01  0.10199036107E+01 0.  0.
     999903    2    3    3    0    0 -0.10164892816E+00 -0.60808492821E-01  0.54584388494E-01  0.13199620663E+00  0.20331396943E-01 0.  0.
         14    1    1    2    0    0  0.12003875084E-01  0.16436205074E-01  0.12239933618E-01  0.23749901668E-01  0.00000000000E+00 0. -1.
     999901    1    3    3    0    0  0.89645053073E-01  0.44372287746E-01 -0.66824322113E-01  0.88818389171E+00  0.88000000000E+00 0. -1.
        -11    1    4    4    0    0 -0.39286970743E-01 -0.12496876154E-01  0.20784363939E-01  0.46172382320E-01  0.51100000000E-03 0. -1.
         11    1    4    4    0    0 -0.62361957414E-01 -0.48311616667E-01  0.33800024555E-01  0.85823824306E-01  0.51100000000E-03 0.  1.
</event>
<event>
 8    1  0.1095698E+005  0.1043930E+01  0.7957747E-01            NaN
         13   -1    0    0    0    0  0.00000000000E+00  0.00000000000E+00  0.74505805969E-08  0.10566000000E+00  0.10566000000E+00 0.  1.
     999900   -1    0    0    0    0 -0.00000000000E+00 -0.00000000000E+00 -0.74505805969E-08  0.93827000000E+00  0.93827000000E+00 0.  1.
     999902    2    1    2    0    0 -0.17314153207E-01  0.15136326245E-01 -0.62681764451E-02  0.10200935089E+01  0.10198149776E+01 0.  0.
     999903    2    3    3    0    0  0.39656015231E-01 -0.26479140080E-01 -0.11950222904E+00  0.13003766916E+00  0.18848561027E-01 0.  0.
         14    1    1    2    0    0  0.17314153207E-01 -0.15136326245E-01  0.62681764451E-02  0.23836491130E-01  0.00000000000E+00 0.  1.
     999901    1    3    3    0    0 -0.56970168438E-01  0.41615466325E-01  0.11323405259E+00  0.89005583971E+00  0.88000000000E+00 0.  1.
        -11    1    4    4    0    0  0.16349591722E-01 -0.49910901347E-02 -0.24452464606E-01  0.29839642701E-01  0.51100000000E-03 0. -1.
         11    1    4    4    0    0  0.23306423509E-01 -0.21488049945E-01 -0.95049764432E-01  0.10019802646E+00  0.51100000000E-03 0.  1.
</event>
<event>
 8    1  0.1095698E+005  0.1043930E+01  0.7957747E-01            NaN
         13   -1    0    0    0    0  0.00000000000E+00  0.00000000000E+00  0.74505805969E-08  0.10566000000E+00  0.10566000000E+00 0.  1.
     999900   -1    0    0    0    0 -0.00000000000E+00 -0.00000000000E+00 -0.74505805969E-08  0.93827000000E+00  0.93827000000E+00 0. -1.
     999902    2    1    2    0    0  0.48210794757E-02  0.19593351065E-01 -0.12671942865E-01  0.10201031171E+01  0.10198248130E+01 0.  0.
     999903    2    3    3    0    0 -0.12692260512E+00  0.19886946759E-01 -0.84222332379E-02  0.13028597595E+00  0.19966551412E-01 0.  0.
         14    1    1    2    0    0 -0.48210794757E-02 -0.19593351065E-01  0.12671942865E-01  0.23826882910E-01  0.00000000000E+00 0.  1.
     999901    1    3    3    0    0  0.13174368460E+00 -0.29359569483E-03 -0.42497096270E-02  0.88981714114E+00  0.88000000000E+00 0.  1.
        -11    1    4    4    0    0 -0.69687214462E-01  0.19816346114E-01 -0.13815045041E-03  0.72451884995E-01  0.51100000000E-03 0. -1.
         11    1    4    4    0    0 -0.57235390658E-01  0.70600644892E-04 -0.82840827875E-02  0.57834090957E-01  0.51100000000E-03 0.  1.
</event>
<event>
 8    1  0.1095698E+005  0.1043930E+01  0.7957747E-01            NaN
         13   -1    0    0    0    0  0.00000000000E+00  0.00000000000E+00  0.74505805969E-08  0.10566000000E+00  0.10566000000E+00 0.  1.
     999900   -1    0    0    0    0 -0.00000000000E+00 -0.00000000000E+00 -0.74505805969E-08  0.93827000000E+00  0.93827000000E+00 0. -1.
     999902    2    1    2    0    0  0.11288092586E-01  0.12721466419E-01  0.16607240715E-01  0.10201590685E+01  0.10198820852E+01 0.  0.
     999903    2    3    3    0    0 -0.32083483335E-01  0.12590901953E+00 -0.58511488202E-02  0.13156641992E+00  0.19825635110E-01 0.  0.
         14    1    1    2    0    0 -0.11288092586E-01 -0.12721466419E-01 -0.16607240715E-01  0.23770931540E-01  0.00000000000E+00 0.  1.
     999901    1    3    3    0    0  0.43371575920E-01 -0.11318755311E+00  0.22458389536E-01  0.88859264854E+00  0.88000000000E+00 0. -1.
        -11    1    4    4    0    0 -0.25774199333E-01  0.11943785071E+00 -0.72665009543E-02  0.12240413674E+00  0.51100000000E-03 0. -1.
         11    1    4    4    0    0 -0.63092840014E-02  0.64711688139E-02  0.14153521341E-02  0.91622831811E-02  0.51100000000E-03 0.  1.
</event>
<event>
 8    1  0.1095698E+005  0.1043930E+01  0.7957747E-01            NaN
         13   -1    0    0    0    0  0.00000000000E+00  0.00000000000E+00  0.74505805969E-08  0.10566000000E+00  0.10566000000E+00 0.  1.
     999900   -1    0    0    0    0 -0.00000000000E+00 -0.00000000000E+00 -0.74505805969E-08  0.93827000000E+00  0.93827000000E+00 0. -1.
     999902    2    1    2    0    0  0.18786040382E-01 -0.14614534725E-01  0.11025172763E-02  0.10201032192E+01  0.10198249175E+01 0.  0.
     999903    2    3    3    0    0  0.67838317289E-01 -0.10956808768E+00  0.27194840643E-01  0.13325311213E+00  0.20239303476E-01 0.  0.
         14    1    1    2    0    0 -0.18786040382E-01  0.14614534725E-01 -0.11025172763E-02  0.23826780789E-01  0.00000000000E+00 0. -1.
     999901    1    3    3    0    0 -0.49052276907E-01  0.94953552952E-01 -0.26092323367E-01  0.88685010708E+00  0.88000000000E+00 0. -1.
        -11    1    4    4    0    0  0.55416571985E-01 -0.79200940650E-01  0.27277320755E-01  0.10043952807E+00  0.51100000000E-03 0.  1.
         11    1    4    4    0    0  0.12421745304E-01 -0.30367147027E-01 -0.82480111278E-04  0.32813584061E-01  0.51100000000E-03 0. -1.
</event>
<event>
 8    1  0.1095698E+005  0.1043930E+01  0.7957747E-01            NaN
         13   -1    0    0    0    0  0.00000000000E+00  0.00000000000E+00  0.74505805969E-08  0.10566000000E+00  0.10566000000E+00 0.  1.
     999900   -1    0    0    0    0 -0.00000000000E+00 -0.00000000000E+00 -0.74505805969E-08  0.93827000000E+00  0.93827000000E+00 0. -1.
     999902    2    1    2    0    0 -0.21871865341E-01 -0.10808705478E-01  0.17888709087E-01  0.10136775204E+01  0.10132259881E+01 0.  0.
     999903    2    3    3    0    0  0.42389720330E-01  0.42173636839E-01  0.10809223690E+00  0.12515438824E+00  0.20104357342E-01 0.  0.
         14    1    1    2    0    0  0.21871865341E-01  0.10808705478E-01 -0.17888709087E-01  0.30252479574E-01  0.00000000000E+00 0. -1.
     999901    1    3    3    0    0 -0.64261585671E-01 -0.52982342317E-01 -0.90203527816E-01  0.88852313218E+00  0.88000000000E+00 0.  1.
        -11    1    4    4    0    0  0.11721123694E-01  0.89316317342E-02  0.46200358667E-01  0.48496319943E-01  0.51100000000E-03 0. -1.
         11    1    4    4    0    0  0.30668596636E-01  0.33242005105E-01  0.61891878237E-01  0.76658068301E-01  0.51100000000E-03 0.  1.
</event>
<event>
 8    1  0.1095698E+005  0.1043930E+01  0.7957747E-01            NaN
         13   -1    0    0    0    0  0.00000000000E+00  0.00000000000E+00  0.74505805969E-08  0.10566000000E+00  0.10566000000E+00 0. -1.
     999900   -1    0    0    0    0 -0.00000000000E+00 -0.00000000000E+00 -0.74505805969E-08  0.93827000000E+00  0.93827000000E+00 0.  1.
     999902    2    1    2    0    0  0.18282713992E-01 -0.93505915355E-02 -0.13446463071E-01  0.10193841539E+01  0.10190885902E+01 0.  0.
     999903    2    3    3    0    0  0.15438820096E-01 -0.21346846475E-01 -0.12773839577E+00  0.13190759433E+00  0.19709659241E-01 0.  0.
         14    1    1    2    0    0 -0.18282713992E-01  0.93505915355E-02  0.13446463071E-01  0.24545846127E-01  0.00000000000E+00 0.  1.
     999901    1    3    3    0    0  0.28438938956E-02  0.11996254939E-01  0.11429193270E+00  0.88747655955E+00  0.88000000000E+00 0. -1.
        -11    1    4    4    0    0 -0.20149733370E-02 -0.12520715567E-01 -0.63490218026E-01  0.64746407946E-01  0.51100000000E-03 0.  1.
         11    1    4    4    0    0  0.17453793433E-01 -0.88261309081E-02 -0.64248177741E-01  0.67161186381E-01  0.51100000000E-03 0. -1.
</event>
<event>
 8    1  0.1095698E+005  0.1043930E+01  0.7957747E-01            NaN
         13   -1    0    0    0    0  0.00000000000E+00  0.00000000000E+00  0.74505805969E-08  0.10566000000E+00  0.10566000000E+00 0. -1.
     999900   -1    0    0    0    0 -0.00000000000E+00 -0.00000000000E+00 -0.74505805969E-08  0.93827000000E+00  0.93827000000E+00 0.  1.
     999902    2    1    2    0    0  0.16513749084E-01  0.12861634497E-01 -0.11824476754E-01  0.10198895382E+01  0.10196061624E+01 0.  0.
     999903    2    3    3    0    0 -0.11435416938E+00  0.10204252296E-01 -0.55646238896E-01  0.12912928958E+00  0.19921513632E-01 0.  0.
         14    1    1    2    0    0 -0.16513749084E-01 -0.12861634497E-01  0.11824476754E-01  0.24040461751E-01  0.00000000000E+00 0. -1.
     999901    1    3    3    0    0  0.13086791846E+00  0.26573822008E-02  0.43821762142E-01  0.89076024866E+00  0.88000000000E+00 0. -1.
        -11    1    4    4    0    0 -0.98024667853E-01  0.15446462085E-01 -0.49568977100E-01  0.11092688272E+00  0.51100000000E-03 0.  1.
         11    1    4    4    0    0 -0.16329501528E-01 -0.52422097892E-02 -0.60772617960E-02  0.18202406862E-01  0.51100000000E-03 0. -1.
</event>
<event>
 8    1  0.1095698E+005  0.1043930E+01  0.7957747E-01            NaN
         13   -1    0    0    0    0  0.00000000000E+00  0.00000000000E+00  0.74505805969E-08  0.10566000000E+00  0.10566000000E+00 0. -1.
     999900   -1    0    0    0    0 -0.00000000000E+00 -0.00000000000E+00 -0.74505805969E-08  0.93827000000E+00  0.93827000000E+00 0.  1.
     999902    2    1    2    0    0 -0.22685186432E-01 -0.30590123007E-02 -0.60974752607E-02  0.10202413013E+01  0.10199662536E+01 0.  0.
     999903    2    3    3    0    0  0.75808579885E-01 -0.89114326993E-01 -0.51704629701E-01  0.12940655138E+00  0.19605681553E-01 0.  0.
         14    1    1    2    0    0  0.22685186432E-01  0.30590123007E-02  0.60974752607E-02  0.23688698661E-01  0.00000000000E+00 0. -1.
     999901    1    3    3    0    0 -0.98493766316E-01  0.86055314693E-01  0.45607154440E-01  0.89083474995E+00  0.88000000000E+00 0.  1.
        -11    1    4    4    0    0  0.60055609230E-01 -0.63246183306E-01 -0.45918382695E-01  0.98567311484E-01  0.51100000000E-03 0.  1.
         11    1    4    4    0    0  0.15752970654E-01 -0.25868143688E-01 -0.57862470065E-02  0.30839239901E-01  0.51100000000E-03 0. -1.
</event>
<event>
 8    1  0.1095698E+005  0.1043930E+01  0.7957747E-01            NaN
         13   -1    0    0    0    0  0.00000000000E+00  0.00000000000E+00  0.74505805969E-08  0.10566000000E+00  0.10566000000E+00 0. -1.
     999900   -1    0    0    0    0 -0.00000000000E+00 -0.00000000000E+00 -0.74505805969E-08  0.93827000000E+00  0.93827000000E+00 0.  1.
     999902    2    1    2    0    0 -0.15902241092E-01 -0.67554801784E-02  0.11361533071E-01  0.10232514551E+01  0.10230424909E+01 0.  0.
     999903    2    3    3    0    0 -0.12599449889E+00 -0.31930440829E-01 -0.29398189132E-01  0.13509863110E+00  0.22208552405E-01 0.  0.
         14    1    1    2    0    0  0.15902241092E-01  0.67554801784E-02 -0.11361533071E-01  0.20678544869E-01  0.00000000000E+00 0.  1.
     999901    1    3    3    0    0  0.11009225780E+00  0.25174960650E-01  0.40759722203E-01  0.88815282403E+00  0.88000000000E+00 0.  1.
        -11    1    4    4    0    0 -0.85618432665E-01 -0.10966016935E-01 -0.17576030221E-01  0.88090564187E-01  0.51100000000E-03 0. -1.
         11    1    4    4    0    0 -0.40376066226E-01 -0.20964423894E-01 -0.11822158911E-01  0.47008066918E-01  0.51100000000E-03 0.  1.
</event>
<event>
 8    1  0.1095698E+005  0.1043930E+01  0.7957747E-01            NaN
         13   -1    0    0    0    0  0.00000000000E+00  0.00000000000E+00  0.74505805969E-08  0.10566000000E+00  0.10566000000E+00 0.  1.
     999900   -1    0    0    0    0 -0.00000000000E+00 -0.00000000000E+00 -0.74505805969E-08  0.93827000000E+00  0.93827000000E+00 0.  1.
     999902    2    1    2    0    0  0.58664201168E-02  0.50427204179E-02  0.22691538855E-01  0.10199560589E+01  0.10196742678E+01 0.  0.
     999903    2    3    3    0    0  0.94085788259E-01 -0.74487384035E-01 -0.42681695392E-01  0.12957335797E+00  0.23812224642E-01 0.  0.
         14    1    1    2    0    0 -0.58664201168E-02 -0.50427204179E-02 -0.22691538855E-01  0.23973941057E-01  0.00000000000E+00 0. -1.
     999901    1    3    3    0    0 -0.88219368142E-01  0.79530104453E-01  0.65373234247E-01  0.89038270097E+00  0.88000000000E+00 0.  1.
        -11    1    4    4    0    0  0.61720661410E-01 -0.62180388305E-01 -0.28230921892E-01  0.92049371570E-01  0.51100000000E-03 0. -1.
         11    1    4    4    0    0  0.32365126849E-01 -0.12306995730E-01 -0.14450773500E-01  0.37523986404E-01  0.51100000000E-03 0.  1.
</event>
<event>
 8    1  0.1095698E+005  0.1043930E+01  0.7957747E-01            NaN
         13   -1    0    0    0    0  0.00000000000E+00  0.00000000000E+00  0.74505805969E-08  0.10566000000E+00  0.10566000000E+00 0. -1.
     999900   -1    0    0    0    0 -0.00000000000E+00 -0.00000000000E+00 -0.74505805969E-08  0.93827000000E+00  0.93827000000E+00 0.  1.
     999902    2    1    2    0    0  0.21727384703E-01  0.65643115628E-02  0.60947322280E-05  0.10212326550E+01  0.10209803946E+01 0.  0.
     999903    2    3    3    0    0  0.98772220517E-01  0.41600685447E-01  0.77347066339E-01  0.13379528815E+00  0.20785617227E-01 0.  0.
         14    1    1    2    0    0 -0.21727384703E-01 -0.65643115628E-02 -0.60947322280E-05  0.22697344988E-01  0.00000000000E+00 0.  1.
     999901    1    3    3    0    0 -0.77044835813E-01 -0.35036373884E-01 -0.77340971607E-01  0.88743736687E+00  0.88000000000E+00 0.  1.
        -11    1    4    4    0    0  0.64537177490E-01  0.18186212903E-01  0.54713890204E-01  0.86542801667E-01  0.51100000000E-03 0. -1.
         11    1    4    4    0    0  0.34235043027E-01  0.23414472544E-01  0.22633176136E-01  0.47252486480E-01  0.51100000000E-03 0.  1.
</event>
<event>
 8    1  0.1095698E+005  0.1043930E+01  0.7957747E-01            NaN
         13   -1    0    0    0    0  0.00000000000E+00  0.00000000000E+00  0.74505805969E-08  0.10566000000E+00  0.10566000000E+00 0. -1.
     999900   -1    0    0    0    0 -0.00000000000E+00 -0.00000000000E+00 -0.74505805969E-08  0.93827000000E+00  0.93827000000E+00 0. -1.
     999902    2    1    2    0    0  0.15468785610E-01 -0.68837968203E-02  0.16686153441E-01  0.10201582162E+01  0.10198812129E+01 0.  0.
     999903    2    3    3    0    0 -0.80149447479E-01 -0.65170522366E-01 -0.73990017014E-01  0.12843945072E+00  0.18736033923E-01 0.  0.
         14    1    1    2    0    0 -0.15468785610E-01  0.68837968203E-02 -0.16686153441E-01  0.23771783769E-01  0.00000000000E+00 0.  1.
     999901    1    3    3    0    0  0.95618233090E-01  0.58286725546E-01  0.90676170454E-01  0.89171876551E+00  0.88000000000E+00 0.  1.
        -11    1    4    4    0    0 -0.21789796043E-01 -0.24008070368E-01 -0.32179605643E-01  0.45683375474E-01  0.51100000000E-03 0.  1.
         11    1    4    4    0    0 -0.58359651437E-01 -0.41162451998E-01 -0.41810411370E-01  0.82756075247E-01  0.51100000000E-03 0. -1.
</event>
<event>
 8    1  0.1095698E+005  0.1043930E+01  0.7957747E-01            NaN
         13   -1    0    0    0    0  0.00000000000E+00  0.00000000000E+00  0.74505805969E-08  0.10566000000E+00  0.10566000000E+00 0.  1.
     999900   -1    0    0    0    0 -0.00000000000E+00 -0.00000000000E+00 -0.74505805969E-08  0.93827000000E+00  0.93827000000E+00 0.  1.
     999902    2    1    2    0    0  0.15990603952E-02 -0.17064956957E-01 -0.16398206346E-01  0.10202093145E+01  0.10199335147E+01 0.  0.
     999903    2    3    3    0    0  0.72831209305E-01  0.60403002620E-01 -0.88374657291E-01  0.13102096925E+00  0.20087472677E-01 0.  0.
         14    1    1    2    0    0 -0.15990603952E-02  0.17064956957E-01  0.16398206346E-01  0.23720685518E-01  0.00000000000E+00 0.  1.
     999901    1    3    3    0    0 -0.71232148910E-01 -0.77467959577E-01  0.71976450945E-01  0.88918834523E+00  0.88000000000E+00 0. -1.
        -11    1    4    4    0    0  0.23155211588E-01  0.15768347865E-01 -0.14917368041E-01  0.31742615020E-01  0.51100000000E-03 0.  1.
         11    1    4    4    0    0  0.49675997718E-01  0.44634654754E-01 -0.73457289250E-01  0.99278354233E-01  0.51100000000E-03 0. -1.
</event>
<event>
 8    1  0.1095698E+005  0.1043930E+01  0.7957747E-01            NaN
         13   -1    0    0    0    0  0.00000000000E+00  0.00000000000E+00  0.74505805969E-08  0.10566000000E+00  0.10566000000E+00 0. -1.
     999900   -1    0    0    0    0 -0.00000000000E+00 -0.00000000000E+00 -0.74505805969E-08  0.93827000000E+00  0.93827000000E+00 0. -1.
     999902    2    1    2    0    0  0.12376526113E-01 -0.19300859751E-01 -0.58138117711E-02  0.10202762055E+01  0.10200019772E+01 0.  0.
     999903    2    3    3    0    0 -0.13068863016E-01 -0.31757061005E-01  0.12406441610E+00  0.13029250969E+00  0.20120950157E-01 0.  0.
         14    1    1    2    0    0 -0.12376526113E-01  0.19300859751E-01  0.58138117711E-02  0.23653794475E-01  0.00000000000E+00 0.  1.
     999901    1    3    3    0    0  0.25445389129E-01  0.12456201255E-01 -0.12987822787E+00  0.88998369584E+00  0.88000000000E+00 0. -1.
        -11    1    4    4    0    0 -0.15526493159E-01 -0.33368180250E-01  0.11390594854E+00  0.11970519487E+00  0.51100000000E-03 0. -1.
         11    1    4    4    0    0  0.24576301433E-02  0.16111192444E-02  0.10158467554E-01  0.10587314825E-01  0.51100000000E-03 0.  1.
</event>
<event>
 8    1  0.1095698E+005  0.1043930E+01  0.7957747E-01            NaN
         13   -1    0    0    0    0  0.00000000000E+00  0.00000000000E+00  0.74505805969E-08  0.10566000000E+00  0.10566000000E+00 0.  1.
     999900   -1    0    0    0    0 -0.00000000000E+00 -0.00000000000E+00 -0.74505805969E-08  0.93827000000E+00  0.93827000000E+00 0. -1.
     999902    2    1    2    0    0  0.76026035217E-02  0.13530573929E-01  0.17941998495E-01  0.10202067768E+01  0.10199309173E+01 0.  0.
     999903    2    3    3    0    0 -0.10513287656E+00 -0.58410118220E-01 -0.39846573906E-01  0.12822904679E+00  0.19755387706E-01 0.  0.
         14    1    1    2    0    0 -0.76026035217E-02 -0.13530573929E-01 -0.17941998495E-01  0.23723223245E-01  0.00000000000E+00 0. -1.
     999901    1    3    3    0    0  0.11273548008E+00  0.71940692149E-01  0.57788572400E-01  0.89197772997E+00  0.88000000000E+00 0.  1.
        -11    1    4    4    0    0 -0.43509206649E-01 -0.34145239564E-01 -0.13377468893E-01  0.56904887691E-01  0.51100000000E-03 0.  1.
         11    1    4    4    0    0 -0.61623669913E-01 -0.24264878656E-01 -0.26469105013E-01  0.71324159097E-01  0.51100000000E-03 0. -1.
</event>
<event>
 8    1  0.1095698E+005  0.1043930E+01  0.7957747E-01            NaN
         13   -1    0    0    0    0  0.00000000000E+00  0.00000000000E+00  0.74505805969E-08  0.10566000000E+00  0.10566000000E+00 0.  1.
     999900   -1    0    0    0    0 -0.00000000000E+00 -0.00000000000E+00 -0.74505805969E-08  0.93827000000E+00  0.93827000000E+00 0.  1.
     999902    2    1    2    0    0 -0.18016245386E-01 -0.10820065473E-01 -0.10632172914E-01  0.10203778872E+01  0.10201060390E+01 0.  0.
     999903    2    3    3    0    0  0.58098424343E-01 -0.50902509491E-02  0.11281656472E+00  0.12848895663E+00  0.19506335734E-01 0.  0.
         14    1    1    2    0    0  0.18016245386E-01  0.10820065473E-01  0.10632172914E-01  0.23552112761E-01  0.00000000000E+00 0.  1.
     999901    1    3    3    0    0 -0.76114669729E-01 -0.57298145235E-02 -0.12344873764E+00  0.89188893061E+00  0.88000000000E+00 0.  1.
        -11    1    4    4    0    0  0.32227343893E-01  0.49796813852E-02  0.48626217745E-01  0.58550568693E-01  0.51100000000E-03 0.  1.
         11    1    4    4    0    0  0.25871080450E-01 -0.10069932334E-01  0.64190346977E-01  0.69938387935E-01  0.51100000000E-03 0. -1.
</event>
<event>
 8    1  0.1095698E+005  0.1043930E+01  0.7957747E-01            NaN
         13   -1    0    0    0    0  0.00000000000E+00  0.00000000000E+00  0.74505805969E-08  0.10566000000E+00  0.10566000000E+00 0. -1.
     999900   -1    0    0    0    0 -0.00000000000E+00 -0.00000000000E+00 -0.74505805969E-08  0.93827000000E+00  0.93827000000E+00 0.  1.
     999902    2    1    2    0    0  0.18473918679E-01 -0.14594880825E-01  0.77535717630E-02  0.10191426223E+01  0.10188411410E+01 0.  0.
     999903    2    3    3    0    0  0.12143436075E+00 -0.48455539052E-01 -0.64977604091E-02  0.13237856278E+00  0.19688061321E-01 0.  0.
         14    1    1    2    0    0 -0.18473918679E-01  0.14594880825E-01 -0.77535717630E-02  0.24787377689E-01  0.00000000000E+00 0. -1.
     999901    1    3    3    0    0 -0.10296044207E+00  0.33860658227E-01  0.14251332172E-01  0.88676405953E+00  0.88000000000E+00 0. -1.
        -11    1    4    4    0    0  0.55898726717E-01 -0.20019793056E-01  0.66126535719E-02  0.59744858112E-01  0.51100000000E-03 0. -1.
         11    1    4    4    0    0  0.65535634030E-01 -0.28435745995E-01 -0.13110413981E-01  0.72633704667E-01  0.51100000000E-03 0.  1.
</event>
<event>
 7    1  0.1095698E+005  0.1043930E+01  0.7957747E-01            NaN
         13   -1    0    0    0    0  0.00000000000E+00  0.00000000000E+00  0.74505805969E-08  0.10566000000E+00  0.10566000000E+00 0.  1.
     999900   -1    0    0    0    0 -0.00000000000E+00 -0.00000000000E+00 -0.74505805969E-08  0.93827000000E+00  0.93827000000E+00 0. -1.
     999903    2    1    2    0    0 -0.36723653579E-01  0.93027627219E-01 -0.22037179351E-01  0.10386238551E+00  0.17291376250E-01 0.  0.
         14    1    1    2    0    0 -0.14409521052E-01 -0.28203212692E-01  0.46034831297E-01  0.55877197457E-01  0.00000000000E+00 0. -1.
     999901    1    1    2    0    0  0.51133174631E-01 -0.64824414527E-01 -0.23997651946E-01  0.88419041703E+00  0.88000000000E+00 0. -1.
        -11    1    3    3    0    0 -0.18593377598E-01  0.39997249729E-01 -0.18093984394E-01  0.47677532116E-01  0.51100000000E-03 0.  1.
         11    1    3    3    0    0 -0.18130275980E-01  0.53030377490E-01 -0.39431949576E-02  0.56184853398E-01  0.51100000000E-03 0. -1.
</event>
<event>
 8    1  0.1095698E+005  0.1043930E+01  0.7957747E-01            NaN
         13   -1    0    0    0    0  0.00000000000E+00  0.00000000000E+00  0.74505805969E-08  0.10566000000E+00  0.10566000000E+00 0. -1.
     999900   -1    0    0    0    0 -0.00000000000E+00 -0.00000000000E+00 -0.74505805969E-08  0.93827000000E+00  0.93827000000E+00 0. -1.
     999902    2    1    2    0    0  0.16081048373E-01  0.22623343330E-02  0.18448446914E-01  0.10193522974E+01  0.10190559566E+01 0.  0.
     999903    2    3    3    0    0 -0.11588577395E+00 -0.28516676320E-01  0.43002042707E-01  0.12864164358E+00  0.21372490583E-01 0.  0.
         14    1    1    2    0    0 -0.16081048373E-01 -0.22623343330E-02 -0.18448446914E-01  0.24577702638E-01  0.00000000000E+00 0.  1.
     999901    1    3    3    0    0  0.13196682232E+00  0.30779010653E-01 -0.24553595793E-01  0.89071065378E+00  0.88000000000E+00 0.  1.
        -11    1    4    4    0    0 -0.64913148336E-01 -0.82645450274E-02  0.15352360716E-01  0.67215888241E-01  0.51100000000E-03 0.  1.
         11    1    4    4    0    0 -0.50972625616E-01 -0.20252131292E-01  0.27649681991E-01  0.61425755341E-01  0.51100000000E-03 0. -1.
</event>
<event>
 8    1  0.1095698E+005  0.1043930E+01  0.7957747E-01            NaN
         13   -1    0    0    0    0  0.00000000000E+00  0.00000000000E+00  0.74505805969E-08  0.10566000000E+00  0.10566000000E+00 0.  1.
     999900   -1    0    0    0    0 -0.00000000000E+00 -0.00000000000E+00 -0.74505805969E-08  0.93827000000E+00  0.93827000000E+00 0. -1.
     999902    2    1    2    0    0  0.11302283916E-01 -0.20923176470E-01  0.27570787691E-02  0.10199900247E+01  0.10197090409E+01 0.  0.
     999903    2    3    3    0    0  0.22503405259E-01 -0.12489516742E+00 -0.34598259598E-01  0.13301141088E+00  0.19743094086E-01 0.  0.
         14    1    1    2    0    0 -0.11302283916E-01  0.20923176470E-01 -0.27570787691E-02  0.23939975327E-01  0.00000000000E+00 0. -1.
     999901    1    3    3    0    0 -0.11201121343E-01  0.10397199095E+00  0.37355338367E-01  0.88697861379E+00  0.88000000000E+00 0.  1.
        -11    1    4    4    0    0  0.21478682093E-02 -0.67007569066E-01 -0.19363466816E-01  0.69784186018E-01  0.51100000000E-03 0. -1.
         11    1    4    4    0    0  0.20355537050E-01 -0.57887598354E-01 -0.15234792782E-01  0.63227224863E-01  0.51100000000E-03 0.  1.
</event>
<event>
 8    1  0.1127144E+005  0.1043930E+01  0.7957747E-01            NaN
         13   -1    0    0    0    0  0.00000000000E+00  0.00000000000E+00  0.74505805969E-08  0.10566000000E+00  0.10566000000E+00 0. -1.
     999900   -1    0    0    0    0 -0.00000000000E+00 -0.00000000000E+00 -0.74505805969E-08  0.93827000000E+00  0.93827000000E+00 0.  1.
     999902    2    1    2    0    0  0.75694009761E-02  0.68062787773E-02 -0.22331240846E-01  0.10193880852E+01  0.10190926174E+01 0.  0.
     999903    2    3    3    0    0 -0.66662062168E-01  0.47868484842E-01 -0.10114783837E+00  0.13180233112E+00  0.20143160340E-01 0.  0.
         14    1    1    2    0    0 -0.75694009761E-02 -0.68062787773E-02  0.22331240846E-01  0.24541914752E-01  0.00000000000E+00 0. -1.
     999901    1    3    3    0    0  0.74231463144E-01 -0.41062206065E-01  0.78816597521E-01  0.88758575413E+00  0.88000000000E+00 0. -1.
        -11    1    4    4    0    0 -0.33101474722E-01  0.11807892295E-01 -0.39102705821E-01  0.52577720308E-01  0.51100000000E-03 0.  1.
         11    1    4    4    0    0 -0.33560587447E-01  0.36060592547E-01 -0.62045132546E-01  0.79224610812E-01  0.51100000000E-03 0. -1.
</event>
<event>
 8    1  0.1095698E+005  0.1043930E+01  0.7957747E-01            NaN
         13   -1    0    0    0    0  0.00000000000E+00  0.00000000000E+00  0.74505805969E-08  0.10566000000E+00  0.10566000000E+00 0.  1.
     999900   -1    0    0    0    0 -0.00000000000E+00 -0.00000000000E+00 -0.74505805969E-08  0.93827000000E+00  0.93827000000E+00 0.  1.
     999902    2    1    2    0    0  0.61068818752E-02 -0.10019786304E-02 -0.22710262655E-01  0.10203916484E+01  0.10201201214E+01 0.  0.
     999903    2    3    3    0    0  0.12154647055E-01 -0.12270052428E+00 -0.42059370678E-01  0.13178515534E+00  0.19879195257E-01 0.  0.
         14    1    1    2    0    0 -0.61068818752E-02  0.10019786304E-02  0.22710262655E-01  0.23538351626E-01  0.00000000000E+00 0.  1.
     999901    1    3    3    0    0 -0.60477651796E-02  0.12169854565E+00  0.19349108022E-01  0.88860649303E+00  0.88000000000E+00 0.  1.
        -11    1    4    4    0    0  0.17413273132E-01 -0.10349798511E+00 -0.36278032989E-01  0.11104689010E+00  0.51100000000E-03 0. -1.
         11    1    4    4    0    0 -0.52586260776E-02 -0.19202539169E-01 -0.57813376883E-02  0.20738265242E-01  0.51100000000E-03 0.  1.
</event>
<event>
 8    1  0.1095698E+005  0.1043930E+01  0.7957747E-01            NaN
         13   -1    0    0    0    0  0.00000000000E+00  0.00000000000E+00  0.74505805969E-08  0.10566000000E+00  0.10566000000E+00 0.  1.
     999900   -1    0    0    0    0 -0.00000000000E+00 -0.00000000000E+00 -0.74505805969E-08  0.93827000000E+00  0.93827000000E+00 0. -1.
     999902    2    1    2    0    0  0.13520400044E-01  0.49816338129E-03 -0.19625153430E-01  0.10200931371E+01  0.10198145971E+01 0.  0.
     999903    2    3    3    0    0 -0.73171756864E-01 -0.10292604043E+00 -0.22406485130E-01  0.12980114469E+00  0.19960230090E-01 0.  0.
         14    1    1    2    0    0 -0.13520400044E-01 -0.49816338129E-03  0.19625153430E-01  0.23836862865E-01  0.00000000000E+00 0.  1.
     999901    1    3    3    0    0  0.86692156908E-01  0.10342420382E+00  0.27813316998E-02  0.89029199244E+00  0.88000000000E+00 0.  1.
        -11    1    4    4    0    0 -0.35260299267E-01 -0.51190850895E-01 -0.21106142207E-01  0.65646951793E-01  0.51100000000E-03 0. -1.
         11    1    4    4    0    0 -0.37911457597E-01 -0.51735189539E-01 -0.13003429223E-02  0.64154192898E-01  0.51100000000E-03 0.  1.
</event>
<event>
 8    1  0.1095698E+005  0.1043930E+01  0.7957747E-01            NaN
         13   -1    0    0    0    0  0.00000000000E+00  0.00000000000E+00  0.74505805969E-08  0.10566000000E+00  0.10566000000E+00 0.  1.
     999900   -1    0    0    0    0 -0.00000000000E+00 -0.00000000000E+00 -0.74505805969E-08  0.93827000000E+00  0.93827000000E+00 0. -1.
     999902    2    1    2    0    0 -0.10869898217E-01 -0.78312723133E-02  0.19354551551E-01  0.10203910497E+01  0.10201195088E+01 0.  0.
     999903    2    3    3    0    0 -0.25367295648E-01 -0.86023866839E-03  0.12941922417E+00  0.13338879383E+00  0.19974860111E-01 0.  0.
         14    1    1    2    0    0  0.10869898217E-01  0.78312723133E-02 -0.19354551551E-01  0.23538950254E-01  0.00000000000E+00 0. -1.
     999901    1    3    3    0    0  0.14497397430E-01 -0.69710336449E-02 -0.11006467262E+00  0.88700225592E+00  0.88000000000E+00 0. -1.
        -11    1    4    4    0    0 -0.23119103979E-02  0.74258253698E-02  0.30920902581E-01  0.31888103574E-01  0.51100000000E-03 0.  1.
         11    1    4    4    0    0 -0.23055385250E-01 -0.82860640381E-02  0.98498321586E-01  0.10150069026E+00  0.51100000000E-03 0. -1.
</event>
<event>
 8    1  0.1095698E+005  0.1043930E+01  0.7957747E-01            NaN
         13   -1    0    0    0    0  0.00000000000E+00  0.00000000000E+00  0.74505805969E-08  0.10566000000E+00  0.10566000000E+00 0.  1.
     999900   -1    0    0    0    0 -0.00000000000E+00 -0.00000000000E+00 -0.74505805969E-08  0.93827000000E+00  0.93827000000E+00 0.  1.
     999902    2    1    2    0    0  0.11761276757E-01  0.14760304451E-01  0.12693777971E-01  0.10211851936E+01  0.10209318652E+01 0.  0.
     999903    2    3    3    0    0  0.11801361715E+00  0.14202033277E-01  0.57740059925E-01  0.13364982022E+00  0.19986203793E-01 0.  0.
         14    1    1    2    0    0 -0.11761276757E-01 -0.14760304451E-01 -0.12693777971E-01  0.22744806388E-01  0.00000000000E+00 0. -1.
     999901    1    3    3    0    0 -0.10625234039E+00  0.55827117398E-03 -0.45046281954E-01  0.88753537339E+00  0.88000000000E+00 0.  1.
        -11    1    4    4    0    0  0.77487210537E-01  0.13153308217E-01  0.28266836609E-01  0.83525759420E-01  0.51100000000E-03 0.  1.
         11    1    4    4    0    0  0.40526406615E-01  0.10487250602E-02  0.29473223316E-01  0.50124060799E-01  0.51100000000E-03 0. -1.
</event>
<event>
 8    1  0.1095698E+005  0.1043930E+01  0.7957747E-01            NaN
         13   -1    0    0    0    0  0.00000000000E+00  0.00000000000E+00  0.74505805969E-08  0.10566000000E+00  0.10566000000E+00 0.  1.
     999900   -1    0    0    0    0 -0.00000000000E+00 -0.00000000000E+00 -0.74505805969E-08  0.93827000000E+00  0.93827000000E+00 0.  1.
     999902    2    1    2    0    0 -0.16985841816E-02 -0.18877753122E-01 -0.25112406770E-01  0.10124675188E+01  0.10119785516E+01 0.  0.
     999903    2    3    3    0    0  0.14370997082E-01 -0.10368115568E+00  0.63156253259E-01  0.12384993799E+00  0.19844072560E-01 0.  0.
         14    1    1    2    0    0  0.16985841816E-02  0.18877753122E-01  0.25112406770E-01  0.31462481227E-01  0.00000000000E+00 0.  1.
     999901    1    3    3    0    0 -0.16069581264E-01  0.84803402554E-01 -0.88268660029E-01  0.88861758078E+00  0.88000000000E+00 0. -1.
        -11    1    4    4    0    0  0.19315958435E-01 -0.82427982009E-01  0.51687412556E-01  0.99193387915E-01  0.51100000000E-03 0. -1.
         11    1    4    4    0    0 -0.49449613521E-02 -0.21253173668E-01  0.11468840703E-01  0.24656550079E-01  0.51100000000E-03 0.  1.
</event>
<event>
 8    1  0.1095698E+005  0.1043930E+01  0.7957747E-01            NaN
         13   -1    0    0    0    0  0.00000000000E+00  0.00000000000E+00  0.74505805969E-08  0.10566000000E+00  0.10566000000E+00 0.  1.
     999900   -1    0    0    0    0 -0.00000000000E+00 -0.00000000000E+00 -0.74505805969E-08  0.93827000000E+00  0.93827000000E+00 0. -1.
     999902    2    1    2    0    0 -0.50679293693E-02 -0.18359450203E-01 -0.16254884085E-01  0.10188905396E+01  0.10185828180E+01 0.  0.
     999903    2    3    3    0    0 -0.12024197499E+00  0.31233629257E-01 -0.31356442967E-01  0.12987277185E+00  0.21214103986E-01 0.  0.
         14    1    1    2    0    0  0.50679293693E-02  0.18359450203E-01  0.16254884085E-01  0.25039460387E-01  0.00000000000E+00 0. -1.
     999901    1    3    3    0    0  0.11517404562E+00 -0.49593079460E-01  0.15101558882E-01  0.88901776776E+00  0.88000000000E+00 0.  1.
        -11    1    4    4    0    0 -0.90214834265E-01  0.14671033583E-01 -0.18556319714E-01  0.93266037067E-01  0.51100000000E-03 0. -1.
         11    1    4    4    0    0 -0.30027140720E-01  0.16562595674E-01 -0.12800123253E-01  0.36606734784E-01  0.51100000000E-03 0.  1.
</event>
<event>
 8    1  0.1095698E+005  0.1043930E+01  0.7957747E-01            NaN
         13   -1    0    0    0    0  0.00000000000E+00  0.00000000000E+00  0.74505805969E-08  0.10566000000E+00  0.10566000000E+00 0. -1.
     999900   -1    0    0    0    0 -0.00000000000E+00 -0.00000000000E+00 -0.74505805969E-08  0.93827000000E+00  0.93827000000E+00 0. -1.
     999902    2    1    2    0    0 -0.20264569739E-01  0.62910259318E-02  0.47870556294E-02  0.10221780875E+01  0.10219466214E+01 0.  0.
     999903    2    3    3    0    0  0.74016806194E-01 -0.11112877210E-01  0.10583627514E+00  0.13122196154E+00  0.20393685700E-01 0.  0.
         14    1    1    2    0    0  0.20264569739E-01 -0.62910259318E-02 -0.47870556294E-02  0.21751912458E-01  0.00000000000E+00 0. -1.
     999901    1    3    3    0    0 -0.94281375933E-01  0.17403903142E-01 -0.10104921951E+00  0.89095612600E+00  0.88000000000E+00 0. -1.
        -11    1    4    4    0    0  0.55650071437E-01  0.46295240313E-03  0.80288074232E-01  0.97691252222E-01  0.51100000000E-03 0. -1.
         11    1    4    4    0    0  0.18366734757E-01 -0.11575829613E-01  0.25548200908E-01  0.33530709320E-01  0.51100000000E-03 0.  1.
</event>
<event>
 8    1  0.1095698E+005  0.1043930E+01  0.7957747E-01            NaN
         13   -1    0    0    0    0  0.00000000000E+00  0.00000000000E+00  0.74505805969E-08  0.10566000000E+00  0.10566000000E+00 0. -1.
     999900   -1    0    0    0    0 -0.00000000000E+00 -0.00000000000E+00 -0.74505805969E-08  0.93827000000E+00  0.93827000000E+00 0. -1.
     999902    2    1    2    0    0  0.10338978098E-01 -0.90515308998E-02  0.19320347946E-01  0.10202213407E+01  0.10199458238E+01 0.  0.
     999903    2    3    3    0    0 -0.73848565289E-01  0.99759660467E-01 -0.26063166800E-01  0.12837657776E+00  0.19891118649E-01 0.  0.
         14    1    1    2    0    0 -0.10338978098E-01  0.90515308998E-02 -0.19320347946E-01  0.23708659272E-01  0.00000000000E+00 0. -1.
     999901    1    3    3    0    0  0.84187543388E-01 -0.10881119137E+00  0.45383514746E-01  0.89184476297E+00  0.88000000000E+00 0.  1.
        -11    1    4    4    0    0 -0.47686301580E-01  0.51613750118E-01 -0.21013271550E-01  0.73346992180E-01  0.51100000000E-03 0. -1.
         11    1    4    4    0    0 -0.26162263710E-01  0.48145910349E-01 -0.50498952505E-02  0.55029585577E-01  0.51100000000E-03 0.  1.
</event>
<event>
 8    1  0.1095698E+005  0.1043930E+01  0.7957747E-01            NaN
         13   -1    0    0    0    0  0.00000000000E+00  0.00000000000E+00  0.74505805969E-08  0.10566000000E+00  0.10566000000E+00 0. -1.
     999900   -1    0    0    0    0 -0.00000000000E+00 -0.00000000000E+00 -0.74505805969E-08  0.93827000000E+00  0.93827000000E+00 0. -1.
     999902    2    1    2    0    0 -0.87542427600E-02  0.58336428776E-02 -0.21237111802E-01  0.10202301461E+01  0.10199548363E+01 0.  0.
     999903    2    3    3    0    0  0.11176216206E+00  0.25846495713E-01 -0.59968208775E-01  0.13094683021E+00  0.19800607816E-01 0.  0.
         14    1    1    2    0    0  0.87542427600E-02 -0.58336428776E-02  0.21237111802E-01  0.23699853865E-01  0.00000000000E+00 0.  1.
     999901    1    3    3    0    0 -0.12051640482E+00 -0.20012852835E-01  0.38731096973E-01  0.88928331592E+00  0.88000000000E+00 0. -1.
        -11    1    4    4    0    0  0.45786690006E-01  0.70528762144E-02 -0.34524058838E-01  0.57778333346E-01  0.51100000000E-03 0. -1.
         11    1    4    4    0    0  0.65975472052E-01  0.18793619499E-01 -0.25444149938E-01  0.73168496864E-01  0.51100000000E-03 0.  1.
</event>
<event>
 8    1  0.1095698E+005  0.1043930E+01  0.7957747E-01            NaN
         13   -1    0    0    0    0  0.00000000000E+00  0.00000000000E+00  0.74505805969E-08  0.10566000000E+00  0.10566000000E+00 0.  1.
     999900   -1    0    0    0    0 -0.00000000000E+00 -0.00000000000E+00 -0.74505805969E-08  0.93827000000E+00  0.93827000000E+00 0. -1.
     999902    2    1    2    0    0 -0.15789978248E-01  0.16926606065E-01  0.49946209610E-02  0.10202492136E+01  0.10199743517E+01 0.  0.
     999903    2    3    3    0    0 -0.11898992627E+00 -0.39991340302E-01  0.37363117257E-01  0.13180247831E+00  0.14764176377E-01 0.  0.
         14    1    1    2    0    0  0.15789978248E-01 -0.16926606065E-01 -0.49946209610E-02  0.23680786400E-01  0.00000000000E+00 0. -1.
     999901    1    3    3    0    0  0.10319994803E+00  0.56917946367E-01 -0.32368496296E-01  0.88844673529E+00  0.88000000000E+00 0.  1.
        -11    1    4    4    0    0 -0.12622157990E-01  0.54875006347E-04  0.21445150497E-02  0.12813350436E-01  0.51100000000E-03 0. -1.
         11    1    4    4    0    0 -0.10636776828E+00 -0.40046215308E-01  0.35218602207E-01  0.11898912788E+00  0.51100000000E-03 0.  1.
</event>
<event>
 8    1  0.1095698E+005  0.1043930E+01  0.7957747E-01            NaN
         13   -1    0    0    0    0  0.00000000000E+00  0.00000000000E+00  0.74505805969E-08  0.10566000000E+00  0.10566000000E+00 0.  1.
     999900   -1    0    0    0    0 -0.00000000000E+00 -0.00000000000E+00 -0.74505805969E-08  0.93827000000E+00  0.93827000000E+00 0. -1.
     999902    2    1    2    0    0 -0.12535376604E-01 -0.99442244718E-02 -0.16992285968E-01  0.10205898833E+01  0.10203229630E+01 0.  0.
     999903    2    3    3    0    0  0.41767603499E-01  0.11810967953E+00  0.16270497384E-01  0.12904457946E+00  0.26331450789E-01 0.  0.
         14    1    1    2    0    0  0.12535376604E-01  0.99442244718E-02  0.16992285968E-01  0.23340116739E-01  0.00000000000E+00 0.  1.
     999901    1    3    3    0    0 -0.54302980103E-01 -0.12805390401E+00 -0.33262783353E-01  0.89154530380E+00  0.88000000000E+00 0. -1.
        -11    1    4    4    0    0  0.12472657617E-01  0.64836470031E-01 -0.30083704426E-03  0.66027923320E-01  0.51100000000E-03 0.  1.
         11    1    4    4    0    0  0.29294945882E-01  0.53273209503E-01  0.16571334429E-01  0.63016656137E-01  0.51100000000E-03 0. -1.
</event>
<event>
 8    1  0.1095698E+005  0.1043930E+01  0.7957747E-01            NaN
         13   -1    0    0    0    0  0.00000000000E+00  0.00000000000E+00  0.74505805969E-08  0.10566000000E+00  0.10566000000E+00 0. -1.
     999900   -1    0    0    0    0 -0.00000000000E+00 -0.00000000000E+00 -0.74505805969E-08  0.93827000000E+00  0.93827000000E+00 0. -1.
     999902    2    1    2    0    0 -0.19497241933E-01  0.64375186418E-02 -0.11660332175E-01  0.10203175576E+01  0.10200442985E+01 0.  0.
     999903    2    3    3    0    0  0.83447469736E-02  0.48870682509E-01 -0.12042643609E+00  0.13217015143E+00  0.22548703045E-01 0.  0.
         14    1    1    2    0    0  0.19497241933E-01 -0.64375186418E-02  0.11660332175E-01  0.23612442392E-01  0.00000000000E+00 0. -1.
     999901    1    3    3    0    0 -0.27841988907E-01 -0.42433163868E-01  0.10876610391E+00  0.88814740618E+00  0.88000000000E+00 0.  1.
        -11    1    4    4    0    0  0.79882136545E-02  0.69953882359E-02 -0.41274698925E-01  0.42621695254E-01  0.51100000000E-03 0. -1.
         11    1    4    4    0    0  0.35653331910E-03  0.41875294274E-01 -0.79151737163E-01  0.89548456175E-01  0.51100000000E-03 0.  1.
</event>
<event>
 8    1  0.1095698E+005  0.1043930E+01  0.7957747E-01            NaN
         13   -1    0    0    0    0  0.00000000000E+00  0.00000000000E+00  0.74505805969E-08  0.10566000000E+00  0.10566000000E+00 0. -1.
     999900   -1    0    0    0    0 -0.00000000000E+00 -0.00000000000E+00 -0.74505805969E-08  0.93827000000E+00  0.93827000000E+00 0.  1.
     999902    2    1    2    0    0  0.13803318855E-01 -0.27981017424E-02  0.19039461096E-01  0.10202474735E+01  0.10199725707E+01 0.  0.
     999903    2    3    3    0    0 -0.17561304563E-01  0.91278979143E-01  0.91321057533E-01  0.13173249557E+00  0.19330374736E-01 0.  0.
         14    1    1    2    0    0 -0.13803318855E-01  0.27981017424E-02 -0.19039461096E-01  0.23682526546E-01  0.00000000000E+00 0.  1.
     999901    1    3    3    0    0  0.31364623418E-01 -0.94077080886E-01 -0.72281596438E-01  0.88851497789E+00  0.88000000000E+00 0.  1.
        -11    1    4    4    0    0 -0.19413302689E-01  0.51006241176E-01  0.54518900418E-01  0.77143273096E-01  0.51100000000E-03 0.  1.
         11    1    4    4    0    0  0.18519981256E-02  0.40272737967E-01  0.36802157115E-01  0.54589222469E-01  0.51100000000E-03 0. -1.
</event>
<event>
 8    1  0.1095698E+005  0.1043930E+01  0.7957747E-01            NaN
         13   -1    0    0    0    0  0.00000000000E+00  0.00000000000E+00  0.74505805969E-08  0.10566000000E+00  0.10566000000E+00 0.  1.
     999900   -1    0    0    0    0 -0.00000000000E+00 -0.00000000000E+00 -0.74505805969E-08  0.93827000000E+00  0.93827000000E+00 0.  1.
     999902    2    1    2    0    0  0.15999781572E-02 -0.61532546772E-02  0.22955511322E-01  0.10201103028E+01  0.10198321685E+01 0.  0.
     999903    2    3    3    0    0  0.11640654317E+00 -0.52355474477E-01  0.24441559274E-01  0.13144984978E+00  0.19750802135E-01 0.  0.
         14    1    1    2    0    0 -0.15999781572E-02  0.61532546772E-02 -0.22955511322E-01  0.23819697170E-01  0.00000000000E+00 0. -1.
     999901    1    3    3    0    0 -0.11480656502E+00  0.46202219800E-01 -0.14860479522E-02  0.88866045305E+00  0.88000000000E+00 0. -1.
        -11    1    4    4    0    0  0.34565245939E-01 -0.13896654094E-01 -0.17678141519E-02  0.37299591280E-01  0.51100000000E-03 0. -1.
         11    1    4    4    0    0  0.81841297234E-01 -0.38458820383E-01  0.26209373426E-01  0.94150258495E-01  0.51100000000E-03 0.  1.
</event>
<event>
 7    1  0.1829379E+005  0.1043930E+01  0.7957747E-01            NaN
         13   -1    0    0    0    0  0.00000000000E+00  0.00000000000E+00  0.74505805969E-08  0.10566000000E+00  0.10566000000E+00 0. -1.
     999900   -1    0    0    0    0 -0.00000000000E+00 -0.00000000000E+00 -0.74505805969E-08  0.93827000000E+00  0.93827000000E+00 0.  1.
     999903    2    1    2    0    0  0.53575568489E-01 -0.49840850269E-01  0.55812306945E-01  0.94207008759E-01  0.20136906376E-01 0.  0.
         14    1    1    2    0    0 -0.13583764389E-01  0.63127380671E-01 -0.21460400588E-01  0.68045085339E-01  0.00000000000E+00 0. -1.
     999901    1    1    2    0    0 -0.39991804100E-01 -0.13286530403E-01 -0.34351906357E-01  0.88167790590E+00  0.88000000000E+00 0.  1.
        -11    1    3    3    0    0  0.12096322418E-01 -0.24219931331E-01  0.21737682327E-01  0.34723393320E-01  0.51100000000E-03 0.  1.
         11    1    3    3    0    0  0.41479246071E-01 -0.25620918938E-01  0.34074624618E-01  0.59483615439E-01  0.51100000000E-03 0. -1.
</event>
<event>
 8    1  0.1095698E+005  0.1043930E+01  0.7957747E-01            NaN
         13   -1    0    0    0    0  0.00000000000E+00  0.00000000000E+00  0.74505805969E-08  0.10566000000E+00  0.10566000000E+00 0. -1.
     999900   -1    0    0    0    0 -0.00000000000E+00 -0.00000000000E+00 -0.74505805969E-08  0.93827000000E+00  0.93827000000E+00 0.  1.
     999902    2    1    2    0    0 -0.22628150602E-02  0.53369640532E-02  0.22315047231E-01  0.10208743098E+01  0.10206139288E+01 0.  0.
     999903    2    3    3    0    0 -0.11605956017E-01 -0.51530897386E-01  0.12097599385E+00  0.13348756755E+00  0.19839556517E-01 0.  0.
         14    1    1    2    0    0  0.22628150602E-02 -0.53369640532E-02 -0.22315047231E-01  0.23055690192E-01  0.00000000000E+00 0.  1.
     999901    1    3    3    0    0  0.93431409571E-02  0.56867861440E-01 -0.98660946616E-01  0.88738674226E+00  0.88000000000E+00 0.  1.
        -11    1    4    4    0    0  0.17818115347E-02 -0.22778595418E-01  0.34553253312E-01  0.41427378592E-01  0.51100000000E-03 0. -1.
         11    1    4    4    0    0 -0.13387767552E-01 -0.28752301968E-01  0.86422740535E-01  0.92060188959E-01  0.51100000000E-03 0.  1.
</event>
<event>
 8    1  0.1095698E+005  0.1043930E+01  0.7957747E-01            NaN
         13   -1    0    0    0    0  0.00000000000E+00  0.00000000000E+00  0.74505805969E-08  0.10566000000E+00  0.10566000000E+00 0. -1.
     999900   -1    0    0    0    0 -0.00000000000E+00 -0.00000000000E+00 -0.74505805969E-08  0.93827000000E+00  0.93827000000E+00 0.  1.
     999902    2    1    2    0    0  0.19476230678E-01  0.58457796324E-02 -0.13356963389E-01  0.10196008987E+01  0.10193105942E+01 0.  0.
     999903    2    3    3    0    0 -0.89542364648E-01  0.23070404077E-01  0.85027587509E-01  0.12726617353E+00  0.20418366182E-01 0.  0.
         14    1    1    2    0    0 -0.19476230678E-01 -0.58457796324E-02  0.13356963389E-01  0.24329101338E-01  0.00000000000E+00 0.  1.
     999901    1    3    3    0    0  0.10901859533E+00 -0.17224624444E-01 -0.98384550897E-01  0.89233472513E+00  0.88000000000E+00 0.  1.
        -11    1    4    4    0    0 -0.59625673889E-02 -0.26479063830E-03  0.13642774147E-01  0.14899957428E-01  0.51100000000E-03 0.  1.
         11    1    4    4    0    0 -0.83579797259E-01  0.23335194715E-01  0.71384813362E-01  0.11236621611E+00  0.51100000000E-03 0. -1.
</event>
<event>
 8    1  0.1095698E+005  0.1043930E+01  0.7957747E-01            NaN
         13   -1    0    0    0    0  0.00000000000E+00  0.00000000000E+00  0.74505805969E-08  0.10566000000E+00  0.10566000000E+00 0. -1.
     999900   -1    0    0    0    0 -0.00000000000E+00 -0.00000000000E+00 -0.74505805969E-08  0.93827000000E+00  0.93827000000E+00 0.  1.
     999902    2    1    2    0    0  0.13540309463E-01  0.81722209665E-02  0.17654134037E-01  0.10202278139E+01  0.10199524492E+01 0.  0.
     999903    2    3    3    0    0  0.44008739453E-03  0.99889431121E-01 -0.80584033505E-01  0.12992763982E+00  0.20231485541E-01 0.  0.
         14    1    1    2    0    0 -0.13540309463E-01 -0.81722209665E-02 -0.17654134037E-01  0.23702186069E-01  0.00000000000E+00 0.  1.
     999901    1    3    3    0    0  0.13100222068E-01 -0.91717210154E-01  0.98238167542E-01  0.89030017411E+00  0.88000000000E+00 0. -1.
        -11    1    4    4    0    0 -0.82874250560E-03  0.25611232631E-01 -0.10184411446E-01  0.27579075556E-01  0.51100000000E-03 0.  1.
         11    1    4    4    0    0  0.12688299001E-02  0.74278198489E-01 -0.70399622059E-01  0.10234856427E+00  0.51100000000E-03 0. -1.
</event>
<event>
 8    1  0.1095698E+005  0.1043930E+01  0.7957747E-01            NaN
         13   -1    0    0    0    0  0.00000000000E+00  0.00000000000E+00  0.74505805969E-08  0.10566000000E+00  0.10566000000E+00 0.  1.
     999900   -1    0    0    0    0 -0.00000000000E+00 -0.00000000000E+00 -0.74505805969E-08  0.93827000000E+00  0.93827000000E+00 0.  1.
     999902    2    1    2    0    0 -0.18592375594E-01 -0.90671859706E-02 -0.17902024732E-02  0.10231671698E+01  0.10229564811E+01 0.  0.
     999903    2    3    3    0    0 -0.71980576354E-01  0.18220863808E-01 -0.10989415428E+00  0.13452697153E+00  0.22529484557E-01 0.  0.
         14    1    1    2    0    0  0.18592375594E-01  0.90671859706E-02  0.17902024732E-02  0.20762830167E-01  0.00000000000E+00 0. -1.
     999901    1    3    3    0    0  0.53388200760E-01 -0.27288049779E-01  0.10810395181E+00  0.88864019830E+00  0.88000000000E+00 0. -1.
        -11    1    4    4    0    0 -0.55099979052E-01  0.15913651493E-01 -0.98637447621E-01  0.11410021555E+00  0.51100000000E-03 0. -1.
         11    1    4    4    0    0 -0.16880597302E-01  0.23072123157E-02 -0.11256706659E-01  0.20426755977E-01  0.51100000000E-03 0.  1.
</event>
<event>
 8    1  0.1095698E+005  0.1043930E+01  0.7957747E-01            NaN
         13   -1    0    0    0    0  0.00000000000E+00  0.00000000000E+00  0.74505805969E-08  0.10566000000E+00  0.10566000000E+00 0. -1.
     999900   -1    0    0    0    0 -0.00000000000E+00 -0.00000000000E+00 -0.74505805969E-08  0.93827000000E+00  0.93827000000E+00 0.  1.
     999902    2    1    2    0    0  0.81051889225E-02  0.16521413646E-02  0.23649799246E-01  0.10188753265E+01  0.10185672262E+01 0.  0.
     999903    2    3    3    0    0  0.11041077404E+00  0.43390949362E-01 -0.46771832627E-01  0.12917438403E+00  0.20618041882E-01 0.  0.
         14    1    1    2    0    0 -0.81051889225E-02 -0.16521413646E-02 -0.23649799246E-01  0.25054673475E-01  0.00000000000E+00 0.  1.
     999901    1    3    3    0    0 -0.10230558512E+00 -0.41738807997E-01  0.70421631874E-01  0.88970094249E+00  0.88000000000E+00 0.  1.
        -11    1    4    4    0    0  0.92435556163E-02  0.78849177776E-03 -0.93939016870E-02  0.13212552729E-01  0.51100000000E-03 0.  1.
         11    1    4    4    0    0  0.10116721843E+00  0.42602457584E-01 -0.37377930940E-01  0.11596183130E+00  0.51100000000E-03 0. -1.
</event>
<event>
 8    1  0.1095698E+005  0.1043930E+01  0.7957747E-01            NaN
         13   -1    0    0    0    0  0.00000000000E+00  0.00000000000E+00  0.74505805969E-08  0.10566000000E+00  0.10566000000E+00 0. -1.
     999900   -1    0    0    0    0 -0.00000000000E+00 -0.00000000000E+00 -0.74505805969E-08  0.93827000000E+00  0.93827000000E+00 0. -1.
     999902    2    1    2    0    0 -0.22808327347E-01 -0.84185967217E-02  0.17341719878E-02  0.10195558350E+01  0.10192644410E+01 0.  0.
     999903    2    3    3    0    0 -0.78197580848E-01 -0.10397162997E+00 -0.15745516893E-01  0.13247980044E+00  0.19442600992E-01 0.  0.
         14    1    1    2    0    0  0.22808327347E-01  0.84185967217E-02 -0.17341719878E-02  0.24374165003E-01  0.00000000000E+00 0. -1.
     999901    1    3    3    0    0  0.55389253501E-01  0.95553033245E-01  0.17479688881E-01  0.88707603456E+00  0.88000000000E+00 0.  1.
        -11    1    4    4    0    0 -0.46313730258E-02 -0.12459596932E-01 -0.61982534686E-02  0.14675511537E-01  0.51100000000E-03 0.  1.
         11    1    4    4    0    0 -0.73566207822E-01 -0.91512033035E-01 -0.95472634248E-02  0.11780428890E+00  0.51100000000E-03 0. -1.
</event>
<event>
 8    1  0.1095698E+005  0.1043930E+01  0.7957747E-01            NaN
         13   -1    0    0    0    0  0.00000000000E+00  0.00000000000E+00  0.74505805969E-08  0.10566000000E+00  0.10566000000E+00 0.  1.
     999900   -1    0    0    0    0 -0.00000000000E+00 -0.00000000000E+00 -0.74505805969E-08  0.93827000000E+00  0.93827000000E+00 0.  1.
     999902    2    1    2    0    0  0.11892713277E-01  0.17716403571E-01 -0.11570401353E-01  0.10196569332E+01  0.10193679805E+01 0.  0.
     999903    2    3    3    0    0 -0.12512418378E+00 -0.83300516550E-02 -0.20694046568E-01  0.12862646862E+00  0.19775584369E-01 0.  0.
         14    1    1    2    0    0 -0.11892713277E-01 -0.17716403571E-01  0.11570401353E-01  0.24273066804E-01  0.00000000000E+00 0.  1.
     999901    1    3    3    0    0  0.13701689706E+00  0.26046455226E-01  0.91236452151E-02  0.89103046458E+00  0.88000000000E+00 0.  1.
        -11    1    4    4    0    0 -0.25590748421E-01  0.55931202121E-02 -0.75555073294E-02  0.27267493659E-01  0.51100000000E-03 0.  1.
         11    1    4    4    0    0 -0.99533435362E-01 -0.13923171867E-01 -0.13138539239E-01  0.10135897496E+00  0.51100000000E-03 0. -1.
</event>
<event>
 8    1  0.1095698E+005  0.1043930E+01  0.7957747E-01            NaN
         13   -1    0    0    0    0  0.00000000000E+00  0.00000000000E+00  0.74505805969E-08  0.10566000000E+00  0.10566000000E+00 0. -1.
     999900   -1    0    0    0    0 -0.00000000000E+00 -0.00000000000E+00 -0.74505805969E-08  0.93827000000E+00  0.93827000000E+00 0.  1.
     999902    2    1    2    0    0  0.13096696456E-01  0.14195862690E-01  0.13778831787E-01  0.10202044403E+01  0.10199285259E+01 0.  0.
     999903    2    3    3    0    0 -0.12709298789E+00  0.10805691276E-01 -0.17345588453E-02  0.12896636545E+00  0.18971668053E-01 0.  0.
         14    1    1    2    0    0 -0.13096696456E-01 -0.14195862690E-01 -0.13778831787E-01  0.23725559656E-01  0.00000000000E+00 0.  1.
     999901    1    3    3    0    0  0.14018968434E+00  0.33901714139E-02  0.15513390632E-01  0.89123807490E+00  0.88000000000E+00 0. -1.
        -11    1    4    4    0    0 -0.38926864635E-01  0.12047688406E-01 -0.17652460305E-02  0.40790008590E-01  0.51100000000E-03 0.  1.
         11    1    4    4    0    0 -0.88166123251E-01 -0.12419971306E-02  0.30687185194E-04  0.88176356857E-01  0.51100000000E-03 0. -1.
</event>
<event>
 8    1  0.1095698E+005  0.1043930E+01  0.7957747E-01            NaN
         13   -1    0    0    0    0  0.00000000000E+00  0.00000000000E+00  0.74505805969E-08  0.10566000000E+00  0.10566000000E+00 0. -1.
     999900   -1    0    0    0    0 -0.00000000000E+00 -0.00000000000E+00 -0.74505805969E-08  0.93827000000E+00  0.93827000000E+00 0.  1.
     999902    2    1    2    0    0  0.60799521019E-02  0.15244014749E-01 -0.16765398326E-01  0.10204688750E+01  0.10201991475E+01 0.  0.
     999903    2    3    3    0    0 -0.77862703256E-01  0.10363580091E+00 -0.16760659552E-01  0.13206610756E+00  0.18909184786E-01 0.  0.
         14    1    1    2    0    0 -0.60799521019E-02 -0.15244014749E-01  0.16765398326E-01  0.23461124957E-01  0.00000000000E+00 0. -1.
     999901    1    3    3    0    0  0.83942655358E-01 -0.88391786159E-01 -0.47387737869E-05  0.88840276748E+00  0.88000000000E+00 0.  1.
        -11    1    4    4    0    0 -0.51715700936E-01  0.55004656216E-01 -0.13945823053E-01  0.76777425265E-01  0.51100000000E-03 0. -1.
         11    1    4    4    0    0 -0.26147002321E-01  0.48631144692E-01 -0.28148364984E-02  0.55288682295E-01  0.51100000000E-03 0.  1.
</event>
<event>
 8    1  0.1095698E+005  0.1043930E+01  0.7957747E-01            NaN
         13   -1    0    0    0    0  0.00000000000E+00  0.00000000000E+00  0.74505805969E-08  0.10566000000E+00  0.10566000000E+00 0. -1.
     999900   -1    0    0    0    0 -0.00000000000E+00 -0.00000000000E+00 -0.74505805969E-08  0.93827000000E+00  0.93827000000E+00 0. -1.
     999902    2    1    2    0    0  0.69666775397E-02 -0.20192225858E-01  0.11265717123E-01  0.10197809428E+01  0.10194949702E+01 0.  0.
     999903    2    3    3    0    0  0.34211556450E-02  0.12612314603E+00  0.69788119422E-03  0.12763048580E+00  0.19243222100E-01 0.  0.
         14    1    1    2    0    0 -0.69666775397E-02  0.20192225858E-01 -0.11265717123E-01  0.24149057193E-01  0.00000000000E+00 0. -1.
     999901    1    3    3    0    0  0.35455218947E-02 -0.14631537189E+00  0.10567835929E-01  0.89215045700E+00  0.88000000000E+00 0. -1.
        -11    1    4    4    0    0  0.91922144964E-02  0.10710359745E+00  0.34772170875E-02  0.10755477467E+00  0.51100000000E-03 0.  1.
         11    1    4    4    0    0 -0.57710588514E-02  0.19019548582E-01 -0.27793358933E-02  0.20075711134E-01  0.51100000000E-03 0. -1.
</event>
<event>
 8    1  0.1095698E+005  0.1043930E+01  0.7957747E-01            NaN
         13   -1    0    0    0    0  0.00000000000E+00  0.00000000000E+00  0.74505805969E-08  0.10566000000E+00  0.10566000000E+00 0.  1.
     999900   -1    0    0    0    0 -0.00000000000E+00 -0.00000000000E+00 -0.74505805969E-08  0.93827000000E+00  0.93827000000E+00 0.  1.
     999902    2    1    2    0    0  0.31474591130E-02  0.18702104152E-01  0.14454958661E-01  0.10200842241E+01  0.10198054732E+01 0.  0.
     999903    2    3    3    0    0 -0.58996789165E-01 -0.10929761719E+00 -0.22994280550E-01  0.12786884551E+00  0.19877486257E-01 0.  0.
         14    1    1    2    0    0 -0.31474591130E-02 -0.18702104152E-01 -0.14454958661E-01  0.23845775905E-01  0.00000000000E+00 0. -1.
     999901    1    3    3    0    0  0.62144248278E-01  0.12799972134E+00  0.37449239211E-01  0.89221537858E+00  0.88000000000E+00 0. -1.
        -11    1    4    4    0    0 -0.17028467163E-01 -0.46922733309E-01 -0.26807503585E-02  0.49991590679E-01  0.51100000000E-03 0. -1.
         11    1    4    4    0    0 -0.41968322002E-01 -0.62374883882E-01 -0.20313530191E-01  0.77877254836E-01  0.51100000000E-03 0.  1.
</event>
<event>
 8    1  0.1095698E+005  0.1043930E+01  0.7957747E-01            NaN
         13   -1    0    0    0    0  0.00000000000E+00  0.00000000000E+00  0.74505805969E-08  0.10566000000E+00  0.10566000000E+00 0.  1.
     999900   -1    0    0    0    0 -0.00000000000E+00 -0.00000000000E+00 -0.74505805969E-08  0.93827000000E+00  0.93827000000E+00 0.  1.
     999902    2    1    2    0    0  0.22898344663E-01  0.16053127781E-02 -0.13275261049E-01  0.10174131417E+01  0.10170675283E+01 0.  0.
     999903    2    3    3    0    0 -0.84545944605E-01  0.91469607086E-01  0.16211251997E-02  0.12621071296E+00  0.20293108440E-01 0.  0.
         14    1    1    2    0    0 -0.22898344663E-01 -0.16053127781E-02  0.13275261049E-01  0.26516858286E-01  0.00000000000E+00 0. -1.
     999901    1    3    3    0    0  0.10744428927E+00 -0.89864294308E-01 -0.14896386248E-01  0.89120242875E+00  0.88000000000E+00 0.  1.
        -11    1    4    4    0    0 -0.24071922976E-01  0.39957550172E-01  0.31239929675E-02  0.46755574476E-01  0.51100000000E-03 0. -1.
         11    1    4    4    0    0 -0.60474021630E-01  0.51512056914E-01 -0.15028677678E-02  0.79455138488E-01  0.51100000000E-03 0.  1.
</event>
<event>
 8    1  0.1095698E+005  0.1043930E+01  0.7957747E-01            NaN
         13   -1    0    0    0    0  0.00000000000E+00  0.00000000000E+00  0.74505805969E-08  0.10566000000E+00  0.10566000000E+00 0.  1.
     999900   -1    0    0    0    0 -0.00000000000E+00 -0.00000000000E+00 -0.74505805969E-08  0.93827000000E+00  0.93827000000E+00 0. -1.
     999902    2    1    2    0    0  0.86333306850E-02 -0.14627753026E-01  0.15990250867E-01  0.10206020408E+01  0.10203354017E+01 0.  0.
     999903    2    3    3    0    0 -0.44854086263E-01 -0.22669671755E-01  0.12114253146E+00  0.13269293603E+00  0.20151904912E-01 0.  0.
         14    1    1    2    0    0 -0.86333306850E-02  0.14627753026E-01 -0.15990250867E-01  0.23327959192E-01  0.00000000000E+00 0.  1.
     999901    1    3    3    0    0  0.53487416948E-01  0.80419187287E-02 -0.10515228060E+00  0.88790910478E+00  0.88000000000E+00 0. -1.
        -11    1    4    4    0    0 -0.78883085926E-02  0.29350215153E-03  0.38365442705E-01  0.39172437643E-01  0.51100000000E-03 0.  1.
         11    1    4    4    0    0 -0.36965777670E-01 -0.22963173906E-01  0.82777088758E-01  0.93520498389E-01  0.51100000000E-03 0. -1.
</event>
<event>
 8    1  0.1095698E+005  0.1043930E+01  0.7957747E-01            NaN
         13   -1    0    0    0    0  0.00000000000E+00  0.00000000000E+00  0.74505805969E-08  0.10566000000E+00  0.10566000000E+00 0. -1.
     999900   -1    0    0    0    0 -0.00000000000E+00 -0.00000000000E+00 -0.74505805969E-08  0.93827000000E+00  0.93827000000E+00 0. -1.
     999902    2    1    2    0    0 -0.82529990955E-02 -0.22180792462E-01 -0.48880369554E-02  0.10197640642E+01  0.10194776869E+01 0.  0.
     999903    2    3    3    0    0 -0.25249779884E-01  0.58386478349E-01 -0.11112225772E+00  0.12955864669E+00  0.19767512089E-01 0.  0.
         14    1    1    2    0    0  0.82529990955E-02  0.22180792462E-01  0.48880369554E-02  0.24165935811E-01  0.00000000000E+00 0. -1.
     999901    1    3    3    0    0  0.16996780789E-01 -0.80567270811E-01  0.10623422076E+00  0.89020541750E+00  0.88000000000E+00 0.  1.
        -11    1    4    4    0    0 -0.17358625725E-01  0.17385424567E-01 -0.35524005426E-01  0.43194802430E-01  0.51100000000E-03 0. -1.
         11    1    4    4    0    0 -0.78911541588E-02  0.41001053782E-01 -0.75598252290E-01  0.86363844261E-01  0.51100000000E-03 0.  1.
</event>
<event>
 8    1  0.1095698E+005  0.1043930E+01  0.7957747E-01            NaN
         13   -1    0    0    0    0  0.00000000000E+00  0.00000000000E+00  0.74505805969E-08  0.10566000000E+00  0.10566000000E+00 0. -1.
     999900   -1    0    0    0    0 -0.00000000000E+00 -0.00000000000E+00 -0.74505805969E-08  0.93827000000E+00  0.93827000000E+00 0. -1.
     999902    2    1    2    0    0 -0.28539067461E-02  0.16058035581E-01  0.17463030341E-01  0.10200351738E+01  0.10197552614E+01 0.  0.
     999903    2    3    3    0    0 -0.71850617013E-01  0.10803653306E+00 -0.13832865799E-01  0.13200362980E+00  0.19980151711E-01 0.  0.
         14    1    1    2    0    0  0.28539067461E-02 -0.16058035581E-01 -0.17463030341E-01  0.23894826200E-01  0.00000000000E+00 0. -1.
     999901    1    3    3    0    0  0.68996710267E-01 -0.91978497481E-01  0.31295896140E-01  0.88803154400E+00  0.88000000000E+00 0. -1.
        -11    1    4    4    0    0 -0.50733129027E-01  0.67605996470E-01 -0.17217800525E-01  0.86262013166E-01  0.51100000000E-03 0.  1.
         11    1    4    4    0    0 -0.21117487986E-01  0.40430536593E-01  0.33849347264E-02  0.45741616632E-01  0.51100000000E-03 0. -1.
</event>
<event>
 8    1  0.1095698E+005  0.1043930E+01  0.7957747E-01            NaN
         13   -1    0    0    0    0  0.00000000000E+00  0.00000000000E+00  0.74505805969E-08  0.10566000000E+00  0.10566000000E+00 0. -1.
     999900   -1    0    0    0    0 -0.00000000000E+00 -0.00000000000E+00 -0.74505805969E-08  0.93827000000E+00  0.93827000000E+00 0. -1.
     999902    2    1    2    0    0  0.22056703751E-01  0.38803205203E-02 -0.73499803294E-02  0.10203593132E+01  0.10200870309E+01 0.  0.
     999903    2    3    3    0    0 -0.10224986173E+00 -0.37037775911E-01  0.64095717327E-01  0.12781749309E+00  0.20055410587E-01 0.  0.
         14    1    1    2    0    0 -0.22056703751E-01 -0.38803205203E-02  0.73499803294E-02  0.23570686849E-01  0.00000000000E+00 0. -1.
     999901    1    3    3    0    0  0.12430656548E+00  0.40918096431E-01 -0.71445697657E-01  0.89254182006E+00  0.88000000000E+00 0. -1.
        -11    1    4    4    0    0 -0.79717841338E-01 -0.36017756006E-01  0.55901991917E-01  0.10381477157E+00  0.51100000000E-03 0.  1.
         11    1    4    4    0    0 -0.22532020388E-01 -0.10200199051E-02  0.81937254098E-02  0.24002721522E-01  0.51100000000E-03 0. -1.
</event>
<event>
 8    1  0.1095698E+005  0.1043930E+01  0.7957747E-01            NaN
         13   -1    0    0    0    0  0.00000000000E+00  0.00000000000E+00  0.74505805969E-08  0.10566000000E+00  0.10566000000E+00 0.  1.
     999900   -1    0    0    0    0 -0.00000000000E+00 -0.00000000000E+00 -0.74505805969E-08  0.93827000000E+00  0.93827000000E+00 0. -1.
     999902    2    1    2    0    0  0.14537245553E-01  0.16564626767E-01  0.22289792319E-02  0.10217785505E+01  0.10215384082E+01 0.  0.
     999903    2    3    3    0    0  0.86474837631E-02 -0.10677753521E+00  0.71797891401E-01  0.13043809264E+00  0.19568796580E-01 0.  0.
         14    1    1    2    0    0 -0.14537245553E-01 -0.16564626767E-01 -0.22289792319E-02  0.22151449537E-01  0.00000000000E+00 0. -1.
     999901    1    3    3    0    0  0.58897617901E-02  0.12334216198E+00 -0.69568912169E-01  0.89134045783E+00  0.88000000000E+00 0. -1.
        -11    1    4    4    0    0  0.21913424449E-03 -0.44530690169E-01  0.19153413054E-01  0.48478291424E-01  0.51100000000E-03 0.  1.
         11    1    4    4    0    0  0.84283495186E-02 -0.62246845044E-01  0.52644478347E-01  0.81959801214E-01  0.51100000000E-03 0. -1.
</event>
<event>
 8    1  0.1095698E+005  0.1043930E+01  0.7957747E-01            NaN
         13   -1    0    0    0    0  0.00000000000E+00  0.00000000000E+00  0.74505805969E-08  0.10566000000E+00  0.10566000000E+00 0. -1.
     999900   -1    0    0    0    0 -0.00000000000E+00 -0.00000000000E+00 -0.74505805969E-08  0.93827000000E+00  0.93827000000E+00 0.  1.
     999902    2    1    2    0    0  0.21644625527E-01 -0.61390013056E-02 -0.84579841584E-02  0.10198943047E+01  0.10196110426E+01 0.  0.
     999903    2    3    3    0    0  0.94415394828E-01 -0.67084178375E-01  0.60378671365E-01  0.13211708908E+00  0.19869260255E-01 0.  0.
         14    1    1    2    0    0 -0.21644625527E-01  0.61390013056E-02  0.84579841584E-02  0.24035695273E-01  0.00000000000E+00 0. -1.
     999901    1    3    3    0    0 -0.72770769301E-01  0.60945177069E-01 -0.68836655524E-01  0.88777721564E+00  0.88000000000E+00 0.  1.
        -11    1    4    4    0    0  0.52173796325E-01 -0.48804694398E-01  0.35052472331E-01  0.79579772277E-01  0.51100000000E-03 0.  1.
         11    1    4    4    0    0  0.42241598503E-01 -0.18279483977E-01  0.25326199035E-01  0.52537316805E-01  0.51100000000E-03 0. -1.
</event>
<event>
 8    1  0.1095698E+005  0.1043930E+01  0.7957747E-01            NaN
         13   -1    0    0    0    0  0.00000000000E+00  0.00000000000E+00  0.74505805969E-08  0.10566000000E+00  0.10566000000E+00 0. -1.
     999900   -1    0    0    0    0 -0.00000000000E+00 -0.00000000000E+00 -0.74505805969E-08  0.93827000000E+00  0.93827000000E+00 0.  1.
     999902    2    1    2    0    0 -0.13098454945E-02 -0.22276056710E-01 -0.60127742572E-02  0.10208195727E+01  0.10205579396E+01 0.  0.
     999903    2    3    3    0    0 -0.92902600315E-01  0.28434287461E-01 -0.85296998129E-01  0.13107423836E+00  0.21574898003E-01 0.  0.
         14    1    1    2    0    0  0.13098454945E-02  0.22276056710E-01  0.60127742572E-02  0.23110427344E-01  0.00000000000E+00 0. -1.
     999901    1    3    3    0    0  0.91592754820E-01 -0.50710344171E-01  0.79284223872E-01  0.88974533429E+00  0.88000000000E+00 0. -1.
        -11    1    4    4    0    0 -0.64125034337E-01  0.21082111391E-01 -0.71464915029E-01  0.98305496543E-01  0.51100000000E-03 0.  1.
         11    1    4    4    0    0 -0.28777565978E-01  0.73521760702E-02 -0.13832083100E-01  0.32768741820E-01  0.51100000000E-03 0. -1.
</event>
<event>
 7    1  0.1095698E+005  0.1043930E+01  0.7957747E-01            NaN
         13   -1    0    0    0    0  0.00000000000E+00  0.00000000000E+00  0.74505805969E-08  0.10566000000E+00  0.10566000000E+00 0. -1.
     999900   -1    0    0    0    0 -0.00000000000E+00 -0.00000000000E+00 -0.74505805969E-08  0.93827000000E+00  0.93827000000E+00 0. -1.
     999903    2    1    2    0    0 -0.80361505120E-02  0.37488392652E-01  0.54748371585E-01  0.69622920593E-01  0.19493783162E-01 0.  0.
         14    1    1    2    0    0 -0.71153111055E-01  0.16743657845E-01 -0.50913192336E-01  0.89080123735E-01  0.00000000000E+00 0.  1.
     999901    1    1    2    0    0  0.79189261567E-01 -0.54232050497E-01 -0.38351792497E-02  0.88522695567E+00  0.88000000000E+00 0. -1.
        -11    1    3    3    0    0 -0.47853790121E-03  0.17229162075E-01  0.39673604069E-01  0.43258860424E-01  0.51100000000E-03 0. -1.
         11    1    3    3    0    0 -0.75576126108E-02  0.20259230577E-01  0.15074767516E-01  0.26364060169E-01  0.51100000000E-03 0.  1.
</event>
<event>
 8    1  0.1095698E+005  0.1043930E+01  0.7957747E-01            NaN
         13   -1    0    0    0    0  0.00000000000E+00  0.00000000000E+00  0.74505805969E-08  0.10566000000E+00  0.10566000000E+00 0.  1.
     999900   -1    0    0    0    0 -0.00000000000E+00 -0.00000000000E+00 -0.74505805969E-08  0.93827000000E+00  0.93827000000E+00 0. -1.
     999902    2    1    2    0    0  0.13654148031E-01  0.16915871793E-01  0.78551344877E-02  0.10208153809E+01  0.10205536519E+01 0.  0.
     999903    2    3    3    0    0 -0.11474105086E+00 -0.66005785083E-03 -0.54422132948E-01  0.12914688959E+00  0.23477779007E-01 0.  0.
         14    1    1    2    0    0 -0.13654148031E-01 -0.16915871793E-01 -0.78551344877E-02  0.23114619071E-01  0.00000000000E+00 0. -1.
     999901    1    3    3    0    0  0.12839519890E+00  0.17575929644E-01  0.62277267436E-01  0.89166849134E+00  0.88000000000E+00 0.  1.
        -11    1    4    4    0    0 -0.84173670577E-01 -0.86269023755E-02 -0.32265306528E-01  0.90559049185E-01  0.51100000000E-03 0. -1.
         11    1    4    4    0    0 -0.30567380287E-01  0.79668445246E-02 -0.22156826420E-01  0.38587840408E-01  0.51100000000E-03 0.  1.
</event>
<event>
 8    1  0.1095698E+005  0.1043930E+01  0.7957747E-01            NaN
         13   -1    0    0    0    0  0.00000000000E+00  0.00000000000E+00  0.74505805969E-08  0.10566000000E+00  0.10566000000E+00 0.  1.
     999900   -1    0    0    0    0 -0.00000000000E+00 -0.00000000000E+00 -0.74505805969E-08  0.93827000000E+00  0.93827000000E+00 0.  1.
     999902    2    1    2    0    0 -0.21249291975E-01  0.81384423397E-02  0.63397050113E-02  0.10203088545E+01  0.10200353916E+01 0.  0.
     999903    2    3    3    0    0  0.51558861946E-01 -0.53056270976E-01  0.10453240089E+00  0.12975418146E+00  0.20876796595E-01 0.  0.
         14    1    1    2    0    0  0.21249291975E-01 -0.81384423397E-02 -0.63397050113E-02  0.23621145458E-01  0.00000000000E+00 0. -1.
     999901    1    3    3    0    0 -0.72808153921E-01  0.61194713315E-01 -0.98192695881E-01  0.89055467308E+00  0.88000000000E+00 0.  1.
        -11    1    4    4    0    0  0.17783054249E-01 -0.11648036759E-01  0.17113505049E-01  0.27295548260E-01  0.51100000000E-03 0. -1.
         11    1    4    4    0    0  0.33775807697E-01 -0.41408234217E-01  0.87418895844E-01  0.10245863320E+00  0.51100000000E-03 0.  1.
</event>
<event>
 8    1  0.1095698E+005  0.1043930E+01  0.7957747E-01            NaN
         13   -1    0    0    0    0  0.00000000000E+00  0.00000000000E+00  0.74505805969E-08  0.10566000000E+00  0.10566000000E+00 0.  1.
     999900   -1    0    0    0    0 -0.00000000000E+00 -0.00000000000E+00 -0.74505805969E-08  0.93827000000E+00  0.93827000000E+00 0. -1.
     999902    2    1    2    0    0  0.29589501275E-02 -0.23028679865E-01  0.74605907200E-02  0.10195427924E+01  0.10192510827E+01 0.  0.
     999903    2    3    3    0    0  0.55091916677E-01 -0.10940477452E+00  0.47660618948E-01  0.13286657288E+00  0.19428525966E-01 0.  0.
         14    1    1    2    0    0 -0.29589501275E-02  0.23028679865E-01 -0.74605907200E-02  0.24387207632E-01  0.00000000000E+00 0. -1.
     999901    1    3    3    0    0 -0.52132966550E-01  0.86376094652E-01 -0.40200028228E-01  0.88667621948E+00  0.88000000000E+00 0. -1.
        -11    1    4    4    0    0  0.19073025842E-01 -0.55613248360E-01  0.28584714473E-01  0.65375536177E-01  0.51100000000E-03 0.  1.
         11    1    4    4    0    0  0.36018890835E-01 -0.53791526157E-01  0.19075904475E-01  0.67491036708E-01  0.51100000000E-03 0. -1.
</event>
<event>
 8    1  0.1095698E+005  0.1043930E+01  0.7957747E-01            NaN
         13   -1    0    0    0    0  0.00000000000E+00  0.00000000000E+00  0.74505805969E-08  0.10566000000E+00  0.10566000000E+00 0. -1.
     999900   -1    0    0    0    0 -0.00000000000E+00 -0.00000000000E+00 -0.74505805969E-08  0.93827000000E+00  0.93827000000E+00 0. -1.
     999902    2    1    2    0    0 -0.16825780239E-02  0.16839472095E-01 -0.17648073655E-01  0.10194789593E+01  0.10191857019E+01 0.  0.
     999903    2    3    3    0    0 -0.10881176853E+00  0.15948757177E-01  0.64883469101E-01  0.12914817109E+00  0.19365477184E-01 0.  0.
         14    1    1    2    0    0  0.16825780239E-02 -0.16839472095E-01  0.17648073655E-01  0.24451040734E-01  0.00000000000E+00 0.  1.
     999901    1    3    3    0    0  0.10712919050E+00  0.89071491818E-03 -0.82531542756E-01  0.89033078818E+00  0.88000000000E+00 0. -1.
        -11    1    4    4    0    0 -0.95578542020E-01  0.18608032653E-01  0.61680876864E-01  0.11526624946E+00  0.51100000000E-03 0. -1.
         11    1    4    4    0    0 -0.13233226509E-01 -0.26592754760E-02  0.32025922375E-02  0.13881921623E-01  0.51100000000E-03 0.  1.
</event>
<event>
 8    1  0.1095698E+005  0.1043930E+01  0.7957747E-01            NaN
         13   -1    0    0    0    0  0.00000000000E+00  0.00000000000E+00  0.74505805969E-08  0.10566000000E+00  0.10566000000E+00 0. -1.
     999900   -1    0    0    0    0 -0.00000000000E+00 -0.00000000000E+00 -0.74505805969E-08  0.93827000000E+00  0.93827000000E+00 0.  1.
     999902    2    1    2    0    0  0.13187966797E-01 -0.19083116895E-01 -0.17604516408E-02  0.10206665736E+01  0.10204014246E+01 0.  0.
     999903    2    3    3    0    0  0.11438522969E+00  0.28979301746E-01 -0.55424156319E-01  0.13194238954E+00  0.20326739859E-01 0.  0.
         14    1    1    2    0    0 -0.13187966797E-01  0.19083116895E-01  0.17604516408E-02  0.23263426416E-01  0.00000000000E+00 0. -1.
     999901    1    3    3    0    0 -0.10119726289E+00 -0.48062418641E-01  0.53663704679E-01  0.88872418404E+00  0.88000000000E+00 0.  1.
        -11    1    4    4    0    0  0.52812517903E-01  0.17938329612E-01 -0.16111927916E-01  0.58058600213E-01  0.51100000000E-03 0. -1.
         11    1    4    4    0    0  0.61572711786E-01  0.11040972133E-01 -0.39312228404E-01  0.73883789328E-01  0.51100000000E-03 0.  1.
</event>
<event>
 8    1  0.1095698E+005  0.1043930E+01  0.7957747E-01            NaN
         13   -1    0    0    0    0  0.00000000000E+00  0.00000000000E+00  0.74505805969E-08  0.10566000000E+00  0.10566000000E+00 0. -1.
     999900   -1    0    0    0    0 -0.00000000000E+00 -0.00000000000E+00 -0.74505805969E-08  0.93827000000E+00  0.93827000000E+00 0.  1.
     999902    2    1    2    0    0 -0.86006940169E-02  0.10747594120E-01 -0.19507614608E-01  0.10200547043E+01  0.10197752547E+01 0.  0.
     999903    2    3    3    0    0  0.44522296591E-01 -0.34097198974E-01  0.11261652592E+00  0.12747983567E+00  0.20585740739E-01 0.  0.
         14    1    1    2    0    0  0.86006940169E-02 -0.10747594120E-01  0.19507614608E-01  0.23875295697E-01  0.00000000000E+00 0. -1.
     999901    1    3    3    0    0 -0.53122990608E-01  0.44844793094E-01 -0.13212414053E+00  0.89257486863E+00  0.88000000000E+00 0.  1.
        -11    1    4    4    0    0  0.31537325259E-01 -0.14494369784E-01  0.80565862071E-01  0.87725759570E-01  0.51100000000E-03 0.  1.
         11    1    4    4    0    0  0.12984971332E-01 -0.19602829191E-01  0.32050663847E-01  0.39754076103E-01  0.51100000000E-03 0. -1.
</event>
<event>
 8    1  0.1095698E+005  0.1043930E+01  0.7957747E-01            NaN
         13   -1    0    0    0    0  0.00000000000E+00  0.00000000000E+00  0.74505805969E-08  0.10566000000E+00  0.10566000000E+00 0. -1.
     999900   -1    0    0    0    0 -0.00000000000E+00 -0.00000000000E+00 -0.74505805969E-08  0.93827000000E+00  0.93827000000E+00 0. -1.
     999902    2    1    2    0    0 -0.16843043596E-01 -0.15150626633E-01  0.58542186114E-02  0.10205312505E+01  0.10202629718E+01 0.  0.
     999903    2    3    3    0    0  0.13356185099E-01  0.12516434682E+00  0.17345484260E-01  0.12882931910E+00  0.21251499737E-01 0.  0.
         14    1    1    2    0    0  0.16843043596E-01  0.15150626633E-01 -0.58542186114E-02  0.23398749550E-01  0.00000000000E+00 0.  1.
     999901    1    3    3    0    0 -0.30199228695E-01 -0.14031497345E+00 -0.11491265649E-01  0.89170193135E+00  0.88000000000E+00 0. -1.
        -11    1    4    4    0    0 -0.26520947576E-02  0.56540476556E-01  0.13848932390E-01  0.58274463920E-01  0.51100000000E-03 0. -1.
         11    1    4    4    0    0  0.16008279857E-01  0.68623870261E-01  0.34965518704E-02  0.70554855180E-01  0.51100000000E-03 0.  1.
</event>
<event>
 8    1  0.1095698E+005  0.1043930E+01  0.7957747E-01            NaN
         13   -1    0    0    0    0  0.00000000000E+00  0.00000000000E+00  0.74505805969E-08  0.10566000000E+00  0.10566000000E+00 0.  1.
     999900   -1    0    0    0    0 -0.00000000000E+00 -0.00000000000E+00 -0.74505805969E-08  0.93827000000E+00  0.93827000000E+00 0. -1.
     999902    2    1    2    0    0  0.18423836509E-01 -0.93278740573E-02 -0.86547714128E-02  0.10215391078E+01  0.10212936878E+01 0.  0.
     999903    2    3    3    0    0  0.15366283733E-01  0.10604499564E+00  0.71452610568E-01  0.13039521349E+00  0.20390496982E-01 0.  0.
         14    1    1    2    0    0 -0.18423836509E-01  0.93278740573E-02  0.86547714128E-02  0.22390892219E-01  0.00000000000E+00 0. -1.
     999901    1    3    3    0    0  0.30575527759E-02 -0.11537286970E+00 -0.80107381980E-01  0.89114389429E+00  0.88000000000E+00 0. -1.
        -11    1    4    4    0    0  0.14766774872E-02  0.64078131212E-01  0.34593026445E-01  0.72836296417E-01  0.51100000000E-03 0.  1.
         11    1    4    4    0    0  0.13889606246E-01  0.41966864428E-01  0.36859584122E-01  0.57558917070E-01  0.51100000000E-03 0. -1.
</event>
<event>
 8    1  0.1095698E+005  0.1043930E+01  0.7957747E-01            NaN
         13   -1    0    0    0    0  0.00000000000E+00  0.00000000000E+00  0.74505805969E-08  0.10566000000E+00  0.10566000000E+00 0. -1.
     999900   -1    0    0    0    0 -0.00000000000E+00 -0.00000000000E+00 -0.74505805969E-08  0.93827000000E+00  0.93827000000E+00 0.  1.
     999902    2    1    2    0    0  0.11923289337E-01 -0.11727553482E-01  0.14855005189E-01  0.10215610144E+01  0.10213160796E+01 0.  0.
     999903    2    3    3    0    0  0.51471567780E-02 -0.28239535143E-01  0.12896290945E+00  0.13401429710E+00  0.22459635880E-01 0.  0.
         14    1    1    2    0    0 -0.11923289337E-01  0.11727553482E-01 -0.14855005189E-01  0.22368985637E-01  0.00000000000E+00 0. -1.
     999901    1    3    3    0    0  0.67761325590E-02  0.16511981661E-01 -0.11410790427E+00  0.88754671726E+00  0.88000000000E+00 0.  1.
        -11    1    4    4    0    0  0.94025459351E-02 -0.75985056217E-02  0.76885032113E-01  0.77831320443E-01  0.51100000000E-03 0. -1.
         11    1    4    4    0    0 -0.42553891571E-02 -0.20641029521E-01  0.52077877341E-01  0.56182976656E-01  0.51100000000E-03 0.  1.
</event>
<event>
 8    1  0.2230193E+005  0.1043930E+01  0.7957747E-01            NaN
         13   -1    0    0    0    0  0.00000000000E+00  0.00000000000E+00  0.74505805969E-08  0.10566000000E+00  0.10566000000E+00 0.  1.
     999900   -1    0    0    0    0 -0.00000000000E+00 -0.00000000000E+00 -0.74505805969E-08  0.93827000000E+00  0.93827000000E+00 0.  1.
     999902    2    1    2    0    0 -0.23243167993E-01  0.64395360610E-02  0.33016026480E-02  0.10195863548E+01  0.10192956989E+01 0.  0.
     999903    2    3    3    0    0 -0.91488867521E-01 -0.35825712627E-01  0.85912512002E-01  0.13207951587E+00  0.20256955066E-01 0.  0.
         14    1    1    2    0    0  0.23243167993E-01 -0.64395360610E-02 -0.33016026480E-02  0.24343645230E-01  0.00000000000E+00 0. -1.
     999901    1    3    3    0    0  0.68245699528E-01  0.42265248689E-01 -0.82610909354E-01  0.88750683890E+00  0.88000000000E+00 0.  1.
        -11    1    4    4    0    0 -0.63436013506E-01 -0.15741678268E-01  0.50146234023E-01  0.82382244155E-01  0.51100000000E-03 0.  1.
         11    1    4    4    0    0 -0.28052854014E-01 -0.20084034360E-01  0.35766277979E-01  0.49697271715E-01  0.51100000000E-03 0. -1.
</event>
<event>
 8    1  0.1095698E+005  0.1043930E+01  0.7957747E-01            NaN
         13   -1    0    0    0    0  0.00000000000E+00  0.00000000000E+00  0.74505805969E-08  0.10566000000E+00  0.10566000000E+00 0. -1.
     999900   -1    0    0    0    0 -0.00000000000E+00 -0.00000000000E+00 -0.74505805969E-08  0.93827000000E+00  0.93827000000E+00 0. -1.
     999902    2    1    2    0    0 -0.19033438170E-01 -0.11889030460E-01  0.89891869042E-02  0.10197550896E+01  0.10194684970E+01 0.  0.
     999903    2    3    3    0    0  0.15585415894E-01  0.10913334315E+00  0.64191271233E-01  0.12908559413E+00  0.19737769178E-01 0.  0.
         14    1    1    2    0    0  0.19033438170E-01  0.11889030460E-01 -0.89891869042E-02  0.24174910446E-01  0.00000000000E+00 0.  1.
     999901    1    3    3    0    0 -0.34618854064E-01 -0.12102237361E+00 -0.55202084329E-01  0.89066949543E+00  0.88000000000E+00 0. -1.
        -11    1    4    4    0    0  0.16709441622E-01  0.48955102442E-01  0.31979759251E-01  0.60817543663E-01  0.51100000000E-03 0.  1.
         11    1    4    4    0    0 -0.11240257287E-02  0.60178240711E-01  0.32211511982E-01  0.68268050464E-01  0.51100000000E-03 0. -1.
</event>
<event>
 8    1  0.1095698E+005  0.1043930E+01  0.7957747E-01            NaN
         13   -1    0    0    0    0  0.00000000000E+00  0.00000000000E+00  0.74505805969E-08  0.10566000000E+00  0.10566000000E+00 0.  1.
     999900   -1    0    0    0    0 -0.00000000000E+00 -0.00000000000E+00 -0.74505805969E-08  0.93827000000E+00  0.93827000000E+00 0.  1.
     999902    2    1    2    0    0 -0.21472840535E-02  0.22058747437E-01  0.90281720198E-02  0.10199987013E+01  0.10197179235E+01 0.  0.
     999903    2    3    3    0    0 -0.83245671480E-01 -0.93288616605E-01  0.22672291312E-01  0.12866928699E+00  0.20227328349E-01 0.  0.
         14    1    1    2    0    0  0.21472840535E-02 -0.22058747437E-01 -0.90281720198E-02  0.23931298697E-01  0.00000000000E+00 0. -1.
     999901    1    3    3    0    0  0.81098387427E-01  0.11534736404E+00 -0.13644119292E-01  0.89132941432E+00  0.88000000000E+00 0.  1.
        -11    1    4    4    0    0 -0.47294302867E-01 -0.41635807090E-01  0.45452083858E-02  0.63176036248E-01  0.51100000000E-03 0. -1.
         11    1    4    4    0    0 -0.35951368613E-01 -0.51652809515E-01  0.18127082926E-01  0.65493250739E-01  0.51100000000E-03 0.  1.
</event>
<event>
 8    1  0.1095698E+005  0.1043930E+01  0.7957747E-01            NaN
         13   -1    0    0    0    0  0.00000000000E+00  0.00000000000E+00  0.74505805969E-08  0.10566000000E+00  0.10566000000E+00 0.  1.
     999900   -1    0    0    0    0 -0.00000000000E+00 -0.00000000000E+00 -0.74505805969E-08  0.93827000000E+00  0.93827000000E+00 0.  1.
     999902    2    1    2    0    0  0.18672160344E-01 -0.13698424222E-01 -0.17725793609E-01  0.10147666642E+01  0.10143475157E+01 0.  0.
     999903    2    3    3    0    0 -0.10749837782E+00 -0.27892400716E-01  0.49217133708E-01  0.12313791340E+00  0.20167603119E-01 0.  0.
         14    1    1    2    0    0 -0.18672160344E-01  0.13698424222E-01  0.17725793609E-01  0.29163335837E-01  0.00000000000E+00 0.  1.
     999901    1    3    3    0    0  0.12617053816E+00  0.14193976494E-01 -0.66942927317E-01  0.89162875076E+00  0.88000000000E+00 0.  1.
        -11    1    4    4    0    0 -0.26503568898E-01 -0.11190899176E-01  0.21489990904E-01  0.35913176116E-01  0.51100000000E-03 0.  1.
         11    1    4    4    0    0 -0.80994808918E-01 -0.16701501539E-01  0.27727142804E-01  0.87224737285E-01  0.51100000000E-03 0. -1.
</event>
<event>
 8    1  0.1095698E+005  0.1043930E+01  0.7957747E-01            NaN
         13   -1    0    0    0    0  0.00000000000E+00  0.00000000000E+00  0.74505805969E-08  0.10566000000E+00  0.10566000000E+00 0.  1.
     999900   -1    0    0    0    0 -0.00000000000E+00 -0.00000000000E+00 -0.74505805969E-08  0.93827000000E+00  0.93827000000E+00 0.  1.
     999902    2    1    2    0    0  0.12816422499E-01  0.13051186948E-01 -0.20730878332E-01  0.10162828757E+01  0.10159067477E+01 0.  0.
     999903    2    3    3    0    0 -0.29945208665E-01 -0.26493034205E-01  0.11549256371E+00  0.12389891758E+00  0.20342397139E-01 0.  0.
         14    1    1    2    0    0 -0.12816422499E-01 -0.13051186948E-01  0.20730878332E-01  0.27647124314E-01  0.00000000000E+00 0.  1.
     999901    1    3    3    0    0  0.42761631164E-01  0.39544221154E-01 -0.13622344204E+00  0.89238395811E+00  0.88000000000E+00 0.  1.
        -11    1    4    4    0    0 -0.23488659127E-01 -0.26579725345E-01  0.75913273927E-01  0.83793109420E-01  0.51100000000E-03 0.  1.
         11    1    4    4    0    0 -0.64565495381E-02  0.86691139423E-04  0.39579289783E-01  0.40105808158E-01  0.51100000000E-03 0. -1.
</event>
<event>
 7    1  0.1095698E+005  0.1043930E+01  0.7957747E-01            NaN
         13   -1    0    0    0    0  0.00000000000E+00  0.00000000000E+00  0.74505805969E-08  0.10566000000E+00  0.10566000000E+00 0.  1.
     999900   -1    0    0    0    0 -0.00000000000E+00 -0.00000000000E+00 -0.74505805969E-08  0.93827000000E+00  0.93827000000E+00 0. -1.
     999903    2    1    2    0    0  0.11268625063E-01  0.17559658420E-01  0.10854451867E+00  0.11236544668E+00  0.20217753592E-01 0.  0.
         14    1    1    2    0    0  0.34561119107E-01  0.42644282327E-02  0.20951856986E-01  0.40640332346E-01  0.00000000000E+00 0. -1.
     999901    1    1    2    0    0 -0.45829744170E-01 -0.21824086653E-01 -0.12949637565E+00  0.89092422097E+00  0.88000000000E+00 0. -1.
        -11    1    3    3    0    0  0.82641447190E-02  0.98930190979E-02  0.98617157273E-01  0.99457391603E-01  0.51100000000E-03 0. -1.
         11    1    3    3    0    0  0.30044803437E-02  0.76666393223E-02  0.99273613949E-02  0.12908055078E-01  0.51100000000E-03 0.  1.
</event>
<event>
 8    1  0.1095698E+005  0.1043930E+01  0.7957747E-01            NaN
         13   -1    0    0    0    0  0.00000000000E+00  0.00000000000E+00  0.74505805969E-08  0.10566000000E+00  0.10566000000E+00 0. -1.
     999900   -1    0    0    0    0 -0.00000000000E+00 -0.00000000000E+00 -0.74505805969E-08  0.93827000000E+00  0.93827000000E+00 0.  1.
     999902    2    1    2    0    0  0.73102702281E-02 -0.22403256783E-01  0.23781915829E-02  0.10202445243E+01  0.10199695523E+01 0.  0.
     999903    2    3    3    0    0  0.96502544677E-01 -0.77421357881E-01 -0.44036222580E-01  0.13281196283E+00  0.19824751839E-01 0.  0.
         14    1    1    2    0    0 -0.73102702281E-02  0.22403256783E-01 -0.23781915829E-02  0.23685475728E-01  0.00000000000E+00 0.  1.
     999901    1    3    3    0    0 -0.89192274449E-01  0.55018101099E-01  0.46414414163E-01  0.88743256144E+00  0.88000000000E+00 0. -1.
        -11    1    4    4    0    0  0.48679891913E-01 -0.50065092887E-01 -0.29666653489E-01  0.75872372130E-01  0.51100000000E-03 0.  1.
         11    1    4    4    0    0  0.47822652764E-01 -0.27356264995E-01 -0.14369569091E-01  0.56939590697E-01  0.51100000000E-03 0. -1.
</event>
<event>
 8    1  0.1095698E+005  0.1043930E+01  0.7957747E-01            NaN
         13   -1    0    0    0    0  0.00000000000E+00  0.00000000000E+00  0.74505805969E-08  0.10566000000E+00  0.10566000000E+00 0. -1.
     999900   -1    0    0    0    0 -0.00000000000E+00 -0.00000000000E+00 -0.74505805969E-08  0.93827000000E+00  0.93827000000E+00 0.  1.
     999902    2    1    2    0    0 -0.69040912796E-02  0.19460718458E-01  0.85353205147E-02  0.10215863715E+01  0.10213419979E+01 0.  0.
     999903    2    3    3    0    0 -0.10683225846E+00  0.74846205617E-01 -0.20914771620E-01  0.13371222572E+00  0.20650561496E-01 0.  0.
         14    1    1    2    0    0  0.69040912796E-02 -0.19460718458E-01 -0.85353205147E-02  0.22343628524E-01  0.00000000000E+00 0.  1.
     999901    1    3    3    0    0  0.99928167184E-01 -0.55385487159E-01  0.29450092135E-01  0.88787414576E+00  0.88000000000E+00 0. -1.
        -11    1    4    4    0    0 -0.71865304940E-01  0.53922689380E-01 -0.23526368443E-01  0.92876421213E-01  0.51100000000E-03 0.  1.
         11    1    4    4    0    0 -0.34966953523E-01  0.20923516237E-01  0.26115968229E-02  0.40835804502E-01  0.51100000000E-03 0. -1.
</event>
<event>
 8    1  0.1095698E+005  0.1043930E+01  0.7957747E-01            NaN
         13   -1    0    0    0    0  0.00000000000E+00  0.00000000000E+00  0.74505805969E-08  0.10566000000E+00  0.10566000000E+00 0. -1.
     999900   -1    0    0    0    0 -0.00000000000E+00 -0.00000000000E+00 -0.74505805969E-08  0.93827000000E+00  0.93827000000E+00 0.  1.
     999902    2    1    2    0    0  0.42791002034E-03 -0.69679210915E-02 -0.26611698826E-01  0.10164178655E+01  0.10160454516E+01 0.  0.
     999903    2    3    3    0    0  0.68994801092E-01  0.59273614144E-01 -0.88990538111E-01  0.12907324295E+00  0.21608846832E-01 0.  0.
         14    1    1    2    0    0 -0.42791002034E-03  0.69679210915E-02  0.26611698826E-01  0.27512134518E-01  0.00000000000E+00 0. -1.
     999901    1    3    3    0    0 -0.68566891072E-01 -0.66241535236E-01  0.62378839285E-01  0.88734462253E+00  0.88000000000E+00 0. -1.
        -11    1    4    4    0    0  0.66706726243E-01  0.57911954959E-01 -0.78303904313E-01  0.11804805973E+00  0.51100000000E-03 0.  1.
         11    1    4    4    0    0  0.22880748486E-02  0.13616591858E-02 -0.10686633798E-01  0.11025183227E-01  0.51100000000E-03 0. -1.
</event>
<event>
 8    1  0.1095698E+005  0.1043930E+01  0.7957747E-01            NaN
         13   -1    0    0    0    0  0.00000000000E+00  0.00000000000E+00  0.74505805969E-08  0.10566000000E+00  0.10566000000E+00 0.  1.
     999900   -1    0    0    0    0 -0.00000000000E+00 -0.00000000000E+00 -0.74505805969E-08  0.93827000000E+00  0.93827000000E+00 0.  1.
     999902    2    1    2    0    0 -0.14285019244E-01 -0.14028214478E-01  0.12489865986E-01  0.10203323448E+01  0.10200594319E+01 0.  0.
     999903    2    3    3    0    0 -0.86368101726E-01 -0.83053540789E-02 -0.95783408908E-01  0.13075276776E+00  0.19834236911E-01 0.  0.
         14    1    1    2    0    0  0.14285019244E-01  0.14028214478E-01 -0.12489865986E-01  0.23597655150E-01  0.00000000000E+00 0. -1.
     999901    1    3    3    0    0  0.72083082482E-01 -0.57228603987E-02  0.10827327489E+00  0.88957957709E+00  0.88000000000E+00 0.  1.
        -11    1    4    4    0    0 -0.36808597232E-02 -0.49759554142E-02 -0.77008868915E-02  0.98931107596E-02  0.51100000000E-03 0. -1.
         11    1    4    4    0    0 -0.82687242002E-01 -0.33293986647E-02 -0.88082522017E-01  0.12085965700E+00  0.51100000000E-03 0.  1.
</event>
<event>
 8    1  0.1095698E+005  0.1043930E+01  0.7957747E-01            NaN
         13   -1    0    0    0    0  0.00000000000E+00  0.00000000000E+00  0.74505805969E-08  0.10566000000E+00  0.10566000000E+00 0.  1.
     999900   -1    0    0    0    0 -0.00000000000E+00 -0.00000000000E+00 -0.74505805969E-08  0.93827000000E+00  0.93827000000E+00 0. -1.
     999902    2    1    2    0    0  0.16592219693E-01 -0.34912562047E-03  0.16098058386E-01  0.10208092057E+01  0.10205473352E+01 0.  0.
     999903    2    3    3    0    0  0.15767760451E-01 -0.87735655709E-01 -0.92338052229E-01  0.12985720061E+00  0.19758772953E-01 0.  0.
         14    1    1    2    0    0 -0.16592219693E-01  0.34912562047E-03 -0.16098058386E-01  0.23120794252E-01  0.00000000000E+00 0.  1.
     999901    1    3    3    0    0  0.82445924204E-03  0.87386530089E-01  0.10843611061E+00  0.89095200514E+00  0.88000000000E+00 0.  1.
        -11    1    4    4    0    0  0.20161613042E-01 -0.68778947146E-01 -0.75712279426E-01  0.10425758768E+00  0.51100000000E-03 0. -1.
         11    1    4    4    0    0 -0.43938525913E-02 -0.18956708563E-01 -0.16625772803E-01  0.25599612935E-01  0.51100000000E-03 0.  1.
</event>
<event>
 8    1  0.1095698E+005  0.1043930E+01  0.7957747E-01            NaN
         13   -1    0    0    0    0  0.00000000000E+00  0.00000000000E+00  0.74505805969E-08  0.10566000000E+00  0.10566000000E+00 0.  1.
     999900   -1    0    0    0    0 -0.00000000000E+00 -0.00000000000E+00 -0.74505805969E-08  0.93827000000E+00  0.93827000000E+00 0. -1.
     999902    2    1    2    0    0  0.61195485888E-02 -0.12223574658E-01 -0.18948331928E-01  0.10205654128E+01  0.10202979260E+01 0.  0.
     999903    2    3    3    0    0 -0.42194279181E-01 -0.12201045510E+00 -0.20928192228E-01  0.13242617545E+00  0.20779662291E-01 0.  0.
         14    1    1    2    0    0 -0.61195485888E-02  0.12223574658E-01  0.18948331928E-01  0.23364587204E-01  0.00000000000E+00 0.  1.
     999901    1    3    3    0    0  0.48313827770E-01  0.10978688044E+00  0.19798602998E-02  0.88813923735E+00  0.88000000000E+00 0.  1.
        -11    1    4    4    0    0 -0.61767104435E-02 -0.11086841936E-01 -0.81753526538E-02  0.15105208639E-01  0.51100000000E-03 0. -1.
         11    1    4    4    0    0 -0.36017568738E-01 -0.11092361316E+00 -0.12752839574E-01  0.11732096681E+00  0.51100000000E-03 0.  1.
</event>
<event>
 8    1  0.1095698E+005  0.1043930E+01  0.7957747E-01            NaN
         13   -1    0    0    0    0  0.00000000000E+00  0.00000000000E+00  0.74505805969E-08  0.10566000000E+00  0.10566000000E+00 0.  1.
     999900   -1    0    0    0    0 -0.00000000000E+00 -0.00000000000E+00 -0.74505805969E-08  0.93827000000E+00  0.93827000000E+00 0.  1.
     999902    2    1    2    0    0  0.14009024745E-01  0.26877697087E-01  0.35812966797E-02  0.10134096943E+01  0.10129500083E+01 0.  0.
     999903    2    3    3    0    0  0.12410189043E+00  0.16188227017E-01  0.54480566161E-03  0.12648020209E+00  0.18264906365E-01 0.  0.
         14    1    1    2    0    0 -0.14009024745E-01 -0.26877697087E-01 -0.35812966797E-02  0.30520305715E-01  0.00000000000E+00 0. -1.
     999901    1    3    3    0    0 -0.11009286569E+00  0.10689470071E-01  0.30364910181E-02  0.88692949219E+00  0.88000000000E+00 0.  1.
        -11    1    4    4    0    0  0.10596964648E+00  0.10804853249E-01 -0.53708197185E-02  0.10665560301E+00  0.51100000000E-03 0. -1.
         11    1    4    4    0    0  0.18132243954E-01  0.53833737671E-02  0.59156253802E-02  0.19824599077E-01  0.51100000000E-03 0.  1.
</event>
<event>
 8    1  0.1095698E+005  0.1043930E+01  0.7957747E-01            NaN
         13   -1    0    0    0    0  0.00000000000E+00  0.00000000000E+00  0.74505805969E-08  0.10566000000E+00  0.10566000000E+00 0. -1.
     999900   -1    0    0    0    0 -0.00000000000E+00 -0.00000000000E+00 -0.74505805969E-08  0.93827000000E+00  0.93827000000E+00 0. -1.
     999902    2    1    2    0    0  0.22563706518E-01 -0.54162445396E-02 -0.25123977961E-02  0.10205897194E+01  0.10203227953E+01 0.  0.
     999903    2    3    3    0    0 -0.10183348023E+00 -0.47081531309E-01 -0.61501692749E-01  0.12891130587E+00  0.15777778191E-01 0.  0.
         14    1    1    2    0    0 -0.22563706518E-01  0.54162445396E-02  0.25123977961E-02  0.23340280620E-01  0.00000000000E+00 0.  1.
     999901    1    3    3    0    0  0.12439718675E+00  0.41665286769E-01  0.58989294953E-01  0.89167841351E+00  0.88000000000E+00 0.  1.
        -11    1    4    4    0    0 -0.43733595041E-01 -0.22548663539E-01 -0.18463981340E-01  0.52557105043E-01  0.51100000000E-03 0. -1.
         11    1    4    4    0    0 -0.58099885192E-01 -0.24532867770E-01 -0.43037711409E-01  0.76354200832E-01  0.51100000000E-03 0.  1.
</event>
<event>
 8    1  0.1095698E+005  0.1043930E+01  0.7957747E-01            NaN
         13   -1    0    0    0    0  0.00000000000E+00  0.00000000000E+00  0.74505805969E-08  0.10566000000E+00  0.10566000000E+00 0. -1.
     999900   -1    0    0    0    0 -0.00000000000E+00 -0.00000000000E+00 -0.74505805969E-08  0.93827000000E+00  0.93827000000E+00 0.  1.
     999902    2    1    2    0    0 -0.18783575643E-01  0.18462999701E-02  0.14522029234E-01  0.10201157003E+01  0.10198376935E+01 0.  0.
     999903    2    3    3    0    0 -0.95832289793E-01 -0.38327353990E-01 -0.78197778845E-01  0.13098838116E+00  0.19754734896E-01 0.  0.
         14    1    1    2    0    0  0.18783575643E-01 -0.18462999701E-02 -0.14522029234E-01  0.23814299708E-01  0.00000000000E+00 0.  1.
     999901    1    3    3    0    0  0.77048714150E-01  0.40173653960E-01  0.92719808078E-01  0.88912731914E+00  0.88000000000E+00 0. -1.
        -11    1    4    4    0    0 -0.13034382748E-01 -0.96965779124E-02 -0.55458411418E-02  0.17173707573E-01  0.51100000000E-03 0. -1.
         11    1    4    4    0    0 -0.82797907045E-01 -0.28630776078E-01 -0.72651937703E-01  0.11381467358E+00  0.51100000000E-03 0.  1.
</event>
<event>
 8    1  0.1095698E+005  0.1043930E+01  0.7957747E-01            NaN
         13   -1    0    0    0    0  0.00000000000E+00  0.00000000000E+00  0.74505805969E-08  0.10566000000E+00  0.10566000000E+00 0.  1.
     999900   -1    0    0    0    0 -0.00000000000E+00 -0.00000000000E+00 -0.74505805969E-08  0.93827000000E+00  0.93827000000E+00 0.  1.
     999902    2    1    2    0    0  0.22480254235E-01  0.87047667591E-02 -0.26666817615E-02  0.10196762171E+01  0.10193877288E+01 0.  0.
     999903    2    3    3    0    0  0.35500392826E-01 -0.94958885010E-01 -0.79313978667E-01  0.13018732741E+00  0.19508082243E-01 0.  0.
         14    1    1    2    0    0 -0.22480254235E-01 -0.87047667591E-02  0.26666817615E-02  0.24253782930E-01  0.00000000000E+00 0.  1.
     999901    1    3    3    0    0 -0.13020138591E-01  0.10366365177E+00  0.76647296905E-01  0.88948888966E+00  0.88000000000E+00 0. -1.
        -11    1    4    4    0    0  0.14184714082E-01 -0.51642713962E-01 -0.30985599833E-01  0.61875233632E-01  0.51100000000E-03 0.  1.
         11    1    4    4    0    0  0.21315678743E-01 -0.43316171049E-01 -0.48328378833E-01  0.68312093778E-01  0.51100000000E-03 0. -1.
</event>
<event>
 8    1  0.1095698E+005  0.1043930E+01  0.7957747E-01            NaN
         13   -1    0    0    0    0  0.00000000000E+00  0.00000000000E+00  0.74505805969E-08  0.10566000000E+00  0.10566000000E+00 0.  1.
     999900   -1    0    0    0    0 -0.00000000000E+00 -0.00000000000E+00 -0.74505805969E-08  0.93827000000E+00  0.93827000000E+00 0. -1.
     999902    2    1    2    0    0 -0.12143635736E-01 -0.20046358685E-01 -0.50302258259E-02  0.10199586096E+01  0.10196768791E+01 0.  0.
     999903    2    3    3    0    0 -0.23564786247E-01 -0.46273715703E-01 -0.12011047239E+00  0.13200490581E+00  0.17384293632E-01 0.  0.
         14    1    1    2    0    0  0.12143635736E-01  0.20046358685E-01  0.50302258259E-02  0.23971390391E-01  0.00000000000E+00 0.  1.
     999901    1    3    3    0    0  0.11421150511E-01  0.26227357018E-01  0.11508024656E+00  0.88795370380E+00  0.88000000000E+00 0.  1.
        -11    1    4    4    0    0 -0.54009758152E-02 -0.18347503808E-01 -0.63478693322E-01  0.66299374526E-01  0.51100000000E-03 0. -1.
         11    1    4    4    0    0 -0.18163810432E-01 -0.27926211895E-01 -0.56631779069E-01  0.65705531287E-01  0.51100000000E-03 0.  1.
</event>
<event>
 8    1  0.1095698E+005  0.1043930E+01  0.7957747E-01            NaN
         13   -1    0    0    0    0  0.00000000000E+00  0.00000000000E+00  0.74505805969E-08  0.10566000000E+00  0.10566000000E+00 0.  1.
     999900   -1    0    0    0    0 -0.00000000000E+00 -0.00000000000E+00 -0.74505805969E-08  0.93827000000E+00  0.93827000000E+00 0.  1.
     999902    2    1    2    0    0 -0.21392409109E-01 -0.22579889439E-02  0.10193800159E-01  0.10201256465E+01  0.10198478747E+01 0.  0.
     999903    2    3    3    0    0  0.96239444382E-01  0.79045629332E-01  0.25716274800E-01  0.12844830663E+00  0.18094156949E-01 0.  0.
         14    1    1    2    0    0  0.21392409109E-01  0.22579889439E-02 -0.10193800159E-01  0.23804353451E-01  0.00000000000E+00 0. -1.
     999901    1    3    3    0    0 -0.11763185349E+00 -0.81303618276E-01 -0.15522474641E-01  0.89167733992E+00  0.88000000000E+00 0.  1.
        -11    1    4    4    0    0  0.56640182524E-01  0.54150069282E-01  0.94817516422E-02  0.78933548094E-01  0.51100000000E-03 0.  1.
         11    1    4    4    0    0  0.39599261858E-01  0.24895560051E-01  0.16234523158E-01  0.49514758539E-01  0.51100000000E-03 0. -1.
</event>
<event>
 8    1  0.1095698E+005  0.1043930E+01  0.7957747E-01            NaN
         13   -1    0    0    0    0  0.00000000000E+00  0.00000000000E+00  0.74505805969E-08  0.10566000000E+00  0.10566000000E+00 0.  1.
     999900   -1    0    0    0    0 -0.00000000000E+00 -0.00000000000E+00 -0.74505805969E-08  0.93827000000E+00  0.93827000000E+00 0.  1.
     999902    2    1    2    0    0 -0.23854832105E-01  0.32903289865E-02 -0.17534339537E-02  0.10197855636E+01  0.10194997018E+01 0.  0.
     999903    2    3    3    0    0 -0.19767505334E-01  0.12755829860E+00  0.79365452097E-02  0.13099248855E+00  0.20836734329E-01 0.  0.
         14    1    1    2    0    0  0.23854832105E-01 -0.32903289865E-02  0.17534339537E-02  0.24144436424E-01  0.00000000000E+00 0. -1.
     999901    1    3    3    0    0 -0.40873267706E-02 -0.12426796962E+00 -0.96899791634E-02  0.88879307502E+00  0.88000000000E+00 0. -1.
        -11    1    4    4    0    0  0.28945206333E-02  0.17325011710E-01 -0.33468718476E-02  0.17888458643E-01  0.51100000000E-03 0.  1.
         11    1    4    4    0    0 -0.22662025968E-01  0.11023328689E+00  0.11283417057E-01  0.11310402991E+00  0.51100000000E-03 0. -1.
</event>
<event>
 8    1  0.1095698E+005  0.1043930E+01  0.7957747E-01            NaN
         13   -1    0    0    0    0  0.00000000000E+00  0.00000000000E+00  0.74505805969E-08  0.10566000000E+00  0.10566000000E+00 0. -1.
     999900   -1    0    0    0    0 -0.00000000000E+00 -0.00000000000E+00 -0.74505805969E-08  0.93827000000E+00  0.93827000000E+00 0.  1.
     999902    2    1    2    0    0 -0.13639504364E-01 -0.18329803347E-01  0.52994153371E-02  0.10204757558E+01  0.10202061882E+01 0.  0.
     999903    2    3    3    0    0  0.38577325401E-01 -0.25257485466E-01 -0.11961766754E+00  0.13009445110E+00  0.22136603475E-01 0.  0.
         14    1    1    2    0    0  0.13639504364E-01  0.18329803347E-01 -0.52994153371E-02  0.23454244241E-01  0.00000000000E+00 0. -1.
     999901    1    3    3    0    0 -0.52216829764E-01  0.69276821190E-02  0.12491708287E+00  0.89038130466E+00  0.88000000000E+00 0. -1.
        -11    1    4    4    0    0  0.23490667480E-01 -0.83794594751E-02 -0.38496987560E-01  0.45872714896E-01  0.51100000000E-03 0.  1.
         11    1    4    4    0    0  0.15086657920E-01 -0.16878025990E-01 -0.81120679976E-01  0.84221736205E-01  0.51100000000E-03 0. -1.
</event>
<event>
 8    1  0.1095698E+005  0.1043930E+01  0.7957747E-01            NaN
         13   -1    0    0    0    0  0.00000000000E+00  0.00000000000E+00  0.74505805969E-08  0.10566000000E+00  0.10566000000E+00 0. -1.
     999900   -1    0    0    0    0 -0.00000000000E+00 -0.00000000000E+00 -0.74505805969E-08  0.93827000000E+00  0.93827000000E+00 0.  1.
     999902    2    1    2    0    0  0.45518575344E-02  0.18169069090E-01 -0.14181783493E-01  0.10204362250E+01  0.10201657375E+01 0.  0.
     999903    2    3    3    0    0  0.39673222919E-01  0.10755427366E+00 -0.65924450192E-01  0.13370034066E+00  0.19694201175E-01 0.  0.
         14    1    1    2    0    0 -0.45518575344E-02 -0.18169069090E-01  0.14181783493E-01  0.23493774955E-01  0.00000000000E+00 0. -1.
     999901    1    3    3    0    0 -0.35121365385E-01 -0.89385204569E-01  0.51742666699E-01  0.88673588439E+00  0.88000000000E+00 0. -1.
        -11    1    4    4    0    0  0.15669606580E-01  0.46301440246E-01 -0.17159736458E-01  0.51808084461E-01  0.51100000000E-03 0. -1.
         11    1    4    4    0    0  0.24003616339E-01  0.61252833412E-01 -0.48764713734E-01  0.81892256197E-01  0.51100000000E-03 0.  1.
</event>
<event>
 8    1  0.1095698E+005  0.1043930E+01  0.7957747E-01            NaN
         13   -1    0    0    0    0  0.00000000000E+00  0.00000000000E+00  0.74505805969E-08  0.10566000000E+00  0.10566000000E+00 0.  1.
     999900   -1    0    0    0    0 -0.00000000000E+00 -0.00000000000E+00 -0.74505805969E-08  0.93827000000E+00  0.93827000000E+00 0. -1.
     999902    2    1    2    0    0 -0.42116165046E-02  0.17366892706E-01  0.17100929675E-01  0.10191956419E+01  0.10188954647E+01 0.  0.
     999903    2    3    3    0    0  0.93602697892E-01  0.81280853401E-01 -0.33775765782E-01  0.13001564176E+00  0.19880205377E-01 0.  0.
         14    1    1    2    0    0  0.42116165046E-02 -0.17366892706E-01 -0.17100929675E-01  0.24734358120E-01  0.00000000000E+00 0. -1.
     999901    1    3    3    0    0 -0.97814314397E-01 -0.63913960695E-01  0.50876695457E-01  0.88918000012E+00  0.88000000000E+00 0.  1.
        -11    1    4    4    0    0  0.21645391647E-01  0.28130551067E-01 -0.15366363422E-01  0.38681224498E-01  0.51100000000E-03 0. -1.
         11    1    4    4    0    0  0.71957306245E-01  0.53150302334E-01 -0.18409402360E-01  0.91334417262E-01  0.51100000000E-03 0.  1.
</event>
<event>
 8    1  0.1095698E+005  0.1043930E+01  0.7957747E-01            NaN
         13   -1    0    0    0    0  0.00000000000E+00  0.00000000000E+00  0.74505805969E-08  0.10566000000E+00  0.10566000000E+00 0.  1.
     999900   -1    0    0    0    0 -0.00000000000E+00 -0.00000000000E+00 -0.74505805969E-08  0.93827000000E+00  0.93827000000E+00 0.  1.
     999902    2    1    2    0    0 -0.11523929278E-01 -0.19754591059E-01  0.61652886109E-02  0.10202433878E+01  0.10199683891E+01 0.  0.
     999903    2    3    3    0    0 -0.44225738431E-01  0.10159573207E+00 -0.62273189955E-01  0.12868344332E+00  0.20096509239E-01 0.  0.
         14    1    1    2    0    0  0.11523929278E-01  0.19754591059E-01 -0.61652886109E-02  0.23686612202E-01  0.00000000000E+00 0. -1.
     999901    1    3    3    0    0  0.32701809152E-01 -0.12135032313E+00  0.68438478566E-01  0.89155994448E+00  0.88000000000E+00 0. -1.
        -11    1    4    4    0    0 -0.44647859499E-01  0.89910086709E-01 -0.59352729831E-01  0.11662016425E+00  0.51100000000E-03 0. -1.
         11    1    4    4    0    0  0.42212106830E-03  0.11685645361E-01 -0.29204601248E-02  0.12063279075E-01  0.51100000000E-03 0.  1.
</event>
<event>
 8    1  0.1095698E+005  0.1043930E+01  0.7957747E-01            NaN
         13   -1    0    0    0    0  0.00000000000E+00  0.00000000000E+00  0.74505805969E-08  0.10566000000E+00  0.10566000000E+00 0.  1.
     999900   -1    0    0    0    0 -0.00000000000E+00 -0.00000000000E+00 -0.74505805969E-08  0.93827000000E+00  0.93827000000E+00 0.  1.
     999902    2    1    2    0    0  0.21788101583E-02  0.24393866526E-01 -0.60413657632E-02  0.10187048927E+01  0.10183925335E+01 0.  0.
     999903    2    3    3    0    0  0.46441648963E-01 -0.11331036570E+00  0.24193491254E-01  0.12638443398E+00  0.19789754950E-01 0.  0.
         14    1    1    2    0    0 -0.21788101583E-02 -0.24393866526E-01  0.60413657632E-02  0.25225107296E-01  0.00000000000E+00 0.  1.
     999901    1    3    3    0    0 -0.44262838805E-01  0.13770423223E+00 -0.30234857017E-01  0.89232045872E+00  0.88000000000E+00 0. -1.
        -11    1    4    4    0    0  0.74571158076E-02 -0.42358506049E-01  0.10505580105E-01  0.44277307339E-01  0.51100000000E-03 0.  1.
         11    1    4    4    0    0  0.38984533155E-01 -0.70951859651E-01  0.13687911149E-01  0.82107126645E-01  0.51100000000E-03 0. -1.
</event>
<event>
 8    1  0.1095698E+005  0.1043930E+01  0.7957747E-01            NaN
         13   -1    0    0    0    0  0.00000000000E+00  0.00000000000E+00  0.74505805969E-08  0.10566000000E+00  0.10566000000E+00 0. -1.
     999900   -1    0    0    0    0 -0.00000000000E+00 -0.00000000000E+00 -0.74505805969E-08  0.93827000000E+00  0.93827000000E+00 0. -1.
     999902    2    1    2    0    0 -0.28545628868E-02  0.97606645279E-02 -0.20876538290E-01  0.10207082655E+01  0.10204440770E+01 0.  0.
     999903    2    3    3    0    0 -0.86565088721E-02 -0.10823238112E+00  0.65893939796E-01  0.12858431826E+00  0.20068187062E-01 0.  0.
         14    1    1    2    0    0  0.28545628868E-02 -0.97606645279E-02  0.20876538290E-01  0.23221734481E-01  0.00000000000E+00 0. -1.
     999901    1    3    3    0    0  0.58019459853E-02  0.11799304565E+00 -0.86770478086E-01  0.89212394726E+00  0.88000000000E+00 0.  1.
        -11    1    4    4    0    0 -0.67285759476E-02 -0.19084626603E-01  0.58075614117E-02  0.21059097735E-01  0.51100000000E-03 0. -1.
         11    1    4    4    0    0 -0.19279329245E-02 -0.89147754521E-01  0.60086378384E-01  0.10752522053E+00  0.51100000000E-03 0.  1.
</event>
<event>
 8    1  0.1095698E+005  0.1043930E+01  0.7957747E-01            NaN
         13   -1    0    0    0    0  0.00000000000E+00  0.00000000000E+00  0.74505805969E-08  0.10566000000E+00  0.10566000000E+00 0. -1.
     999900   -1    0    0    0    0 -0.00000000000E+00 -0.00000000000E+00 -0.74505805969E-08  0.93827000000E+00  0.93827000000E+00 0.  1.
     999902    2    1    2    0    0  0.99881697844E-02  0.18308959505E-01  0.10423639252E-01  0.10206140443E+01  0.10203476827E+01 0.  0.
     999903    2    3    3    0    0 -0.83778036420E-01  0.93860521151E-01  0.22252608025E-01  0.13233477270E+00  0.34478350959E-01 0.  0.
         14    1    1    2    0    0 -0.99881697844E-02 -0.18308959505E-01 -0.10423639252E-01  0.23315955675E-01  0.00000000000E+00 0. -1.
     999901    1    3    3    0    0  0.93766206205E-01 -0.75551561646E-01 -0.11828968772E-01  0.88827927162E+00  0.88000000000E+00 0. -1.
        -11    1    4    4    0    0 -0.50795316094E-01  0.50827578671E-01  0.29405308607E-01  0.77643674475E-01  0.51100000000E-03 0.  1.
         11    1    4    4    0    0 -0.32982720326E-01  0.43032942480E-01 -0.71527005826E-02  0.54691098226E-01  0.51100000000E-03 0. -1.
</event>
<event>
 8    1  0.1095698E+005  0.1043930E+01  0.7957747E-01            NaN
         13   -1    0    0    0    0  0.00000000000E+00  0.00000000000E+00  0.74505805969E-08  0.10566000000E+00  0.10566000000E+00 0.  1.
     999900   -1    0    0    0    0 -0.00000000000E+00 -0.00000000000E+00 -0.74505805969E-08  0.93827000000E+00  0.93827000000E+00 0. -1.
     999902    2    1    2    0    0 -0.17643819145E-01 -0.13808973825E-01 -0.26162578787E-02  0.10213725862E+01  0.10211234612E+01 0.  0.
     999903    2    3    3    0    0 -0.46711028150E-01 -0.61828986034E-01 -0.10683516966E+00  0.13344668513E+00  0.19736277044E-01 0.  0.
         14    1    1    2    0    0  0.17643819145E-01  0.13808973825E-01  0.26162578787E-02  0.22557413802E-01  0.00000000000E+00 0.  1.
     999901    1    3    3    0    0  0.29067209005E-01  0.48020012209E-01  0.10421891178E+00  0.88792590107E+00  0.88000000000E+00 0.  1.
        -11    1    4    4    0    0 -0.19711294318E-01 -0.14358030345E-01 -0.23936006843E-01  0.34174284245E-01  0.51100000000E-03 0.  1.
         11    1    4    4    0    0 -0.26999733832E-01 -0.47470955689E-01 -0.82899162818E-01  0.99272400887E-01  0.51100000000E-03 0. -1.
</event>
<event>
 8    1  0.1095698E+005  0.1043930E+01  0.7957747E-01            NaN
         13   -1    0    0    0    0  0.00000000000E+00  0.00000000000E+00  0.74505805969E-08  0.10566000000E+00  0.10566000000E+00 0. -1.
     999900   -1    0    0    0    0 -0.00000000000E+00 -0.00000000000E+00 -0.74505805969E-08  0.93827000000E+00  0.93827000000E+00 0. -1.
     999902    2    1    2    0    0  0.15268120590E-01  0.17842157856E-01  0.80869731590E-02  0.10190933892E+01  0.10187906942E+01 0.  0.
     999903    2    3    3    0    0 -0.20639563518E-01  0.11582822796E+00  0.58215732399E-01  0.13151042165E+00  0.79843300974E-02 0.  0.
         14    1    1    2    0    0 -0.15268120590E-01 -0.17842157856E-01 -0.80869731590E-02  0.24836610843E-01  0.00000000000E+00 0.  1.
     999901    1    3    3    0    0  0.35907684108E-01 -0.97986070108E-01 -0.50128759240E-01  0.88758296751E+00  0.88000000000E+00 0. -1.
        -11    1    4    4    0    0 -0.47461491838E-03  0.19014302728E-01  0.90331681898E-02  0.21062483617E-01  0.51100000000E-03 0. -1.
         11    1    4    4    0    0 -0.20164948599E-01  0.96813925236E-01  0.49182564209E-01  0.11044793803E+00  0.51100000000E-03 0.  1.
</event>
<event>
 8    1  0.1095698E+005  0.1043930E+01  0.7957747E-01            NaN
         13   -1    0    0    0    0  0.00000000000E+00  0.00000000000E+00  0.74505805969E-08  0.10566000000E+00  0.10566000000E+00 0. -1.
     999900   -1    0    0    0    0 -0.00000000000E+00 -0.00000000000E+00 -0.74505805969E-08  0.93827000000E+00  0.93827000000E+00 0.  1.
     999902    2    1    2    0    0 -0.70059267983E-02  0.13889121149E-01  0.17753256196E-01  0.10203255766E+01  0.10200525053E+01 0.  0.
     999903    2    3    3    0    0  0.21394420796E-01  0.33513471689E-01  0.12531877390E+00  0.13310405105E+00  0.20761004020E-01 0.  0.
         14    1    1    2    0    0  0.70059267983E-02 -0.13889121149E-01 -0.17753256196E-01  0.23604423360E-01  0.00000000000E+00 0.  1.
     999901    1    3    3    0    0 -0.28400347595E-01 -0.19624350540E-01 -0.10756551770E+00  0.88722152559E+00  0.88000000000E+00 0.  1.
        -11    1    4    4    0    0 -0.32352442321E-02  0.69860069348E-02  0.34145188249E-01  0.35006086609E-01  0.51100000000E-03 0. -1.
         11    1    4    4    0    0  0.24629665028E-01  0.26527464754E-01  0.91173585650E-01  0.98097964438E-01  0.51100000000E-03 0.  1.
</event>
<event>
 8    1  0.1095698E+005  0.1043930E+01  0.7957747E-01            NaN
         13   -1    0    0    0    0  0.00000000000E+00  0.00000000000E+00  0.74505805969E-08  0.10566000000E+00  0.10566000000E+00 0. -1.
     999900   -1    0    0    0    0 -0.00000000000E+00 -0.00000000000E+00 -0.74505805969E-08  0.93827000000E+00  0.93827000000E+00 0.  1.
     999902    2    1    2    0    0  0.59378902736E-02 -0.12084713174E-01  0.18817286514E-01  0.10207915233E+01  0.10205292474E+01 0.  0.
     999903    2    3    3    0    0 -0.42812418319E-01 -0.10071927904E+00  0.71733857256E-01  0.13341739569E+00  0.26022660562E-01 0.  0.
         14    1    1    2    0    0 -0.59378902736E-02  0.12084713174E-01 -0.18817286514E-01  0.23138476725E-01  0.00000000000E+00 0.  1.
     999901    1    3    3    0    0  0.48750308592E-01  0.88634565866E-01 -0.52916570742E-01  0.88737412759E+00  0.88000000000E+00 0.  1.
        -11    1    4    4    0    0 -0.30072459045E-01 -0.83022385070E-01  0.45613640202E-01  0.99387798594E-01  0.51100000000E-03 0.  1.
         11    1    4    4    0    0 -0.12739959274E-01 -0.17696893969E-01  0.26120217053E-01  0.34029597093E-01  0.51100000000E-03 0. -1.
</event>
<event>
 8    1  0.1095698E+005  0.1043930E+01  0.7957747E-01            NaN
         13   -1    0    0    0    0  0.00000000000E+00  0.00000000000E+00  0.74505805969E-08  0.10566000000E+00  0.10566000000E+00 0.  1.
     999900   -1    0    0    0    0 -0.00000000000E+00 -0.00000000000E+00 -0.74505805969E-08  0.93827000000E+00  0.93827000000E+00 0.  1.
     999902    2    1    2    0    0  0.52531424148E-02  0.14052317713E-01  0.16025211997E-01  0.10219784498E+01  0.10217426688E+01 0.  0.
     999903    2    3    3    0    0 -0.84100138650E-01  0.20965504252E-01 -0.95759362946E-01  0.13039132997E+00  0.17878972272E-01 0.  0.
         14    1    1    2    0    0 -0.52531424148E-02 -0.14052317713E-01 -0.16025211997E-01  0.21951550239E-01  0.00000000000E+00 0. -1.
     999901    1    3    3    0    0  0.89353281065E-01 -0.69131865384E-02  0.11178457494E+00  0.89158711979E+00  0.88000000000E+00 0. -1.
        -11    1    4    4    0    0 -0.30903657044E-01  0.16642440831E-01 -0.39382194787E-01  0.52756281548E-01  0.51100000000E-03 0.  1.
         11    1    4    4    0    0 -0.53196481606E-01  0.43230634212E-02 -0.56377168159E-01  0.77635048420E-01  0.51100000000E-03 0. -1.
</event>
<event>
 8    1  0.1095698E+005  0.1043930E+01  0.7957747E-01            NaN
         13   -1    0    0    0    0  0.00000000000E+00  0.00000000000E+00  0.74505805969E-08  0.10566000000E+00  0.10566000000E+00 0. -1.
     999900   -1    0    0    0    0 -0.00000000000E+00 -0.00000000000E+00 -0.74505805969E-08  0.93827000000E+00  0.93827000000E+00 0.  1.
     999902    2    1    2    0    0 -0.67733300546E-02 -0.17991391256E-01  0.14250684372E-01  0.10199998900E+01  0.10197191405E+01 0.  0.
     999903    2    3    3    0    0 -0.11941279158E+00 -0.26269808619E-01 -0.43108884727E-01  0.13092941999E+00  0.18292606125E-01 0.  0.
         14    1    1    2    0    0  0.67733300546E-02  0.17991391256E-01 -0.14250684372E-01  0.23930109996E-01  0.00000000000E+00 0. -1.
     999901    1    3    3    0    0  0.11263946152E+00  0.82784173629E-02  0.57359569099E-01  0.88907047002E+00  0.88000000000E+00 0. -1.
        -11    1    4    4    0    0 -0.56907090110E-01 -0.21848446213E-01 -0.20623371361E-01  0.64353368785E-01  0.51100000000E-03 0.  1.
         11    1    4    4    0    0 -0.62505701468E-01 -0.44213624061E-02 -0.22485513366E-01  0.66576051204E-01  0.51100000000E-03 0. -1.
</event>
<event>
 8    1  0.1095698E+005  0.1043930E+01  0.7957747E-01            NaN
         13   -1    0    0    0    0  0.00000000000E+00  0.00000000000E+00  0.74505805969E-08  0.10566000000E+00  0.10566000000E+00 0. -1.
     999900   -1    0    0    0    0 -0.00000000000E+00 -0.00000000000E+00 -0.74505805969E-08  0.93827000000E+00  0.93827000000E+00 0. -1.
     999902    2    1    2    0    0  0.33629528088E-02 -0.16270641658E-01 -0.17345908828E-01  0.10199107622E+01  0.10196278924E+01 0.  0.
     999903    2    3    3    0    0  0.58984360019E-01  0.11050579527E+00  0.19470291891E-01  0.12832709336E+00  0.19951569068E-01 0.  0.
         14    1    1    2    0    0 -0.33629528088E-02  0.16270641658E-01  0.17345908828E-01  0.24019237803E-01  0.00000000000E+00 0. -1.
     999901    1    3    3    0    0 -0.55621407210E-01 -0.12677643693E+00 -0.36816200719E-01  0.89158366884E+00  0.88000000000E+00 0. -1.
        -11    1    4    4    0    0  0.34494528985E-01  0.66883863100E-01  0.18290742437E-02  0.75279016377E-01  0.51100000000E-03 0.  1.
         11    1    4    4    0    0  0.24489831033E-01  0.43621932173E-01  0.17641217647E-01  0.53048076984E-01  0.51100000000E-03 0. -1.
</event>
<event>
 8    1  0.1095698E+005  0.1043930E+01  0.7957747E-01            NaN
         13   -1    0    0    0    0  0.00000000000E+00  0.00000000000E+00  0.74505805969E-08  0.10566000000E+00  0.10566000000E+00 0.  1.
     999900   -1    0    0    0    0 -0.00000000000E+00 -0.00000000000E+00 -0.74505805969E-08  0.93827000000E+00  0.93827000000E+00 0. -1.
     999902    2    1    2    0    0 -0.11841359691E-01 -0.13945500043E-01  0.15244898477E-01  0.10201161028E+01  0.10198381055E+01 0.  0.
     999903    2    3    3    0    0 -0.11085115259E+00 -0.65689975401E-01  0.28252072772E-01  0.13295793403E+00  0.16627739016E-01 0.  0.
         14    1    1    2    0    0  0.11841359691E-01  0.13945500043E-01 -0.15244898477E-01  0.23813897211E-01  0.00000000000E+00 0. -1.
     999901    1    3    3    0    0  0.99009792903E-01  0.51744475358E-01 -0.13007174295E-01  0.88715816876E+00  0.88000000000E+00 0. -1.
        -11    1    4    4    0    0 -0.62665195704E-01 -0.28487584249E-01  0.11264847434E-01  0.69754047321E-01  0.51100000000E-03 0. -1.
         11    1    4    4    0    0 -0.48185956890E-01 -0.37202391153E-01  0.16987225338E-01  0.63203886704E-01  0.51100000000E-03 0.  1.
</event>
<event>
 8    1  0.1095698E+005  0.1043930E+01  0.7957747E-01            NaN
         13   -1    0    0    0    0  0.00000000000E+00  0.00000000000E+00  0.74505805969E-08  0.10566000000E+00  0.10566000000E+00 0. -1.
     999900   -1    0    0    0    0 -0.00000000000E+00 -0.00000000000E+00 -0.74505805969E-08  0.93827000000E+00  0.93827000000E+00 0.  1.
     999902    2    1    2    0    0 -0.21899132133E-01  0.25838982942E-02  0.94409720506E-02  0.10199429103E+01  0.10196608063E+01 0.  0.
     999903    2    3    3    0    0 -0.45078279229E-01  0.53680388547E-01 -0.10808530937E+00  0.13035842809E+00  0.19931138978E-01 0.  0.
         14    1    1    2    0    0  0.21899132133E-01 -0.25838982942E-02 -0.94409720506E-02  0.23987089691E-01  0.00000000000E+00 0.  1.
     999901    1    3    3    0    0  0.23179147096E-01 -0.51096490253E-01  0.11752628142E+00  0.88958448222E+00  0.88000000000E+00 0. -1.
        -11    1    4    4    0    0 -0.30065698738E-01  0.42160630532E-01 -0.63623773257E-01  0.82034813659E-01  0.51100000000E-03 0.  1.
         11    1    4    4    0    0 -0.15012580491E-01  0.11519758015E-01 -0.44461536110E-01  0.48323614434E-01  0.51100000000E-03 0. -1.
</event>
<event>
 8    1  0.1095698E+005  0.1043930E+01  0.7957747E-01            NaN
         13   -1    0    0    0    0  0.00000000000E+00  0.00000000000E+00  0.74505805969E-08  0.10566000000E+00  0.10566000000E+00 0. -1.
     999900   -1    0    0    0    0 -0.00000000000E+00 -0.00000000000E+00 -0.74505805969E-08  0.93827000000E+00  0.93827000000E+00 0.  1.
     999902    2    1    2    0    0 -0.22151308246E-01 -0.83423368150E-02  0.11699022667E-02  0.10202309766E+01  0.10199556862E+01 0.  0.
     999903    2    3    3    0    0 -0.74863859429E-01 -0.13659387139E-01 -0.10594331159E+00  0.13215433310E+00  0.21203919027E-01 0.  0.
         14    1    1    2    0    0  0.22151308246E-01  0.83423368150E-02 -0.11699022667E-02  0.23699023437E-01  0.00000000000E+00 0.  1.
     999901    1    3    3    0    0  0.52712551183E-01  0.53170503239E-02  0.10711321385E+00  0.88807664346E+00  0.88000000000E+00 0. -1.
        -11    1    4    4    0    0 -0.26866997573E-01 -0.15241802194E-01 -0.44387681821E-01  0.54080269149E-01  0.51100000000E-03 0.  1.
         11    1    4    4    0    0 -0.47996861856E-01  0.15824150551E-02 -0.61555629767E-01  0.78074063955E-01  0.51100000000E-03 0. -1.
</event>
<event>
 8    1  0.1095698E+005  0.1043930E+01  0.7957747E-01            NaN
         13   -1    0    0    0    0  0.00000000000E+00  0.00000000000E+00  0.74505805969E-08  0.10566000000E+00  0.10566000000E+00 0. -1.
     999900   -1    0    0    0    0 -0.00000000000E+00 -0.00000000000E+00 -0.74505805969E-08  0.93827000000E+00  0.93827000000E+00 0.  1.
     999902    2    1    2    0    0 -0.19193498852E-01 -0.13755283649E-01  0.82125900446E-03  0.10203022051E+01  0.10200285864E+01 0.  0.
     999903    2    3    3    0    0  0.12436433812E+00 -0.21509424506E-01  0.14368688546E-01  0.12853288956E+00  0.19623978914E-01 0.  0.
         14    1    1    2    0    0  0.19193498852E-01  0.13755283649E-01 -0.82125900446E-03  0.23627794920E-01  0.00000000000E+00 0. -1.
     999901    1    3    3    0    0 -0.14355783697E+00  0.77541408566E-02 -0.13547429542E-01  0.89176931552E+00  0.88000000000E+00 0. -1.
        -11    1    4    4    0    0  0.29521570194E-01  0.17621940312E-02  0.81342370690E-02  0.30676625763E-01  0.51100000000E-03 0.  1.
         11    1    4    4    0    0  0.94842767929E-01 -0.23271618537E-01  0.62344514774E-02  0.97856263796E-01  0.51100000000E-03 0. -1.
</event>
<event>
 8    1  0.1095698E+005  0.1043930E+01  0.7957747E-01            NaN
         13   -1    0    0    0    0  0.00000000000E+00  0.00000000000E+00  0.74505805969E-08  0.10566000000E+00  0.10566000000E+00 0. -1.
     999900   -1    0    0    0    0 -0.00000000000E+00 -0.00000000000E+00 -0.74505805969E-08  0.93827000000E+00  0.93827000000E+00 0. -1.
     999902    2    1    2    0    0 -0.23919695674E-02  0.15189312606E-02  0.22589966677E-01  0.10211630225E+01  0.10209091944E+01 0.  0.
     999903    2    3    3    0    0 -0.73375405910E-01 -0.64677093053E-02 -0.10457852563E+00  0.12915727133E+00  0.17864805024E-01 0.  0.
         14    1    1    2    0    0  0.23919695674E-02 -0.15189312606E-02 -0.22589966677E-01  0.22766977513E-01  0.00000000000E+00 0.  1.
     999901    1    3    3    0    0  0.70983436343E-01  0.79866405659E-02  0.12716849231E+00  0.89200575116E+00  0.88000000000E+00 0.  1.
        -11    1    4    4    0    0 -0.49133122856E-01 -0.42173412920E-03 -0.55811326916E-01  0.74359982211E-01  0.51100000000E-03 0. -1.
         11    1    4    4    0    0 -0.24242283054E-01 -0.60459751761E-02 -0.48767198713E-01  0.54797289119E-01  0.51100000000E-03 0.  1.
</event>
<event>
 8    1  0.1095698E+005  0.1043930E+01  0.7957747E-01            NaN
         13   -1    0    0    0    0  0.00000000000E+00  0.00000000000E+00  0.74505805969E-08  0.10566000000E+00  0.10566000000E+00 0.  1.
     999900   -1    0    0    0    0 -0.00000000000E+00 -0.00000000000E+00 -0.74505805969E-08  0.93827000000E+00  0.93827000000E+00 0.  1.
     999902    2    1    2    0    0 -0.20198014696E-01 -0.54175285390E-02 -0.11556445520E-01  0.10200373056E+01  0.10197574437E+01 0.  0.
     999903    2    3    3    0    0  0.66777145082E-01 -0.79849005347E-01 -0.75722882181E-01  0.13030585467E+00  0.20263516867E-01 0.  0.
         14    1    1    2    0    0  0.20198014696E-01  0.54175285390E-02  0.11556445520E-01  0.23892694411E-01  0.00000000000E+00 0.  1.
     999901    1    3    3    0    0 -0.86975159778E-01  0.74431476808E-01  0.64166436660E-01  0.88973145092E+00  0.88000000000E+00 0.  1.
        -11    1    4    4    0    0  0.14398585655E-01 -0.28140468843E-01 -0.30445080773E-01  0.43890424010E-01  0.51100000000E-03 0. -1.
         11    1    4    4    0    0  0.52378559427E-01 -0.51708536504E-01 -0.45277801408E-01  0.86415430661E-01  0.51100000000E-03 0.  1.
</event>
<event>
 8    1  0.1095698E+005  0.1043930E+01  0.7957747E-01            NaN
         13   -1    0    0    0    0  0.00000000000E+00  0.00000000000E+00  0.74505805969E-08  0.10566000000E+00  0.10566000000E+00 0.  1.
     999900   -1    0    0    0    0 -0.00000000000E+00 -0.00000000000E+00 -0.74505805969E-08  0.93827000000E+00  0.93827000000E+00 0. -1.
     999902    2    1    2    0    0  0.24169006222E-01 -0.35897967885E-02 -0.48591134122E-03  0.10194910227E+01  0.10191980581E+01 0.  0.
     999903    2    3    3    0    0 -0.79827912641E-02  0.12683865080E+00 -0.12490022807E-01  0.12921611193E+00  0.19723960546E-01 0.  0.
         14    1    1    2    0    0 -0.24169006222E-01  0.35897967885E-02  0.48591134122E-03  0.24438977322E-01  0.00000000000E+00 0. -1.
     999901    1    3    3    0    0  0.32151797486E-01 -0.13042844758E+00  0.12004111466E-01  0.89027491075E+00  0.88000000000E+00 0.  1.
        -11    1    4    4    0    0 -0.14498818231E-01  0.93829168894E-01 -0.10132584327E-01  0.95483292002E-01  0.51100000000E-03 0. -1.
         11    1    4    4    0    0  0.65160269667E-02  0.33009481902E-01 -0.23574384804E-02  0.33732819924E-01  0.51100000000E-03 0.  1.
</event>
<event>
 8    1  0.1095698E+005  0.1043930E+01  0.7957747E-01            NaN
         13   -1    0    0    0    0  0.00000000000E+00  0.00000000000E+00  0.74505805969E-08  0.10566000000E+00  0.10566000000E+00 0.  1.
     999900   -1    0    0    0    0 -0.00000000000E+00 -0.00000000000E+00 -0.74505805969E-08  0.93827000000E+00  0.93827000000E+00 0. -1.
     999902    2    1    2    0    0 -0.18686662811E-01 -0.20904320780E-01 -0.49723669334E-02  0.10154535812E+01  0.10150542198E+01 0.  0.
     999903    2    3    3    0    0  0.98118118742E-01  0.19413560359E-01 -0.70958513685E-01  0.12437386530E+00  0.20729113709E-01 0.  0.
         14    1    1    2    0    0  0.18686662811E-01  0.20904320780E-01  0.49723669334E-02  0.28476418792E-01  0.00000000000E+00 0.  1.
     999901    1    3    3    0    0 -0.11680478155E+00 -0.40317881138E-01  0.65986146751E-01  0.89107971590E+00  0.88000000000E+00 0.  1.
        -11    1    4    4    0    0  0.84391565556E-01  0.89663814497E-02 -0.59882630885E-01  0.10386781473E+00  0.51100000000E-03 0.  1.
         11    1    4    4    0    0  0.13726553185E-01  0.10447178909E-01 -0.11075882800E-01  0.20506050578E-01  0.51100000000E-03 0. -1.
</event>
<event>
 8    1  0.1095698E+005  0.1043930E+01  0.7957747E-01            NaN
         13   -1    0    0    0    0  0.00000000000E+00  0.00000000000E+00  0.74505805969E-08  0.10566000000E+00  0.10566000000E+00 0.  1.
     999900   -1    0    0    0    0 -0.00000000000E+00 -0.00000000000E+00 -0.74505805969E-08  0.93827000000E+00  0.93827000000E+00 0. -1.
     999902    2    1    2    0    0  0.22073712282E-01 -0.50853763831E-02  0.48847406434E-02  0.10207573757E+01  0.10204943162E+01 0.  0.
     999903    2    3    3    0    0  0.33839773774E-01  0.98672705780E-02 -0.12460274598E+00  0.13107820258E+00  0.20326277732E-01 0.  0.
         14    1    1    2    0    0 -0.22073712282E-01  0.50853763831E-02 -0.48847406434E-02  0.23172624323E-01  0.00000000000E+00 0. -1.
     999901    1    3    3    0    0 -0.11766061492E-01 -0.14952646961E-01  0.12948748663E+00  0.88967917310E+00  0.88000000000E+00 0.  1.
        -11    1    4    4    0    0  0.20921310687E-01  0.92322474659E-02 -0.10584138096E+00  0.10828478507E+00  0.51100000000E-03 0.  1.
         11    1    4    4    0    0  0.12918463088E-01  0.63502311211E-03 -0.18761365024E-01  0.22793417503E-01  0.51100000000E-03 0. -1.
</event>
<event>
 8    1  0.1095698E+005  0.1043930E+01  0.7957747E-01            NaN
         13   -1    0    0    0    0  0.00000000000E+00  0.00000000000E+00  0.74505805969E-08  0.10566000000E+00  0.10566000000E+00 0.  1.
     999900   -1    0    0    0    0 -0.00000000000E+00 -0.00000000000E+00 -0.74505805969E-08  0.93827000000E+00  0.93827000000E+00 0. -1.
     999902    2    1    2    0    0  0.17479600344E-01 -0.86883359041E-02 -0.13424263521E-01  0.10202396125E+01  0.10199645251E+01 0.  0.
     999903    2    3    3    0    0 -0.31987304504E-01  0.10883496159E+00 -0.59918816875E-01  0.12983496088E+00  0.19965368461E-01 0.  0.
         14    1    1    2    0    0 -0.17479600344E-01  0.86883359041E-02  0.13424263521E-01  0.23690387504E-01  0.00000000000E+00 0.  1.
     999901    1    3    3    0    0  0.49466904849E-01 -0.11752329749E+00  0.46494553354E-01  0.89040465162E+00  0.88000000000E+00 0.  1.
        -11    1    4    4    0    0 -0.19960550619E-01  0.66845159686E-01 -0.47581164835E-01  0.84444818210E-01  0.51100000000E-03 0. -1.
         11    1    4    4    0    0 -0.12026753886E-01  0.41989801901E-01 -0.12337652041E-01  0.45390142670E-01  0.51100000000E-03 0.  1.
</event>
<event>
 8    1  0.1095698E+005  0.1043930E+01  0.7957747E-01            NaN
         13   -1    0    0    0    0  0.00000000000E+00  0.00000000000E+00  0.74505805969E-08  0.10566000000E+00  0.10566000000E+00 0.  1.
     999900   -1    0    0    0    0 -0.00000000000E+00 -0.00000000000E+00 -0.74505805969E-08  0.93827000000E+00  0.93827000000E+00 0. -1.
     999902    2    1    2    0    0 -0.14813593156E-01  0.16809592736E-01  0.71199935454E-02  0.10204204433E+01  0.10201495879E+01 0.  0.
     999903    2    3    3    0    0 -0.66774134225E-01 -0.10779314570E+00 -0.19124348345E-01  0.12973839800E+00  0.19701876951E-01 0.  0.
         14    1    1    2    0    0  0.14813593156E-01 -0.16809592736E-01 -0.71199935454E-02  0.23509556742E-01  0.00000000000E+00 0.  1.
     999901    1    3    3    0    0  0.51960541069E-01  0.12460273844E+00  0.26244341891E-01  0.89068204525E+00  0.88000000000E+00 0.  1.
        -11    1    4    4    0    0 -0.42188389513E-01 -0.51293123682E-01 -0.14239753756E-01  0.67925521380E-01  0.51100000000E-03 0.  1.
         11    1    4    4    0    0 -0.24585744712E-01 -0.56500022020E-01 -0.48845945892E-02  0.61812876624E-01  0.51100000000E-03 0. -1.
</event>
<event>
 8    1  0.1095698E+005  0.1043930E+01  0.7957747E-01            NaN
         13   -1    0    0    0    0  0.00000000000E+00  0.00000000000E+00  0.74505805969E-08  0.10566000000E+00  0.10566000000E+00 0.  1.
     999900   -1    0    0    0    0 -0.00000000000E+00 -0.00000000000E+00 -0.74505805969E-08  0.93827000000E+00  0.93827000000E+00 0. -1.
     999902    2    1    2    0    0 -0.22565801785E-01 -0.44106133791E-02 -0.15527141701E-02  0.10208848304E+01  0.10206246896E+01 0.  0.
     999903    2    3    3    0    0 -0.10060359899E-02 -0.96291831963E-01  0.87076508670E-01  0.13141188479E+00  0.20338045412E-01 0.  0.
         14    1    1    2    0    0  0.22565801785E-01  0.44106133791E-02  0.15527141701E-02  0.23045169599E-01  0.00000000000E+00 0. -1.
     999901    1    3    3    0    0 -0.21559765795E-01  0.91881218584E-01 -0.88629222840E-01  0.88947294561E+00  0.88000000000E+00 0. -1.
        -11    1    4    4    0    0 -0.13362891113E-02 -0.62514569522E-01  0.43047876347E-01  0.75915992058E-01  0.51100000000E-03 0. -1.
         11    1    4    4    0    0  0.33025312140E-03 -0.33777262441E-01  0.44028632323E-01  0.55495892734E-01  0.51100000000E-03 0.  1.
</event>
<event>
 8    1  0.1912057E+005  0.1043930E+01  0.7957747E-01            NaN
         13   -1    0    0    0    0  0.00000000000E+00  0.00000000000E+00  0.74505805969E-08  0.10566000000E+00  0.10566000000E+00 0.  1.
     999900   -1    0    0    0    0 -0.00000000000E+00 -0.00000000000E+00 -0.74505805969E-08  0.93827000000E+00  0.93827000000E+00 0.  1.
     999902    2    1    2    0    0  0.98072319816E-02  0.30985224083E-02 -0.21533921886E-01  0.10200659594E+01  0.10197867763E+01 0.  0.
     999903    2    3    3    0    0  0.18084471428E-01 -0.85581077352E-01  0.92147640877E-01  0.12829464244E+00  0.17808948643E-01 0.  0.
         14    1    1    2    0    0 -0.98072319816E-02 -0.30985224083E-02  0.21533921886E-01  0.23864040564E-01  0.00000000000E+00 0.  1.
     999901    1    3    3    0    0 -0.82772394468E-02  0.88679599760E-01 -0.11368156276E+00  0.89177131700E+00  0.88000000000E+00 0.  1.
        -11    1    4    4    0    0 -0.42152513982E-03 -0.40441884723E-01  0.43427784528E-01  0.59346080860E-01  0.51100000000E-03 0. -1.
         11    1    4    4    0    0  0.18505996568E-01 -0.45139192629E-01  0.48719856349E-01  0.68948561580E-01  0.51100000000E-03 0.  1.
</event>
<event>
 8    1  0.1095698E+005  0.1043930E+01  0.7957747E-01            NaN
         13   -1    0    0    0    0  0.00000000000E+00  0.00000000000E+00  0.74505805969E-08  0.10566000000E+00  0.10566000000E+00 0.  1.
     999900   -1    0    0    0    0 -0.00000000000E+00 -0.00000000000E+00 -0.74505805969E-08  0.93827000000E+00  0.93827000000E+00 0. -1.
     999902    2    1    2    0    0  0.22968419024E-01  0.63813320394E-02 -0.93456482536E-03  0.10200732801E+01  0.10197942703E+01 0.  0.
     999903    2    3    3    0    0 -0.47723782885E-01  0.34866131246E-01 -0.11364006162E+00  0.12961761016E+00  0.19835692476E-01 0.  0.
         14    1    1    2    0    0 -0.22968419024E-01 -0.63813320394E-02  0.93456482536E-03  0.23856719860E-01  0.00000000000E+00 0.  1.
     999901    1    3    3    0    0  0.70692201909E-01 -0.28484799207E-01  0.11270549680E+00  0.89045566998E+00  0.88000000000E+00 0.  1.
        -11    1    4    4    0    0 -0.36532007056E-01  0.15181661264E-01 -0.76221647388E-01  0.85878233737E-01  0.51100000000E-03 0.  1.
         11    1    4    4    0    0 -0.11191775830E-01  0.19684469982E-01 -0.37418414236E-01  0.43739376420E-01  0.51100000000E-03 0. -1.
</event>
<event>
 8    1  0.1095698E+005  0.1043930E+01  0.7957747E-01            NaN
         13   -1    0    0    0    0  0.00000000000E+00  0.00000000000E+00  0.74505805969E-08  0.10566000000E+00  0.10566000000E+00 0.  1.
     999900   -1    0    0    0    0 -0.00000000000E+00 -0.00000000000E+00 -0.74505805969E-08  0.93827000000E+00  0.93827000000E+00 0.  1.
     999902    2    1    2    0    0  0.71125182547E-03 -0.11128058176E-01 -0.20580702827E-01  0.10205226318E+01  0.10202541532E+01 0.  0.
     999903    2    3    3    0    0  0.54066885593E-01 -0.11373666133E+00 -0.37178575737E-01  0.13280035625E+00  0.19860309102E-01 0.  0.
         14    1    1    2    0    0 -0.71125182547E-03  0.11128058176E-01  0.20580702827E-01  0.23407368215E-01  0.00000000000E+00 0.  1.
     999901    1    3    3    0    0 -0.53355633767E-01  0.10260860316E+00  0.16597872910E-01  0.88772227554E+00  0.88000000000E+00 0. -1.
        -11    1    4    4    0    0  0.20705772518E-01 -0.62540741793E-01 -0.25154781621E-01  0.70520192562E-01  0.51100000000E-03 0. -1.
         11    1    4    4    0    0  0.33361113075E-01 -0.51195919539E-01 -0.12023794116E-01  0.62280163688E-01  0.51100000000E-03 0.  1.
</event>
<event>
 8    1  0.1095698E+005  0.1043930E+01  0.7957747E-01            NaN
         13   -1    0    0    0    0  0.00000000000E+00  0.00000000000E+00  0.74505805969E-08  0.10566000000E+00  0.10566000000E+00 0. -1.
     999900   -1    0    0    0    0 -0.00000000000E+00 -0.00000000000E+00 -0.74505805969E-08  0.93827000000E+00  0.93827000000E+00 0.  1.
     999902    2    1    2    0    0  0.18395794916E-01  0.28705767850E-01  0.96331707947E-02  0.10085008544E+01  0.10078783404E+01 0.  0.
     999903    2    3    3    0    0 -0.93865384140E-01  0.38468727609E-01 -0.58171958000E-01  0.11872817377E+00  0.20538967968E-01 0.  0.
         14    1    1    2    0    0 -0.18395794916E-01 -0.28705767850E-01 -0.96331707947E-02  0.35429145601E-01  0.00000000000E+00 0. -1.
     999901    1    3    3    0    0  0.11226117906E+00 -0.97629597585E-02  0.67805128795E-01  0.88977268063E+00  0.88000000000E+00 0.  1.
        -11    1    4    4    0    0 -0.70036354360E-01  0.22647886468E-01 -0.33179681907E-01  0.80741377905E-01  0.51100000000E-03 0. -1.
         11    1    4    4    0    0 -0.23829029780E-01  0.15820841141E-01 -0.24992276093E-01  0.37986795863E-01  0.51100000000E-03 0.  1.
</event>
<event>
 8    1  0.1095698E+005  0.1043930E+01  0.7957747E-01            NaN
         13   -1    0    0    0    0  0.00000000000E+00  0.00000000000E+00  0.74505805969E-08  0.10566000000E+00  0.10566000000E+00 0.  1.
     999900   -1    0    0    0    0 -0.00000000000E+00 -0.00000000000E+00 -0.74505805969E-08  0.93827000000E+00  0.93827000000E+00 0.  1.
     999902    2    1    2    0    0  0.97930447305E-02 -0.20888974274E-01  0.40204110506E-02  0.10205117021E+01  0.10202429698E+01 0.  0.
     999903    2    3    3    0    0  0.52090525908E-01 -0.36836326843E-01 -0.11336813366E+00  0.13156656015E+00  0.19674556062E-01 0.  0.
         14    1    1    2    0    0 -0.97930447305E-02  0.20888974274E-01 -0.40204110506E-02  0.23418297895E-01  0.00000000000E+00 0. -1.
     999901    1    3    3    0    0 -0.42297481177E-01  0.15947352570E-01  0.11738854471E+00  0.88894514195E+00  0.88000000000E+00 0. -1.
        -11    1    4    4    0    0  0.93496782373E-02 -0.10962098135E-01 -0.42320532208E-01  0.44708753573E-01  0.51100000000E-03 0. -1.
         11    1    4    4    0    0  0.42740847670E-01 -0.25874228708E-01 -0.71047601454E-01  0.86857806581E-01  0.51100000000E-03 0.  1.
</event>
<event>
 8    1  0.1095698E+005  0.1043930E+01  0.7957747E-01            NaN
         13   -1    0    0    0    0  0.00000000000E+00  0.00000000000E+00  0.74505805969E-08  0.10566000000E+00  0.10566000000E+00 0.  1.
     999900   -1    0    0    0    0 -0.00000000000E+00 -0.00000000000E+00 -0.74505805969E-08  0.93827000000E+00  0.93827000000E+00 0. -1.
     999902    2    1    2    0    0  0.44230135905E-02 -0.72347427206E-02 -0.21208500405E-01  0.10210891366E+01  0.10208336397E+01 0.  0.
     999903    2    3    3    0    0 -0.45061819509E-01 -0.11921318535E+00  0.24397141116E-01  0.13144437892E+00  0.20977443038E-01 0.  0.
         14    1    1    2    0    0 -0.44230135905E-02  0.72347427206E-02  0.21208500405E-01  0.22840863400E-01  0.00000000000E+00 0.  1.
     999901    1    3    3    0    0  0.49484833100E-01  0.11197844263E+00 -0.45605641521E-01  0.88964475768E+00  0.88000000000E+00 0.  1.
        -11    1    4    4    0    0 -0.20949617234E-01 -0.83128789052E-01  0.14884194119E-01  0.87011966919E-01  0.51100000000E-03 0.  1.
         11    1    4    4    0    0 -0.24112202276E-01 -0.36084396302E-01  0.95129469977E-02  0.44432412005E-01  0.51100000000E-03 0. -1.
</event>
<event>
 8    1  0.1095698E+005  0.1043930E+01  0.7957747E-01            NaN
         13   -1    0    0    0    0  0.00000000000E+00  0.00000000000E+00  0.74505805969E-08  0.10566000000E+00  0.10566000000E+00 0. -1.
     999900   -1    0    0    0    0 -0.00000000000E+00 -0.00000000000E+00 -0.74505805969E-08  0.93827000000E+00  0.93827000000E+00 0. -1.
     999902    2    1    2    0    0  0.11007711065E-01  0.13905393816E-01  0.10527398256E-01  0.10233058444E+01  0.10230979891E+01 0.  0.
     999903    2    3    3    0    0  0.74837287158E-01  0.22125287314E-01 -0.10633801521E+00  0.13325005610E+00  0.18911797422E-01 0.  0.
         14    1    1    2    0    0 -0.11007711065E-01 -0.13905393816E-01 -0.10527398256E-01  0.20624155598E-01  0.00000000000E+00 0.  1.
     999901    1    3    3    0    0 -0.63829576093E-01 -0.82198934976E-02  0.11686541347E+00  0.89005578831E+00  0.88000000000E+00 0.  1.
        -11    1    4    4    0    0  0.42444604068E-01  0.15286939593E-01 -0.46048094154E-01  0.64466448892E-01  0.51100000000E-03 0. -1.
         11    1    4    4    0    0  0.32392683090E-01  0.68383477206E-02 -0.60289921061E-01  0.68783607203E-01  0.51100000000E-03 0.  1.
</event>
<event>
 8    1  0.1095698E+005  0.1043930E+01  0.7957747E-01            NaN
         13   -1    0    0    0    0  0.00000000000E+00  0.00000000000E+00  0.74505805969E-08  0.10566000000E+00  0.10566000000E+00 0.  1.
     999900   -1    0    0    0    0 -0.00000000000E+00 -0.00000000000E+00 -0.74505805969E-08  0.93827000000E+00  0.93827000000E+00 0. -1.
     999902    2    1    2    0    0 -0.18744540433E-01  0.86239844835E-02  0.12331852934E-01  0.10198924148E+01  0.10196091076E+01 0.  0.
     999903    2    3    3    0    0 -0.10202729871E+00  0.32916387875E-01 -0.73504253323E-01  0.13147023150E+00  0.19710105052E-01 0.  0.
         14    1    1    2    0    0  0.18744540433E-01 -0.86239844835E-02 -0.12331852934E-01  0.24037585178E-01  0.00000000000E+00 0. -1.
     999901    1    3    3    0    0  0.83282758273E-01 -0.24292403391E-01  0.85836106257E-01  0.88842218333E+00  0.88000000000E+00 0.  1.
        -11    1    4    4    0    0 -0.31784891861E-01  0.19934011585E-01 -0.23497166490E-01  0.44272137091E-01  0.51100000000E-03 0. -1.
         11    1    4    4    0    0 -0.70242406844E-01  0.12982376290E-01 -0.50007086833E-01  0.87198094405E-01  0.51100000000E-03 0.  1.
</event>
<event>
 8    1  0.1095698E+005  0.1043930E+01  0.7957747E-01            NaN
         13   -1    0    0    0    0  0.00000000000E+00  0.00000000000E+00  0.74505805969E-08  0.10566000000E+00  0.10566000000E+00 0.  1.
     999900   -1    0    0    0    0 -0.00000000000E+00 -0.00000000000E+00 -0.74505805969E-08  0.93827000000E+00  0.93827000000E+00 0.  1.
     999902    2    1    2    0    0 -0.21504299982E-01  0.11547099916E-02 -0.84288167532E-02  0.10208039708E+01  0.10205419803E+01 0.  0.
     999903    2    3    3    0    0  0.76916675721E-02  0.12532854782E+00  0.30538832481E-01  0.13075339688E+00  0.19935492371E-01 0.  0.
         14    1    1    2    0    0  0.21504299982E-01 -0.11547099916E-02  0.84288167532E-02  0.23126029161E-01  0.00000000000E+00 0. -1.
     999901    1    3    3    0    0 -0.29195967554E-01 -0.12417383783E+00 -0.38967649235E-01  0.89005057396E+00  0.88000000000E+00 0.  1.
        -11    1    4    4    0    0 -0.51396475637E-02  0.31255785095E-01  0.12786848127E-01  0.34162913884E-01  0.51100000000E-03 0.  1.
         11    1    4    4    0    0  0.12831315136E-01  0.94072762728E-01  0.17751984354E-01  0.96590482994E-01  0.51100000000E-03 0. -1.
</event>
<event>
 8    1  0.1095698E+005  0.1043930E+01  0.7957747E-01            NaN
         13   -1    0    0    0    0  0.00000000000E+00  0.00000000000E+00  0.74505805969E-08  0.10566000000E+00  0.10566000000E+00 0.  1.
     999900   -1    0    0    0    0 -0.00000000000E+00 -0.00000000000E+00 -0.74505805969E-08  0.93827000000E+00  0.93827000000E+00 0. -1.
     999902    2    1    2    0    0  0.86053564422E-03 -0.19449220973E-01 -0.12697203026E-01  0.10206871154E+01  0.10204224399E+01 0.  0.
     999903    2    3    3    0    0  0.36835813405E-01 -0.10778034908E+00  0.63990111954E-01  0.13221789645E+00  0.20331180922E-01 0.  0.
         14    1    1    2    0    0 -0.86053564422E-03  0.19449220973E-01  0.12697203026E-01  0.23242884562E-01  0.00000000000E+00 0.  1.
     999901    1    3    3    0    0 -0.35975277761E-01  0.88331128108E-01 -0.76687314980E-01  0.88846921898E+00  0.88000000000E+00 0. -1.
        -11    1    4    4    0    0  0.34433730956E-01 -0.76491711541E-01  0.41383614824E-01  0.93538914143E-01  0.51100000000E-03 0.  1.
         11    1    4    4    0    0  0.24020824490E-02 -0.31288637540E-01  0.22606497130E-01  0.38678982312E-01  0.51100000000E-03 0. -1.
</event>
<event>
 8    1  0.1095698E+005  0.1043930E+01  0.7957747E-01            NaN
         13   -1    0    0    0    0  0.00000000000E+00  0.00000000000E+00  0.74505805969E-08  0.10566000000E+00  0.10566000000E+00 0. -1.
     999900   -1    0    0    0    0 -0.00000000000E+00 -0.00000000000E+00 -0.74505805969E-08  0.93827000000E+00  0.93827000000E+00 0.  1.
     999902    2    1    2    0    0  0.14628291513E-01  0.18083644957E-01  0.70413424067E-02  0.10196280324E+01  0.10193383829E+01 0.  0.
     999903    2    3    3    0    0  0.12914306983E+00 -0.86034864356E-02 -0.13641086265E-01  0.13156632264E+00  0.19278629493E-01 0.  0.
         14    1    1    2    0    0 -0.14628291513E-01 -0.18083644957E-01 -0.70413424067E-02  0.24301967624E-01  0.00000000000E+00 0. -1.
     999901    1    3    3    0    0 -0.11451477832E+00  0.26687131392E-01  0.20682428672E-01  0.88806170973E+00  0.88000000000E+00 0. -1.
        -11    1    4    4    0    0  0.85442324487E-01 -0.34516713954E-02 -0.65417551063E-04  0.85513567635E-01  0.51100000000E-03 0.  1.
         11    1    4    4    0    0  0.43700745345E-01 -0.51518150402E-02 -0.13575668714E-01  0.46052755009E-01  0.51100000000E-03 0. -1.
</event>
<event>
 8    1  0.1095698E+005  0.1043930E+01  0.7957747E-01            NaN
         13   -1    0    0    0    0  0.00000000000E+00  0.00000000000E+00  0.74505805969E-08  0.10566000000E+00  0.10566000000E+00 0. -1.
     999900   -1    0    0    0    0 -0.00000000000E+00 -0.00000000000E+00 -0.74505805969E-08  0.93827000000E+00  0.93827000000E+00 0.  1.
     999902    2    1    2    0    0  0.18472001876E-01  0.15120443054E-01 -0.35470058925E-02  0.10197965398E+01  0.10195109409E+01 0.  0.
     999903    2    3    3    0    0 -0.76633140582E-01 -0.64676882321E-01 -0.73171745950E-01  0.12835938233E+00  0.32654085250E-01 0.  0.
         14    1    1    2    0    0 -0.18472001876E-01 -0.15120443054E-01  0.35470058925E-02  0.24133460221E-01  0.00000000000E+00 0.  1.
     999901    1    3    3    0    0  0.95105142457E-01  0.79797325376E-01  0.69624740058E-01  0.89143715745E+00  0.88000000000E+00 0. -1.
        -11    1    4    4    0    0  0.17935399950E-02 -0.55570876768E-02 -0.99727007028E-02  0.11567795359E-01  0.51100000000E-03 0. -1.
         11    1    4    4    0    0 -0.78426680577E-01 -0.59119794645E-01 -0.63199045247E-01  0.11679158697E+00  0.51100000000E-03 0.  1.
</event>
<event>
 8    1  0.1095698E+005  0.1043930E+01  0.7957747E-01            NaN
         13   -1    0    0    0    0  0.00000000000E+00  0.00000000000E+00  0.74505805969E-08  0.10566000000E+00  0.10566000000E+00 0. -1.
     999900   -1    0    0    0    0 -0.00000000000E+00 -0.00000000000E+00 -0.74505805969E-08  0.93827000000E+00  0.93827000000E+00 0.  1.
     999902    2    1    2    0    0  0.79668625424E-02 -0.14306350019E-01 -0.17733266358E-01  0.10197926579E+01  0.10195069660E+01 0.  0.
     999903    2    3    3    0    0  0.77805768447E-01 -0.10050836618E+00 -0.32414213767E-01  0.13270540703E+00  0.20109065750E-01 0.  0.
         14    1    1    2    0    0 -0.79668625424E-02  0.14306350019E-01  0.17733266358E-01  0.24137342136E-01  0.00000000000E+00 0. -1.
     999901    1    3    3    0    0 -0.69838905905E-01  0.86202016164E-01  0.14680947409E-01  0.88708725083E+00  0.88000000000E+00 0. -1.
        -11    1    4    4    0    0  0.65605091540E-01 -0.81224324497E-01 -0.34046487524E-01  0.10982187104E+00  0.51100000000E-03 0. -1.
         11    1    4    4    0    0  0.12200676907E-01 -0.19284041686E-01  0.16322737570E-02  0.22883535989E-01  0.51100000000E-03 0.  1.
</event>
<event>
 8    1  0.1095698E+005  0.1043930E+01  0.7957747E-01            NaN
         13   -1    0    0    0    0  0.00000000000E+00  0.00000000000E+00  0.74505805969E-08  0.10566000000E+00  0.10566000000E+00 0.  1.
     999900   -1    0    0    0    0 -0.00000000000E+00 -0.00000000000E+00 -0.74505805969E-08  0.93827000000E+00  0.93827000000E+00 0. -1.
     999902    2    1    2    0    0  0.11992581022E-01  0.17195310775E-01 -0.10735046952E-01  0.10203770396E+01  0.10201051715E+01 0.  0.
     999903    2    3    3    0    0  0.73665462324E-01  0.12574750710E-01 -0.10793991697E+00  0.13286721955E+00  0.20443768257E-01 0.  0.
         14    1    1    2    0    0 -0.11992581022E-01 -0.17195310775E-01  0.10735046952E-01  0.23552960436E-01  0.00000000000E+00 0.  1.
     999901    1    3    3    0    0 -0.61672881301E-01  0.46205600648E-02  0.97204870021E-01  0.88750982001E+00  0.88000000000E+00 0. -1.
        -11    1    4    4    0    0  0.29121737872E-01  0.13894346428E-01 -0.53889996817E-01  0.62813385176E-01  0.51100000000E-03 0. -1.
         11    1    4    4    0    0  0.44543724451E-01 -0.13195957176E-02 -0.54049920155E-01  0.70053834375E-01  0.51100000000E-03 0.  1.
</event>
<event>
 8    1  0.1095698E+005  0.1043930E+01  0.7957747E-01            NaN
         13   -1    0    0    0    0  0.00000000000E+00  0.00000000000E+00  0.74505805969E-08  0.10566000000E+00  0.10566000000E+00 0. -1.
     999900   -1    0    0    0    0 -0.00000000000E+00 -0.00000000000E+00 -0.74505805969E-08  0.93827000000E+00  0.93827000000E+00 0. -1.
     999902    2    1    2    0    0 -0.19864223875E-01 -0.63409612150E-05  0.12426046544E-01  0.10204993777E+01  0.10202303592E+01 0.  0.
     999903    2    3    3    0    0 -0.10066427700E+00 -0.75002405565E-01  0.40101476011E-01  0.13318940494E+00  0.19303670828E-01 0.  0.
         14    1    1    2    0    0  0.19864223875E-01  0.63409612150E-05 -0.12426046544E-01  0.23430622336E-01  0.00000000000E+00 0.  1.
     999901    1    3    3    0    0  0.80800053122E-01  0.74996064603E-01 -0.27675429468E-01  0.88730997272E+00  0.88000000000E+00 0. -1.
        -11    1    4    4    0    0 -0.56266276589E-01 -0.33540205560E-01  0.13563514606E-01  0.66895958919E-01  0.51100000000E-03 0. -1.
         11    1    4    4    0    0 -0.44398000408E-01 -0.41462200004E-01  0.26537961405E-01  0.66293446026E-01  0.51100000000E-03 0.  1.
</event>
<event>
 8    1  0.1095698E+005  0.1043930E+01  0.7957747E-01            NaN
         13   -1    0    0    0    0  0.00000000000E+00  0.00000000000E+00  0.74505805969E-08  0.10566000000E+00  0.10566000000E+00 0.  1.
     999900   -1    0    0    0    0 -0.00000000000E+00 -0.00000000000E+00 -0.74505805969E-08  0.93827000000E+00  0.93827000000E+00 0. -1.
     999902    2    1    2    0    0 -0.17016020800E-01  0.89453988288E-02  0.15517627528E-01  0.10192244968E+01  0.10189250282E+01 0.  0.
     999903    2    3    3    0    0  0.56214458513E-01  0.10769407019E+00  0.42456826830E-01  0.13027021021E+00  0.20240242702E-01 0.  0.
         14    1    1    2    0    0  0.17016020800E-01 -0.89453988288E-02 -0.15517627528E-01  0.24705503196E-01  0.00000000000E+00 0. -1.
     999901    1    3    3    0    0 -0.73230479313E-01 -0.98748671356E-01 -0.26939199302E-01  0.88895428659E+00  0.88000000000E+00 0. -1.
        -11    1    4    4    0    0  0.12906722686E-01  0.45928172270E-01  0.15651977643E-01  0.50211811595E-01  0.51100000000E-03 0.  1.
         11    1    4    4    0    0  0.43307735827E-01  0.61765897915E-01  0.26804849187E-01  0.80058398614E-01  0.51100000000E-03 0. -1.
</event>
<event>
 8    1  0.1262020E+005  0.1043930E+01  0.7957747E-01            NaN
         13   -1    0    0    0    0  0.00000000000E+00  0.00000000000E+00  0.74505805969E-08  0.10566000000E+00  0.10566000000E+00 0. -1.
     999900   -1    0    0    0    0 -0.00000000000E+00 -0.00000000000E+00 -0.74505805969E-08  0.93827000000E+00  0.93827000000E+00 0. -1.
     999902    2    1    2    0    0  0.22052135651E-01  0.94431862936E-02  0.51055941322E-02  0.10194037376E+01  0.10191086511E+01 0.  0.
     999903    2    3    3    0    0  0.12361315566E+00 -0.41244538606E-01 -0.81527183292E-02  0.13201449436E+00  0.19494504041E-01 0.  0.
         14    1    1    2    0    0 -0.22052135651E-01 -0.94431862936E-02 -0.51055941322E-02  0.24526262364E-01  0.00000000000E+00 0. -1.
     999901    1    3    3    0    0 -0.10156102001E+00  0.50687724900E-01  0.13258312461E-01  0.88738924328E+00  0.88000000000E+00 0.  1.
        -11    1    4    4    0    0  0.85882833211E-01 -0.20075278959E-01 -0.13012058819E-02  0.88209025181E-01  0.51100000000E-03 0. -1.
         11    1    4    4    0    0  0.37730322445E-01 -0.21169259647E-01 -0.68515124473E-02  0.43805469174E-01  0.51100000000E-03 0.  1.
</event>
<event>
 8    1  0.1095698E+005  0.1043930E+01  0.7957747E-01            NaN
         13   -1    0    0    0    0  0.00000000000E+00  0.00000000000E+00  0.74505805969E-08  0.10566000000E+00  0.10566000000E+00 0.  1.
     999900   -1    0    0    0    0 -0.00000000000E+00 -0.00000000000E+00 -0.74505805969E-08  0.93827000000E+00  0.93827000000E+00 0.  1.
     999902    2    1    2    0    0  0.20253541033E-01 -0.29127885275E-02 -0.12401546807E-01  0.10200032655E+01  0.10197225961E+01 0.  0.
     999903    2    3    3    0    0  0.66346752802E-02  0.13464492627E-01 -0.12974522031E+00  0.13195865706E+00  0.18813652026E-01 0.  0.
         14    1    1    2    0    0 -0.20253541033E-01  0.29127885275E-02  0.12401546807E-01  0.23926734515E-01  0.00000000000E+00 0.  1.
     999901    1    3    3    0    0  0.13618865752E-01 -0.16377281155E-01  0.11734367350E+00  0.88804460843E+00  0.88000000000E+00 0. -1.
        -11    1    4    4    0    0 -0.63431484158E-03 -0.18629758612E-02 -0.64821034025E-01  0.64852915181E-01  0.51100000000E-03 0.  1.
         11    1    4    4    0    0  0.72689901218E-02  0.15327468489E-01 -0.64924186283E-01  0.67105741879E-01  0.51100000000E-03 0. -1.
</event>
<event>
 8    1  0.1095698E+005  0.1043930E+01  0.7957747E-01            NaN
         13   -1    0    0    0    0  0.00000000000E+00  0.00000000000E+00  0.74505805969E-08  0.10566000000E+00  0.10566000000E+00 0.  1.
     999900   -1    0    0    0    0 -0.00000000000E+00 -0.00000000000E+00 -0.74505805969E-08  0.93827000000E+00  0.93827000000E+00 0. -1.
     999902    2    1    2    0    0 -0.10144706482E-02 -0.39924865448E-02 -0.22127846353E-01  0.10214219862E+01  0.10211739633E+01 0.  0.
     999903    2    3    3    0    0  0.69861840890E-01 -0.63633306796E-01 -0.92261671209E-01  0.13378510531E+00  0.21362675004E-01 0.  0.
         14    1    1    2    0    0  0.10144706482E-02  0.39924865448E-02  0.22127846353E-01  0.22508013767E-01  0.00000000000E+00 0.  1.
     999901    1    3    3    0    0 -0.70876311539E-01  0.59640820251E-01  0.70133824856E-01  0.88763688092E+00  0.88000000000E+00 0.  1.
        -11    1    4    4    0    0  0.39537678074E-01 -0.49478651467E-01 -0.57817261477E-01  0.85758158704E-01  0.51100000000E-03 0.  1.
         11    1    4    4    0    0  0.30324162817E-01 -0.14154655329E-01 -0.34444409731E-01  0.48026946611E-01  0.51100000000E-03 0. -1.
</event>
<event>
 8    1  0.1095698E+005  0.1043930E+01  0.7957747E-01            NaN
         13   -1    0    0    0    0  0.00000000000E+00  0.00000000000E+00  0.74505805969E-08  0.10566000000E+00  0.10566000000E+00 0. -1.
     999900   -1    0    0    0    0 -0.00000000000E+00 -0.00000000000E+00 -0.74505805969E-08  0.93827000000E+00  0.93827000000E+00 0. -1.
     999902    2    1    2    0    0  0.61536691586E-02 -0.68661119843E-02 -0.19974542431E-01  0.10219301481E+01  0.10216933171E+01 0.  0.
     999903    2    3    3    0    0 -0.12620432019E-01 -0.83112913435E-01  0.97823653715E-01  0.13061513274E+00  0.20586743080E-01 0.  0.
         14    1    1    2    0    0 -0.61536691586E-02  0.68661119843E-02  0.19974542431E-01  0.21999851891E-01  0.00000000000E+00 0. -1.
     999901    1    3    3    0    0  0.18774101178E-01  0.76246801451E-01 -0.11779819615E+00  0.89131501537E+00  0.88000000000E+00 0. -1.
        -11    1    4    4    0    0  0.48745027235E-02 -0.14654260785E-01  0.22916660082E-01  0.27639510963E-01  0.51100000000E-03 0. -1.
         11    1    4    4    0    0 -0.17494934743E-01 -0.68458652651E-01  0.74906993632E-01  0.10297562178E+00  0.51100000000E-03 0.  1.
</event>
<event>
 8    1  0.1095698E+005  0.1043930E+01  0.7957747E-01            NaN
         13   -1    0    0    0    0  0.00000000000E+00  0.00000000000E+00  0.74505805969E-08  0.10566000000E+00  0.10566000000E+00 0.  1.
     999900   -1    0    0    0    0 -0.00000000000E+00 -0.00000000000E+00 -0.74505805969E-08  0.93827000000E+00  0.93827000000E+00 0.  1.
     999902    2    1    2    0    0 -0.22401605050E-02  0.16570369618E-01  0.16464695670E-01  0.10204633924E+01  0.10201935373E+01 0.  0.
     999903    2    3    3    0    0 -0.22857255951E-01 -0.66348052636E-03 -0.12502950005E+00  0.12875566135E+00  0.20560887395E-01 0.  0.
         14    1    1    2    0    0  0.22401605050E-02 -0.16570369618E-01 -0.16464695670E-01  0.23466607592E-01  0.00000000000E+00 0. -1.
     999901    1    3    3    0    0  0.20617095446E-01  0.17233850145E-01  0.14149419572E+00  0.89170773106E+00  0.88000000000E+00 0. -1.
        -11    1    4    4    0    0 -0.94553886828E-02  0.61909601113E-02 -0.88833386409E-01  0.89550901861E-01  0.51100000000E-03 0.  1.
         11    1    4    4    0    0 -0.13401867268E-01 -0.68544406377E-02 -0.36196113638E-01  0.39204759485E-01  0.51100000000E-03 0. -1.
</event>
<event>
 8    1  0.1095698E+005  0.1043930E+01  0.7957747E-01            NaN
         13   -1    0    0    0    0  0.00000000000E+00  0.00000000000E+00  0.74505805969E-08  0.10566000000E+00  0.10566000000E+00 0. -1.
     999900   -1    0    0    0    0 -0.00000000000E+00 -0.00000000000E+00 -0.74505805969E-08  0.93827000000E+00  0.93827000000E+00 0. -1.
     999902    2    1    2    0    0  0.13903281112E-02  0.18562765445E-01 -0.18109128836E-01  0.10179598283E+01  0.10176284991E+01 0.  0.
     999903    2    3    3    0    0  0.11795018512E+00  0.47927775330E-01 -0.16038293898E-01  0.12978597566E+00  0.19438487371E-01 0.  0.
         14    1    1    2    0    0 -0.13903281112E-02 -0.18562765445E-01  0.18109128836E-01  0.25970171744E-01  0.00000000000E+00 0. -1.
     999901    1    3    3    0    0 -0.11655985700E+00 -0.29365009885E-01 -0.20708349379E-02  0.88817385259E+00  0.88000000000E+00 0.  1.
        -11    1    4    4    0    0  0.27229491563E-01  0.16630943484E-01 -0.10745675772E-01  0.33671414594E-01  0.51100000000E-03 0.  1.
         11    1    4    4    0    0  0.90720693553E-01  0.31296831845E-01 -0.52926181258E-02  0.96114561071E-01  0.51100000000E-03 0. -1.
</event>
<event>
 8    1  0.1095698E+005  0.1043930E+01  0.7957747E-01            NaN
         13   -1    0    0    0    0  0.00000000000E+00  0.00000000000E+00  0.74505805969E-08  0.10566000000E+00  0.10566000000E+00 0.  1.
     999900   -1    0    0    0    0 -0.00000000000E+00 -0.00000000000E+00 -0.74505805969E-08  0.93827000000E+00  0.93827000000E+00 0. -1.
     999902    2    1    2    0    0  0.14552784183E-01  0.60280817749E-02 -0.17265154484E-01  0.10205589312E+01  0.10202912943E+01 0.  0.
     999903    2    3    3    0    0 -0.53170247018E-02  0.39171352440E-02 -0.13123753077E+00  0.13298416367E+00  0.20442201601E-01 0.  0.
         14    1    1    2    0    0 -0.14552784183E-01 -0.60280817749E-02  0.17265154484E-01  0.23371068797E-01  0.00000000000E+00 0.  1.
     999901    1    3    3    0    0  0.19869808884E-01  0.21109465309E-02  0.11397237628E+00  0.88757476753E+00  0.88000000000E+00 0.  1.
        -11    1    4    4    0    0 -0.31698419445E-02  0.11849887484E-01 -0.96824098042E-01  0.97599358676E-01  0.51100000000E-03 0.  1.
         11    1    4    4    0    0 -0.21471827573E-02 -0.79327522397E-02 -0.34413432723E-01  0.35384804997E-01  0.51100000000E-03 0. -1.
</event>
<event>
 8    1  0.1095698E+005  0.1043930E+01  0.7957747E-01            NaN
         13   -1    0    0    0    0  0.00000000000E+00  0.00000000000E+00  0.74505805969E-08  0.10566000000E+00  0.10566000000E+00 0. -1.
     999900   -1    0    0    0    0 -0.00000000000E+00 -0.00000000000E+00 -0.74505805969E-08  0.93827000000E+00  0.93827000000E+00 0.  1.
     999902    2    1    2    0    0 -0.70978876666E-02 -0.54984362041E-02  0.22057461013E-01  0.10201152064E+01  0.10198371879E+01 0.  0.
     999903    2    3    3    0    0 -0.10394071780E+00  0.21137409377E-01 -0.71405758734E-01  0.12948432015E+00  0.20419204000E-01 0.  0.
         14    1    1    2    0    0  0.70978876666E-02  0.54984362041E-02 -0.22057461013E-01  0.23814793645E-01  0.00000000000E+00 0.  1.
     999901    1    3    3    0    0  0.96842830135E-01 -0.26635845581E-01  0.93463219747E-01  0.89063088621E+00  0.88000000000E+00 0. -1.
        -11    1    4    4    0    0 -0.52003874927E-01  0.14859182246E-01 -0.47417043012E-01  0.71929377820E-01  0.51100000000E-03 0.  1.
         11    1    4    4    0    0 -0.51936842874E-01  0.62782271311E-02 -0.23988715722E-01  0.57554942330E-01  0.51100000000E-03 0. -1.
</event>
<event>
 8    1  0.1095698E+005  0.1043930E+01  0.7957747E-01            NaN
         13   -1    0    0    0    0  0.00000000000E+00  0.00000000000E+00  0.74505805969E-08  0.10566000000E+00  0.10566000000E+00 0.  1.
     999900   -1    0    0    0    0 -0.00000000000E+00 -0.00000000000E+00 -0.74505805969E-08  0.93827000000E+00  0.93827000000E+00 0. -1.
     999902    2    1    2    0    0 -0.13259141289E-01  0.13469481529E-01  0.13793455670E-01  0.10205314706E+01  0.10202631970E+01 0.  0.
     999903    2    3    3    0    0  0.36955976167E-01  0.66136421624E-01  0.10595267199E+00  0.13273155744E+00  0.25532865067E-01 0.  0.
         14    1    1    2    0    0  0.13259141289E-01 -0.13469481529E-01 -0.13793455670E-01  0.23398529434E-01  0.00000000000E+00 0. -1.
     999901    1    3    3    0    0 -0.50215117455E-01 -0.52666940094E-01 -0.92159216318E-01  0.88779991313E+00  0.88000000000E+00 0. -1.
        -11    1    4    4    0    0  0.29769649896E-01  0.55438587728E-01  0.10082672148E+00  0.11885267330E+00  0.51100000000E-03 0.  1.
         11    1    4    4    0    0  0.71863262710E-02  0.10697833896E-01  0.51259505047E-02  0.13878884138E-01  0.51100000000E-03 0. -1.
</event>
<event>
 8    1  0.1095698E+005  0.1043930E+01  0.7957747E-01            NaN
         13   -1    0    0    0    0  0.00000000000E+00  0.00000000000E+00  0.74505805969E-08  0.10566000000E+00  0.10566000000E+00 0. -1.
     999900   -1    0    0    0    0 -0.00000000000E+00 -0.00000000000E+00 -0.74505805969E-08  0.93827000000E+00  0.93827000000E+00 0. -1.
     999902    2    1    2    0    0  0.11715305204E-01  0.52907061475E-02  0.19834736309E-01  0.10202940800E+01  0.10200202709E+01 0.  0.
     999903    2    3    3    0    0  0.12960300282E-01 -0.12022216198E+00 -0.41398427781E-01  0.12928087562E+00  0.19451924452E-01 0.  0.
         14    1    1    2    0    0 -0.11715305204E-01 -0.52907061475E-02 -0.19834736309E-01  0.23635919952E-01  0.00000000000E+00 0.  1.
     999901    1    3    3    0    0 -0.12449950780E-02  0.12551286812E+00  0.61233164090E-01  0.89101320443E+00  0.88000000000E+00 0.  1.
        -11    1    4    4    0    0  0.26095888689E-02 -0.95099967548E-01 -0.34921660858E-01  0.10134395542E+00  0.51100000000E-03 0.  1.
         11    1    4    4    0    0  0.10350711413E-01 -0.25122194429E-01 -0.64767669238E-02  0.27936920204E-01  0.51100000000E-03 0. -1.
</event>
<event>
 8    1  0.1095698E+005  0.1043930E+01  0.7957747E-01            NaN
         13   -1    0    0    0    0  0.00000000000E+00  0.00000000000E+00  0.74505805969E-08  0.10566000000E+00  0.10566000000E+00 0. -1.
     999900   -1    0    0    0    0 -0.00000000000E+00 -0.00000000000E+00 -0.74505805969E-08  0.93827000000E+00  0.93827000000E+00 0. -1.
     999902    2    1    2    0    0 -0.23647029011E-01  0.78898239808E-03  0.67955856002E-02  0.10193132484E+01  0.10190159537E+01 0.  0.
     999903    2    3    3    0    0  0.30815040764E-01  0.12060582857E+00  0.28201643536E-01  0.12926807374E+00  0.20483397376E-01 0.  0.
         14    1    1    2    0    0  0.23647029011E-01 -0.78898239808E-03 -0.67955856002E-02  0.24616751571E-01  0.00000000000E+00 0.  1.
     999901    1    3    3    0    0 -0.54462069775E-01 -0.11981684617E+00 -0.21406057936E-01  0.89004517469E+00  0.88000000000E+00 0.  1.
        -11    1    4    4    0    0  0.14858640285E-01  0.49607870947E-01  0.16802236519E-02  0.51815097448E-01  0.51100000000E-03 0.  1.
         11    1    4    4    0    0  0.15956400479E-01  0.70997957623E-01  0.26521419884E-01  0.77452976292E-01  0.51100000000E-03 0. -1.
</event>
<event>
 8    1  0.1547873E+005  0.1043930E+01  0.7957747E-01            NaN
         13   -1    0    0    0    0  0.00000000000E+00  0.00000000000E+00  0.74505805969E-08  0.10566000000E+00  0.10566000000E+00 0.  1.
     999900   -1    0    0    0    0 -0.00000000000E+00 -0.00000000000E+00 -0.74505805969E-08  0.93827000000E+00  0.93827000000E+00 0.  1.
     999902    2    1    2    0    0  0.91456027350E-02  0.24364468492E-01  0.53230261581E-02  0.10173667927E+01  0.10170199540E+01 0.  0.
     999903    2    3    3    0    0 -0.77755517439E-01 -0.87514168543E-01 -0.40011771166E-01  0.12488492849E+00  0.17048558389E-01 0.  0.
         14    1    1    2    0    0 -0.91456027350E-02 -0.24364468492E-01 -0.53230261581E-02  0.26563207294E-01  0.00000000000E+00 0.  1.
     999901    1    3    3    0    0  0.86901120174E-01  0.11187863703E+00  0.45334797324E-01  0.89248186422E+00  0.88000000000E+00 0. -1.
        -11    1    4    4    0    0 -0.33164959129E-01 -0.49960403083E-01 -0.21773690083E-01  0.63798989734E-01  0.51100000000E-03 0.  1.
         11    1    4    4    0    0 -0.44590558310E-01 -0.37553765460E-01 -0.18238081083E-01  0.61085938752E-01  0.51100000000E-03 0. -1.
</event>
<event>
 8    1  0.1095698E+005  0.1043930E+01  0.7957747E-01            NaN
         13   -1    0    0    0    0  0.00000000000E+00  0.00000000000E+00  0.74505805969E-08  0.10566000000E+00  0.10566000000E+00 0.  1.
     999900   -1    0    0    0    0 -0.00000000000E+00 -0.00000000000E+00 -0.74505805969E-08  0.93827000000E+00  0.93827000000E+00 0.  1.
     999902    2    1    2    0    0  0.10276323595E-02 -0.42996567439E-03 -0.24439740284E-01  0.10194648860E+01  0.10191712869E+01 0.  0.
     999903    2    3    3    0    0 -0.91584930524E-02 -0.12686158239E+00 -0.20357179033E-01  0.13036119228E+00  0.20047110334E-01 0.  0.
         14    1    1    2    0    0 -0.10276323595E-02  0.42996567439E-03  0.24439740284E-01  0.24465114018E-01  0.00000000000E+00 0.  1.
     999901    1    3    3    0    0  0.10186125412E-01  0.12643161671E+00 -0.40825612515E-02  0.88910369371E+00  0.88000000000E+00 0. -1.
        -11    1    4    4    0    0  0.21493029524E-02 -0.69706560828E-01 -0.18101594175E-01  0.72052432008E-01  0.51100000000E-03 0.  1.
         11    1    4    4    0    0 -0.11307796005E-01 -0.57155021559E-01 -0.22555848576E-02  0.58308760268E-01  0.51100000000E-03 0. -1.
</event>
<event>
 8    1  0.1095698E+005  0.1043930E+01  0.7957747E-01            NaN
         13   -1    0    0    0    0  0.00000000000E+00  0.00000000000E+00  0.74505805969E-08  0.10566000000E+00  0.10566000000E+00 0. -1.
     999900   -1    0    0    0    0 -0.00000000000E+00 -0.00000000000E+00 -0.74505805969E-08  0.93827000000E+00  0.93827000000E+00 0. -1.
     999902    2    1    2    0    0 -0.91543322878E-02  0.13938939424E-01  0.15945804839E-01  0.10208569741E+01  0.10205961969E+01 0.  0.
     999903    2    3    3    0    0  0.53857032899E-01 -0.11248259693E+00  0.28656042059E-01  0.12950160888E+00  0.19914400597E-01 0.  0.
         14    1    1    2    0    0  0.91543322878E-02 -0.13938939424E-01 -0.15945804839E-01  0.23073025893E-01  0.00000000000E+00 0.  1.
     999901    1    3    3    0    0 -0.63011365187E-01  0.12642153635E+00 -0.12710237219E-01  0.89135536523E+00  0.88000000000E+00 0. -1.
        -11    1    4    4    0    0  0.31352573419E-01 -0.71807738784E-01  0.27361116279E-01  0.82995343329E-01  0.51100000000E-03 0.  1.
         11    1    4    4    0    0  0.22504459480E-01 -0.40674858142E-01  0.12949257795E-02  0.46506265546E-01  0.51100000000E-03 0. -1.
</event>
<event>
 8    1  0.1095698E+005  0.1043930E+01  0.7957747E-01            NaN
         13   -1    0    0    0    0  0.00000000000E+00  0.00000000000E+00  0.74505805969E-08  0.10566000000E+00  0.10566000000E+00 0. -1.
     999900   -1    0    0    0    0 -0.00000000000E+00 -0.00000000000E+00 -0.74505805969E-08  0.93827000000E+00  0.93827000000E+00 0. -1.
     999902    2    1    2    0    0  0.20745373203E-01 -0.12381930287E-01 -0.21153975886E-02  0.10196780390E+01  0.10193895946E+01 0.  0.
     999903    2    3    3    0    0  0.88838433787E-01 -0.93256394195E-01 -0.26890838520E-01  0.13300382242E+00  0.19439063936E-01 0.  0.
         14    1    1    2    0    0 -0.20745373203E-01  0.12381930287E-01  0.21153975886E-02  0.24251961033E-01  0.00000000000E+00 0.  1.
     999901    1    3    3    0    0 -0.68093060584E-01  0.80874463908E-01  0.24775440931E-01  0.88667421654E+00  0.88000000000E+00 0. -1.
        -11    1    4    4    0    0  0.63847477640E-01 -0.54396568326E-01 -0.20606701115E-01  0.86373516187E-01  0.51100000000E-03 0. -1.
         11    1    4    4    0    0  0.24990956147E-01 -0.38859825869E-01 -0.62841374042E-02  0.46630306235E-01  0.51100000000E-03 0.  1.
</event>
<event>
 8    1  0.1095698E+005  0.1043930E+01  0.7957747E-01            NaN
         13   -1    0    0    0    0  0.00000000000E+00  0.00000000000E+00  0.74505805969E-08  0.10566000000E+00  0.10566000000E+00 0. -1.
     999900   -1    0    0    0    0 -0.00000000000E+00 -0.00000000000E+00 -0.74505805969E-08  0.93827000000E+00  0.93827000000E+00 0. -1.
     999902    2    1    2    0    0 -0.12314314964E-01 -0.24022009685E-01 -0.25184654873E-02  0.10168183425E+01  0.10164568361E+01 0.  0.
     999903    2    3    3    0    0  0.13517962076E-02  0.65774445883E-01 -0.10614117827E+00  0.12609513489E+00  0.17490804251E-01 0.  0.
         14    1    1    2    0    0  0.12314314964E-01  0.24022009685E-01  0.25184654873E-02  0.27111657470E-01  0.00000000000E+00 0. -1.
     999901    1    3    3    0    0 -0.13666111172E-01 -0.89796455568E-01  0.10362271278E+00  0.89072320764E+00  0.88000000000E+00 0. -1.
        -11    1    4    4    0    0  0.17136378862E-02  0.44811486435E-01 -0.86135653677E-01  0.97111368164E-01  0.51100000000E-03 0. -1.
         11    1    4    4    0    0 -0.36184167858E-03  0.20962959448E-01 -0.20005524595E-01  0.28983766724E-01  0.51100000000E-03 0.  1.
</event>
<event>
 8    1  0.1095698E+005  0.1043930E+01  0.7957747E-01            NaN
         13   -1    0    0    0    0  0.00000000000E+00  0.00000000000E+00  0.74505805969E-08  0.10566000000E+00  0.10566000000E+00 0.  1.
     999900   -1    0    0    0    0 -0.00000000000E+00 -0.00000000000E+00 -0.74505805969E-08  0.93827000000E+00  0.93827000000E+00 0. -1.
     999902    2    1    2    0    0  0.16310732878E-01 -0.65752064095E-02 -0.11304983406E-01  0.10230236374E+01  0.10228099954E+01 0.  0.
     999903    2    3    3    0    0  0.40248707592E-01 -0.79613898169E-01  0.96721387451E-01  0.13309253114E+00  0.20006594183E-01 0.  0.
         14    1    1    2    0    0 -0.16310732878E-01  0.65752064095E-02  0.11304983406E-01  0.20906362576E-01  0.00000000000E+00 0.  1.
     999901    1    3    3    0    0 -0.23937974714E-01  0.73038691760E-01 -0.10802637086E+00  0.88993110628E+00  0.88000000000E+00 0. -1.
        -11    1    4    4    0    0  0.94414008209E-02 -0.91774114688E-02  0.23393684285E-01  0.26849404391E-01  0.51100000000E-03 0. -1.
         11    1    4    4    0    0  0.30807306771E-01 -0.70436486701E-01  0.73327703166E-01  0.10624312675E+00  0.51100000000E-03 0.  1.
</event>
<event>
 8    1  0.1095698E+005  0.1043930E+01  0.7957747E-01            NaN
         13   -1    0    0    0    0  0.00000000000E+00  0.00000000000E+00  0.74505805969E-08  0.10566000000E+00  0.10566000000E+00 0. -1.
     999900   -1    0    0    0    0 -0.00000000000E+00 -0.00000000000E+00 -0.74505805969E-08  0.93827000000E+00  0.93827000000E+00 0.  1.
     999902    2    1    2    0    0  0.13966689147E-01  0.19395099034E-01  0.48589050794E-02  0.10195405098E+01  0.10192487449E+01 0.  0.
     999903    2    3    3    0    0  0.29260382985E-01 -0.73365729932E-01  0.10049142298E+00  0.12938094720E+00  0.20055001005E-01 0.  0.
         14    1    1    2    0    0 -0.13966689147E-01 -0.19395099034E-01 -0.48589050794E-02  0.24389490172E-01  0.00000000000E+00 0. -1.
     999901    1    3    3    0    0 -0.15293693838E-01  0.92760828966E-01 -0.95632517897E-01  0.89015956263E+00  0.88000000000E+00 0.  1.
        -11    1    4    4    0    0 -0.15484701219E-02 -0.14282871646E-01  0.23599416314E-01  0.27633164016E-01  0.51100000000E-03 0. -1.
         11    1    4    4    0    0  0.30808853107E-01 -0.59082858286E-01  0.76892006663E-01  0.10174778318E+00  0.51100000000E-03 0.  1.
</event>
<event>
 8    1  0.1095698E+005  0.1043930E+01  0.7957747E-01            NaN
         13   -1    0    0    0    0  0.00000000000E+00  0.00000000000E+00  0.74505805969E-08  0.10566000000E+00  0.10566000000E+00 0.  1.
     999900   -1    0    0    0    0 -0.00000000000E+00 -0.00000000000E+00 -0.74505805969E-08  0.93827000000E+00  0.93827000000E+00 0.  1.
     999902    2    1    2    0    0  0.23276845008E-01 -0.46507053381E-02 -0.32241848735E-02  0.10199751270E+01  0.10196937892E+01 0.  0.
     999903    2    3    3    0    0  0.52254757297E-01  0.48270973577E-02  0.11852068276E+00  0.13107054214E+00  0.19454414524E-01 0.  0.
         14    1    1    2    0    0 -0.23276845008E-01  0.46507053381E-02  0.32241848735E-02  0.23954873028E-01  0.00000000000E+00 0. -1.
     999901    1    3    3    0    0 -0.28977912289E-01 -0.94778026958E-02 -0.12174486764E+00  0.88890458483E+00  0.88000000000E+00 0.  1.
        -11    1    4    4    0    0  0.41315843949E-01 -0.32319928503E-02  0.98554374179E-01  0.10691431396E+00  0.51100000000E-03 0. -1.
         11    1    4    4    0    0  0.10938913348E-01  0.80590902081E-02  0.19966308584E-01  0.24156228176E-01  0.51100000000E-03 0.  1.
</event>
<event>
 8    1  0.1095698E+005  0.1043930E+01  0.7957747E-01            NaN
         13   -1    0    0    0    0  0.00000000000E+00  0.00000000000E+00  0.74505805969E-08  0.10566000000E+00  0.10566000000E+00 0. -1.
     999900   -1    0    0    0    0 -0.00000000000E+00 -0.00000000000E+00 -0.74505805969E-08  0.93827000000E+00  0.93827000000E+00 0. -1.
     999902    2    1    2    0    0  0.15146613922E-01 -0.98255116799E-02  0.14807985022E-01  0.10205796892E+01  0.10203125330E+01 0.  0.
     999903    2    3    3    0    0  0.55517852755E-01 -0.93816213968E-01 -0.70792970919E-01  0.13152862283E+00  0.20110194274E-01 0.  0.
         14    1    1    2    0    0 -0.15146613922E-01  0.98255116799E-02 -0.14807985022E-01  0.23350310779E-01  0.00000000000E+00 0.  1.
     999901    1    3    3    0    0 -0.40371238833E-01  0.83990702288E-01  0.85600955941E-01  0.88905106639E+00  0.88000000000E+00 0.  1.
        -11    1    4    4    0    0  0.27845452077E-01 -0.58410311408E-01 -0.32138117764E-01  0.72251321196E-01  0.51100000000E-03 0. -1.
         11    1    4    4    0    0  0.27672400678E-01 -0.35405902560E-01 -0.38654853154E-01  0.59277301632E-01  0.51100000000E-03 0.  1.
</event>
<event>
 8    1  0.1095698E+005  0.1043930E+01  0.7957747E-01            NaN
         13   -1    0    0    0    0  0.00000000000E+00  0.00000000000E+00  0.74505805969E-08  0.10566000000E+00  0.10566000000E+00 0.  1.
     999900   -1    0    0    0    0 -0.00000000000E+00 -0.00000000000E+00 -0.74505805969E-08  0.93827000000E+00  0.93827000000E+00 0.  1.
     999902    2    1    2    0    0  0.71595343536E-02  0.18730734364E-01  0.11749881154E-01  0.10206886780E+01  0.10204240385E+01 0.  0.
     999903    2    3    3    0    0 -0.13874498730E-01 -0.12056592498E+00 -0.36285252961E-01  0.12819029481E+00  0.19684717949E-01 0.  0.
         14    1    1    2    0    0 -0.71595343536E-02 -0.18730734364E-01 -0.11749881154E-01  0.23241322017E-01  0.00000000000E+00 0.  1.
     999901    1    3    3    0    0  0.21034033084E-01  0.13929665934E+00  0.48035134115E-01  0.89249838317E+00  0.88000000000E+00 0.  1.
        -11    1    4    4    0    0 -0.21711529926E-02 -0.66325673298E-01 -0.11236035969E-01  0.67307640495E-01  0.51100000000E-03 0.  1.
         11    1    4    4    0    0 -0.11703345737E-01 -0.54240251681E-01 -0.25049216991E-01  0.60882654318E-01  0.51100000000E-03 0. -1.
</event>
<event>
 8    1  0.1095698E+005  0.1043930E+01  0.7957747E-01            NaN
         13   -1    0    0    0    0  0.00000000000E+00  0.00000000000E+00  0.74505805969E-08  0.10566000000E+00  0.10566000000E+00 0. -1.
     999900   -1    0    0    0    0 -0.00000000000E+00 -0.00000000000E+00 -0.74505805969E-08  0.93827000000E+00  0.93827000000E+00 0.  1.
     999902    2    1    2    0    0 -0.14455109220E-01 -0.17721283319E-01  0.83026486999E-03  0.10210458700E+01  0.10207893932E+01 0.  0.
     999903    2    3    3    0    0  0.10979704295E+00  0.40812766335E-01  0.50349852498E-01  0.12901614975E+00  0.19722746128E-01 0.  0.
         14    1    1    2    0    0  0.14455109220E-01  0.17721283319E-01 -0.83026486999E-03  0.22884129977E-01  0.00000000000E+00 0. -1.
     999901    1    3    3    0    0 -0.12425215217E+00 -0.58534049655E-01 -0.49519587628E-01  0.89202972027E+00  0.88000000000E+00 0.  1.
        -11    1    4    4    0    0  0.48629971545E-01  0.99955899109E-02  0.27820550051E-01  0.56912477334E-01  0.51100000000E-03 0. -1.
         11    1    4    4    0    0  0.61167071401E-01  0.30817176424E-01  0.22529302447E-01  0.72103672419E-01  0.51100000000E-03 0.  1.
</event>
<event>
 8    1  0.1095698E+005  0.1043930E+01  0.7957747E-01            NaN
         13   -1    0    0    0    0  0.00000000000E+00  0.00000000000E+00  0.74505805969E-08  0.10566000000E+00  0.10566000000E+00 0. -1.
     999900   -1    0    0    0    0 -0.00000000000E+00 -0.00000000000E+00 -0.74505805969E-08  0.93827000000E+00  0.93827000000E+00 0.  1.
     999902    2    1    2    0    0 -0.18586054173E-01 -0.31085273709E-02  0.83219214568E-02  0.10233300309E+01  0.10231226678E+01 0.  0.
     999903    2    3    3    0    0 -0.98330958301E-01 -0.88223432558E-01 -0.18618156746E-01  0.13522555241E+00  0.22067234781E-01 0.  0.
         14    1    1    2    0    0  0.18586054173E-01  0.31085273709E-02 -0.83219214568E-02  0.20599969147E-01  0.00000000000E+00 0. -1.
     999901    1    3    3    0    0  0.79744904128E-01  0.85114905187E-01  0.26940078203E-01  0.88810447844E+00  0.88000000000E+00 0. -1.
        -11    1    4    4    0    0 -0.35568062490E-01 -0.40384049757E-01 -0.16462307948E-01  0.56278124063E-01  0.51100000000E-03 0.  1.
         11    1    4    4    0    0 -0.62762895811E-01 -0.47839382800E-01 -0.21558487981E-02  0.78947428345E-01  0.51100000000E-03 0. -1.
</event>
<event>
 8    1  0.1095698E+005  0.1043930E+01  0.7957747E-01            NaN
         13   -1    0    0    0    0  0.00000000000E+00  0.00000000000E+00  0.74505805969E-08  0.10566000000E+00  0.10566000000E+00 0.  1.
     999900   -1    0    0    0    0 -0.00000000000E+00 -0.00000000000E+00 -0.74505805969E-08  0.93827000000E+00  0.93827000000E+00 0. -1.
     999902    2    1    2    0    0  0.16765211153E-01  0.12272751828E-01  0.11657230825E-01  0.10201059833E+01  0.10198277469E+01 0.  0.
     999903    2    3    3    0    0  0.86002528194E-01 -0.69762086470E-01  0.68474245803E-01  0.13176387915E+00  0.20243861950E-01 0.  0.
         14    1    1    2    0    0 -0.16765211153E-01 -0.12272751828E-01 -0.11657230825E-01  0.23824016725E-01  0.00000000000E+00 0. -1.
     999901    1    3    3    0    0 -0.69237317041E-01  0.82034838298E-01 -0.56817014978E-01  0.88834210412E+00  0.88000000000E+00 0. -1.
        -11    1    4    4    0    0  0.34435195327E-01 -0.16343224574E-01  0.27028507484E-01  0.46729915520E-01  0.51100000000E-03 0.  1.
         11    1    4    4    0    0  0.51567332867E-01 -0.53418861896E-01  0.41445738319E-01  0.85033963633E-01  0.51100000000E-03 0. -1.
</event>
<event>
 8    1  0.1095698E+005  0.1043930E+01  0.7957747E-01            NaN
         13   -1    0    0    0    0  0.00000000000E+00  0.00000000000E+00  0.74505805969E-08  0.10566000000E+00  0.10566000000E+00 0.  1.
     999900   -1    0    0    0    0 -0.00000000000E+00 -0.00000000000E+00 -0.74505805969E-08  0.93827000000E+00  0.93827000000E+00 0. -1.
     999902    2    1    2    0    0  0.18963884871E-01 -0.94318844503E-02  0.10700956199E-01  0.10202002752E+01  0.10199242628E+01 0.  0.
     999903    2    3    3    0    0 -0.10868982474E+00 -0.66266299554E-01  0.58279890758E-02  0.12916191124E+00  0.21074472696E-01 0.  0.
         14    1    1    2    0    0 -0.18963884871E-01  0.94318844503E-02 -0.10700956199E-01  0.23729724762E-01  0.00000000000E+00 0. -1.
     999901    1    3    3    0    0  0.12765370961E+00  0.56834415103E-01  0.48729671229E-02  0.89103836400E+00  0.88000000000E+00 0.  1.
        -11    1    4    4    0    0 -0.42213167315E-01 -0.32991135874E-01 -0.58961939919E-02  0.53901695387E-01  0.51100000000E-03 0. -1.
         11    1    4    4    0    0 -0.66476657422E-01 -0.33275163679E-01  0.11724183068E-01  0.75260215848E-01  0.51100000000E-03 0.  1.
</event>
<event>
 8    1  0.1095698E+005  0.1043930E+01  0.7957747E-01            NaN
         13   -1    0    0    0    0  0.00000000000E+00  0.00000000000E+00  0.74505805969E-08  0.10566000000E+00  0.10566000000E+00 0.  1.
     999900   -1    0    0    0    0 -0.00000000000E+00 -0.00000000000E+00 -0.74505805969E-08  0.93827000000E+00  0.93827000000E+00 0. -1.
     999902    2    1    2    0    0 -0.13475468601E-01  0.18955450848E-01  0.42831574464E-03  0.10206688559E+01  0.10204037596E+01 0.  0.
     999903    2    3    3    0    0  0.95044140513E-01  0.22535292804E-02  0.86054936005E-01  0.12972139513E+00  0.19588805539E-01 0.  0.
         14    1    1    2    0    0  0.13475468601E-01 -0.18955450848E-01 -0.42831574464E-03  0.23261144109E-01  0.00000000000E+00 0.  1.
     999901    1    3    3    0    0 -0.10851960911E+00  0.16701921568E-01 -0.85626620260E-01  0.89094746077E+00  0.88000000000E+00 0. -1.
        -11    1    4    4    0    0  0.86905749400E-02  0.60900451550E-02  0.97602658204E-02  0.14427011217E-01  0.51100000000E-03 0.  1.
         11    1    4    4    0    0  0.86353565573E-01 -0.38365158746E-02  0.76294670185E-01  0.11529438391E+00  0.51100000000E-03 0. -1.
</event>
<event>
 8    1  0.1095698E+005  0.1043930E+01  0.7957747E-01            NaN
         13   -1    0    0    0    0  0.00000000000E+00  0.00000000000E+00  0.74505805969E-08  0.10566000000E+00  0.10566000000E+00 0. -1.
     999900   -1    0    0    0    0 -0.00000000000E+00 -0.00000000000E+00 -0.74505805969E-08  0.93827000000E+00  0.93827000000E+00 0.  1.
     999902    2    1    2    0    0 -0.25957891357E-01 -0.17388628283E-02 -0.16017841965E-01  0.10133782893E+01  0.10129176423E+01 0.  0.
     999903    2    3    3    0    0 -0.76464677930E-01  0.55959716029E-01 -0.82936506763E-01  0.12751251546E+00  0.20065907833E-01 0.  0.
         14    1    1    2    0    0  0.25957891357E-01  0.17388628283E-02  0.16017841965E-01  0.30551710735E-01  0.00000000000E+00 0. -1.
     999901    1    3    3    0    0  0.50506786573E-01 -0.57698578857E-01  0.66918664798E-01  0.88586577380E+00  0.88000000000E+00 0.  1.
        -11    1    4    4    0    0 -0.31640234338E-01  0.29763810717E-01 -0.26787215565E-01  0.51037289270E-01  0.51100000000E-03 0. -1.
         11    1    4    4    0    0 -0.44824443592E-01  0.26195905312E-01 -0.56149291198E-01  0.76475226194E-01  0.51100000000E-03 0.  1.
</event>
<event>
 8    1  0.1095698E+005  0.1043930E+01  0.7957747E-01            NaN
         13   -1    0    0    0    0  0.00000000000E+00  0.00000000000E+00  0.74505805969E-08  0.10566000000E+00  0.10566000000E+00 0.  1.
     999900   -1    0    0    0    0 -0.00000000000E+00 -0.00000000000E+00 -0.74505805969E-08  0.93827000000E+00  0.93827000000E+00 0.  1.
     999902    2    1    2    0    0  0.18515158608E-02  0.21311010524E-02 -0.23122899131E-01  0.10206354048E+01  0.10203695366E+01 0.  0.
     999903    2    3    3    0    0  0.47622681219E-01 -0.10471742931E+00 -0.62238075111E-01  0.13213014029E+00  0.18738628877E-01 0.  0.
         14    1    1    2    0    0 -0.18515158608E-02 -0.21311010524E-02  0.23122899131E-01  0.23294595229E-01  0.00000000000E+00 0.  1.
     999901    1    3    3    0    0 -0.45771165358E-01  0.10684853036E+00  0.39115175980E-01  0.88850526448E+00  0.88000000000E+00 0. -1.
        -11    1    4    4    0    0  0.23396094213E-01 -0.62027231564E-01 -0.26428733480E-01  0.71368716917E-01  0.51100000000E-03 0. -1.
         11    1    4    4    0    0  0.24226587006E-01 -0.42690197744E-01 -0.35809341630E-01  0.60761423373E-01  0.51100000000E-03 0.  1.
</event>
<event>
 8    1  0.1095698E+005  0.1043930E+01  0.7957747E-01            NaN
         13   -1    0    0    0    0  0.00000000000E+00  0.00000000000E+00  0.74505805969E-08  0.10566000000E+00  0.10566000000E+00 0. -1.
     999900   -1    0    0    0    0 -0.00000000000E+00 -0.00000000000E+00 -0.74505805969E-08  0.93827000000E+00  0.93827000000E+00 0.  1.
     999902    2    1    2    0    0  0.12063269694E-01  0.17262446878E-01 -0.11259468294E-01  0.10200492510E+01  0.10197696721E+01 0.  0.
     999903    2    3    3    0    0 -0.37383456682E-01 -0.10623559739E+00  0.56208799310E-01  0.12749745258E+00  0.20313697543E-01 0.  0.
         14    1    1    2    0    0 -0.12063269694E-01 -0.17262446878E-01  0.11259468294E-01  0.23880749029E-01  0.00000000000E+00 0. -1.
     999901    1    3    3    0    0  0.49446726376E-01  0.12349804426E+00 -0.67468267604E-01  0.89255179840E+00  0.88000000000E+00 0. -1.
        -11    1    4    4    0    0 -0.10251763717E-01 -0.21764091123E-01  0.35491004708E-02  0.24323477483E-01  0.51100000000E-03 0.  1.
         11    1    4    4    0    0 -0.27131692965E-01 -0.84471506262E-01  0.52659698839E-01  0.10317397509E+00  0.51100000000E-03 0. -1.
</event>
<event>
 8    1  0.1095698E+005  0.1043930E+01  0.7957747E-01            NaN
         13   -1    0    0    0    0  0.00000000000E+00  0.00000000000E+00  0.74505805969E-08  0.10566000000E+00  0.10566000000E+00 0.  1.
     999900   -1    0    0    0    0 -0.00000000000E+00 -0.00000000000E+00 -0.74505805969E-08  0.93827000000E+00  0.93827000000E+00 0. -1.
     999902    2    1    2    0    0 -0.22539711503E-01  0.53118949396E-02  0.25181367817E-02  0.10206363134E+01  0.10203704663E+01 0.  0.
     999903    2    3    3    0    0 -0.13170658630E+00  0.11334745415E-01 -0.21223391160E-02  0.13385831678E+00  0.20939038120E-01 0.  0.
         14    1    1    2    0    0  0.22539711503E-01 -0.53118949396E-02 -0.25181367817E-02  0.23293686598E-01  0.00000000000E+00 0. -1.
     999901    1    3    3    0    0  0.10916687480E+00 -0.60228504754E-02  0.46404758977E-02  0.88677799663E+00  0.88000000000E+00 0. -1.
        -11    1    4    4    0    0 -0.82124546987E-01 -0.93940608533E-03 -0.76091225405E-02  0.82483232044E-01  0.51100000000E-03 0. -1.
         11    1    4    4    0    0 -0.49582039318E-01  0.12274151500E-01  0.54867834245E-02  0.51375084733E-01  0.51100000000E-03 0.  1.
</event>
<event>
 8    1  0.1095698E+005  0.1043930E+01  0.7957747E-01            NaN
         13   -1    0    0    0    0  0.00000000000E+00  0.00000000000E+00  0.74505805969E-08  0.10566000000E+00  0.10566000000E+00 0. -1.
     999900   -1    0    0    0    0 -0.00000000000E+00 -0.00000000000E+00 -0.74505805969E-08  0.93827000000E+00  0.93827000000E+00 0.  1.
     999902    2    1    2    0    0  0.23055333138E-02  0.11819829708E-01  0.14946303845E-01  0.10247358379E+01  0.10245560608E+01 0.  0.
     999903    2    3    3    0    0 -0.12802892658E+00  0.50470084894E-04  0.37358355752E-01  0.13477635048E+00  0.19432172167E-01 0.  0.
         14    1    1    2    0    0 -0.23055333138E-02 -0.11819829708E-01 -0.14946303845E-01  0.19194162050E-01  0.00000000000E+00 0.  1.
     999901    1    3    3    0    0  0.13033445990E+00  0.11769359623E-01 -0.22412051907E-01  0.88995948747E+00  0.88000000000E+00 0.  1.
        -11    1    4    4    0    0 -0.12312211825E-01 -0.30548673506E-02 -0.12282291167E-02  0.12755094759E-01  0.51100000000E-03 0.  1.
         11    1    4    4    0    0 -0.11571671476E+00  0.31053374355E-02  0.38586584869E-01  0.12202125572E+00  0.51100000000E-03 0. -1.
</event>
<event>
 8    1  0.1095698E+005  0.1043930E+01  0.7957747E-01            NaN
         13   -1    0    0    0    0  0.00000000000E+00  0.00000000000E+00  0.74505805969E-08  0.10566000000E+00  0.10566000000E+00 0.  1.
     999900   -1    0    0    0    0 -0.00000000000E+00 -0.00000000000E+00 -0.74505805969E-08  0.93827000000E+00  0.93827000000E+00 0. -1.
     999902    2    1    2    0    0 -0.10755100696E-01 -0.54915882033E-02  0.19975703420E-01  0.10205877966E+01  0.10203208280E+01 0.  0.
     999903    2    3    3    0    0  0.47989382258E-01  0.10087175161E+00  0.65562322707E-01  0.13106982929E+00  0.20069651422E-01 0.  0.
         14    1    1    2    0    0  0.10755100696E-01  0.54915882033E-02 -0.19975703420E-01  0.23342203390E-01  0.00000000000E+00 0. -1.
     999901    1    3    3    0    0 -0.58744482954E-01 -0.10636333981E+00 -0.45586619287E-01  0.88951796732E+00  0.88000000000E+00 0. -1.
        -11    1    4    4    0    0  0.32509344472E-01  0.84297278513E-01  0.47519732648E-01  0.10208464505E+00  0.51100000000E-03 0. -1.
         11    1    4    4    0    0  0.15480037786E-01  0.16574473096E-01  0.18042590059E-01  0.28985184238E-01  0.51100000000E-03 0.  1.
</event>
<event>
 8    1  0.1095698E+005  0.1043930E+01  0.7957747E-01            NaN
         13   -1    0    0    0    0  0.00000000000E+00  0.00000000000E+00  0.74505805969E-08  0.10566000000E+00  0.10566000000E+00 0.  1.
     999900   -1    0    0    0    0 -0.00000000000E+00 -0.00000000000E+00 -0.74505805969E-08  0.93827000000E+00  0.93827000000E+00 0. -1.
     999902    2    1    2    0    0  0.36952299817E-02  0.20427268790E-01  0.11527101011E-01  0.10201854829E+01  0.10199091221E+01 0.  0.
     999903    2    3    3    0    0  0.12324397645E+00  0.46832737680E-02 -0.37461786852E-01  0.13061272741E+00  0.21101855487E-01 0.  0.
         14    1    1    2    0    0 -0.36952299817E-02 -0.20427268790E-01 -0.11527101011E-01  0.23744517105E-01  0.00000000000E+00 0. -1.
     999901    1    3    3    0    0 -0.11954874646E+00  0.15743995022E-01  0.48988887864E-01  0.88957275548E+00  0.88000000000E+00 0. -1.
        -11    1    4    4    0    0  0.48428572231E-01 -0.22208580234E-02 -0.49128003270E-02  0.48730437580E-01  0.51100000000E-03 0. -1.
         11    1    4    4    0    0  0.74815404215E-01  0.69041317913E-02 -0.32548986525E-01  0.81882289834E-01  0.51100000000E-03 0.  1.
</event>
<event>
 8    1  0.1095698E+005  0.1043930E+01  0.7957747E-01            NaN
         13   -1    0    0    0    0  0.00000000000E+00  0.00000000000E+00  0.74505805969E-08  0.10566000000E+00  0.10566000000E+00 0. -1.
     999900   -1    0    0    0    0 -0.00000000000E+00 -0.00000000000E+00 -0.74505805969E-08  0.93827000000E+00  0.93827000000E+00 0. -1.
     999902    2    1    2    0    0 -0.19538701994E-02 -0.21992008943E-01 -0.79707704738E-02  0.10204566268E+01  0.10201866143E+01 0.  0.
     999903    2    3    3    0    0  0.11216398476E+00  0.45240698054E-01 -0.42540102682E-01  0.12987358160E+00  0.20736601087E-01 0.  0.
         14    1    1    2    0    0  0.19538701994E-02  0.21992008943E-01  0.79707704738E-02  0.23473373171E-01  0.00000000000E+00 0.  1.
     999901    1    3    3    0    0 -0.11411785496E+00 -0.67232706996E-01  0.34569332208E-01  0.89058304522E+00  0.88000000000E+00 0.  1.
        -11    1    4    4    0    0  0.89466942635E-01  0.40180099804E-01 -0.41769675215E-01  0.10660084959E+00  0.51100000000E-03 0.  1.
         11    1    4    4    0    0  0.22697042127E-01  0.50605982497E-02 -0.77042746690E-03  0.23272732015E-01  0.51100000000E-03 0. -1.
</event>
<event>
 8    1  0.1095698E+005  0.1043930E+01  0.7957747E-01            NaN
         13   -1    0    0    0    0  0.00000000000E+00  0.00000000000E+00  0.74505805969E-08  0.10566000000E+00  0.10566000000E+00 0. -1.
     999900   -1    0    0    0    0 -0.00000000000E+00 -0.00000000000E+00 -0.74505805969E-08  0.93827000000E+00  0.93827000000E+00 0.  1.
     999902    2    1    2    0    0  0.25820438894E-03  0.30658314354E-01  0.93432018763E-02  0.10118785674E+01  0.10113708226E+01 0.  0.
     999903    2    3    3    0    0 -0.10900113134E+00  0.57331052458E-01 -0.10751751250E-02  0.12465955277E+00  0.19254918473E-01 0.  0.
         14    1    1    2    0    0 -0.25820438894E-03 -0.30658314354E-01 -0.93432018763E-02  0.32051432571E-01  0.00000000000E+00 0.  1.
     999901    1    3    3    0    0  0.10925933573E+00 -0.26672738103E-01  0.10418377001E-01  0.88721901466E+00  0.88000000000E+00 0.  1.
        -11    1    4    4    0    0 -0.37097393999E-01  0.26346800295E-01 -0.74226199020E-02  0.46105606324E-01  0.51100000000E-03 0. -1.
         11    1    4    4    0    0 -0.71903737339E-01  0.30984252162E-01  0.63474447770E-02  0.78553946441E-01  0.51100000000E-03 0.  1.
</event>
<event>
 8    1  0.1095698E+005  0.1043930E+01  0.7957747E-01            NaN
         13   -1    0    0    0    0  0.00000000000E+00  0.00000000000E+00  0.74505805969E-08  0.10566000000E+00  0.10566000000E+00 0.  1.
     999900   -1    0    0    0    0 -0.00000000000E+00 -0.00000000000E+00 -0.74505805969E-08  0.93827000000E+00  0.93827000000E+00 0. -1.
     999902    2    1    2    0    0  0.11135982727E-01  0.21198201713E-01 -0.28872628734E-03  0.10199830330E+01  0.10197018831E+01 0.  0.
     999903    2    3    3    0    0 -0.56338084439E-01  0.11766278734E+00 -0.49214350640E-02  0.13213190355E+00  0.20398728599E-01 0.  0.
         14    1    1    2    0    0 -0.11135982727E-01 -0.21198201713E-01  0.28872628734E-03  0.23946967032E-01  0.00000000000E+00 0.  1.
     999901    1    3    3    0    0  0.67474067166E-01 -0.96464585631E-01  0.46327087767E-02  0.88785112942E+00  0.88000000000E+00 0.  1.
        -11    1    4    4    0    0 -0.41100128997E-01  0.63451366765E-01 -0.56551446887E-02  0.75812520934E-01  0.51100000000E-03 0. -1.
         11    1    4    4    0    0 -0.15237955441E-01  0.54211420579E-01  0.73370962466E-03  0.56319382615E-01  0.51100000000E-03 0.  1.
</event>
<event>
 8    1  0.1095698E+005  0.1043930E+01  0.7957747E-01            NaN
         13   -1    0    0    0    0  0.00000000000E+00  0.00000000000E+00  0.74505805969E-08  0.10566000000E+00  0.10566000000E+00 0.  1.
     999900   -1    0    0    0    0 -0.00000000000E+00 -0.00000000000E+00 -0.74505805969E-08  0.93827000000E+00  0.93827000000E+00 0. -1.
     999902    2    1    2    0    0 -0.91748992388E-02 -0.13763132529E-01 -0.17655202665E-01  0.10197368445E+01  0.10194498140E+01 0.  0.
     999903    2    3    3    0    0  0.55652623525E-01  0.40336978501E-01  0.10518383837E+00  0.12720176969E+00  0.19808180617E-01 0.  0.
         14    1    1    2    0    0  0.91748992388E-02  0.13763132529E-01  0.17655202665E-01  0.24193155524E-01  0.00000000000E+00 0.  1.
     999901    1    3    3    0    0 -0.64827522764E-01 -0.54100111030E-01 -0.12283904103E+00  0.89253507479E+00  0.88000000000E+00 0.  1.
        -11    1    4    4    0    0  0.17008345063E-01  0.16789420883E-01  0.52909059089E-01  0.58058574819E-01  0.51100000000E-03 0.  1.
         11    1    4    4    0    0  0.38644278462E-01  0.23547557619E-01  0.52274779277E-01  0.69143194872E-01  0.51100000000E-03 0. -1.
</event>
<event>
 8    1  0.1095698E+005  0.1043930E+01  0.7957747E-01            NaN
         13   -1    0    0    0    0  0.00000000000E+00  0.00000000000E+00  0.74505805969E-08  0.10566000000E+00  0.10566000000E+00 0. -1.
     999900   -1    0    0    0    0 -0.00000000000E+00 -0.00000000000E+00 -0.74505805969E-08  0.93827000000E+00  0.93827000000E+00 0.  1.
     999902    2    1    2    0    0 -0.92365241702E-02 -0.21010428458E-01 -0.85848330669E-02  0.10194259015E+01  0.10191313546E+01 0.  0.
     999903    2    3    3    0    0 -0.66421450358E-01  0.10799641478E-01  0.10856635937E+00  0.12925378435E+00  0.19784970520E-01 0.  0.
         14    1    1    2    0    0  0.92365241702E-02  0.21010428458E-01  0.85848330669E-02  0.24504098463E-01  0.00000000000E+00 0.  1.
     999901    1    3    3    0    0  0.57184926188E-01 -0.31810069936E-01 -0.11715119243E+00  0.89017211719E+00  0.88000000000E+00 0.  1.
        -11    1    4    4    0    0 -0.44202118233E-01  0.14991227674E-01  0.82084657807E-01  0.94428366140E-01  0.51100000000E-03 0.  1.
         11    1    4    4    0    0 -0.22219332124E-01 -0.41915861962E-02  0.26481701558E-01  0.34825418208E-01  0.51100000000E-03 0. -1.
</event>
<event>
 8    1  0.1095698E+005  0.1043930E+01  0.7957747E-01            NaN
         13   -1    0    0    0    0  0.00000000000E+00  0.00000000000E+00  0.74505805969E-08  0.10566000000E+00  0.10566000000E+00 0.  1.
     999900   -1    0    0    0    0 -0.00000000000E+00 -0.00000000000E+00 -0.74505805969E-08  0.93827000000E+00  0.93827000000E+00 0.  1.
     999902    2    1    2    0    0  0.15613664312E-02  0.24089828717E-02  0.23344630101E-01  0.10204095234E+01  0.10201384135E+01 0.  0.
     999903    2    3    3    0    0  0.85960063821E-01 -0.32007402308E-01 -0.88098672110E-01  0.12871045014E+00  0.19783770462E-01 0.  0.
         14    1    1    2    0    0 -0.15613664312E-02 -0.24089828717E-02 -0.23344630101E-01  0.23520476572E-01  0.00000000000E+00 0. -1.
     999901    1    3    3    0    0 -0.84398697390E-01  0.34416385180E-01  0.11144330221E+00  0.89169907329E+00  0.88000000000E+00 0. -1.
        -11    1    4    4    0    0  0.26281023151E-01 -0.80249496997E-02 -0.39381944600E-01  0.48023855291E-01  0.51100000000E-03 0.  1.
         11    1    4    4    0    0  0.59679040671E-01 -0.23982452608E-01 -0.48716727510E-01  0.80686594852E-01  0.51100000000E-03 0. -1.
</event>
<event>
 8    1  0.1095698E+005  0.1043930E+01  0.7957747E-01            NaN
         13   -1    0    0    0    0  0.00000000000E+00  0.00000000000E+00  0.74505805969E-08  0.10566000000E+00  0.10566000000E+00 0. -1.
     999900   -1    0    0    0    0 -0.00000000000E+00 -0.00000000000E+00 -0.74505805969E-08  0.93827000000E+00  0.93827000000E+00 0.  1.
     999902    2    1    2    0    0 -0.60860729268E-02 -0.20959796113E-01  0.10198368356E-01  0.10198393368E+01  0.10195547620E+01 0.  0.
     999903    2    3    3    0    0  0.50604781557E-01  0.25808499267E-01 -0.11318792922E+00  0.12819742163E+00  0.19903493223E-01 0.  0.
         14    1    1    2    0    0  0.60860729268E-02  0.20959796113E-01 -0.10198368356E-01  0.24090663210E-01  0.00000000000E+00 0. -1.
     999901    1    3    3    0    0 -0.56690854484E-01 -0.46768295380E-01  0.12338629757E+00  0.89164191516E+00  0.88000000000E+00 0. -1.
        -11    1    4    4    0    0  0.26628601081E-01  0.69511185041E-02 -0.36899694218E-01  0.46035301654E-01  0.51100000000E-03 0. -1.
         11    1    4    4    0    0  0.23976180476E-01  0.18857380763E-01 -0.76288234998E-01  0.82162119979E-01  0.51100000000E-03 0.  1.
</event>
<event>
 8    1  0.1095698E+005  0.1043930E+01  0.7957747E-01            NaN
         13   -1    0    0    0    0  0.00000000000E+00  0.00000000000E+00  0.74505805969E-08  0.10566000000E+00  0.10566000000E+00 0.  1.
     999900   -1    0    0    0    0 -0.00000000000E+00 -0.00000000000E+00 -0.74505805969E-08  0.93827000000E+00  0.93827000000E+00 0. -1.
     999902    2    1    2    0    0 -0.13292275742E-01 -0.24638629016E-02 -0.19774517083E-01  0.10199761539E+01  0.10196948406E+01 0.  0.
     999903    2    3    3    0    0 -0.10801297347E+00  0.66964162475E-01 -0.30734646478E-01  0.13210657697E+00  0.18881940843E-01 0.  0.
         14    1    1    2    0    0  0.13292275742E-01  0.24638629016E-02  0.19774517083E-01  0.23953846051E-01  0.00000000000E+00 0.  1.
     999901    1    3    3    0    0  0.94720697733E-01 -0.69428025376E-01  0.10960129395E-01  0.88786957698E+00  0.88000000000E+00 0. -1.
        -11    1    4    4    0    0 -0.54223140631E-01  0.22566478225E-01 -0.14080871734E-01  0.60398071071E-01  0.51100000000E-03 0. -1.
         11    1    4    4    0    0 -0.53789832844E-01  0.44397684250E-01 -0.16653774744E-01  0.71708505900E-01  0.51100000000E-03 0.  1.
</event>
<event>
 8    1  0.1095698E+005  0.1043930E+01  0.7957747E-01            NaN
         13   -1    0    0    0    0  0.00000000000E+00  0.00000000000E+00  0.74505805969E-08  0.10566000000E+00  0.10566000000E+00 0. -1.
     999900   -1    0    0    0    0 -0.00000000000E+00 -0.00000000000E+00 -0.74505805969E-08  0.93827000000E+00  0.93827000000E+00 0.  1.
     999902    2    1    2    0    0  0.40422067942E-02  0.13306716861E-01  0.18514194634E-01  0.10207743624E+01  0.10205116929E+01 0.  0.
     999903    2    3    3    0    0 -0.68335074146E-01  0.81862578508E-01  0.77262273317E-01  0.13319917477E+00  0.20034898614E-01 0.  0.
         14    1    1    2    0    0 -0.40422067942E-02 -0.13306716861E-01 -0.18514194634E-01  0.23155637593E-01  0.00000000000E+00 0.  1.
     999901    1    3    3    0    0  0.72377280940E-01 -0.68555861647E-01 -0.58748078683E-01  0.88757518764E+00  0.88000000000E+00 0.  1.
        -11    1    4    4    0    0 -0.48654810435E-01  0.59967605957E-01  0.66298507745E-01  0.10177994691E+00  0.51100000000E-03 0.  1.
         11    1    4    4    0    0 -0.19680263712E-01  0.21894972551E-01  0.10963765571E-01  0.31419227859E-01  0.51100000000E-03 0. -1.
</event>
<event>
 7    1  0.1095698E+005  0.1043930E+01  0.7957747E-01            NaN
         13   -1    0    0    0    0  0.00000000000E+00  0.00000000000E+00  0.74505805969E-08  0.10566000000E+00  0.10566000000E+00 0.  1.
     999900   -1    0    0    0    0 -0.00000000000E+00 -0.00000000000E+00 -0.74505805969E-08  0.93827000000E+00  0.93827000000E+00 0.  1.
     999903    2    1    2    0    0 -0.91255200830E-01  0.24641353585E-01  0.51353563879E-01  0.10926346405E+00  0.19147011969E-01 0.  0.
         14    1    1    2    0    0  0.34134845767E-01  0.22635322065E-01 -0.30908610678E-01  0.51311672303E-01  0.00000000000E+00 0. -1.
     999901    1    1    2    0    0  0.57120355063E-01 -0.47276675650E-01 -0.20444953201E-01  0.88335486365E+00  0.88000000000E+00 0.  1.
        -11    1    3    3    0    0 -0.40559753291E-01  0.33338049539E-02  0.15176169724E-01  0.43437139535E-01  0.51100000000E-03 0. -1.
         11    1    3    3    0    0 -0.50695447539E-01  0.21307548631E-01  0.36177394155E-01  0.65826324511E-01  0.51100000000E-03 0.  1.
</event>
<event>
 8    1  0.1095698E+005  0.1043930E+01  0.7957747E-01            NaN
         13   -1    0    0    0    0  0.00000000000E+00  0.00000000000E+00  0.74505805969E-08  0.10566000000E+00  0.10566000000E+00 0.  1.
     999900   -1    0    0    0    0 -0.00000000000E+00 -0.00000000000E+00 -0.74505805969E-08  0.93827000000E+00  0.93827000000E+00 0. -1.
     999902    2    1    2    0    0  0.59018489827E-02 -0.22207018042E-01 -0.63472012934E-02  0.10200915765E+01  0.10198129995E+01 0.  0.
     999903    2    3    3    0    0  0.44386995448E-01  0.11472613973E+00  0.29074671673E-01  0.12796686251E+00  0.19947151822E-01 0.  0.
         14    1    1    2    0    0 -0.59018489827E-02  0.22207018042E-01  0.63472012934E-02  0.23838423521E-01  0.00000000000E+00 0. -1.
     999901    1    3    3    0    0 -0.38485146465E-01 -0.13693315777E+00 -0.35421872967E-01  0.89212471397E+00  0.88000000000E+00 0.  1.
        -11    1    4    4    0    0  0.28844940565E-01  0.52586769545E-01  0.78800739942E-02  0.60495914032E-01  0.51100000000E-03 0.  1.
         11    1    4    4    0    0  0.15542054883E-01  0.62139370180E-01  0.21194597679E-01  0.67470948475E-01  0.51100000000E-03 0. -1.
</event>
<event>
 8    1  0.1095698E+005  0.1043930E+01  0.7957747E-01            NaN
         13   -1    0    0    0    0  0.00000000000E+00  0.00000000000E+00  0.74505805969E-08  0.10566000000E+00  0.10566000000E+00 0. -1.
     999900   -1    0    0    0    0 -0.00000000000E+00 -0.00000000000E+00 -0.74505805969E-08  0.93827000000E+00  0.93827000000E+00 0. -1.
     999902    2    1    2    0    0 -0.19651760090E-01  0.13860823381E-01 -0.10685337399E-02  0.10198581105E+01  0.10195739844E+01 0.  0.
     999903    2    3    3    0    0  0.39805319196E-01  0.12189748277E+00 -0.12001074259E-01  0.13119249033E+00  0.24979671579E-01 0.  0.
         14    1    1    2    0    0  0.19651760090E-01 -0.13860823381E-01  0.10685337399E-02  0.24071889494E-01  0.00000000000E+00 0. -1.
     999901    1    3    3    0    0 -0.59457079286E-01 -0.10803665939E+00  0.10932540519E-01  0.88866562018E+00  0.88000000000E+00 0.  1.
        -11    1    4    4    0    0  0.29933473747E-01  0.77715103423E-01  0.34509098049E-02  0.83353584507E-01  0.51100000000E-03 0. -1.
         11    1    4    4    0    0  0.98718454483E-02  0.44182379348E-01 -0.15451984064E-01  0.47838905819E-01  0.51100000000E-03 0.  1.
</event>
<event>
 8    1  0.1095698E+005  0.1043930E+01  0.7957747E-01            NaN
         13   -1    0    0    0    0  0.00000000000E+00  0.00000000000E+00  0.74505805969E-08  0.10566000000E+00  0.10566000000E+00 0. -1.
     999900   -1    0    0    0    0 -0.00000000000E+00 -0.00000000000E+00 -0.74505805969E-08  0.93827000000E+00  0.93827000000E+00 0.  1.
     999902    2    1    2    0    0 -0.12600936742E-01 -0.60058690523E-02 -0.18052648123E-01  0.10211100049E+01  0.10208549799E+01 0.  0.
     999903    2    3    3    0    0 -0.81967735546E-01 -0.32852011833E-01 -0.99113433487E-01  0.13425978136E+00  0.20106015044E-01 0.  0.
         14    1    1    2    0    0  0.12600936742E-01  0.60058690523E-02  0.18052648123E-01  0.22819995050E-01  0.00000000000E+00 0. -1.
     999901    1    3    3    0    0  0.69366798804E-01  0.26846142781E-01  0.81060785364E-01  0.88685022359E+00  0.88000000000E+00 0.  1.
        -11    1    4    4    0    0 -0.28207744238E-01 -0.44465781810E-02 -0.42325983922E-01  0.51060737642E-01  0.51100000000E-03 0. -1.
         11    1    4    4    0    0 -0.53759991309E-01 -0.28405433652E-01 -0.56787449565E-01  0.83199043718E-01  0.51100000000E-03 0.  1.
</event>
<event>
 7    1  0.1095698E+005  0.1043930E+01  0.7957747E-01            NaN
         13   -1    0    0    0    0  0.00000000000E+00  0.00000000000E+00  0.74505805969E-08  0.10566000000E+00  0.10566000000E+00 0. -1.
     999900   -1    0    0    0    0 -0.00000000000E+00 -0.00000000000E+00 -0.74505805969E-08  0.93827000000E+00  0.93827000000E+00 0.  1.
     999903    2    1    2    0    0  0.10684466584E+00  0.29208461079E-02 -0.28305447102E-01  0.11227120542E+00  0.19475915137E-01 0.  0.
         14    1    1    2    0    0 -0.19044812722E-01  0.26406554240E-01 -0.30818150005E-01  0.44830451349E-01  0.00000000000E+00 0.  1.
     999901    1    1    2    0    0 -0.87799853120E-01 -0.29327400348E-01  0.59123597107E-01  0.88682834323E+00  0.88000000000E+00 0.  1.
        -11    1    3    3    0    0  0.18621869306E-01 -0.69139712376E-02 -0.48443385220E-02  0.20452524330E-01  0.51100000000E-03 0. -1.
         11    1    3    3    0    0  0.88222796535E-01  0.98348173455E-02 -0.23461108580E-01  0.91818681092E-01  0.51100000000E-03 0.  1.
</event>
<event>
 8    1  0.1095698E+005  0.1043930E+01  0.7957747E-01            NaN
         13   -1    0    0    0    0  0.00000000000E+00  0.00000000000E+00  0.74505805969E-08  0.10566000000E+00  0.10566000000E+00 0. -1.
     999900   -1    0    0    0    0 -0.00000000000E+00 -0.00000000000E+00 -0.74505805969E-08  0.93827000000E+00  0.93827000000E+00 0. -1.
     999902    2    1    2    0    0  0.78421310717E-02 -0.29142229060E-02 -0.21897341996E-01  0.10204888972E+01  0.10202196352E+01 0.  0.
     999903    2    3    3    0    0  0.13053398239E-01  0.57599772378E-02  0.12611035996E+00  0.12807157390E+00  0.17173718534E-01 0.  0.
         14    1    1    2    0    0 -0.78421310717E-02  0.29142229060E-02  0.21897341996E-01  0.23441102819E-01  0.00000000000E+00 0. -1.
     999901    1    3    3    0    0 -0.52112671671E-02 -0.86742001438E-02 -0.14800770196E+00  0.89241732328E+00  0.88000000000E+00 0. -1.
        -11    1    4    4    0    0  0.12491397035E-01 -0.15313371746E-02  0.10439823244E+00  0.10515527591E+00  0.51100000000E-03 0. -1.
         11    1    4    4    0    0  0.56200120352E-03  0.72913144124E-02  0.21712127521E-01  0.22916297993E-01  0.51100000000E-03 0.  1.
</event>
<event>
 8    1  0.1095698E+005  0.1043930E+01  0.7957747E-01            NaN
         13   -1    0    0    0    0  0.00000000000E+00  0.00000000000E+00  0.74505805969E-08  0.10566000000E+00  0.10566000000E+00 0. -1.
     999900   -1    0    0    0    0 -0.00000000000E+00 -0.00000000000E+00 -0.74505805969E-08  0.93827000000E+00  0.93827000000E+00 0. -1.
     999902    2    1    2    0    0 -0.13030198323E-01  0.19464155711E-01 -0.12312412445E-01  0.10174680476E+01  0.10171238828E+01 0.  0.
     999903    2    3    3    0    0 -0.46900355938E-01  0.12019402359E+00 -0.18992388020E-01  0.13104923238E+00  0.12920673747E-01 0.  0.
         14    1    1    2    0    0  0.13030198323E-01 -0.19464155711E-01  0.12312412445E-01  0.26461952425E-01  0.00000000000E+00 0. -1.
     999901    1    3    3    0    0  0.33870157615E-01 -0.10072986788E+00  0.66799755744E-02  0.88641881520E+00  0.88000000000E+00 0.  1.
        -11    1    4    4    0    0 -0.10808593754E-02  0.12993836269E-01 -0.28202253168E-02  0.13350012353E-01  0.51100000000E-03 0.  1.
         11    1    4    4    0    0 -0.45819496563E-01  0.10720018732E+00 -0.16172162703E-01  0.11769922003E+00  0.51100000000E-03 0. -1.
</event>
<event>
 8    1  0.1095698E+005  0.1043930E+01  0.7957747E-01            NaN
         13   -1    0    0    0    0  0.00000000000E+00  0.00000000000E+00  0.74505805969E-08  0.10566000000E+00  0.10566000000E+00 0.  1.
     999900   -1    0    0    0    0 -0.00000000000E+00 -0.00000000000E+00 -0.74505805969E-08  0.93827000000E+00  0.93827000000E+00 0. -1.
     999902    2    1    2    0    0 -0.47899366116E-02  0.12439996847E-01 -0.19608498723E-01  0.10202194488E+01  0.10199438875E+01 0.  0.
     999903    2    3    3    0    0 -0.58485934567E-01 -0.11044821116E+00  0.24728818778E-01  0.12895598073E+00  0.19967939189E-01 0.  0.
         14    1    1    2    0    0  0.47899366116E-02 -0.12439996847E-01  0.19608498723E-01  0.23710551164E-01  0.00000000000E+00 0. -1.
     999901    1    3    3    0    0  0.53695997956E-01  0.12288820801E+00 -0.44337317502E-01  0.89126346811E+00  0.88000000000E+00 0.  1.
        -11    1    4    4    0    0 -0.38914918231E-01 -0.53942127768E-01  0.90133545569E-02  0.67123957649E-01  0.51100000000E-03 0. -1.
         11    1    4    4    0    0 -0.19571016336E-01 -0.56506083396E-01  0.15715464221E-01  0.61832023077E-01  0.51100000000E-03 0.  1.
</event>
<event>
 8    1  0.1095698E+005  0.1043930E+01  0.7957747E-01            NaN
         13   -1    0    0    0    0  0.00000000000E+00  0.00000000000E+00  0.74505805969E-08  0.10566000000E+00  0.10566000000E+00 0.  1.
     999900   -1    0    0    0    0 -0.00000000000E+00 -0.00000000000E+00 -0.74505805969E-08  0.93827000000E+00  0.93827000000E+00 0.  1.
     999902    2    1    2    0    0  0.10746686843E-01  0.91820003627E-02  0.18961086695E-01  0.10202799848E+01  0.10200058452E+01 0.  0.
     999903    2    3    3    0    0 -0.84754900595E-01 -0.79860064863E-01 -0.49029541600E-01  0.12805144454E+00  0.20790703775E-01 0.  0.
         14    1    1    2    0    0 -0.10746686843E-01 -0.91820003627E-02 -0.18961086695E-01  0.23650015168E-01  0.00000000000E+00 0. -1.
     999901    1    3    3    0    0  0.95501587438E-01  0.89042065226E-01  0.67990628295E-01  0.89222854030E+00  0.88000000000E+00 0. -1.
        -11    1    4    4    0    0 -0.25157713778E-01 -0.36789404681E-01 -0.15023125364E-01  0.47035372604E-01  0.51100000000E-03 0.  1.
         11    1    4    4    0    0 -0.59597186817E-01 -0.43070660182E-01 -0.34006416236E-01  0.81016071932E-01  0.51100000000E-03 0. -1.
</event>
<event>
 8    1  0.1095698E+005  0.1043930E+01  0.7957747E-01            NaN
         13   -1    0    0    0    0  0.00000000000E+00  0.00000000000E+00  0.74505805969E-08  0.10566000000E+00  0.10566000000E+00 0. -1.
     999900   -1    0    0    0    0 -0.00000000000E+00 -0.00000000000E+00 -0.74505805969E-08  0.93827000000E+00  0.93827000000E+00 0.  1.
     999902    2    1    2    0    0 -0.21551612348E-01 -0.51238839474E-03  0.92449801319E-02  0.10204735682E+01  0.10202039498E+01 0.  0.
     999903    2    3    3    0    0  0.52284205286E-01  0.10118823306E+00 -0.57223686038E-01  0.12906298490E+00  0.20248634413E-01 0.  0.
         14    1    1    2    0    0  0.21551612348E-01  0.51238839474E-03 -0.92449801319E-02  0.23456431833E-01  0.00000000000E+00 0.  1.
     999901    1    3    3    0    0 -0.73835817634E-01 -0.10170062146E+00  0.66468666170E-01  0.89141058326E+00  0.88000000000E+00 0.  1.
        -11    1    4    4    0    0  0.27276547376E-01  0.54319012672E-01 -0.19248393259E-01  0.63759916393E-01  0.51100000000E-03 0.  1.
         11    1    4    4    0    0  0.25007657910E-01  0.46869220393E-01 -0.37975292779E-01  0.65303068512E-01  0.51100000000E-03 0. -1.
</event>
<event>
 8    1  0.1095698E+005  0.1043930E+01  0.7957747E-01            NaN
         13   -1    0    0    0    0  0.00000000000E+00  0.00000000000E+00  0.74505805969E-08  0.10566000000E+00  0.10566000000E+00 0. -1.
     999900   -1    0    0    0    0 -0.00000000000E+00 -0.00000000000E+00 -0.74505805969E-08  0.93827000000E+00  0.93827000000E+00 0.  1.
     999902    2    1    2    0    0 -0.88629545015E-03 -0.18812561116E-01  0.17519484145E-01  0.10182078247E+01  0.10178828735E+01 0.  0.
     999903    2    3    3    0    0 -0.32972209546E-01  0.11868825918E+00  0.16230707642E-01  0.12695160882E+00  0.26061574081E-01 0.  0.
         14    1    1    2    0    0  0.88629545015E-03  0.18812561116E-01 -0.17519484145E-01  0.25722175259E-01  0.00000000000E+00 0.  1.
     999901    1    3    3    0    0  0.32085914095E-01 -0.13750082029E+00  0.12887765025E-02  0.89125621592E+00  0.88000000000E+00 0.  1.
        -11    1    4    4    0    0 -0.23833057301E-01  0.86977326561E-01  0.31450486498E-04  0.90184988031E-01  0.51100000000E-03 0. -1.
         11    1    4    4    0    0 -0.91391522450E-02  0.31710932616E-01  0.16199257156E-01  0.36766620793E-01  0.51100000000E-03 0.  1.
</event>
<event>
 8    1  0.1095698E+005  0.1043930E+01  0.7957747E-01            NaN
         13   -1    0    0    0    0  0.00000000000E+00  0.00000000000E+00  0.74505805969E-08  0.10566000000E+00  0.10566000000E+00 0. -1.
     999900   -1    0    0    0    0 -0.00000000000E+00 -0.00000000000E+00 -0.74505805969E-08  0.93827000000E+00  0.93827000000E+00 0. -1.
     999902    2    1    2    0    0  0.49988073933E-02 -0.18119869655E-01  0.13653103702E-01  0.10206980179E+01  0.10204335935E+01 0.  0.
     999903    2    3    3    0    0 -0.10167793105E+00 -0.81783606565E-01  0.36368282637E-02  0.13191608531E+00  0.19017546573E-01 0.  0.
         14    1    1    2    0    0 -0.49988073933E-02  0.18119869655E-01 -0.13653103702E-01  0.23231982101E-01  0.00000000000E+00 0. -1.
     999901    1    3    3    0    0  0.10667673845E+00  0.63663736910E-01  0.10016275438E-01  0.88878193259E+00  0.88000000000E+00 0. -1.
        -11    1    4    4    0    0 -0.38774221799E-01 -0.37300010491E-01 -0.65429789457E-02  0.54201501393E-01  0.51100000000E-03 0.  1.
         11    1    4    4    0    0 -0.62903709254E-01 -0.44483596074E-01  0.10179807209E-01  0.77714583917E-01  0.51100000000E-03 0. -1.
</event>
<event>
 8    1  0.1095698E+005  0.1043930E+01  0.7957747E-01            NaN
         13   -1    0    0    0    0  0.00000000000E+00  0.00000000000E+00  0.74505805969E-08  0.10566000000E+00  0.10566000000E+00 0. -1.
     999900   -1    0    0    0    0 -0.00000000000E+00 -0.00000000000E+00 -0.74505805969E-08  0.93827000000E+00  0.93827000000E+00 0.  1.
     999902    2    1    2    0    0 -0.12729783579E-02  0.10174184833E-01 -0.21198152226E-01  0.10203822577E+01  0.10201105115E+01 0.  0.
     999903    2    3    3    0    0  0.10321752690E-02 -0.54226272257E-01  0.11382094847E+00  0.12775529743E+00  0.20607127925E-01 0.  0.
         14    1    1    2    0    0  0.12729783579E-02 -0.10174184833E-01  0.21198152226E-01  0.23547742328E-01  0.00000000000E+00 0. -1.
     999901    1    3    3    0    0 -0.23051536269E-02  0.64400457090E-01 -0.13501910070E+00  0.89262696025E+00  0.88000000000E+00 0.  1.
        -11    1    4    4    0    0  0.81313688618E-02 -0.11672266607E-01  0.20665561226E-01  0.25093575056E-01  0.51100000000E-03 0.  1.
         11    1    4    4    0    0 -0.70991935928E-02 -0.42554005650E-01  0.93155387243E-01  0.10266172237E+00  0.51100000000E-03 0. -1.
</event>
<event>
 8    1  0.1095698E+005  0.1043930E+01  0.7957747E-01            NaN
         13   -1    0    0    0    0  0.00000000000E+00  0.00000000000E+00  0.74505805969E-08  0.10566000000E+00  0.10566000000E+00 0.  1.
     999900   -1    0    0    0    0 -0.00000000000E+00 -0.00000000000E+00 -0.74505805969E-08  0.93827000000E+00  0.93827000000E+00 0.  1.
     999902    2    1    2    0    0  0.88466387629E-02  0.12379986890E-01 -0.15986541672E-01  0.10218597348E+01  0.10216213687E+01 0.  0.
     999903    2    3    3    0    0  0.73400312049E-01 -0.44729094604E-01  0.96269457210E-01  0.13055168857E+00  0.19688506423E-01 0.  0.
         14    1    1    2    0    0 -0.88466387629E-02 -0.12379986890E-01  0.15986541672E-01  0.22070265232E-01  0.00000000000E+00 0. -1.
     999901    1    3    3    0    0 -0.64553673287E-01  0.57109081493E-01 -0.11225599888E+00  0.89130804619E+00  0.88000000000E+00 0.  1.
        -11    1    4    4    0    0  0.34554311493E-02 -0.22665271133E-02  0.13643219403E-01  0.14264491097E-01  0.51100000000E-03 0.  1.
         11    1    4    4    0    0  0.69944880900E-01 -0.42462567490E-01  0.82626237806E-01  0.11628719748E+00  0.51100000000E-03 0. -1.
</event>
<event>
 8    1  0.1095698E+005  0.1043930E+01  0.7957747E-01            NaN
         13   -1    0    0    0    0  0.00000000000E+00  0.00000000000E+00  0.74505805969E-08  0.10566000000E+00  0.10566000000E+00 0.  1.
     999900   -1    0    0    0    0 -0.00000000000E+00 -0.00000000000E+00 -0.74505805969E-08  0.93827000000E+00  0.93827000000E+00 0. -1.
     999902    2    1    2    0    0 -0.15882064297E-01  0.97621405490E-02 -0.14743729867E-01  0.10201620189E+01  0.10198851053E+01 0.  0.
     999903    2    3    3    0    0 -0.11390267773E+00  0.65167022696E-01 -0.57545728968E-02  0.13294245952E+00  0.20494428369E-01 0.  0.
         14    1    1    2    0    0  0.15882064297E-01 -0.97621405490E-02  0.14743729867E-01  0.23767981084E-01  0.00000000000E+00 0. -1.
     999901    1    3    3    0    0  0.98020613433E-01 -0.55404882147E-01 -0.89891569698E-02  0.88721955939E+00  0.88000000000E+00 0.  1.
        -11    1    4    4    0    0 -0.44049656569E-01  0.19595506217E-01  0.64680039517E-02  0.48646195164E-01  0.51100000000E-03 0. -1.
         11    1    4    4    0    0 -0.69853021161E-01  0.45571516478E-01 -0.12222576848E-01  0.84296264361E-01  0.51100000000E-03 0.  1.
</event>
<event>
 8    1  0.1095698E+005  0.1043930E+01  0.7957747E-01            NaN
         13   -1    0    0    0    0  0.00000000000E+00  0.00000000000E+00  0.74505805969E-08  0.10566000000E+00  0.10566000000E+00 0.  1.
     999900   -1    0    0    0    0 -0.00000000000E+00 -0.00000000000E+00 -0.74505805969E-08  0.93827000000E+00  0.93827000000E+00 0.  1.
     999902    2    1    2    0    0 -0.24237067252E-01  0.83568463697E-03 -0.14453458577E-01  0.10156981693E+01  0.10153057347E+01 0.  0.
     999903    2    3    3    0    0  0.64939864667E-01  0.34809200802E-02  0.10279964282E+00  0.12344943034E+00  0.21040258061E-01 0.  0.
         14    1    1    2    0    0  0.24237067252E-01 -0.83568463697E-03  0.14453458577E-01  0.28231830664E-01  0.00000000000E+00 0.  1.
     999901    1    3    3    0    0 -0.89176931919E-01 -0.26452354432E-02 -0.11725310140E+00  0.89224873900E+00  0.88000000000E+00 0.  1.
        -11    1    4    4    0    0  0.17822778898E-01  0.87566527544E-02  0.40979615553E-01  0.45540316501E-01  0.51100000000E-03 0. -1.
         11    1    4    4    0    0  0.47117085769E-01 -0.52757326742E-02  0.61820027267E-01  0.77909113837E-01  0.51100000000E-03 0.  1.
</event>
<event>
 8    1  0.1095698E+005  0.1043930E+01  0.7957747E-01            NaN
         13   -1    0    0    0    0  0.00000000000E+00  0.00000000000E+00  0.74505805969E-08  0.10566000000E+00  0.10566000000E+00 0. -1.
     999900   -1    0    0    0    0 -0.00000000000E+00 -0.00000000000E+00 -0.74505805969E-08  0.93827000000E+00  0.93827000000E+00 0. -1.
     999902    2    1    2    0    0 -0.14834890962E-02 -0.19947866844E-01  0.11484710547E-01  0.10208645126E+01  0.10206039077E+01 0.  0.
     999903    2    3    3    0    0  0.96879520537E-01  0.83292959933E-01  0.45867479041E-02  0.12935930688E+00  0.19734065636E-01 0.  0.
         14    1    1    2    0    0  0.14834890962E-02  0.19947866844E-01 -0.11484710547E-01  0.23065487376E-01  0.00000000000E+00 0. -1.
     999901    1    3    3    0    0 -0.98363009633E-01 -0.10324082678E+00  0.68979626433E-02  0.89150520574E+00  0.88000000000E+00 0. -1.
        -11    1    4    4    0    0  0.29070938707E-01  0.29280771379E-01  0.10130899349E-01  0.42489755148E-01  0.51100000000E-03 0. -1.
         11    1    4    4    0    0  0.67808581830E-01  0.54012188554E-01 -0.55441514449E-02  0.86869551734E-01  0.51100000000E-03 0.  1.
</event>
<event>
 8    1  0.1095698E+005  0.1043930E+01  0.7957747E-01            NaN
         13   -1    0    0    0    0  0.00000000000E+00  0.00000000000E+00  0.74505805969E-08  0.10566000000E+00  0.10566000000E+00 0. -1.
     999900   -1    0    0    0    0 -0.00000000000E+00 -0.00000000000E+00 -0.74505805969E-08  0.93827000000E+00  0.93827000000E+00 0.  1.
     999902    2    1    2    0    0  0.20539895140E-01 -0.37191852955E-02  0.14304261733E-01  0.10186252270E+01  0.10183108669E+01 0.  0.
     999903    2    3    3    0    0 -0.16457571557E-01 -0.12630928383E+00 -0.64643770026E-02  0.12911497910E+00  0.20099821259E-01 0.  0.
         14    1    1    2    0    0 -0.20539895140E-01  0.37191852955E-02 -0.14304261733E-01  0.25304772976E-01  0.00000000000E+00 0.  1.
     999901    1    3    3    0    0  0.36997466697E-01  0.12259009854E+00  0.20768638736E-01  0.88951024792E+00  0.88000000000E+00 0.  1.
        -11    1    4    4    0    0 -0.73374540422E-02 -0.25671953871E-01  0.57849241023E-02  0.27324236774E-01  0.51100000000E-03 0. -1.
         11    1    4    4    0    0 -0.91201175150E-02 -0.10063732996E+00 -0.12249301105E-01  0.10179074233E+00  0.51100000000E-03 0.  1.
</event>
<event>
 8    1  0.1095698E+005  0.1043930E+01  0.7957747E-01            NaN
         13   -1    0    0    0    0  0.00000000000E+00  0.00000000000E+00  0.74505805969E-08  0.10566000000E+00  0.10566000000E+00 0.  1.
     999900   -1    0    0    0    0 -0.00000000000E+00 -0.00000000000E+00 -0.74505805969E-08  0.93827000000E+00  0.93827000000E+00 0. -1.
     999902    2    1    2    0    0 -0.27462284686E-03 -0.20087300250E-01 -0.13806125886E-01  0.10195541070E+01  0.10192626712E+01 0.  0.
     999903    2    3    3    0    0 -0.19586049879E-01 -0.59144224550E-01  0.11213783996E+00  0.12952025532E+00  0.17859136007E-01 0.  0.
         14    1    1    2    0    0  0.27462284686E-03  0.20087300250E-01  0.13806125886E-01  0.24375893030E-01  0.00000000000E+00 0.  1.
     999901    1    3    3    0    0  0.19311427032E-01  0.39056924301E-01 -0.12594396585E+00  0.89003385165E+00  0.88000000000E+00 0. -1.
        -11    1    4    4    0    0 -0.91866923162E-02 -0.22485119815E-01  0.61649652068E-01  0.66263992107E-01  0.51100000000E-03 0.  1.
         11    1    4    4    0    0 -0.10399357562E-01 -0.36659104735E-01  0.50488187895E-01  0.63256263213E-01  0.51100000000E-03 0. -1.
</event>
<event>
 8    1  0.1095698E+005  0.1043930E+01  0.7957747E-01            NaN
         13   -1    0    0    0    0  0.00000000000E+00  0.00000000000E+00  0.74505805969E-08  0.10566000000E+00  0.10566000000E+00 0.  1.
     999900   -1    0    0    0    0 -0.00000000000E+00 -0.00000000000E+00 -0.74505805969E-08  0.93827000000E+00  0.93827000000E+00 0. -1.
     999902    2    1    2    0    0 -0.98453131998E-02 -0.92918817301E-02  0.20579857369E-01  0.10192966935E+01  0.10189989939E+01 0.  0.
     999903    2    3    3    0    0  0.11211260673E+00 -0.42302378583E-01  0.46163296189E-01  0.12990480045E+00  0.19633630463E-01 0.  0.
         14    1    1    2    0    0  0.98453131998E-02  0.92918817301E-02 -0.20579857369E-01  0.24633306466E-01  0.00000000000E+00 0. -1.
     999901    1    3    3    0    0 -0.12195791993E+00  0.33010496853E-01 -0.25583438820E-01  0.88939189308E+00  0.88000000000E+00 0.  1.
        -11    1    4    4    0    0  0.37017175005E-01 -0.23598352697E-01  0.13812141611E-01  0.46023796804E-01  0.51100000000E-03 0. -1.
         11    1    4    4    0    0  0.75095431722E-01 -0.18704025885E-01  0.32351154578E-01  0.83881003650E-01  0.51100000000E-03 0.  1.
</event>
<event>
 8    1  0.1095698E+005  0.1043930E+01  0.7957747E-01            NaN
         13   -1    0    0    0    0  0.00000000000E+00  0.00000000000E+00  0.74505805969E-08  0.10566000000E+00  0.10566000000E+00 0.  1.
     999900   -1    0    0    0    0 -0.00000000000E+00 -0.00000000000E+00 -0.74505805969E-08  0.93827000000E+00  0.93827000000E+00 0. -1.
     999902    2    1    2    0    0  0.12342287808E-01  0.64494216311E-02 -0.19195341694E-01  0.10202152736E+01  0.10199396140E+01 0.  0.
     999903    2    3    3    0    0  0.28197052316E-01 -0.11264290494E+00  0.52844434599E-01  0.12913498246E+00  0.19995290279E-01 0.  0.
         14    1    1    2    0    0 -0.12342287808E-01 -0.64494216311E-02  0.19195341694E-01  0.23714726447E-01  0.00000000000E+00 0. -1.
     999901    1    3    3    0    0 -0.15854764508E-01  0.11909232657E+00 -0.72039776294E-01  0.89108029109E+00  0.88000000000E+00 0.  1.
        -11    1    4    4    0    0  0.84041783650E-02 -0.65991698171E-01  0.23392484006E-01  0.70519528292E-01  0.51100000000E-03 0.  1.
         11    1    4    4    0    0  0.19792873951E-01 -0.46651206772E-01  0.29451950594E-01  0.58615454168E-01  0.51100000000E-03 0. -1.
</event>
<event>
 8    1  0.1095698E+005  0.1043930E+01  0.7957747E-01            NaN
         13   -1    0    0    0    0  0.00000000000E+00  0.00000000000E+00  0.74505805969E-08  0.10566000000E+00  0.10566000000E+00 0.  1.
     999900   -1    0    0    0    0 -0.00000000000E+00 -0.00000000000E+00 -0.74505805969E-08  0.93827000000E+00  0.93827000000E+00 0. -1.
     999902    2    1    2    0    0 -0.92941258969E-02  0.10390574921E-01 -0.19532083193E-01  0.10199331857E+01  0.10196508501E+01 0.  0.
     999903    2    3    3    0    0 -0.75063405849E-01  0.79621547693E-01  0.67951284325E-01  0.13045476247E+00  0.20663064989E-01 0.  0.
         14    1    1    2    0    0  0.92941258969E-02 -0.10390574921E-01  0.19532083193E-01  0.23996814314E-01  0.00000000000E+00 0.  1.
     999901    1    3    3    0    0  0.65769279952E-01 -0.69230972772E-01 -0.87483367518E-01  0.88947842322E+00  0.88000000000E+00 0. -1.
        -11    1    4    4    0    0 -0.35134643648E-01  0.44098634346E-01  0.45625862428E-01  0.72533531410E-01  0.51100000000E-03 0. -1.
         11    1    4    4    0    0 -0.39928762200E-01  0.35522913347E-01  0.22325421897E-01  0.57921231059E-01  0.51100000000E-03 0.  1.
</event>
<event>
 8    1  0.1095698E+005  0.1043930E+01  0.7957747E-01            NaN
         13   -1    0    0    0    0  0.00000000000E+00  0.00000000000E+00  0.74505805969E-08  0.10566000000E+00  0.10566000000E+00 0. -1.
     999900   -1    0    0    0    0 -0.00000000000E+00 -0.00000000000E+00 -0.74505805969E-08  0.93827000000E+00  0.93827000000E+00 0. -1.
     999902    2    1    2    0    0  0.20577200811E-01 -0.50758620859E-02  0.10377721894E-01  0.10203316382E+01  0.10200587087E+01 0.  0.
     999903    2    3    3    0    0  0.75570933337E-01  0.10267566418E+00 -0.25796425969E-01  0.13131911239E+00  0.18055351152E-01 0.  0.
         14    1    1    2    0    0 -0.20577200811E-01  0.50758620859E-02 -0.10377721894E-01  0.23598361825E-01  0.00000000000E+00 0.  1.
     999901    1    3    3    0    0 -0.54993732526E-01 -0.10775152627E+00  0.36174147862E-01  0.88901252579E+00  0.88000000000E+00 0. -1.
        -11    1    4    4    0    0  0.20921823321E-01  0.18853410614E-01 -0.79918687384E-03  0.28179311622E-01  0.51100000000E-03 0.  1.
         11    1    4    4    0    0  0.54649110016E-01  0.83822253569E-01 -0.24997239095E-01  0.10313980077E+00  0.51100000000E-03 0. -1.
</event>
<event>
 8    1  0.1095698E+005  0.1043930E+01  0.7957747E-01            NaN
         13   -1    0    0    0    0  0.00000000000E+00  0.00000000000E+00  0.74505805969E-08  0.10566000000E+00  0.10566000000E+00 0.  1.
     999900   -1    0    0    0    0 -0.00000000000E+00 -0.00000000000E+00 -0.74505805969E-08  0.93827000000E+00  0.93827000000E+00 0. -1.
     999902    2    1    2    0    0  0.16201538732E-01 -0.15516089496E-01 -0.65710794480E-02  0.10205544150E+01  0.10202866734E+01 0.  0.
     999903    2    3    3    0    0  0.10781272403E+00 -0.50130962006E-01 -0.57560100665E-01  0.13365493985E+00  0.20341606266E-01 0.  0.
         14    1    1    2    0    0 -0.16201538732E-01  0.15516089496E-01  0.65710794480E-02  0.23375585033E-01  0.00000000000E+00 0.  1.
     999901    1    3    3    0    0 -0.91611185293E-01  0.34614872510E-01  0.50989021217E-01  0.88689947511E+00  0.88000000000E+00 0.  1.
        -11    1    4    4    0    0  0.94868871925E-01 -0.36379369813E-01 -0.46261979022E-01  0.11164225559E+00  0.51100000000E-03 0.  1.
         11    1    4    4    0    0  0.12943852101E-01 -0.13751592193E-01 -0.11298121643E-01  0.22012684269E-01  0.51100000000E-03 0. -1.
</event>
<event>
 8    1  0.1095698E+005  0.1043930E+01  0.7957747E-01            NaN
         13   -1    0    0    0    0  0.00000000000E+00  0.00000000000E+00  0.74505805969E-08  0.10566000000E+00  0.10566000000E+00 0.  1.
     999900   -1    0    0    0    0 -0.00000000000E+00 -0.00000000000E+00 -0.74505805969E-08  0.93827000000E+00  0.93827000000E+00 0. -1.
     999902    2    1    2    0    0  0.56289568312E-02  0.88797397925E-02 -0.20389046465E-01  0.10209899008E+01  0.10207321536E+01 0.  0.
     999903    2    3    3    0    0 -0.41646977530E-02 -0.10012131986E+00 -0.83475527671E-01  0.13196962504E+00  0.20154275331E-01 0.  0.
         14    1    1    2    0    0 -0.56289568312E-02 -0.88797397925E-02  0.20389046465E-01  0.22940099161E-01  0.00000000000E+00 0.  1.
     999901    1    3    3    0    0  0.97936545843E-02  0.10900105965E+00  0.63086481206E-01  0.88902027580E+00  0.88000000000E+00 0.  1.
        -11    1    4    4    0    0  0.27464970764E-02 -0.84006990903E-01 -0.63222809649E-01  0.10517653040E+00  0.51100000000E-03 0.  1.
         11    1    4    4    0    0 -0.69111948294E-02 -0.16114328960E-01 -0.20252718022E-01  0.26793094634E-01  0.51100000000E-03 0. -1.
</event>
<event>
 8    1  0.1095698E+005  0.1043930E+01  0.7957747E-01            NaN
         13   -1    0    0    0    0  0.00000000000E+00  0.00000000000E+00  0.74505805969E-08  0.10566000000E+00  0.10566000000E+00 0.  1.
     999900   -1    0    0    0    0 -0.00000000000E+00 -0.00000000000E+00 -0.74505805969E-08  0.93827000000E+00  0.93827000000E+00 0. -1.
     999902    2    1    2    0    0 -0.17422488984E-01 -0.16909174487E-01 -0.21367048632E-02  0.10195572937E+01  0.10192659350E+01 0.  0.
     999903    2    3    3    0    0  0.75678711595E-01 -0.18519688121E-01 -0.10106109692E+00  0.12913241611E+00  0.19788616536E-01 0.  0.
         14    1    1    2    0    0  0.17422488984E-01  0.16909174487E-01  0.21367048632E-02  0.24372706290E-01  0.00000000000E+00 0.  1.
     999901    1    3    3    0    0 -0.93101200579E-01  0.16105136341E-02  0.98924392052E-01  0.89042487760E+00  0.88000000000E+00 0.  1.
        -11    1    4    4    0    0  0.11330874423E-01  0.42078721440E-02 -0.16752947573E-01  0.20664396351E-01  0.51100000000E-03 0.  1.
         11    1    4    4    0    0  0.64347837173E-01 -0.22727560265E-01 -0.84308149342E-01  0.10846801976E+00  0.51100000000E-03 0. -1.
</event>
<event>
 8    1  0.1095698E+005  0.1043930E+01  0.7957747E-01            NaN
         13   -1    0    0    0    0  0.00000000000E+00  0.00000000000E+00  0.74505805969E-08  0.10566000000E+00  0.10566000000E+00 0. -1.
     999900   -1    0    0    0    0 -0.00000000000E+00 -0.00000000000E+00 -0.74505805969E-08  0.93827000000E+00  0.93827000000E+00 0. -1.
     999902    2    1    2    0    0  0.15037581651E-01 -0.19116395682E-01 -0.74298565466E-02  0.10184983619E+01  0.10181808018E+01 0.  0.
     999903    2    3    3    0    0 -0.12452234189E+00  0.42231094312E-02 -0.16839447636E-01  0.12714532013E+00  0.18939829736E-01 0.  0.
         14    1    1    2    0    0 -0.15037581651E-01  0.19116395682E-01  0.74298565466E-02  0.25431638054E-01  0.00000000000E+00 0. -1.
     999901    1    3    3    0    0  0.13955992354E+00 -0.23339505113E-01  0.94095910898E-02  0.89135304182E+00  0.88000000000E+00 0.  1.
        -11    1    4    4    0    0 -0.31948567634E-01 -0.60490037033E-02 -0.16134747308E-03  0.32520586921E-01  0.51100000000E-03 0. -1.
         11    1    4    4    0    0 -0.92573774255E-01  0.10272113135E-01 -0.16678100163E-01  0.94624733205E-01  0.51100000000E-03 0.  1.
</event>
<event>
 8    1  0.1095698E+005  0.1043930E+01  0.7957747E-01            NaN
         13   -1    0    0    0    0  0.00000000000E+00  0.00000000000E+00  0.74505805969E-08  0.10566000000E+00  0.10566000000E+00 0.  1.
     999900   -1    0    0    0    0 -0.00000000000E+00 -0.00000000000E+00 -0.74505805969E-08  0.93827000000E+00  0.93827000000E+00 0. -1.
     999902    2    1    2    0    0  0.14741128416E-01  0.19725651395E-01 -0.61662286802E-03  0.10192970462E+01  0.10189993552E+01 0.  0.
     999903    2    3    3    0    0 -0.95052616076E-01  0.43341510550E-01  0.73070087446E-01  0.12910487232E+00  0.20379990616E-01 0.  0.
         14    1    1    2    0    0 -0.14741128416E-01 -0.19725651395E-01  0.61662286802E-03  0.24632953816E-01  0.00000000000E+00 0.  1.
     999901    1    3    3    0    0  0.10979374449E+00 -0.23615859155E-01 -0.73686710314E-01  0.89019217386E+00  0.88000000000E+00 0. -1.
        -11    1    4    4    0    0 -0.13002377226E-01  0.97420241580E-02  0.40745728757E-02  0.16758046227E-01  0.51100000000E-03 0.  1.
         11    1    4    4    0    0 -0.82050238850E-01  0.33599486392E-01  0.68995514571E-01  0.11234682609E+00  0.51100000000E-03 0. -1.
</event>
<event>
 8    1  0.1095698E+005  0.1043930E+01  0.7957747E-01            NaN
         13   -1    0    0    0    0  0.00000000000E+00  0.00000000000E+00  0.74505805969E-08  0.10566000000E+00  0.10566000000E+00 0.  1.
     999900   -1    0    0    0    0 -0.00000000000E+00 -0.00000000000E+00 -0.74505805969E-08  0.93827000000E+00  0.93827000000E+00 0.  1.
     999902    2    1    2    0    0  0.14265163954E-01 -0.18472150525E-01 -0.21484035862E-03  0.10205898757E+01  0.10203229552E+01 0.  0.
     999903    2    3    3    0    0 -0.88800010627E-01  0.67838230461E-01 -0.60079841767E-01  0.12837032282E+00  0.19541877997E-01 0.  0.
         14    1    1    2    0    0 -0.14265163954E-01  0.18472150525E-01  0.21484035862E-03  0.23340124336E-01  0.00000000000E+00 0. -1.
     999901    1    3    3    0    0  0.10306517458E+00 -0.86310380986E-01  0.59865001408E-01  0.89221955284E+00  0.88000000000E+00 0. -1.
        -11    1    4    4    0    0 -0.26762839788E-01  0.26507194042E-01 -0.29279075024E-01  0.47711699663E-01  0.51100000000E-03 0.  1.
         11    1    4    4    0    0 -0.62037170839E-01  0.41331036419E-01 -0.30800766743E-01  0.80658623161E-01  0.51100000000E-03 0. -1.
</event>
<event>
 8    1  0.1095698E+005  0.1043930E+01  0.7957747E-01            NaN
         13   -1    0    0    0    0  0.00000000000E+00  0.00000000000E+00  0.74505805969E-08  0.10566000000E+00  0.10566000000E+00 0.  1.
     999900   -1    0    0    0    0 -0.00000000000E+00 -0.00000000000E+00 -0.74505805969E-08  0.93827000000E+00  0.93827000000E+00 0.  1.
     999902    2    1    2    0    0  0.11116998742E-01  0.18088002504E-01  0.96349018704E-02  0.10206148798E+01  0.10203485375E+01 0.  0.
     999903    2    3    3    0    0  0.10137707171E+00  0.82159466512E-01 -0.18231093195E-01  0.13324317249E+00  0.19846451792E-01 0.  0.
         14    1    1    2    0    0 -0.11116998742E-01 -0.18088002504E-01 -0.96349018704E-02  0.23315120194E-01  0.00000000000E+00 0. -1.
     999901    1    3    3    0    0 -0.90260072968E-01 -0.64071464008E-01  0.27865995066E-01  0.88737170732E+00  0.88000000000E+00 0.  1.
        -11    1    4    4    0    0  0.19685185531E-01  0.25301664257E-01 -0.35344593126E-04  0.32061551956E-01  0.51100000000E-03 0.  1.
         11    1    4    4    0    0  0.81691886179E-01  0.56857802255E-01 -0.18195748602E-01  0.10118162053E+00  0.51100000000E-03 0. -1.
</event>
<event>
 8    1  0.1095698E+005  0.1043930E+01  0.7957747E-01            NaN
         13   -1    0    0    0    0  0.00000000000E+00  0.00000000000E+00  0.74505805969E-08  0.10566000000E+00  0.10566000000E+00 0.  1.
     999900   -1    0    0    0    0 -0.00000000000E+00 -0.00000000000E+00 -0.74505805969E-08  0.93827000000E+00  0.93827000000E+00 0. -1.
     999902    2    1    2    0    0  0.20150189865E-01  0.60076049434E-02 -0.12682085969E-01  0.10193748219E+01  0.10190790306E+01 0.  0.
     999903    2    3    3    0    0  0.12393737782E-01 -0.10468152924E-01 -0.12900845698E+00  0.13153281016E+00  0.19862306391E-01 0.  0.
         14    1    1    2    0    0 -0.20150189865E-01 -0.60076049434E-02  0.12682085969E-01  0.24555178135E-01  0.00000000000E+00 0.  1.
     999901    1    3    3    0    0  0.77564520830E-02  0.16475757868E-01  0.11632637101E+00  0.88784201170E+00  0.88000000000E+00 0.  1.
        -11    1    4    4    0    0  0.90666932384E-02 -0.55255153881E-03 -0.19422766732E-01  0.21447965591E-01  0.51100000000E-03 0.  1.
         11    1    4    4    0    0  0.33270445432E-02 -0.99156013857E-02 -0.10958569025E+00  0.11008484457E+00  0.51100000000E-03 0. -1.
</event>
<event>
 8    1  0.1095698E+005  0.1043930E+01  0.7957747E-01            NaN
         13   -1    0    0    0    0  0.00000000000E+00  0.00000000000E+00  0.74505805969E-08  0.10566000000E+00  0.10566000000E+00 0. -1.
     999900   -1    0    0    0    0 -0.00000000000E+00 -0.00000000000E+00 -0.74505805969E-08  0.93827000000E+00  0.93827000000E+00 0.  1.
     999902    2    1    2    0    0  0.11898188847E-01 -0.16027420298E-01  0.13799479164E-01  0.10196633413E+01  0.10193745430E+01 0.  0.
     999903    2    3    3    0    0 -0.12161282873E+00  0.31387049527E-01  0.16733169662E-01  0.12832618270E+00  0.20317066925E-01 0.  0.
         14    1    1    2    0    0 -0.11898188847E-01  0.16027420298E-01 -0.13799479164E-01  0.24266658700E-01  0.00000000000E+00 0.  1.
     999901    1    3    3    0    0  0.13351101758E+00 -0.47414469825E-01 -0.29336904981E-02  0.89133715860E+00  0.88000000000E+00 0.  1.
        -11    1    4    4    0    0 -0.11525965498E+00  0.24675714436E-01  0.14163156516E-01  0.11872040714E+00  0.51100000000E-03 0. -1.
         11    1    4    4    0    0 -0.63531737564E-02  0.67113350904E-02  0.25700131464E-02  0.96057755568E-02  0.51100000000E-03 0.  1.
</event>
<event>
 8    1  0.1095698E+005  0.1043930E+01  0.7957747E-01            NaN
         13   -1    0    0    0    0  0.00000000000E+00  0.00000000000E+00  0.74505805969E-08  0.10566000000E+00  0.10566000000E+00 0. -1.
     999900   -1    0    0    0    0 -0.00000000000E+00 -0.00000000000E+00 -0.74505805969E-08  0.93827000000E+00  0.93827000000E+00 0. -1.
     999902    2    1    2    0    0 -0.11351011834E-01 -0.12134475008E-01  0.14780099830E-01  0.10216916929E+01  0.10214496429E+01 0.  0.
     999903    2    3    3    0    0  0.14843753519E-01 -0.12986240591E+00 -0.14764783331E-01  0.13297411592E+00  0.19481662966E-01 0.  0.
         14    1    1    2    0    0  0.11351011834E-01  0.12134475008E-01 -0.14780099830E-01  0.22238307138E-01  0.00000000000E+00 0.  1.
     999901    1    3    3    0    0 -0.26194765353E-01  0.11772793090E+00  0.29544883161E-01  0.88871757694E+00  0.88000000000E+00 0. -1.
        -11    1    4    4    0    0  0.19566894718E-02 -0.59281677045E-01 -0.15163213028E-01  0.61223606700E-01  0.51100000000E-03 0. -1.
         11    1    4    4    0    0  0.12887064047E-01 -0.70580728860E-01  0.39842969723E-03  0.71750509220E-01  0.51100000000E-03 0.  1.
</event>
<event>
 8    1  0.1095698E+005  0.1043930E+01  0.7957747E-01            NaN
         13   -1    0    0    0    0  0.00000000000E+00  0.00000000000E+00  0.74505805969E-08  0.10566000000E+00  0.10566000000E+00 0.  1.
     999900   -1    0    0    0    0 -0.00000000000E+00 -0.00000000000E+00 -0.74505805969E-08  0.93827000000E+00  0.93827000000E+00 0. -1.
     999902    2    1    2    0    0  0.17081283601E-01  0.23423417690E-01 -0.60044885189E-02  0.10143245845E+01  0.10138924411E+01 0.  0.
     999903    2    3    3    0    0 -0.60650805460E-03 -0.25148079742E-01 -0.12112956954E+00  0.12532186648E+00  0.20010093318E-01 0.  0.
         14    1    1    2    0    0 -0.17081283601E-01 -0.23423417690E-01  0.60044885189E-02  0.29605415520E-01  0.00000000000E+00 0. -1.
     999901    1    3    3    0    0  0.17687791655E-01  0.48571497432E-01  0.11512508102E+00  0.88900271800E+00  0.88000000000E+00 0.  1.
        -11    1    4    4    0    0  0.70080240068E-02 -0.36134635422E-02 -0.49793022966E-01  0.50416026979E-01  0.51100000000E-03 0.  1.
         11    1    4    4    0    0 -0.76145320614E-02 -0.21534616200E-01 -0.71336546571E-01  0.74905839499E-01  0.51100000000E-03 0. -1.
</event>
<event>
 8    1  0.1095698E+005  0.1043930E+01  0.7957747E-01            NaN
         13   -1    0    0    0    0  0.00000000000E+00  0.00000000000E+00  0.74505805969E-08  0.10566000000E+00  0.10566000000E+00 0. -1.
     999900   -1    0    0    0    0 -0.00000000000E+00 -0.00000000000E+00 -0.74505805969E-08  0.93827000000E+00  0.93827000000E+00 0. -1.
     999902    2    1    2    0    0 -0.89748423990E-02  0.60352518051E-03  0.22753193725E-01  0.10194632907E+01  0.10191696528E+01 0.  0.
     999903    2    3    3    0    0  0.74915423758E-01  0.73654172493E-01  0.75467573589E-01  0.13089546568E+00  0.20025244840E-01 0.  0.
         14    1    1    2    0    0  0.89748423990E-02 -0.60352518051E-03 -0.22753193725E-01  0.24466709289E-01  0.00000000000E+00 0.  1.
     999901    1    3    3    0    0 -0.83890266157E-01 -0.73050647312E-01 -0.52714379864E-01  0.88856782503E+00  0.88000000000E+00 0. -1.
        -11    1    4    4    0    0  0.25907219944E-01  0.13926823314E-01  0.16738723787E-01  0.33846513083E-01  0.51100000000E-03 0.  1.
         11    1    4    4    0    0  0.49008203814E-01  0.59727349179E-01  0.58728849802E-01  0.97048952601E-01  0.51100000000E-03 0. -1.
</event>
<event>
 8    1  0.1095698E+005  0.1043930E+01  0.7957747E-01            NaN
         13   -1    0    0    0    0  0.00000000000E+00  0.00000000000E+00  0.74505805969E-08  0.10566000000E+00  0.10566000000E+00 0. -1.
     999900   -1    0    0    0    0 -0.00000000000E+00 -0.00000000000E+00 -0.74505805969E-08  0.93827000000E+00  0.93827000000E+00 0.  1.
     999902    2    1    2    0    0 -0.15340367557E-01 -0.13221526132E-01 -0.12479617524E-01  0.10201418415E+01  0.10198644519E+01 0.  0.
     999903    2    3    3    0    0 -0.15314423384E-01  0.12478248190E+00 -0.23322214950E-01  0.12932049646E+00  0.19356284327E-01 0.  0.
         14    1    1    2    0    0  0.15340367557E-01  0.13221526132E-01  0.12479617524E-01  0.23788158474E-01  0.00000000000E+00 0. -1.
     999901    1    3    3    0    0 -0.25944172705E-04 -0.13800400803E+00  0.10842597426E-01  0.89082134507E+00  0.88000000000E+00 0.  1.
        -11    1    4    4    0    0 -0.14351138335E-01  0.65750943378E-01 -0.19893371194E-01  0.70179406274E-01  0.51100000000E-03 0. -1.
         11    1    4    4    0    0 -0.96328504911E-03  0.59031538519E-01 -0.34288437564E-02  0.59141090187E-01  0.51100000000E-03 0.  1.
</event>
<event>
 8    1  0.1095698E+005  0.1043930E+01  0.7957747E-01            NaN
         13   -1    0    0    0    0  0.00000000000E+00  0.00000000000E+00  0.74505805969E-08  0.10566000000E+00  0.10566000000E+00 0. -1.
     999900   -1    0    0    0    0 -0.00000000000E+00 -0.00000000000E+00 -0.74505805969E-08  0.93827000000E+00  0.93827000000E+00 0. -1.
     999902    2    1    2    0    0  0.98251487725E-02 -0.21233754725E-01  0.37901641834E-02  0.10202282863E+01  0.10199529327E+01 0.  0.
     999903    2    3    3    0    0  0.10315726992E+00  0.69295034618E-01 -0.31878525249E-01  0.12995944940E+00  0.20736295644E-01 0.  0.
         14    1    1    2    0    0 -0.98251487725E-02  0.21233754725E-01 -0.37901641834E-02  0.23701713707E-01  0.00000000000E+00 0.  1.
     999901    1    3    3    0    0 -0.93332121144E-01 -0.90528789342E-01  0.35668689432E-01  0.89026883689E+00  0.88000000000E+00 0. -1.
        -11    1    4    4    0    0  0.28437478894E-01  0.22192055069E-01 -0.18759788548E-01  0.40661631809E-01  0.51100000000E-03 0.  1.
         11    1    4    4    0    0  0.74719791023E-01  0.47102979549E-01 -0.13118736700E-01  0.89297817591E-01  0.51100000000E-03 0. -1.
</event>
<event>
 8    1  0.1095698E+005  0.1043930E+01  0.7957747E-01            NaN
         13   -1    0    0    0    0  0.00000000000E+00  0.00000000000E+00  0.74505805969E-08  0.10566000000E+00  0.10566000000E+00 0.  1.
     999900   -1    0    0    0    0 -0.00000000000E+00 -0.00000000000E+00 -0.74505805969E-08  0.93827000000E+00  0.93827000000E+00 0.  1.
     999902    2    1    2    0    0  0.23227993447E-01 -0.27529896979E-02  0.44056393024E-02  0.10201281453E+01  0.10198504324E+01 0.  0.
     999903    2    3    3    0    0 -0.10808043855E+00 -0.64152348144E-01  0.14958235007E-01  0.12820710457E+00  0.20406075062E-01 0.  0.
         14    1    1    2    0    0 -0.23227993447E-01  0.27529896979E-02 -0.44056393024E-02  0.23801854749E-01  0.00000000000E+00 0.  1.
     999901    1    3    3    0    0  0.13130843199E+00  0.61399358446E-01 -0.10552595704E-01  0.89192104068E+00  0.88000000000E+00 0. -1.
        -11    1    4    4    0    0 -0.15840511319E-01 -0.52277900479E-02  0.80628151587E-02  0.18534338318E-01  0.51100000000E-03 0.  1.
         11    1    4    4    0    0 -0.92239927227E-01 -0.58924558096E-01  0.68954198480E-02  0.10967276625E+00  0.51100000000E-03 0. -1.
</event>
<event>
 8    1  0.1095698E+005  0.1043930E+01  0.7957747E-01            NaN
         13   -1    0    0    0    0  0.00000000000E+00  0.00000000000E+00  0.74505805969E-08  0.10566000000E+00  0.10566000000E+00 0. -1.
     999900   -1    0    0    0    0 -0.00000000000E+00 -0.00000000000E+00 -0.74505805969E-08  0.93827000000E+00  0.93827000000E+00 0.  1.
     999902    2    1    2    0    0  0.22201515153E-01 -0.65602273345E-02  0.48444998658E-02  0.10202780860E+01  0.10200039018E+01 0.  0.
     999903    2    3    3    0    0  0.10052818145E+00  0.21923849531E-02 -0.83699340265E-01  0.13233006582E+00  0.19873221754E-01 0.  0.
         14    1    1    2    0    0 -0.22201515153E-01  0.65602273345E-02 -0.48444998658E-02  0.23651914019E-01  0.00000000000E+00 0.  1.
     999901    1    3    3    0    0 -0.78326666297E-01 -0.87526122876E-02  0.88543840130E-01  0.88794802016E+00  0.88000000000E+00 0. -1.
        -11    1    4    4    0    0  0.68966030564E-01  0.79410269485E-02 -0.65483256142E-01  0.95434224661E-01  0.51100000000E-03 0.  1.
         11    1    4    4    0    0  0.31562150887E-01 -0.57486419955E-02 -0.18216084123E-01  0.36895841164E-01  0.51100000000E-03 0. -1.
</event>
<event>
 8    1  0.1095698E+005  0.1043930E+01  0.7957747E-01            NaN
         13   -1    0    0    0    0  0.00000000000E+00  0.00000000000E+00  0.74505805969E-08  0.10566000000E+00  0.10566000000E+00 0.  1.
     999900   -1    0    0    0    0 -0.00000000000E+00 -0.00000000000E+00 -0.74505805969E-08  0.93827000000E+00  0.93827000000E+00 0.  1.
     999902    2    1    2    0    0  0.11206610581E-01  0.20761353075E-01  0.91442520266E-02  0.10186270506E+01  0.10183127363E+01 0.  0.
     999903    2    3    3    0    0  0.60009136453E-01  0.10709428675E+00 -0.41486782512E-01  0.13161038582E+00  0.23018640725E-01 0.  0.
         14    1    1    2    0    0 -0.11206610581E-01 -0.20761353075E-01 -0.91442520266E-02  0.25302949380E-01  0.00000000000E+00 0. -1.
     999901    1    3    3    0    0 -0.48802525872E-01 -0.86332933677E-01  0.50631034538E-01  0.88701666480E+00  0.88000000000E+00 0. -1.
        -11    1    4    4    0    0  0.33946229319E-01  0.38663615111E-01 -0.20970329034E-01  0.55562914244E-01  0.51100000000E-03 0. -1.
         11    1    4    4    0    0  0.26062907134E-01  0.68430671640E-01 -0.20516453478E-01  0.76047471580E-01  0.51100000000E-03 0.  1.
</event>
<event>
 8    1  0.1095698E+005  0.1043930E+01  0.7957747E-01            NaN
         13   -1    0    0    0    0  0.00000000000E+00  0.00000000000E+00  0.74505805969E-08  0.10566000000E+00  0.10566000000E+00 0.  1.
     999900   -1    0    0    0    0 -0.00000000000E+00 -0.00000000000E+00 -0.74505805969E-08  0.93827000000E+00  0.93827000000E+00 0. -1.
     999902    2    1    2    0    0 -0.15383189808E-01 -0.14090478731E-01 -0.10581466959E-01  0.10205387289E+01  0.10202706237E+01 0.  0.
     999903    2    3    3    0    0 -0.61617293845E-01  0.62935363180E-01  0.93226353848E-01  0.12989478415E+00  0.20590071850E-01 0.  0.
         14    1    1    2    0    0  0.15383189808E-01  0.14090478731E-01  0.10581466959E-01  0.23391271075E-01  0.00000000000E+00 0.  1.
     999901    1    3    3    0    0  0.46234104038E-01 -0.77025841910E-01 -0.10380782081E+00  0.89064394477E+00  0.88000000000E+00 0. -1.
        -11    1    4    4    0    0 -0.58716544648E-02  0.40564481519E-02  0.17674105219E-01  0.19067412359E-01  0.51100000000E-03 0. -1.
         11    1    4    4    0    0 -0.55745639381E-01  0.58878915028E-01  0.75552248629E-01  0.11082737179E+00  0.51100000000E-03 0.  1.
</event>
<event>
 8    1  0.1095698E+005  0.1043930E+01  0.7957747E-01            NaN
         13   -1    0    0    0    0  0.00000000000E+00  0.00000000000E+00  0.74505805969E-08  0.10566000000E+00  0.10566000000E+00 0. -1.
     999900   -1    0    0    0    0 -0.00000000000E+00 -0.00000000000E+00 -0.74505805969E-08  0.93827000000E+00  0.93827000000E+00 0.  1.
     999902    2    1    2    0    0 -0.38286230695E-02  0.10973803500E-01 -0.20225564426E-01  0.10206028447E+01  0.10203362242E+01 0.  0.
     999903    2    3    3    0    0  0.12103500999E+00 -0.35102835712E-01 -0.27803170576E-01  0.13056273119E+00  0.19797165557E-01 0.  0.
         14    1    1    2    0    0  0.38286230695E-02 -0.10973803500E-01  0.20225564426E-01  0.23327155296E-01  0.00000000000E+00 0. -1.
     999901    1    3    3    0    0 -0.12486363306E+00  0.46076639211E-01  0.75776061505E-02  0.89004011351E+00  0.88000000000E+00 0. -1.
        -11    1    4    4    0    0  0.98784604435E-01 -0.20414679407E-01 -0.20861431331E-01  0.10300785236E+00  0.51100000000E-03 0. -1.
         11    1    4    4    0    0  0.22250405556E-01 -0.14688156305E-01 -0.69417392454E-02  0.27554878839E-01  0.51100000000E-03 0.  1.
</event>
<event>
 8    1  0.1095698E+005  0.1043930E+01  0.7957747E-01            NaN
         13   -1    0    0    0    0  0.00000000000E+00  0.00000000000E+00  0.74505805969E-08  0.10566000000E+00  0.10566000000E+00 0.  1.
     999900   -1    0    0    0    0 -0.00000000000E+00 -0.00000000000E+00 -0.74505805969E-08  0.93827000000E+00  0.93827000000E+00 0. -1.
     999902    2    1    2    0    0  0.14131312310E-01 -0.10689999798E-01 -0.68701078089E-02  0.10249255672E+01  0.10247493596E+01 0.  0.
     999903    2    3    3    0    0 -0.38157436356E-01  0.84136591988E-02  0.12530546520E+00  0.13331497672E+00  0.23337604795E-01 0.  0.
         14    1    1    2    0    0 -0.14131312310E-01  0.10689999798E-01  0.68701078089E-02  0.19004432761E-01  0.00000000000E+00 0.  1.
     999901    1    3    3    0    0  0.52288748666E-01 -0.19103658997E-01 -0.13217557301E+00  0.89161059052E+00  0.88000000000E+00 0. -1.
        -11    1    4    4    0    0 -0.31571172785E-02  0.37038654906E-02  0.48862622327E-01  0.49107056425E-01  0.51100000000E-03 0.  1.
         11    1    4    4    0    0 -0.35000319078E-01  0.47097937082E-02  0.76442842877E-01  0.84207920295E-01  0.51100000000E-03 0. -1.
</event>
<event>
 8    1  0.1095698E+005  0.1043930E+01  0.7957747E-01            NaN
         13   -1    0    0    0    0  0.00000000000E+00  0.00000000000E+00  0.74505805969E-08  0.10566000000E+00  0.10566000000E+00 0. -1.
     999900   -1    0    0    0    0 -0.00000000000E+00 -0.00000000000E+00 -0.74505805969E-08  0.93827000000E+00  0.93827000000E+00 0. -1.
     999902    2    1    2    0    0  0.25901739418E-02 -0.89171391704E-02  0.21437442023E-01  0.10205678877E+01  0.10203004582E+01 0.  0.
     999903    2    3    3    0    0  0.10947109334E+00  0.43668533511E-01 -0.50072793244E-01  0.12966806297E+00  0.20387761889E-01 0.  0.
         14    1    1    2    0    0 -0.25901739418E-02  0.89171391704E-02 -0.21437442023E-01  0.23362112330E-01  0.00000000000E+00 0.  1.
     999901    1    3    3    0    0 -0.10688091940E+00 -0.52585672681E-01  0.71510235266E-01  0.89089982470E+00  0.88000000000E+00 0.  1.
        -11    1    4    4    0    0  0.18475120715E-01  0.15604966746E-01 -0.72186803677E-02  0.25243128567E-01  0.51100000000E-03 0. -1.
         11    1    4    4    0    0  0.90995972626E-01  0.28063566764E-01 -0.42854112876E-01  0.10442493440E+00  0.51100000000E-03 0.  1.
</event>
<event>
 8    1  0.1095698E+005  0.1043930E+01  0.7957747E-01            NaN
         13   -1    0    0    0    0  0.00000000000E+00  0.00000000000E+00  0.74505805969E-08  0.10566000000E+00  0.10566000000E+00 0.  1.
     999900   -1    0    0    0    0 -0.00000000000E+00 -0.00000000000E+00 -0.74505805969E-08  0.93827000000E+00  0.93827000000E+00 0. -1.
     999902    2    1    2    0    0 -0.16774550829E-01  0.20508191830E-02  0.28679066444E-01  0.10106421604E+01  0.10100938056E+01 0.  0.
     999903    2    3    3    0    0 -0.94996603818E-01 -0.22333415786E-02  0.79960789674E-01  0.12567500915E+00  0.19264928972E-01 0.  0.
         14    1    1    2    0    0  0.16774550829E-01 -0.20508191830E-02 -0.28679066444E-01  0.33287839625E-01  0.00000000000E+00 0.  1.
     999901    1    3    3    0    0  0.78222052988E-01  0.42841607616E-02 -0.51281723230E-01  0.88496715122E+00  0.88000000000E+00 0. -1.
        -11    1    4    4    0    0 -0.43858102357E-01 -0.10103689275E-01  0.33153415690E-01  0.55901947839E-01  0.51100000000E-03 0. -1.
         11    1    4    4    0    0 -0.51138501461E-01  0.78703476963E-02  0.46807373984E-01  0.69773061312E-01  0.51100000000E-03 0.  1.
</event>
<event>
 8    1  0.1095698E+005  0.1043930E+01  0.7957747E-01            NaN
         13   -1    0    0    0    0  0.00000000000E+00  0.00000000000E+00  0.74505805969E-08  0.10566000000E+00  0.10566000000E+00 0. -1.
     999900   -1    0    0    0    0 -0.00000000000E+00 -0.00000000000E+00 -0.74505805969E-08  0.93827000000E+00  0.93827000000E+00 0. -1.
     999902    2    1    2    0    0  0.18266731082E-01  0.14313002790E-01 -0.39042116574E-02  0.10203975037E+01  0.10201261134E+01 0.  0.
     999903    2    3    3    0    0  0.45914895700E-01 -0.95317360925E-01 -0.73365366065E-01  0.13044914024E+00  0.20998197806E-01 0.  0.
         14    1    1    2    0    0 -0.18266731082E-01 -0.14313002790E-01  0.39042116574E-02  0.23532496297E-01  0.00000000000E+00 0.  1.
     999901    1    3    3    0    0 -0.27648164618E-01  0.10963036372E+00  0.69461154408E-01  0.88994836346E+00  0.88000000000E+00 0.  1.
        -11    1    4    4    0    0  0.36962249223E-03 -0.16631259067E-01 -0.15029409126E-01  0.22424978453E-01  0.51100000000E-03 0.  1.
         11    1    4    4    0    0  0.45545273208E-01 -0.78686101858E-01 -0.58335956940E-01  0.10802416179E+00  0.51100000000E-03 0. -1.
</event>
<event>
 8    1  0.1095698E+005  0.1043930E+01  0.7957747E-01            NaN
         13   -1    0    0    0    0  0.00000000000E+00  0.00000000000E+00  0.74505805969E-08  0.10566000000E+00  0.10566000000E+00 0.  1.
     999900   -1    0    0    0    0 -0.00000000000E+00 -0.00000000000E+00 -0.74505805969E-08  0.93827000000E+00  0.93827000000E+00 0.  1.
     999902    2    1    2    0    0 -0.10089599058E-01  0.16979244083E-01 -0.11925996975E-01  0.10208578492E+01  0.10205970920E+01 0.  0.
     999903    2    3    3    0    0  0.39168262628E-01 -0.59333212909E-01  0.10512711107E+00  0.12847264194E+00  0.19973164370E-01 0.  0.
         14    1    1    2    0    0  0.10089599058E-01 -0.16979244083E-01  0.11925996975E-01  0.23072150802E-01  0.00000000000E+00 0.  1.
     999901    1    3    3    0    0 -0.49257861686E-01  0.76312456992E-01 -0.11705310804E+00  0.89238520726E+00  0.88000000000E+00 0.  1.
        -11    1    4    4    0    0  0.38339031937E-01 -0.47641594550E-01  0.94959935028E-01  0.11294801142E+00  0.51100000000E-03 0. -1.
         11    1    4    4    0    0  0.82923069130E-03 -0.11691618358E-01  0.10167176037E-01  0.15524630525E-01  0.51100000000E-03 0.  1.
</event>
<event>
 8    1  0.1095698E+005  0.1043930E+01  0.7957747E-01            NaN
         13   -1    0    0    0    0  0.00000000000E+00  0.00000000000E+00  0.74505805969E-08  0.10566000000E+00  0.10566000000E+00 0. -1.
     999900   -1    0    0    0    0 -0.00000000000E+00 -0.00000000000E+00 -0.74505805969E-08  0.93827000000E+00  0.93827000000E+00 0.  1.
     999902    2    1    2    0    0 -0.40271264481E-02  0.23260505811E-01 -0.32142956376E-02  0.10201056307E+01  0.10198273859E+01 0.  0.
     999903    2    3    3    0    0 -0.55418527629E-02  0.10973509346E+00  0.71208218849E-01  0.13273938194E+00  0.21831862428E-01 0.  0.
         14    1    1    2    0    0  0.40271264481E-02 -0.23260505811E-01  0.32142956376E-02  0.23824369341E-01  0.00000000000E+00 0.  1.
     999901    1    3    3    0    0  0.15147263148E-02 -0.86474587649E-01 -0.74422514487E-01  0.88736624872E+00  0.88000000000E+00 0.  1.
        -11    1    4    4    0    0 -0.60596525399E-02  0.78826633957E-01  0.62024820369E-01  0.10048729807E+00  0.51100000000E-03 0. -1.
         11    1    4    4    0    0  0.51779977695E-03  0.30908459504E-01  0.91833984806E-02  0.32252083873E-01  0.51100000000E-03 0.  1.
</event>
<event>
 8    1  0.1095698E+005  0.1043930E+01  0.7957747E-01            NaN
         13   -1    0    0    0    0  0.00000000000E+00  0.00000000000E+00  0.74505805969E-08  0.10566000000E+00  0.10566000000E+00 0. -1.
     999900   -1    0    0    0    0 -0.00000000000E+00 -0.00000000000E+00 -0.74505805969E-08  0.93827000000E+00  0.93827000000E+00 0.  1.
     999902    2    1    2    0    0 -0.20280468345E-03 -0.18883524314E-01  0.13462252974E-01  0.10207381722E+01  0.10204746716E+01 0.  0.
     999903    2    3    3    0    0  0.10902699021E+00  0.13831896643E-01 -0.66076684893E-01  0.12982409697E+00  0.20247516109E-01 0.  0.
         14    1    1    2    0    0  0.20280468345E-03  0.18883524314E-01 -0.13462252974E-01  0.23191827772E-01  0.00000000000E+00 0.  1.
     999901    1    3    3    0    0 -0.10922979489E+00 -0.32715420957E-01  0.79538937867E-01  0.89091407526E+00  0.88000000000E+00 0. -1.
        -11    1    4    4    0    0  0.52629577902E-01  0.25199331340E-02 -0.42342338426E-01  0.67597021217E-01  0.51100000000E-03 0. -1.
         11    1    4    4    0    0  0.56397412305E-01  0.11311963509E-01 -0.23734346467E-01  0.62227075750E-01  0.51100000000E-03 0.  1.
</event>
<event>
 8    1  0.1095698E+005  0.1043930E+01  0.7957747E-01            NaN
         13   -1    0    0    0    0  0.00000000000E+00  0.00000000000E+00  0.74505805969E-08  0.10566000000E+00  0.10566000000E+00 0. -1.
     999900   -1    0    0    0    0 -0.00000000000E+00 -0.00000000000E+00 -0.74505805969E-08  0.93827000000E+00  0.93827000000E+00 0.  1.
     999902    2    1    2    0    0  0.86031502289E-02  0.78046907725E-02  0.18660645294E-01  0.10219493932E+01  0.10217129808E+01 0.  0.
     999903    2    3    3    0    0  0.81276471549E-01  0.54697879734E-01 -0.85523109349E-01  0.13159292666E+00  0.20118977087E-01 0.  0.
         14    1    1    2    0    0 -0.86031502289E-02 -0.78046907725E-02 -0.18660645294E-01  0.21980606787E-01  0.00000000000E+00 0.  1.
     999901    1    3    3    0    0 -0.72673321321E-01 -0.46893188961E-01  0.10418375464E+00  0.89035646655E+00  0.88000000000E+00 0.  1.
        -11    1    4    4    0    0  0.67222545068E-01  0.53463420186E-01 -0.73094186427E-01  0.11278399299E+00  0.51100000000E-03 0. -1.
         11    1    4    4    0    0  0.14053926481E-01  0.12344595479E-02 -0.12428922922E-01  0.18808933673E-01  0.51100000000E-03 0.  1.
</event>
<event>
 8    1  0.1095698E+005  0.1043930E+01  0.7957747E-01            NaN
         13   -1    0    0    0    0  0.00000000000E+00  0.00000000000E+00  0.74505805969E-08  0.10566000000E+00  0.10566000000E+00 0. -1.
     999900   -1    0    0    0    0 -0.00000000000E+00 -0.00000000000E+00 -0.74505805969E-08  0.93827000000E+00  0.93827000000E+00 0.  1.
     999902    2    1    2    0    0  0.19164481834E-01  0.23351130004E-01  0.44910016285E-02  0.10133895067E+01  0.10129292031E+01 0.  0.
     999903    2    3    3    0    0 -0.20163785407E-01  0.11124853468E+00 -0.52562056201E-01  0.12630004233E+00  0.20152325706E-01 0.  0.
         14    1    1    2    0    0 -0.19164481834E-01 -0.23351130004E-01 -0.44910016285E-02  0.30540493317E-01  0.00000000000E+00 0.  1.
     999901    1    3    3    0    0  0.39328267241E-01 -0.87897404674E-01  0.57053057829E-01  0.88708946435E+00  0.88000000000E+00 0. -1.
        -11    1    4    4    0    0 -0.98911762537E-02  0.51219407427E-01 -0.13297402288E-01  0.53836280457E-01  0.51100000000E-03 0. -1.
         11    1    4    4    0    0 -0.10272609153E-01  0.60029127250E-01 -0.39264653913E-01  0.72463761876E-01  0.51100000000E-03 0.  1.
</event>
<event>
 8    1  0.1095698E+005  0.1043930E+01  0.7957747E-01            NaN
         13   -1    0    0    0    0  0.00000000000E+00  0.00000000000E+00  0.74505805969E-08  0.10566000000E+00  0.10566000000E+00 0.  1.
     999900   -1    0    0    0    0 -0.00000000000E+00 -0.00000000000E+00 -0.74505805969E-08  0.93827000000E+00  0.93827000000E+00 0.  1.
     999902    2    1    2    0    0  0.11096034766E-01  0.97940150491E-03 -0.20950341975E-01  0.10202024202E+01  0.10199264582E+01 0.  0.
     999903    2    3    3    0    0 -0.50475431521E-01 -0.80220364304E-01  0.84053751326E-01  0.12812041329E+00  0.19150225915E-01 0.  0.
         14    1    1    2    0    0 -0.11096034766E-01 -0.97940150491E-03  0.20950341975E-01  0.23727579811E-01  0.00000000000E+00 0.  1.
     999901    1    3    3    0    0  0.61571466286E-01  0.81199765809E-01 -0.10500409330E+00  0.89208200690E+00  0.88000000000E+00 0.  1.
        -11    1    4    4    0    0 -0.17993076281E-01 -0.35406421565E-01  0.46887546445E-01  0.61449724285E-01  0.51100000000E-03 0.  1.
         11    1    4    4    0    0 -0.32482355239E-01 -0.44813942739E-01  0.37166204881E-01  0.66670689001E-01  0.51100000000E-03 0. -1.
</event>
<event>
 8    1  0.1095698E+005  0.1043930E+01  0.7957747E-01            NaN
         13   -1    0    0    0    0  0.00000000000E+00  0.00000000000E+00  0.74505805969E-08  0.10566000000E+00  0.10566000000E+00 0.  1.
     999900   -1    0    0    0    0 -0.00000000000E+00 -0.00000000000E+00 -0.74505805969E-08  0.93827000000E+00  0.93827000000E+00 0.  1.
     999902    2    1    2    0    0  0.10977617500E-01  0.19622708790E-01  0.77939293599E-02  0.10201328548E+01  0.10198552531E+01 0.  0.
     999903    2    3    3    0    0 -0.26905149301E-01 -0.66036495171E-01 -0.10472210561E+00  0.12803843075E+00  0.18504447907E-01 0.  0.
         14    1    1    2    0    0 -0.10977617500E-01 -0.19622708790E-01 -0.77939293599E-02  0.23797145230E-01  0.00000000000E+00 0. -1.
     999901    1    3    3    0    0  0.37882766801E-01  0.85659203961E-01  0.11251603497E+00  0.89209442402E+00  0.88000000000E+00 0. -1.
        -11    1    4    4    0    0 -0.13003229126E-01 -0.46443965725E-01 -0.57472885767E-01  0.75030124879E-01  0.51100000000E-03 0. -1.
         11    1    4    4    0    0 -0.13901920175E-01 -0.19592529446E-01 -0.47249219841E-01  0.53008305870E-01  0.51100000000E-03 0.  1.
</event>
<event>
 8    1  0.1095698E+005  0.1043930E+01  0.7957747E-01            NaN
         13   -1    0    0    0    0  0.00000000000E+00  0.00000000000E+00  0.74505805969E-08  0.10566000000E+00  0.10566000000E+00 0.  1.
     999900   -1    0    0    0    0 -0.00000000000E+00 -0.00000000000E+00 -0.74505805969E-08  0.93827000000E+00  0.93827000000E+00 0. -1.
     999902    2    1    2    0    0 -0.11381537083E-01  0.70260115079E-02  0.19735674789E-01  0.10200888364E+01  0.10198101946E+01 0.  0.
     999903    2    3    3    0    0  0.10399507837E+00 -0.49065919857E-01  0.57588197442E-01  0.12998160595E+00  0.18877939112E-01 0.  0.
         14    1    1    2    0    0  0.11381537083E-01 -0.70260115079E-02 -0.19735674789E-01  0.23841163635E-01  0.00000000000E+00 0. -1.
     999901    1    3    3    0    0 -0.11537661545E+00  0.56091931365E-01 -0.37852522653E-01  0.89010723041E+00  0.88000000000E+00 0.  1.
        -11    1    4    4    0    0  0.82350795043E-01 -0.43632265916E-01  0.39380364095E-01  0.10117560116E+00  0.51100000000E-03 0. -1.
         11    1    4    4    0    0  0.21644283328E-01 -0.54336539408E-02  0.18207833347E-01  0.28806004793E-01  0.51100000000E-03 0.  1.
</event>
<event>
 8    1  0.1095698E+005  0.1043930E+01  0.7957747E-01            NaN
         13   -1    0    0    0    0  0.00000000000E+00  0.00000000000E+00  0.74505805969E-08  0.10566000000E+00  0.10566000000E+00 0. -1.
     999900   -1    0    0    0    0 -0.00000000000E+00 -0.00000000000E+00 -0.74505805969E-08  0.93827000000E+00  0.93827000000E+00 0. -1.
     999902    2    1    2    0    0 -0.83384434044E-03  0.86276150535E-02 -0.22742215499E-01  0.10195919762E+01  0.10193014561E+01 0.  0.
     999903    2    3    3    0    0 -0.65009581145E-02  0.64840680341E-01 -0.11430883406E+00  0.13303883591E+00  0.19653143066E-01 0.  0.
         14    1    1    2    0    0  0.83384434044E-03 -0.86276150535E-02  0.22742215499E-01  0.24338023825E-01  0.00000000000E+00 0. -1.
     999901    1    3    3    0    0  0.56671137740E-02 -0.56213065287E-01  0.91566618558E-01  0.88655314027E+00  0.88000000000E+00 0.  1.
        -11    1    4    4    0    0 -0.70501543979E-02  0.33465444244E-01 -0.41669976966E-01  0.53910005906E-01  0.51100000000E-03 0. -1.
         11    1    4    4    0    0  0.54919628346E-03  0.31375236097E-01 -0.72638857091E-01  0.79128830000E-01  0.51100000000E-03 0.  1.
</event>
<event>
 8    1  0.1095698E+005  0.1043930E+01  0.7957747E-01            NaN
         13   -1    0    0    0    0  0.00000000000E+00  0.00000000000E+00  0.74505805969E-08  0.10566000000E+00  0.10566000000E+00 0. -1.
     999900   -1    0    0    0    0 -0.00000000000E+00 -0.00000000000E+00 -0.74505805969E-08  0.93827000000E+00  0.93827000000E+00 0. -1.
     999902    2    1    2    0    0 -0.15161569740E-01 -0.11490696633E-01 -0.23567606893E-02  0.10247606592E+01  0.10245813511E+01 0.  0.
     999903    2    3    3    0    0  0.28919255043E-01  0.12154037829E+00 -0.40101926485E-01  0.13287216641E+00  0.20939465902E-01 0.  0.
         14    1    1    2    0    0  0.15161569740E-01  0.11490696633E-01  0.23567606893E-02  0.19169340808E-01  0.00000000000E+00 0.  1.
     999901    1    3    3    0    0 -0.44080824782E-01 -0.13303107492E+00  0.37745165796E-01  0.89188849278E+00  0.88000000000E+00 0. -1.
        -11    1    4    4    0    0  0.30115589945E-01  0.10598233073E+00 -0.29700213810E-01  0.11411208089E+00  0.51100000000E-03 0. -1.
         11    1    4    4    0    0 -0.11963349028E-02  0.15558047563E-01 -0.10401712675E-01  0.18760085521E-01  0.51100000000E-03 0.  1.
</event>
<event>
 8    1  0.1095698E+005  0.1043930E+01  0.7957747E-01            NaN
         13   -1    0    0    0    0  0.00000000000E+00  0.00000000000E+00  0.74505805969E-08  0.10566000000E+00  0.10566000000E+00 0. -1.
     999900   -1    0    0    0    0 -0.00000000000E+00 -0.00000000000E+00 -0.74505805969E-08  0.93827000000E+00  0.93827000000E+00 0. -1.
     999902    2    1    2    0    0 -0.23578712743E-01  0.15385121475E-02  0.11123236275E-02  0.10202749799E+01  0.10200007228E+01 0.  0.
     999903    2    3    3    0    0 -0.22968376477E-01  0.10664762645E+00 -0.70047387980E-01  0.13116756060E+00  0.19925607794E-01 0.  0.
         14    1    1    2    0    0  0.23578712743E-01 -0.15385121475E-02 -0.11123236275E-02  0.23655020146E-01  0.00000000000E+00 0. -1.
     999901    1    3    3    0    0 -0.61033626645E-03 -0.10510911430E+00  0.71159711608E-01  0.88910741926E+00  0.88000000000E+00 0.  1.
        -11    1    4    4    0    0 -0.33927628070E-02  0.94650075232E-02 -0.14127326086E-01  0.17347612810E-01  0.51100000000E-03 0. -1.
         11    1    4    4    0    0 -0.19575613670E-01  0.97182618923E-01 -0.55920061894E-01  0.11381994779E+00  0.51100000000E-03 0.  1.
</event>
<event>
 8    1  0.1095698E+005  0.1043930E+01  0.7957747E-01            NaN
         13   -1    0    0    0    0  0.00000000000E+00  0.00000000000E+00  0.74505805969E-08  0.10566000000E+00  0.10566000000E+00 0.  1.
     999900   -1    0    0    0    0 -0.00000000000E+00 -0.00000000000E+00 -0.74505805969E-08  0.93827000000E+00  0.93827000000E+00 0.  1.
     999902    2    1    2    0    0  0.47496737100E-02  0.24323510761E-01 -0.30537493421E-02  0.10189596584E+01  0.10186536543E+01 0.  0.
     999903    2    3    3    0    0  0.75537928934E-01  0.11177592961E-01  0.10315411850E+00  0.12965436578E+00  0.18400138873E-01 0.  0.
         14    1    1    2    0    0 -0.47496737100E-02 -0.24323510761E-01  0.30537493421E-02  0.24970341631E-01  0.00000000000E+00 0.  1.
     999901    1    3    3    0    0 -0.70788255224E-01  0.13145917800E-01 -0.10620786784E+00  0.88930529259E+00  0.88000000000E+00 0.  1.
        -11    1    4    4    0    0  0.14999639808E-01 -0.51045275952E-02  0.20481356393E-01  0.25899661716E-01  0.51100000000E-03 0.  1.
         11    1    4    4    0    0  0.60538289127E-01  0.16282120556E-01  0.82672762108E-01  0.10375470407E+00  0.51100000000E-03 0. -1.
</event>
<event>
 8    1  0.1095698E+005  0.1043930E+01  0.7957747E-01            NaN
         13   -1    0    0    0    0  0.00000000000E+00  0.00000000000E+00  0.74505805969E-08  0.10566000000E+00  0.10566000000E+00 0. -1.
     999900   -1    0    0    0    0 -0.00000000000E+00 -0.00000000000E+00 -0.74505805969E-08  0.93827000000E+00  0.93827000000E+00 0. -1.
     999902    2    1    2    0    0 -0.42465746539E-02 -0.15906006157E-01  0.16460141020E-01  0.10206497365E+01  0.10203841991E+01 0.  0.
     999903    2    3    3    0    0 -0.36817282348E-01  0.45500823668E-02  0.12615732947E+00  0.13300522670E+00  0.19962540434E-01 0.  0.
         14    1    1    2    0    0  0.42465746539E-02  0.15906006157E-01 -0.16460141020E-01  0.23280263541E-01  0.00000000000E+00 0.  1.
     999901    1    3    3    0    0  0.32570707694E-01 -0.20456088524E-01 -0.10969718845E+00  0.88764450976E+00  0.88000000000E+00 0. -1.
        -11    1    4    4    0    0 -0.20877336592E-01 -0.70020228194E-02  0.75766291341E-01  0.78903000775E-01  0.51100000000E-03 0. -1.
         11    1    4    4    0    0 -0.15939945757E-01  0.11552105186E-01  0.50391038128E-01  0.54102225921E-01  0.51100000000E-03 0.  1.
</event>
<event>
 8    1  0.1095698E+005  0.1043930E+01  0.7957747E-01            NaN
         13   -1    0    0    0    0  0.00000000000E+00  0.00000000000E+00  0.74505805969E-08  0.10566000000E+00  0.10566000000E+00 0.  1.
     999900   -1    0    0    0    0 -0.00000000000E+00 -0.00000000000E+00 -0.74505805969E-08  0.93827000000E+00  0.93827000000E+00 0. -1.
     999902    2    1    2    0    0  0.72577763741E-02 -0.22038105988E-01  0.59190283186E-02  0.10199844716E+01  0.10197033559E+01 0.  0.
     999903    2    3    3    0    0 -0.17117917418E-01 -0.67197219485E-01  0.11086086594E+00  0.13226474712E+00  0.19883217257E-01 0.  0.
         14    1    1    2    0    0 -0.72577763741E-02  0.22038105988E-01 -0.59190283186E-02  0.23945528386E-01  0.00000000000E+00 0. -1.
     999901    1    3    3    0    0  0.24375693792E-01  0.45159113497E-01 -0.10494183763E+00  0.88771972450E+00  0.88000000000E+00 0.  1.
        -11    1    4    4    0    0 -0.27938743224E-02 -0.23932364853E-01  0.55836967840E-01  0.60816049853E-01  0.51100000000E-03 0.  1.
         11    1    4    4    0    0 -0.14324043095E-01 -0.43264854632E-01  0.55023898104E-01  0.71448697262E-01  0.51100000000E-03 0. -1.
</event>
<event>
 8    1  0.1095698E+005  0.1043930E+01  0.7957747E-01            NaN
         13   -1    0    0    0    0  0.00000000000E+00  0.00000000000E+00  0.74505805969E-08  0.10566000000E+00  0.10566000000E+00 0. -1.
     999900   -1    0    0    0    0 -0.00000000000E+00 -0.00000000000E+00 -0.74505805969E-08  0.93827000000E+00  0.93827000000E+00 0. -1.
     999902    2    1    2    0    0 -0.91540712673E-03  0.14001695784E-01  0.19117456399E-01  0.10202158145E+01  0.10199401676E+01 0.  0.
     999903    2    3    3    0    0  0.10777961845E-01  0.13022098185E+00  0.59890223165E-02  0.13240051100E+00  0.20502642518E-01 0.  0.
         14    1    1    2    0    0  0.91540712673E-03 -0.14001695784E-01 -0.19117456399E-01  0.23714185506E-01  0.00000000000E+00 0. -1.
     999901    1    3    3    0    0 -0.11693368972E-01 -0.11621928606E+00  0.13128434083E-01  0.88781530349E+00  0.88000000000E+00 0. -1.
        -11    1    4    4    0    0  0.27275234701E-03  0.47254680217E-01 -0.69789050249E-02  0.47770759179E-01  0.51100000000E-03 0.  1.
         11    1    4    4    0    0  0.10505209498E-01  0.82966301632E-01  0.12967927341E-01  0.84629751823E-01  0.51100000000E-03 0. -1.
</event>
<event>
 8    1  0.1095698E+005  0.1043930E+01  0.7957747E-01            NaN
         13   -1    0    0    0    0  0.00000000000E+00  0.00000000000E+00  0.74505805969E-08  0.10566000000E+00  0.10566000000E+00 0. -1.
     999900   -1    0    0    0    0 -0.00000000000E+00 -0.00000000000E+00 -0.74505805969E-08  0.93827000000E+00  0.93827000000E+00 0.  1.
     999902    2    1    2    0    0  0.26367055188E-02 -0.14908095783E-01  0.14041520216E-01  0.10232813239E+01  0.10230729690E+01 0.  0.
     999903    2    3    3    0    0 -0.29289888485E-01  0.57602854697E-01  0.11571199403E+00  0.13389162830E+00  0.19018836204E-01 0.  0.
         14    1    1    2    0    0 -0.26367055188E-02  0.14908095783E-01 -0.14041520216E-01  0.20648676128E-01  0.00000000000E+00 0.  1.
     999901    1    3    3    0    0  0.31926594004E-01 -0.72510950480E-01 -0.10167047381E+00  0.88938969557E+00  0.88000000000E+00 0.  1.
        -11    1    4    4    0    0 -0.81647924088E-02  0.33702520535E-01  0.50072169224E-01  0.60909826607E-01  0.51100000000E-03 0.  1.
         11    1    4    4    0    0 -0.21125096076E-01  0.23900334162E-01  0.65639824803E-01  0.72981801693E-01  0.51100000000E-03 0. -1.
</event>
<event>
 8    1  0.1095698E+005  0.1043930E+01  0.7957747E-01            NaN
         13   -1    0    0    0    0  0.00000000000E+00  0.00000000000E+00  0.74505805969E-08  0.10566000000E+00  0.10566000000E+00 0.  1.
     999900   -1    0    0    0    0 -0.00000000000E+00 -0.00000000000E+00 -0.74505805969E-08  0.93827000000E+00  0.93827000000E+00 0. -1.
     999902    2    1    2    0    0  0.45740031664E-02 -0.20151289746E-01  0.97456075288E-02  0.10210832749E+01  0.10208276453E+01 0.  0.
     999903    2    3    3    0    0 -0.96962993379E-01 -0.86389407244E-01 -0.10087557006E-01  0.13255043681E+00  0.24554179358E-01 0.  0.
         14    1    1    2    0    0 -0.45740031664E-02  0.20151289746E-01 -0.97456075288E-02  0.22846725138E-01  0.00000000000E+00 0.  1.
     999901    1    3    3    0    0  0.10153699655E+00  0.66238117497E-01  0.19833164535E-01  0.88853283805E+00  0.88000000000E+00 0.  1.
        -11    1    4    4    0    0 -0.34735039102E-01 -0.38936377809E-01 -0.14530556596E-01  0.54166065524E-01  0.51100000000E-03 0.  1.
         11    1    4    4    0    0 -0.62227954277E-01 -0.47453029434E-01  0.44429995907E-02  0.78384371289E-01  0.51100000000E-03 0. -1.
</event>
<event>
 8    1  0.1095698E+005  0.1043930E+01  0.7957747E-01            NaN
         13   -1    0    0    0    0  0.00000000000E+00  0.00000000000E+00  0.74505805969E-08  0.10566000000E+00  0.10566000000E+00 0. -1.
     999900   -1    0    0    0    0 -0.00000000000E+00 -0.00000000000E+00 -0.74505805969E-08  0.93827000000E+00  0.93827000000E+00 0. -1.
     999902    2    1    2    0    0  0.14471925111E-02  0.23074676409E-01  0.48537148738E-02  0.10203059951E+01  0.10200324652E+01 0.  0.
     999903    2    3    3    0    0  0.37912814953E-01  0.80417321980E-01  0.96724115026E-01  0.13291764101E+00  0.20179634591E-01 0.  0.
         14    1    1    2    0    0 -0.14471925111E-02 -0.23074676409E-01 -0.48537148738E-02  0.23624004859E-01  0.00000000000E+00 0.  1.
     999901    1    3    3    0    0 -0.36465622442E-01 -0.57342645571E-01 -0.91870400152E-01  0.88738835413E+00  0.88000000000E+00 0. -1.
        -11    1    4    4    0    0 -0.63844099573E-03  0.13223662671E-01  0.97833516096E-02  0.16469606888E-01  0.51100000000E-03 0. -1.
         11    1    4    4    0    0  0.38551255949E-01  0.67193659309E-01  0.86940763416E-01  0.11644803412E+00  0.51100000000E-03 0.  1.
</event>
<event>
 8    1  0.1095698E+005  0.1043930E+01  0.7957747E-01            NaN
         13   -1    0    0    0    0  0.00000000000E+00  0.00000000000E+00  0.74505805969E-08  0.10566000000E+00  0.10566000000E+00 0. -1.
     999900   -1    0    0    0    0 -0.00000000000E+00 -0.00000000000E+00 -0.74505805969E-08  0.93827000000E+00  0.93827000000E+00 0.  1.
     999902    2    1    2    0    0  0.16148960268E-01  0.16413292299E-01 -0.50702041611E-02  0.10203526369E+01  0.10200801986E+01 0.  0.
     999903    2    3    3    0    0  0.11646023264E+00 -0.15173814884E-01  0.56637311761E-01  0.13194512102E+00  0.20211368913E-01 0.  0.
         14    1    1    2    0    0 -0.16148960268E-01 -0.16413292299E-01  0.50702041611E-02  0.23577363128E-01  0.00000000000E+00 0.  1.
     999901    1    3    3    0    0 -0.10031127237E+00  0.31587107183E-01 -0.61707515922E-01  0.88840751585E+00  0.88000000000E+00 0. -1.
        -11    1    4    4    0    0  0.36781721635E-01 -0.12470271184E-01  0.24880977148E-01  0.46127289696E-01  0.51100000000E-03 0. -1.
         11    1    4    4    0    0  0.79678511001E-01 -0.27035436992E-02  0.31756334613E-01  0.85817831323E-01  0.51100000000E-03 0.  1.
</event>
<event>
 8    1  0.1095698E+005  0.1043930E+01  0.7957747E-01            NaN
         13   -1    0    0    0    0  0.00000000000E+00  0.00000000000E+00  0.74505805969E-08  0.10566000000E+00  0.10566000000E+00 0.  1.
     999900   -1    0    0    0    0 -0.00000000000E+00 -0.00000000000E+00 -0.74505805969E-08  0.93827000000E+00  0.93827000000E+00 0. -1.
     999902    2    1    2    0    0  0.44021555290E-02 -0.23717650925E-01  0.14185208326E-02  0.10197656018E+01  0.10194792614E+01 0.  0.
     999903    2    3    3    0    0  0.58533602785E-01  0.46635502935E-01  0.10348593877E+00  0.12942996979E+00  0.21017249247E-01 0.  0.
         14    1    1    2    0    0 -0.44021555290E-02  0.23717650925E-01 -0.14185208326E-02  0.24164398194E-01  0.00000000000E+00 0. -1.
     999901    1    3    3    0    0 -0.54131447256E-01 -0.70353153860E-01 -0.10206741794E+00  0.89033563202E+00  0.88000000000E+00 0. -1.
        -11    1    4    4    0    0  0.20102934752E-01  0.62314274227E-02  0.37784105052E-01  0.43253420546E-01  0.51100000000E-03 0. -1.
         11    1    4    4    0    0  0.38430668033E-01  0.40404075512E-01  0.65701833722E-01  0.86176549240E-01  0.51100000000E-03 0.  1.
</event>
<event>
 8    1  0.1095698E+005  0.1043930E+01  0.7957747E-01            NaN
         13   -1    0    0    0    0  0.00000000000E+00  0.00000000000E+00  0.74505805969E-08  0.10566000000E+00  0.10566000000E+00 0.  1.
     999900   -1    0    0    0    0 -0.00000000000E+00 -0.00000000000E+00 -0.74505805969E-08  0.93827000000E+00  0.93827000000E+00 0. -1.
     999902    2    1    2    0    0  0.36409714863E-02  0.45743908568E-02 -0.22472544213E-01  0.10207093848E+01  0.10204452221E+01 0.  0.
     999903    2    3    3    0    0  0.91418316912E-01  0.72310086693E-02  0.88965370213E-01  0.12934507730E+00  0.20142387399E-01 0.  0.
         14    1    1    2    0    0 -0.36409714863E-02 -0.45743908568E-02  0.22472544213E-01  0.23220615162E-01  0.00000000000E+00 0.  1.
     999901    1    3    3    0    0 -0.87777345426E-01 -0.26566178125E-02 -0.11143791443E+00  0.89136430754E+00  0.88000000000E+00 0. -1.
        -11    1    4    4    0    0  0.84358566420E-01  0.35129899754E-02  0.73533246410E-01  0.11196476354E+00  0.51100000000E-03 0. -1.
         11    1    4    4    0    0  0.70597504919E-02  0.37180186939E-02  0.15432123803E-01  0.17380313752E-01  0.51100000000E-03 0.  1.
</event>
<event>
 8    1  0.1095698E+005  0.1043930E+01  0.7957747E-01            NaN
         13   -1    0    0    0    0  0.00000000000E+00  0.00000000000E+00  0.74505805969E-08  0.10566000000E+00  0.10566000000E+00 0. -1.
     999900   -1    0    0    0    0 -0.00000000000E+00 -0.00000000000E+00 -0.74505805969E-08  0.93827000000E+00  0.93827000000E+00 0.  1.
     999902    2    1    2    0    0  0.23186457195E-01  0.88153614121E-02 -0.13790589437E-01  0.10155486196E+01  0.10151519571E+01 0.  0.
     999903    2    3    3    0    0  0.13506438003E-01  0.12477066124E+00  0.11411480277E-01  0.12753145841E+00  0.19593601686E-01 0.  0.
         14    1    1    2    0    0 -0.23186457195E-01 -0.88153614121E-02  0.13790589437E-01  0.28381380359E-01  0.00000000000E+00 0. -1.
     999901    1    3    3    0    0  0.96800191919E-02 -0.11595529983E+00 -0.25202069714E-01  0.88801716123E+00  0.88000000000E+00 0. -1.
        -11    1    4    4    0    0  0.87986534754E-03  0.73230859120E-01 -0.66393192276E-04  0.73237957505E-01  0.51100000000E-03 0. -1.
         11    1    4    4    0    0  0.12626572655E-01  0.51539802121E-01  0.11477873469E-01  0.54293500901E-01  0.51100000000E-03 0.  1.
</event>
<event>
 8    1  0.1095698E+005  0.1043930E+01  0.7957747E-01            NaN
         13   -1    0    0    0    0  0.00000000000E+00  0.00000000000E+00  0.74505805969E-08  0.10566000000E+00  0.10566000000E+00 0.  1.
     999900   -1    0    0    0    0 -0.00000000000E+00 -0.00000000000E+00 -0.74505805969E-08  0.93827000000E+00  0.93827000000E+00 0. -1.
     999902    2    1    2    0    0  0.11891283993E-01  0.19339786402E-01 -0.65584151367E-02  0.10202986060E+01  0.10200249029E+01 0.  0.
     999903    2    3    3    0    0  0.12107495205E+00  0.36629302982E-01 -0.35299934964E-01  0.13291702195E+00  0.20493888466E-01 0.  0.
         14    1    1    2    0    0 -0.11891283993E-01 -0.19339786402E-01  0.65584151367E-02  0.23631393996E-01  0.00000000000E+00 0.  1.
     999901    1    3    3    0    0 -0.10918366806E+00 -0.17289516580E-01  0.28741519828E-01  0.88738158405E+00  0.88000000000E+00 0. -1.
        -11    1    4    4    0    0  0.61609325457E-01  0.24694590456E-01 -0.27167100974E-01  0.71720598697E-01  0.51100000000E-03 0. -1.
         11    1    4    4    0    0  0.59465626595E-01  0.11934712526E-01 -0.81328339905E-02  0.61196423255E-01  0.51100000000E-03 0.  1.
</event>
<event>
 8    1  0.1095698E+005  0.1043930E+01  0.7957747E-01            NaN
         13   -1    0    0    0    0  0.00000000000E+00  0.00000000000E+00  0.74505805969E-08  0.10566000000E+00  0.10566000000E+00 0.  1.
     999900   -1    0    0    0    0 -0.00000000000E+00 -0.00000000000E+00 -0.74505805969E-08  0.93827000000E+00  0.93827000000E+00 0. -1.
     999902    2    1    2    0    0 -0.23755116516E-03 -0.18391080404E-01 -0.15077040919E-01  0.10201475394E+01  0.10198702843E+01 0.  0.
     999903    2    3    3    0    0  0.10595547426E+00 -0.13631077880E-01 -0.75051471904E-01  0.13172390811E+00  0.17495591514E-01 0.  0.
         14    1    1    2    0    0  0.23755116516E-03  0.18391080404E-01  0.15077040919E-01  0.23782460593E-01  0.00000000000E+00 0. -1.
     999901    1    3    3    0    0 -0.10619302543E+00 -0.47600025236E-02  0.59974430985E-01  0.88842363130E+00  0.88000000000E+00 0. -1.
        -11    1    4    4    0    0  0.65415162288E-01  0.61321441373E-04 -0.43583219042E-01  0.78606013260E-01  0.51100000000E-03 0. -1.
         11    1    4    4    0    0  0.40540311976E-01 -0.13692399321E-01 -0.31468252862E-01  0.53117894851E-01  0.51100000000E-03 0.  1.
</event>
<event>
 8    1  0.1955795E+005  0.1043930E+01  0.7957747E-01            NaN
         13   -1    0    0    0    0  0.00000000000E+00  0.00000000000E+00  0.74505805969E-08  0.10566000000E+00  0.10566000000E+00 0. -1.
     999900   -1    0    0    0    0 -0.00000000000E+00 -0.00000000000E+00 -0.74505805969E-08  0.93827000000E+00  0.93827000000E+00 0. -1.
     999902    2    1    2    0    0  0.21593387381E-01 -0.18468756683E-01  0.22550640767E-01  0.10076546537E+01  0.10070014897E+01 0.  0.
     999903    2    3    3    0    0  0.37580686180E-02 -0.36872091639E-01 -0.10922526573E+00  0.11747395805E+00  0.22277745043E-01 0.  0.
         14    1    1    2    0    0 -0.21593387381E-01  0.18468756683E-01 -0.22550640767E-01  0.36275346325E-01  0.00000000000E+00 0.  1.
     999901    1    3    3    0    0  0.17835318763E-01  0.18403334957E-01  0.13177590650E+00  0.89018069563E+00  0.88000000000E+00 0.  1.
        -11    1    4    4    0    0 -0.53410607794E-02 -0.32325174599E-01 -0.77139819560E-01  0.83810838952E-01  0.51100000000E-03 0.  1.
         11    1    4    4    0    0  0.90991293975E-02 -0.45469170400E-02 -0.32085446170E-01  0.33663119097E-01  0.51100000000E-03 0. -1.
</event>
<event>
 8    1  0.1095698E+005  0.1043930E+01  0.7957747E-01            NaN
         13   -1    0    0    0    0  0.00000000000E+00  0.00000000000E+00  0.74505805969E-08  0.10566000000E+00  0.10566000000E+00 0. -1.
     999900   -1    0    0    0    0 -0.00000000000E+00 -0.00000000000E+00 -0.74505805969E-08  0.93827000000E+00  0.93827000000E+00 0. -1.
     999902    2    1    2    0    0  0.12816824265E-01  0.12831747205E-01  0.16108021999E-01  0.10196731846E+01  0.10193846233E+01 0.  0.
     999903    2    3    3    0    0  0.75613719838E-01 -0.43607067181E-01  0.96310712021E-01  0.13200136385E+00  0.23012950122E-01 0.  0.
         14    1    1    2    0    0 -0.12816824265E-01 -0.12831747205E-01 -0.16108021999E-01  0.24256815399E-01  0.00000000000E+00 0.  1.
     999901    1    3    3    0    0 -0.62796895573E-01  0.56438814385E-01 -0.80202690022E-01  0.88767182075E+00  0.88000000000E+00 0. -1.
        -11    1    4    4    0    0  0.68928170774E-01 -0.37322240041E-01  0.73689292108E-01  0.10758445622E+00  0.51100000000E-03 0. -1.
         11    1    4    4    0    0  0.66855490641E-02 -0.62848271400E-02  0.22621419913E-01  0.24416907633E-01  0.51100000000E-03 0.  1.
</event>
<event>
 8    1  0.1095698E+005  0.1043930E+01  0.7957747E-01            NaN
         13   -1    0    0    0    0  0.00000000000E+00  0.00000000000E+00  0.74505805969E-08  0.10566000000E+00  0.10566000000E+00 0. -1.
     999900   -1    0    0    0    0 -0.00000000000E+00 -0.00000000000E+00 -0.74505805969E-08  0.93827000000E+00  0.93827000000E+00 0. -1.
     999902    2    1    2    0    0 -0.17989792173E-01 -0.18300802305E-01 -0.43350864793E-02  0.10179041482E+01  0.10175713783E+01 0.  0.
     999903    2    3    3    0    0 -0.10435649391E+00  0.20885816618E-01 -0.72044910275E-01  0.13022210010E+00  0.20995978219E-01 0.  0.
         14    1    1    2    0    0  0.17989792173E-01  0.18300802305E-01  0.43350864793E-02  0.26025851806E-01  0.00000000000E+00 0. -1.
     999901    1    3    3    0    0  0.86366701734E-01 -0.39186618923E-01  0.67709823796E-01  0.88768204809E+00  0.88000000000E+00 0.  1.
        -11    1    4    4    0    0 -0.57556229748E-01  0.54195659435E-02 -0.49106882058E-01  0.75854058983E-01  0.51100000000E-03 0.  1.
         11    1    4    4    0    0 -0.46800264159E-01  0.15466250674E-01 -0.22938028217E-01  0.54368041116E-01  0.51100000000E-03 0. -1.
</event>
<event>
 8    1  0.1095698E+005  0.1043930E+01  0.7957747E-01            NaN
         13   -1    0    0    0    0  0.00000000000E+00  0.00000000000E+00  0.74505805969E-08  0.10566000000E+00  0.10566000000E+00 0.  1.
     999900   -1    0    0    0    0 -0.00000000000E+00 -0.00000000000E+00 -0.74505805969E-08  0.93827000000E+00  0.93827000000E+00 0. -1.
     999902    2    1    2    0    0  0.93369476382E-02  0.14835042578E-01 -0.16464274339E-01  0.10198815196E+01  0.10195979524E+01 0.  0.
     999903    2    3    3    0    0 -0.39290826896E-01  0.98412593978E-01  0.72726894084E-01  0.13010349556E+00  0.20221540571E-01 0.  0.
         14    1    1    2    0    0 -0.93369476382E-02 -0.14835042578E-01  0.16464274339E-01  0.24048480389E-01  0.00000000000E+00 0.  1.
     999901    1    3    3    0    0  0.48627774535E-01 -0.83577551399E-01 -0.89191168423E-01  0.88977802405E+00  0.88000000000E+00 0. -1.
        -11    1    4    4    0    0 -0.24584194586E-01  0.67762789858E-01  0.37939398857E-01  0.81460649515E-01  0.51100000000E-03 0.  1.
         11    1    4    4    0    0 -0.14706632310E-01  0.30649804119E-01  0.34787495228E-01  0.48642846048E-01  0.51100000000E-03 0. -1.
</event>
<event>
 8    1  0.1095698E+005  0.1043930E+01  0.7957747E-01            NaN
         13   -1    0    0    0    0  0.00000000000E+00  0.00000000000E+00  0.74505805969E-08  0.10566000000E+00  0.10566000000E+00 0. -1.
     999900   -1    0    0    0    0 -0.00000000000E+00 -0.00000000000E+00 -0.74505805969E-08  0.93827000000E+00  0.93827000000E+00 0.  1.
     999902    2    1    2    0    0  0.16219018494E-01 -0.57347134836E-02  0.16334468623E-01  0.10202074714E+01  0.10199316282E+01 0.  0.
     999903    2    3    3    0    0 -0.43086331697E-01 -0.11086101661E+00 -0.47470214269E-01  0.12967970553E+00  0.20415871303E-01 0.  0.
         14    1    1    2    0    0 -0.16219018494E-01  0.57347134836E-02 -0.16334468623E-01  0.23722528635E-01  0.00000000000E+00 0. -1.
     999901    1    3    3    0    0  0.59305350190E-01  0.10512630312E+00  0.63804682892E-01  0.89052776584E+00  0.88000000000E+00 0. -1.
        -11    1    4    4    0    0 -0.19623372244E-01 -0.25848616403E-01 -0.11511841260E-01  0.34438515043E-01  0.51100000000E-03 0.  1.
         11    1    4    4    0    0 -0.23462959453E-01 -0.85012400202E-01 -0.35958373009E-01  0.95241190484E-01  0.51100000000E-03 0. -1.
</event>
<event>
 8    1  0.1095698E+005  0.1043930E+01  0.7957747E-01            NaN
         13   -1    0    0    0    0  0.00000000000E+00  0.00000000000E+00  0.74505805969E-08  0.10566000000E+00  0.10566000000E+00 0.  1.
     999900   -1    0    0    0    0 -0.00000000000E+00 -0.00000000000E+00 -0.74505805969E-08  0.93827000000E+00  0.93827000000E+00 0.  1.
     999902    2    1    2    0    0  0.21429714950E-01 -0.10343126968E-01  0.89497682743E-03  0.10201179455E+01  0.10198399917E+01 0.  0.
     999903    2    3    3    0    0  0.78291438873E-01  0.35421343080E-01  0.97702699625E-01  0.13180528790E+00  0.21037952824E-01 0.  0.
         14    1    1    2    0    0 -0.21429714950E-01  0.10343126968E-01 -0.89497682743E-03  0.23812054549E-01  0.00000000000E+00 0.  1.
     999901    1    3    3    0    0 -0.56861723924E-01 -0.45764470048E-01 -0.96807722797E-01  0.88831265755E+00  0.88000000000E+00 0.  1.
        -11    1    4    4    0    0  0.19338147723E-01  0.12596948689E-01  0.14318546024E-01  0.27164847779E-01  0.51100000000E-03 0. -1.
         11    1    4    4    0    0  0.58953291151E-01  0.22824394391E-01  0.83384153600E-01  0.10464044012E+00  0.51100000000E-03 0.  1.
</event>
<event>
 8    1  0.1095698E+005  0.1043930E+01  0.7957747E-01            NaN
         13   -1    0    0    0    0  0.00000000000E+00  0.00000000000E+00  0.74505805969E-08  0.10566000000E+00  0.10566000000E+00 0.  1.
     999900   -1    0    0    0    0 -0.00000000000E+00 -0.00000000000E+00 -0.74505805969E-08  0.93827000000E+00  0.93827000000E+00 0.  1.
     999902    2    1    2    0    0 -0.19396187362E-01  0.11918519762E-01  0.86065197563E-02  0.10195920588E+01  0.10193015408E+01 0.  0.
     999903    2    3    3    0    0  0.11429316408E+00 -0.43706058933E-01  0.29092016145E-01  0.12752334400E+00  0.21040696683E-01 0.  0.
         14    1    1    2    0    0  0.19396187362E-01 -0.11918519762E-01 -0.86065197563E-02  0.24337941158E-01  0.00000000000E+00 0. -1.
     999901    1    3    3    0    0 -0.13368935145E+00  0.55624578694E-01 -0.20485496389E-01  0.89206871485E+00  0.88000000000E+00 0.  1.
        -11    1    4    4    0    0  0.57149274130E-01 -0.12666093830E-01  0.19990515002E-01  0.61857507851E-01  0.51100000000E-03 0. -1.
         11    1    4    4    0    0  0.57143889954E-01 -0.31039965102E-01  0.91015011438E-02  0.65665836145E-01  0.51100000000E-03 0.  1.
</event>
<event>
 8    1  0.1095698E+005  0.1043930E+01  0.7957747E-01            NaN
         13   -1    0    0    0    0  0.00000000000E+00  0.00000000000E+00  0.74505805969E-08  0.10566000000E+00  0.10566000000E+00 0. -1.
     999900   -1    0    0    0    0 -0.00000000000E+00 -0.00000000000E+00 -0.74505805969E-08  0.93827000000E+00  0.93827000000E+00 0. -1.
     999902    2    1    2    0    0 -0.53724923783E-02 -0.55128309506E-03  0.23858503519E-01  0.10194678705E+01  0.10191743439E+01 0.  0.
     999903    2    3    3    0    0 -0.65757995121E-01  0.73971053817E-01  0.85212925189E-01  0.13213233497E+00  0.20046959844E-01 0.  0.
         14    1    1    2    0    0  0.53724923783E-02  0.55128309506E-03 -0.23858503519E-01  0.24462129457E-01  0.00000000000E+00 0.  1.
     999901    1    3    3    0    0  0.60385502743E-01 -0.74522336912E-01 -0.61354421670E-01  0.88733553558E+00  0.88000000000E+00 0. -1.
        -11    1    4    4    0    0 -0.42216396636E-01  0.35900722560E-01  0.38813713974E-01  0.67659822189E-01  0.51100000000E-03 0. -1.
         11    1    4    4    0    0 -0.23541598485E-01  0.38070331257E-01  0.46399211216E-01  0.64472512776E-01  0.51100000000E-03 0.  1.
</event>
<event>
 8    1  0.1095698E+005  0.1043930E+01  0.7957747E-01            NaN
         13   -1    0    0    0    0  0.00000000000E+00  0.00000000000E+00  0.74505805969E-08  0.10566000000E+00  0.10566000000E+00 0.  1.
     999900   -1    0    0    0    0 -0.00000000000E+00 -0.00000000000E+00 -0.74505805969E-08  0.93827000000E+00  0.93827000000E+00 0.  1.
     999902    2    1    2    0    0 -0.19791358417E-01 -0.12799583953E-01 -0.32230720756E-02  0.10201410233E+01  0.10198636144E+01 0.  0.
     999903    2    3    3    0    0 -0.83311924177E-01  0.89110450727E-01  0.42707211326E-01  0.13079850867E+00  0.20069749209E-01 0.  0.
         14    1    1    2    0    0  0.19791358417E-01  0.12799583953E-01  0.32230720756E-02  0.23788976669E-01  0.00000000000E+00 0.  1.
     999901    1    3    3    0    0  0.63520565760E-01 -0.10191003468E+00 -0.45930283402E-01  0.88934251466E+00  0.88000000000E+00 0.  1.
        -11    1    4    4    0    0 -0.28353042322E-01  0.24241601554E-01  0.21928793408E-01  0.43274511622E-01  0.51100000000E-03 0. -1.
         11    1    4    4    0    0 -0.54958881855E-01  0.64868849174E-01  0.20778417919E-01  0.87523997052E-01  0.51100000000E-03 0.  1.
</event>
<event>
 8    1  0.1095698E+005  0.1043930E+01  0.7957747E-01            NaN
         13   -1    0    0    0    0  0.00000000000E+00  0.00000000000E+00  0.74505805969E-08  0.10566000000E+00  0.10566000000E+00 0. -1.
     999900   -1    0    0    0    0 -0.00000000000E+00 -0.00000000000E+00 -0.74505805969E-08  0.93827000000E+00  0.93827000000E+00 0. -1.
     999902    2    1    2    0    0  0.11330104496E-01  0.18834033490E-01 -0.11070793853E-01  0.10193199500E+01  0.10190228191E+01 0.  0.
     999903    2    3    3    0    0  0.77371974696E-01  0.72782054919E-01 -0.76812708448E-01  0.13275697028E+00  0.20989783066E-01 0.  0.
         14    1    1    2    0    0 -0.11330104496E-01 -0.18834033490E-01  0.11070793853E-01  0.24610050019E-01  0.00000000000E+00 0.  1.
     999901    1    3    3    0    0 -0.66041870200E-01 -0.53948021429E-01  0.65741914595E-01  0.88656297970E+00  0.88000000000E+00 0.  1.
        -11    1    4    4    0    0  0.63871818625E-01  0.67058303744E-01 -0.59562017985E-01  0.11011049188E+00  0.51100000000E-03 0. -1.
         11    1    4    4    0    0  0.13500156071E-01  0.57237511754E-02 -0.17250690463E-01  0.22646478400E-01  0.51100000000E-03 0.  1.
</event>
<event>
 8    1  0.1095698E+005  0.1043930E+01  0.7957747E-01            NaN
         13   -1    0    0    0    0  0.00000000000E+00  0.00000000000E+00  0.74505805969E-08  0.10566000000E+00  0.10566000000E+00 0. -1.
     999900   -1    0    0    0    0 -0.00000000000E+00 -0.00000000000E+00 -0.74505805969E-08  0.93827000000E+00  0.93827000000E+00 0. -1.
     999902    2    1    2    0    0  0.64424653486E-02 -0.23188801677E-01 -0.43253456653E-02  0.10194773008E+01  0.10191840032E+01 0.  0.
     999903    2    3    3    0    0 -0.21448875286E-01  0.53205333626E-01 -0.11372978189E+00  0.12898119106E+00  0.20268758766E-01 0.  0.
         14    1    1    2    0    0 -0.64424653486E-02  0.23188801677E-01  0.43253456653E-02  0.24452699199E-01  0.00000000000E+00 0. -1.
     999901    1    3    3    0    0  0.27891340635E-01 -0.76394135303E-01  0.10940443623E+00  0.89049610974E+00  0.88000000000E+00 0.  1.
        -11    1    4    4    0    0 -0.21350095592E-02  0.31504782351E-01 -0.53930722123E-01  0.62497147827E-01  0.51100000000E-03 0.  1.
         11    1    4    4    0    0 -0.19313865727E-01  0.21700551275E-01 -0.59799059769E-01  0.66484043237E-01  0.51100000000E-03 0. -1.
</event>
<event>
 8    1  0.1095698E+005  0.1043930E+01  0.7957747E-01            NaN
         13   -1    0    0    0    0  0.00000000000E+00  0.00000000000E+00  0.74505805969E-08  0.10566000000E+00  0.10566000000E+00 0.  1.
     999900   -1    0    0    0    0 -0.00000000000E+00 -0.00000000000E+00 -0.74505805969E-08  0.93827000000E+00  0.93827000000E+00 0.  1.
     999902    2    1    2    0    0  0.18559211525E-01  0.20181329771E-02  0.23626695574E-01  0.10138179105E+01  0.10133706220E+01 0.  0.
     999903    2    3    3    0    0  0.79683828219E-01 -0.42520836936E-01  0.88806864356E-01  0.12817216129E+00  0.19593614259E-01 0.  0.
         14    1    1    2    0    0 -0.18559211525E-01 -0.20181329771E-02 -0.23626695574E-01  0.30112089547E-01  0.00000000000E+00 0. -1.
     999901    1    3    3    0    0 -0.61124616694E-01  0.44538969913E-01 -0.65180168783E-01  0.88564574916E+00  0.88000000000E+00 0.  1.
        -11    1    4    4    0    0  0.49573612989E-01 -0.29714538665E-01  0.68634321817E-01  0.89729750725E-01  0.51100000000E-03 0.  1.
         11    1    4    4    0    0  0.30110215230E-01 -0.12806298271E-01  0.20172542539E-01  0.38442410566E-01  0.51100000000E-03 0. -1.
</event>
<event>
 8    1  0.1095698E+005  0.1043930E+01  0.7957747E-01            NaN
         13   -1    0    0    0    0  0.00000000000E+00  0.00000000000E+00  0.74505805969E-08  0.10566000000E+00  0.10566000000E+00 0.  1.
     999900   -1    0    0    0    0 -0.00000000000E+00 -0.00000000000E+00 -0.74505805969E-08  0.93827000000E+00  0.93827000000E+00 0.  1.
     999902    2    1    2    0    0 -0.41211101421E-02  0.21310022898E-01  0.99428212359E-02  0.10200561583E+01  0.10197767431E+01 0.  0.
     999903    2    3    3    0    0  0.64830457433E-02 -0.80528263283E-01 -0.96894916903E-01  0.12770096725E+00  0.19801036468E-01 0.  0.
         14    1    1    2    0    0  0.41211101421E-02 -0.21310022898E-01 -0.99428212359E-02  0.23873841728E-01  0.00000000000E+00 0. -1.
     999901    1    3    3    0    0 -0.10604155885E-01  0.10183828618E+00  0.10683773814E+00  0.89235519102E+00  0.88000000000E+00 0. -1.
        -11    1    4    4    0    0  0.39814804591E-02 -0.57972428710E-01 -0.54795028666E-01  0.79871214869E-01  0.51100000000E-03 0. -1.
         11    1    4    4    0    0  0.25015652842E-02 -0.22555834574E-01 -0.42099888237E-01  0.47829752380E-01  0.51100000000E-03 0.  1.
</event>
<event>
 8    1  0.1095698E+005  0.1043930E+01  0.7957747E-01            NaN
         13   -1    0    0    0    0  0.00000000000E+00  0.00000000000E+00  0.74505805969E-08  0.10566000000E+00  0.10566000000E+00 0.  1.
     999900   -1    0    0    0    0 -0.00000000000E+00 -0.00000000000E+00 -0.74505805969E-08  0.93827000000E+00  0.93827000000E+00 0.  1.
     999902    2    1    2    0    0  0.19152490499E-01  0.11260514662E-01 -0.78306159556E-02  0.10203729283E+01  0.10201009642E+01 0.  0.
     999903    2    3    3    0    0 -0.79886576279E-01  0.84913944423E-01 -0.57057683518E-01  0.13039715969E+00  0.12473851812E-01 0.  0.
         14    1    1    2    0    0 -0.19152490499E-01 -0.11260514662E-01  0.78306159556E-02  0.23557071741E-01  0.00000000000E+00 0. -1.
     999901    1    3    3    0    0  0.99039066778E-01 -0.73653429761E-01  0.49227067562E-01  0.88997576857E+00  0.88000000000E+00 0. -1.
        -11    1    4    4    0    0 -0.22129310218E-01  0.18769869108E-01 -0.19020993931E-01  0.34699764958E-01  0.51100000000E-03 0. -1.
         11    1    4    4    0    0 -0.57757266061E-01  0.66144075315E-01 -0.38036689587E-01  0.95697394729E-01  0.51100000000E-03 0.  1.
</event>
<event>
 8    1  0.1095698E+005  0.1043930E+01  0.7957747E-01            NaN
         13   -1    0    0    0    0  0.00000000000E+00  0.00000000000E+00  0.74505805969E-08  0.10566000000E+00  0.10566000000E+00 0.  1.
     999900   -1    0    0    0    0 -0.00000000000E+00 -0.00000000000E+00 -0.74505805969E-08  0.93827000000E+00  0.93827000000E+00 0. -1.
     999902    2    1    2    0    0  0.17193409116E-02 -0.19546236635E-01 -0.13611937804E-01  0.10200491217E+01  0.10197695398E+01 0.  0.
     999903    2    3    3    0    0  0.76246954729E-02 -0.10439536516E-01  0.12675790943E+00  0.12885806514E+00  0.19227933982E-01 0.  0.
         14    1    1    2    0    0 -0.17193409116E-02  0.19546236635E-01  0.13611937804E-01  0.23880878345E-01  0.00000000000E+00 0.  1.
     999901    1    3    3    0    0 -0.59053545614E-02 -0.91067001197E-02 -0.14036984723E+00  0.89119105651E+00  0.88000000000E+00 0. -1.
        -11    1    4    4    0    0  0.10042018326E-01 -0.18285074524E-02  0.10233363618E+00  0.10284269437E+00  0.51100000000E-03 0. -1.
         11    1    4    4    0    0 -0.24173228535E-02 -0.86110290632E-02  0.24424273250E-01  0.26015370766E-01  0.51100000000E-03 0.  1.
</event>
<event>
 8    1  0.1095698E+005  0.1043930E+01  0.7957747E-01            NaN
         13   -1    0    0    0    0  0.00000000000E+00  0.00000000000E+00  0.74505805969E-08  0.10566000000E+00  0.10566000000E+00 0.  1.
     999900   -1    0    0    0    0 -0.00000000000E+00 -0.00000000000E+00 -0.74505805969E-08  0.93827000000E+00  0.93827000000E+00 0. -1.
     999902    2    1    2    0    0 -0.20946572231E-01  0.95936591367E-02 -0.59782769184E-02  0.10201279627E+01  0.10198502455E+01 0.  0.
     999903    2    3    3    0    0  0.36202292795E-01 -0.12046220132E+00  0.16215952263E-01  0.12845924429E+00  0.20422350169E-01 0.  0.
         14    1    1    2    0    0  0.20946572231E-01 -0.95936591367E-02  0.59782769184E-02  0.23802037282E-01  0.00000000000E+00 0. -1.
     999901    1    3    3    0    0 -0.57148865026E-01  0.13005586045E+00 -0.22194229181E-01  0.89166871843E+00  0.88000000000E+00 0. -1.
        -11    1    4    4    0    0  0.22268666849E-01 -0.97414990249E-01  0.77754773866E-02  0.10023119783E+00  0.51100000000E-03 0.  1.
         11    1    4    4    0    0  0.13933625946E-01 -0.23047211068E-01  0.84404748760E-02  0.28228046464E-01  0.51100000000E-03 0. -1.
</event>
<event>
 8    1  0.1095698E+005  0.1043930E+01  0.7957747E-01            NaN
         13   -1    0    0    0    0  0.00000000000E+00  0.00000000000E+00  0.74505805969E-08  0.10566000000E+00  0.10566000000E+00 0. -1.
     999900   -1    0    0    0    0 -0.00000000000E+00 -0.00000000000E+00 -0.74505805969E-08  0.93827000000E+00  0.93827000000E+00 0.  1.
     999902    2    1    2    0    0 -0.25362094578E-01  0.19590285694E-02  0.30166387388E-02  0.10183141115E+01  0.10179918742E+01 0.  0.
     999903    2    3    3    0    0  0.10288933260E+00  0.31468925310E-01  0.63487385275E-01  0.12647557580E+00  0.19720932074E-01 0.  0.
         14    1    1    2    0    0  0.25362094578E-01 -0.19590285694E-02 -0.30166387388E-02  0.25615888499E-01  0.00000000000E+00 0.  1.
     999901    1    3    3    0    0 -0.12825142718E+00 -0.29509896740E-01 -0.60470746537E-01  0.89183853570E+00  0.88000000000E+00 0.  1.
        -11    1    4    4    0    0  0.42685379099E-01  0.16971967789E-01  0.37565014775E-01  0.59342065480E-01  0.51100000000E-03 0.  1.
         11    1    4    4    0    0  0.60203953499E-01  0.14496957521E-01  0.25922370500E-01  0.67133510318E-01  0.51100000000E-03 0. -1.
</event>
<event>
 8    1  0.1095698E+005  0.1043930E+01  0.7957747E-01            NaN
         13   -1    0    0    0    0  0.00000000000E+00  0.00000000000E+00  0.74505805969E-08  0.10566000000E+00  0.10566000000E+00 0.  1.
     999900   -1    0    0    0    0 -0.00000000000E+00 -0.00000000000E+00 -0.74505805969E-08  0.93827000000E+00  0.93827000000E+00 0.  1.
     999902    2    1    2    0    0 -0.18583877696E-01  0.11010705250E-01  0.91285877239E-02  0.10204794722E+01  0.10202099911E+01 0.  0.
     999903    2    3    3    0    0 -0.11326756330E+00  0.44027202106E-01  0.52121998405E-01  0.13374189955E+00  0.20056359523E-01 0.  0.
         14    1    1    2    0    0  0.18583877696E-01 -0.11010705250E-01 -0.91285877239E-02  0.23450527801E-01  0.00000000000E+00 0.  1.
     999901    1    3    3    0    0  0.94683685601E-01 -0.33016496856E-01 -0.42993410681E-01  0.88673757265E+00  0.88000000000E+00 0.  1.
        -11    1    4    4    0    0 -0.51478208421E-01  0.22361606911E-01  0.34686246172E-01  0.65980635041E-01  0.51100000000E-03 0.  1.
         11    1    4    4    0    0 -0.61789354875E-01  0.21665595195E-01  0.17435752233E-01  0.67761264510E-01  0.51100000000E-03 0. -1.
</event>
<event>
 8    1  0.1095698E+005  0.1043930E+01  0.7957747E-01            NaN
         13   -1    0    0    0    0  0.00000000000E+00  0.00000000000E+00  0.74505805969E-08  0.10566000000E+00  0.10566000000E+00 0. -1.
     999900   -1    0    0    0    0 -0.00000000000E+00 -0.00000000000E+00 -0.74505805969E-08  0.93827000000E+00  0.93827000000E+00 0.  1.
     999902    2    1    2    0    0  0.19442119908E-01 -0.11400834929E-01 -0.81327659335E-02  0.10199692624E+01  0.10196877852E+01 0.  0.
     999903    2    3    3    0    0 -0.11139908849E-01  0.10488897827E+00  0.71391138589E-01  0.12823912806E+00  0.14925949410E-01 0.  0.
         14    1    1    2    0    0 -0.19442119908E-01  0.11400834929E-01  0.81327659335E-02  0.23960737579E-01  0.00000000000E+00 0. -1.
     999901    1    3    3    0    0  0.30582028757E-01 -0.11628981320E+00 -0.79523904523E-01  0.89173013436E+00  0.88000000000E+00 0.  1.
        -11    1    4    4    0    0 -0.74184266135E-02  0.99731608805E-01  0.65453949552E-01  0.11952366913E+00  0.51100000000E-03 0. -1.
         11    1    4    4    0    0 -0.37214822354E-02  0.51573694616E-02  0.59371890373E-02  0.87154589355E-02  0.51100000000E-03 0.  1.
</event>
<event>
 8    1  0.1095698E+005  0.1043930E+01  0.7957747E-01            NaN
         13   -1    0    0    0    0  0.00000000000E+00  0.00000000000E+00  0.74505805969E-08  0.10566000000E+00  0.10566000000E+00 0. -1.
     999900   -1    0    0    0    0 -0.00000000000E+00 -0.00000000000E+00 -0.74505805969E-08  0.93827000000E+00  0.93827000000E+00 0.  1.
     999902    2    1    2    0    0  0.16346270328E-01  0.35292999978E-02 -0.19259183206E-01  0.10184236743E+01  0.10181042224E+01 0.  0.
     999903    2    3    3    0    0 -0.96958915171E-01 -0.76464955508E-01 -0.24550486509E-01  0.12754481394E+00  0.20421374177E-01 0.  0.
         14    1    1    2    0    0 -0.16346270328E-01 -0.35292999978E-02  0.19259183206E-01  0.25506325684E-01  0.00000000000E+00 0. -1.
     999901    1    3    3    0    0  0.11330518550E+00  0.79994255505E-01  0.52913033023E-02  0.89087886038E+00  0.88000000000E+00 0.  1.
        -11    1    4    4    0    0 -0.74353317226E-01 -0.56214919993E-01 -0.95930488212E-02  0.93706033525E-01  0.51100000000E-03 0.  1.
         11    1    4    4    0    0 -0.22605597945E-01 -0.20250035514E-01 -0.14957437688E-01  0.33838780415E-01  0.51100000000E-03 0. -1.
</event>
<event>
 8    1  0.1095698E+005  0.1043930E+01  0.7957747E-01            NaN
         13   -1    0    0    0    0  0.00000000000E+00  0.00000000000E+00  0.74505805969E-08  0.10566000000E+00  0.10566000000E+00 0.  1.
     999900   -1    0    0    0    0 -0.00000000000E+00 -0.00000000000E+00 -0.74505805969E-08  0.93827000000E+00  0.93827000000E+00 0.  1.
     999902    2    1    2    0    0 -0.22189384208E-01 -0.51966723455E-02  0.70325661141E-02  0.10200798184E+01  0.10198009633E+01 0.  0.
     999903    2    3    3    0    0 -0.12534046012E+00  0.23140435211E-01  0.33154850816E-01  0.13321708390E+00  0.20045863071E-01 0.  0.
         14    1    1    2    0    0  0.22189384208E-01  0.51966723455E-02 -0.70325661141E-02  0.23850181574E-01  0.00000000000E+00 0.  1.
     999901    1    3    3    0    0  0.10315107591E+00 -0.28337107556E-01 -0.26122284702E-01  0.88686273452E+00  0.88000000000E+00 0.  1.
        -11    1    4    4    0    0 -0.86150356742E-01  0.75308850762E-02  0.17598621565E-01  0.88252879832E-01  0.51100000000E-03 0.  1.
         11    1    4    4    0    0 -0.39190103378E-01  0.15609550135E-01  0.15556229252E-01  0.44964204071E-01  0.51100000000E-03 0. -1.
</event>
<event>
 8    1  0.1095698E+005  0.1043930E+01  0.7957747E-01            NaN
         13   -1    0    0    0    0  0.00000000000E+00  0.00000000000E+00  0.74505805969E-08  0.10566000000E+00  0.10566000000E+00 0. -1.
     999900   -1    0    0    0    0 -0.00000000000E+00 -0.00000000000E+00 -0.74505805969E-08  0.93827000000E+00  0.93827000000E+00 0. -1.
     999902    2    1    2    0    0  0.10308096164E-01 -0.12165016623E-01 -0.16390924642E-01  0.10210628426E+01  0.10208067504E+01 0.  0.
     999903    2    3    3    0    0 -0.10787880308E+00 -0.21836329743E-01 -0.68799538178E-01  0.13156391613E+00  0.21471518881E-01 0.  0.
         14    1    1    2    0    0 -0.10308096164E-01  0.12165016623E-01  0.16390924642E-01  0.22867157379E-01  0.00000000000E+00 0.  1.
     999901    1    3    3    0    0  0.11818689925E+00  0.96713131205E-02  0.52408613536E-01  0.88949892649E+00  0.88000000000E+00 0.  1.
        -11    1    4    4    0    0 -0.40008942725E-01 -0.14517835471E-01 -0.36372611768E-01  0.55988490358E-01  0.51100000000E-03 0. -1.
         11    1    4    4    0    0 -0.67869860359E-01 -0.73184942726E-02 -0.32426926410E-01  0.75575425775E-01  0.51100000000E-03 0.  1.
</event>
<event>
 8    1  0.1095698E+005  0.1043930E+01  0.7957747E-01            NaN
         13   -1    0    0    0    0  0.00000000000E+00  0.00000000000E+00  0.74505805969E-08  0.10566000000E+00  0.10566000000E+00 0.  1.
     999900   -1    0    0    0    0 -0.00000000000E+00 -0.00000000000E+00 -0.74505805969E-08  0.93827000000E+00  0.93827000000E+00 0.  1.
     999902    2    1    2    0    0  0.17937971161E-01 -0.10523600477E-01 -0.12310499205E-01  0.10197625556E+01  0.10194761422E+01 0.  0.
     999903    2    3    3    0    0 -0.31093408525E-01 -0.50932505792E-01  0.11228603317E+00  0.12871752215E+00  0.19978164636E-01 0.  0.
         14    1    1    2    0    0 -0.17937971161E-01  0.10523600477E-01  0.12310499205E-01  0.24167444363E-01  0.00000000000E+00 0.  1.
     999901    1    3    3    0    0  0.49031379686E-01  0.40408905314E-01 -0.12459653238E+00  0.89104503349E+00  0.88000000000E+00 0.  1.
        -11    1    4    4    0    0 -0.21112286361E-01 -0.39862409644E-01  0.98794913454E-01  0.10860679713E+00  0.51100000000E-03 0. -1.
         11    1    4    4    0    0 -0.99811221643E-02 -0.11070096148E-01  0.13491119720E-01  0.20110725016E-01  0.51100000000E-03 0.  1.
</event>
<event>
 8    1  0.1095698E+005  0.1043930E+01  0.7957747E-01            NaN
         13   -1    0    0    0    0  0.00000000000E+00  0.00000000000E+00  0.74505805969E-08  0.10566000000E+00  0.10566000000E+00 0.  1.
     999900   -1    0    0    0    0 -0.00000000000E+00 -0.00000000000E+00 -0.74505805969E-08  0.93827000000E+00  0.93827000000E+00 0. -1.
     999902    2    1    2    0    0 -0.14118994025E-01 -0.15964303154E-01  0.14150466937E-01  0.10183479617E+01  0.10180265863E+01 0.  0.
     999903    2    3    3    0    0 -0.12605600090E+00 -0.20428115319E-01  0.22506210129E-01  0.13120668912E+00  0.20031038810E-01 0.  0.
         14    1    1    2    0    0  0.14118994025E-01  0.15964303154E-01 -0.14150466937E-01  0.25582038270E-01  0.00000000000E+00 0. -1.
     999901    1    3    3    0    0  0.11193700688E+00  0.44638121644E-02 -0.83557431917E-02  0.88714127261E+00  0.88000000000E+00 0.  1.
        -11    1    4    4    0    0 -0.77207593513E-01 -0.22326538942E-01  0.14299847938E-01  0.81634757360E-01  0.51100000000E-03 0.  1.
         11    1    4    4    0    0 -0.48848407390E-01  0.18984236235E-02  0.82063621912E-02  0.49571931758E-01  0.51100000000E-03 0. -1.
</event>
<event>
 8    1  0.1095698E+005  0.1043930E+01  0.7957747E-01            NaN
         13   -1    0    0    0    0  0.00000000000E+00  0.00000000000E+00  0.74505805969E-08  0.10566000000E+00  0.10566000000E+00 0.  1.
     999900   -1    0    0    0    0 -0.00000000000E+00 -0.00000000000E+00 -0.74505805969E-08  0.93827000000E+00  0.93827000000E+00 0. -1.
     999902    2    1    2    0    0 -0.20726723080E-01 -0.96808881879E-02  0.20550585446E-02  0.10209617630E+01  0.10207033759E+01 0.  0.
     999903    2    3    3    0    0 -0.12538562955E+00 -0.37112516207E-01 -0.20598432614E-01  0.13404623061E+00  0.21099799918E-01 0.  0.
         14    1    1    2    0    0  0.20726723080E-01  0.96808881879E-02 -0.20550585446E-02  0.22968237010E-01  0.00000000000E+00 0.  1.
     999901    1    3    3    0    0  0.10465890647E+00  0.27431628019E-01  0.22653491158E-01  0.88691553238E+00  0.88000000000E+00 0. -1.
        -11    1    4    4    0    0 -0.98035914178E-01 -0.35215875632E-01 -0.10000507512E-01  0.10464926964E+00  0.51100000000E-03 0.  1.
         11    1    4    4    0    0 -0.27349715374E-01 -0.18966405747E-02 -0.10597925101E-01  0.29396960965E-01  0.51100000000E-03 0. -1.
</event>
<event>
 8    1  0.1095698E+005  0.1043930E+01  0.7957747E-01            NaN
         13   -1    0    0    0    0  0.00000000000E+00  0.00000000000E+00  0.74505805969E-08  0.10566000000E+00  0.10566000000E+00 0.  1.
     999900   -1    0    0    0    0 -0.00000000000E+00 -0.00000000000E+00 -0.74505805969E-08  0.93827000000E+00  0.93827000000E+00 0. -1.
     999902    2    1    2    0    0 -0.15988554355E-01  0.76423404529E-02 -0.15156869241E-01  0.10206111252E+01  0.10203446961E+01 0.  0.
     999903    2    3    3    0    0 -0.35190968382E-01  0.50378531286E-01 -0.11460267395E+00  0.13377146504E+00  0.31378835429E-01 0.  0.
         14    1    1    2    0    0  0.15988554355E-01 -0.76423404529E-02  0.15156869241E-01  0.23318874826E-01  0.00000000000E+00 0.  1.
     999901    1    3    3    0    0  0.19202414027E-01 -0.42736190833E-01  0.99445804707E-01  0.88683966013E+00  0.88000000000E+00 0.  1.
        -11    1    4    4    0    0 -0.66555132718E-02  0.24165242048E-01 -0.71710653123E-01  0.75966661585E-01  0.51100000000E-03 0. -1.
         11    1    4    4    0    0 -0.28535455110E-01  0.26213289238E-01 -0.42892020825E-01  0.57804803455E-01  0.51100000000E-03 0.  1.
</event>
<event>
 8    1  0.1095698E+005  0.1043930E+01  0.7957747E-01            NaN
         13   -1    0    0    0    0  0.00000000000E+00  0.00000000000E+00  0.74505805969E-08  0.10566000000E+00  0.10566000000E+00 0. -1.
     999900   -1    0    0    0    0 -0.00000000000E+00 -0.00000000000E+00 -0.74505805969E-08  0.93827000000E+00  0.93827000000E+00 0. -1.
     999902    2    1    2    0    0 -0.81876079564E-02  0.22616962200E-01 -0.80371300590E-02  0.10185694132E+01  0.10182536473E+01 0.  0.
     999903    2    3    3    0    0 -0.55989886559E-01 -0.70758734446E-01 -0.89390204339E-01  0.12861300907E+00  0.20224528982E-01 0.  0.
         14    1    1    2    0    0  0.81876079564E-02 -0.22616962200E-01  0.80371300590E-02  0.25360586799E-01  0.00000000000E+00 0.  1.
     999901    1    3    3    0    0  0.47802278602E-01  0.93375696645E-01  0.81353074280E-01  0.88995640413E+00  0.88000000000E+00 0.  1.
        -11    1    4    4    0    0 -0.18374969905E-01 -0.13574765612E-01 -0.31808865954E-01  0.39166042112E-01  0.51100000000E-03 0.  1.
         11    1    4    4    0    0 -0.37614916654E-01 -0.57183968834E-01 -0.57581338385E-01  0.89446966956E-01  0.51100000000E-03 0. -1.
</event>
<event>
 8    1  0.1095698E+005  0.1043930E+01  0.7957747E-01            NaN
         13   -1    0    0    0    0  0.00000000000E+00  0.00000000000E+00  0.74505805969E-08  0.10566000000E+00  0.10566000000E+00 0. -1.
     999900   -1    0    0    0    0 -0.00000000000E+00 -0.00000000000E+00 -0.74505805969E-08  0.93827000000E+00  0.93827000000E+00 0.  1.
     999902    2    1    2    0    0 -0.18067620166E-01 -0.12733248530E-01 -0.68005626927E-02  0.10208037774E+01  0.10205417825E+01 0.  0.
     999903    2    3    3    0    0  0.75241963486E-01 -0.33941893320E-01  0.98209406344E-01  0.12940960055E+00  0.16980931310E-01 0.  0.
         14    1    1    2    0    0  0.18067620166E-01  0.12733248530E-01  0.68005626927E-02  0.23126222552E-01  0.00000000000E+00 0.  1.
     999901    1    3    3    0    0 -0.93309583652E-01  0.21208644790E-01 -0.10500996904E+00  0.89139417690E+00  0.88000000000E+00 0.  1.
        -11    1    4    4    0    0  0.26694994897E-01 -0.41750674580E-02  0.26638490929E-01  0.37946333957E-01  0.51100000000E-03 0. -1.
         11    1    4    4    0    0  0.48546968589E-01 -0.29766825862E-01  0.71570915415E-01  0.91463266591E-01  0.51100000000E-03 0.  1.
</event>
<event>
 8    1  0.1095698E+005  0.1043930E+01  0.7957747E-01            NaN
         13   -1    0    0    0    0  0.00000000000E+00  0.00000000000E+00  0.74505805969E-08  0.10566000000E+00  0.10566000000E+00 0. -1.
     999900   -1    0    0    0    0 -0.00000000000E+00 -0.00000000000E+00 -0.74505805969E-08  0.93827000000E+00  0.93827000000E+00 0.  1.
     999902    2    1    2    0    0  0.14023611128E-01  0.18884727507E-01 -0.76120931659E-03  0.10203954713E+01  0.10201240335E+01 0.  0.
     999903    2    3    3    0    0 -0.41994838461E-01  0.88836686174E-01  0.85219878790E-01  0.13167499176E+00  0.20502498547E-01 0.  0.
         14    1    1    2    0    0 -0.14023611128E-01 -0.18884727507E-01  0.76120931659E-03  0.23534528713E-01  0.00000000000E+00 0. -1.
     999901    1    3    3    0    0  0.56018449589E-01 -0.69951958667E-01 -0.85981088107E-01  0.88872047953E+00  0.88000000000E+00 0.  1.
        -11    1    4    4    0    0 -0.33348536461E-01  0.48114855886E-01  0.45662534811E-01  0.74246161163E-01  0.51100000000E-03 0. -1.
         11    1    4    4    0    0 -0.86463020001E-02  0.40721830288E-01  0.39557343979E-01  0.57428830599E-01  0.51100000000E-03 0.  1.
</event>
<event>
 8    1  0.1095698E+005  0.1043930E+01  0.7957747E-01            NaN
         13   -1    0    0    0    0  0.00000000000E+00  0.00000000000E+00  0.74505805969E-08  0.10566000000E+00  0.10566000000E+00 0. -1.
     999900   -1    0    0    0    0 -0.00000000000E+00 -0.00000000000E+00 -0.74505805969E-08  0.93827000000E+00  0.93827000000E+00 0. -1.
     999902    2    1    2    0    0 -0.94783293641E-02 -0.89438451058E-02  0.20113020258E-01  0.10199640935E+01  0.10196824934E+01 0.  0.
     999903    2    3    3    0    0  0.19980925604E-01 -0.11667067105E+00 -0.50240422476E-01  0.13011999270E+00  0.19895466274E-01 0.  0.
         14    1    1    2    0    0  0.94783293641E-02  0.89438451058E-02 -0.20113020258E-01  0.23965906549E-01  0.00000000000E+00 0.  1.
     999901    1    3    3    0    0 -0.29459254968E-01  0.10772682595E+00  0.70353442734E-01  0.88984410075E+00  0.88000000000E+00 0.  1.
        -11    1    4    4    0    0  0.12765754422E-01 -0.41526033523E-01 -0.10041381048E-01  0.44592223542E-01  0.51100000000E-03 0.  1.
         11    1    4    4    0    0  0.72151711828E-02 -0.75144637531E-01 -0.40199041428E-01  0.85527769161E-01  0.51100000000E-03 0. -1.
</event>
<event>
 8    1  0.1095698E+005  0.1043930E+01  0.7957747E-01            NaN
         13   -1    0    0    0    0  0.00000000000E+00  0.00000000000E+00  0.74505805969E-08  0.10566000000E+00  0.10566000000E+00 0.  1.
     999900   -1    0    0    0    0 -0.00000000000E+00 -0.00000000000E+00 -0.74505805969E-08  0.93827000000E+00  0.93827000000E+00 0. -1.
     999902    2    1    2    0    0 -0.19223845630E-01  0.63470472234E-02  0.11197705855E-01  0.10207949645E+01  0.10205327676E+01 0.  0.
     999903    2    3    3    0    0  0.82982845830E-02 -0.69757063249E-01  0.10942847923E+00  0.13163885445E+00  0.20476487327E-01 0.  0.
         14    1    1    2    0    0  0.19223845630E-01 -0.63470472234E-02 -0.11197705855E-01  0.23135035459E-01  0.00000000000E+00 0. -1.
     999901    1    3    3    0    0 -0.27522130213E-01  0.76104110472E-01 -0.98230773374E-01  0.88915611010E+00  0.88000000000E+00 0. -1.
        -11    1    4    4    0    0  0.12444986060E-01 -0.66321870657E-01  0.10400692852E+00  0.12398052471E+00  0.51100000000E-03 0.  1.
         11    1    4    4    0    0 -0.41467014775E-02 -0.34351925911E-02  0.54215507062E-02  0.76583297357E-02  0.51100000000E-03 0. -1.
</event>
<event>
 8    1  0.1095698E+005  0.1043930E+01  0.7957747E-01            NaN
         13   -1    0    0    0    0  0.00000000000E+00  0.00000000000E+00  0.74505805969E-08  0.10566000000E+00  0.10566000000E+00 0.  1.
     999900   -1    0    0    0    0 -0.00000000000E+00 -0.00000000000E+00 -0.74505805969E-08  0.93827000000E+00  0.93827000000E+00 0. -1.
     999902    2    1    2    0    0  0.32004524076E-02 -0.23904288575E-01  0.49570778023E-02  0.10193082509E+01  0.10190108340E+01 0.  0.
     999903    2    3    3    0    0 -0.42915457657E-01  0.25179589729E-01  0.11799416984E+00  0.12952553111E+00  0.19454841260E-01 0.  0.
         14    1    1    2    0    0 -0.32004524076E-02  0.23904288575E-01 -0.49570778023E-02  0.24621749090E-01  0.00000000000E+00 0. -1.
     999901    1    3    3    0    0  0.46115910065E-01 -0.49083878305E-01 -0.11303709204E+00  0.88978271980E+00  0.88000000000E+00 0. -1.
        -11    1    4    4    0    0 -0.22680579698E-01  0.10189783650E-01  0.36038067196E-01  0.43786342557E-01  0.51100000000E-03 0.  1.
         11    1    4    4    0    0 -0.20234877959E-01  0.14989806080E-01  0.81956102647E-01  0.85739188557E-01  0.51100000000E-03 0. -1.
</event>
<event>
 8    1  0.1095698E+005  0.1043930E+01  0.7957747E-01            NaN
         13   -1    0    0    0    0  0.00000000000E+00  0.00000000000E+00  0.74505805969E-08  0.10566000000E+00  0.10566000000E+00 0.  1.
     999900   -1    0    0    0    0 -0.00000000000E+00 -0.00000000000E+00 -0.74505805969E-08  0.93827000000E+00  0.93827000000E+00 0.  1.
     999902    2    1    2    0    0  0.49174015024E-02 -0.20294613556E-01  0.11037455704E-01  0.10203105672E+01  0.10200371444E+01 0.  0.
     999903    2    3    3    0    0 -0.95329897852E-01  0.83152606380E-01 -0.10298301576E-01  0.12834304377E+00  0.19071877079E-01 0.  0.
         14    1    1    2    0    0 -0.49174015024E-02  0.20294613556E-01 -0.11037455704E-01  0.23619432791E-01  0.00000000000E+00 0. -1.
     999901    1    3    3    0    0  0.10024729935E+00 -0.10344721994E+00  0.21335757280E-01  0.89196752344E+00  0.88000000000E+00 0. -1.
        -11    1    4    4    0    0 -0.63720599894E-01  0.61142135683E-01 -0.14859162963E-01  0.89552953339E-01  0.51100000000E-03 0.  1.
         11    1    4    4    0    0 -0.31609297958E-01  0.22010470697E-01  0.45608613871E-02  0.38790090427E-01  0.51100000000E-03 0. -1.
</event>
<event>
 8    1  0.1095698E+005  0.1043930E+01  0.7957747E-01            NaN
         13   -1    0    0    0    0  0.00000000000E+00  0.00000000000E+00  0.74505805969E-08  0.10566000000E+00  0.10566000000E+00 0. -1.
     999900   -1    0    0    0    0 -0.00000000000E+00 -0.00000000000E+00 -0.74505805969E-08  0.93827000000E+00  0.93827000000E+00 0.  1.
     999902    2    1    2    0    0  0.22192533067E-01  0.21336946007E-02 -0.66951384582E-02  0.10206515538E+01  0.10203860585E+01 0.  0.
     999903    2    3    3    0    0  0.74296848291E-01  0.55877239700E-01  0.91619830746E-01  0.13201829908E+00  0.19807834882E-01 0.  0.
         14    1    1    2    0    0 -0.22192533067E-01 -0.21336946007E-02  0.66951384582E-02  0.23278446158E-01  0.00000000000E+00 0. -1.
     999901    1    3    3    0    0 -0.52104315224E-01 -0.53743545099E-01 -0.98314969204E-01  0.88863325477E+00  0.88000000000E+00 0.  1.
        -11    1    4    4    0    0  0.20785255118E-01  0.13952806199E-01  0.13449349107E-01  0.28422768049E-01  0.51100000000E-03 0. -1.
         11    1    4    4    0    0  0.53511593173E-01  0.41924433501E-01  0.78170481639E-01  0.10359553103E+00  0.51100000000E-03 0.  1.
</event>
<event>
 8    1  0.1095698E+005  0.1043930E+01  0.7957747E-01            NaN
         13   -1    0    0    0    0  0.00000000000E+00  0.00000000000E+00  0.74505805969E-08  0.10566000000E+00  0.10566000000E+00 0.  1.
     999900   -1    0    0    0    0 -0.00000000000E+00 -0.00000000000E+00 -0.74505805969E-08  0.93827000000E+00  0.93827000000E+00 0.  1.
     999902    2    1    2    0    0 -0.22299540646E-01  0.82701995948E-02  0.12674345396E-02  0.10201125252E+01  0.10198344434E+01 0.  0.
     999903    2    3    3    0    0  0.19073582641E-01 -0.53918672437E-02 -0.12660654137E+00  0.12980351083E+00  0.20660622416E-01 0.  0.
         14    1    1    2    0    0  0.22299540646E-01 -0.82701995948E-02 -0.12674345396E-02  0.23817474775E-01  0.00000000000E+00 0.  1.
     999901    1    3    3    0    0 -0.41373123287E-01  0.13662066839E-01  0.12787397591E+00  0.89030901440E+00  0.88000000000E+00 0.  1.
        -11    1    4    4    0    0  0.25675862163E-02 -0.63537859458E-02 -0.80976984808E-01  0.81268052053E-01  0.51100000000E-03 0.  1.
         11    1    4    4    0    0  0.16505996424E-01  0.96191870210E-03 -0.45629556561E-01  0.48535458775E-01  0.51100000000E-03 0. -1.
</event>
<event>
 8    1  0.1316358E+005  0.1043930E+01  0.7957747E-01            NaN
         13   -1    0    0    0    0  0.00000000000E+00  0.00000000000E+00  0.74505805969E-08  0.10566000000E+00  0.10566000000E+00 0.  1.
     999900   -1    0    0    0    0 -0.00000000000E+00 -0.00000000000E+00 -0.74505805969E-08  0.93827000000E+00  0.93827000000E+00 0. -1.
     999902    2    1    2    0    0 -0.54233226034E-02 -0.22180062352E-01 -0.12702303300E-02  0.10210612204E+01  0.10208050915E+01 0.  0.
     999903    2    3    3    0    0  0.41820120222E-01  0.10714900517E+00 -0.55111531078E-01  0.12872897498E+00  0.17436638974E-01 0.  0.
         14    1    1    2    0    0  0.54233226034E-02  0.22180062352E-01  0.12702303300E-02  0.22868779571E-01  0.00000000000E+00 0.  1.
     999901    1    3    3    0    0 -0.47243442825E-01 -0.12932906752E+00  0.53841300748E-01  0.89233224545E+00  0.88000000000E+00 0.  1.
        -11    1    4    4    0    0  0.14329079160E-01  0.59554046823E-01 -0.31876816663E-01  0.69053599212E-01  0.51100000000E-03 0. -1.
         11    1    4    4    0    0  0.27491041062E-01  0.47594958345E-01 -0.23234714416E-01  0.59675375772E-01  0.51100000000E-03 0.  1.
</event>
<event>
 8    1  0.1095698E+005  0.1043930E+01  0.7957747E-01            NaN
         13   -1    0    0    0    0  0.00000000000E+00  0.00000000000E+00  0.74505805969E-08  0.10566000000E+00  0.10566000000E+00 0.  1.
     999900   -1    0    0    0    0 -0.00000000000E+00 -0.00000000000E+00 -0.74505805969E-08  0.93827000000E+00  0.93827000000E+00 0. -1.
     999902    2    1    2    0    0  0.81894007172E-02 -0.22294293562E-01  0.20581592826E-02  0.10200901630E+01  0.10198115526E+01 0.  0.
     999903    2    3    3    0    0  0.36940679305E-01  0.63483720931E-01  0.10386501228E+00  0.12961324632E+00  0.24836590620E-01 0.  0.
         14    1    1    2    0    0 -0.81894007172E-02  0.22294293562E-01 -0.20581592826E-02  0.23839837020E-01  0.00000000000E+00 0. -1.
     999901    1    3    3    0    0 -0.28751278588E-01 -0.85778014493E-01 -0.10180685300E+00  0.89047691666E+00  0.88000000000E+00 0. -1.
        -11    1    4    4    0    0  0.29872126996E-01  0.61242167067E-01  0.82557661873E-01  0.10704660505E+00  0.51100000000E-03 0. -1.
         11    1    4    4    0    0  0.70685523098E-02  0.22415538633E-02  0.21307350410E-01  0.22566641265E-01  0.51100000000E-03 0.  1.
</event>
<event>
 8    1  0.1095698E+005  0.1043930E+01  0.7957747E-01            NaN
         13   -1    0    0    0    0  0.00000000000E+00  0.00000000000E+00  0.74505805969E-08  0.10566000000E+00  0.10566000000E+00 0.  1.
     999900   -1    0    0    0    0 -0.00000000000E+00 -0.00000000000E+00 -0.74505805969E-08  0.93827000000E+00  0.93827000000E+00 0.  1.
     999902    2    1    2    0    0 -0.17500589555E-01  0.10231197154E-01  0.11915816294E-01  0.10204154363E+01  0.10201444642E+01 0.  0.
     999903    2    3    3    0    0  0.43732852036E-01  0.82297809137E-01  0.90954981526E-01  0.13182648710E+00  0.20492005761E-01 0.  0.
         14    1    1    2    0    0  0.17500589555E-01 -0.10231197154E-01 -0.11915816294E-01  0.23514563741E-01  0.00000000000E+00 0. -1.
     999901    1    3    3    0    0 -0.61233441590E-01 -0.72066611983E-01 -0.79039165231E-01  0.88858894916E+00  0.88000000000E+00 0.  1.
        -11    1    4    4    0    0  0.11307011916E-01  0.14063176053E-01  0.83700742459E-02  0.19898258795E-01  0.51100000000E-03 0. -1.
         11    1    4    4    0    0  0.32425840120E-01  0.68234633084E-01  0.82584907280E-01  0.11192822830E+00  0.51100000000E-03 0.  1.
</event>
<event>
 8    1  0.1095698E+005  0.1043930E+01  0.7957747E-01            NaN
         13   -1    0    0    0    0  0.00000000000E+00  0.00000000000E+00  0.74505805969E-08  0.10566000000E+00  0.10566000000E+00 0.  1.
     999900   -1    0    0    0    0 -0.00000000000E+00 -0.00000000000E+00 -0.74505805969E-08  0.93827000000E+00  0.93827000000E+00 0. -1.
     999902    2    1    2    0    0 -0.16518362938E-01  0.79332441054E-02  0.15460287430E-01  0.10199547385E+01  0.10196729159E+01 0.  0.
     999903    2    3    3    0    0  0.11260669705E+00  0.58342018078E-01 -0.94839243541E-02  0.12875524383E+00  0.20097479940E-01 0.  0.
         14    1    1    2    0    0  0.16518362938E-01 -0.79332441054E-02 -0.15460287430E-01  0.23975261492E-01  0.00000000000E+00 0. -1.
     999901    1    3    3    0    0 -0.12912505998E+00 -0.50408773973E-01  0.24944211784E-01  0.89119949468E+00  0.88000000000E+00 0.  1.
        -11    1    4    4    0    0  0.80056369832E-01  0.44646066026E-01  0.17854733141E-02  0.91682836989E-01  0.51100000000E-03 0.  1.
         11    1    4    4    0    0  0.32550327214E-01  0.13695952052E-01 -0.11269397668E-01  0.37072406843E-01  0.51100000000E-03 0. -1.
</event>
<event>
 8    1  0.1095698E+005  0.1043930E+01  0.7957747E-01            NaN
         13   -1    0    0    0    0  0.00000000000E+00  0.00000000000E+00  0.74505805969E-08  0.10566000000E+00  0.10566000000E+00 0.  1.
     999900   -1    0    0    0    0 -0.00000000000E+00 -0.00000000000E+00 -0.74505805969E-08  0.93827000000E+00  0.93827000000E+00 0. -1.
     999902    2    1    2    0    0 -0.26179123123E-01 -0.21258764374E-02  0.16170514368E-01  0.10130860156E+01  0.10126163754E+01 0.  0.
     999903    2    3    3    0    0  0.86582015197E-01 -0.83622937997E-01  0.46526023047E-02  0.12208124140E+00  0.19822756613E-01 0.  0.
         14    1    1    2    0    0  0.26179123123E-01  0.21258764374E-02 -0.16170514368E-01  0.30843984390E-01  0.00000000000E+00 0.  1.
     999901    1    3    3    0    0 -0.11276113832E+00  0.81497061560E-01  0.11517912064E-01  0.89100477421E+00  0.88000000000E+00 0. -1.
        -11    1    4    4    0    0  0.43685994956E-01 -0.37247893659E-01  0.11449496402E-01  0.58542495899E-01  0.51100000000E-03 0.  1.
         11    1    4    4    0    0  0.42896020242E-01 -0.46375044339E-01 -0.67968940974E-02  0.63538745505E-01  0.51100000000E-03 0. -1.
</event>
<event>
 8    1  0.1095698E+005  0.1043930E+01  0.7957747E-01            NaN
         13   -1    0    0    0    0  0.00000000000E+00  0.00000000000E+00  0.74505805969E-08  0.10566000000E+00  0.10566000000E+00 0.  1.
     999900   -1    0    0    0    0 -0.00000000000E+00 -0.00000000000E+00 -0.74505805969E-08  0.93827000000E+00  0.93827000000E+00 0.  1.
     999902    2    1    2    0    0 -0.76841320587E-02  0.11761338251E-01 -0.16147766666E-01  0.10225261375E+01  0.10223020965E+01 0.  0.
     999903    2    3    3    0    0  0.11794775110E+00 -0.34860921202E-01  0.39247767484E-01  0.13065974033E+00  0.20115284566E-01 0.  0.
         14    1    1    2    0    0  0.76841320587E-02 -0.11761338251E-01  0.16147766666E-01  0.21403862531E-01  0.00000000000E+00 0. -1.
     999901    1    3    3    0    0 -0.12563188316E+00  0.46622259453E-01 -0.55395534150E-01  0.89186639714E+00  0.88000000000E+00 0.  1.
        -11    1    4    4    0    0  0.64418381683E-01 -0.10960056770E-01  0.13999535150E-01  0.66828877355E-01  0.51100000000E-03 0.  1.
         11    1    4    4    0    0  0.53529369420E-01 -0.23900864432E-01  0.25248232334E-01  0.63830862975E-01  0.51100000000E-03 0. -1.
</event>
<event>
 8    1  0.1095698E+005  0.1043930E+01  0.7957747E-01            NaN
         13   -1    0    0    0    0  0.00000000000E+00  0.00000000000E+00  0.74505805969E-08  0.10566000000E+00  0.10566000000E+00 0.  1.
     999900   -1    0    0    0    0 -0.00000000000E+00 -0.00000000000E+00 -0.74505805969E-08  0.93827000000E+00  0.93827000000E+00 0.  1.
     999902    2    1    2    0    0  0.13148679005E-01  0.12534690720E-01 -0.14714192794E-01  0.10205523675E+01  0.10202845785E+01 0.  0.
     999903    2    3    3    0    0  0.81848598260E-01 -0.48802324646E-01  0.86829029921E-01  0.12993857106E+00  0.16244749422E-01 0.  0.
         14    1    1    2    0    0 -0.13148679005E-01 -0.12534690720E-01  0.14714192794E-01  0.23377632485E-01  0.00000000000E+00 0.  1.
     999901    1    3    3    0    0 -0.68699919254E-01  0.61337015366E-01 -0.10154322271E+00  0.89061379646E+00  0.88000000000E+00 0.  1.
        -11    1    4    4    0    0  0.59119385008E-01 -0.26478702079E-01  0.59595151933E-01  0.88023102663E-01  0.51100000000E-03 0.  1.
         11    1    4    4    0    0  0.22729213252E-01 -0.22323622567E-01  0.27233877987E-01  0.41915468395E-01  0.51100000000E-03 0. -1.
</event>
<event>
 8    1  0.1095698E+005  0.1043930E+01  0.7957747E-01            NaN
         13   -1    0    0    0    0  0.00000000000E+00  0.00000000000E+00  0.74505805969E-08  0.10566000000E+00  0.10566000000E+00 0. -1.
     999900   -1    0    0    0    0 -0.00000000000E+00 -0.00000000000E+00 -0.74505805969E-08  0.93827000000E+00  0.93827000000E+00 0. -1.
     999902    2    1    2    0    0 -0.14302344696E-01 -0.15071287105E-01  0.11250884730E-01  0.10203019835E+01  0.10200283595E+01 0.  0.
     999903    2    3    3    0    0 -0.47320790868E-01  0.96698045991E-01 -0.68180156765E-01  0.12907143418E+00  0.20521500847E-01 0.  0.
         14    1    1    2    0    0  0.14302344696E-01  0.15071287105E-01 -0.11250884730E-01  0.23628016548E-01  0.00000000000E+00 0.  1.
     999901    1    3    3    0    0  0.33018446172E-01 -0.11176933310E+00  0.79431041495E-01  0.89123054928E+00  0.88000000000E+00 0.  1.
        -11    1    4    4    0    0 -0.77840564361E-02  0.76815549793E-02 -0.15456700411E-02  0.11056583486E-01  0.51100000000E-03 0.  1.
         11    1    4    4    0    0 -0.39536734431E-01  0.89016491012E-01 -0.66634486724E-01  0.11801485069E+00  0.51100000000E-03 0. -1.
</event>
<event>
 8    1  0.1095698E+005  0.1043930E+01  0.7957747E-01            NaN
         13   -1    0    0    0    0  0.00000000000E+00  0.00000000000E+00  0.74505805969E-08  0.10566000000E+00  0.10566000000E+00 0. -1.
     999900   -1    0    0    0    0 -0.00000000000E+00 -0.00000000000E+00 -0.74505805969E-08  0.93827000000E+00  0.93827000000E+00 0. -1.
     999902    2    1    2    0    0 -0.10713642550E-02  0.10227719156E-01  0.18622237085E-01  0.10226569707E+01  0.10224356889E+01 0.  0.
     999903    2    3    3    0    0 -0.10096345392E+00 -0.70029467207E-01  0.46650445365E-01  0.13293497707E+00  0.19942386279E-01 0.  0.
         14    1    1    2    0    0  0.10713642550E-02 -0.10227719156E-01 -0.18622237085E-01  0.21273029276E-01  0.00000000000E+00 0.  1.
     999901    1    3    3    0    0  0.99892089663E-01  0.80257186363E-01 -0.28028208279E-01  0.88972199366E+00  0.88000000000E+00 0. -1.
        -11    1    4    4    0    0 -0.17785610863E-01 -0.18011248482E-01  0.16814632846E-01  0.30392861405E-01  0.51100000000E-03 0. -1.
         11    1    4    4    0    0 -0.83177843055E-01 -0.52018218724E-01  0.29835812519E-01  0.10254211566E+00  0.51100000000E-03 0.  1.
</event>
<event>
 8    1  0.1095698E+005  0.1043930E+01  0.7957747E-01            NaN
         13   -1    0    0    0    0  0.00000000000E+00  0.00000000000E+00  0.74505805969E-08  0.10566000000E+00  0.10566000000E+00 0. -1.
     999900   -1    0    0    0    0 -0.00000000000E+00 -0.00000000000E+00 -0.74505805969E-08  0.93827000000E+00  0.93827000000E+00 0.  1.
     999902    2    1    2    0    0 -0.11802087979E-01 -0.20030633142E-01  0.57374646528E-02  0.10199835171E+01  0.10197023786E+01 0.  0.
     999903    2    3    3    0    0 -0.45088614639E-01 -0.11316007264E+00  0.48877192996E-01  0.13339335158E+00  0.23803803066E-01 0.  0.
         14    1    1    2    0    0  0.11802087979E-01  0.20030633142E-01 -0.57374646528E-02  0.23946482944E-01  0.00000000000E+00 0.  1.
     999901    1    3    3    0    0  0.33286526660E-01  0.93129439498E-01 -0.43139728344E-01  0.88659016548E+00  0.88000000000E+00 0.  1.
        -11    1    4    4    0    0 -0.17151091268E-01 -0.69452474735E-01  0.21307391871E-01  0.74646314362E-01  0.51100000000E-03 0.  1.
         11    1    4    4    0    0 -0.27937523371E-01 -0.43707597906E-01  0.27569801125E-01  0.58747037218E-01  0.51100000000E-03 0. -1.
</event>
<event>
 8    1  0.1095698E+005  0.1043930E+01  0.7957747E-01            NaN
         13   -1    0    0    0    0  0.00000000000E+00  0.00000000000E+00  0.74505805969E-08  0.10566000000E+00  0.10566000000E+00 0.  1.
     999900   -1    0    0    0    0 -0.00000000000E+00 -0.00000000000E+00 -0.74505805969E-08  0.93827000000E+00  0.93827000000E+00 0. -1.
     999902    2    1    2    0    0  0.22170363598E-01 -0.96950854231E-03 -0.75287868671E-02  0.10204961015E+01  0.10202270068E+01 0.  0.
     999903    2    3    3    0    0  0.24561848652E-01 -0.11655027664E-01 -0.12791420832E+00  0.13223231789E+00  0.19601457175E-01 0.  0.
         14    1    1    2    0    0 -0.22170363598E-01  0.96950854231E-03  0.75287868671E-02  0.23433898535E-01  0.00000000000E+00 0.  1.
     999901    1    3    3    0    0 -0.23914850545E-02  0.10685519122E-01  0.12038542146E+00  0.88826378358E+00  0.88000000000E+00 0.  1.
        -11    1    4    4    0    0  0.13971600109E-01  0.24720579746E-02 -0.37259853307E-01  0.39873229988E-01  0.51100000000E-03 0.  1.
         11    1    4    4    0    0  0.10590248544E-01 -0.14127085639E-01 -0.90654355016E-01  0.92359087898E-01  0.51100000000E-03 0. -1.
</event>
<event>
 8    1  0.1095698E+005  0.1043930E+01  0.7957747E-01            NaN
         13   -1    0    0    0    0  0.00000000000E+00  0.00000000000E+00  0.74505805969E-08  0.10566000000E+00  0.10566000000E+00 0.  1.
     999900   -1    0    0    0    0 -0.00000000000E+00 -0.00000000000E+00 -0.74505805969E-08  0.93827000000E+00  0.93827000000E+00 0.  1.
     999902    2    1    2    0    0 -0.10112900266E-01  0.10280128003E-01  0.19431730953E-01  0.10197319846E+01  0.10194448373E+01 0.  0.
     999903    2    3    3    0    0  0.53245073709E-01 -0.62022790660E-01 -0.95139285932E-01  0.12711310574E+00  0.20600812776E-01 0.  0.
         14    1    1    2    0    0  0.10112900266E-01 -0.10280128003E-01 -0.19431730953E-01  0.24198015443E-01  0.00000000000E+00 0. -1.
     999901    1    3    3    0    0 -0.63357973975E-01  0.72302918664E-01  0.11457101689E+00  0.89261887882E+00  0.88000000000E+00 0. -1.
        -11    1    4    4    0    0  0.42643629674E-01 -0.39736181131E-01 -0.76524654645E-01  0.96196294794E-01  0.51100000000E-03 0. -1.
         11    1    4    4    0    0  0.10601444035E-01 -0.22286609530E-01 -0.18614631288E-01  0.30916810944E-01  0.51100000000E-03 0.  1.
</event>
<event>
 8    1  0.1095698E+005  0.1043930E+01  0.7957747E-01            NaN
         13   -1    0    0    0    0  0.00000000000E+00  0.00000000000E+00  0.74505805969E-08  0.10566000000E+00  0.10566000000E+00 0.  1.
     999900   -1    0    0    0    0 -0.00000000000E+00 -0.00000000000E+00 -0.74505805969E-08  0.93827000000E+00  0.93827000000E+00 0.  1.
     999902    2    1    2    0    0 -0.17086910639E-01 -0.14876228618E-01  0.76043110052E-02  0.10200325056E+01  0.10197525299E+01 0.  0.
     999903    2    3    3    0    0 -0.40755663912E-01  0.32810548147E-01 -0.11715688815E+00  0.12963956123E+00  0.18523584529E-01 0.  0.
         14    1    1    2    0    0  0.17086910639E-01  0.14876228618E-01 -0.76043110052E-02  0.23897494408E-01  0.00000000000E+00 0.  1.
     999901    1    3    3    0    0  0.23668753273E-01 -0.47686776765E-01  0.12476119915E+00  0.89039294436E+00  0.88000000000E+00 0. -1.
        -11    1    4    4    0    0 -0.29648555207E-01  0.12438488046E-01 -0.63473899076E-01  0.71154408125E-01  0.51100000000E-03 0. -1.
         11    1    4    4    0    0 -0.11107108705E-01  0.20372060101E-01 -0.53682989074E-01  0.58485153103E-01  0.51100000000E-03 0.  1.
</event>
<event>
 8    1  0.1095698E+005  0.1043930E+01  0.7957747E-01            NaN
         13   -1    0    0    0    0  0.00000000000E+00  0.00000000000E+00  0.74505805969E-08  0.10566000000E+00  0.10566000000E+00 0.  1.
     999900   -1    0    0    0    0 -0.00000000000E+00 -0.00000000000E+00 -0.74505805969E-08  0.93827000000E+00  0.93827000000E+00 0. -1.
     999902    2    1    2    0    0  0.12579794058E-01  0.19609929702E-01  0.69912071344E-03  0.10206214322E+01  0.10203552414E+01 0.  0.
     999903    2    3    3    0    0 -0.12137569258E+00 -0.18534129327E-02 -0.39713377558E-01  0.12930896318E+00  0.20203012448E-01 0.  0.
         14    1    1    2    0    0 -0.12579794058E-01 -0.19609929702E-01 -0.69912071344E-03  0.23308567764E-01  0.00000000000E+00 0. -1.
     999901    1    3    3    0    0  0.13395548664E+00  0.21463342635E-01  0.40412498272E-01  0.89131246906E+00  0.88000000000E+00 0. -1.
        -11    1    4    4    0    0 -0.82260859508E-01 -0.10150281405E-01 -0.23447555300E-01  0.86138993436E-01  0.51100000000E-03 0.  1.
         11    1    4    4    0    0 -0.39114833075E-01  0.82968684723E-02 -0.16265822258E-01  0.43169969744E-01  0.51100000000E-03 0. -1.
</event>
<event>
 8    1  0.1095698E+005  0.1043930E+01  0.7957747E-01            NaN
         13   -1    0    0    0    0  0.00000000000E+00  0.00000000000E+00  0.74505805969E-08  0.10566000000E+00  0.10566000000E+00 0. -1.
     999900   -1    0    0    0    0 -0.00000000000E+00 -0.00000000000E+00 -0.74505805969E-08  0.93827000000E+00  0.93827000000E+00 0.  1.
     999902    2    1    2    0    0  0.17197310767E-01  0.20020914364E-01 -0.23723139816E-02  0.10174307098E+01  0.10170855602E+01 0.  0.
     999903    2    3    3    0    0  0.95351552922E-01 -0.56390261200E-01 -0.62155671788E-01  0.12865582083E+00  0.20425780174E-01 0.  0.
         14    1    1    2    0    0 -0.17197310767E-01 -0.20020914364E-01  0.23723139816E-02  0.26499290240E-01  0.00000000000E+00 0.  1.
     999901    1    3    3    0    0 -0.78154242155E-01  0.76411175565E-01  0.59783357806E-01  0.88877488893E+00  0.88000000000E+00 0. -1.
        -11    1    4    4    0    0  0.40559235171E-01 -0.15417687329E-01 -0.16614190803E-01  0.46465568944E-01  0.51100000000E-03 0.  1.
         11    1    4    4    0    0  0.54792317751E-01 -0.40972573871E-01 -0.45541480985E-01  0.82190251888E-01  0.51100000000E-03 0. -1.
</event>
<event>
 8    1  0.1095698E+005  0.1043930E+01  0.7957747E-01            NaN
         13   -1    0    0    0    0  0.00000000000E+00  0.00000000000E+00  0.74505805969E-08  0.10566000000E+00  0.10566000000E+00 0.  1.
     999900   -1    0    0    0    0 -0.00000000000E+00 -0.00000000000E+00 -0.74505805969E-08  0.93827000000E+00  0.93827000000E+00 0.  1.
     999902    2    1    2    0    0 -0.22145570956E-01 -0.12245285933E-01 -0.70210238494E-02  0.10176684670E+01  0.10173295634E+01 0.  0.
     999903    2    3    3    0    0  0.12242339737E+00 -0.82217201974E-02 -0.19310343388E-01  0.12577867387E+00  0.19806577980E-01 0.  0.
         14    1    1    2    0    0  0.22145570956E-01  0.12245285933E-01  0.70210238494E-02  0.26261533017E-01  0.00000000000E+00 0.  1.
     999901    1    3    3    0    0 -0.14456896833E+00 -0.40235657355E-02  0.12289319538E-01  0.89188979311E+00  0.88000000000E+00 0. -1.
        -11    1    4    4    0    0  0.37469948820E-01  0.64878828012E-02 -0.44878342025E-02  0.38294796835E-01  0.51100000000E-03 0.  1.
         11    1    4    4    0    0  0.84953448553E-01 -0.14709602999E-01 -0.14822509185E-01  0.87483877034E-01  0.51100000000E-03 0. -1.
</event>
<event>
 8    1  0.1095698E+005  0.1043930E+01  0.7957747E-01            NaN
         13   -1    0    0    0    0  0.00000000000E+00  0.00000000000E+00  0.74505805969E-08  0.10566000000E+00  0.10566000000E+00 0. -1.
     999900   -1    0    0    0    0 -0.00000000000E+00 -0.00000000000E+00 -0.74505805969E-08  0.93827000000E+00  0.93827000000E+00 0.  1.
     999902    2    1    2    0    0 -0.23091602158E-01 -0.53775687193E-02 -0.40700938457E-02  0.10198736911E+01  0.10195899370E+01 0.  0.
     999903    2    3    3    0    0 -0.59423690969E-01  0.11460579673E+00  0.80196870948E-02  0.13090676735E+00  0.20164391008E-01 0.  0.
         14    1    1    2    0    0  0.23091602158E-01  0.53775687193E-02  0.40700938457E-02  0.24056308933E-01  0.00000000000E+00 0.  1.
     999901    1    3    3    0    0  0.36332088811E-01 -0.11998336545E+00 -0.12089780940E-01  0.88896692372E+00  0.88000000000E+00 0.  1.
        -11    1    4    4    0    0 -0.26110157963E-01  0.63894984581E-01  0.12161604608E-01  0.70089051578E-01  0.51100000000E-03 0.  1.
         11    1    4    4    0    0 -0.33313533006E-01  0.50710812147E-01 -0.41419175130E-02  0.60817715772E-01  0.51100000000E-03 0. -1.
</event>
<event>
 7    1  0.1095698E+005  0.1043930E+01  0.7957747E-01            NaN
         13   -1    0    0    0    0  0.00000000000E+00  0.00000000000E+00  0.74505805969E-08  0.10566000000E+00  0.10566000000E+00 0.  1.
     999900   -1    0    0    0    0 -0.00000000000E+00 -0.00000000000E+00 -0.74505805969E-08  0.93827000000E+00  0.93827000000E+00 0.  1.
     999902    2    1    2    0    0 -0.17613916730E-01  0.16691341451E-01 -0.80607167948E-02  0.10183599766E+01  0.10180389068E+01 0.  0.
         14    1    1    2    0    0  0.17613916730E-01 -0.16691341451E-01  0.80607167948E-02  0.25570023411E-01  0.00000000000E+00 0.  1.
     999901    1    3    3    0    0  0.70285872399E-01 -0.51655252573E-01 -0.63704885072E-01  0.88660401610E+00  0.88000000000E+00 0.  1.
        -11    1    3    3    0    0 -0.36231479834E-01  0.46151016796E-01  0.46311368015E-01  0.74750521140E-01  0.51100000000E-03 0.  1.
         11    1    3    3    0    0 -0.51668309295E-01  0.22195577228E-01  0.93328002627E-02  0.57005439352E-01  0.51100000000E-03 0. -1.
</event>
<event>
 8    1  0.1095698E+005  0.1043930E+01  0.7957747E-01            NaN
         13   -1    0    0    0    0  0.00000000000E+00  0.00000000000E+00  0.74505805969E-08  0.10566000000E+00  0.10566000000E+00 0.  1.
     999900   -1    0    0    0    0 -0.00000000000E+00 -0.00000000000E+00 -0.74505805969E-08  0.93827000000E+00  0.93827000000E+00 0. -1.
     999902    2    1    2    0    0  0.97251488978E-02 -0.15675348415E-01 -0.13218726864E-01  0.10212357318E+01  0.10209835406E+01 0.  0.
     999903    2    3    3    0    0 -0.94587602217E-01 -0.11527801202E-01  0.85595378753E-01  0.12957291456E+00  0.19566978031E-01 0.  0.
         14    1    1    2    0    0 -0.97251488978E-02  0.15675348415E-01  0.13218726864E-01  0.22694268195E-01  0.00000000000E+00 0.  1.
     999901    1    3    3    0    0  0.10431275111E+00 -0.41475472125E-02 -0.98814105617E-01  0.89166281725E+00  0.88000000000E+00 0. -1.
        -11    1    4    4    0    0 -0.10494585905E-01 -0.20269180191E-02  0.19301260204E-01  0.22069084631E-01  0.51100000000E-03 0.  1.
         11    1    4    4    0    0 -0.84093016312E-01 -0.95008831829E-02  0.66294118549E-01  0.10750382993E+00  0.51100000000E-03 0. -1.
</event>
<event>
 8    1  0.1095698E+005  0.1043930E+01  0.7957747E-01            NaN
         13   -1    0    0    0    0  0.00000000000E+00  0.00000000000E+00  0.74505805969E-08  0.10566000000E+00  0.10566000000E+00 0. -1.
     999900   -1    0    0    0    0 -0.00000000000E+00 -0.00000000000E+00 -0.74505805969E-08  0.93827000000E+00  0.93827000000E+00 0. -1.
     999902    2    1    2    0    0 -0.15038181366E-01  0.14992502393E-02  0.99690244148E-02  0.10258254122E+01  0.10256656377E+01 0.  0.
     999903    2    3    3    0    0  0.47925018571E-01  0.87448994496E-01  0.90092280819E-01  0.13578526747E+00  0.19413545688E-01 0.  0.
         14    1    1    2    0    0  0.15038181366E-01 -0.14992502393E-02 -0.99690244148E-02  0.18104587758E-01  0.00000000000E+00 0.  1.
     999901    1    3    3    0    0 -0.62963199937E-01 -0.85949744257E-01 -0.80123256404E-01  0.89004014477E+00  0.88000000000E+00 0. -1.
        -11    1    4    4    0    0  0.15914867354E-01  0.13302234177E-01  0.20645816128E-01  0.29270177341E-01  0.51100000000E-03 0. -1.
         11    1    4    4    0    0  0.32010151217E-01  0.74146760319E-01  0.69446464691E-01  0.10651509013E+00  0.51100000000E-03 0.  1.
</event>
<event>
 8    1  0.1095698E+005  0.1043930E+01  0.7957747E-01            NaN
         13   -1    0    0    0    0  0.00000000000E+00  0.00000000000E+00  0.74505805969E-08  0.10566000000E+00  0.10566000000E+00 0. -1.
     999900   -1    0    0    0    0 -0.00000000000E+00 -0.00000000000E+00 -0.74505805969E-08  0.93827000000E+00  0.93827000000E+00 0.  1.
     999902    2    1    2    0    0  0.88931182463E-02  0.20657300852E-01  0.68958837763E-02  0.10204062919E+01  0.10201351066E+01 0.  0.
     999903    2    3    3    0    0  0.65279232723E-01 -0.75939373159E-01  0.80840122787E-01  0.13025009108E+00  0.20044803673E-01 0.  0.
         14    1    1    2    0    0 -0.88931182463E-02 -0.20657300852E-01 -0.68958837763E-02  0.23523708119E-01  0.00000000000E+00 0. -1.
     999901    1    3    3    0    0 -0.56386114477E-01  0.96596674011E-01 -0.73944239010E-01  0.89015620080E+00  0.88000000000E+00 0.  1.
        -11    1    4    4    0    0  0.53339418242E-01 -0.48356649184E-01  0.59185279506E-01  0.93202025138E-01  0.51100000000E-03 0. -1.
         11    1    4    4    0    0  0.11939814482E-01 -0.27582723976E-01  0.21654843281E-01  0.37048065945E-01  0.51100000000E-03 0.  1.
</event>
<event>
 8    1  0.1095698E+005  0.1043930E+01  0.7957747E-01            NaN
         13   -1    0    0    0    0  0.00000000000E+00  0.00000000000E+00  0.74505805969E-08  0.10566000000E+00  0.10566000000E+00 0. -1.
     999900   -1    0    0    0    0 -0.00000000000E+00 -0.00000000000E+00 -0.74505805969E-08  0.93827000000E+00  0.93827000000E+00 0. -1.
     999902    2    1    2    0    0 -0.20805739899E-01  0.94459561310E-02  0.50028385449E-02  0.10205391194E+01  0.10202710233E+01 0.  0.
     999903    2    3    3    0    0  0.10555729136E+00  0.38009446311E-01  0.60836058054E-01  0.12930355179E+00  0.20768311894E-01 0.  0.
         14    1    1    2    0    0  0.20805739899E-01 -0.94459561310E-02 -0.50028385449E-02  0.23390880562E-01  0.00000000000E+00 0.  1.
     999901    1    3    3    0    0 -0.12636303125E+00 -0.28563490180E-01 -0.55833219509E-01  0.89123556765E+00  0.88000000000E+00 0.  1.
        -11    1    4    4    0    0  0.84477475802E-01  0.21916845119E-01  0.42624958008E-01  0.97128472572E-01  0.51100000000E-03 0.  1.
         11    1    4    4    0    0  0.21079815553E-01  0.16092601192E-01  0.18211100045E-01  0.32175079219E-01  0.51100000000E-03 0. -1.
</event>
<event>
 8    1  0.1095698E+005  0.1043930E+01  0.7957747E-01            NaN
         13   -1    0    0    0    0  0.00000000000E+00  0.00000000000E+00  0.74505805969E-08  0.10566000000E+00  0.10566000000E+00 0. -1.
     999900   -1    0    0    0    0 -0.00000000000E+00 -0.00000000000E+00 -0.74505805969E-08  0.93827000000E+00  0.93827000000E+00 0. -1.
     999902    2    1    2    0    0  0.15879242270E-01 -0.62994617052E-02 -0.19122075177E-01  0.10182884846E+01  0.10179655940E+01 0.  0.
     999903    2    3    3    0    0 -0.19592102338E-02  0.12502170767E+00  0.15041858053E-01  0.12770966482E+00  0.21195166906E-01 0.  0.
         14    1    1    2    0    0 -0.15879242270E-01  0.62994617052E-02  0.19122075177E-01  0.25641515398E-01  0.00000000000E+00 0. -1.
     999901    1    3    3    0    0  0.17838452503E-01 -0.13132116938E+00 -0.34163933230E-01  0.89057881978E+00  0.88000000000E+00 0.  1.
        -11    1    4    4    0    0 -0.11386996926E-01  0.78320672186E-01  0.10713175392E-01  0.79867544338E-01  0.51100000000E-03 0.  1.
         11    1    4    4    0    0  0.94277866919E-02  0.46701035487E-01  0.43286826609E-02  0.47842120480E-01  0.51100000000E-03 0. -1.
</event>
<event>
 8    1  0.1095698E+005  0.1043930E+01  0.7957747E-01            NaN
         13   -1    0    0    0    0  0.00000000000E+00  0.00000000000E+00  0.74505805969E-08  0.10566000000E+00  0.10566000000E+00 0. -1.
     999900   -1    0    0    0    0 -0.00000000000E+00 -0.00000000000E+00 -0.74505805969E-08  0.93827000000E+00  0.93827000000E+00 0. -1.
     999902    2    1    2    0    0 -0.93452565203E-02  0.26533097271E-04 -0.21932889190E-01  0.10200891495E+01  0.10198105152E+01 0.  0.
     999903    2    3    3    0    0  0.15421496216E-01 -0.71568638929E-01 -0.10874681254E+00  0.13257806903E+00  0.19778334812E-01 0.  0.
         14    1    1    2    0    0  0.93452565203E-02 -0.26533097271E-04  0.21932889190E-01  0.23840850481E-01  0.00000000000E+00 0. -1.
     999901    1    3    3    0    0 -0.24766752736E-01  0.71595172026E-01  0.86813923347E-01  0.88751108049E+00  0.88000000000E+00 0. -1.
        -11    1    4    4    0    0 -0.14744465397E-02 -0.28474029817E-01 -0.31228098331E-01  0.42289474021E-01  0.51100000000E-03 0.  1.
         11    1    4    4    0    0  0.16895942756E-01 -0.43094609112E-01 -0.77518714206E-01  0.90288595012E-01  0.51100000000E-03 0. -1.
</event>
<event>
 8    1  0.1095698E+005  0.1043930E+01  0.7957747E-01            NaN
         13   -1    0    0    0    0  0.00000000000E+00  0.00000000000E+00  0.74505805969E-08  0.10566000000E+00  0.10566000000E+00 0.  1.
     999900   -1    0    0    0    0 -0.00000000000E+00 -0.00000000000E+00 -0.74505805969E-08  0.93827000000E+00  0.93827000000E+00 0. -1.
     999902    2    1    2    0    0 -0.64910769356E-02  0.53608127065E-02 -0.20051497594E-01  0.10221829324E+01  0.10219515705E+01 0.  0.
     999903    2    3    3    0    0 -0.36874495567E-01  0.56563463693E-01 -0.11518808341E+00  0.13505507604E+00  0.20308253399E-01 0.  0.
         14    1    1    2    0    0  0.64910769356E-02 -0.53608127065E-02  0.20051497594E-01  0.21747067582E-01  0.00000000000E+00 0.  1.
     999901    1    3    3    0    0  0.30383418632E-01 -0.51202650987E-01  0.95136585819E-01  0.88712785638E+00  0.88000000000E+00 0.  1.
        -11    1    4    4    0    0 -0.12670545906E-01  0.54344781348E-02 -0.26133331600E-01  0.29551453901E-01  0.51100000000E-03 0.  1.
         11    1    4    4    0    0 -0.24203949661E-01  0.51128985558E-01 -0.89054751814E-01  0.10550362214E+00  0.51100000000E-03 0. -1.
</event>
<event>
 8    1  0.1095698E+005  0.1043930E+01  0.7957747E-01            NaN
         13   -1    0    0    0    0  0.00000000000E+00  0.00000000000E+00  0.74505805969E-08  0.10566000000E+00  0.10566000000E+00 0. -1.
     999900   -1    0    0    0    0 -0.00000000000E+00 -0.00000000000E+00 -0.74505805969E-08  0.93827000000E+00  0.93827000000E+00 0. -1.
     999902    2    1    2    0    0  0.20946317816E-01  0.49538689007E-02  0.78126773157E-02  0.10210318129E+01  0.10207750173E+01 0.  0.
     999903    2    3    3    0    0  0.75881855686E-01 -0.19353257367E-01  0.10615895504E+00  0.13351801576E+00  0.20609032092E-01 0.  0.
         14    1    1    2    0    0 -0.20946317816E-01 -0.49538689007E-02 -0.78126773157E-02  0.22898187133E-01  0.00000000000E+00 0. -1.
     999901    1    3    3    0    0 -0.54935537871E-01  0.24307126268E-01 -0.98346277729E-01  0.88751379710E+00  0.88000000000E+00 0. -1.
        -11    1    4    4    0    0  0.32414759888E-01 -0.64481216016E-02  0.61797371819E-01  0.70081889355E-01  0.51100000000E-03 0. -1.
         11    1    4    4    0    0  0.43467095799E-01 -0.12905135766E-01  0.44361583225E-01  0.63436126407E-01  0.51100000000E-03 0.  1.
</event>
<event>
 8    1  0.1095698E+005  0.1043930E+01  0.7957747E-01            NaN
         13   -1    0    0    0    0  0.00000000000E+00  0.00000000000E+00  0.74505805969E-08  0.10566000000E+00  0.10566000000E+00 0.  1.
     999900   -1    0    0    0    0 -0.00000000000E+00 -0.00000000000E+00 -0.74505805969E-08  0.93827000000E+00  0.93827000000E+00 0.  1.
     999902    2    1    2    0    0  0.10430930031E-02 -0.54358410196E-02  0.23417169057E-01  0.10198675767E+01  0.10195836767E+01 0.  0.
     999903    2    3    3    0    0 -0.43128051285E-01  0.10797896859E+00 -0.50668721613E-01  0.12840656897E+00  0.20035996120E-01 0.  0.
         14    1    1    2    0    0 -0.10430930031E-02  0.54358410196E-02 -0.23417169057E-01  0.24062423345E-01  0.00000000000E+00 0. -1.
     999901    1    3    3    0    0  0.44171144288E-01 -0.11341480960E+00  0.74085890669E-01  0.89146100768E+00  0.88000000000E+00 0.  1.
        -11    1    4    4    0    0 -0.19503021558E-01  0.28090005241E-01 -0.20069716757E-01  0.39654393149E-01  0.51100000000E-03 0. -1.
         11    1    4    4    0    0 -0.23625029727E-01  0.79888963345E-01 -0.30599004855E-01  0.88752175821E-01  0.51100000000E-03 0.  1.
</event>
<event>
 8    1  0.1095698E+005  0.1043930E+01  0.7957747E-01            NaN
         13   -1    0    0    0    0  0.00000000000E+00  0.00000000000E+00  0.74505805969E-08  0.10566000000E+00  0.10566000000E+00 0. -1.
     999900   -1    0    0    0    0 -0.00000000000E+00 -0.00000000000E+00 -0.74505805969E-08  0.93827000000E+00  0.93827000000E+00 0.  1.
     999902    2    1    2    0    0  0.14784180494E-01  0.27542315139E-02 -0.18992453064E-01  0.10197045783E+01  0.10194167724E+01 0.  0.
     999903    2    3    3    0    0 -0.85799432759E-01 -0.82614141067E-01  0.40786462702E-01  0.12786471538E+00  0.22343028736E-01 0.  0.
         14    1    1    2    0    0 -0.14784180494E-01 -0.27542315139E-02  0.18992453064E-01  0.24225421719E-01  0.00000000000E+00 0. -1.
     999901    1    3    3    0    0  0.10058361325E+00  0.85368372581E-01 -0.59778915765E-01  0.89183986290E+00  0.88000000000E+00 0.  1.
        -11    1    4    4    0    0 -0.61376404962E-01 -0.48698096127E-01  0.34448389220E-01  0.85589253376E-01  0.51100000000E-03 0.  1.
         11    1    4    4    0    0 -0.24423027797E-01 -0.33916044939E-01  0.63380734815E-02  0.42275462003E-01  0.51100000000E-03 0. -1.
</event>
<event>
 8    1  0.1095698E+005  0.1043930E+01  0.7957747E-01            NaN
         13   -1    0    0    0    0  0.00000000000E+00  0.00000000000E+00  0.74505805969E-08  0.10566000000E+00  0.10566000000E+00 0.  1.
     999900   -1    0    0    0    0 -0.00000000000E+00 -0.00000000000E+00 -0.74505805969E-08  0.93827000000E+00  0.93827000000E+00 0.  1.
     999902    2    1    2    0    0  0.17036276042E-01 -0.29093278485E-02 -0.18194657594E-01  0.10188352903E+01  0.10185261923E+01 0.  0.
     999903    2    3    3    0    0 -0.56768594001E-01 -0.11374483648E+00 -0.70183834951E-02  0.12874732953E+00  0.19132591631E-01 0.  0.
         14    1    1    2    0    0 -0.17036276042E-01  0.29093278485E-02  0.18194657594E-01  0.25094709699E-01  0.00000000000E+00 0.  1.
     999901    1    3    3    0    0  0.73804870043E-01  0.11083550863E+00 -0.11176274099E-01  0.89008796078E+00  0.88000000000E+00 0.  1.
        -11    1    4    4    0    0 -0.38487026890E-01 -0.86562529343E-01 -0.12413047607E-01  0.95544061024E-01  0.51100000000E-03 0.  1.
         11    1    4    4    0    0 -0.18281567111E-01 -0.27182307136E-01  0.53946641123E-02  0.33203268501E-01  0.51100000000E-03 0. -1.
</event>
<event>
 8    1  0.1095698E+005  0.1043930E+01  0.7957747E-01            NaN
         13   -1    0    0    0    0  0.00000000000E+00  0.00000000000E+00  0.74505805969E-08  0.10566000000E+00  0.10566000000E+00 0.  1.
     999900   -1    0    0    0    0 -0.00000000000E+00 -0.00000000000E+00 -0.74505805969E-08  0.93827000000E+00  0.93827000000E+00 0. -1.
     999902    2    1    2    0    0 -0.14032788082E-01  0.18456857914E-01  0.17957262196E-03  0.10207436464E+01  0.10204802716E+01 0.  0.
     999903    2    3    3    0    0 -0.98735680769E-01  0.77061674247E-01 -0.42364110734E-01  0.13371542280E+00  0.19946431303E-01 0.  0.
         14    1    1    2    0    0  0.14032788082E-01 -0.18456857914E-01 -0.17957262196E-03  0.23186353567E-01  0.00000000000E+00 0.  1.
     999901    1    3    3    0    0  0.84702892687E-01 -0.58604816333E-01  0.42543683356E-01  0.88702822363E+00  0.88000000000E+00 0. -1.
        -11    1    4    4    0    0 -0.51076386802E-01  0.27326849408E-01 -0.20271011447E-01  0.61373683394E-01  0.51100000000E-03 0. -1.
         11    1    4    4    0    0 -0.47659293968E-01  0.49734824838E-01 -0.22093099288E-01  0.72341739407E-01  0.51100000000E-03 0.  1.
</event>
<event>
 8    1  0.1095698E+005  0.1043930E+01  0.7957747E-01            NaN
         13   -1    0    0    0    0  0.00000000000E+00  0.00000000000E+00  0.74505805969E-08  0.10566000000E+00  0.10566000000E+00 0. -1.
     999900   -1    0    0    0    0 -0.00000000000E+00 -0.00000000000E+00 -0.74505805969E-08  0.93827000000E+00  0.93827000000E+00 0. -1.
     999902    2    1    2    0    0  0.10196053230E-01  0.14318975737E-01 -0.15599268179E-01  0.10204283036E+01  0.10201576314E+01 0.  0.
     999903    2    3    3    0    0 -0.91208837639E-01 -0.17446327858E-01 -0.90041937719E-01  0.13091512353E+00  0.20193875354E-01 0.  0.
         14    1    1    2    0    0 -0.10196053230E-01 -0.14318975737E-01  0.15599268179E-01  0.23501696436E-01  0.00000000000E+00 0. -1.
     999901    1    3    3    0    0  0.10140489087E+00  0.31765303595E-01  0.74442669540E-01  0.88951318003E+00  0.88000000000E+00 0.  1.
        -11    1    4    4    0    0 -0.69539387415E-01 -0.78455660994E-02 -0.76214209340E-01  0.10347050853E+00  0.51100000000E-03 0. -1.
         11    1    4    4    0    0 -0.21669450223E-01 -0.96007617584E-02 -0.13827728379E-01  0.27444614999E-01  0.51100000000E-03 0.  1.
</event>
<event>
 8    1  0.1095698E+005  0.1043930E+01  0.7957747E-01            NaN
         13   -1    0    0    0    0  0.00000000000E+00  0.00000000000E+00  0.74505805969E-08  0.10566000000E+00  0.10566000000E+00 0.  1.
     999900   -1    0    0    0    0 -0.00000000000E+00 -0.00000000000E+00 -0.74505805969E-08  0.93827000000E+00  0.93827000000E+00 0.  1.
     999902    2    1    2    0    0  0.22899650298E-01 -0.49596406188E-02 -0.28264883145E-02  0.10203295539E+01  0.10200565757E+01 0.  0.
     999903    2    3    3    0    0 -0.10002132843E+00  0.60879961739E-01  0.47707389087E-01  0.12791816167E+00  0.19401681116E-01 0.  0.
         14    1    1    2    0    0 -0.22899650298E-01  0.49596406188E-02  0.28264883145E-02  0.23600446077E-01  0.00000000000E+00 0.  1.
     999901    1    3    3    0    0  0.12292097873E+00 -0.65839602358E-01 -0.50533877402E-01  0.89241139225E+00  0.88000000000E+00 0.  1.
        -11    1    4    4    0    0 -0.88492690436E-01  0.49671180858E-01  0.34765315863E-01  0.10727101555E+00  0.51100000000E-03 0.  1.
         11    1    4    4    0    0 -0.11528637995E-01  0.11208780881E-01  0.12942073224E-01  0.20647146127E-01  0.51100000000E-03 0. -1.
</event>
<event>
 8    1  0.1095698E+005  0.1043930E+01  0.7957747E-01            NaN
         13   -1    0    0    0    0  0.00000000000E+00  0.00000000000E+00  0.74505805969E-08  0.10566000000E+00  0.10566000000E+00 0.  1.
     999900   -1    0    0    0    0 -0.00000000000E+00 -0.00000000000E+00 -0.74505805969E-08  0.93827000000E+00  0.93827000000E+00 0.  1.
     999902    2    1    2    0    0  0.25853951675E-01 -0.28563051719E-02  0.37149314730E-02  0.10176548023E+01  0.10173155414E+01 0.  0.
     999903    2    3    3    0    0 -0.45363550646E-01 -0.20893933479E-01 -0.11466050627E+00  0.12669462762E+00  0.20250649044E-01 0.  0.
         14    1    1    2    0    0 -0.25853951675E-01  0.28563051719E-02 -0.37149314730E-02  0.26275197665E-01  0.00000000000E+00 0.  1.
     999901    1    3    3    0    0  0.71217502321E-01  0.18037628307E-01  0.11837543774E+00  0.89096017472E+00  0.88000000000E+00 0. -1.
        -11    1    4    4    0    0 -0.18681268274E-01 -0.19588752059E-01 -0.53832205582E-01  0.60256754562E-01  0.51100000000E-03 0.  1.
         11    1    4    4    0    0 -0.26682282372E-01 -0.13051814204E-02 -0.60828300684E-01  0.66437873056E-01  0.51100000000E-03 0. -1.
</event>
<event>
 8    1  0.1095698E+005  0.1043930E+01  0.7957747E-01            NaN
         13   -1    0    0    0    0  0.00000000000E+00  0.00000000000E+00  0.74505805969E-08  0.10566000000E+00  0.10566000000E+00 0. -1.
     999900   -1    0    0    0    0 -0.00000000000E+00 -0.00000000000E+00 -0.74505805969E-08  0.93827000000E+00  0.93827000000E+00 0. -1.
     999902    2    1    2    0    0  0.83589904629E-02 -0.23421534549E-01  0.43645650683E-02  0.10186814272E+01  0.10183684793E+01 0.  0.
     999903    2    3    3    0    0 -0.84023014601E-01 -0.79411955381E-01  0.57298439668E-01  0.13049712356E+00  0.19500318683E-01 0.  0.
         14    1    1    2    0    0 -0.83589904629E-02  0.23421534549E-01 -0.43645650683E-02  0.25248572839E-01  0.00000000000E+00 0.  1.
     999901    1    3    3    0    0  0.92382005064E-01  0.55990420832E-01 -0.52933874599E-01  0.88818430360E+00  0.88000000000E+00 0. -1.
        -11    1    4    4    0    0 -0.56666876580E-01 -0.43916762064E-01  0.28080025693E-01  0.76997180828E-01  0.51100000000E-03 0.  1.
         11    1    4    4    0    0 -0.27356138021E-01 -0.35495193317E-01  0.29218413975E-01  0.53499942731E-01  0.51100000000E-03 0. -1.
</event>
<event>
 8    1  0.1095698E+005  0.1043930E+01  0.7957747E-01            NaN
         13   -1    0    0    0    0  0.00000000000E+00  0.00000000000E+00  0.74505805969E-08  0.10566000000E+00  0.10566000000E+00 0. -1.
     999900   -1    0    0    0    0 -0.00000000000E+00 -0.00000000000E+00 -0.74505805969E-08  0.93827000000E+00  0.93827000000E+00 0. -1.
     999902    2    1    2    0    0 -0.33531483476E-02  0.21787087502E-01 -0.43035340499E-02  0.10214702317E+01  0.10212232827E+01 0.  0.
     999903    2    3    3    0    0  0.40980229685E-01  0.12402758161E+00 -0.24568866944E-01  0.13421082729E+00  0.18619793588E-01 0.  0.
         14    1    1    2    0    0  0.33531483476E-02 -0.21787087502E-01  0.43035340499E-02  0.22459768275E-01  0.00000000000E+00 0.  1.
     999901    1    3    3    0    0 -0.44333378033E-01 -0.10224049411E+00  0.20265332895E-01  0.88725940444E+00  0.88000000000E+00 0.  1.
        -11    1    4    4    0    0  0.28759089548E-01  0.79442308870E-01 -0.70966762391E-02  0.84786730123E-01  0.51100000000E-03 0. -1.
         11    1    4    4    0    0  0.12221140137E-01  0.44585272741E-01 -0.17472190705E-01  0.49424097166E-01  0.51100000000E-03 0.  1.
</event>
<event>
 8    1  0.1095698E+005  0.1043930E+01  0.7957747E-01            NaN
         13   -1    0    0    0    0  0.00000000000E+00  0.00000000000E+00  0.74505805969E-08  0.10566000000E+00  0.10566000000E+00 0. -1.
     999900   -1    0    0    0    0 -0.00000000000E+00 -0.00000000000E+00 -0.74505805969E-08  0.93827000000E+00  0.93827000000E+00 0. -1.
     999902    2    1    2    0    0  0.12675066893E-01 -0.79181006910E-02 -0.19723312594E-01  0.10191840367E+01  0.10188835743E+01 0.  0.
     999903    2    3    3    0    0  0.93468564436E-01 -0.80676403039E-01  0.37671704164E-01  0.13063716246E+00  0.20046355648E-01 0.  0.
         14    1    1    2    0    0 -0.12675066893E-01  0.79181006910E-02  0.19723312594E-01  0.24745963287E-01  0.00000000000E+00 0. -1.
     999901    1    3    3    0    0 -0.80793497543E-01  0.72758302348E-01 -0.57395016758E-01  0.88854687426E+00  0.88000000000E+00 0.  1.
        -11    1    4    4    0    0  0.53417544350E-01 -0.34690352862E-01  0.24512938806E-01  0.68249541508E-01  0.51100000000E-03 0.  1.
         11    1    4    4    0    0  0.40051020085E-01 -0.45986050176E-01  0.13158765357E-01  0.62387620947E-01  0.51100000000E-03 0. -1.
</event>
<event>
 8    1  0.1095698E+005  0.1043930E+01  0.7957747E-01            NaN
         13   -1    0    0    0    0  0.00000000000E+00  0.00000000000E+00  0.74505805969E-08  0.10566000000E+00  0.10566000000E+00 0. -1.
     999900   -1    0    0    0    0 -0.00000000000E+00 -0.00000000000E+00 -0.74505805969E-08  0.93827000000E+00  0.93827000000E+00 0.  1.
     999902    2    1    2    0    0  0.10365788807E-01  0.19596249904E-01  0.62670172134E-02  0.10208922464E+01  0.10206322749E+01 0.  0.
     999903    2    3    3    0    0 -0.81387372370E-01  0.88549692523E-01 -0.49745728693E-01  0.13167312402E+00  0.19955491448E-01 0.  0.
         14    1    1    2    0    0 -0.10365788807E-01 -0.19596249904E-01 -0.62670172134E-02  0.23037753637E-01  0.00000000000E+00 0. -1.
     999901    1    3    3    0    0  0.91753161177E-01 -0.68953442618E-01  0.56012745906E-01  0.88921912234E+00  0.88000000000E+00 0. -1.
        -11    1    4    4    0    0 -0.55686163885E-01  0.71329455833E-01 -0.31882707985E-01  0.95945861334E-01  0.51100000000E-03 0.  1.
         11    1    4    4    0    0 -0.25701208486E-01  0.17220236690E-01 -0.17863020708E-01  0.35727262687E-01  0.51100000000E-03 0. -1.
</event>
<event>
 8    1  0.1095698E+005  0.1043930E+01  0.7957747E-01            NaN
         13   -1    0    0    0    0  0.00000000000E+00  0.00000000000E+00  0.74505805969E-08  0.10566000000E+00  0.10566000000E+00 0.  1.
     999900   -1    0    0    0    0 -0.00000000000E+00 -0.00000000000E+00 -0.74505805969E-08  0.93827000000E+00  0.93827000000E+00 0.  1.
     999902    2    1    2    0    0  0.24436131608E-01 -0.54786707059E-02 -0.36908941363E-02  0.10186167019E+01  0.10183021272E+01 0.  0.
     999903    2    3    3    0    0  0.12469541540E+00 -0.22159943218E-01  0.30932421134E-01  0.13209035554E+00  0.21237646894E-01 0.  0.
         14    1    1    2    0    0 -0.24436131608E-01  0.54786707059E-02  0.36908941363E-02  0.25313298090E-01  0.00000000000E+00 0.  1.
     999901    1    3    3    0    0 -0.10025928379E+00  0.16681272512E-01 -0.34623315270E-01  0.88652634637E+00  0.88000000000E+00 0. -1.
        -11    1    4    4    0    0  0.72539186424E-01 -0.23464959435E-01  0.18150028437E-01  0.78372332756E-01  0.51100000000E-03 0. -1.
         11    1    4    4    0    0  0.52156228976E-01  0.13050162167E-02  0.12782392697E-01  0.53718022789E-01  0.51100000000E-03 0.  1.
</event>
<event>
 8    1  0.1095698E+005  0.1043930E+01  0.7957747E-01            NaN
         13   -1    0    0    0    0  0.00000000000E+00  0.00000000000E+00  0.74505805969E-08  0.10566000000E+00  0.10566000000E+00 0.  1.
     999900   -1    0    0    0    0 -0.00000000000E+00 -0.00000000000E+00 -0.74505805969E-08  0.93827000000E+00  0.93827000000E+00 0. -1.
     999902    2    1    2    0    0 -0.21034133288E-01  0.37164866423E-02 -0.20599276134E-02  0.10224709614E+01  0.10222457515E+01 0.  0.
     999903    2    3    3    0    0  0.57406571496E-01  0.10918857164E+00 -0.41833095387E-01  0.13181995805E+00  0.20219664791E-01 0.  0.
         14    1    1    2    0    0  0.21034133288E-01 -0.37164866423E-02  0.20599276134E-02  0.21459038606E-01  0.00000000000E+00 0.  1.
     999901    1    3    3    0    0 -0.78440704783E-01 -0.10547208499E+00  0.39773167774E-01  0.89065100334E+00  0.88000000000E+00 0. -1.
        -11    1    4    4    0    0  0.28756494834E-01  0.37020205803E-01 -0.21365778500E-01  0.51518824179E-01  0.51100000000E-03 0. -1.
         11    1    4    4    0    0  0.28650076661E-01  0.72168365833E-01 -0.20467316887E-01  0.80301133873E-01  0.51100000000E-03 0.  1.
</event>
<event>
 8    1  0.1095698E+005  0.1043930E+01  0.7957747E-01            NaN
         13   -1    0    0    0    0  0.00000000000E+00  0.00000000000E+00  0.74505805969E-08  0.10566000000E+00  0.10566000000E+00 0.  1.
     999900   -1    0    0    0    0 -0.00000000000E+00 -0.00000000000E+00 -0.74505805969E-08  0.93827000000E+00  0.93827000000E+00 0.  1.
     999902    2    1    2    0    0  0.18341100117E-01  0.36798097828E-02  0.15061666999E-01  0.10199135314E+01  0.10196307276E+01 0.  0.
     999903    2    3    3    0    0  0.11055888353E+00 -0.46145997136E-01  0.53694306036E-01  0.13285140759E+00  0.20339572737E-01 0.  0.
         14    1    1    2    0    0 -0.18341100117E-01 -0.36798097828E-02 -0.15061666999E-01  0.24016468648E-01  0.00000000000E+00 0.  1.
     999901    1    3    3    0    0 -0.92217783413E-01  0.49825806919E-01 -0.38632639037E-01  0.88706212376E+00  0.88000000000E+00 0.  1.
        -11    1    4    4    0    0  0.11728186629E-01 -0.12136085938E-01  0.55255697145E-02  0.17765922019E-01  0.51100000000E-03 0.  1.
         11    1    4    4    0    0  0.98830696901E-01 -0.34009911198E-01  0.48168736321E-01  0.11508548557E+00  0.51100000000E-03 0. -1.
</event>
<event>
 8    1  0.1095698E+005  0.1043930E+01  0.7957747E-01            NaN
         13   -1    0    0    0    0  0.00000000000E+00  0.00000000000E+00  0.74505805969E-08  0.10566000000E+00  0.10566000000E+00 0. -1.
     999900   -1    0    0    0    0 -0.00000000000E+00 -0.00000000000E+00 -0.74505805969E-08  0.93827000000E+00  0.93827000000E+00 0. -1.
     999902    2    1    2    0    0  0.10044056687E-01  0.14048244251E-01  0.16446944485E-01  0.10200817669E+01  0.10198029579E+01 0.  0.
     999903    2    3    3    0    0 -0.83908901611E-01  0.68948309984E-01  0.71679336075E-01  0.13166081220E+00  0.20051659024E-01 0.  0.
         14    1    1    2    0    0 -0.10044056687E-01 -0.14048244251E-01 -0.16446944485E-01  0.23848233145E-01  0.00000000000E+00 0.  1.
     999901    1    3    3    0    0  0.93952958297E-01 -0.54900065733E-01 -0.55232391590E-01  0.88842095466E+00  0.88000000000E+00 0. -1.
        -11    1    4    4    0    0 -0.75182288959E-01  0.58253161361E-01  0.54507065401E-01  0.10962248255E+00  0.51100000000E-03 0.  1.
         11    1    4    4    0    0 -0.87266126518E-02  0.10695148622E-01  0.17172270674E-01  0.22038329645E-01  0.51100000000E-03 0. -1.
</event>
<event>
 8    1  0.1095698E+005  0.1043930E+01  0.7957747E-01            NaN
         13   -1    0    0    0    0  0.00000000000E+00  0.00000000000E+00  0.74505805969E-08  0.10566000000E+00  0.10566000000E+00 0.  1.
     999900   -1    0    0    0    0 -0.00000000000E+00 -0.00000000000E+00 -0.74505805969E-08  0.93827000000E+00  0.93827000000E+00 0. -1.
     999902    2    1    2    0    0 -0.10063780960E-01  0.12659284832E-01 -0.16991345391E-01  0.10204727410E+01  0.10202031034E+01 0.  0.
     999903    2    3    3    0    0  0.60479403129E-01  0.11363163129E+00  0.15816906940E-01  0.13128876852E+00  0.20412260051E-01 0.  0.
         14    1    1    2    0    0  0.10063780960E-01 -0.12659284832E-01  0.16991345391E-01  0.23457258959E-01  0.00000000000E+00 0.  1.
     999901    1    3    3    0    0 -0.70543184089E-01 -0.10097234646E+00 -0.32808252331E-01  0.88918397252E+00  0.88000000000E+00 0. -1.
        -11    1    4    4    0    0  0.42144362159E-01  0.58441926734E-01  0.59502796036E-02  0.72299882507E-01  0.51100000000E-03 0.  1.
         11    1    4    4    0    0  0.18335040970E-01  0.55189704560E-01  0.98666273364E-02  0.58988886010E-01  0.51100000000E-03 0. -1.
</event>
<event>
 8    1  0.1095698E+005  0.1043930E+01  0.7957747E-01            NaN
         13   -1    0    0    0    0  0.00000000000E+00  0.00000000000E+00  0.74505805969E-08  0.10566000000E+00  0.10566000000E+00 0.  1.
     999900   -1    0    0    0    0 -0.00000000000E+00 -0.00000000000E+00 -0.74505805969E-08  0.93827000000E+00  0.93827000000E+00 0.  1.
     999902    2    1    2    0    0 -0.14732811818E-01  0.17811391357E-03  0.18190003702E-01  0.10205213755E+01  0.10202528677E+01 0.  0.
     999903    2    3    3    0    0 -0.67911873510E-01 -0.99812337180E-01  0.50953966619E-01  0.13265900989E+00  0.20678031187E-01 0.  0.
         14    1    1    2    0    0  0.14732811818E-01 -0.17811391357E-03 -0.18190003702E-01  0.23408624549E-01  0.00000000000E+00 0. -1.
     999901    1    3    3    0    0  0.53179061693E-01  0.99990451094E-01 -0.32763962917E-01  0.88786236556E+00  0.88000000000E+00 0. -1.
        -11    1    4    4    0    0 -0.12304535758E-01 -0.33626397614E-01  0.18630355411E-01  0.40366910712E-01  0.51100000000E-03 0.  1.
         11    1    4    4    0    0 -0.55607337752E-01 -0.66185939567E-01  0.32323611208E-01  0.92292099178E-01  0.51100000000E-03 0. -1.
</event>
<event>
 8    1  0.1095698E+005  0.1043930E+01  0.7957747E-01            NaN
         13   -1    0    0    0    0  0.00000000000E+00  0.00000000000E+00  0.74505805969E-08  0.10566000000E+00  0.10566000000E+00 0. -1.
     999900   -1    0    0    0    0 -0.00000000000E+00 -0.00000000000E+00 -0.74505805969E-08  0.93827000000E+00  0.93827000000E+00 0. -1.
     999902    2    1    2    0    0 -0.12969921324E-01  0.18402625433E-01 -0.79076535016E-02  0.10200677607E+01  0.10197886202E+01 0.  0.
     999903    2    3    3    0    0  0.10601305429E+00  0.62260859701E-01 -0.34820733722E-01  0.13057082021E+00  0.26852807369E-01 0.  0.
         14    1    1    2    0    0  0.12969921324E-01 -0.18402625433E-01  0.79076535016E-02  0.23862239331E-01  0.00000000000E+00 0. -1.
     999901    1    3    3    0    0 -0.11898297561E+00 -0.43858234269E-01  0.26913080220E-01  0.88949694046E+00  0.88000000000E+00 0.  1.
        -11    1    4    4    0    0  0.36784205544E-01  0.16712132052E-01 -0.24000986725E-01  0.46996612857E-01  0.51100000000E-03 0. -1.
         11    1    4    4    0    0  0.69228848743E-01  0.45548727649E-01 -0.10819746996E-01  0.83574207354E-01  0.51100000000E-03 0.  1.
</event>
<event>
 8    1  0.1095698E+005  0.1043930E+01  0.7957747E-01            NaN
         13   -1    0    0    0    0  0.00000000000E+00  0.00000000000E+00  0.74505805969E-08  0.10566000000E+00  0.10566000000E+00 0.  1.
     999900   -1    0    0    0    0 -0.00000000000E+00 -0.00000000000E+00 -0.74505805969E-08  0.93827000000E+00  0.93827000000E+00 0. -1.
     999902    2    1    2    0    0  0.18604364394E-02  0.21036743084E-01 -0.13155553396E-01  0.10190487949E+01  0.10187449985E+01 0.  0.
     999903    2    3    3    0    0  0.85293859946E-03  0.35455104965E-01  0.12095877228E+00  0.12877043584E+00  0.26325056199E-01 0.  0.
         14    1    1    2    0    0 -0.18604364394E-02 -0.21036743084E-01  0.13155553396E-01  0.24881205125E-01  0.00000000000E+00 0.  1.
     999901    1    3    3    0    0  0.10074978399E-02 -0.14418361881E-01 -0.13411432567E+00  0.89027835903E+00  0.88000000000E+00 0. -1.
        -11    1    4    4    0    0 -0.11835840507E-01  0.24967097683E-01  0.79060527652E-01  0.83751246204E-01  0.51100000000E-03 0.  1.
         11    1    4    4    0    0  0.12688779107E-01  0.10488007282E-01  0.41898244626E-01  0.45019189638E-01  0.51100000000E-03 0. -1.
</event>
<event>
 8    1  0.1095698E+005  0.1043930E+01  0.7957747E-01            NaN
         13   -1    0    0    0    0  0.00000000000E+00  0.00000000000E+00  0.74505805969E-08  0.10566000000E+00  0.10566000000E+00 0.  1.
     999900   -1    0    0    0    0 -0.00000000000E+00 -0.00000000000E+00 -0.74505805969E-08  0.93827000000E+00  0.93827000000E+00 0. -1.
     999902    2    1    2    0    0 -0.21555968993E-01  0.80273854831E-02  0.12480808656E-02  0.10208940190E+01  0.10206340880E+01 0.  0.
     999903    2    3    3    0    0 -0.12709889259E+00  0.33540468432E-01 -0.17791844594E-01  0.13401592988E+00  0.19095240379E-01 0.  0.
         14    1    1    2    0    0  0.21555968993E-01 -0.80273854831E-02 -0.12480808656E-02  0.23035981047E-01  0.00000000000E+00 0. -1.
     999901    1    3    3    0    0  0.10554292360E+00 -0.25513082949E-01  0.19039925459E-01  0.88687808908E+00  0.88000000000E+00 0.  1.
        -11    1    4    4    0    0 -0.10995620356E+00  0.33805082610E-01 -0.10976064200E-01  0.11555901271E+00  0.51100000000E-03 0.  1.
         11    1    4    4    0    0 -0.17142689033E-01 -0.26461417785E-03 -0.68157803935E-02  0.18456917167E-01  0.51100000000E-03 0. -1.
</event>
<event>
 8    1  0.1095698E+005  0.1043930E+01  0.7957747E-01            NaN
         13   -1    0    0    0    0  0.00000000000E+00  0.00000000000E+00  0.74505805969E-08  0.10566000000E+00  0.10566000000E+00 0. -1.
     999900   -1    0    0    0    0 -0.00000000000E+00 -0.00000000000E+00 -0.74505805969E-08  0.93827000000E+00  0.93827000000E+00 0. -1.
     999902    2    1    2    0    0 -0.41326620975E-02 -0.10684245666E-01  0.20487288656E-01  0.10204574416E+01  0.10201874480E+01 0.  0.
     999903    2    3    3    0    0 -0.73077492962E-01 -0.40182997215E-02  0.10945125415E+00  0.13326388228E+00  0.20572276863E-01 0.  0.
         14    1    1    2    0    0  0.41326620975E-02  0.10684245666E-01 -0.20487288656E-01  0.23472558402E-01  0.00000000000E+00 0.  1.
     999901    1    3    3    0    0  0.68944830865E-01 -0.66659459445E-02 -0.88963965494E-01  0.88719355932E+00  0.88000000000E+00 0. -1.
        -11    1    4    4    0    0 -0.38596198051E-01  0.81581778993E-02  0.56977447876E-01  0.69303052300E-01  0.51100000000E-03 0.  1.
         11    1    4    4    0    0 -0.34481294911E-01 -0.12176477621E-01  0.52473806273E-01  0.63960829981E-01  0.51100000000E-03 0. -1.
</event>
<event>
 8    1  0.1095698E+005  0.1043930E+01  0.7957747E-01            NaN
         13   -1    0    0    0    0  0.00000000000E+00  0.00000000000E+00  0.74505805969E-08  0.10566000000E+00  0.10566000000E+00 0. -1.
     999900   -1    0    0    0    0 -0.00000000000E+00 -0.00000000000E+00 -0.74505805969E-08  0.93827000000E+00  0.93827000000E+00 0. -1.
     999902    2    1    2    0    0 -0.23522227269E-01  0.56410401256E-02  0.50307507808E-02  0.10192232203E+01  0.10189237203E+01 0.  0.
     999903    2    3    3    0    0 -0.17128005285E-01  0.12805610219E+00 -0.24672451349E-02  0.13069491269E+00  0.19579045708E-01 0.  0.
         14    1    1    2    0    0  0.23522227269E-01 -0.56410401256E-02 -0.50307507808E-02  0.24706779694E-01  0.00000000000E+00 0.  1.
     999901    1    3    3    0    0 -0.63942219845E-02 -0.12241506206E+00  0.74979959157E-02  0.88852830762E+00  0.88000000000E+00 0. -1.
        -11    1    4    4    0    0 -0.10231068413E-01  0.25429871916E-01 -0.46797682367E-02  0.27812128618E-01  0.51100000000E-03 0. -1.
         11    1    4    4    0    0 -0.68969368722E-02  0.10262623027E+00  0.22125231017E-02  0.10288278407E+00  0.51100000000E-03 0.  1.
</event>
<event>
 7    1  0.1095698E+005  0.1043930E+01  0.7957747E-01            NaN
         13   -1    0    0    0    0  0.00000000000E+00  0.00000000000E+00  0.74505805969E-08  0.10566000000E+00  0.10566000000E+00 0. -1.
     999900   -1    0    0    0    0 -0.00000000000E+00 -0.00000000000E+00 -0.74505805969E-08  0.93827000000E+00  0.93827000000E+00 0.  1.
     999903    2    1    2    0    0  0.56053105165E-01  0.23047607166E-01  0.88454495248E-01  0.10914464182E+00  0.20376759176E-01 0.  0.
         14    1    1    2    0    0 -0.46422106373E-01  0.12854215295E-01  0.76518257567E-02  0.48772874104E-01  0.00000000000E+00 0.  1.
     999901    1    1    2    0    0 -0.96309987921E-02 -0.35901822461E-01 -0.96106321005E-01  0.88601248407E+00  0.88000000000E+00 0.  1.
        -11    1    3    3    0    0  0.55994153551E-01  0.21854176145E-01  0.77330400648E-01  0.97944893855E-01  0.51100000000E-03 0. -1.
         11    1    3    3    0    0  0.58951614149E-04  0.11934310209E-02  0.11124094600E-01  0.11199747969E-01  0.51100000000E-03 0.  1.
</event>
<event>
 8    1  0.1095698E+005  0.1043930E+01  0.7957747E-01            NaN
         13   -1    0    0    0    0  0.00000000000E+00  0.00000000000E+00  0.74505805969E-08  0.10566000000E+00  0.10566000000E+00 0. -1.
     999900   -1    0    0    0    0 -0.00000000000E+00 -0.00000000000E+00 -0.74505805969E-08  0.93827000000E+00  0.93827000000E+00 0.  1.
     999902    2    1    2    0    0 -0.16142959714E-01 -0.16654779856E-01 -0.12088405930E-01  0.10177745723E+01  0.10174384373E+01 0.  0.
     999903    2    3    3    0    0 -0.49526910792E-01  0.11383105634E+00 -0.18997848594E-01  0.12750001800E+00  0.22020718838E-01 0.  0.
         14    1    1    2    0    0  0.16142959714E-01  0.16654779856E-01  0.12088405930E-01  0.26155427703E-01  0.00000000000E+00 0.  1.
     999901    1    3    3    0    0  0.33383951078E-01 -0.13048583619E+00  0.69094426640E-02  0.89027455430E+00  0.88000000000E+00 0. -1.
        -11    1    4    4    0    0 -0.31657695804E-01  0.89967692008E-01 -0.79677928413E-02  0.95708631547E-01  0.51100000000E-03 0.  1.
         11    1    4    4    0    0 -0.17869214988E-01  0.23863364331E-01 -0.11030055753E-01  0.31791386450E-01  0.51100000000E-03 0. -1.
</event>
<event>
 8    1  0.1095698E+005  0.1043930E+01  0.7957747E-01            NaN
         13   -1    0    0    0    0  0.00000000000E+00  0.00000000000E+00  0.74505805969E-08  0.10566000000E+00  0.10566000000E+00 0. -1.
     999900   -1    0    0    0    0 -0.00000000000E+00 -0.00000000000E+00 -0.74505805969E-08  0.93827000000E+00  0.93827000000E+00 0. -1.
     999902    2    1    2    0    0 -0.19007107126E-01 -0.74362347588E-02 -0.48659992713E-02  0.10229479682E+01  0.10227327608E+01 0.  0.
     999903    2    3    3    0    0 -0.46333287468E-01 -0.11995179688E+00  0.32949224452E-01  0.13455815345E+00  0.22023582026E-01 0.  0.
         14    1    1    2    0    0  0.19007107126E-01  0.74362347588E-02  0.48659992713E-02  0.20982031780E-01  0.00000000000E+00 0. -1.
     999901    1    3    3    0    0  0.27326180342E-01  0.11251556212E+00 -0.37815223723E-01  0.88838981477E+00  0.88000000000E+00 0. -1.
        -11    1    4    4    0    0 -0.16376317212E-01 -0.22337983139E-01  0.12638118649E-01  0.30449177660E-01  0.51100000000E-03 0.  1.
         11    1    4    4    0    0 -0.29956970256E-01 -0.97613813737E-01  0.20311105803E-01  0.10410897579E+00  0.51100000000E-03 0. -1.
</event>
<event>
 8    1  0.1095698E+005  0.1043930E+01  0.7957747E-01            NaN
         13   -1    0    0    0    0  0.00000000000E+00  0.00000000000E+00  0.74505805969E-08  0.10566000000E+00  0.10566000000E+00 0.  1.
     999900   -1    0    0    0    0 -0.00000000000E+00 -0.00000000000E+00 -0.74505805969E-08  0.93827000000E+00  0.93827000000E+00 0. -1.
     999902    2    1    2    0    0  0.13640236553E-02  0.24165767789E-01 -0.58578416538E-02  0.10190270042E+01  0.10187226688E+01 0.  0.
     999903    2    3    3    0    0 -0.77916193309E-01  0.81019463694E-01 -0.65539200173E-01  0.13162655334E+00  0.19876521550E-01 0.  0.
         14    1    1    2    0    0 -0.13640236553E-02 -0.24165767789E-01  0.58578416538E-02  0.24902995848E-01  0.00000000000E+00 0.  1.
     999901    1    3    3    0    0  0.79280216964E-01 -0.56853695905E-01  0.59681358519E-01  0.88740045081E+00  0.88000000000E+00 0.  1.
        -11    1    4    4    0    0 -0.22381829010E-01  0.36614541981E-01 -0.21681513136E-01  0.48082430129E-01  0.51100000000E-03 0.  1.
         11    1    4    4    0    0 -0.55534364299E-01  0.44404921713E-01 -0.43857687037E-01  0.83544123214E-01  0.51100000000E-03 0. -1.
</event>
<event>
 8    1  0.1095698E+005  0.1043930E+01  0.7957747E-01            NaN
         13   -1    0    0    0    0  0.00000000000E+00  0.00000000000E+00  0.74505805969E-08  0.10566000000E+00  0.10566000000E+00 0. -1.
     999900   -1    0    0    0    0 -0.00000000000E+00 -0.00000000000E+00 -0.74505805969E-08  0.93827000000E+00  0.93827000000E+00 0.  1.
     999902    2    1    2    0    0  0.22305676932E-02 -0.34635276737E-02 -0.23821537730E-01  0.10197548657E+01  0.10194682678E+01 0.  0.
     999903    2    3    3    0    0  0.12020870771E+00 -0.46514495579E-01  0.72770847075E-02  0.13029471955E+00  0.17607562961E-01 0.  0.
         14    1    1    2    0    0 -0.22305676932E-02  0.34635276737E-02  0.23821537730E-01  0.24175134250E-01  0.00000000000E+00 0. -1.
     999901    1    3    3    0    0 -0.11797814001E+00  0.43050967906E-01 -0.31098622438E-01  0.88946014620E+00  0.88000000000E+00 0.  1.
        -11    1    4    4    0    0  0.45025033746E-01 -0.15707520290E-01 -0.56430925972E-02  0.48021718759E-01  0.51100000000E-03 0.  1.
         11    1    4    4    0    0  0.75183673961E-01 -0.30806975290E-01  0.12920177305E-01  0.82273000792E-01  0.51100000000E-03 0. -1.
</event>
<event>
 8    1  0.1095698E+005  0.1043930E+01  0.7957747E-01            NaN
         13   -1    0    0    0    0  0.00000000000E+00  0.00000000000E+00  0.74505805969E-08  0.10566000000E+00  0.10566000000E+00 0. -1.
     999900   -1    0    0    0    0 -0.00000000000E+00 -0.00000000000E+00 -0.74505805969E-08  0.93827000000E+00  0.93827000000E+00 0. -1.
     999902    2    1    2    0    0 -0.17618082302E-01  0.48510325230E-02  0.15777401475E-01  0.10197875946E+01  0.10195017815E+01 0.  0.
     999903    2    3    3    0    0 -0.12849786209E+00  0.71384701200E-02  0.25840441433E-01  0.13276965640E+00  0.19934766839E-01 0.  0.
         14    1    1    2    0    0  0.17618082302E-01 -0.48510325230E-02 -0.15777401475E-01  0.24142405386E-01  0.00000000000E+00 0.  1.
     999901    1    3    3    0    0  0.11087977979E+00 -0.22874375970E-02 -0.10063039958E-01  0.88701793821E+00  0.88000000000E+00 0.  1.
        -11    1    4    4    0    0 -0.33460211496E-01  0.65487154975E-02  0.14503054820E-01  0.37054974674E-01  0.51100000000E-03 0.  1.
         11    1    4    4    0    0 -0.95037650599E-01  0.58975462247E-03  0.11337386612E-01  0.95714681727E-01  0.51100000000E-03 0. -1.
</event>
<event>
 8    1  0.1095698E+005  0.1043930E+01  0.7957747E-01            NaN
         13   -1    0    0    0    0  0.00000000000E+00  0.00000000000E+00  0.74505805969E-08  0.10566000000E+00  0.10566000000E+00 0. -1.
     999900   -1    0    0    0    0 -0.00000000000E+00 -0.00000000000E+00 -0.74505805969E-08  0.93827000000E+00  0.93827000000E+00 0.  1.
     999902    2    1    2    0    0 -0.11210910466E-01 -0.11491886183E-01  0.12044645568E-01  0.10238595877E+01  0.10236628517E+01 0.  0.
     999903    2    3    3    0    0 -0.53062175119E-01 -0.28338230004E-01  0.12155096285E+00  0.13592549042E+00  0.90803451408E-02 0.  0.
         14    1    1    2    0    0  0.11210910466E-01  0.11491886183E-01 -0.12044645568E-01  0.20070412263E-01  0.00000000000E+00 0. -1.
     999901    1    3    3    0    0  0.41851264652E-01  0.16846343821E-01 -0.10950631728E+00  0.88793409732E+00  0.88000000000E+00 0.  1.
        -11    1    4    4    0    0 -0.67447491149E-02 -0.49103759190E-03  0.14269084371E-01  0.15798754645E-01  0.51100000000E-03 0.  1.
         11    1    4    4    0    0 -0.46317426004E-01 -0.27847192412E-01  0.10728187848E+00  0.12012673578E+00  0.51100000000E-03 0. -1.
</event>
<event>
 8    1  0.1095698E+005  0.1043930E+01  0.7957747E-01            NaN
         13   -1    0    0    0    0  0.00000000000E+00  0.00000000000E+00  0.74505805969E-08  0.10566000000E+00  0.10566000000E+00 0.  1.
     999900   -1    0    0    0    0 -0.00000000000E+00 -0.00000000000E+00 -0.74505805969E-08  0.93827000000E+00  0.93827000000E+00 0. -1.
     999902    2    1    2    0    0 -0.16163902057E-02  0.52883977134E-02  0.21863513328E-01  0.10213779916E+01  0.10211289873E+01 0.  0.
     999903    2    3    3    0    0 -0.99357143026E-01  0.20282933145E-01  0.84645779194E-01  0.13361692929E+00  0.20132973203E-01 0.  0.
         14    1    1    2    0    0  0.16163902057E-02 -0.52883977134E-02 -0.21863513328E-01  0.22552008396E-01  0.00000000000E+00 0. -1.
     999901    1    3    3    0    0  0.97740752820E-01 -0.14994535432E-01 -0.62782265866E-01  0.88776106231E+00  0.88000000000E+00 0. -1.
        -11    1    4    4    0    0 -0.11713586990E-02 -0.16177904482E-02 -0.12152512234E-03  0.20652400566E-02  0.51100000000E-03 0.  1.
         11    1    4    4    0    0 -0.98185784327E-01  0.21900723593E-01  0.84767304316E-01  0.13155168923E+00  0.51100000000E-03 0. -1.
</event>
<event>
 8    1  0.1095698E+005  0.1043930E+01  0.7957747E-01            NaN
         13   -1    0    0    0    0  0.00000000000E+00  0.00000000000E+00  0.74505805969E-08  0.10566000000E+00  0.10566000000E+00 0.  1.
     999900   -1    0    0    0    0 -0.00000000000E+00 -0.00000000000E+00 -0.74505805969E-08  0.93827000000E+00  0.93827000000E+00 0. -1.
     999902    2    1    2    0    0 -0.20844859422E-01  0.83364667500E-02  0.95739809515E-02  0.10195237313E+01  0.10192315599E+01 0.  0.
     999903    2    3    3    0    0  0.20590619924E-01  0.66191441686E-01 -0.10682419298E+00  0.12901116428E+00  0.20668616841E-01 0.  0.
         14    1    1    2    0    0  0.20844859422E-01 -0.83364667500E-02 -0.95739809515E-02  0.24406268733E-01  0.00000000000E+00 0. -1.
     999901    1    3    3    0    0 -0.41435479346E-01 -0.57854974936E-01  0.11639817393E+00  0.89051256699E+00  0.88000000000E+00 0.  1.
        -11    1    4    4    0    0  0.15312439815E-01  0.45922464990E-01 -0.55919019486E-01  0.73963108811E-01  0.51100000000E-03 0. -1.
         11    1    4    4    0    0  0.52781801094E-02  0.20268976696E-01 -0.50905173490E-01  0.55048055466E-01  0.51100000000E-03 0.  1.
</event>
<event>
 8    1  0.1095698E+005  0.1043930E+01  0.7957747E-01            NaN
         13   -1    0    0    0    0  0.00000000000E+00  0.00000000000E+00  0.74505805969E-08  0.10566000000E+00  0.10566000000E+00 0. -1.
     999900   -1    0    0    0    0 -0.00000000000E+00 -0.00000000000E+00 -0.74505805969E-08  0.93827000000E+00  0.93827000000E+00 0.  1.
     999902    2    1    2    0    0 -0.81671155701E-02 -0.18746592294E-01 -0.11868761694E-01  0.10202867345E+01  0.10200127532E+01 0.  0.
     999903    2    3    3    0    0 -0.34969439635E-01 -0.12694817607E+00 -0.61872470875E-03  0.13318329598E+00  0.19967633587E-01 0.  0.
         14    1    1    2    0    0  0.81671155701E-02  0.18746592294E-01  0.11868761694E-01  0.23643265500E-01  0.00000000000E+00 0.  1.
     999901    1    3    3    0    0  0.26802324065E-01  0.10820158378E+00 -0.11250036985E-01  0.88710343852E+00  0.88000000000E+00 0.  1.
        -11    1    4    4    0    0 -0.31874229686E-01 -0.11411681721E+00  0.55263958160E-02  0.11861457187E+00  0.51100000000E-03 0. -1.
         11    1    4    4    0    0 -0.30952099489E-02 -0.12831358857E-01 -0.61451205247E-02  0.14568724104E-01  0.51100000000E-03 0.  1.
</event>
<event>
 8    1  0.1095698E+005  0.1043930E+01  0.7957747E-01            NaN
         13   -1    0    0    0    0  0.00000000000E+00  0.00000000000E+00  0.74505805969E-08  0.10566000000E+00  0.10566000000E+00 0. -1.
     999900   -1    0    0    0    0 -0.00000000000E+00 -0.00000000000E+00 -0.74505805969E-08  0.93827000000E+00  0.93827000000E+00 0. -1.
     999902    2    1    2    0    0 -0.20332711729E-01  0.10743137719E-01  0.11823166859E-01  0.10180722845E+01  0.10177438553E+01 0.  0.
     999903    2    3    3    0    0 -0.10464365232E+00  0.48065954406E-01  0.60818799272E-01  0.13189967193E+00  0.20927665054E-01 0.  0.
         14    1    1    2    0    0  0.20332711729E-01 -0.10743137719E-01 -0.11823166859E-01  0.25857715461E-01  0.00000000000E+00 0. -1.
     999901    1    3    3    0    0  0.84310940595E-01 -0.37322816687E-01 -0.48995632414E-01  0.88617261261E+00  0.88000000000E+00 0. -1.
        -11    1    4    4    0    0 -0.40630958577E-01  0.77334733977E-02  0.22555408187E-01  0.47113575169E-01  0.51100000000E-03 0. -1.
         11    1    4    4    0    0 -0.64012693746E-01  0.40332481008E-01  0.38263391085E-01  0.84786096757E-01  0.51100000000E-03 0.  1.
</event>
<event>
 8    1  0.1095698E+005  0.1043930E+01  0.7957747E-01            NaN
         13   -1    0    0    0    0  0.00000000000E+00  0.00000000000E+00  0.74505805969E-08  0.10566000000E+00  0.10566000000E+00 0. -1.
     999900   -1    0    0    0    0 -0.00000000000E+00 -0.00000000000E+00 -0.74505805969E-08  0.93827000000E+00  0.93827000000E+00 0.  1.
     999902    2    1    2    0    0  0.23942079322E-01 -0.45243919176E-03  0.29496192384E-02  0.10198026687E+01  0.10195172166E+01 0.  0.
     999903    2    3    3    0    0 -0.11523028341E+00  0.11385473098E-01 -0.48599071183E-01  0.12729701031E+00  0.20856938942E-01 0.  0.
         14    1    1    2    0    0 -0.23942079322E-01  0.45243919176E-03 -0.29496192384E-02  0.24127331330E-01  0.00000000000E+00 0. -1.
     999901    1    3    3    0    0  0.13917236273E+00 -0.11837912290E-01  0.51548690421E-01  0.89250565836E+00  0.88000000000E+00 0. -1.
        -11    1    4    4    0    0 -0.89632081866E-01  0.66183390181E-02 -0.46434450213E-01  0.10116388584E+00  0.51100000000E-03 0.  1.
         11    1    4    4    0    0 -0.25598201544E-01  0.47671340802E-02 -0.21646209702E-02  0.26133124470E-01  0.51100000000E-03 0. -1.
</event>
<event>
 8    1  0.1095698E+005  0.1043930E+01  0.7957747E-01            NaN
         13   -1    0    0    0    0  0.00000000000E+00  0.00000000000E+00  0.74505805969E-08  0.10566000000E+00  0.10566000000E+00 0.  1.
     999900   -1    0    0    0    0 -0.00000000000E+00 -0.00000000000E+00 -0.74505805969E-08  0.93827000000E+00  0.93827000000E+00 0. -1.
     999902    2    1    2    0    0 -0.67939588942E-02  0.17970877435E-01 -0.11442828538E-01  0.10215682327E+01  0.10213234578E+01 0.  0.
     999903    2    3    3    0    0 -0.50420826170E-01  0.53712657366E-01 -0.11034236373E+00  0.13423408115E+00  0.20397108553E-01 0.  0.
         14    1    1    2    0    0  0.67939588942E-02 -0.17970877435E-01  0.11442828538E-01  0.22361767332E-01  0.00000000000E+00 0.  1.
     999901    1    3    3    0    0  0.43626867276E-01 -0.35741779931E-01  0.98899535190E-01  0.88733415151E+00  0.88000000000E+00 0.  1.
        -11    1    4    4    0    0 -0.22011001495E-01  0.20697973974E-01 -0.28581130212E-01  0.41593658635E-01  0.51100000000E-03 0. -1.
         11    1    4    4    0    0 -0.28409824675E-01  0.33014683393E-01 -0.81761233516E-01  0.92640422520E-01  0.51100000000E-03 0.  1.
</event>
<event>
 8    1  0.1095698E+005  0.1043930E+01  0.7957747E-01            NaN
         13   -1    0    0    0    0  0.00000000000E+00  0.00000000000E+00  0.74505805969E-08  0.10566000000E+00  0.10566000000E+00 0. -1.
     999900   -1    0    0    0    0 -0.00000000000E+00 -0.00000000000E+00 -0.74505805969E-08  0.93827000000E+00  0.93827000000E+00 0. -1.
     999902    2    1    2    0    0  0.11666446998E-02  0.22806970206E-01  0.58822040407E-02  0.10203478187E+01  0.10200752678E+01 0.  0.
     999903    2    3    3    0    0 -0.93226577382E-02 -0.48812990763E-01 -0.11728782781E+00  0.12882647796E+00  0.19240760285E-01 0.  0.
         14    1    1    2    0    0 -0.11666446998E-02 -0.22806970206E-01 -0.58822040407E-02  0.23582181286E-01  0.00000000000E+00 0. -1.
     999901    1    3    3    0    0  0.10489302438E-01  0.71619960969E-01  0.12317003185E+00  0.89152134075E+00  0.88000000000E+00 0.  1.
        -11    1    4    4    0    0 -0.65894451668E-02 -0.34062549268E-01 -0.57278775475E-01  0.66968629157E-01  0.51100000000E-03 0.  1.
         11    1    4    4    0    0 -0.27332125714E-02 -0.14750441495E-01 -0.60009052335E-01  0.61857848802E-01  0.51100000000E-03 0. -1.
</event>
<event>
 8    1  0.1095698E+005  0.1043930E+01  0.7957747E-01            NaN
         13   -1    0    0    0    0  0.00000000000E+00  0.00000000000E+00  0.74505805969E-08  0.10566000000E+00  0.10566000000E+00 0.  1.
     999900   -1    0    0    0    0 -0.00000000000E+00 -0.00000000000E+00 -0.74505805969E-08  0.93827000000E+00  0.93827000000E+00 0. -1.
     999902    2    1    2    0    0 -0.86903234342E-02 -0.61663355821E-02 -0.20024595462E-01  0.10212467498E+01  0.10209948061E+01 0.  0.
     999903    2    3    3    0    0 -0.89745175696E-01 -0.24788401156E-01  0.89864817025E-01  0.13052100449E+00  0.17070028716E-01 0.  0.
         14    1    1    2    0    0  0.86903234342E-02  0.61663355821E-02  0.20024595462E-01  0.22683250193E-01  0.00000000000E+00 0.  1.
     999901    1    3    3    0    0  0.81054852262E-01  0.18622065574E-01 -0.10988941249E+00  0.89072574532E+00  0.88000000000E+00 0. -1.
        -11    1    4    4    0    0 -0.51317010067E-01 -0.22716204988E-01  0.51262932346E-01  0.76010596925E-01  0.51100000000E-03 0. -1.
         11    1    4    4    0    0 -0.38428165629E-01 -0.20721961683E-02  0.38601884679E-01  0.54510407560E-01  0.51100000000E-03 0.  1.
</event>
<event>
 8    1  0.1095698E+005  0.1043930E+01  0.7957747E-01            NaN
         13   -1    0    0    0    0  0.00000000000E+00  0.00000000000E+00  0.74505805969E-08  0.10566000000E+00  0.10566000000E+00 0.  1.
     999900   -1    0    0    0    0 -0.00000000000E+00 -0.00000000000E+00 -0.74505805969E-08  0.93827000000E+00  0.93827000000E+00 0. -1.
     999902    2    1    2    0    0  0.96807638042E-02 -0.19439219301E-01 -0.90707641741E-02  0.10203953618E+01  0.10201239214E+01 0.  0.
     999903    2    3    3    0    0  0.67641266236E-01 -0.46691924567E-01 -0.10266875013E+00  0.13311710057E+00  0.20586730980E-01 0.  0.
         14    1    1    2    0    0 -0.96807638042E-02  0.19439219301E-01  0.90707641741E-02  0.23534638250E-01  0.00000000000E+00 0. -1.
     999901    1    3    3    0    0 -0.57960502432E-01  0.27252705267E-01  0.93597985959E-01  0.88727826118E+00  0.88000000000E+00 0.  1.
        -11    1    4    4    0    0  0.32352724755E-01 -0.11520823090E-01 -0.34514702960E-01  0.48692442998E-01  0.51100000000E-03 0.  1.
         11    1    4    4    0    0  0.35288541481E-01 -0.35171101478E-01 -0.68154047174E-01  0.84424657572E-01  0.51100000000E-03 0. -1.
</event>
<event>
 8    1  0.1095698E+005  0.1043930E+01  0.7957747E-01            NaN
         13   -1    0    0    0    0  0.00000000000E+00  0.00000000000E+00  0.74505805969E-08  0.10566000000E+00  0.10566000000E+00 0. -1.
     999900   -1    0    0    0    0 -0.00000000000E+00 -0.00000000000E+00 -0.74505805969E-08  0.93827000000E+00  0.93827000000E+00 0.  1.
     999902    2    1    2    0    0 -0.17269610170E-01 -0.42730601098E-02  0.16237191190E-01  0.10198438036E+01  0.10195593357E+01 0.  0.
     999903    2    3    3    0    0  0.23164789917E-01  0.27978929656E-01  0.12500810478E+00  0.13163986128E+00  0.19560133476E-01 0.  0.
         14    1    1    2    0    0  0.17269610170E-01  0.42730601098E-02 -0.16237191190E-01  0.24086196376E-01  0.00000000000E+00 0.  1.
     999901    1    3    3    0    0 -0.40434400087E-01 -0.32251989766E-01 -0.10877091358E+00  0.88820394234E+00  0.88000000000E+00 0.  1.
        -11    1    4    4    0    0  0.28516815961E-02  0.32613302659E-02  0.48695464962E-01  0.48890467290E-01  0.51100000000E-03 0. -1.
         11    1    4    4    0    0  0.20313108321E-01  0.24717599390E-01  0.76312639813E-01  0.82749393989E-01  0.51100000000E-03 0.  1.
</event>
<event>
 8    1  0.1095698E+005  0.1043930E+01  0.7957747E-01            NaN
         13   -1    0    0    0    0  0.00000000000E+00  0.00000000000E+00  0.74505805969E-08  0.10566000000E+00  0.10566000000E+00 0. -1.
     999900   -1    0    0    0    0 -0.00000000000E+00 -0.00000000000E+00 -0.74505805969E-08  0.93827000000E+00  0.93827000000E+00 0.  1.
     999902    2    1    2    0    0 -0.12899627899E-01 -0.22272584605E-02 -0.20521867060E-01  0.10195885106E+01  0.10192979068E+01 0.  0.
     999903    2    3    3    0    0 -0.10420629187E+00 -0.27126585294E-01 -0.74857874652E-01  0.13284768875E+00  0.21213300378E-01 0.  0.
         14    1    1    2    0    0  0.12899627899E-01  0.22272584605E-02  0.20521867060E-01  0.24341489433E-01  0.00000000000E+00 0. -1.
     999901    1    3    3    0    0  0.91306663971E-01  0.24899326834E-01  0.54336007592E-01  0.88674082182E+00  0.88000000000E+00 0. -1.
        -11    1    4    4    0    0 -0.47792399045E-01 -0.16159020202E-02 -0.31713505944E-01  0.57382332875E-01  0.51100000000E-03 0. -1.
         11    1    4    4    0    0 -0.56413892824E-01 -0.25510683274E-01 -0.43144368708E-01  0.75465355872E-01  0.51100000000E-03 0.  1.
</event>
<event>
 8    1  0.1095698E+005  0.1043930E+01  0.7957747E-01            NaN
         13   -1    0    0    0    0  0.00000000000E+00  0.00000000000E+00  0.74505805969E-08  0.10566000000E+00  0.10566000000E+00 0. -1.
     999900   -1    0    0    0    0 -0.00000000000E+00 -0.00000000000E+00 -0.74505805969E-08  0.93827000000E+00  0.93827000000E+00 0.  1.
     999902    2    1    2    0    0  0.17193263361E-01  0.50705798950E-02  0.18033361465E-01  0.10185032186E+01  0.10181857812E+01 0.  0.
     999903    2    3    3    0    0 -0.35186209368E-01  0.18977942275E-01 -0.11823318905E+00  0.12636780475E+00  0.19786446450E-01 0.  0.
         14    1    1    2    0    0 -0.17193263361E-01 -0.50705798950E-02 -0.18033361465E-01  0.25426781377E-01  0.00000000000E+00 0.  1.
     999901    1    3    3    0    0  0.52379472730E-01 -0.13907362380E-01  0.13626655051E+00  0.89213541387E+00  0.88000000000E+00 0. -1.
        -11    1    4    4    0    0 -0.20160264697E-01  0.18744170516E-01 -0.93042962756E-01  0.97031099347E-01  0.51100000000E-03 0.  1.
         11    1    4    4    0    0 -0.15025944672E-01  0.23377175905E-03 -0.25190226291E-01  0.29336705407E-01  0.51100000000E-03 0. -1.
</event>
<event>
 8    1  0.1095698E+005  0.1043930E+01  0.7957747E-01            NaN
         13   -1    0    0    0    0  0.00000000000E+00  0.00000000000E+00  0.74505805969E-08  0.10566000000E+00  0.10566000000E+00 0.  1.
     999900   -1    0    0    0    0 -0.00000000000E+00 -0.00000000000E+00 -0.74505805969E-08  0.93827000000E+00  0.93827000000E+00 0.  1.
     999902    2    1    2    0    0 -0.16891339217E-01  0.14535831688E-01  0.82718336066E-02  0.10201596198E+01  0.10198826496E+01 0.  0.
     999903    2    3    3    0    0 -0.25052068236E-01  0.12857373457E+00  0.26413158518E-02  0.13274599385E+00  0.21347388386E-01 0.  0.
         14    1    1    2    0    0  0.16891339217E-01 -0.14535831688E-01 -0.82718336066E-02  0.23770380195E-01  0.00000000000E+00 0. -1.
     999901    1    3    3    0    0  0.81607290184E-02 -0.11403790288E+00  0.56305177547E-02  0.88741362595E+00  0.88000000000E+00 0. -1.
        -11    1    4    4    0    0 -0.32675107736E-02  0.69978574467E-01 -0.17252084666E-02  0.70077920748E-01  0.51100000000E-03 0.  1.
         11    1    4    4    0    0 -0.21784557462E-01  0.58595160103E-01  0.43665243184E-02  0.62668073107E-01  0.51100000000E-03 0. -1.
</event>
<event>
 8    1  0.1095698E+005  0.1043930E+01  0.7957747E-01            NaN
         13   -1    0    0    0    0  0.00000000000E+00  0.00000000000E+00  0.74505805969E-08  0.10566000000E+00  0.10566000000E+00 0.  1.
     999900   -1    0    0    0    0 -0.00000000000E+00 -0.00000000000E+00 -0.74505805969E-08  0.93827000000E+00  0.93827000000E+00 0.  1.
     999902    2    1    2    0    0 -0.13958801731E-01  0.84071159720E-03  0.17574298426E-01  0.10214709059E+01  0.10212239719E+01 0.  0.
     999903    2    3    3    0    0 -0.90380571015E-01 -0.88492123228E-01 -0.34493188825E-01  0.13212751587E+00  0.16382822832E-01 0.  0.
         14    1    1    2    0    0  0.13958801731E-01 -0.84071159720E-03 -0.17574298426E-01  0.22459094081E-01  0.00000000000E+00 0.  1.
     999901    1    3    3    0    0  0.76421769283E-01  0.89332834825E-01  0.52067487251E-01  0.88934339005E+00  0.88000000000E+00 0.  1.
        -11    1    4    4    0    0 -0.52770209372E-01 -0.59982386787E-01 -0.27043530450E-01  0.84345689766E-01  0.51100000000E-03 0. -1.
         11    1    4    4    0    0 -0.37610361643E-01 -0.28509736441E-01 -0.74496583752E-02  0.47781826103E-01  0.51100000000E-03 0.  1.
</event>
<event>
 8    1  0.1095698E+005  0.1043930E+01  0.7957747E-01            NaN
         13   -1    0    0    0    0  0.00000000000E+00  0.00000000000E+00  0.74505805969E-08  0.10566000000E+00  0.10566000000E+00 0.  1.
     999900   -1    0    0    0    0 -0.00000000000E+00 -0.00000000000E+00 -0.74505805969E-08  0.93827000000E+00  0.93827000000E+00 0.  1.
     999902    2    1    2    0    0  0.22032920710E-01  0.28246622252E-02 -0.64097842544E-02  0.10208104488E+01  0.10205486068E+01 0.  0.
     999903    2    3    3    0    0  0.12004592006E+00  0.54894854743E-01  0.77098825922E-02  0.13372690261E+00  0.19974338381E-01 0.  0.
         14    1    1    2    0    0 -0.22032920710E-01 -0.28246622252E-02  0.64097842544E-02  0.23119551161E-01  0.00000000000E+00 0. -1.
     999901    1    3    3    0    0 -0.98012999346E-01 -0.52070192518E-01 -0.14119666847E-01  0.88708354622E+00  0.88000000000E+00 0. -1.
        -11    1    4    4    0    0  0.74666208311E-01  0.37766088383E-01  0.13913601720E-01  0.84824345144E-01  0.51100000000E-03 0.  1.
         11    1    4    4    0    0  0.45379711745E-01  0.17128766360E-01 -0.62037191275E-02  0.48902557470E-01  0.51100000000E-03 0. -1.
</event>
<event>
 8    1  0.1095698E+005  0.1043930E+01  0.7957747E-01            NaN
         13   -1    0    0    0    0  0.00000000000E+00  0.00000000000E+00  0.74505805969E-08  0.10566000000E+00  0.10566000000E+00 0.  1.
     999900   -1    0    0    0    0 -0.00000000000E+00 -0.00000000000E+00 -0.74505805969E-08  0.93827000000E+00  0.93827000000E+00 0.  1.
     999902    2    1    2    0    0  0.14806535532E-01  0.11920770654E-01 -0.14251379458E-01  0.10201720522E+01  0.10198953750E+01 0.  0.
     999903    2    3    3    0    0 -0.10446538232E+00 -0.37537534699E-01 -0.63641455370E-01  0.12937954327E+00  0.19150685685E-01 0.  0.
         14    1    1    2    0    0 -0.14806535532E-01 -0.11920770654E-01  0.14251379458E-01  0.23757947804E-01  0.00000000000E+00 0.  1.
     999901    1    3    3    0    0  0.11927191785E+00  0.49458305353E-01  0.49390075912E-01  0.89079250892E+00  0.88000000000E+00 0. -1.
        -11    1    4    4    0    0 -0.28334722294E-01 -0.19228667661E-01 -0.16944862864E-01  0.38209784689E-01  0.51100000000E-03 0.  1.
         11    1    4    4    0    0 -0.76130660021E-01 -0.18308867038E-01 -0.46696592506E-01  0.91169758583E-01  0.51100000000E-03 0. -1.
</event>
<event>
 8    1  0.1095698E+005  0.1043930E+01  0.7957747E-01            NaN
         13   -1    0    0    0    0  0.00000000000E+00  0.00000000000E+00  0.74505805969E-08  0.10566000000E+00  0.10566000000E+00 0. -1.
     999900   -1    0    0    0    0 -0.00000000000E+00 -0.00000000000E+00 -0.74505805969E-08  0.93827000000E+00  0.93827000000E+00 0. -1.
     999902    2    1    2    0    0  0.10714310125E-01  0.16186516177E-01 -0.15772358498E-01  0.10189186618E+01  0.10186116396E+01 0.  0.
     999903    2    3    3    0    0 -0.70036162209E-01 -0.63043486229E-01  0.81685169645E-01  0.12634037285E+00  0.20245436494E-01 0.  0.
         14    1    1    2    0    0 -0.10714310125E-01 -0.16186516177E-01  0.15772358498E-01  0.25011338228E-01  0.00000000000E+00 0. -1.
     999901    1    3    3    0    0  0.80750472334E-01  0.79230002406E-01 -0.97457528143E-01  0.89257828892E+00  0.88000000000E+00 0.  1.
        -11    1    4    4    0    0 -0.55672855094E-01 -0.38206841594E-01  0.53915208635E-01  0.86407987952E-01  0.51100000000E-03 0. -1.
         11    1    4    4    0    0 -0.14363307115E-01 -0.24836644636E-01  0.27769961010E-01  0.39932384897E-01  0.51100000000E-03 0.  1.
</event>
<event>
 8    1  0.1095698E+005  0.1043930E+01  0.7957747E-01            NaN
         13   -1    0    0    0    0  0.00000000000E+00  0.00000000000E+00  0.74505805969E-08  0.10566000000E+00  0.10566000000E+00 0.  1.
     999900   -1    0    0    0    0 -0.00000000000E+00 -0.00000000000E+00 -0.74505805969E-08  0.93827000000E+00  0.93827000000E+00 0. -1.
     999902    2    1    2    0    0  0.10991146801E-01  0.17628760640E-01  0.11094258522E-01  0.10203787563E+01  0.10201069283E+01 0.  0.
     999903    2    3    3    0    0  0.21035991725E-01 -0.15923766454E-01 -0.12529166183E+00  0.12918417018E+00  0.17160128620E-01 0.  0.
         14    1    1    2    0    0 -0.10991146801E-01 -0.17628760640E-01 -0.11094258522E-01  0.23551243743E-01  0.00000000000E+00 0. -1.
     999901    1    3    3    0    0 -0.10044844924E-01  0.33552527094E-01  0.13638592035E+00  0.89119458608E+00  0.88000000000E+00 0.  1.
        -11    1    4    4    0    0 -0.46439150204E-04 -0.86629021368E-02 -0.46196083229E-01  0.47004119572E-01  0.51100000000E-03 0.  1.
         11    1    4    4    0    0  0.21082430875E-01 -0.72608643173E-02 -0.79095578602E-01  0.82180050607E-01  0.51100000000E-03 0. -1.
</event>
<event>
 8    1  0.1095698E+005  0.1043930E+01  0.7957747E-01            NaN
         13   -1    0    0    0    0  0.00000000000E+00  0.00000000000E+00  0.74505805969E-08  0.10566000000E+00  0.10566000000E+00 0.  1.
     999900   -1    0    0    0    0 -0.00000000000E+00 -0.00000000000E+00 -0.74505805969E-08  0.93827000000E+00  0.93827000000E+00 0. -1.
     999902    2    1    2    0    0  0.17084070432E-01  0.12360299476E-01 -0.11139086106E-01  0.10200821132E+01  0.10198033124E+01 0.  0.
     999903    2    3    3    0    0 -0.10148984922E+00 -0.72702539027E-01 -0.20168360113E-01  0.12801878097E+00  0.19904694294E-01 0.  0.
         14    1    1    2    0    0 -0.17084070432E-01 -0.12360299476E-01  0.11139086106E-01  0.23847886803E-01  0.00000000000E+00 0.  1.
     999901    1    3    3    0    0  0.11857391966E+00  0.85062838503E-01  0.90292740067E-02  0.89206333223E+00  0.88000000000E+00 0. -1.
        -11    1    4    4    0    0 -0.55517460906E-01 -0.33266673543E-01 -0.18928849453E-01  0.67434579384E-01  0.51100000000E-03 0.  1.
         11    1    4    4    0    0 -0.45972388317E-01 -0.39435865484E-01 -0.12395106594E-02  0.60584201585E-01  0.51100000000E-03 0. -1.
</event>
<event>
 8    1  0.1095698E+005  0.1043930E+01  0.7957747E-01            NaN
         13   -1    0    0    0    0  0.00000000000E+00  0.00000000000E+00  0.74505805969E-08  0.10566000000E+00  0.10566000000E+00 0. -1.
     999900   -1    0    0    0    0 -0.00000000000E+00 -0.00000000000E+00 -0.74505805969E-08  0.93827000000E+00  0.93827000000E+00 0.  1.
     999902    2    1    2    0    0  0.22838376867E-01  0.13683871139E-02  0.95671122882E-02  0.10191309359E+01  0.10188291667E+01 0.  0.
     999903    2    3    3    0    0 -0.59502453821E-01 -0.46408410646E-01 -0.10008008447E+00  0.12723119798E+00  0.21851129087E-01 0.  0.
         14    1    1    2    0    0 -0.22838376867E-01 -0.13683871139E-02 -0.95671122882E-02  0.24799064070E-01  0.00000000000E+00 0.  1.
     999901    1    3    3    0    0  0.82340830688E-01  0.47776797760E-01  0.10964719676E+00  0.89189973795E+00  0.88000000000E+00 0. -1.
        -11    1    4    4    0    0 -0.54255626943E-01 -0.43697482939E-01 -0.78983464152E-01  0.10531757593E+00  0.51100000000E-03 0.  1.
         11    1    4    4    0    0 -0.52468268778E-02 -0.27109277065E-02 -0.21096620316E-01  0.21913622043E-01  0.51100000000E-03 0. -1.
</event>
<event>
 8    1  0.1095698E+005  0.1043930E+01  0.7957747E-01            NaN
         13   -1    0    0    0    0  0.00000000000E+00  0.00000000000E+00  0.74505805969E-08  0.10566000000E+00  0.10566000000E+00 0. -1.
     999900   -1    0    0    0    0 -0.00000000000E+00 -0.00000000000E+00 -0.74505805969E-08  0.93827000000E+00  0.93827000000E+00 0. -1.
     999902    2    1    2    0    0 -0.70660317324E-02 -0.11188968903E-01  0.19730398072E-01  0.10201726761E+01  0.10198960137E+01 0.  0.
     999903    2    3    3    0    0  0.11901067967E+00 -0.25683128645E-01 -0.38327835862E-01  0.12917538300E+00  0.19851740460E-01 0.  0.
         14    1    1    2    0    0  0.70660317324E-02  0.11188968903E-01 -0.19730398072E-01  0.23757323874E-01  0.00000000000E+00 0.  1.
     999901    1    3    3    0    0 -0.12607671140E+00  0.14494159742E-01  0.58058233934E-01  0.89099729312E+00  0.88000000000E+00 0.  1.
        -11    1    4    4    0    0  0.91372926829E-01 -0.13244604005E-01 -0.34752850225E-01  0.98653195652E-01  0.51100000000E-03 0. -1.
         11    1    4    4    0    0  0.27637752843E-01 -0.12438524640E-01 -0.35749856362E-02  0.30522187351E-01  0.51100000000E-03 0.  1.
</event>
<event>
 8    1  0.1095698E+005  0.1043930E+01  0.7957747E-01            NaN
         13   -1    0    0    0    0  0.00000000000E+00  0.00000000000E+00  0.74505805969E-08  0.10566000000E+00  0.10566000000E+00 0.  1.
     999900   -1    0    0    0    0 -0.00000000000E+00 -0.00000000000E+00 -0.74505805969E-08  0.93827000000E+00  0.93827000000E+00 0. -1.
     999902    2    1    2    0    0 -0.23480011511E-01 -0.11836864527E-02  0.73519711415E-03  0.10204086784E+01  0.10201375488E+01 0.  0.
     999903    2    3    3    0    0 -0.10691597326E-01 -0.99942678091E-02 -0.12869563073E+00  0.13080567197E+00  0.18258225749E-01 0.  0.
         14    1    1    2    0    0  0.23480011511E-01  0.11836864527E-02 -0.73519711415E-03  0.23521321583E-01  0.00000000000E+00 0.  1.
     999901    1    3    3    0    0 -0.12788414185E-01  0.88105813564E-02  0.12943082785E+00  0.88960300645E+00  0.88000000000E+00 0.  1.
        -11    1    4    4    0    0 -0.71486990655E-03  0.39795962346E-02 -0.89494053867E-02  0.98336769801E-02  0.51100000000E-03 0. -1.
         11    1    4    4    0    0 -0.99767274195E-02 -0.13973864044E-01 -0.11974622535E+00  0.12097199499E+00  0.51100000000E-03 0.  1.
</event>
<event>
 8    1  0.1095698E+005  0.1043930E+01  0.7957747E-01            NaN
         13   -1    0    0    0    0  0.00000000000E+00  0.00000000000E+00  0.74505805969E-08  0.10566000000E+00  0.10566000000E+00 0. -1.
     999900   -1    0    0    0    0 -0.00000000000E+00 -0.00000000000E+00 -0.74505805969E-08  0.93827000000E+00  0.93827000000E+00 0.  1.
     999902    2    1    2    0    0 -0.91622226701E-02  0.23259780587E-01 -0.22938610676E-02  0.10188257072E+01  0.10185163701E+01 0.  0.
     999903    2    3    3    0    0 -0.64992385191E-01 -0.10707207879E+00 -0.14502341171E-01  0.12739290123E+00  0.18171218854E-01 0.  0.
         14    1    1    2    0    0  0.91622226701E-02 -0.23259780587E-01  0.22938610676E-02  0.25104292776E-01  0.00000000000E+00 0.  1.
     999901    1    3    3    0    0  0.55830162521E-01  0.13033185938E+00  0.12208480103E-01  0.89143280599E+00  0.88000000000E+00 0.  1.
        -11    1    4    4    0    0 -0.20240713325E-01 -0.31002204743E-01  0.39101829104E-02  0.37234041229E-01  0.51100000000E-03 0. -1.
         11    1    4    4    0    0 -0.44751671866E-01 -0.76069874048E-01 -0.18412524081E-01  0.90158860000E-01  0.51100000000E-03 0.  1.
</event>
<event>
 8    1  0.1095698E+005  0.1043930E+01  0.7957747E-01            NaN
         13   -1    0    0    0    0  0.00000000000E+00  0.00000000000E+00  0.74505805969E-08  0.10566000000E+00  0.10566000000E+00 0.  1.
     999900   -1    0    0    0    0 -0.00000000000E+00 -0.00000000000E+00 -0.74505805969E-08  0.93827000000E+00  0.93827000000E+00 0. -1.
     999902    2    1    2    0    0  0.49075614510E-02  0.20163097918E-01  0.75399129121E-02  0.10218509383E+01  0.10216123801E+01 0.  0.
     999903    2    3    3    0    0 -0.10281540376E-01 -0.12731626690E+00 -0.56943123100E-02  0.12935106911E+00  0.19599285604E-01 0.  0.
         14    1    1    2    0    0 -0.49075614510E-02 -0.20163097918E-01 -0.75399129121E-02  0.22079061659E-01  0.00000000000E+00 0.  1.
     999901    1    3    3    0    0  0.15189101827E-01  0.14747936482E+00  0.13234225222E-01  0.89249986923E+00  0.88000000000E+00 0.  1.
        -11    1    4    4    0    0 -0.65150360709E-02 -0.11249361663E+00  0.90385987043E-03  0.11268690057E+00  0.51100000000E-03 0. -1.
         11    1    4    4    0    0 -0.37665043052E-02 -0.14822650274E-01 -0.65981721804E-02  0.16664168535E-01  0.51100000000E-03 0.  1.
</event>
<event>
 8    1  0.1095698E+005  0.1043930E+01  0.7957747E-01            NaN
         13   -1    0    0    0    0  0.00000000000E+00  0.00000000000E+00  0.74505805969E-08  0.10566000000E+00  0.10566000000E+00 0.  1.
     999900   -1    0    0    0    0 -0.00000000000E+00 -0.00000000000E+00 -0.74505805969E-08  0.93827000000E+00  0.93827000000E+00 0. -1.
     999902    2    1    2    0    0 -0.12233123520E-01 -0.75130927742E-02  0.17986584549E-01  0.10209166756E+01  0.10206572615E+01 0.  0.
     999903    2    3    3    0    0 -0.11931858883E+00 -0.54624269860E-01  0.14376038654E-01  0.13316682579E+00  0.17492755782E-01 0.  0.
         14    1    1    2    0    0  0.12233123520E-01  0.75130927742E-02 -0.17986584549E-01  0.23013324354E-01  0.00000000000E+00 0. -1.
     999901    1    3    3    0    0  0.10708546531E+00  0.47111177086E-01  0.36105458953E-02  0.88774984986E+00  0.88000000000E+00 0.  1.
        -11    1    4    4    0    0 -0.38086942948E-01 -0.18112240370E-01  0.12852698283E-01  0.44092192602E-01  0.51100000000E-03 0.  1.
         11    1    4    4    0    0 -0.81231645880E-01 -0.36512029490E-01  0.15233403706E-02  0.89074633183E-01  0.51100000000E-03 0. -1.
</event>
<event>
 8    1  0.1095698E+005  0.1043930E+01  0.7957747E-01            NaN
         13   -1    0    0    0    0  0.00000000000E+00  0.00000000000E+00  0.74505805969E-08  0.10566000000E+00  0.10566000000E+00 0.  1.
     999900   -1    0    0    0    0 -0.00000000000E+00 -0.00000000000E+00 -0.74505805969E-08  0.93827000000E+00  0.93827000000E+00 0. -1.
     999902    2    1    2    0    0 -0.63509145137E-02 -0.21015186153E-01  0.80193863503E-02  0.10205573082E+01  0.10202896337E+01 0.  0.
     999903    2    3    3    0    0  0.89003691132E-01 -0.91068328613E-01 -0.27665081483E-01  0.13192165462E+00  0.20563771836E-01 0.  0.
         14    1    1    2    0    0  0.63509145137E-02  0.21015186153E-01 -0.80193863503E-02  0.23372691793E-01  0.00000000000E+00 0.  1.
     999901    1    3    3    0    0 -0.95354605646E-01  0.70053142460E-01  0.35684467834E-01  0.88863565359E+00  0.88000000000E+00 0. -1.
        -11    1    4    4    0    0  0.35943008246E-01 -0.33977879091E-01 -0.77069093172E-03  0.49469699764E-01  0.51100000000E-03 0.  1.
         11    1    4    4    0    0  0.53060682886E-01 -0.57090449522E-01 -0.26894390552E-01  0.82451954853E-01  0.51100000000E-03 0. -1.
</event>
<event>
 8    1  0.1095698E+005  0.1043930E+01  0.7957747E-01            NaN
         13   -1    0    0    0    0  0.00000000000E+00  0.00000000000E+00  0.74505805969E-08  0.10566000000E+00  0.10566000000E+00 0. -1.
     999900   -1    0    0    0    0 -0.00000000000E+00 -0.00000000000E+00 -0.74505805969E-08  0.93827000000E+00  0.93827000000E+00 0. -1.
     999902    2    1    2    0    0  0.55101334144E-02  0.18170817021E-01 -0.13903827130E-01  0.10203958425E+01  0.10201244134E+01 0.  0.
     999903    2    3    3    0    0  0.10998861987E+00 -0.66968282925E-01 -0.40146161517E-02  0.13008004628E+00  0.17957000774E-01 0.  0.
         14    1    1    2    0    0 -0.55101334144E-02 -0.18170817021E-01  0.13903827130E-01  0.23534157523E-01  0.00000000000E+00 0. -1.
     999901    1    3    3    0    0 -0.10447848646E+00  0.85139099946E-01 -0.98892109779E-02  0.89031579620E+00  0.88000000000E+00 0.  1.
        -11    1    4    4    0    0  0.57271390686E-01 -0.44214317904E-01  0.17114515531E-02  0.72374776588E-01  0.51100000000E-03 0.  1.
         11    1    4    4    0    0  0.52717229187E-01 -0.22753965022E-01 -0.57260677047E-02  0.57705269687E-01  0.51100000000E-03 0. -1.
</event>
<event>
 8    1  0.1095698E+005  0.1043930E+01  0.7957747E-01            NaN
         13   -1    0    0    0    0  0.00000000000E+00  0.00000000000E+00  0.74505805969E-08  0.10566000000E+00  0.10566000000E+00 0.  1.
     999900   -1    0    0    0    0 -0.00000000000E+00 -0.00000000000E+00 -0.74505805969E-08  0.93827000000E+00  0.93827000000E+00 0. -1.
     999902    2    1    2    0    0 -0.12213691158E-01 -0.22332414792E-02  0.21196441198E-01  0.10193647656E+01  0.10190687291E+01 0.  0.
     999903    2    3    3    0    0 -0.58351963549E-01 -0.10243215454E+00  0.55682440650E-01  0.13180753002E+00  0.19375057137E-01 0.  0.
         14    1    1    2    0    0  0.12213691158E-01  0.22332414792E-02 -0.21196441198E-01  0.24565234350E-01  0.00000000000E+00 0.  1.
     999901    1    3    3    0    0  0.46138272391E-01  0.10019891306E+00 -0.34485999452E-01  0.88755723563E+00  0.88000000000E+00 0. -1.
        -11    1    4    4    0    0 -0.63834008239E-02 -0.27628551805E-01  0.14299306089E-01  0.31761863241E-01  0.51100000000E-03 0. -1.
         11    1    4    4    0    0 -0.51968562725E-01 -0.74803602739E-01  0.41383134561E-01  0.10004566678E+00  0.51100000000E-03 0.  1.
</event>
<event>
 8    1  0.1095698E+005  0.1043930E+01  0.7957747E-01            NaN
         13   -1    0    0    0    0  0.00000000000E+00  0.00000000000E+00  0.74505805969E-08  0.10566000000E+00  0.10566000000E+00 0. -1.
     999900   -1    0    0    0    0 -0.00000000000E+00 -0.00000000000E+00 -0.74505805969E-08  0.93827000000E+00  0.93827000000E+00 0. -1.
     999902    2    1    2    0    0 -0.10669762097E-01 -0.17839098158E-01 -0.12126902700E-01  0.10198646927E+01  0.10195807238E+01 0.  0.
     999903    2    3    3    0    0 -0.28230292876E-01  0.42348594519E-01  0.11673448798E+00  0.12827275207E+00  0.15381981187E-01 0.  0.
         14    1    1    2    0    0  0.10669762097E-01  0.17839098158E-01  0.12126902700E-01  0.24065307298E-01  0.00000000000E+00 0. -1.
     999901    1    3    3    0    0  0.17560530779E-01 -0.60187692677E-01 -0.12886139068E+00  0.89159194063E+00  0.88000000000E+00 0. -1.
        -11    1    4    4    0    0 -0.17882281882E-01  0.22476387613E-01  0.82470920218E-01  0.87330852555E-01  0.51100000000E-03 0. -1.
         11    1    4    4    0    0 -0.10348010994E-01  0.19872206906E-01  0.34263567766E-01  0.40941899515E-01  0.51100000000E-03 0.  1.
</event>
<event>
 8    1  0.1095698E+005  0.1043930E+01  0.7957747E-01            NaN
         13   -1    0    0    0    0  0.00000000000E+00  0.00000000000E+00  0.74505805969E-08  0.10566000000E+00  0.10566000000E+00 0.  1.
     999900   -1    0    0    0    0 -0.00000000000E+00 -0.00000000000E+00 -0.74505805969E-08  0.93827000000E+00  0.93827000000E+00 0.  1.
     999902    2    1    2    0    0  0.44969256887E-02 -0.13940602146E-01 -0.18769615808E-01  0.10201211528E+01  0.10198432748E+01 0.  0.
     999903    2    3    3    0    0 -0.36495916764E-01 -0.11826451000E+00 -0.43126773787E-01  0.13267697874E+00  0.20611060193E-01 0.  0.
         14    1    1    2    0    0 -0.44969256887E-02  0.13940602146E-01  0.18769615808E-01  0.23808847230E-01  0.00000000000E+00 0. -1.
     999901    1    3    3    0    0  0.40992842452E-01  0.10432390786E+00  0.24357157979E-01  0.88744417403E+00  0.88000000000E+00 0.  1.
        -11    1    4    4    0    0 -0.15002513866E-01 -0.30059271698E-01 -0.19570270907E-01  0.38883053657E-01  0.51100000000E-03 0.  1.
         11    1    4    4    0    0 -0.21493402898E-01 -0.88205238306E-01 -0.23556502880E-01  0.93793925079E-01  0.51100000000E-03 0. -1.
</event>
<event>
 8    1  0.1095698E+005  0.1043930E+01  0.7957747E-01            NaN
         13   -1    0    0    0    0  0.00000000000E+00  0.00000000000E+00  0.74505805969E-08  0.10566000000E+00  0.10566000000E+00 0.  1.
     999900   -1    0    0    0    0 -0.00000000000E+00 -0.00000000000E+00 -0.74505805969E-08  0.93827000000E+00  0.93827000000E+00 0.  1.
     999902    2    1    2    0    0  0.99545202124E-02  0.19374814721E-01 -0.54860648394E-02  0.10214673015E+01  0.10212202873E+01 0.  0.
     999903    2    3    3    0    0  0.10262287772E+00  0.79609191278E-01  0.25841824714E-01  0.13400065912E+00  0.20476776433E-01 0.  0.
         14    1    1    2    0    0 -0.99545202124E-02 -0.19374814721E-01  0.54860648394E-02  0.22462698536E-01  0.00000000000E+00 0.  1.
     999901    1    3    3    0    0 -0.92668357510E-01 -0.60234376557E-01 -0.31327889553E-01  0.88746664234E+00  0.88000000000E+00 0. -1.
        -11    1    4    4    0    0  0.24814200136E-01  0.96028418398E-02  0.82728274641E-02  0.27868618463E-01  0.51100000000E-03 0.  1.
         11    1    4    4    0    0  0.77808677586E-01  0.70006349438E-01  0.17568997249E-01  0.10613204066E+00  0.51100000000E-03 0. -1.
</event>
<event>
 8    1  0.1095698E+005  0.1043930E+01  0.7957747E-01            NaN
         13   -1    0    0    0    0  0.00000000000E+00  0.00000000000E+00  0.74505805969E-08  0.10566000000E+00  0.10566000000E+00 0. -1.
     999900   -1    0    0    0    0 -0.00000000000E+00 -0.00000000000E+00 -0.74505805969E-08  0.93827000000E+00  0.93827000000E+00 0.  1.
     999902    2    1    2    0    0 -0.26696480634E-02 -0.14450945934E-02  0.29000260274E-01  0.10147712892E+01  0.10143522756E+01 0.  0.
     999903    2    3    3    0    0  0.10835916324E+00  0.52925651820E-02 -0.56186284698E-01  0.12368793708E+00  0.19289574551E-01 0.  0.
         14    1    1    2    0    0  0.26696480634E-02  0.14450945934E-02 -0.29000260274E-01  0.29158710794E-01  0.00000000000E+00 0.  1.
     999901    1    3    3    0    0 -0.11102881130E+00 -0.67376597754E-02  0.85186544973E-01  0.89108335213E+00  0.88000000000E+00 0.  1.
        -11    1    4    4    0    0  0.70923538830E-01 -0.26633536660E-02 -0.28663884288E-01  0.76544896606E-01  0.51100000000E-03 0.  1.
         11    1    4    4    0    0  0.37435624407E-01  0.79559188479E-02 -0.27522400410E-01  0.47143040471E-01  0.51100000000E-03 0. -1.
</event>
<event>
 8    1  0.1095698E+005  0.1043930E+01  0.7957747E-01            NaN
         13   -1    0    0    0    0  0.00000000000E+00  0.00000000000E+00  0.74505805969E-08  0.10566000000E+00  0.10566000000E+00 0.  1.
     999900   -1    0    0    0    0 -0.00000000000E+00 -0.00000000000E+00 -0.74505805969E-08  0.93827000000E+00  0.93827000000E+00 0.  1.
     999902    2    1    2    0    0  0.13503935125E-01  0.64615642433E-02 -0.19457609488E-01  0.10193799156E+01  0.10190842486E+01 0.  0.
     999903    2    3    3    0    0  0.48993017205E-01 -0.91677678807E-01 -0.77634957299E-01  0.13130593797E+00  0.20222517772E-01 0.  0.
         14    1    1    2    0    0 -0.13503935125E-01 -0.64615642433E-02  0.19457609488E-01  0.24550084385E-01  0.00000000000E+00 0.  1.
     999901    1    3    3    0    0 -0.35489082080E-01  0.98139243050E-01  0.58177347811E-01  0.88807397765E+00  0.88000000000E+00 0. -1.
        -11    1    4    4    0    0  0.52161110764E-02 -0.17192681732E-01 -0.56257940850E-02  0.18833661353E-01  0.51100000000E-03 0. -1.
         11    1    4    4    0    0  0.43776906128E-01 -0.74484997075E-01 -0.72009163214E-01  0.11247227662E+00  0.51100000000E-03 0.  1.
</event>
<event>
 8    1  0.1095698E+005  0.1043930E+01  0.7957747E-01            NaN
         13   -1    0    0    0    0  0.00000000000E+00  0.00000000000E+00  0.74505805969E-08  0.10566000000E+00  0.10566000000E+00 0.  1.
     999900   -1    0    0    0    0 -0.00000000000E+00 -0.00000000000E+00 -0.74505805969E-08  0.93827000000E+00  0.93827000000E+00 0. -1.
     999902    2    1    2    0    0 -0.14216159364E-01 -0.10076577476E-01  0.16055949111E-01  0.10202354837E+01  0.10199602993E+01 0.  0.
     999903    2    3    3    0    0 -0.18877322644E-01 -0.12010897011E+00 -0.45378061459E-01  0.13124561226E+00  0.19588881185E-01 0.  0.
         14    1    1    2    0    0  0.14216159364E-01  0.10076577476E-01 -0.16055949111E-01  0.23694516297E-01  0.00000000000E+00 0. -1.
     999901    1    3    3    0    0  0.46611632798E-02  0.11003239263E+00  0.61434010570E-01  0.88898987144E+00  0.88000000000E+00 0.  1.
        -11    1    4    4    0    0 -0.15037835293E-01 -0.41920778521E-01 -0.11885984456E-01  0.46098003315E-01  0.51100000000E-03 0. -1.
         11    1    4    4    0    0 -0.38394873509E-02 -0.78188191584E-01 -0.33492077003E-01  0.85147608946E-01  0.51100000000E-03 0.  1.
</event>
<event>
 8    1  0.1095698E+005  0.1043930E+01  0.7957747E-01            NaN
         13   -1    0    0    0    0  0.00000000000E+00  0.00000000000E+00  0.74505805969E-08  0.10566000000E+00  0.10566000000E+00 0.  1.
     999900   -1    0    0    0    0 -0.00000000000E+00 -0.00000000000E+00 -0.74505805969E-08  0.93827000000E+00  0.93827000000E+00 0. -1.
     999902    2    1    2    0    0  0.59229353584E-02  0.23749225262E-01  0.62647991752E-03  0.10194453244E+01  0.10191512498E+01 0.  0.
     999903    2    3    3    0    0  0.14823968444E-01  0.48846213860E-01  0.11904880187E+00  0.13111377952E+00  0.20310177352E-01 0.  0.
         14    1    1    2    0    0 -0.59229353584E-02 -0.23749225262E-01 -0.62647991752E-03  0.24484675634E-01  0.00000000000E+00 0.  1.
     999901    1    3    3    0    0 -0.89010330857E-02 -0.25096988597E-01 -0.11842232196E+00  0.88833154484E+00  0.88000000000E+00 0. -1.
        -11    1    4    4    0    0  0.22355553346E-02 -0.59433821426E-03  0.15476703504E-01  0.15656960686E-01  0.51100000000E-03 0.  1.
         11    1    4    4    0    0  0.12588413110E-01  0.49440552074E-01  0.10357209837E+00  0.11545681884E+00  0.51100000000E-03 0. -1.
</event>
<event>
 8    1  0.1095698E+005  0.1043930E+01  0.7957747E-01            NaN
         13   -1    0    0    0    0  0.00000000000E+00  0.00000000000E+00  0.74505805969E-08  0.10566000000E+00  0.10566000000E+00 0.  1.
     999900   -1    0    0    0    0 -0.00000000000E+00 -0.00000000000E+00 -0.74505805969E-08  0.93827000000E+00  0.93827000000E+00 0.  1.
     999902    2    1    2    0    0 -0.22355462395E-01  0.12442659500E-02  0.89007952464E-02  0.10198356220E+01  0.10195509584E+01 0.  0.
     999903    2    3    3    0    0  0.65134373833E-01 -0.65922437513E-01  0.88121775489E-01  0.12941897724E+00  0.19888939965E-01 0.  0.
         14    1    1    2    0    0  0.22355462395E-01 -0.12442659500E-02 -0.89007952464E-02  0.24094378030E-01  0.00000000000E+00 0. -1.
     999901    1    3    3    0    0 -0.87489836228E-01  0.67166703463E-01 -0.79220980242E-01  0.89041664473E+00  0.88000000000E+00 0.  1.
        -11    1    4    4    0    0  0.38765471055E-01 -0.34800501821E-01  0.36437460958E-01  0.63575045066E-01  0.51100000000E-03 0.  1.
         11    1    4    4    0    0  0.26368902779E-01 -0.31121935692E-01  0.51684314530E-01  0.65843932176E-01  0.51100000000E-03 0. -1.
</event>
<event>
 8    1  0.1131671E+005  0.1043930E+01  0.7957747E-01            NaN
         13   -1    0    0    0    0  0.00000000000E+00  0.00000000000E+00  0.74505805969E-08  0.10566000000E+00  0.10566000000E+00 0.  1.
     999900   -1    0    0    0    0 -0.00000000000E+00 -0.00000000000E+00 -0.74505805969E-08  0.93827000000E+00  0.93827000000E+00 0. -1.
     999902    2    1    2    0    0 -0.24219633853E-01  0.12435660080E-01  0.24146698228E-02  0.10165974748E+01  0.10162299734E+01 0.  0.
     999903    2    3    3    0    0 -0.74601572476E-01  0.59671437382E-01 -0.85750287919E-01  0.12949961197E+00  0.17057624887E-01 0.  0.
         14    1    1    2    0    0  0.24219633853E-01 -0.12435660080E-01 -0.24146698228E-02  0.27332525239E-01  0.00000000000E+00 0.  1.
     999901    1    3    3    0    0  0.50381938623E-01 -0.47235777302E-01  0.88164957742E-01  0.88709786279E+00  0.88000000000E+00 0.  1.
        -11    1    4    4    0    0 -0.29707751159E-01  0.34574254920E-01 -0.41570607134E-01  0.61695267896E-01  0.51100000000E-03 0.  1.
         11    1    4    4    0    0 -0.44893821317E-01  0.25097182461E-01 -0.44179680784E-01  0.67804344073E-01  0.51100000000E-03 0. -1.
</event>
<event>
 8    1  0.1095698E+005  0.1043930E+01  0.7957747E-01            NaN
         13   -1    0    0    0    0  0.00000000000E+00  0.00000000000E+00  0.74505805969E-08  0.10566000000E+00  0.10566000000E+00 0. -1.
     999900   -1    0    0    0    0 -0.00000000000E+00 -0.00000000000E+00 -0.74505805969E-08  0.93827000000E+00  0.93827000000E+00 0. -1.
     999902    2    1    2    0    0  0.20750619870E-01 -0.94880811154E-02  0.92404491337E-02  0.10193129773E+01  0.10190156759E+01 0.  0.
     999903    2    3    3    0    0  0.64692315626E-01  0.52297661155E-01  0.99646213718E-01  0.13143823787E+00  0.20651910417E-01 0.  0.
         14    1    1    2    0    0 -0.20750619870E-01  0.94880811154E-02 -0.92404491337E-02  0.24617022737E-01  0.00000000000E+00 0. -1.
     999901    1    3    3    0    0 -0.43941695757E-01 -0.61785742271E-01 -0.90405764585E-01  0.88787473939E+00  0.88000000000E+00 0. -1.
        -11    1    4    4    0    0  0.16649980151E-01  0.20162652940E-01  0.19499207365E-01  0.32622609054E-01  0.51100000000E-03 0.  1.
         11    1    4    4    0    0  0.48042335475E-01  0.32135008215E-01  0.80147006353E-01  0.98815628821E-01  0.51100000000E-03 0. -1.
</event>
<event>
 8    1  0.1095698E+005  0.1043930E+01  0.7957747E-01            NaN
         13   -1    0    0    0    0  0.00000000000E+00  0.00000000000E+00  0.74505805969E-08  0.10566000000E+00  0.10566000000E+00 0.  1.
     999900   -1    0    0    0    0 -0.00000000000E+00 -0.00000000000E+00 -0.74505805969E-08  0.93827000000E+00  0.93827000000E+00 0. -1.
     999902    2    1    2    0    0  0.44456199452E-02  0.70405821315E-02 -0.22121305532E-01  0.10202934712E+01  0.10200196478E+01 0.  0.
     999903    2    3    3    0    0 -0.34560598556E-01 -0.92604302518E-01  0.78648981145E-01  0.12810221439E+00  0.21319551575E-01 0.  0.
         14    1    1    2    0    0 -0.44456199452E-02 -0.70405821315E-02  0.22121305532E-01  0.23636528761E-01  0.00000000000E+00 0.  1.
     999901    1    3    3    0    0  0.39006218501E-01  0.99644884650E-01 -0.10077028668E+00  0.89219125685E+00  0.88000000000E+00 0. -1.
        -11    1    4    4    0    0 -0.30575504055E-01 -0.66440901586E-01  0.47434730454E-01  0.87175510471E-01  0.51100000000E-03 0.  1.
         11    1    4    4    0    0 -0.39850945014E-02 -0.26163400933E-01  0.31214250691E-01  0.40926703920E-01  0.51100000000E-03 0. -1.
</event>
<event>
 8    1  0.1095698E+005  0.1043930E+01  0.7957747E-01            NaN
         13   -1    0    0    0    0  0.00000000000E+00  0.00000000000E+00  0.74505805969E-08  0.10566000000E+00  0.10566000000E+00 0.  1.
     999900   -1    0    0    0    0 -0.00000000000E+00 -0.00000000000E+00 -0.74505805969E-08  0.93827000000E+00  0.93827000000E+00 0.  1.
     999902    2    1    2    0    0 -0.19741448647E-02 -0.12920039732E-01  0.18780177433E-01  0.10210494463E+01  0.10207930505E+01 0.  0.
     999903    2    3    3    0    0  0.10772334502E+00 -0.68420636600E-01 -0.24618496896E-01  0.13144430888E+00  0.19642641700E-01 0.  0.
         14    1    1    2    0    0  0.19741448647E-02  0.12920039732E-01 -0.18780177433E-01  0.22880553731E-01  0.00000000000E+00 0. -1.
     999901    1    3    3    0    0 -0.10969748988E+00  0.55500596867E-01  0.43398674329E-01  0.88960513739E+00  0.88000000000E+00 0. -1.
        -11    1    4    4    0    0  0.35711172067E-01 -0.24449422913E-01  0.90519929703E-03  0.43291368631E-01  0.51100000000E-03 0. -1.
         11    1    4    4    0    0  0.72012172948E-01 -0.43971213687E-01 -0.25523696193E-01  0.88152940247E-01  0.51100000000E-03 0.  1.
</event>
<event>
 8    1  0.1095698E+005  0.1043930E+01  0.7957747E-01            NaN
         13   -1    0    0    0    0  0.00000000000E+00  0.00000000000E+00  0.74505805969E-08  0.10566000000E+00  0.10566000000E+00 0. -1.
     999900   -1    0    0    0    0 -0.00000000000E+00 -0.00000000000E+00 -0.74505805969E-08  0.93827000000E+00  0.93827000000E+00 0.  1.
     999902    2    1    2    0    0 -0.15208892195E-01  0.10974227337E-01  0.14386225268E-01  0.10202930047E+01  0.10200191704E+01 0.  0.
     999903    2    3    3    0    0 -0.67775397392E-01  0.98948342282E-01  0.54934447206E-01  0.13341824432E+00  0.19958845043E-01 0.  0.
         14    1    1    2    0    0  0.15208892195E-01 -0.10974227337E-01 -0.14386225268E-01  0.23636995260E-01  0.00000000000E+00 0.  1.
     999901    1    3    3    0    0  0.52566505197E-01 -0.87974114945E-01 -0.40548221938E-01  0.88687476042E+00  0.88000000000E+00 0. -1.
        -11    1    4    4    0    0 -0.46429075096E-01  0.73719908683E-01  0.48609971958E-01  0.99767101017E-01  0.51100000000E-03 0. -1.
         11    1    4    4    0    0 -0.21346322296E-01  0.25228433599E-01  0.63244752478E-02  0.33651143303E-01  0.51100000000E-03 0.  1.
</event>
<event>
 8    1  0.1095698E+005  0.1043930E+01  0.7957747E-01            NaN
         13   -1    0    0    0    0  0.00000000000E+00  0.00000000000E+00  0.74505805969E-08  0.10566000000E+00  0.10566000000E+00 0. -1.
     999900   -1    0    0    0    0 -0.00000000000E+00 -0.00000000000E+00 -0.74505805969E-08  0.93827000000E+00  0.93827000000E+00 0. -1.
     999902    2    1    2    0    0  0.16325515150E-01 -0.95665307875E-02  0.12239280785E-01  0.10213946733E+01  0.10211460413E+01 0.  0.
     999903    2    3    3    0    0  0.53460997703E-01 -0.71922612800E-01 -0.94589431292E-01  0.13196806093E+00  0.20915737781E-01 0.  0.
         14    1    1    2    0    0 -0.16325515150E-01  0.95665307875E-02 -0.12239280785E-01  0.22535326719E-01  0.00000000000E+00 0.  1.
     999901    1    3    3    0    0 -0.37135482553E-01  0.62356082013E-01  0.10682871208E+00  0.88942661235E+00  0.88000000000E+00 0.  1.
        -11    1    4    4    0    0  0.23666413024E-01 -0.48194461634E-01 -0.50621396231E-01  0.73794255298E-01  0.51100000000E-03 0.  1.
         11    1    4    4    0    0  0.29794584679E-01 -0.23728151166E-01 -0.43968035061E-01  0.58173805635E-01  0.51100000000E-03 0. -1.
</event>
<event>
 8    1  0.1095698E+005  0.1043930E+01  0.7957747E-01            NaN
         13   -1    0    0    0    0  0.00000000000E+00  0.00000000000E+00  0.74505805969E-08  0.10566000000E+00  0.10566000000E+00 0. -1.
     999900   -1    0    0    0    0 -0.00000000000E+00 -0.00000000000E+00 -0.74505805969E-08  0.93827000000E+00  0.93827000000E+00 0. -1.
     999902    2    1    2    0    0  0.26832257153E-01 -0.36715875322E-02 -0.42024459563E-02  0.10165235933E+01  0.10161540752E+01 0.  0.
     999903    2    3    3    0    0  0.50291410861E-01  0.10761399154E+00 -0.43787884227E-01  0.12832214148E+00  0.20957003812E-01 0.  0.
         14    1    1    2    0    0 -0.26832257153E-01  0.36715875322E-02  0.42024459563E-02  0.27406406750E-01  0.00000000000E+00 0. -1.
     999901    1    3    3    0    0 -0.23459153708E-01 -0.11128557907E+00  0.39585438271E-01  0.88820145177E+00  0.88000000000E+00 0. -1.
        -11    1    4    4    0    0  0.14110880238E-01  0.45480220652E-01 -0.25981062377E-01  0.54247987381E-01  0.51100000000E-03 0. -1.
         11    1    4    4    0    0  0.36180530622E-01  0.62133770884E-01 -0.17806821850E-01  0.74074154101E-01  0.51100000000E-03 0.  1.
</event>
<event>
 8    1  0.1095698E+005  0.1043930E+01  0.7957747E-01            NaN
         13   -1    0    0    0    0  0.00000000000E+00  0.00000000000E+00  0.74505805969E-08  0.10566000000E+00  0.10566000000E+00 0. -1.
     999900   -1    0    0    0    0 -0.00000000000E+00 -0.00000000000E+00 -0.74505805969E-08  0.93827000000E+00  0.93827000000E+00 0. -1.
     999902    2    1    2    0    0  0.21955645390E-01 -0.47966163098E-02  0.65186848175E-02  0.10205301892E+01  0.10202618860E+01 0.  0.
     999903    2    3    3    0    0 -0.10233550431E+00  0.13828312057E-01  0.74106999912E-01  0.12903517623E+00  0.22236267946E-01 0.  0.
         14    1    1    2    0    0 -0.21955645390E-01  0.47966163098E-02 -0.65186848175E-02  0.23399810774E-01  0.00000000000E+00 0.  1.
     999901    1    3    3    0    0  0.12429114970E+00 -0.18624928367E-01 -0.67588315095E-01  0.89149501299E+00  0.88000000000E+00 0. -1.
        -11    1    4    4    0    0 -0.33434440416E-02  0.49519638159E-02  0.23165055701E-02  0.64286765940E-02  0.51100000000E-03 0.  1.
         11    1    4    4    0    0 -0.98992060273E-01  0.88763482413E-02  0.71790494342E-01  0.12260649964E+00  0.51100000000E-03 0. -1.
</event>
<event>
 8    1  0.1095698E+005  0.1043930E+01  0.7957747E-01            NaN
         13   -1    0    0    0    0  0.00000000000E+00  0.00000000000E+00  0.74505805969E-08  0.10566000000E+00  0.10566000000E+00 0.  1.
     999900   -1    0    0    0    0 -0.00000000000E+00 -0.00000000000E+00 -0.74505805969E-08  0.93827000000E+00  0.93827000000E+00 0.  1.
     999902    2    1    2    0    0  0.20387461155E-01 -0.63810508467E-02  0.94689597351E-02  0.10205627669E+01  0.10202952189E+01 0.  0.
     999903    2    3    3    0    0  0.80748864017E-01  0.90491972104E-01 -0.45805517643E-01  0.13147157399E+00  0.21850704033E-01 0.  0.
         14    1    1    2    0    0 -0.20387461155E-01  0.63810508467E-02 -0.94689597351E-02  0.23367233057E-01  0.00000000000E+00 0. -1.
     999901    1    3    3    0    0 -0.60361402862E-01 -0.96873022950E-01  0.55274477378E-01  0.88909119295E+00  0.88000000000E+00 0. -1.
        -11    1    4    4    0    0  0.52577681170E-01  0.66783328340E-01 -0.22619397870E-01  0.87956374314E-01  0.51100000000E-03 0. -1.
         11    1    4    4    0    0  0.28171182846E-01  0.23708643763E-01 -0.23186119773E-01  0.43515199680E-01  0.51100000000E-03 0.  1.
</event>
<event>
 8    1  0.1095698E+005  0.1043930E+01  0.7957747E-01            NaN
         13   -1    0    0    0    0  0.00000000000E+00  0.00000000000E+00  0.74505805969E-08  0.10566000000E+00  0.10566000000E+00 0. -1.
     999900   -1    0    0    0    0 -0.00000000000E+00 -0.00000000000E+00 -0.74505805969E-08  0.93827000000E+00  0.93827000000E+00 0.  1.
     999902    2    1    2    0    0 -0.19813458735E-01  0.59562726466E-02 -0.91508067787E-02  0.10213072770E+01  0.10210566911E+01 0.  0.
     999903    2    3    3    0    0 -0.12643030979E+00  0.36857311863E-01 -0.16119832032E-01  0.13430637821E+00  0.20863115134E-01 0.  0.
         14    1    1    2    0    0  0.19813458735E-01 -0.59562726466E-02  0.91508067787E-02  0.22622722992E-01  0.00000000000E+00 0. -1.
     999901    1    3    3    0    0  0.10661685105E+00 -0.30901039217E-01  0.69690252532E-02  0.88700089880E+00  0.88000000000E+00 0. -1.
        -11    1    4    4    0    0 -0.91679885674E-01  0.25862766854E-01 -0.21926314289E-02  0.95284588996E-01  0.51100000000E-03 0. -1.
         11    1    4    4    0    0 -0.34750424112E-01  0.10994545009E-01 -0.13927200603E-01  0.39021789215E-01  0.51100000000E-03 0.  1.
</event>
<event>
 8    1  0.1095698E+005  0.1043930E+01  0.7957747E-01            NaN
         13   -1    0    0    0    0  0.00000000000E+00  0.00000000000E+00  0.74505805969E-08  0.10566000000E+00  0.10566000000E+00 0.  1.
     999900   -1    0    0    0    0 -0.00000000000E+00 -0.00000000000E+00 -0.74505805969E-08  0.93827000000E+00  0.93827000000E+00 0.  1.
     999902    2    1    2    0    0  0.97361051280E-02 -0.50482232249E-02  0.21194825917E-01  0.10200658648E+01  0.10197866795E+01 0.  0.
     999903    2    3    3    0    0 -0.15569994849E-01  0.54326086119E-01 -0.11271807632E+00  0.12759828970E+00  0.19550202870E-01 0.  0.
         14    1    1    2    0    0 -0.97361051280E-02  0.50482232249E-02 -0.21194825917E-01  0.23864135150E-01  0.00000000000E+00 0. -1.
     999901    1    3    3    0    0  0.25306099977E-01 -0.59374309344E-01  0.13391290224E+00  0.89246757515E+00  0.88000000000E+00 0. -1.
        -11    1    4    4    0    0  0.19196357474E-02  0.25975982785E-02 -0.17757396085E-01  0.18055989448E-01  0.51100000000E-03 0. -1.
         11    1    4    4    0    0 -0.17489630596E-01  0.51728487840E-01 -0.94960680237E-01  0.10954230025E+00  0.51100000000E-03 0.  1.
</event>
<event>
 8    1  0.1095698E+005  0.1043930E+01  0.7957747E-01            NaN
         13   -1    0    0    0    0  0.00000000000E+00  0.00000000000E+00  0.74505805969E-08  0.10566000000E+00  0.10566000000E+00 0.  1.
     999900   -1    0    0    0    0 -0.00000000000E+00 -0.00000000000E+00 -0.74505805969E-08  0.93827000000E+00  0.93827000000E+00 0.  1.
     999902    2    1    2    0    0 -0.17741609688E-01 -0.30047270790E-02  0.15484904933E-01  0.10201902574E+01  0.10199140091E+01 0.  0.
     999903    2    3    3    0    0  0.10287735070E+00 -0.43960432856E-01  0.63224010705E-01  0.12973794217E+00  0.17843462744E-01 0.  0.
         14    1    1    2    0    0  0.17741609688E-01  0.30047270790E-02 -0.15484904933E-01  0.23739742625E-01  0.00000000000E+00 0. -1.
     999901    1    3    3    0    0 -0.12061896039E+00  0.40955705777E-01 -0.47739105773E-01  0.89045231521E+00  0.88000000000E+00 0.  1.
        -11    1    4    4    0    0  0.14420420149E-01 -0.13361226523E-01  0.11983569790E-01  0.23029067662E-01  0.51100000000E-03 0.  1.
         11    1    4    4    0    0  0.88456930555E-01 -0.30599206333E-01  0.51240440916E-01  0.10670887450E+00  0.51100000000E-03 0. -1.
</event>
<event>
 8    1  0.1095698E+005  0.1043930E+01  0.7957747E-01            NaN
         13   -1    0    0    0    0  0.00000000000E+00  0.00000000000E+00  0.74505805969E-08  0.10566000000E+00  0.10566000000E+00 0.  1.
     999900   -1    0    0    0    0 -0.00000000000E+00 -0.00000000000E+00 -0.74505805969E-08  0.93827000000E+00  0.93827000000E+00 0.  1.
     999902    2    1    2    0    0  0.10521853209E-01  0.18363657559E-01 -0.10335691387E-01  0.10203766599E+01  0.10201047830E+01 0.  0.
     999903    2    3    3    0    0  0.36071463529E-01 -0.22049424574E-01  0.12054763844E+00  0.12941288632E+00  0.20703487773E-01 0.  0.
         14    1    1    2    0    0 -0.10521853209E-01 -0.18363657559E-01  0.10335691387E-01  0.23553340110E-01  0.00000000000E+00 0. -1.
     999901    1    3    3    0    0 -0.25549610320E-01  0.40413082134E-01 -0.13088332983E+00  0.89096377357E+00  0.88000000000E+00 0.  1.
        -11    1    4    4    0    0  0.30277969197E-01 -0.98602028664E-02  0.66932482298E-01  0.74122852933E-01  0.51100000000E-03 0. -1.
         11    1    4    4    0    0  0.57934943317E-02 -0.12189221708E-01  0.53615156142E-01  0.55290033383E-01  0.51100000000E-03 0.  1.
</event>
<event>
 8    1  0.1210517E+005  0.1043930E+01  0.7957747E-01            NaN
         13   -1    0    0    0    0  0.00000000000E+00  0.00000000000E+00  0.74505805969E-08  0.10566000000E+00  0.10566000000E+00 0. -1.
     999900   -1    0    0    0    0 -0.00000000000E+00 -0.00000000000E+00 -0.74505805969E-08  0.93827000000E+00  0.93827000000E+00 0.  1.
     999902    2    1    2    0    0  0.33890953940E-01  0.50930291616E-03  0.14202373146E-01  0.10071799857E+01  0.10065092946E+01 0.  0.
     999903    2    3    3    0    0 -0.98935593387E-02  0.67165458393E-01 -0.94015306747E-01  0.11697147478E+00  0.15309039544E-01 0.  0.
         14    1    1    2    0    0 -0.33890953940E-01 -0.50930291616E-03 -0.14202373146E-01  0.36750014305E-01  0.00000000000E+00 0.  1.
     999901    1    3    3    0    0  0.43784513279E-01 -0.66656155476E-01  0.10821767989E+00  0.89020851092E+00  0.88000000000E+00 0.  1.
        -11    1    4    4    0    0 -0.70727798724E-02  0.19180173573E-01 -0.38037568900E-01  0.43185889387E-01  0.51100000000E-03 0.  1.
         11    1    4    4    0    0 -0.28207794664E-02  0.47985284820E-01 -0.55977737848E-01  0.73785585392E-01  0.51100000000E-03 0. -1.
</event>
<event>
 8    1  0.1095698E+005  0.1043930E+01  0.7957747E-01            NaN
         13   -1    0    0    0    0  0.00000000000E+00  0.00000000000E+00  0.74505805969E-08  0.10566000000E+00  0.10566000000E+00 0.  1.
     999900   -1    0    0    0    0 -0.00000000000E+00 -0.00000000000E+00 -0.74505805969E-08  0.93827000000E+00  0.93827000000E+00 0.  1.
     999902    2    1    2    0    0  0.21933888847E-02 -0.12382261507E-01  0.21035590918E-01  0.10194222984E+01  0.10191276637E+01 0.  0.
     999903    2    3    3    0    0 -0.87553889235E-01  0.18852184534E-01  0.94080907120E-01  0.13129742945E+00  0.19149660903E-01 0.  0.
         14    1    1    2    0    0 -0.21933888847E-02  0.12382261507E-01 -0.21035590918E-01  0.24507701648E-01  0.00000000000E+00 0. -1.
     999901    1    3    3    0    0  0.89747278120E-01 -0.31234446041E-01 -0.73045316202E-01  0.88812486891E+00  0.88000000000E+00 0.  1.
        -11    1    4    4    0    0 -0.63747287533E-01  0.22176707832E-01  0.71166271256E-01  0.98083751577E-01  0.51100000000E-03 0. -1.
         11    1    4    4    0    0 -0.23806601703E-01 -0.33245232976E-02  0.22914635864E-01  0.33213677869E-01  0.51100000000E-03 0.  1.
</event>
<event>
 8    1  0.1095698E+005  0.1043930E+01  0.7957747E-01            NaN
         13   -1    0    0    0    0  0.00000000000E+00  0.00000000000E+00  0.74505805969E-08  0.10566000000E+00  0.10566000000E+00 0.  1.
     999900   -1    0    0    0    0 -0.00000000000E+00 -0.00000000000E+00 -0.74505805969E-08  0.93827000000E+00  0.93827000000E+00 0.  1.
     999902    2    1    2    0    0 -0.72398417973E-02 -0.20597587127E-01  0.91455762973E-02  0.10202589740E+01  0.10199843414E+01 0.  0.
     999903    2    3    3    0    0  0.64203586473E-01  0.98679810335E-01  0.47247626495E-01  0.12852861836E+00  0.20675155259E-01 0.  0.
         14    1    1    2    0    0  0.72398417973E-02  0.20597587127E-01 -0.91455762973E-02  0.23671025971E-01  0.00000000000E+00 0. -1.
     999901    1    3    3    0    0 -0.71443428270E-01 -0.11927739746E+00 -0.38102050198E-01  0.89173035567E+00  0.88000000000E+00 0.  1.
        -11    1    4    4    0    0  0.66115350479E-02  0.21972445103E-01  0.39573364419E-02  0.23289962907E-01  0.51100000000E-03 0. -1.
         11    1    4    4    0    0  0.57592051425E-01  0.76707365232E-01  0.43290290053E-01  0.10523865546E+00  0.51100000000E-03 0.  1.
</event>
<event>
 8    1  0.1095698E+005  0.1043930E+01  0.7957747E-01            NaN
         13   -1    0    0    0    0  0.00000000000E+00  0.00000000000E+00  0.74505805969E-08  0.10566000000E+00  0.10566000000E+00 0.  1.
     999900   -1    0    0    0    0 -0.00000000000E+00 -0.00000000000E+00 -0.74505805969E-08  0.93827000000E+00  0.93827000000E+00 0. -1.
     999902    2    1    2    0    0  0.18718316623E-01 -0.14767307793E-01 -0.11756700619E-02  0.10200588677E+01  0.10197795167E+01 0.  0.
     999903    2    3    3    0    0 -0.12232246506E+00 -0.30753322724E-01 -0.15185667114E-01  0.12857452417E+00  0.19805339254E-01 0.  0.
         14    1    1    2    0    0 -0.18718316623E-01  0.14767307793E-01  0.11756700619E-02  0.23871132289E-01  0.00000000000E+00 0.  1.
     999901    1    3    3    0    0  0.14104078168E+00  0.15986014930E-01  0.14009997053E-01  0.89148434355E+00  0.88000000000E+00 0.  1.
        -11    1    4    4    0    0 -0.86832108299E-01 -0.26294285776E-01 -0.18682491683E-01  0.92630994341E-01  0.51100000000E-03 0. -1.
         11    1    4    4    0    0 -0.35490356756E-01 -0.44590369480E-02  0.34968245688E-02  0.35943529825E-01  0.51100000000E-03 0.  1.
</event>
<event>
 8    1  0.1095698E+005  0.1043930E+01  0.7957747E-01            NaN
         13   -1    0    0    0    0  0.00000000000E+00  0.00000000000E+00  0.74505805969E-08  0.10566000000E+00  0.10566000000E+00 0.  1.
     999900   -1    0    0    0    0 -0.00000000000E+00 -0.00000000000E+00 -0.74505805969E-08  0.93827000000E+00  0.93827000000E+00 0.  1.
     999902    2    1    2    0    0  0.18860508874E-01  0.16783651605E-01  0.20881669574E-02  0.10185968163E+01  0.10182817409E+01 0.  0.
     999903    2    3    3    0    0  0.78413922174E-01  0.51574649600E-01 -0.89331519181E-01  0.13117663306E+00  0.20457298668E-01 0.  0.
         14    1    1    2    0    0 -0.18860508874E-01 -0.16783651605E-01 -0.20881669574E-02  0.25333183721E-01  0.00000000000E+00 0.  1.
     999901    1    3    3    0    0 -0.59553413300E-01 -0.34790997995E-01  0.91419686138E-01  0.88742018322E+00  0.88000000000E+00 0.  1.
        -11    1    4    4    0    0  0.47757926555E-01  0.42755386063E-01 -0.57586680910E-01  0.86170351778E-01  0.51100000000E-03 0.  1.
         11    1    4    4    0    0  0.30655995619E-01  0.88192635375E-02 -0.31744838271E-01  0.45006281279E-01  0.51100000000E-03 0. -1.
</event>
<event>
 8    1  0.1095698E+005  0.1043930E+01  0.7957747E-01            NaN
         13   -1    0    0    0    0  0.00000000000E+00  0.00000000000E+00  0.74505805969E-08  0.10566000000E+00  0.10566000000E+00 0. -1.
     999900   -1    0    0    0    0 -0.00000000000E+00 -0.00000000000E+00 -0.74505805969E-08  0.93827000000E+00  0.93827000000E+00 0. -1.
     999902    2    1    2    0    0  0.15667679970E-01 -0.17527079776E-01  0.24162284277E-03  0.10204197235E+01  0.10201488514E+01 0.  0.
     999903    2    3    3    0    0  0.15045598333E-01  0.48742606596E-02  0.12839864814E+00  0.13085441941E+00  0.19660564311E-01 0.  0.
         14    1    1    2    0    0 -0.15667679970E-01  0.17527079776E-01 -0.24162284277E-03  0.23510276535E-01  0.00000000000E+00 0. -1.
     999901    1    3    3    0    0  0.62208163680E-03 -0.22401340436E-01 -0.12815702530E+00  0.88956530405E+00  0.88000000000E+00 0. -1.
        -11    1    4    4    0    0  0.12814062965E-01 -0.53787703281E-02  0.88966483409E-01  0.90046808223E-01  0.51100000000E-03 0. -1.
         11    1    4    4    0    0  0.22315353682E-02  0.10253030988E-01  0.39432164734E-01  0.40807611191E-01  0.51100000000E-03 0.  1.
</event>
<event>
 8    1  0.1095698E+005  0.1043930E+01  0.7957747E-01            NaN
         13   -1    0    0    0    0  0.00000000000E+00  0.00000000000E+00  0.74505805969E-08  0.10566000000E+00  0.10566000000E+00 0. -1.
     999900   -1    0    0    0    0 -0.00000000000E+00 -0.00000000000E+00 -0.74505805969E-08  0.93827000000E+00  0.93827000000E+00 0. -1.
     999902    2    1    2    0    0  0.75396562458E-02 -0.14164326566E-01 -0.12149751353E-01  0.10238031269E+01  0.10236052714E+01 0.  0.
     999903    2    3    3    0    0 -0.34220154219E-01 -0.12906632934E+00 -0.10487542036E-01  0.13534991205E+00  0.19505738380E-01 0.  0.
         14    1    1    2    0    0 -0.75396562458E-02  0.14164326566E-01  0.12149751353E-01  0.20126873113E-01  0.00000000000E+00 0.  1.
     999901    1    3    3    0    0  0.41759810464E-01  0.11490200278E+00 -0.16622093179E-02  0.88845321484E+00  0.88000000000E+00 0. -1.
        -11    1    4    4    0    0 -0.13413286011E-01 -0.64493002918E-01 -0.14258469002E-01  0.67400509837E-01  0.51100000000E-03 0.  1.
         11    1    4    4    0    0 -0.20806868208E-01 -0.64573326424E-01  0.37709269668E-02  0.67949402214E-01  0.51100000000E-03 0. -1.
</event>
<event>
 8    1  0.1095698E+005  0.1043930E+01  0.7957747E-01            NaN
         13   -1    0    0    0    0  0.00000000000E+00  0.00000000000E+00  0.74505805969E-08  0.10566000000E+00  0.10566000000E+00 0.  1.
     999900   -1    0    0    0    0 -0.00000000000E+00 -0.00000000000E+00 -0.74505805969E-08  0.93827000000E+00  0.93827000000E+00 0.  1.
     999902    2    1    2    0    0 -0.23467020967E-01 -0.11150169051E-01 -0.11342988969E-01  0.10155805601E+01  0.10151848026E+01 0.  0.
     999903    2    3    3    0    0 -0.18314740522E-01 -0.12497594893E+00  0.64025683420E-02  0.12805717509E+00  0.20080579688E-01 0.  0.
         14    1    1    2    0    0  0.23467020967E-01  0.11150169051E-01  0.11342988969E-01  0.28349439883E-01  0.00000000000E+00 0.  1.
     999901    1    3    3    0    0 -0.51522804449E-02  0.11382577988E+00 -0.17745557311E-01  0.88752338502E+00  0.88000000000E+00 0.  1.
        -11    1    4    4    0    0 -0.71371825902E-02 -0.58887532760E-01 -0.69011620616E-02  0.59720750570E-01  0.51100000000E-03 0. -1.
         11    1    4    4    0    0 -0.11177557931E-01 -0.66088416169E-01  0.13303730404E-01  0.68336424524E-01  0.51100000000E-03 0.  1.
</event>
<event>
 8    1  0.1095698E+005  0.1043930E+01  0.7957747E-01            NaN
         13   -1    0    0    0    0  0.00000000000E+00  0.00000000000E+00  0.74505805969E-08  0.10566000000E+00  0.10566000000E+00 0. -1.
     999900   -1    0    0    0    0 -0.00000000000E+00 -0.00000000000E+00 -0.74505805969E-08  0.93827000000E+00  0.93827000000E+00 0.  1.
     999902    2    1    2    0    0  0.72647583721E-02 -0.21147697724E-01 -0.52476431413E-02  0.10209617699E+01  0.10207033830E+01 0.  0.
     999903    2    3    3    0    0  0.55426707794E-01 -0.11388377929E+00  0.37962496183E-01  0.13372636131E+00  0.19998836758E-01 0.  0.
         14    1    1    2    0    0 -0.72647583721E-02  0.21147697724E-01  0.52476431413E-02  0.22968230053E-01  0.00000000000E+00 0. -1.
     999901    1    3    3    0    0 -0.48161949422E-01  0.92736081564E-01 -0.43210139324E-01  0.88723540864E+00  0.88000000000E+00 0. -1.
        -11    1    4    4    0    0  0.29246629556E-01 -0.42876393753E-01  0.89262535206E-02  0.52665829573E-01  0.51100000000E-03 0.  1.
         11    1    4    4    0    0  0.26180078238E-01 -0.71007385534E-01  0.29036242662E-01  0.81060531739E-01  0.51100000000E-03 0. -1.
</event>
<event>
 8    1  0.1095698E+005  0.1043930E+01  0.7957747E-01            NaN
         13   -1    0    0    0    0  0.00000000000E+00  0.00000000000E+00  0.74505805969E-08  0.10566000000E+00  0.10566000000E+00 0. -1.
     999900   -1    0    0    0    0 -0.00000000000E+00 -0.00000000000E+00 -0.74505805969E-08  0.93827000000E+00  0.93827000000E+00 0.  1.
     999902    2    1    2    0    0  0.18849651354E-01  0.63580818397E-02  0.12952516727E-01  0.10201917977E+01  0.10199155856E+01 0.  0.
     999903    2    3    3    0    0  0.73671402978E-01 -0.10170045695E+00 -0.30831794885E-01  0.13081047438E+00  0.19756570322E-01 0.  0.
         14    1    1    2    0    0 -0.18849651354E-01 -0.63580818397E-02 -0.12952516727E-01  0.23738202341E-01  0.00000000000E+00 0.  1.
     999901    1    3    3    0    0 -0.54821751624E-01  0.10805853879E+00  0.43784311612E-01  0.88938132328E+00  0.88000000000E+00 0. -1.
        -11    1    4    4    0    0  0.25356866724E-01 -0.51354946211E-01 -0.11755842043E-01  0.58470181576E-01  0.51100000000E-03 0.  1.
         11    1    4    4    0    0  0.48314536254E-01 -0.50345510738E-01 -0.19075952842E-01  0.72340292802E-01  0.51100000000E-03 0. -1.
</event>
<event>
 8    1  0.1095698E+005  0.1043930E+01  0.7957747E-01            NaN
         13   -1    0    0    0    0  0.00000000000E+00  0.00000000000E+00  0.74505805969E-08  0.10566000000E+00  0.10566000000E+00 0.  1.
     999900   -1    0    0    0    0 -0.00000000000E+00 -0.00000000000E+00 -0.74505805969E-08  0.93827000000E+00  0.93827000000E+00 0. -1.
     999902    2    1    2    0    0  0.31606572633E-02 -0.12198599561E-01  0.17947534391E-01  0.10220003494E+01  0.10217650437E+01 0.  0.
     999903    2    3    3    0    0 -0.13192332111E-01  0.11674899268E+00  0.55735094386E-01  0.13165052965E+00  0.20520630869E-01 0.  0.
         14    1    1    2    0    0 -0.31606572633E-02  0.12198599561E-01 -0.17947534391E-01  0.21929650620E-01  0.00000000000E+00 0.  1.
     999901    1    3    3    0    0  0.16352989374E-01 -0.12894759224E+00 -0.37787559995E-01  0.89034981973E+00  0.88000000000E+00 0.  1.
        -11    1    4    4    0    0  0.13919481197E-02  0.30458490424E-01  0.63030995996E-02  0.31139160939E-01  0.51100000000E-03 0.  1.
         11    1    4    4    0    0 -0.14584280230E-01  0.86290502260E-01  0.49431994787E-01  0.10051136871E+00  0.51100000000E-03 0. -1.
</event>
<event>
 8    1  0.1095698E+005  0.1043930E+01  0.7957747E-01            NaN
         13   -1    0    0    0    0  0.00000000000E+00  0.00000000000E+00  0.74505805969E-08  0.10566000000E+00  0.10566000000E+00 0. -1.
     999900   -1    0    0    0    0 -0.00000000000E+00 -0.00000000000E+00 -0.74505805969E-08  0.93827000000E+00  0.93827000000E+00 0.  1.
     999902    2    1    2    0    0 -0.75501179117E-02  0.51491596156E-02  0.32559606263E-01  0.10101121632E+01  0.10095459059E+01 0.  0.
     999903    2    3    3    0    0  0.93996928719E-01 -0.70572070089E-01 -0.17131669021E-01  0.11965456728E+00  0.14418103285E-01 0.  0.
         14    1    1    2    0    0  0.75501179117E-02 -0.51491596156E-02 -0.32559606263E-01  0.33817836791E-01  0.00000000000E+00 0.  1.
     999901    1    3    3    0    0 -0.10154704663E+00  0.75721229704E-01  0.49691275284E-01  0.89045759593E+00  0.88000000000E+00 0.  1.
        -11    1    4    4    0    0  0.37598843502E-01 -0.22187000438E-01 -0.13195980863E-02  0.43679955142E-01  0.51100000000E-03 0. -1.
         11    1    4    4    0    0  0.56398085217E-01 -0.48385069651E-01 -0.15812070935E-01  0.75974612138E-01  0.51100000000E-03 0.  1.
</event>
<event>
 8    1  0.1095698E+005  0.1043930E+01  0.7957747E-01            NaN
         13   -1    0    0    0    0  0.00000000000E+00  0.00000000000E+00  0.74505805969E-08  0.10566000000E+00  0.10566000000E+00 0.  1.
     999900   -1    0    0    0    0 -0.00000000000E+00 -0.00000000000E+00 -0.74505805969E-08  0.93827000000E+00  0.93827000000E+00 0. -1.
     999902    2    1    2    0    0 -0.30946839825E-02 -0.21277845543E-01  0.11449313603E-01  0.10195699803E+01  0.10192789285E+01 0.  0.
     999903    2    3    3    0    0 -0.12763350893E+00 -0.19689271516E-01 -0.14372219408E-02  0.13070637695E+00  0.20102521102E-01 0.  0.
         14    1    1    2    0    0  0.30946839825E-02  0.21277845543E-01 -0.11449313603E-01  0.24360019743E-01  0.00000000000E+00 0. -1.
     999901    1    3    3    0    0  0.12453882494E+00 -0.15885740265E-02  0.12886535544E-01  0.88886360331E+00  0.88000000000E+00 0.  1.
        -11    1    4    4    0    0 -0.73720952327E-01 -0.10446823208E-01  0.90549348160E-02  0.75007785547E-01  0.51100000000E-03 0.  1.
         11    1    4    4    0    0 -0.53912556599E-01 -0.92424483084E-02 -0.10492156757E-01  0.55698591402E-01  0.51100000000E-03 0. -1.
</event>
<event>
 8    1  0.1239042E+005  0.1043930E+01  0.7957747E-01            NaN
         13   -1    0    0    0    0  0.00000000000E+00  0.00000000000E+00  0.74505805969E-08  0.10566000000E+00  0.10566000000E+00 0.  1.
     999900   -1    0    0    0    0 -0.00000000000E+00 -0.00000000000E+00 -0.74505805969E-08  0.93827000000E+00  0.93827000000E+00 0.  1.
     999902    2    1    2    0    0  0.87055481320E-02 -0.39235996465E-02  0.21494486991E-01  0.10204099198E+01  0.10201388191E+01 0.  0.
     999903    2    3    3    0    0 -0.44803820776E-01  0.10307405489E+00 -0.59932564223E-01  0.12859036667E+00  0.17661455183E-01 0.  0.
         14    1    1    2    0    0 -0.87055481320E-02  0.39235996465E-02 -0.21494486991E-01  0.23520080218E-01  0.00000000000E+00 0. -1.
     999901    1    3    3    0    0  0.53509368908E-01 -0.10699765454E+00  0.81427051214E-01  0.89181955311E+00  0.88000000000E+00 0.  1.
        -11    1    4    4    0    0 -0.12088401418E-01  0.49225051855E-01 -0.28956998476E-01  0.58378112857E-01  0.51100000000E-03 0.  1.
         11    1    4    4    0    0 -0.32715419358E-01  0.53849003035E-01 -0.30975565747E-01  0.70212253816E-01  0.51100000000E-03 0. -1.
</event>
<event>
 8    1  0.1095698E+005  0.1043930E+01  0.7957747E-01            NaN
         13   -1    0    0    0    0  0.00000000000E+00  0.00000000000E+00  0.74505805969E-08  0.10566000000E+00  0.10566000000E+00 0. -1.
     999900   -1    0    0    0    0 -0.00000000000E+00 -0.00000000000E+00 -0.74505805969E-08  0.93827000000E+00  0.93827000000E+00 0. -1.
     999902    2    1    2    0    0 -0.12367637835E-01  0.85603321438E-02 -0.17662605792E-01  0.10207307458E+01  0.10204670744E+01 0.  0.
     999903    2    3    3    0    0 -0.10687652294E+00  0.19711667621E-01  0.70804522346E-01  0.13119001351E+00  0.19657015659E-01 0.  0.
         14    1    1    2    0    0  0.12367637835E-01 -0.85603321438E-02  0.17662605792E-01  0.23199254199E-01  0.00000000000E+00 0. -1.
     999901    1    3    3    0    0  0.94508885100E-01 -0.11151335477E-01 -0.88467128138E-01  0.88954073229E+00  0.88000000000E+00 0. -1.
        -11    1    4    4    0    0 -0.43013186367E-01 -0.17935269952E-02  0.27612569384E-01  0.51147493091E-01  0.51100000000E-03 0.  1.
         11    1    4    4    0    0 -0.63863336568E-01  0.21505194616E-01  0.43191952962E-01  0.80042520418E-01  0.51100000000E-03 0. -1.
</event>
<event>
 8    1  0.1095698E+005  0.1043930E+01  0.7957747E-01            NaN
         13   -1    0    0    0    0  0.00000000000E+00  0.00000000000E+00  0.74505805969E-08  0.10566000000E+00  0.10566000000E+00 0.  1.
     999900   -1    0    0    0    0 -0.00000000000E+00 -0.00000000000E+00 -0.74505805969E-08  0.93827000000E+00  0.93827000000E+00 0.  1.
     999902    2    1    2    0    0 -0.16039345644E-01 -0.11492565826E-01 -0.12874691419E-01  0.10203694958E+01  0.10200974515E+01 0.  0.
     999903    2    3    3    0    0  0.10301884315E+00  0.71877211329E-01  0.16463857821E-01  0.12796481042E+00  0.18019948342E-01 0.  0.
         14    1    1    2    0    0  0.16039345644E-01  0.11492565826E-01  0.12874691419E-01  0.23560504177E-01  0.00000000000E+00 0.  1.
     999901    1    3    3    0    0 -0.11905818880E+00 -0.83369777154E-01 -0.29338549240E-01  0.89240468541E+00  0.88000000000E+00 0.  1.
        -11    1    4    4    0    0  0.73414935305E-01  0.60575477886E-01  0.11177409495E-01  0.95834945875E-01  0.51100000000E-03 0. -1.
         11    1    4    4    0    0  0.29603907847E-01  0.11301733443E-01  0.52864483260E-02  0.32129864542E-01  0.51100000000E-03 0.  1.
</event>
<event>
 8    1  0.1095698E+005  0.1043930E+01  0.7957747E-01            NaN
         13   -1    0    0    0    0  0.00000000000E+00  0.00000000000E+00  0.74505805969E-08  0.10566000000E+00  0.10566000000E+00 0. -1.
     999900   -1    0    0    0    0 -0.00000000000E+00 -0.00000000000E+00 -0.74505805969E-08  0.93827000000E+00  0.93827000000E+00 0.  1.
     999902    2    1    2    0    0  0.66252220682E-02  0.16224849411E-01 -0.19392904367E-01  0.10177914452E+01  0.10174557494E+01 0.  0.
     999903    2    3    3    0    0 -0.78737968824E-01  0.17185005987E-02  0.96267787556E-01  0.12600968708E+00  0.20207259517E-01 0.  0.
         14    1    1    2    0    0 -0.66252220682E-02 -0.16224849411E-01  0.19392904367E-01  0.26138554773E-01  0.00000000000E+00 0. -1.
     999901    1    3    3    0    0  0.85363190892E-01  0.14506348812E-01 -0.11566069192E+00  0.89178175815E+00  0.88000000000E+00 0.  1.
        -11    1    4    4    0    0 -0.24785798458E-01 -0.54567866289E-04  0.16827131519E-01  0.29962514231E-01  0.51100000000E-03 0.  1.
         11    1    4    4    0    0 -0.53952170365E-01  0.17730684650E-02  0.79440656037E-01  0.96047172845E-01  0.51100000000E-03 0. -1.
</event>
<event>
 8    1  0.1095698E+005  0.1043930E+01  0.7957747E-01            NaN
         13   -1    0    0    0    0  0.00000000000E+00  0.00000000000E+00  0.74505805969E-08  0.10566000000E+00  0.10566000000E+00 0.  1.
     999900   -1    0    0    0    0 -0.00000000000E+00 -0.00000000000E+00 -0.74505805969E-08  0.93827000000E+00  0.93827000000E+00 0.  1.
     999902    2    1    2    0    0 -0.93727678340E-02  0.46271243431E-02  0.21329041786E-01  0.10201773774E+01  0.10199008257E+01 0.  0.
     999903    2    3    3    0    0  0.31313039512E-01  0.10722540904E+00  0.67605714481E-01  0.13207644093E+00  0.19896201394E-01 0.  0.
         14    1    1    2    0    0  0.93727678340E-02 -0.46271243431E-02 -0.21329041786E-01  0.23752622594E-01  0.00000000000E+00 0. -1.
     999901    1    3    3    0    0 -0.40685807346E-01 -0.10259828470E+00 -0.46276672695E-01  0.88810093648E+00  0.88000000000E+00 0.  1.
        -11    1    4    4    0    0  0.27723880418E-01  0.62655607572E-01  0.44970250945E-01  0.81956838011E-01  0.51100000000E-03 0. -1.
         11    1    4    4    0    0  0.35891590932E-02  0.44569801467E-01  0.22635463536E-01  0.50119602914E-01  0.51100000000E-03 0.  1.
</event>
<event>
 8    1  0.1095698E+005  0.1043930E+01  0.7957747E-01            NaN
         13   -1    0    0    0    0  0.00000000000E+00  0.00000000000E+00  0.74505805969E-08  0.10566000000E+00  0.10566000000E+00 0. -1.
     999900   -1    0    0    0    0 -0.00000000000E+00 -0.00000000000E+00 -0.74505805969E-08  0.93827000000E+00  0.93827000000E+00 0.  1.
     999902    2    1    2    0    0 -0.10067851386E-01  0.29147800433E-03 -0.22601139594E-01  0.10191861502E+01  0.10188857398E+01 0.  0.
     999903    2    3    3    0    0 -0.18133483013E-01 -0.12600989110E+00  0.11736117928E-01  0.12946926407E+00  0.20426404834E-01 0.  0.
         14    1    1    2    0    0  0.10067851386E-01 -0.29147800433E-03  0.22601139594E-01  0.24743849779E-01  0.00000000000E+00 0. -1.
     999901    1    3    3    0    0  0.80656316274E-02  0.12630136910E+00 -0.34337257522E-01  0.88971688615E+00  0.88000000000E+00 0.  1.
        -11    1    4    4    0    0  0.16800071174E-02 -0.58891544262E-01  0.38641650036E-02  0.59044299485E-01  0.51100000000E-03 0. -1.
         11    1    4    4    0    0 -0.19813490131E-01 -0.67118346833E-01  0.78719529243E-02  0.70424964583E-01  0.51100000000E-03 0.  1.
</event>
<event>
 8    1  0.1095698E+005  0.1043930E+01  0.7957747E-01            NaN
         13   -1    0    0    0    0  0.00000000000E+00  0.00000000000E+00  0.74505805969E-08  0.10566000000E+00  0.10566000000E+00 0.  1.
     999900   -1    0    0    0    0 -0.00000000000E+00 -0.00000000000E+00 -0.74505805969E-08  0.93827000000E+00  0.93827000000E+00 0. -1.
     999902    2    1    2    0    0  0.16708232895E-01  0.14450355181E-01 -0.78012490588E-02  0.10205027232E+01  0.10202337824E+01 0.  0.
     999903    2    3    3    0    0  0.58425055872E-01  0.61610361716E-01 -0.10097412300E+00  0.13334684965E+00  0.19398066210E-01 0.  0.
         14    1    1    2    0    0 -0.16708232895E-01 -0.14450355181E-01  0.78012490588E-02  0.23427276798E-01  0.00000000000E+00 0. -1.
     999901    1    3    3    0    0 -0.41716822977E-01 -0.47160006535E-01  0.93172873939E-01  0.88715587355E+00  0.88000000000E+00 0.  1.
        -11    1    4    4    0    0  0.40786099781E-01  0.29141190178E-01 -0.59181545390E-01  0.77559211807E-01  0.51100000000E-03 0.  1.
         11    1    4    4    0    0  0.17638956091E-01  0.32469171537E-01 -0.41792577607E-01  0.55787637845E-01  0.51100000000E-03 0. -1.
</event>
<event>
 8    1  0.1095698E+005  0.1043930E+01  0.7957747E-01            NaN
         13   -1    0    0    0    0  0.00000000000E+00  0.00000000000E+00  0.74505805969E-08  0.10566000000E+00  0.10566000000E+00 0. -1.
     999900   -1    0    0    0    0 -0.00000000000E+00 -0.00000000000E+00 -0.74505805969E-08  0.93827000000E+00  0.93827000000E+00 0.  1.
     999902    2    1    2    0    0 -0.86575134548E-02  0.54646996886E-02  0.21364546584E-01  0.10202390876E+01  0.10199639878E+01 0.  0.
     999903    2    3    3    0    0 -0.10433368719E+00 -0.60466274613E-01 -0.44782518830E-01  0.13014007179E+00  0.19730069549E-01 0.  0.
         14    1    1    2    0    0  0.86575134548E-02 -0.54646996886E-02 -0.21364546584E-01  0.23690912449E-01  0.00000000000E+00 0.  1.
     999901    1    3    3    0    0  0.95676173737E-01  0.65930974302E-01  0.66147065414E-01  0.89009901576E+00  0.88000000000E+00 0. -1.
        -11    1    4    4    0    0 -0.89869906801E-01 -0.56263062872E-01 -0.44704553197E-01  0.11506906878E+00  0.51100000000E-03 0.  1.
         11    1    4    4    0    0 -0.14463780392E-01 -0.42032117412E-02 -0.77965632325E-04  0.15071003012E-01  0.51100000000E-03 0. -1.
</event>
<event>
 8    1  0.1095698E+005  0.1043930E+01  0.7957747E-01            NaN
         13   -1    0    0    0    0  0.00000000000E+00  0.00000000000E+00  0.74505805969E-08  0.10566000000E+00  0.10566000000E+00 0.  1.
     999900   -1    0    0    0    0 -0.00000000000E+00 -0.00000000000E+00 -0.74505805969E-08  0.93827000000E+00  0.93827000000E+00 0.  1.
     999902    2    1    2    0    0  0.12026554537E-01  0.19324230770E-01  0.79205398244E-02  0.10198302311E+01  0.10195454386E+01 0.  0.
     999903    2    3    3    0    0  0.31655212486E-01 -0.44005054193E-01  0.11714567006E+00  0.13060246973E+00  0.19884662810E-01 0.  0.
         14    1    1    2    0    0 -0.12026554537E-01 -0.19324230770E-01 -0.79205398244E-02  0.24099768879E-01  0.00000000000E+00 0.  1.
     999901    1    3    3    0    0 -0.19628657949E-01  0.63329284964E-01 -0.10922513023E+00  0.88922776139E+00  0.88000000000E+00 0. -1.
        -11    1    4    4    0    0  0.30992091454E-01 -0.29111318894E-01  0.92263879775E-01  0.10159164952E+00  0.51100000000E-03 0.  1.
         11    1    4    4    0    0  0.66312103159E-03 -0.14893735299E-01  0.24881790284E-01  0.29010820212E-01  0.51100000000E-03 0. -1.
</event>
<event>
 8    1  0.1095698E+005  0.1043930E+01  0.7957747E-01            NaN
         13   -1    0    0    0    0  0.00000000000E+00  0.00000000000E+00  0.74505805969E-08  0.10566000000E+00  0.10566000000E+00 0. -1.
     999900   -1    0    0    0    0 -0.00000000000E+00 -0.00000000000E+00 -0.74505805969E-08  0.93827000000E+00  0.93827000000E+00 0.  1.
     999902    2    1    2    0    0  0.15812666074E-01 -0.14050714675E-02  0.58297199018E-02  0.10270184575E+01  0.10268792100E+01 0.  0.
     999903    2    3    3    0    0 -0.21946075166E-01  0.20475893281E-01  0.13203213803E+00  0.13694455640E+00  0.20504478357E-01 0.  0.
         14    1    1    2    0    0 -0.15812666074E-01  0.14050714675E-02 -0.58297199018E-02  0.16911542459E-01  0.00000000000E+00 0.  1.
     999901    1    3    3    0    0  0.37758741240E-01 -0.21880964748E-01 -0.12620241813E+00  0.89007390115E+00  0.88000000000E+00 0.  1.
        -11    1    4    4    0    0 -0.17366329186E-02  0.12301065942E-01  0.27769104791E-01  0.30425588229E-01  0.51100000000E-03 0. -1.
         11    1    4    4    0    0 -0.20209442247E-01  0.81748273390E-02  0.10426303324E+00  0.10651896817E+00  0.51100000000E-03 0.  1.
</event>
<event>
 8    1  0.1095698E+005  0.1043930E+01  0.7957747E-01            NaN
         13   -1    0    0    0    0  0.00000000000E+00  0.00000000000E+00  0.74505805969E-08  0.10566000000E+00  0.10566000000E+00 0. -1.
     999900   -1    0    0    0    0 -0.00000000000E+00 -0.00000000000E+00 -0.74505805969E-08  0.93827000000E+00  0.93827000000E+00 0. -1.
     999902    2    1    2    0    0 -0.68941710027E-02  0.19198812232E-01  0.70027664733E-02  0.10223623686E+01  0.10221348493E+01 0.  0.
     999903    2    3    3    0    0 -0.88175674511E-02 -0.10787004484E+00 -0.69368098910E-01  0.12995959915E+00  0.19075329455E-01 0.  0.
         14    1    1    2    0    0  0.68941710027E-02 -0.19198812232E-01 -0.70027664733E-02  0.21567631377E-01  0.00000000000E+00 0.  1.
     999901    1    3    3    0    0  0.19233964484E-02  0.12706885707E+00  0.76370865383E-01  0.89240276948E+00  0.88000000000E+00 0.  1.
        -11    1    4    4    0    0  0.45230585139E-02 -0.60203070515E-01 -0.39403515838E-01  0.72095533420E-01  0.51100000000E-03 0. -1.
         11    1    4    4    0    0 -0.13340625965E-01 -0.47666974326E-01 -0.29964583072E-01  0.57864065725E-01  0.51100000000E-03 0.  1.
</event>
<event>
 8    1  0.1095698E+005  0.1043930E+01  0.7957747E-01            NaN
         13   -1    0    0    0    0  0.00000000000E+00  0.00000000000E+00  0.74505805969E-08  0.10566000000E+00  0.10566000000E+00 0.  1.
     999900   -1    0    0    0    0 -0.00000000000E+00 -0.00000000000E+00 -0.74505805969E-08  0.93827000000E+00  0.93827000000E+00 0. -1.
     999902    2    1    2    0    0  0.10859094141E-01  0.12638472761E-01  0.13739034713E-01  0.10223334263E+01  0.10221052894E+01 0.  0.
     999903    2    3    3    0    0  0.84539279094E-01  0.10080412718E+00  0.22318569549E-01  0.13482254714E+00  0.19251984410E-01 0.  0.
         14    1    1    2    0    0 -0.10859094141E-01 -0.12638472761E-01 -0.13739034713E-01  0.21596573667E-01  0.00000000000E+00 0. -1.
     999901    1    3    3    0    0 -0.73680184953E-01 -0.88165654418E-01 -0.85795348364E-02  0.88751087920E+00  0.88000000000E+00 0.  1.
        -11    1    4    4    0    0  0.64627871839E-01  0.86951028700E-01  0.14351708301E-01  0.10928621076E+00  0.51100000000E-03 0. -1.
         11    1    4    4    0    0  0.19911407255E-01  0.13853098480E-01  0.79668612487E-02  0.25536336376E-01  0.51100000000E-03 0.  1.
</event>
<event>
 8    1  0.1109574E+005  0.1043930E+01  0.7957747E-01            NaN
         13   -1    0    0    0    0  0.00000000000E+00  0.00000000000E+00  0.74505805969E-08  0.10566000000E+00  0.10566000000E+00 0. -1.
     999900   -1    0    0    0    0 -0.00000000000E+00 -0.00000000000E+00 -0.74505805969E-08  0.93827000000E+00  0.93827000000E+00 0.  1.
     999902    2    1    2    0    0 -0.22490789272E-02  0.23067617862E-01  0.16345931461E-02  0.10206954300E+01  0.10204309460E+01 0.  0.
     999903    2    3    3    0    0 -0.11957491826E+00 -0.32152311856E-01  0.36044103474E-01  0.13052768869E+00  0.20158568525E-01 0.  0.
         14    1    1    2    0    0  0.22490789272E-02 -0.23067617862E-01 -0.16345931461E-02  0.23234570033E-01  0.00000000000E+00 0.  1.
     999901    1    3    3    0    0  0.11732583933E+00  0.55219929718E-01 -0.34409510328E-01  0.89016774128E+00  0.88000000000E+00 0.  1.
        -11    1    4    4    0    0 -0.69023333967E-01 -0.28338994072E-01  0.18445991074E-01  0.76862441574E-01  0.51100000000E-03 0. -1.
         11    1    4    4    0    0 -0.50551584290E-01 -0.38133177841E-02  0.17598112400E-01  0.53665247114E-01  0.51100000000E-03 0.  1.
</event>
<event>
 8    1  0.1095698E+005  0.1043930E+01  0.7957747E-01            NaN
         13   -1    0    0    0    0  0.00000000000E+00  0.00000000000E+00  0.74505805969E-08  0.10566000000E+00  0.10566000000E+00 0. -1.
     999900   -1    0    0    0    0 -0.00000000000E+00 -0.00000000000E+00 -0.74505805969E-08  0.93827000000E+00  0.93827000000E+00 0.  1.
     999902    2    1    2    0    0  0.57961672307E-02 -0.21288007444E-01 -0.78663951118E-02  0.10205066145E+01  0.10202377641E+01 0.  0.
     999903    2    3    3    0    0 -0.32650354777E-01 -0.55519985174E-01 -0.11414845116E+00  0.13261819878E+00  0.20228774663E-01 0.  0.
         14    1    1    2    0    0 -0.57961672307E-02  0.21288007444E-01  0.78663951118E-02  0.23423385485E-01  0.00000000000E+00 0.  1.
     999901    1    3    3    0    0  0.38446522008E-01  0.34231977730E-01  0.10628205605E+00  0.88788841573E+00  0.88000000000E+00 0. -1.
        -11    1    4    4    0    0 -0.19809857411E-01 -0.23479498141E-01 -0.36966225129E-01  0.48067454737E-01  0.51100000000E-03 0. -1.
         11    1    4    4    0    0 -0.12840497366E-01 -0.32040487033E-01 -0.77182226035E-01  0.84550744046E-01  0.51100000000E-03 0.  1.
</event>
<event>
 8    1  0.1095698E+005  0.1043930E+01  0.7957747E-01            NaN
         13   -1    0    0    0    0  0.00000000000E+00  0.00000000000E+00  0.74505805969E-08  0.10566000000E+00  0.10566000000E+00 0. -1.
     999900   -1    0    0    0    0 -0.00000000000E+00 -0.00000000000E+00 -0.74505805969E-08  0.93827000000E+00  0.93827000000E+00 0.  1.
     999902    2    1    2    0    0  0.19844861429E-01 -0.72522290177E-02  0.12494468862E-01  0.10193836132E+01  0.10190880364E+01 0.  0.
     999903    2    3    3    0    0  0.37456919994E-01 -0.18972753792E-01  0.12373101793E+00  0.13212878786E+00  0.19638369109E-01 0.  0.
         14    1    1    2    0    0 -0.19844861429E-01  0.72522290177E-02 -0.12494468862E-01  0.24546386761E-01  0.00000000000E+00 0.  1.
     999901    1    3    3    0    0 -0.17612058565E-01  0.11720524774E-01 -0.11123654907E+00  0.88725482538E+00  0.88000000000E+00 0.  1.
        -11    1    4    4    0    0  0.13907934877E-01 -0.64994146041E-02  0.75274502154E-01  0.76825678248E-01  0.51100000000E-03 0. -1.
         11    1    4    4    0    0  0.23548985117E-01 -0.12473339188E-01  0.48456515778E-01  0.55303109613E-01  0.51100000000E-03 0.  1.
</event>
<event>
 7    1  0.1095698E+005  0.1043930E+01  0.7957747E-01            NaN
         13   -1    0    0    0    0  0.00000000000E+00  0.00000000000E+00  0.74505805969E-08  0.10566000000E+00  0.10566000000E+00 0.  1.
     999900   -1    0    0    0    0 -0.00000000000E+00 -0.00000000000E+00 -0.74505805969E-08  0.93827000000E+00  0.93827000000E+00 0.  1.
     999902    2    1    2    0    0  0.33200166158E-02 -0.21203745847E-01  0.15340428384E-02  0.10224131546E+01  0.10221867168E+01 0.  0.
         14    1    1    2    0    0 -0.33200166158E-02  0.21203745847E-01 -0.15340428384E-02  0.21516845394E-01  0.00000000000E+00 0.  1.
     999901    1    3    3    0    0 -0.53682551590E-01 -0.12153259490E+00  0.45088304732E-01  0.89111443889E+00  0.88000000000E+00 0.  1.
        -11    1    3    3    0    0  0.20308774997E-01  0.77432167705E-01 -0.22279324911E-01  0.83095224754E-01  0.51100000000E-03 0.  1.
         11    1    3    3    0    0  0.36693793209E-01  0.22896681347E-01 -0.21274936983E-01  0.48203490966E-01  0.51100000000E-03 0. -1.
</event>
<event>
 8    1  0.1095698E+005  0.1043930E+01  0.7957747E-01            NaN
         13   -1    0    0    0    0  0.00000000000E+00  0.00000000000E+00  0.74505805969E-08  0.10566000000E+00  0.10566000000E+00 0.  1.
     999900   -1    0    0    0    0 -0.00000000000E+00 -0.00000000000E+00 -0.74505805969E-08  0.93827000000E+00  0.93827000000E+00 0.  1.
     999902    2    1    2    0    0  0.26292255644E-02 -0.19859900475E-01 -0.12330209608E-01  0.10204063408E+01  0.10201351566E+01 0.  0.
     999903    2    3    3    0    0  0.61359593905E-01  0.52631608185E-01  0.97620480816E-01  0.12867015260E+00  0.22162218996E-01 0.  0.
         14    1    1    2    0    0 -0.26292255644E-02  0.19859900475E-01  0.12330209608E-01  0.23523659216E-01  0.00000000000E+00 0.  1.
     999901    1    3    3    0    0 -0.58730368341E-01 -0.72491508660E-01 -0.10995069042E+00  0.89173618818E+00  0.88000000000E+00 0.  1.
        -11    1    4    4    0    0  0.28372214747E-01  0.38166397339E-01  0.50690959781E-01  0.69508927341E-01  0.51100000000E-03 0. -1.
         11    1    4    4    0    0  0.32987379158E-01  0.14465210846E-01  0.46929521035E-01  0.59161225258E-01  0.51100000000E-03 0.  1.
</event>
<event>
 8    1  0.1095698E+005  0.1043930E+01  0.7957747E-01            NaN
         13   -1    0    0    0    0  0.00000000000E+00  0.00000000000E+00  0.74505805969E-08  0.10566000000E+00  0.10566000000E+00 0. -1.
     999900   -1    0    0    0    0 -0.00000000000E+00 -0.00000000000E+00 -0.74505805969E-08  0.93827000000E+00  0.93827000000E+00 0.  1.
     999902    2    1    2    0    0 -0.92110918045E-02  0.21535039274E-01 -0.77617864373E-02  0.10192551655E+01  0.10189564490E+01 0.  0.
     999903    2    3    3    0    0  0.69947739034E-01  0.11590728526E-01  0.10557489444E+00  0.12840713523E+00  0.17756769313E-01 0.  0.
         14    1    1    2    0    0  0.92110918045E-02 -0.21535039274E-01  0.77617864373E-02  0.24674834497E-01  0.00000000000E+00 0. -1.
     999901    1    3    3    0    0 -0.79158830839E-01  0.99443107481E-02 -0.11333668088E+00  0.89084803028E+00  0.88000000000E+00 0.  1.
        -11    1    4    4    0    0  0.24602670318E-01 -0.57637052874E-03  0.49413146250E-01  0.55204562611E-01  0.51100000000E-03 0.  1.
         11    1    4    4    0    0  0.45345068716E-01  0.12167099055E-01  0.56161748193E-01  0.73202572614E-01  0.51100000000E-03 0. -1.
</event>
<event>
 8    1  0.1095698E+005  0.1043930E+01  0.7957747E-01            NaN
         13   -1    0    0    0    0  0.00000000000E+00  0.00000000000E+00  0.74505805969E-08  0.10566000000E+00  0.10566000000E+00 0.  1.
     999900   -1    0    0    0    0 -0.00000000000E+00 -0.00000000000E+00 -0.74505805969E-08  0.93827000000E+00  0.93827000000E+00 0.  1.
     999902    2    1    2    0    0 -0.78689634511E-02  0.18894932504E-01  0.13333309799E-01  0.10195022246E+01  0.10192095318E+01 0.  0.
     999903    2    3    3    0    0  0.21065549631E-02 -0.45876136120E-01  0.12038583298E+00  0.13059556752E+00  0.21293098279E-01 0.  0.
         14    1    1    2    0    0  0.78689634511E-02 -0.18894932504E-01 -0.13333309799E-01  0.24427775387E-01  0.00000000000E+00 0. -1.
     999901    1    3    3    0    0 -0.99755184142E-02  0.64771068625E-01 -0.10705252319E+00  0.88890665709E+00  0.88000000000E+00 0. -1.
        -11    1    4    4    0    0 -0.89160156283E-02 -0.24065389225E-01  0.70865500418E-01  0.75371205136E-01  0.51100000000E-03 0.  1.
         11    1    4    4    0    0  0.11022570591E-01 -0.21810746895E-01  0.49520332567E-01  0.55224362387E-01  0.51100000000E-03 0. -1.
</event>
<event>
 8    1  0.1095698E+005  0.1043930E+01  0.7957747E-01            NaN
         13   -1    0    0    0    0  0.00000000000E+00  0.00000000000E+00  0.74505805969E-08  0.10566000000E+00  0.10566000000E+00 0. -1.
     999900   -1    0    0    0    0 -0.00000000000E+00 -0.00000000000E+00 -0.74505805969E-08  0.93827000000E+00  0.93827000000E+00 0.  1.
     999902    2    1    2    0    0 -0.15035876528E-02  0.82025665306E-03 -0.24318033036E-01  0.10195517243E+01  0.10192602308E+01 0.  0.
     999903    2    3    3    0    0 -0.57119869844E-01 -0.26403545336E-01 -0.11511116384E+00  0.13271594531E+00  0.20077733020E-01 0.  0.
         14    1    1    2    0    0  0.15035876528E-02 -0.82025665306E-03  0.24318033036E-01  0.24378275729E-01  0.00000000000E+00 0. -1.
     999901    1    3    3    0    0  0.55616282191E-01  0.27223801989E-01  0.90793130800E-01  0.88683577896E+00  0.88000000000E+00 0. -1.
        -11    1    4    4    0    0 -0.12867004961E-01 -0.15015820678E-01 -0.43198033803E-01  0.47511745209E-01  0.51100000000E-03 0.  1.
         11    1    4    4    0    0 -0.44252864883E-01 -0.11387724657E-01 -0.71913130033E-01  0.85204200104E-01  0.51100000000E-03 0. -1.
</event>
<event>
 8    1  0.1095698E+005  0.1043930E+01  0.7957747E-01            NaN
         13   -1    0    0    0    0  0.00000000000E+00  0.00000000000E+00  0.74505805969E-08  0.10566000000E+00  0.10566000000E+00 0. -1.
     999900   -1    0    0    0    0 -0.00000000000E+00 -0.00000000000E+00 -0.74505805969E-08  0.93827000000E+00  0.93827000000E+00 0.  1.
     999902    2    1    2    0    0  0.13489230266E-01  0.18436410053E-01  0.44157728134E-02  0.10206628644E+01  0.10203976299E+01 0.  0.
     999903    2    3    3    0    0  0.63208654779E-01  0.44255434888E-01  0.10643605051E+00  0.13299920048E+00  0.20156312246E-01 0.  0.
         14    1    1    2    0    0 -0.13489230266E-01 -0.18436410053E-01 -0.44157728134E-02  0.23267135585E-01  0.00000000000E+00 0.  1.
     999901    1    3    3    0    0 -0.49719424513E-01 -0.25819024835E-01 -0.10202027769E+00  0.88766366394E+00  0.88000000000E+00 0. -1.
        -11    1    4    4    0    0  0.18948168390E-01  0.21730481488E-01  0.28217632078E-01  0.40345294547E-01  0.51100000000E-03 0.  1.
         11    1    4    4    0    0  0.44260486389E-01  0.22524953400E-01  0.78218418430E-01  0.92653905929E-01  0.51100000000E-03 0. -1.
</event>
<event>
 8    1  0.1095698E+005  0.1043930E+01  0.7957747E-01            NaN
         13   -1    0    0    0    0  0.00000000000E+00  0.00000000000E+00  0.74505805969E-08  0.10566000000E+00  0.10566000000E+00 0. -1.
     999900   -1    0    0    0    0 -0.00000000000E+00 -0.00000000000E+00 -0.74505805969E-08  0.93827000000E+00  0.93827000000E+00 0. -1.
     999902    2    1    2    0    0  0.16282208161E-01  0.11799108596E-01 -0.12955696835E-01  0.10200097294E+01  0.10197292134E+01 0.  0.
     999903    2    3    3    0    0 -0.10788397227E+00  0.65168680325E-01 -0.22914407991E-01  0.12963636529E+00  0.19864761344E-01 0.  0.
         14    1    1    2    0    0 -0.16282208161E-01 -0.11799108596E-01  0.12955696835E-01  0.23920270624E-01  0.00000000000E+00 0. -1.
     999901    1    3    3    0    0  0.12416618043E+00 -0.53369571729E-01  0.99587111557E-02  0.89037336409E+00  0.88000000000E+00 0. -1.
        -11    1    4    4    0    0 -0.89091405516E-01  0.50127367070E-01 -0.11129758225E-01  0.10283075467E+00  0.51100000000E-03 0. -1.
         11    1    4    4    0    0 -0.18792566754E-01  0.15041313255E-01 -0.11784649766E-01  0.26805610620E-01  0.51100000000E-03 0.  1.
</event>
<event>
 8    1  0.1095698E+005  0.1043930E+01  0.7957747E-01            NaN
         13   -1    0    0    0    0  0.00000000000E+00  0.00000000000E+00  0.74505805969E-08  0.10566000000E+00  0.10566000000E+00 0.  1.
     999900   -1    0    0    0    0 -0.00000000000E+00 -0.00000000000E+00 -0.74505805969E-08  0.93827000000E+00  0.93827000000E+00 0.  1.
     999902    2    1    2    0    0  0.82559179929E-02  0.21315337317E-01 -0.97250523708E-02  0.10190888964E+01  0.10187860905E+01 0.  0.
     999903    2    3    3    0    0 -0.31389158009E-01 -0.70108731523E-01  0.98686839639E-01  0.12685393249E+00  0.21267684245E-01 0.  0.
         14    1    1    2    0    0 -0.82559179929E-02 -0.21315337317E-01  0.97250523708E-02  0.24841103648E-01  0.00000000000E+00 0.  1.
     999901    1    3    3    0    0  0.39645076002E-01  0.91424068840E-01 -0.10841189201E+00  0.89223496387E+00  0.88000000000E+00 0.  1.
        -11    1    4    4    0    0 -0.74578685131E-02 -0.42380454206E-01  0.51327972542E-01  0.66981673521E-01  0.51100000000E-03 0.  1.
         11    1    4    4    0    0 -0.23931289496E-01 -0.27728277317E-01  0.47358867097E-01  0.59872258966E-01  0.51100000000E-03 0. -1.
</event>
<event>
 8    1  0.1095698E+005  0.1043930E+01  0.7957747E-01            NaN
         13   -1    0    0    0    0  0.00000000000E+00  0.00000000000E+00  0.74505805969E-08  0.10566000000E+00  0.10566000000E+00 0. -1.
     999900   -1    0    0    0    0 -0.00000000000E+00 -0.00000000000E+00 -0.74505805969E-08  0.93827000000E+00  0.93827000000E+00 0. -1.
     999902    2    1    2    0    0 -0.11682371124E-03 -0.23760285387E-01  0.12280106385E-02  0.10201377151E+01  0.10198602282E+01 0.  0.
     999903    2    3    3    0    0  0.11970665992E+00  0.31718773464E-01 -0.32355504376E-01  0.12965276540E+00  0.20668717762E-01 0.  0.
         14    1    1    2    0    0  0.11682371124E-03  0.23760285387E-01 -0.12280106385E-02  0.23792284875E-01  0.00000000000E+00 0.  1.
     999901    1    3    3    0    0 -0.11982348363E+00 -0.55479058851E-01  0.33583515015E-01  0.89048494972E+00  0.88000000000E+00 0.  1.
        -11    1    4    4    0    0  0.71167116643E-01  0.26945952297E-01 -0.26231834573E-01  0.80493559386E-01  0.51100000000E-03 0. -1.
         11    1    4    4    0    0  0.48539543276E-01  0.47728211671E-02 -0.61236698036E-02  0.49159206017E-01  0.51100000000E-03 0.  1.
</event>
<event>
 8    1  0.1095698E+005  0.1043930E+01  0.7957747E-01            NaN
         13   -1    0    0    0    0  0.00000000000E+00  0.00000000000E+00  0.74505805969E-08  0.10566000000E+00  0.10566000000E+00 0.  1.
     999900   -1    0    0    0    0 -0.00000000000E+00 -0.00000000000E+00 -0.74505805969E-08  0.93827000000E+00  0.93827000000E+00 0. -1.
     999902    2    1    2    0    0 -0.23287657819E-01  0.22678841582E-02  0.31089817131E-03  0.10205301076E+01  0.10202618025E+01 0.  0.
     999903    2    3    3    0    0  0.11287525212E+00 -0.21267936705E-01 -0.52995319704E-01  0.12815360314E+00  0.20535199393E-01 0.  0.
         14    1    1    2    0    0  0.23287657819E-01 -0.22678841582E-02 -0.31089817131E-03  0.23399892370E-01  0.00000000000E+00 0. -1.
     999901    1    3    3    0    0 -0.13616290994E+00  0.23535820863E-01  0.53306217876E-01  0.89237650449E+00  0.88000000000E+00 0.  1.
        -11    1    4    4    0    0  0.68727072468E-01 -0.44344089944E-02 -0.37542461652E-01  0.78439607476E-01  0.51100000000E-03 0. -1.
         11    1    4    4    0    0  0.44148179650E-01 -0.16833527711E-01 -0.15452858053E-01  0.49713995661E-01  0.51100000000E-03 0.  1.
</event>
<event>
 8    1  0.1095698E+005  0.1043930E+01  0.7957747E-01            NaN
         13   -1    0    0    0    0  0.00000000000E+00  0.00000000000E+00  0.74505805969E-08  0.10566000000E+00  0.10566000000E+00 0.  1.
     999900   -1    0    0    0    0 -0.00000000000E+00 -0.00000000000E+00 -0.74505805969E-08  0.93827000000E+00  0.93827000000E+00 0.  1.
     999902    2    1    2    0    0  0.19685787160E-02  0.19832142884E-01  0.13480433452E-01  0.10198694248E+01  0.10195855689E+01 0.  0.
     999903    2    3    3    0    0 -0.10854783464E-01  0.62752016940E-01 -0.11144895054E+00  0.12991779397E+00  0.20052996261E-01 0.  0.
         14    1    1    2    0    0 -0.19685787160E-02 -0.19832142884E-01 -0.13480433452E-01  0.24060575213E-01  0.00000000000E+00 0. -1.
     999901    1    3    3    0    0  0.12823362180E-01 -0.42919874056E-01  0.12492938399E+00  0.88995163082E+00  0.88000000000E+00 0. -1.
        -11    1    4    4    0    0 -0.52889677083E-02  0.50677482698E-01 -0.10052733211E+00  0.11270397532E+00  0.51100000000E-03 0. -1.
         11    1    4    4    0    0 -0.55658157561E-02  0.12074534242E-01 -0.10921618436E-01  0.17213818648E-01  0.51100000000E-03 0.  1.
</event>
<event>
 8    1  0.1095698E+005  0.1043930E+01  0.7957747E-01            NaN
         13   -1    0    0    0    0  0.00000000000E+00  0.00000000000E+00  0.74505805969E-08  0.10566000000E+00  0.10566000000E+00 0. -1.
     999900   -1    0    0    0    0 -0.00000000000E+00 -0.00000000000E+00 -0.74505805969E-08  0.93827000000E+00  0.93827000000E+00 0. -1.
     999902    2    1    2    0    0 -0.64931851827E-02  0.14549162439E-01 -0.18479492718E-01  0.10195305895E+01  0.10192385843E+01 0.  0.
     999903    2    3    3    0    0  0.30244976779E-01 -0.10314691929E+00  0.64930961909E-01  0.12702884489E+00  0.19137712506E-01 0.  0.
         14    1    1    2    0    0  0.64931851827E-02 -0.14549162439E-01  0.18479492718E-01  0.24399410498E-01  0.00000000000E+00 0. -1.
     999901    1    3    3    0    0 -0.36738161962E-01  0.11769608173E+00 -0.83410454627E-01  0.89250174461E+00  0.88000000000E+00 0. -1.
        -11    1    4    4    0    0  0.28431230845E-02 -0.37445299976E-01  0.27892561960E-01  0.46781299392E-01  0.51100000000E-03 0. -1.
         11    1    4    4    0    0  0.27401853695E-01 -0.65701619313E-01  0.37038399949E-01  0.80247545496E-01  0.51100000000E-03 0.  1.
</event>
<event>
 7    1  0.1095698E+005  0.1043930E+01  0.7957747E-01            NaN
         13   -1    0    0    0    0  0.00000000000E+00  0.00000000000E+00  0.74505805969E-08  0.10566000000E+00  0.10566000000E+00 0.  1.
     999900   -1    0    0    0    0 -0.00000000000E+00 -0.00000000000E+00 -0.74505805969E-08  0.93827000000E+00  0.93827000000E+00 0. -1.
     999903    2    1    2    0    0 -0.20681516479E-01 -0.99549399893E-01  0.44748575171E-01  0.11297672165E+00  0.20579030901E-01 0.  0.
         14    1    1    2    0    0 -0.17010750035E-01 -0.34099595853E-01 -0.99524137484E-02  0.39385258581E-01  0.00000000000E+00 0.  1.
     999901    1    1    2    0    0  0.37692266514E-01  0.13364899575E+00 -0.34796161422E-01  0.89156801977E+00  0.88000000000E+00 0. -1.
        -11    1    3    3    0    0 -0.74565445230E-02 -0.63753860282E-01  0.36810107978E-01  0.73995945345E-01  0.51100000000E-03 0. -1.
         11    1    3    3    0    0 -0.13224971956E-01 -0.35795539610E-01  0.79384671925E-02  0.38980776308E-01  0.51100000000E-03 0.  1.
</event>
<event>
 8    1  0.1095698E+005  0.1043930E+01  0.7957747E-01            NaN
         13   -1    0    0    0    0  0.00000000000E+00  0.00000000000E+00  0.74505805969E-08  0.10566000000E+00  0.10566000000E+00 0. -1.
     999900   -1    0    0    0    0 -0.00000000000E+00 -0.00000000000E+00 -0.74505805969E-08  0.93827000000E+00  0.93827000000E+00 0.  1.
     999902    2    1    2    0    0  0.13076761054E-01 -0.60075501945E-03  0.21609823826E-01  0.10186644687E+01  0.10183510950E+01 0.  0.
     999903    2    3    3    0    0 -0.11089259652E+00  0.18490002788E-01 -0.54056324721E-01  0.12655560500E+00  0.21335106030E-01 0.  0.
         14    1    1    2    0    0 -0.13076761054E-01  0.60075501945E-03 -0.21609823826E-01  0.25265531304E-01  0.00000000000E+00 0.  1.
     999901    1    3    3    0    0  0.12396935757E+00 -0.19090757807E-01  0.75666148547E-01  0.89210886370E+00  0.88000000000E+00 0. -1.
        -11    1    4    4    0    0 -0.93781230508E-01  0.22923647439E-01 -0.42894468595E-01  0.10564378526E+00  0.51100000000E-03 0. -1.
         11    1    4    4    0    0 -0.17111366008E-01 -0.44336446507E-02 -0.11161856126E-01  0.20911819738E-01  0.51100000000E-03 0.  1.
</event>
<event>
 8    1  0.1095698E+005  0.1043930E+01  0.7957747E-01            NaN
         13   -1    0    0    0    0  0.00000000000E+00  0.00000000000E+00  0.74505805969E-08  0.10566000000E+00  0.10566000000E+00 0.  1.
     999900   -1    0    0    0    0 -0.00000000000E+00 -0.00000000000E+00 -0.74505805969E-08  0.93827000000E+00  0.93827000000E+00 0. -1.
     999902    2    1    2    0    0  0.72974887304E-02  0.98152390358E-02  0.18128635179E-01  0.10220613084E+01  0.10218273232E+01 0.  0.
     999903    2    3    3    0    0 -0.29764059582E-01 -0.64902920489E-01 -0.10610863798E+00  0.12942965885E+00  0.19867189140E-01 0.  0.
         14    1    1    2    0    0 -0.72974887304E-02 -0.98152390358E-02 -0.18128635179E-01  0.21868691606E-01  0.00000000000E+00 0. -1.
     999901    1    3    3    0    0  0.37061548313E-01  0.74718159525E-01  0.12423727316E+00  0.89263164954E+00  0.88000000000E+00 0.  1.
        -11    1    4    4    0    0 -0.80716541135E-02 -0.40279936766E-01 -0.54099081053E-01  0.67930822148E-01  0.51100000000E-03 0.  1.
         11    1    4    4    0    0 -0.21692405469E-01 -0.24622983723E-01 -0.52009556930E-01  0.61498836701E-01  0.51100000000E-03 0. -1.
</event>
<event>
 8    1  0.1095698E+005  0.1043930E+01  0.7957747E-01            NaN
         13   -1    0    0    0    0  0.00000000000E+00  0.00000000000E+00  0.74505805969E-08  0.10566000000E+00  0.10566000000E+00 0.  1.
     999900   -1    0    0    0    0 -0.00000000000E+00 -0.00000000000E+00 -0.74505805969E-08  0.93827000000E+00  0.93827000000E+00 0.  1.
     999902    2    1    2    0    0 -0.13974235795E-01  0.18023718410E-01  0.73608460153E-02  0.10199651143E+01  0.10196835385E+01 0.  0.
     999903    2    3    3    0    0 -0.10850016091E+00 -0.19637436667E-01  0.69384747536E-01  0.13193331451E+00  0.20838484861E-01 0.  0.
         14    1    1    2    0    0  0.13974235795E-01 -0.18023718410E-01 -0.73608460153E-02  0.23964885675E-01  0.00000000000E+00 0. -1.
     999901    1    3    3    0    0  0.94525925114E-01  0.37661155077E-01 -0.62023901521E-01  0.88803179981E+00  0.88000000000E+00 0.  1.
        -11    1    4    4    0    0 -0.54536191723E-01 -0.19979982440E-01  0.32398971967E-01  0.66508273256E-01  0.51100000000E-03 0. -1.
         11    1    4    4    0    0 -0.53963969185E-01  0.34254577281E-03  0.36985775569E-01  0.65425041256E-01  0.51100000000E-03 0.  1.
</event>
<event>
 8    1  0.1095698E+005  0.1043930E+01  0.7957747E-01            NaN
         13   -1    0    0    0    0  0.00000000000E+00  0.00000000000E+00  0.74505805969E-08  0.10566000000E+00  0.10566000000E+00 0.  1.
     999900   -1    0    0    0    0 -0.00000000000E+00 -0.00000000000E+00 -0.74505805969E-08  0.93827000000E+00  0.93827000000E+00 0.  1.
     999902    2    1    2    0    0 -0.52713821819E-02  0.95054947206E-02 -0.10537582749E-01  0.10287912236E+01  0.10286798332E+01 0.  0.
     999903    2    3    3    0    0  0.14574060256E-01 -0.13227258162E+00 -0.25946516299E-01  0.13708931169E+00  0.20293313914E-01 0.  0.
         14    1    1    2    0    0  0.52713821819E-02 -0.95054947206E-02  0.10537582749E-01  0.15138776376E-01  0.00000000000E+00 0.  1.
     999901    1    3    3    0    0 -0.19845442438E-01  0.14177807634E+00  0.15408933550E-01  0.89170191194E+00  0.88000000000E+00 0. -1.
        -11    1    4    4    0    0  0.12333096607E-01 -0.34359974343E-01 -0.40686685744E-02  0.36735926472E-01  0.51100000000E-03 0. -1.
         11    1    4    4    0    0  0.22409636495E-02 -0.97912607279E-01 -0.21877847724E-01  0.10035338522E+00  0.51100000000E-03 0.  1.
</event>
<event>
 8    1  0.1095698E+005  0.1043930E+01  0.7957747E-01            NaN
         13   -1    0    0    0    0  0.00000000000E+00  0.00000000000E+00  0.74505805969E-08  0.10566000000E+00  0.10566000000E+00 0. -1.
     999900   -1    0    0    0    0 -0.00000000000E+00 -0.00000000000E+00 -0.74505805969E-08  0.93827000000E+00  0.93827000000E+00 0. -1.
     999902    2    1    2    0    0  0.23051887854E-01  0.86660428459E-02  0.16766018379E-03  0.10193024150E+01  0.10190048554E+01 0.  0.
     999903    2    3    3    0    0  0.49042857671E-01  0.11589264645E+00 -0.32606027432E-01  0.13180751946E+00  0.21766069261E-01 0.  0.
         14    1    1    2    0    0 -0.23051887854E-01 -0.86660428459E-02 -0.16766018379E-03  0.24627584985E-01  0.00000000000E+00 0. -1.
     999901    1    3    3    0    0 -0.25990969817E-01 -0.10722660361E+00  0.32773687615E-01  0.88749489555E+00  0.88000000000E+00 0.  1.
        -11    1    4    4    0    0  0.25016566286E-01  0.83367482651E-01 -0.25915366320E-01  0.90817581363E-01  0.51100000000E-03 0.  1.
         11    1    4    4    0    0  0.24026291386E-01  0.32525163804E-01 -0.66906611121E-02  0.40989938099E-01  0.51100000000E-03 0. -1.
</event>
<event>
 7    1  0.1095698E+005  0.1043930E+01  0.7957747E-01            NaN
         13   -1    0    0    0    0  0.00000000000E+00  0.00000000000E+00  0.74505805969E-08  0.10566000000E+00  0.10566000000E+00 0.  1.
     999900   -1    0    0    0    0 -0.00000000000E+00 -0.00000000000E+00 -0.74505805969E-08  0.93827000000E+00  0.93827000000E+00 0.  1.
     999903    2    1    2    0    0 -0.31114190135E-01  0.85999344449E-01 -0.59121696932E-01  0.11100408763E+00  0.21507030207E-01 0.  0.
         14    1    1    2    0    0 -0.25532411399E-01 -0.28284390460E-01 -0.24452009958E-01  0.45274844744E-01  0.00000000000E+00 0. -1.
     999901    1    1    2    0    0  0.56646601534E-01 -0.57714953989E-01  0.83573706891E-01  0.88765106763E+00  0.88000000000E+00 0. -1.
        -11    1    3    3    0    0 -0.57813609136E-02  0.23170144058E-01 -0.26935728914E-01  0.36001032247E-01  0.51100000000E-03 0.  1.
         11    1    3    3    0    0 -0.25332829221E-01  0.62829200391E-01 -0.32185968018E-01  0.75003055381E-01  0.51100000000E-03 0. -1.
</event>
<event>
 8    1  0.1095698E+005  0.1043930E+01  0.7957747E-01            NaN
         13   -1    0    0    0    0  0.00000000000E+00  0.00000000000E+00  0.74505805969E-08  0.10566000000E+00  0.10566000000E+00 0.  1.
     999900   -1    0    0    0    0 -0.00000000000E+00 -0.00000000000E+00 -0.74505805969E-08  0.93827000000E+00  0.93827000000E+00 0. -1.
     999902    2    1    2    0    0  0.76225595345E-02  0.24359522599E-01  0.15326329651E-02  0.10183597298E+01  0.10180386537E+01 0.  0.
     999903    2    3    3    0    0  0.56616888632E-01  0.10958585607E+00 -0.42112884185E-01  0.13181085726E+00  0.19648795091E-01 0.  0.
         14    1    1    2    0    0 -0.76225595345E-02 -0.24359522599E-01 -0.15326329651E-02  0.25570270216E-01  0.00000000000E+00 0. -1.
     999901    1    3    3    0    0 -0.48994329097E-01 -0.85226333473E-01  0.43645517151E-01  0.88654887252E+00  0.88000000000E+00 0. -1.
        -11    1    4    4    0    0  0.18766111395E-01  0.19603283596E-01 -0.66206844467E-02  0.27938329373E-01  0.51100000000E-03 0.  1.
         11    1    4    4    0    0  0.37850777237E-01  0.89982572476E-01 -0.35492199739E-01  0.10387252789E+00  0.51100000000E-03 0. -1.
</event>
<event>
 8    1  0.1095698E+005  0.1043930E+01  0.7957747E-01            NaN
         13   -1    0    0    0    0  0.00000000000E+00  0.00000000000E+00  0.74505805969E-08  0.10566000000E+00  0.10566000000E+00 0.  1.
     999900   -1    0    0    0    0 -0.00000000000E+00 -0.00000000000E+00 -0.74505805969E-08  0.93827000000E+00  0.93827000000E+00 0. -1.
     999902    2    1    2    0    0 -0.58728460695E-02 -0.99358712365E-02  0.22033081002E-01  0.10190569520E+01  0.10187533573E+01 0.  0.
     999903    2    3    3    0    0  0.61093332783E-01  0.91761403107E-01 -0.59762468077E-01  0.12691496971E+00  0.19578215838E-01 0.  0.
         14    1    1    2    0    0  0.58728460695E-02  0.99358712365E-02 -0.22033081002E-01  0.24873047997E-01  0.00000000000E+00 0. -1.
     999901    1    3    3    0    0 -0.66966178852E-01 -0.10169727434E+00  0.81795549079E-01  0.89214198229E+00  0.88000000000E+00 0.  1.
        -11    1    4    4    0    0  0.35000068729E-01  0.59236268356E-01 -0.46920419259E-01  0.83281013228E-01  0.51100000000E-03 0. -1.
         11    1    4    4    0    0  0.26093264054E-01  0.32525134751E-01 -0.12842048818E-01  0.43633956484E-01  0.51100000000E-03 0.  1.
</event>
<event>
 8    1  0.1095698E+005  0.1043930E+01  0.7957747E-01            NaN
         13   -1    0    0    0    0  0.00000000000E+00  0.00000000000E+00  0.74505805969E-08  0.10566000000E+00  0.10566000000E+00 0. -1.
     999900   -1    0    0    0    0 -0.00000000000E+00 -0.00000000000E+00 -0.74505805969E-08  0.93827000000E+00  0.93827000000E+00 0.  1.
     999902    2    1    2    0    0  0.21389411931E-01 -0.94155000704E-02 -0.28436613009E-02  0.10203875916E+01  0.10201159699E+01 0.  0.
     999903    2    3    3    0    0  0.72132571294E-01  0.91094790418E-01  0.57448023636E-01  0.13116755471E+00  0.20081914877E-01 0.  0.
         14    1    1    2    0    0 -0.21389411931E-01  0.94155000704E-02  0.28436613009E-02  0.23542408414E-01  0.00000000000E+00 0. -1.
     999901    1    3    3    0    0 -0.50743159364E-01 -0.10051029049E+00 -0.60291684937E-01  0.88922003688E+00  0.88000000000E+00 0.  1.
        -11    1    4    4    0    0  0.43553336731E-01  0.39205294330E-01  0.30897324068E-01  0.66248426393E-01  0.51100000000E-03 0. -1.
         11    1    4    4    0    0  0.28579234563E-01  0.51889496088E-01  0.26550699568E-01  0.64919128313E-01  0.51100000000E-03 0.  1.
</event>
<event>
 8    1  0.1095698E+005  0.1043930E+01  0.7957747E-01            NaN
         13   -1    0    0    0    0  0.00000000000E+00  0.00000000000E+00  0.74505805969E-08  0.10566000000E+00  0.10566000000E+00 0. -1.
     999900   -1    0    0    0    0 -0.00000000000E+00 -0.00000000000E+00 -0.74505805969E-08  0.93827000000E+00  0.93827000000E+00 0. -1.
     999902    2    1    2    0    0  0.49479254944E-02  0.19105533236E-01  0.14873326624E-01  0.10192172662E+01  0.10189176201E+01 0.  0.
     999903    2    3    3    0    0 -0.62723691011E-01  0.11008793133E+00 -0.26120749424E-01  0.13099558288E+00  0.20589685405E-01 0.  0.
         14    1    1    2    0    0 -0.49479254944E-02 -0.19105533236E-01 -0.14873326624E-01  0.24712733799E-01  0.00000000000E+00 0.  1.
     999901    1    3    3    0    0  0.67671616506E-01 -0.90982398098E-01  0.40994076048E-01  0.88822168332E+00  0.88000000000E+00 0. -1.
        -11    1    4    4    0    0 -0.58022931297E-01  0.85629544875E-01 -0.21867726817E-01  0.10572387672E+00  0.51100000000E-03 0.  1.
         11    1    4    4    0    0 -0.47007597140E-02  0.24458386459E-01 -0.42530226077E-02  0.25271706163E-01  0.51100000000E-03 0. -1.
</event>
<event>
 8    1  0.1095698E+005  0.1043930E+01  0.7957747E-01            NaN
         13   -1    0    0    0    0  0.00000000000E+00  0.00000000000E+00  0.74505805969E-08  0.10566000000E+00  0.10566000000E+00 0. -1.
     999900   -1    0    0    0    0 -0.00000000000E+00 -0.00000000000E+00 -0.74505805969E-08  0.93827000000E+00  0.93827000000E+00 0. -1.
     999902    2    1    2    0    0  0.17272866609E-01 -0.16042945691E-01 -0.28672176361E-02  0.10201823903E+01  0.10199059567E+01 0.  0.
     999903    2    3    3    0    0 -0.72769073977E-01  0.10297889106E+00 -0.23627379465E-02  0.12761642461E+00  0.19503311727E-01 0.  0.
         14    1    1    2    0    0 -0.17272866609E-01  0.16042945691E-01  0.28672176361E-02  0.23747609654E-01  0.00000000000E+00 0. -1.
     999901    1    3    3    0    0  0.90041940586E-01 -0.11902183675E+00 -0.50447968964E-03  0.89256596573E+00  0.88000000000E+00 0. -1.
        -11    1    4    4    0    0 -0.51274822633E-01  0.85888366345E-01 -0.39116870764E-02  0.10010734901E+00  0.51100000000E-03 0.  1.
         11    1    4    4    0    0 -0.21494251344E-01  0.17090524716E-01  0.15489491299E-02  0.27509075599E-01  0.51100000000E-03 0. -1.
</event>
<event>
 8    1  0.1095698E+005  0.1043930E+01  0.7957747E-01            NaN
         13   -1    0    0    0    0  0.00000000000E+00  0.00000000000E+00  0.74505805969E-08  0.10566000000E+00  0.10566000000E+00 0. -1.
     999900   -1    0    0    0    0 -0.00000000000E+00 -0.00000000000E+00 -0.74505805969E-08  0.93827000000E+00  0.93827000000E+00 0. -1.
     999902    2    1    2    0    0  0.24855497529E-02 -0.18110744736E-01 -0.15135346468E-01  0.10201969904E+01  0.10199209006E+01 0.  0.
     999903    2    3    3    0    0 -0.81032679427E-01  0.82780062256E-01  0.50709439501E-01  0.12807043805E+00  0.20291771897E-01 0.  0.
         14    1    1    2    0    0 -0.24855497529E-02  0.18110744736E-01  0.15135346468E-01  0.23733009611E-01  0.00000000000E+00 0. -1.
     999901    1    3    3    0    0  0.83518229180E-01 -0.10089080699E+00 -0.65844785969E-01  0.89212655233E+00  0.88000000000E+00 0. -1.
        -11    1    4    4    0    0 -0.14270994629E-01  0.27187439110E-01  0.12343571797E-01  0.33097477529E-01  0.51100000000E-03 0.  1.
         11    1    4    4    0    0 -0.66761684798E-01  0.55592623146E-01  0.38365867704E-01  0.94972960525E-01  0.51100000000E-03 0. -1.
</event>
<event>
 8    1  0.1095698E+005  0.1043930E+01  0.7957747E-01            NaN
         13   -1    0    0    0    0  0.00000000000E+00  0.00000000000E+00  0.74505805969E-08  0.10566000000E+00  0.10566000000E+00 0.  1.
     999900   -1    0    0    0    0 -0.00000000000E+00 -0.00000000000E+00 -0.74505805969E-08  0.93827000000E+00  0.93827000000E+00 0. -1.
     999902    2    1    2    0    0  0.12245187093E-01 -0.18744299830E-01  0.52554840096E-02  0.10209318806E+01  0.10206728131E+01 0.  0.
     999903    2    3    3    0    0  0.37305938698E-01 -0.11817970949E+00 -0.45453780827E-01  0.13352731025E+00  0.20132550613E-01 0.  0.
         14    1    1    2    0    0 -0.12245187093E-01  0.18744299830E-01 -0.52554840096E-02  0.22998119385E-01  0.00000000000E+00 0.  1.
     999901    1    3    3    0    0 -0.25060751606E-01  0.99435409659E-01  0.50709264837E-01  0.88740457037E+00  0.88000000000E+00 0. -1.
        -11    1    4    4    0    0  0.25570464016E-01 -0.63706170912E-01 -0.15965219154E-01  0.70480310626E-01  0.51100000000E-03 0.  1.
         11    1    4    4    0    0  0.11735474682E-01 -0.54473538576E-01 -0.29488561673E-01  0.63046999624E-01  0.51100000000E-03 0. -1.
</event>
<event>
 8    1  0.1095698E+005  0.1043930E+01  0.7957747E-01            NaN
         13   -1    0    0    0    0  0.00000000000E+00  0.00000000000E+00  0.74505805969E-08  0.10566000000E+00  0.10566000000E+00 0.  1.
     999900   -1    0    0    0    0 -0.00000000000E+00 -0.00000000000E+00 -0.74505805969E-08  0.93827000000E+00  0.93827000000E+00 0.  1.
     999902    2    1    2    0    0  0.18311845927E-01 -0.48052362976E-02 -0.15333210066E-01  0.10195677068E+01  0.10192766001E+01 0.  0.
     999903    2    3    3    0    0 -0.62861499964E-01  0.95233143054E-01 -0.56912890330E-01  0.12921628227E+00  0.20900976142E-01 0.  0.
         14    1    1    2    0    0 -0.18311845927E-01  0.48052362976E-02  0.15333210066E-01  0.24362293161E-01  0.00000000000E+00 0.  1.
     999901    1    3    3    0    0  0.81173345891E-01 -0.10003837935E+00  0.41579680263E-01  0.89035142457E+00  0.88000000000E+00 0. -1.
        -11    1    4    4    0    0 -0.87747275461E-02  0.26426991945E-01 -0.19694575050E-01  0.34110396571E-01  0.51100000000E-03 0. -1.
         11    1    4    4    0    0 -0.54086772418E-01  0.68806151109E-01 -0.37218315279E-01  0.95105885697E-01  0.51100000000E-03 0.  1.
</event>
<event>
 8    1  0.1095698E+005  0.1043930E+01  0.7957747E-01            NaN
         13   -1    0    0    0    0  0.00000000000E+00  0.00000000000E+00  0.74505805969E-08  0.10566000000E+00  0.10566000000E+00 0.  1.
     999900   -1    0    0    0    0 -0.00000000000E+00 -0.00000000000E+00 -0.74505805969E-08  0.93827000000E+00  0.93827000000E+00 0.  1.
     999902    2    1    2    0    0 -0.39912489645E-02  0.19664002711E-01 -0.11609531306E-01  0.10207484494E+01  0.10204851849E+01 0.  0.
     999903    2    3    3    0    0  0.92674484949E-01  0.66276577651E-01  0.61872621661E-01  0.13118865767E+00  0.20027423335E-01 0.  0.
         14    1    1    2    0    0  0.39912489645E-02 -0.19664002711E-01  0.11609531306E-01  0.23181550597E-01  0.00000000000E+00 0.  1.
     999901    1    3    3    0    0 -0.96665733914E-01 -0.46612574939E-01 -0.73482152968E-01  0.88955979173E+00  0.88000000000E+00 0. -1.
        -11    1    4    4    0    0  0.74516340040E-01  0.60239295530E-01  0.56778750567E-01  0.11138018359E+00  0.51100000000E-03 0.  1.
         11    1    4    4    0    0  0.18158144909E-01  0.60372821206E-02  0.50938710946E-02  0.19808474087E-01  0.51100000000E-03 0. -1.
</event>
<event>
 8    1  0.1095698E+005  0.1043930E+01  0.7957747E-01            NaN
         13   -1    0    0    0    0  0.00000000000E+00  0.00000000000E+00  0.74505805969E-08  0.10566000000E+00  0.10566000000E+00 0.  1.
     999900   -1    0    0    0    0 -0.00000000000E+00 -0.00000000000E+00 -0.74505805969E-08  0.93827000000E+00  0.93827000000E+00 0.  1.
     999902    2    1    2    0    0 -0.24455909401E-01 -0.56218987684E-02 -0.76352847929E-02  0.10177003446E+01  0.10173622740E+01 0.  0.
     999903    2    3    3    0    0 -0.86749235864E-01  0.43259183519E-01  0.83421134701E-01  0.12946552749E+00  0.20135794307E-01 0.  0.
         14    1    1    2    0    0  0.24455909401E-01  0.56218987684E-02  0.76352847929E-02  0.26229655436E-01  0.00000000000E+00 0.  1.
     999901    1    3    3    0    0  0.62293326462E-01 -0.48881082288E-01 -0.91056419494E-01  0.88823481707E+00  0.88000000000E+00 0.  1.
        -11    1    4    4    0    0 -0.32709086052E-01  0.26141578350E-01  0.29453882746E-01  0.51196276806E-01  0.51100000000E-03 0. -1.
         11    1    4    4    0    0 -0.54040149812E-01  0.17117605169E-01  0.53967251955E-01  0.78269250686E-01  0.51100000000E-03 0.  1.
</event>
<event>
 8    1  0.1095698E+005  0.1043930E+01  0.7957747E-01            NaN
         13   -1    0    0    0    0  0.00000000000E+00  0.00000000000E+00  0.74505805969E-08  0.10566000000E+00  0.10566000000E+00 0. -1.
     999900   -1    0    0    0    0 -0.00000000000E+00 -0.00000000000E+00 -0.74505805969E-08  0.93827000000E+00  0.93827000000E+00 0. -1.
     999902    2    1    2    0    0 -0.17531764137E-01  0.10456813722E-02 -0.16068774358E-01  0.10201253426E+01  0.10198475636E+01 0.  0.
     999903    2    3    3    0    0 -0.10761357077E+00  0.74143702184E-01  0.68741173635E-02  0.13221519581E+00  0.18858295982E-01 0.  0.
         14    1    1    2    0    0  0.17531764137E-01 -0.10456813722E-02  0.16068774358E-01  0.23804657374E-01  0.00000000000E+00 0. -1.
     999901    1    3    3    0    0  0.90081806632E-01 -0.73098020812E-01 -0.22942891722E-01  0.88791014681E+00  0.88000000000E+00 0. -1.
        -11    1    4    4    0    0 -0.11331555714E-01  0.15654706566E-01 -0.24975897644E-03  0.19333843206E-01  0.51100000000E-03 0.  1.
         11    1    4    4    0    0 -0.96282015055E-01  0.58488995617E-01  0.71238763400E-02  0.11288135261E+00  0.51100000000E-03 0. -1.
</event>
<event>
 8    1  0.1095698E+005  0.1043930E+01  0.7957747E-01            NaN
         13   -1    0    0    0    0  0.00000000000E+00  0.00000000000E+00  0.74505805969E-08  0.10566000000E+00  0.10566000000E+00 0. -1.
     999900   -1    0    0    0    0 -0.00000000000E+00 -0.00000000000E+00 -0.74505805969E-08  0.93827000000E+00  0.93827000000E+00 0.  1.
     999902    2    1    2    0    0 -0.18911722770E-01 -0.81788404459E-02  0.21094329318E-01  0.10144424192E+01  0.10140137595E+01 0.  0.
     999903    2    3    3    0    0  0.47575078056E-01 -0.23493592381E-01 -0.10877090829E+00  0.12229892392E+00  0.17623262091E-01 0.  0.
         14    1    1    2    0    0  0.18911722770E-01  0.81788404459E-02 -0.21094329318E-01  0.29487580751E-01  0.00000000000E+00 0.  1.
     999901    1    3    3    0    0 -0.66486800826E-01  0.15314751935E-01  0.12986523761E+00  0.89214349533E+00  0.88000000000E+00 0. -1.
        -11    1    4    4    0    0  0.40927597024E-01 -0.12514004431E-01 -0.88394483294E-01  0.98211579271E-01  0.51100000000E-03 0. -1.
         11    1    4    4    0    0  0.66474810321E-02 -0.10979587951E-01 -0.20376425001E-01  0.24087344653E-01  0.51100000000E-03 0.  1.
</event>
<event>
 8    1  0.1095698E+005  0.1043930E+01  0.7957747E-01            NaN
         13   -1    0    0    0    0  0.00000000000E+00  0.00000000000E+00  0.74505805969E-08  0.10566000000E+00  0.10566000000E+00 0.  1.
     999900   -1    0    0    0    0 -0.00000000000E+00 -0.00000000000E+00 -0.74505805969E-08  0.93827000000E+00  0.93827000000E+00 0. -1.
     999902    2    1    2    0    0  0.19582212409E-01  0.12357983806E-01  0.81256901104E-03  0.10207601257E+01  0.10204971294E+01 0.  0.
     999903    2    3    3    0    0 -0.15474454849E-01 -0.10129012738E+00  0.77600528014E-01  0.12944578511E+00  0.15336905743E-01 0.  0.
         14    1    1    2    0    0 -0.19582212409E-01 -0.12357983806E-01 -0.81256901104E-03  0.23169874298E-01  0.00000000000E+00 0.  1.
     999901    1    3    3    0    0  0.35056667258E-01  0.11364811118E+00 -0.76787959003E-01  0.89131434059E+00  0.88000000000E+00 0. -1.
        -11    1    4    4    0    0 -0.12368470331E-01 -0.46418881413E-01  0.43187765524E-01  0.64599812863E-01  0.51100000000E-03 0.  1.
         11    1    4    4    0    0 -0.31059845177E-02 -0.54871245965E-01  0.34412762490E-01  0.64845972248E-01  0.51100000000E-03 0. -1.
</event>
<event>
 8    1  0.1095698E+005  0.1043930E+01  0.7957747E-01            NaN
         13   -1    0    0    0    0  0.00000000000E+00  0.00000000000E+00  0.74505805969E-08  0.10566000000E+00  0.10566000000E+00 0.  1.
     999900   -1    0    0    0    0 -0.00000000000E+00 -0.00000000000E+00 -0.74505805969E-08  0.93827000000E+00  0.93827000000E+00 0. -1.
     999902    2    1    2    0    0  0.20883147772E-01  0.67041145452E-02 -0.85255611393E-02  0.10203983999E+01  0.10201270304E+01 0.  0.
     999903    2    3    3    0    0 -0.12501282886E+00 -0.17261806184E-01  0.38484955940E-02  0.12797858910E+00  0.20917242110E-01 0.  0.
         14    1    1    2    0    0 -0.20883147772E-01 -0.67041145452E-02  0.85255611393E-02  0.23531600146E-01  0.00000000000E+00 0.  1.
     999901    1    3    3    0    0  0.14589597663E+00  0.23965920729E-01 -0.12374056733E-01  0.89241981076E+00  0.88000000000E+00 0. -1.
        -11    1    4    4    0    0 -0.82894366742E-01 -0.58102743427E-02 -0.57049038324E-02  0.83294912055E-01  0.51100000000E-03 0.  1.
         11    1    4    4    0    0 -0.42118462114E-01 -0.11451531841E-01  0.95533994264E-02  0.44683677041E-01  0.51100000000E-03 0. -1.
</event>
<event>
 8    1  0.1095698E+005  0.1043930E+01  0.7957747E-01            NaN
         13   -1    0    0    0    0  0.00000000000E+00  0.00000000000E+00  0.74505805969E-08  0.10566000000E+00  0.10566000000E+00 0.  1.
     999900   -1    0    0    0    0 -0.00000000000E+00 -0.00000000000E+00 -0.74505805969E-08  0.93827000000E+00  0.93827000000E+00 0.  1.
     999902    2    1    2    0    0  0.30723597736E-02 -0.17657163899E-01  0.27323834824E-01  0.10112526871E+01  0.10107245868E+01 0.  0.
     999903    2    3    3    0    0 -0.55790064923E-01  0.96457859218E-01 -0.38372933704E-01  0.11951108270E+00  0.19843560649E-01 0.  0.
         14    1    1    2    0    0 -0.30723597736E-02  0.17657163899E-01 -0.27323834824E-01  0.32677312940E-01  0.00000000000E+00 0.  1.
     999901    1    3    3    0    0  0.58862424697E-01 -0.11411502312E+00  0.65696768528E-01  0.89174160435E+00  0.88000000000E+00 0. -1.
        -11    1    4    4    0    0 -0.15974839038E-01  0.25509723762E-01 -0.19887523410E-01  0.36079304277E-01  0.51100000000E-03 0. -1.
         11    1    4    4    0    0 -0.39815225885E-01  0.70948135456E-01 -0.18485410294E-01  0.83431778428E-01  0.51100000000E-03 0.  1.
</event>
<event>
 8    1  0.1095698E+005  0.1043930E+01  0.7957747E-01            NaN
         13   -1    0    0    0    0  0.00000000000E+00  0.00000000000E+00  0.74505805969E-08  0.10566000000E+00  0.10566000000E+00 0. -1.
     999900   -1    0    0    0    0 -0.00000000000E+00 -0.00000000000E+00 -0.74505805969E-08  0.93827000000E+00  0.93827000000E+00 0. -1.
     999902    2    1    2    0    0  0.18304947718E-02  0.14144645001E-01 -0.19304272541E-01  0.10199284036E+01  0.10196459541E+01 0.  0.
     999903    2    3    3    0    0 -0.24936803980E-01 -0.76628760373E-01 -0.10132934079E+00  0.13106147807E+00  0.20387854752E-01 0.  0.
         14    1    1    2    0    0 -0.18304947718E-02 -0.14144645001E-01  0.19304272541E-01  0.24001596439E-01  0.00000000000E+00 0. -1.
     999901    1    3    3    0    0  0.26767298752E-01  0.90773405374E-01  0.82025068245E-01  0.88886692549E+00  0.88000000000E+00 0.  1.
        -11    1    4    4    0    0 -0.23226205426E-01 -0.60350844315E-01 -0.67506479207E-01  0.93482976440E-01  0.51100000000E-03 0.  1.
         11    1    4    4    0    0 -0.17105985544E-02 -0.16277916058E-01 -0.33822861579E-01  0.37578501633E-01  0.51100000000E-03 0. -1.
</event>
<event>
 8    1  0.1095698E+005  0.1043930E+01  0.7957747E-01            NaN
         13   -1    0    0    0    0  0.00000000000E+00  0.00000000000E+00  0.74505805969E-08  0.10566000000E+00  0.10566000000E+00 0. -1.
     999900   -1    0    0    0    0 -0.00000000000E+00 -0.00000000000E+00 -0.74505805969E-08  0.93827000000E+00  0.93827000000E+00 0.  1.
     999902    2    1    2    0    0  0.84330387891E-02  0.85641132184E-02 -0.20430866235E-01  0.10202259819E+01  0.10199505741E+01 0.  0.
     999903    2    3    3    0    0 -0.89788678723E-01 -0.42942786002E-01 -0.82777067731E-01  0.13107609843E+00  0.20562367089E-01 0.  0.
         14    1    1    2    0    0 -0.84330387891E-02 -0.85641132184E-02  0.20430866235E-01  0.23704018089E-01  0.00000000000E+00 0. -1.
     999901    1    3    3    0    0  0.98221717513E-01  0.51506899220E-01  0.62346201496E-01  0.88914988348E+00  0.88000000000E+00 0. -1.
        -11    1    4    4    0    0 -0.13532311959E-01 -0.14348787728E-02 -0.18863902772E-01  0.23265646194E-01  0.51100000000E-03 0.  1.
         11    1    4    4    0    0 -0.76256366764E-01 -0.41507907229E-01 -0.63913164959E-01  0.10781045223E+00  0.51100000000E-03 0. -1.
</event>
<event>
 7    1  0.1095698E+005  0.1043930E+01  0.7957747E-01            NaN
         13   -1    0    0    0    0  0.00000000000E+00  0.00000000000E+00  0.74505805969E-08  0.10566000000E+00  0.10566000000E+00 0.  1.
     999900   -1    0    0    0    0 -0.00000000000E+00 -0.00000000000E+00 -0.74505805969E-08  0.93827000000E+00  0.93827000000E+00 0.  1.
     999903    2    1    2    0    0 -0.88792593687E-01 -0.77722436261E-02 -0.35415800136E-01  0.97900387998E-01  0.19638599905E-01 0.  0.
         14    1    1    2    0    0  0.30742339189E-01  0.20185430658E-01 -0.47576410304E-01  0.60133666503E-01  0.00000000000E+00 0. -1.
     999901    1    1    2    0    0  0.58050254497E-01 -0.12413187032E-01  0.82992210439E-01  0.88589594550E+00  0.88000000000E+00 0. -1.
        -11    1    3    3    0    0 -0.93160935080E-02  0.52709655061E-02 -0.36383545592E-02  0.11316864429E-01  0.51100000000E-03 0.  1.
         11    1    3    3    0    0 -0.79476500179E-01 -0.13043209132E-01 -0.31777445576E-01  0.86583523568E-01  0.51100000000E-03 0. -1.
</event>
<event>
 8    1  0.1095698E+005  0.1043930E+01  0.7957747E-01            NaN
         13   -1    0    0    0    0  0.00000000000E+00  0.00000000000E+00  0.74505805969E-08  0.10566000000E+00  0.10566000000E+00 0.  1.
     999900   -1    0    0    0    0 -0.00000000000E+00 -0.00000000000E+00 -0.74505805969E-08  0.93827000000E+00  0.93827000000E+00 0. -1.
     999902    2    1    2    0    0 -0.20902159639E-01  0.10941628920E-01 -0.16685324664E-02  0.10202782871E+01  0.10200041077E+01 0.  0.
     999903    2    3    3    0    0 -0.88852446905E-01  0.38425267992E-01 -0.88896469378E-01  0.13293319928E+00  0.19934760139E-01 0.  0.
         14    1    1    2    0    0  0.20902159639E-01 -0.10941628920E-01  0.16685324664E-02  0.23651712868E-01  0.00000000000E+00 0. -1.
     999901    1    3    3    0    0  0.67950287266E-01 -0.27483639072E-01  0.87227936912E-01  0.88734508785E+00  0.88000000000E+00 0. -1.
        -11    1    4    4    0    0 -0.19103180684E-02  0.55352778382E-02 -0.54835430177E-02  0.80385932163E-02  0.51100000000E-03 0.  1.
         11    1    4    4    0    0 -0.86942128837E-01  0.32889990154E-01 -0.83412926360E-01  0.12489460606E+00  0.51100000000E-03 0. -1.
</event>
<event>
 8    1  0.1095698E+005  0.1043930E+01  0.7957747E-01            NaN
         13   -1    0    0    0    0  0.00000000000E+00  0.00000000000E+00  0.74505805969E-08  0.10566000000E+00  0.10566000000E+00 0. -1.
     999900   -1    0    0    0    0 -0.00000000000E+00 -0.00000000000E+00 -0.74505805969E-08  0.93827000000E+00  0.93827000000E+00 0.  1.
     999902    2    1    2    0    0  0.57348912733E-02  0.76118392993E-02  0.20040772884E-01  0.10217385230E+01  0.10214975025E+01 0.  0.
     999903    2    3    3    0    0  0.63026502791E-01 -0.83219969847E-01  0.80184327604E-01  0.13317226574E+00  0.20184710363E-01 0.  0.
         14    1    1    2    0    0 -0.57348912733E-02 -0.76118392993E-02 -0.20040772884E-01  0.22191477040E-01  0.00000000000E+00 0.  1.
     999901    1    3    3    0    0 -0.57291611518E-01  0.90831809146E-01 -0.60143554720E-01  0.88856625722E+00  0.88000000000E+00 0. -1.
        -11    1    4    4    0    0  0.65851041124E-02 -0.28646127770E-02  0.10622177312E-01  0.12832044825E-01  0.51100000000E-03 0. -1.
         11    1    4    4    0    0  0.56441398679E-01 -0.80355357070E-01  0.69562150292E-01  0.12034022091E+00  0.51100000000E-03 0.  1.
</event>
<event>
 8    1  0.1095698E+005  0.1043930E+01  0.7957747E-01            NaN
         13   -1    0    0    0    0  0.00000000000E+00  0.00000000000E+00  0.74505805969E-08  0.10566000000E+00  0.10566000000E+00 0. -1.
     999900   -1    0    0    0    0 -0.00000000000E+00 -0.00000000000E+00 -0.74505805969E-08  0.93827000000E+00  0.93827000000E+00 0. -1.
     999902    2    1    2    0    0  0.70197586456E-02  0.44060528443E-03  0.22888257009E-01  0.10199854087E+01  0.10197043152E+01 0.  0.
     999903    2    3    3    0    0  0.75866275997E-01 -0.10155780055E+00 -0.22090548484E-01  0.13028511606E+00  0.20409322581E-01 0.  0.
         14    1    1    2    0    0 -0.70197586456E-02 -0.44060528443E-03 -0.22888257009E-01  0.23944591317E-01  0.00000000000E+00 0.  1.
     999901    1    3    3    0    0 -0.68846517352E-01  0.10199840584E+00  0.44978805492E-01  0.88970029262E+00  0.88000000000E+00 0.  1.
        -11    1    4    4    0    0  0.23362580310E-01 -0.31714696938E-01 -0.16556332040E-01  0.42731784567E-01  0.51100000000E-03 0. -1.
         11    1    4    4    0    0  0.52503695687E-01 -0.69843103615E-01 -0.55342164437E-02  0.87553331496E-01  0.51100000000E-03 0.  1.
</event>
<event>
 8    1  0.1095698E+005  0.1043930E+01  0.7957747E-01            NaN
         13   -1    0    0    0    0  0.00000000000E+00  0.00000000000E+00  0.74505805969E-08  0.10566000000E+00  0.10566000000E+00 0.  1.
     999900   -1    0    0    0    0 -0.00000000000E+00 -0.00000000000E+00 -0.74505805969E-08  0.93827000000E+00  0.93827000000E+00 0.  1.
     999902    2    1    2    0    0 -0.10630655198E-01  0.74240655168E-02  0.25454187826E-01  0.10153635292E+01  0.10149616018E+01 0.  0.
     999903    2    3    3    0    0 -0.12261948075E+00  0.19019345649E-01 -0.20108494512E-01  0.12702130591E+00  0.18242478854E-01 0.  0.
         14    1    1    2    0    0  0.10630655198E-01 -0.74240655168E-02 -0.25454187826E-01  0.28566470846E-01  0.00000000000E+00 0.  1.
     999901    1    3    3    0    0  0.11198882556E+00 -0.11595280133E-01  0.45562682338E-01  0.88834222324E+00  0.88000000000E+00 0.  1.
        -11    1    4    4    0    0 -0.93022034260E-01  0.20134486319E-01 -0.99099706185E-02  0.95692032249E-01  0.51100000000E-03 0.  1.
         11    1    4    4    0    0 -0.29597446494E-01 -0.11151406698E-02 -0.10198523893E-01  0.31329273664E-01  0.51100000000E-03 0. -1.
</event>
<event>
 8    1  0.1095698E+005  0.1043930E+01  0.7957747E-01            NaN
         13   -1    0    0    0    0  0.00000000000E+00  0.00000000000E+00  0.74505805969E-08  0.10566000000E+00  0.10566000000E+00 0.  1.
     999900   -1    0    0    0    0 -0.00000000000E+00 -0.00000000000E+00 -0.74505805969E-08  0.93827000000E+00  0.93827000000E+00 0.  1.
     999902    2    1    2    0    0 -0.89147234233E-02  0.21840874720E-01 -0.82158271426E-04  0.10203396873E+01  0.10200669462E+01 0.  0.
     999903    2    3    3    0    0 -0.60401112951E-01 -0.37859819084E-01 -0.10722835598E+00  0.13034231158E+00  0.20237033264E-01 0.  0.
         14    1    1    2    0    0  0.89147234233E-02 -0.21840874720E-01  0.82158271426E-04  0.23590312678E-01  0.00000000000E+00 0. -1.
     999901    1    3    3    0    0  0.51486389527E-01  0.59700693804E-01  0.10714619771E+00  0.88999737574E+00  0.88000000000E+00 0. -1.
        -11    1    4    4    0    0 -0.13207177217E-01 -0.16871478797E-01 -0.41875731396E-01  0.47041623354E-01  0.51100000000E-03 0. -1.
         11    1    4    4    0    0 -0.47193935734E-01 -0.20988340287E-01 -0.65352624581E-01  0.83300688225E-01  0.51100000000E-03 0.  1.
</event>
<event>
 8    1  0.1095698E+005  0.1043930E+01  0.7957747E-01            NaN
         13   -1    0    0    0    0  0.00000000000E+00  0.00000000000E+00  0.74505805969E-08  0.10566000000E+00  0.10566000000E+00 0. -1.
     999900   -1    0    0    0    0 -0.00000000000E+00 -0.00000000000E+00 -0.74505805969E-08  0.93827000000E+00  0.93827000000E+00 0. -1.
     999902    2    1    2    0    0  0.15938146701E-01  0.33085064201E-02  0.17184863605E-01  0.10202595485E+01  0.10199849294E+01 0.  0.
     999903    2    3    3    0    0  0.82867940308E-01 -0.99515770968E-01  0.13726784392E-01  0.13174146341E+00  0.19922458944E-01 0.  0.
         14    1    1    2    0    0 -0.15938146701E-01 -0.33085064201E-02 -0.17184863605E-01  0.23670451456E-01  0.00000000000E+00 0.  1.
     999901    1    3    3    0    0 -0.66929793607E-01  0.10282427739E+00  0.34580792132E-02  0.88851808513E+00  0.88000000000E+00 0. -1.
        -11    1    4    4    0    0  0.27361420760E-01 -0.47296967079E-01  0.90476572493E-02  0.55387468471E-01  0.51100000000E-03 0.  1.
         11    1    4    4    0    0  0.55506519548E-01 -0.52218803889E-01  0.46791271426E-02  0.76353994943E-01  0.51100000000E-03 0. -1.
</event>
<event>
 8    1  0.1095698E+005  0.1043930E+01  0.7957747E-01            NaN
         13   -1    0    0    0    0  0.00000000000E+00  0.00000000000E+00  0.74505805969E-08  0.10566000000E+00  0.10566000000E+00 0. -1.
     999900   -1    0    0    0    0 -0.00000000000E+00 -0.00000000000E+00 -0.74505805969E-08  0.93827000000E+00  0.93827000000E+00 0. -1.
     999902    2    1    2    0    0  0.20357743583E-01  0.12716340085E-01  0.21662102717E-02  0.10198294710E+01  0.10195446604E+01 0.  0.
     999903    2    3    3    0    0 -0.11139786191E+00 -0.49805594681E-01 -0.30427021292E-01  0.12723166091E+00  0.19287587074E-01 0.  0.
         14    1    1    2    0    0 -0.20357743583E-01 -0.12716340085E-01 -0.21662102717E-02  0.24100528955E-01  0.00000000000E+00 0.  1.
     999901    1    3    3    0    0  0.13175560549E+00  0.62521934766E-01  0.32593231563E-01  0.89259781013E+00  0.88000000000E+00 0. -1.
        -11    1    4    4    0    0 -0.64003436217E-01 -0.22523822321E-01 -0.87946000707E-02  0.68420527117E-01  0.51100000000E-03 0.  1.
         11    1    4    4    0    0 -0.47394425691E-01 -0.27281772360E-01 -0.21632421221E-01  0.58811133798E-01  0.51100000000E-03 0. -1.
</event>
<event>
 7    1  0.1095698E+005  0.1043930E+01  0.7957747E-01            NaN
         13   -1    0    0    0    0  0.00000000000E+00  0.00000000000E+00  0.74505805969E-08  0.10566000000E+00  0.10566000000E+00 0.  1.
     999900   -1    0    0    0    0 -0.00000000000E+00 -0.00000000000E+00 -0.74505805969E-08  0.93827000000E+00  0.93827000000E+00 0.  1.
     999903    2    1    2    0    0 -0.10107245526E-02  0.84875450374E-01 -0.77647954457E-01  0.11690697139E+00  0.20812772244E-01 0.  0.
         14    1    1    2    0    0  0.33280070329E-01 -0.23919281631E-01  0.60057033312E-02  0.41421776728E-01  0.00000000000E+00 0. -1.
     999901    1    1    2    0    0 -0.32269345776E-01 -0.60956168743E-01  0.71642251125E-01  0.88560125188E+00  0.88000000000E+00 0. -1.
        -11    1    3    3    0    0 -0.61173499818E-03  0.25888175109E-01 -0.11686295123E-01  0.28414827906E-01  0.51100000000E-03 0.  1.
         11    1    3    3    0    0 -0.39898955437E-03  0.58987275264E-01 -0.65961659334E-01  0.88492143486E-01  0.51100000000E-03 0. -1.
</event>
<event>
 8    1  0.1095698E+005  0.1043930E+01  0.7957747E-01            NaN
         13   -1    0    0    0    0  0.00000000000E+00  0.00000000000E+00  0.74505805969E-08  0.10566000000E+00  0.10566000000E+00 0. -1.
     999900   -1    0    0    0    0 -0.00000000000E+00 -0.00000000000E+00 -0.74505805969E-08  0.93827000000E+00  0.93827000000E+00 0.  1.
     999902    2    1    2    0    0 -0.44915260268E-02 -0.22647330631E-01  0.65309253546E-02  0.10199356595E+01  0.10196533828E+01 0.  0.
     999903    2    3    3    0    0 -0.10059853250E+00  0.54905083938E-01 -0.56190822148E-01  0.12910180780E+00  0.19370991189E-01 0.  0.
         14    1    1    2    0    0  0.44915260268E-02  0.22647330631E-01 -0.65309253546E-02  0.23994340515E-01  0.00000000000E+00 0.  1.
     999901    1    3    3    0    0  0.96107006476E-01 -0.77552414568E-01  0.62721747502E-01  0.89083385169E+00  0.88000000000E+00 0. -1.
        -11    1    4    4    0    0 -0.21587945571E-01  0.32688378525E-02 -0.10934063890E-01  0.24424159536E-01  0.51100000000E-03 0. -1.
         11    1    4    4    0    0 -0.79010586932E-01  0.51636246085E-01 -0.45256758258E-01  0.10467764826E+00  0.51100000000E-03 0.  1.
</event>
<event>
 8    1  0.1095698E+005  0.1043930E+01  0.7957747E-01            NaN
         13   -1    0    0    0    0  0.00000000000E+00  0.00000000000E+00  0.74505805969E-08  0.10566000000E+00  0.10566000000E+00 0.  1.
     999900   -1    0    0    0    0 -0.00000000000E+00 -0.00000000000E+00 -0.74505805969E-08  0.93827000000E+00  0.93827000000E+00 0. -1.
     999902    2    1    2    0    0  0.14534929618E-02  0.23243165776E-01  0.18700608870E-02  0.10205664702E+01  0.10202990079E+01 0.  0.
     999903    2    3    3    0    0  0.12002597427E+00  0.36119533334E-01 -0.35155725456E-01  0.13174919819E+00  0.20274886027E-01 0.  0.
         14    1    1    2    0    0 -0.14534929618E-02 -0.23243165776E-01 -0.18700608870E-02  0.23363529802E-01  0.00000000000E+00 0. -1.
     999901    1    3    3    0    0 -0.11857248131E+00 -0.12876367558E-01  0.37025786342E-01  0.88881727201E+00  0.88000000000E+00 0. -1.
        -11    1    4    4    0    0  0.79859910567E-01  0.26808334402E-01 -0.13972727354E-01  0.85391980537E-01  0.51100000000E-03 0. -1.
         11    1    4    4    0    0  0.40166063704E-01  0.93111989323E-02 -0.21182998101E-01  0.46357217653E-01  0.51100000000E-03 0.  1.
</event>
<event>
 8    1  0.1095698E+005  0.1043930E+01  0.7957747E-01            NaN
         13   -1    0    0    0    0  0.00000000000E+00  0.00000000000E+00  0.74505805969E-08  0.10566000000E+00  0.10566000000E+00 0.  1.
     999900   -1    0    0    0    0 -0.00000000000E+00 -0.00000000000E+00 -0.74505805969E-08  0.93827000000E+00  0.93827000000E+00 0.  1.
     999902    2    1    2    0    0  0.12061010848E-01 -0.18321697855E-01 -0.75430900930E-02  0.10207340779E+01  0.10204704831E+01 0.  0.
     999903    2    3    3    0    0 -0.11750407881E+00  0.47845689504E-01  0.67624197743E-02  0.12867472827E+00  0.20372452798E-01 0.  0.
         14    1    1    2    0    0 -0.12061010848E-01  0.18321697855E-01  0.75430900930E-02  0.23195922122E-01  0.00000000000E+00 0.  1.
     999901    1    3    3    0    0  0.12956508966E+00 -0.66167387359E-01 -0.14305509867E-01  0.89205934961E+00  0.88000000000E+00 0.  1.
        -11    1    4    4    0    0 -0.27516933417E-01  0.22499542431E-02  0.11107066480E-02  0.27635822931E-01  0.51100000000E-03 0.  1.
         11    1    4    4    0    0 -0.89987145394E-01  0.45595735261E-01  0.56517131263E-02  0.10103890534E+00  0.51100000000E-03 0. -1.
</event>
<event>
 8    1  0.1095698E+005  0.1043930E+01  0.7957747E-01            NaN
         13   -1    0    0    0    0  0.00000000000E+00  0.00000000000E+00  0.74505805969E-08  0.10566000000E+00  0.10566000000E+00 0. -1.
     999900   -1    0    0    0    0 -0.00000000000E+00 -0.00000000000E+00 -0.74505805969E-08  0.93827000000E+00  0.93827000000E+00 0. -1.
     999902    2    1    2    0    0 -0.11917708760E-01  0.12610686319E-01  0.81570283736E-02  0.10247571467E+01  0.10245777723E+01 0.  0.
     999903    2    3    3    0    0 -0.75788391438E-01  0.99172673579E-01  0.53154119300E-01  0.13706509428E+00  0.19554544498E-01 0.  0.
         14    1    1    2    0    0  0.11917708760E-01 -0.12610686319E-01 -0.81570283736E-02  0.19172853293E-01  0.00000000000E+00 0.  1.
     999901    1    3    3    0    0  0.63870682678E-01 -0.86561987260E-01 -0.44997090926E-01  0.88769205242E+00  0.88000000000E+00 0.  1.
        -11    1    4    4    0    0 -0.25889966665E-01  0.47295036916E-01  0.17155649824E-01  0.56583463421E-01  0.51100000000E-03 0. -1.
         11    1    4    4    0    0 -0.49898424773E-01  0.51877636664E-01  0.35998469476E-01  0.80481630862E-01  0.51100000000E-03 0.  1.
</event>
<event>
 8    1  0.1095698E+005  0.1043930E+01  0.7957747E-01            NaN
         13   -1    0    0    0    0  0.00000000000E+00  0.00000000000E+00  0.74505805969E-08  0.10566000000E+00  0.10566000000E+00 0. -1.
     999900   -1    0    0    0    0 -0.00000000000E+00 -0.00000000000E+00 -0.74505805969E-08  0.93827000000E+00  0.93827000000E+00 0. -1.
     999902    2    1    2    0    0 -0.19856085878E-01 -0.17829462535E-03 -0.11919374268E-01  0.10207703925E+01  0.10205076319E+01 0.  0.
     999903    2    3    3    0    0 -0.59652786160E-01 -0.85432840027E-01 -0.80783403673E-01  0.13307992316E+00  0.18085424701E-01 0.  0.
         14    1    1    2    0    0  0.19856085878E-01  0.17829462535E-03  0.11919374268E-01  0.23159607473E-01  0.00000000000E+00 0. -1.
     999901    1    3    3    0    0  0.39796700282E-01  0.85254545402E-01  0.68864029405E-01  0.88769046937E+00  0.88000000000E+00 0.  1.
        -11    1    4    4    0    0 -0.14486942819E-01 -0.13197086940E-01 -0.22573689293E-01  0.29897611698E-01  0.51100000000E-03 0.  1.
         11    1    4    4    0    0 -0.45165843341E-01 -0.72235753087E-01 -0.58209714380E-01  0.10318231146E+00  0.51100000000E-03 0. -1.
</event>
<event>
 8    1  0.1095698E+005  0.1043930E+01  0.7957747E-01            NaN
         13   -1    0    0    0    0  0.00000000000E+00  0.00000000000E+00  0.74505805969E-08  0.10566000000E+00  0.10566000000E+00 0. -1.
     999900   -1    0    0    0    0 -0.00000000000E+00 -0.00000000000E+00 -0.74505805969E-08  0.93827000000E+00  0.93827000000E+00 0.  1.
     999902    2    1    2    0    0 -0.51740164939E-02  0.22538782524E-01 -0.45706224137E-02  0.10203576061E+01  0.10200852840E+01 0.  0.
     999903    2    3    3    0    0  0.78904358352E-02  0.25832633455E-01  0.12611615161E+00  0.13060451549E+00  0.20558984389E-01 0.  0.
         14    1    1    2    0    0  0.51740164939E-02 -0.22538782524E-01  0.45706224137E-02  0.23572393887E-01  0.00000000000E+00 0. -1.
     999901    1    3    3    0    0 -0.13064452329E-01 -0.32938509311E-02 -0.13068677403E+00  0.88975309062E+00  0.88000000000E+00 0.  1.
        -11    1    4    4    0    0 -0.33560658304E-02  0.94529808820E-02  0.76482915196E-01  0.77139610210E-01  0.51100000000E-03 0. -1.
         11    1    4    4    0    0  0.11246501666E-01  0.16379652573E-01  0.49633236419E-01  0.53464905279E-01  0.51100000000E-03 0.  1.
</event>
<event>
 8    1  0.1095698E+005  0.1043930E+01  0.7957747E-01            NaN
         13   -1    0    0    0    0  0.00000000000E+00  0.00000000000E+00  0.74505805969E-08  0.10566000000E+00  0.10566000000E+00 0. -1.
     999900   -1    0    0    0    0 -0.00000000000E+00 -0.00000000000E+00 -0.74505805969E-08  0.93827000000E+00  0.93827000000E+00 0.  1.
     999902    2    1    2    0    0  0.19270727852E-01 -0.72840066510E-04  0.14438277094E-01  0.10198503384E+01  0.10195660266E+01 0.  0.
     999903    2    3    3    0    0 -0.41665246052E-01 -0.70271146567E-01 -0.96377699745E-01  0.12804252509E+00  0.20789431312E-01 0.  0.
         14    1    1    2    0    0 -0.19270727852E-01  0.72840066510E-04 -0.14438277094E-01  0.24079661606E-01  0.00000000000E+00 0.  1.
     999901    1    3    3    0    0  0.60935973904E-01  0.70198306501E-01  0.11081597684E+00  0.89180781331E+00  0.88000000000E+00 0. -1.
        -11    1    4    4    0    0 -0.16823247346E-01 -0.41909277256E-01 -0.40685945744E-01  0.60786647164E-01  0.51100000000E-03 0.  1.
         11    1    4    4    0    0 -0.24841998706E-01 -0.28361869311E-01 -0.55691754002E-01  0.67255877924E-01  0.51100000000E-03 0. -1.
</event>
<event>
 8    1  0.1095698E+005  0.1043930E+01  0.7957747E-01            NaN
         13   -1    0    0    0    0  0.00000000000E+00  0.00000000000E+00  0.74505805969E-08  0.10566000000E+00  0.10566000000E+00 0. -1.
     999900   -1    0    0    0    0 -0.00000000000E+00 -0.00000000000E+00 -0.74505805969E-08  0.93827000000E+00  0.93827000000E+00 0.  1.
     999902    2    1    2    0    0 -0.19194393695E-01  0.17059077910E-02  0.13941853278E-01  0.10201453381E+01  0.10198680310E+01 0.  0.
     999903    2    3    3    0    0 -0.90642905762E-01 -0.54153256149E-01  0.78581869891E-01  0.13312590884E+00  0.19967118264E-01 0.  0.
         14    1    1    2    0    0  0.19194393695E-01 -0.17059077910E-02 -0.13941853278E-01  0.23784661939E-01  0.00000000000E+00 0.  1.
     999901    1    3    3    0    0  0.71448512067E-01  0.55859163940E-01 -0.64640016612E-01  0.88701942922E+00  0.88000000000E+00 0.  1.
        -11    1    4    4    0    0 -0.48858123156E-01 -0.19326268439E-01  0.32097859832E-01  0.61572352375E-01  0.51100000000E-03 0. -1.
         11    1    4    4    0    0 -0.41784782605E-01 -0.34826987711E-01  0.46484010058E-01  0.71553556463E-01  0.51100000000E-03 0.  1.
</event>
<event>
 8    1  0.1095698E+005  0.1043930E+01  0.7957747E-01            NaN
         13   -1    0    0    0    0  0.00000000000E+00  0.00000000000E+00  0.74505805969E-08  0.10566000000E+00  0.10566000000E+00 0.  1.
     999900   -1    0    0    0    0 -0.00000000000E+00 -0.00000000000E+00 -0.74505805969E-08  0.93827000000E+00  0.93827000000E+00 0.  1.
     999902    2    1    2    0    0 -0.20869261339E-01 -0.99860668607E-02  0.84865700294E-02  0.10192871619E+01  0.10189892290E+01 0.  0.
     999903    2    3    3    0    0 -0.12018440810E+00 -0.44368117133E-01  0.28914924322E-01  0.13279805228E+00  0.19657773848E-01 0.  0.
         14    1    1    2    0    0  0.20869261339E-01  0.99860668607E-02 -0.84865700294E-02  0.24642838129E-01  0.00000000000E+00 0.  1.
     999901    1    3    3    0    0  0.99315146765E-01  0.34382050272E-01 -0.20428354293E-01  0.88648910959E+00  0.88000000000E+00 0.  1.
        -11    1    4    4    0    0 -0.53511530422E-01 -0.23305844495E-01  0.37647135309E-02  0.58490003118E-01  0.51100000000E-03 0. -1.
         11    1    4    4    0    0 -0.66672877682E-01 -0.21062272638E-01  0.25150210791E-01  0.74308049166E-01  0.51100000000E-03 0.  1.
</event>
<event>
 7    1  0.1590654E+005  0.1043930E+01  0.7957747E-01            NaN
         13   -1    0    0    0    0  0.00000000000E+00  0.00000000000E+00  0.74505805969E-08  0.10566000000E+00  0.10566000000E+00 0. -1.
     999900   -1    0    0    0    0 -0.00000000000E+00 -0.00000000000E+00 -0.74505805969E-08  0.93827000000E+00  0.93827000000E+00 0.  1.
     999903    2    1    2    0    0  0.62957436048E-03  0.85964449832E-01  0.69964952233E-01  0.11286862705E+00  0.21306089097E-01 0.  0.
         14    1    1    2    0    0 -0.52805804092E-02  0.38881749346E-01  0.22885009874E-02  0.39305371114E-01  0.00000000000E+00 0. -1.
     999901    1    1    2    0    0  0.46510060487E-02 -0.12484619918E+00 -0.72253453220E-01  0.89175600183E+00  0.88000000000E+00 0.  1.
        -11    1    3    3    0    0 -0.38690641644E-02  0.26966297796E-01  0.34204085596E-01  0.43730212289E-01  0.51100000000E-03 0. -1.
         11    1    3    3    0    0  0.44986385249E-02  0.58998152036E-01  0.35760866636E-01  0.69138414762E-01  0.51100000000E-03 0.  1.
</event>
<event>
 8    1  0.1095698E+005  0.1043930E+01  0.7957747E-01            NaN
         13   -1    0    0    0    0  0.00000000000E+00  0.00000000000E+00  0.74505805969E-08  0.10566000000E+00  0.10566000000E+00 0. -1.
     999900   -1    0    0    0    0 -0.00000000000E+00 -0.00000000000E+00 -0.74505805969E-08  0.93827000000E+00  0.93827000000E+00 0.  1.
     999902    2    1    2    0    0 -0.17566149696E-01  0.14756789132E-01  0.13344392368E-02  0.10209492870E+01  0.10206906160E+01 0.  0.
     999903    2    3    3    0    0  0.59723697236E-01  0.30714810111E-01 -0.11017665614E+00  0.13040838215E+00  0.18897910057E-01 0.  0.
         14    1    1    2    0    0  0.17566149696E-01 -0.14756789132E-01 -0.13344392368E-02  0.22980712973E-01  0.00000000000E+00 0. -1.
     999901    1    3    3    0    0 -0.77289846933E-01 -0.15958020979E-01  0.11151109538E+00  0.89054090488E+00  0.88000000000E+00 0. -1.
        -11    1    4    4    0    0  0.60103249525E-02  0.87511044246E-02 -0.26735383648E-01  0.28770604694E-01  0.51100000000E-03 0. -1.
         11    1    4    4    0    0  0.53713372284E-01  0.21963705686E-01 -0.83441272491E-01  0.10163777745E+00  0.51100000000E-03 0.  1.
</event>
<event>
 8    1  0.1095698E+005  0.1043930E+01  0.7957747E-01            NaN
         13   -1    0    0    0    0  0.00000000000E+00  0.00000000000E+00  0.74505805969E-08  0.10566000000E+00  0.10566000000E+00 0.  1.
     999900   -1    0    0    0    0 -0.00000000000E+00 -0.00000000000E+00 -0.74505805969E-08  0.93827000000E+00  0.93827000000E+00 0. -1.
     999902    2    1    2    0    0 -0.12747486081E-01  0.72079489804E-02 -0.16239073660E-01  0.10220631199E+01  0.10218291739E+01 0.  0.
     999903    2    3    3    0    0  0.11749488515E+00 -0.15381265124E-02 -0.55809109750E-01  0.13155463775E+00  0.19610000348E-01 0.  0.
         14    1    1    2    0    0  0.12747486081E-01 -0.72079489804E-02  0.16239073660E-01  0.21866880053E-01  0.00000000000E+00 0.  1.
     999901    1    3    3    0    0 -0.13024237123E+00  0.87460754928E-02  0.39570036090E-01  0.89050848219E+00  0.88000000000E+00 0. -1.
        -11    1    4    4    0    0  0.99406610840E-01  0.40599724497E-03 -0.54351105546E-01  0.11329670299E+00  0.51100000000E-03 0. -1.
         11    1    4    4    0    0  0.18088274311E-01 -0.19441237573E-02 -0.14580042047E-02  0.18257934768E-01  0.51100000000E-03 0.  1.
</event>
<event>
 8    1  0.1095698E+005  0.1043930E+01  0.7957747E-01            NaN
         13   -1    0    0    0    0  0.00000000000E+00  0.00000000000E+00  0.74505805969E-08  0.10566000000E+00  0.10566000000E+00 0.  1.
     999900   -1    0    0    0    0 -0.00000000000E+00 -0.00000000000E+00 -0.74505805969E-08  0.93827000000E+00  0.93827000000E+00 0. -1.
     999902    2    1    2    0    0 -0.19101633094E-01 -0.12264590917E-01  0.46075962106E-02  0.10207670442E+01  0.10205042068E+01 0.  0.
     999903    2    3    3    0    0  0.96926742598E-03 -0.85310792612E-02 -0.12870801334E+00  0.13049190029E+00  0.19714577145E-01 0.  0.
         14    1    1    2    0    0  0.19101633094E-01  0.12264590917E-01 -0.46075962106E-02  0.23162955771E-01  0.00000000000E+00 0. -1.
     999901    1    3    3    0    0 -0.20070900520E-01 -0.37335116558E-02  0.13331560955E+00  0.89027514393E+00  0.88000000000E+00 0.  1.
        -11    1    4    4    0    0  0.31898412671E-02 -0.14482382473E-01 -0.79492184789E-01  0.80865215346E-01  0.51100000000E-03 0. -1.
         11    1    4    4    0    0 -0.22205738411E-02  0.59513032114E-02 -0.49215828550E-01  0.49626684949E-01  0.51100000000E-03 0.  1.
</event>
<event>
 8    1  0.1095698E+005  0.1043930E+01  0.7957747E-01            NaN
         13   -1    0    0    0    0  0.00000000000E+00  0.00000000000E+00  0.74505805969E-08  0.10566000000E+00  0.10566000000E+00 0. -1.
     999900   -1    0    0    0    0 -0.00000000000E+00 -0.00000000000E+00 -0.74505805969E-08  0.93827000000E+00  0.93827000000E+00 0.  1.
     999902    2    1    2    0    0 -0.17303616071E-01  0.95565650185E-02  0.13860579211E-01  0.10197875328E+01  0.10195017182E+01 0.  0.
     999903    2    3    3    0    0  0.21769830819E-01  0.68663508850E-01  0.10794708414E+00  0.13194034134E+00  0.23813393622E-01 0.  0.
         14    1    1    2    0    0  0.17303616071E-01 -0.95565650185E-02 -0.13860579211E-01  0.24142467152E-01  0.00000000000E+00 0.  1.
     999901    1    3    3    0    0 -0.39073446890E-01 -0.59106943831E-01 -0.94086504934E-01  0.88784719151E+00  0.88000000000E+00 0.  1.
        -11    1    4    4    0    0  0.23917827708E-01  0.40066312194E-01  0.74161800593E-01  0.87621947269E-01  0.51100000000E-03 0.  1.
         11    1    4    4    0    0 -0.21479968891E-02  0.28597196656E-01  0.33785283552E-01  0.44318394070E-01  0.51100000000E-03 0. -1.
</event>
<event>
 8    1  0.1095698E+005  0.1043930E+01  0.7957747E-01            NaN
         13   -1    0    0    0    0  0.00000000000E+00  0.00000000000E+00  0.74505805969E-08  0.10566000000E+00  0.10566000000E+00 0.  1.
     999900   -1    0    0    0    0 -0.00000000000E+00 -0.00000000000E+00 -0.74505805969E-08  0.93827000000E+00  0.93827000000E+00 0. -1.
     999902    2    1    2    0    0  0.89210302905E-02  0.17520615503E-01  0.12549966285E-01  0.10206049405E+01  0.10203383684E+01 0.  0.
     999903    2    3    3    0    0  0.58228038628E-02  0.13069451889E+00  0.18655463957E-01  0.13333090809E+00  0.17724062806E-01 0.  0.
         14    1    1    2    0    0 -0.89210302905E-02 -0.17520615503E-01 -0.12549966285E-01  0.23325059545E-01  0.00000000000E+00 0. -1.
     999901    1    3    3    0    0  0.30982264278E-02 -0.11317390339E+00 -0.61054976714E-02  0.88727403237E+00  0.88000000000E+00 0.  1.
        -11    1    4    4    0    0  0.10232553612E-01  0.10406099962E+00  0.10317741970E-01  0.10507194542E+00  0.51100000000E-03 0. -1.
         11    1    4    4    0    0 -0.44097497495E-02  0.26633519274E-01  0.83377219869E-02  0.28258962661E-01  0.51100000000E-03 0.  1.
</event>
<event>
 8    1  0.1095698E+005  0.1043930E+01  0.7957747E-01            NaN
         13   -1    0    0    0    0  0.00000000000E+00  0.00000000000E+00  0.74505805969E-08  0.10566000000E+00  0.10566000000E+00 0. -1.
     999900   -1    0    0    0    0 -0.00000000000E+00 -0.00000000000E+00 -0.74505805969E-08  0.93827000000E+00  0.93827000000E+00 0. -1.
     999902    2    1    2    0    0  0.22709107719E-01  0.49647505887E-03  0.75545891737E-02  0.10199921246E+01  0.10197111907E+01 0.  0.
     999903    2    3    3    0    0  0.11716508048E+00  0.19053259910E-01 -0.55394411138E-01  0.13250755477E+00  0.19975697451E-01 0.  0.
         14    1    1    2    0    0 -0.22709107719E-01 -0.49647505887E-03 -0.75545891737E-02  0.23937875396E-01  0.00000000000E+00 0.  1.
     999901    1    3    3    0    0 -0.94455972761E-01 -0.18556784851E-01  0.62949000312E-01  0.88748456983E+00  0.88000000000E+00 0. -1.
        -11    1    4    4    0    0  0.64570271466E-01  0.10307562884E-01 -0.41358921372E-01  0.77371747478E-01  0.51100000000E-03 0.  1.
         11    1    4    4    0    0  0.52594809014E-01  0.87456970256E-02 -0.14035489766E-01  0.55135807291E-01  0.51100000000E-03 0. -1.
</event>
<event>
 8    1  0.1095698E+005  0.1043930E+01  0.7957747E-01            NaN
         13   -1    0    0    0    0  0.00000000000E+00  0.00000000000E+00  0.74505805969E-08  0.10566000000E+00  0.10566000000E+00 0.  1.
     999900   -1    0    0    0    0 -0.00000000000E+00 -0.00000000000E+00 -0.74505805969E-08  0.93827000000E+00  0.93827000000E+00 0. -1.
     999902    2    1    2    0    0  0.13616539134E-01 -0.14085999623E-01 -0.16124565577E-01  0.10185562510E+01  0.10182401531E+01 0.  0.
     999903    2    3    3    0    0 -0.12438423130E+00  0.51362782286E-02  0.16376367629E-01  0.12700141855E+00  0.19061913526E-01 0.  0.
         14    1    1    2    0    0 -0.13616539134E-01  0.14085999623E-01  0.16124565577E-01  0.25373749002E-01  0.00000000000E+00 0.  1.
     999901    1    3    3    0    0  0.13800077043E+00 -0.19222277852E-01 -0.32500933205E-01  0.89155483245E+00  0.88000000000E+00 0. -1.
        -11    1    4    4    0    0 -0.43803777038E-01  0.10206863678E-01  0.22733306900E-02  0.45037541033E-01  0.51100000000E-03 0.  1.
         11    1    4    4    0    0 -0.80580454259E-01 -0.50705854494E-02  0.14103036939E-01  0.81963877515E-01  0.51100000000E-03 0. -1.
</event>
<event>
 8    1  0.1095698E+005  0.1043930E+01  0.7957747E-01            NaN
         13   -1    0    0    0    0  0.00000000000E+00  0.00000000000E+00  0.74505805969E-08  0.10566000000E+00  0.10566000000E+00 0. -1.
     999900   -1    0    0    0    0 -0.00000000000E+00 -0.00000000000E+00 -0.74505805969E-08  0.93827000000E+00  0.93827000000E+00 0.  1.
     999902    2    1    2    0    0  0.17148355117E-01 -0.13284765643E-01  0.85512066876E-02  0.10206131774E+01  0.10203467958E+01 0.  0.
     999903    2    3    3    0    0  0.44896116224E-01  0.11892677306E+00  0.19311655138E-01  0.13023931407E+00  0.20738859725E-01 0.  0.
         14    1    1    2    0    0 -0.17148355117E-01  0.13284765643E-01 -0.85512066876E-02  0.23316822623E-01  0.00000000000E+00 0.  1.
     999901    1    3    3    0    0 -0.27747761107E-01 -0.13221153870E+00 -0.10760448451E-01  0.89037386331E+00  0.88000000000E+00 0. -1.
        -11    1    4    4    0    0  0.83534524867E-02  0.37620792894E-01 -0.19750065061E-02  0.38591009291E-01  0.51100000000E-03 0. -1.
         11    1    4    4    0    0  0.36542663737E-01  0.81305980165E-01  0.21286661644E-01  0.91648304777E-01  0.51100000000E-03 0.  1.
</event>
<event>
 8    1  0.1185289E+005  0.1043930E+01  0.7957747E-01            NaN
         13   -1    0    0    0    0  0.00000000000E+00  0.00000000000E+00  0.74505805969E-08  0.10566000000E+00  0.10566000000E+00 0.  1.
     999900   -1    0    0    0    0 -0.00000000000E+00 -0.00000000000E+00 -0.74505805969E-08  0.93827000000E+00  0.93827000000E+00 0. -1.
     999902    2    1    2    0    0 -0.17537294056E-01 -0.16002562451E-01  0.27101588108E-02  0.10200347359E+01  0.10197548130E+01 0.  0.
     999903    2    3    3    0    0  0.26223678890E-01 -0.10216144097E+00  0.76393401869E-01  0.13168368170E+00  0.19493558483E-01 0.  0.
         14    1    1    2    0    0  0.17537294056E-01  0.16002562451E-01 -0.27101588108E-02  0.23895264146E-01  0.00000000000E+00 0. -1.
     999901    1    3    3    0    0 -0.43760972947E-01  0.86158878520E-01 -0.73683243058E-01  0.88835105415E+00  0.88000000000E+00 0. -1.
        -11    1    4    4    0    0  0.13190682846E-01 -0.73155460130E-01  0.61894358834E-01  0.96731009699E-01  0.51100000000E-03 0.  1.
         11    1    4    4    0    0  0.13032996045E-01 -0.29005980841E-01  0.14499043035E-01  0.34952672006E-01  0.51100000000E-03 0. -1.
</event>
<event>
 8    1  0.1095698E+005  0.1043930E+01  0.7957747E-01            NaN
         13   -1    0    0    0    0  0.00000000000E+00  0.00000000000E+00  0.74505805969E-08  0.10566000000E+00  0.10566000000E+00 0.  1.
     999900   -1    0    0    0    0 -0.00000000000E+00 -0.00000000000E+00 -0.74505805969E-08  0.93827000000E+00  0.93827000000E+00 0. -1.
     999902    2    1    2    0    0  0.14168926167E-01 -0.16901128602E-01  0.96450802939E-02  0.10198585607E+01  0.10195744454E+01 0.  0.
     999903    2    3    3    0    0  0.55445617926E-01 -0.11800250944E+00  0.17752560359E-01  0.13307167213E+00  0.19852147027E-01 0.  0.
         14    1    1    2    0    0 -0.14168926167E-01  0.16901128602E-01 -0.96450802939E-02  0.24071439313E-01  0.00000000000E+00 0.  1.
     999901    1    3    3    0    0 -0.41276691759E-01  0.10110138084E+00 -0.81074800647E-02  0.88678688856E+00  0.88000000000E+00 0. -1.
        -11    1    4    4    0    0  0.11790579486E-01 -0.44643440655E-01  0.17005168822E-02  0.46208304847E-01  0.51100000000E-03 0. -1.
         11    1    4    4    0    0  0.43655038440E-01 -0.73359068786E-01  0.16052043476E-01  0.86863367279E-01  0.51100000000E-03 0.  1.
</event>
<event>
 8    1  0.1095698E+005  0.1043930E+01  0.7957747E-01            NaN
         13   -1    0    0    0    0  0.00000000000E+00  0.00000000000E+00  0.74505805969E-08  0.10566000000E+00  0.10566000000E+00 0.  1.
     999900   -1    0    0    0    0 -0.00000000000E+00 -0.00000000000E+00 -0.74505805969E-08  0.93827000000E+00  0.93827000000E+00 0.  1.
     999902    2    1    2    0    0 -0.44461301360E-02  0.12232206117E-01  0.20264128676E-01  0.10198461911E+01  0.10195617802E+01 0.  0.
     999903    2    3    3    0    0 -0.95638151729E-01 -0.12709484514E-01 -0.82888393281E-01  0.12879147028E+00  0.20213114857E-01 0.  0.
         14    1    1    2    0    0  0.44461301360E-02 -0.12232206117E-01 -0.20264128676E-01  0.24083808891E-01  0.00000000000E+00 0. -1.
     999901    1    3    3    0    0  0.91192021593E-01  0.24941690631E-01  0.10315252196E+00  0.89105472083E+00  0.88000000000E+00 0. -1.
        -11    1    4    4    0    0 -0.36412422358E-01  0.37615254646E-02 -0.37236180989E-01  0.52218845942E-01  0.51100000000E-03 0. -1.
         11    1    4    4    0    0 -0.59225729371E-01 -0.16471009978E-01 -0.45652212292E-01  0.76572624334E-01  0.51100000000E-03 0.  1.
</event>
<event>
 8    1  0.1095698E+005  0.1043930E+01  0.7957747E-01            NaN
         13   -1    0    0    0    0  0.00000000000E+00  0.00000000000E+00  0.74505805969E-08  0.10566000000E+00  0.10566000000E+00 0. -1.
     999900   -1    0    0    0    0 -0.00000000000E+00 -0.00000000000E+00 -0.74505805969E-08  0.93827000000E+00  0.93827000000E+00 0.  1.
     999902    2    1    2    0    0  0.11455015452E-01 -0.47867662753E-02  0.17429448418E-01  0.10225310238E+01  0.10223070862E+01 0.  0.
     999903    2    3    3    0    0 -0.81702938060E-01 -0.55077716786E-01 -0.83252967810E-01  0.13048588315E+00  0.19661741519E-01 0.  0.
         14    1    1    2    0    0 -0.11455015452E-01  0.47867662753E-02 -0.17429448418E-01  0.21398976203E-01  0.00000000000E+00 0.  1.
     999901    1    3    3    0    0  0.93157953512E-01  0.50290950511E-01  0.10068241623E+00  0.89204514064E+00  0.88000000000E+00 0. -1.
        -11    1    4    4    0    0 -0.27874974675E-01 -0.23402437127E-01 -0.19741191611E-01  0.41408502072E-01  0.51100000000E-03 0. -1.
         11    1    4    4    0    0 -0.53827963385E-01 -0.31675279659E-01 -0.63511776199E-01  0.89077381083E-01  0.51100000000E-03 0.  1.
</event>
<event>
 8    1  0.1095698E+005  0.1043930E+01  0.7957747E-01            NaN
         13   -1    0    0    0    0  0.00000000000E+00  0.00000000000E+00  0.74505805969E-08  0.10566000000E+00  0.10566000000E+00 0.  1.
     999900   -1    0    0    0    0 -0.00000000000E+00 -0.00000000000E+00 -0.74505805969E-08  0.93827000000E+00  0.93827000000E+00 0. -1.
     999902    2    1    2    0    0 -0.44225889480E-02  0.15653384257E-01  0.74835273960E-03  0.10276466415E+01  0.10275176262E+01 0.  0.
     999903    2    3    3    0    0 -0.60113377125E-01 -0.61422184436E-01 -0.10387681229E+00  0.13636187651E+00  0.20441780356E-01 0.  0.
         14    1    1    2    0    0  0.44225889480E-02 -0.15653384257E-01 -0.74835273960E-03  0.16283358484E-01  0.00000000000E+00 0. -1.
     999901    1    3    3    0    0  0.55690788177E-01  0.77075568693E-01  0.10462516503E+00  0.89128476501E+00  0.88000000000E+00 0. -1.
        -11    1    4    4    0    0 -0.27240302432E-01 -0.30183696616E-01 -0.64782518421E-01  0.76486112673E-01  0.51100000000E-03 0.  1.
         11    1    4    4    0    0 -0.32873074693E-01 -0.31238487821E-01 -0.39094293865E-01  0.59875763836E-01  0.51100000000E-03 0. -1.
</event>
<event>
 8    1  0.1095698E+005  0.1043930E+01  0.7957747E-01            NaN
         13   -1    0    0    0    0  0.00000000000E+00  0.00000000000E+00  0.74505805969E-08  0.10566000000E+00  0.10566000000E+00 0.  1.
     999900   -1    0    0    0    0 -0.00000000000E+00 -0.00000000000E+00 -0.74505805969E-08  0.93827000000E+00  0.93827000000E+00 0.  1.
     999902    2    1    2    0    0 -0.45267263246E-02 -0.18118821255E-01  0.13466157672E-01  0.10209056577E+01  0.10206459923E+01 0.  0.
     999903    2    3    3    0    0 -0.22830434771E-02  0.24428989111E-01 -0.12500949237E+00  0.12905877852E+00  0.20659315907E-01 0.  0.
         14    1    1    2    0    0  0.45267263246E-02  0.18118821255E-01 -0.13466157672E-01  0.23024342278E-01  0.00000000000E+00 0. -1.
     999901    1    3    3    0    0 -0.22436828475E-02 -0.42547810366E-01  0.13847565005E+00  0.89184687920E+00  0.88000000000E+00 0. -1.
        -11    1    4    4    0    0 -0.16335971384E-02  0.27655735600E-01 -0.97907826518E-01  0.10175319143E+00  0.51100000000E-03 0. -1.
         11    1    4    4    0    0 -0.64944633871E-03 -0.32267464894E-02 -0.27101665857E-01  0.27305587097E-01  0.51100000000E-03 0.  1.
</event>
<event>
 8    1  0.1095698E+005  0.1043930E+01  0.7957747E-01            NaN
         13   -1    0    0    0    0  0.00000000000E+00  0.00000000000E+00  0.74505805969E-08  0.10566000000E+00  0.10566000000E+00 0. -1.
     999900   -1    0    0    0    0 -0.00000000000E+00 -0.00000000000E+00 -0.74505805969E-08  0.93827000000E+00  0.93827000000E+00 0.  1.
     999902    2    1    2    0    0  0.12019563724E-01 -0.90988841847E-02  0.17897468859E-01  0.10205295941E+01  0.10202612770E+01 0.  0.
     999903    2    3    3    0    0 -0.68948441286E-01  0.39458285598E-01 -0.98217351747E-01  0.12789514027E+00  0.19991869895E-01 0.  0.
         14    1    1    2    0    0 -0.12019563724E-01  0.90988841847E-02 -0.17897468859E-01  0.23400405917E-01  0.00000000000E+00 0.  1.
     999901    1    3    3    0    0  0.80968005010E-01 -0.48557169782E-01  0.11611482061E+00  0.89263445381E+00  0.88000000000E+00 0. -1.
        -11    1    4    4    0    0 -0.41741994406E-01  0.33782075030E-01 -0.70686823196E-01  0.88772241071E-01  0.51100000000E-03 0.  1.
         11    1    4    4    0    0 -0.27206446880E-01  0.56762105674E-02 -0.27530528552E-01  0.39122899197E-01  0.51100000000E-03 0. -1.
</event>
<event>
 8    1  0.1095698E+005  0.1043930E+01  0.7957747E-01            NaN
         13   -1    0    0    0    0  0.00000000000E+00  0.00000000000E+00  0.74505805969E-08  0.10566000000E+00  0.10566000000E+00 0.  1.
     999900   -1    0    0    0    0 -0.00000000000E+00 -0.00000000000E+00 -0.74505805969E-08  0.93827000000E+00  0.93827000000E+00 0.  1.
     999902    2    1    2    0    0  0.13098376088E-01 -0.56396188624E-02 -0.19522738171E-01  0.10197533571E+01  0.10194667230E+01 0.  0.
     999903    2    3    3    0    0  0.91962450109E-01  0.25385863064E-01 -0.90597738134E-01  0.13282958453E+00  0.18281523402E-01 0.  0.
         14    1    1    2    0    0 -0.13098376088E-01  0.56396188624E-02  0.19522738171E-01  0.24176642917E-01  0.00000000000E+00 0.  1.
     999901    1    3    3    0    0 -0.78864074021E-01 -0.31025481927E-01  0.71074999962E-01  0.88692377255E+00  0.88000000000E+00 0. -1.
        -11    1    4    4    0    0  0.55082102886E-01  0.12813504844E-01 -0.41503582954E-01  0.70150071160E-01  0.51100000000E-03 0.  1.
         11    1    4    4    0    0  0.36880347223E-01  0.12572358221E-01 -0.49094155179E-01  0.62679513370E-01  0.51100000000E-03 0. -1.
</event>
<event>
 8    1  0.1095698E+005  0.1043930E+01  0.7957747E-01            NaN
         13   -1    0    0    0    0  0.00000000000E+00  0.00000000000E+00  0.74505805969E-08  0.10566000000E+00  0.10566000000E+00 0. -1.
     999900   -1    0    0    0    0 -0.00000000000E+00 -0.00000000000E+00 -0.74505805969E-08  0.93827000000E+00  0.93827000000E+00 0.  1.
     999902    2    1    2    0    0 -0.15639681819E-01 -0.92653851482E-02  0.14680783784E-01  0.10205639472E+01  0.10202964265E+01 0.  0.
     999903    2    3    3    0    0 -0.86274632897E-01 -0.96569942245E-01 -0.21135443513E-01  0.13270462046E+00  0.19868147674E-01 0.  0.
         14    1    1    2    0    0  0.15639681819E-01  0.92653851482E-02 -0.14680783784E-01  0.23366052766E-01  0.00000000000E+00 0.  1.
     999901    1    3    3    0    0  0.70634951078E-01  0.87304557097E-01  0.35816227298E-01  0.88785932678E+00  0.88000000000E+00 0. -1.
        -11    1    4    4    0    0 -0.30997780087E-01 -0.25666475506E-01  0.42253553758E-03  0.40250093075E-01  0.51100000000E-03 0.  1.
         11    1    4    4    0    0 -0.55276852810E-01 -0.70903466739E-01 -0.21557979051E-01  0.92454527384E-01  0.51100000000E-03 0. -1.
</event>
<event>
 8    1  0.1095698E+005  0.1043930E+01  0.7957747E-01            NaN
         13   -1    0    0    0    0  0.00000000000E+00  0.00000000000E+00  0.74505805969E-08  0.10566000000E+00  0.10566000000E+00 0. -1.
     999900   -1    0    0    0    0 -0.00000000000E+00 -0.00000000000E+00 -0.74505805969E-08  0.93827000000E+00  0.93827000000E+00 0.  1.
     999902    2    1    2    0    0  0.17338477928E-01 -0.18789256235E-02  0.16096812598E-01  0.10201968891E+01  0.10199207969E+01 0.  0.
     999903    2    3    3    0    0  0.76781049612E-01  0.96923887119E-01  0.42199667285E-01  0.13229105276E+00  0.20749487908E-01 0.  0.
         14    1    1    2    0    0 -0.17338477928E-01  0.18789256235E-02 -0.16096812598E-01  0.23733110925E-01  0.00000000000E+00 0.  1.
     999901    1    3    3    0    0 -0.59442571683E-01 -0.98802812742E-01 -0.26102854687E-01  0.88790583631E+00  0.88000000000E+00 0.  1.
        -11    1    4    4    0    0  0.29237341836E-01  0.34248748774E-01  0.25901323294E-01  0.51951310086E-01  0.51100000000E-03 0. -1.
         11    1    4    4    0    0  0.47543707775E-01  0.62675138344E-01  0.16298343990E-01  0.80339742677E-01  0.51100000000E-03 0.  1.
</event>
<event>
 8    1  0.1095698E+005  0.1043930E+01  0.7957747E-01            NaN
         13   -1    0    0    0    0  0.00000000000E+00  0.00000000000E+00  0.74505805969E-08  0.10566000000E+00  0.10566000000E+00 0.  1.
     999900   -1    0    0    0    0 -0.00000000000E+00 -0.00000000000E+00 -0.74505805969E-08  0.93827000000E+00  0.93827000000E+00 0.  1.
     999902    2    1    2    0    0 -0.64467833848E-02 -0.25008435774E-01 -0.18266266780E-02  0.10180394720E+01  0.10177101980E+01 0.  0.
     999903    2    3    3    0    0  0.60666221601E-01  0.10505917486E+00  0.25535581145E-01  0.12553152850E+00  0.19704772927E-01 0.  0.
         14    1    1    2    0    0  0.64467833848E-02  0.25008435774E-01  0.18266266780E-02  0.25890528015E-01  0.00000000000E+00 0. -1.
     999901    1    3    3    0    0 -0.67113004986E-01 -0.13006761064E+00 -0.27362207823E-01  0.89250794349E+00  0.88000000000E+00 0.  1.
        -11    1    4    4    0    0  0.23080929470E-01  0.24062344005E-01  0.10646702293E-01  0.35004843878E-01  0.51100000000E-03 0.  1.
         11    1    4    4    0    0  0.37585292131E-01  0.80996830857E-01  0.14888878853E-01  0.90526684618E-01  0.51100000000E-03 0. -1.
</event>
<event>
 8    1  0.1095698E+005  0.1043930E+01  0.7957747E-01            NaN
         13   -1    0    0    0    0  0.00000000000E+00  0.00000000000E+00  0.74505805969E-08  0.10566000000E+00  0.10566000000E+00 0. -1.
     999900   -1    0    0    0    0 -0.00000000000E+00 -0.00000000000E+00 -0.74505805969E-08  0.93827000000E+00  0.93827000000E+00 0. -1.
     999902    2    1    2    0    0  0.12957829745E-01 -0.16195520060E-01 -0.99114673471E-02  0.10209422335E+01  0.10206834019E+01 0.  0.
     999903    2    3    3    0    0  0.12364168548E+00 -0.14385432705E-01  0.40488181083E-01  0.13257613958E+00  0.21045971500E-01 0.  0.
         14    1    1    2    0    0 -0.12957829745E-01  0.16195520060E-01  0.99114673471E-02  0.22987766457E-01  0.00000000000E+00 0.  1.
     999901    1    3    3    0    0 -0.11068385574E+00 -0.18100873554E-02 -0.50399648430E-01  0.88836609396E+00  0.88000000000E+00 0.  1.
        -11    1    4    4    0    0  0.57116354366E-01 -0.17193097179E-01  0.19761447811E-01  0.62838335968E-01  0.51100000000E-03 0.  1.
         11    1    4    4    0    0  0.66525331116E-01  0.28076644740E-02  0.20726733271E-01  0.69737803614E-01  0.51100000000E-03 0. -1.
</event>
<event>
 8    1  0.1095698E+005  0.1043930E+01  0.7957747E-01            NaN
         13   -1    0    0    0    0  0.00000000000E+00  0.00000000000E+00  0.74505805969E-08  0.10566000000E+00  0.10566000000E+00 0. -1.
     999900   -1    0    0    0    0 -0.00000000000E+00 -0.00000000000E+00 -0.74505805969E-08  0.93827000000E+00  0.93827000000E+00 0. -1.
     999902    2    1    2    0    0  0.82468656419E-02 -0.19656293312E-01 -0.10612368007E-01  0.10201181749E+01  0.10198402266E+01 0.  0.
     999903    2    3    3    0    0 -0.11633508048E+00  0.37593808471E-01 -0.36413749924E-01  0.12912774467E+00  0.20021685120E-01 0.  0.
         14    1    1    2    0    0 -0.82468656419E-02  0.19656293312E-01  0.10612368007E-01  0.23811825096E-01  0.00000000000E+00 0.  1.
     999901    1    3    3    0    0  0.12458194612E+00 -0.57250101783E-01  0.25801381916E-01  0.89099043023E+00  0.88000000000E+00 0. -1.
        -11    1    4    4    0    0 -0.10078016384E+00  0.38967915036E-01 -0.34272401272E-01  0.11335783358E+00  0.51100000000E-03 0. -1.
         11    1    4    4    0    0 -0.15554916646E-01 -0.13741065656E-02 -0.21413486512E-02  0.15769911089E-01  0.51100000000E-03 0.  1.
</event>
<event>
 8    1  0.1095698E+005  0.1043930E+01  0.7957747E-01            NaN
         13   -1    0    0    0    0  0.00000000000E+00  0.00000000000E+00  0.74505805969E-08  0.10566000000E+00  0.10566000000E+00 0.  1.
     999900   -1    0    0    0    0 -0.00000000000E+00 -0.00000000000E+00 -0.74505805969E-08  0.93827000000E+00  0.93827000000E+00 0. -1.
     999902    2    1    2    0    0  0.16436253113E-01 -0.15791910962E-01 -0.69297677863E-02  0.10201065546E+01  0.10198283317E+01 0.  0.
     999903    2    3    3    0    0 -0.10203643851E+00 -0.59753775785E-01 -0.50543343206E-01  0.13001073496E+00  0.19136696624E-01 0.  0.
         14    1    1    2    0    0 -0.16436253113E-01  0.15791910962E-01  0.69297677863E-02  0.23823445381E-01  0.00000000000E+00 0.  1.
     999901    1    3    3    0    0  0.11847269162E+00  0.43961864823E-01  0.43613575419E-01  0.89009581966E+00  0.88000000000E+00 0. -1.
        -11    1    4    4    0    0 -0.60363881580E-01 -0.45969044961E-01 -0.32876749336E-01  0.82692763056E-01  0.51100000000E-03 0.  1.
         11    1    4    4    0    0 -0.41672556928E-01 -0.13784730824E-01 -0.17666593870E-01  0.47317971901E-01  0.51100000000E-03 0. -1.
</event>
<event>
 8    1  0.1095698E+005  0.1043930E+01  0.7957747E-01            NaN
         13   -1    0    0    0    0  0.00000000000E+00  0.00000000000E+00  0.74505805969E-08  0.10566000000E+00  0.10566000000E+00 0. -1.
     999900   -1    0    0    0    0 -0.00000000000E+00 -0.00000000000E+00 -0.74505805969E-08  0.93827000000E+00  0.93827000000E+00 0.  1.
     999902    2    1    2    0    0  0.75237945239E-04  0.22762116021E-01 -0.13754143384E-02  0.10211262426E+01  0.10208715845E+01 0.  0.
     999903    2    3    3    0    0 -0.98458906135E-01  0.83010479868E-01 -0.25590031469E-01  0.13324945466E+00  0.22708401341E-01 0.  0.
         14    1    1    2    0    0 -0.75237945239E-04 -0.22762116021E-01  0.13754143384E-02  0.22803757390E-01  0.00000000000E+00 0.  1.
     999901    1    3    3    0    0  0.98534144081E-01 -0.60248363847E-01  0.24214617130E-01  0.88787678795E+00  0.88000000000E+00 0. -1.
        -11    1    4    4    0    0 -0.82724269148E-01  0.77889007796E-01 -0.18010931286E-01  0.11504197933E+00  0.51100000000E-03 0.  1.
         11    1    4    4    0    0 -0.15734636988E-01  0.51214720722E-02 -0.75791001829E-02  0.18207475330E-01  0.51100000000E-03 0. -1.
</event>
<event>
 8    1  0.1095698E+005  0.1043930E+01  0.7957747E-01            NaN
         13   -1    0    0    0    0  0.00000000000E+00  0.00000000000E+00  0.74505805969E-08  0.10566000000E+00  0.10566000000E+00 0.  1.
     999900   -1    0    0    0    0 -0.00000000000E+00 -0.00000000000E+00 -0.74505805969E-08  0.93827000000E+00  0.93827000000E+00 0.  1.
     999902    2    1    2    0    0 -0.20065442929E-01  0.76989697329E-02 -0.11637743853E-01  0.10194895987E+01  0.10191965996E+01 0.  0.
     999903    2    3    3    0    0  0.79161372157E-01 -0.92188879369E-01 -0.33938571556E-01  0.12801841566E+00  0.21715795817E-01 0.  0.
         14    1    1    2    0    0  0.20065442929E-01 -0.76989697329E-02  0.11637743853E-01  0.24440401324E-01  0.00000000000E+00 0.  1.
     999901    1    3    3    0    0 -0.99226815086E-01  0.99887849101E-01  0.22300827704E-01  0.89147118302E+00  0.88000000000E+00 0. -1.
        -11    1    4    4    0    0  0.21497643383E-01 -0.19628671443E-01 -0.17256463330E-01  0.33844941443E-01  0.51100000000E-03 0.  1.
         11    1    4    4    0    0  0.57663728774E-01 -0.72560207926E-01 -0.16682108227E-01  0.94173474218E-01  0.51100000000E-03 0. -1.
</event>
<event>
 8    1  0.1095698E+005  0.1043930E+01  0.7957747E-01            NaN
         13   -1    0    0    0    0  0.00000000000E+00  0.00000000000E+00  0.74505805969E-08  0.10566000000E+00  0.10566000000E+00 0. -1.
     999900   -1    0    0    0    0 -0.00000000000E+00 -0.00000000000E+00 -0.74505805969E-08  0.93827000000E+00  0.93827000000E+00 0.  1.
     999902    2    1    2    0    0  0.11374888178E-02  0.11561726323E-01  0.20770763248E-01  0.10201310084E+01  0.10198533631E+01 0.  0.
     999903    2    3    3    0    0  0.86788037300E-01  0.96949053512E-01  0.12293945308E-02  0.13164416143E+00  0.19934679165E-01 0.  0.
         14    1    1    2    0    0 -0.11374888178E-02 -0.11561726323E-01 -0.20770763248E-01  0.23798991623E-01  0.00000000000E+00 0.  1.
     999901    1    3    3    0    0 -0.85650548483E-01 -0.85387327189E-01  0.19541368717E-01  0.88848684694E+00  0.88000000000E+00 0. -1.
        -11    1    4    4    0    0  0.16484443340E-01  0.30756669273E-01 -0.26844035730E-02  0.35002524488E-01  0.51100000000E-03 0. -1.
         11    1    4    4    0    0  0.70303593960E-01  0.66192384239E-01  0.39137981038E-02  0.96641636945E-01  0.51100000000E-03 0.  1.
</event>
<event>
 8    1  0.1095698E+005  0.1043930E+01  0.7957747E-01            NaN
         13   -1    0    0    0    0  0.00000000000E+00  0.00000000000E+00  0.74505805969E-08  0.10566000000E+00  0.10566000000E+00 0. -1.
     999900   -1    0    0    0    0 -0.00000000000E+00 -0.00000000000E+00 -0.74505805969E-08  0.93827000000E+00  0.93827000000E+00 0.  1.
     999902    2    1    2    0    0  0.16518927628E-01  0.12853953066E-01 -0.10198096572E-01  0.10206469535E+01  0.10203813520E+01 0.  0.
     999903    2    3    3    0    0 -0.69522760878E-03  0.13131305276E+00  0.92956498215E-04  0.13248323483E+00  0.17555560483E-01 0.  0.
         14    1    1    2    0    0 -0.16518927628E-01 -0.12853953066E-01  0.10198096572E-01  0.23283046473E-01  0.00000000000E+00 0. -1.
     999901    1    3    3    0    0  0.17214155237E-01 -0.11845909969E+00 -0.10291053070E-01  0.88816371870E+00  0.88000000000E+00 0.  1.
        -11    1    4    4    0    0 -0.25483077742E-02  0.97962494661E-01 -0.73019361361E-02  0.98268629913E-01  0.51100000000E-03 0.  1.
         11    1    4    4    0    0  0.18530801654E-02  0.33350558095E-01  0.73948926343E-02  0.34214604914E-01  0.51100000000E-03 0. -1.
</event>
<event>
 8    1  0.1095698E+005  0.1043930E+01  0.7957747E-01            NaN
         13   -1    0    0    0    0  0.00000000000E+00  0.00000000000E+00  0.74505805969E-08  0.10566000000E+00  0.10566000000E+00 0.  1.
     999900   -1    0    0    0    0 -0.00000000000E+00 -0.00000000000E+00 -0.74505805969E-08  0.93827000000E+00  0.93827000000E+00 0.  1.
     999902    2    1    2    0    0  0.92035936134E-02 -0.46940057549E-02  0.20546709294E-01  0.10209320199E+01  0.10206729555E+01 0.  0.
     999903    2    3    3    0    0 -0.54367019582E-01  0.66431666461E-01  0.98675871323E-01  0.13233523280E+00  0.20167972893E-01 0.  0.
         14    1    1    2    0    0 -0.92035936134E-02  0.46940057549E-02 -0.20546709294E-01  0.22997980091E-01  0.00000000000E+00 0.  1.
     999901    1    3    3    0    0  0.63570613196E-01 -0.71125672216E-01 -0.78129162029E-01  0.88859678711E+00  0.88000000000E+00 0.  1.
        -11    1    4    4    0    0 -0.38225343504E-01  0.57589490352E-01  0.70969049599E-01  0.99068629783E-01  0.51100000000E-03 0. -1.
         11    1    4    4    0    0 -0.16141676078E-01  0.88421761084E-02  0.27706821724E-01  0.33266603012E-01  0.51100000000E-03 0.  1.
</event>
<event>
 7    1  0.1095698E+005  0.1043930E+01  0.7957747E-01            NaN
         13   -1    0    0    0    0  0.00000000000E+00  0.00000000000E+00  0.74505805969E-08  0.10566000000E+00  0.10566000000E+00 0. -1.
     999900   -1    0    0    0    0 -0.00000000000E+00 -0.00000000000E+00 -0.74505805969E-08  0.93827000000E+00  0.93827000000E+00 0.  1.
     999903    2    1    2    0    0 -0.18280856679E-01  0.33889181242E-01 -0.36280376297E-01  0.56497104047E-01  0.19823993927E-01 0.  0.
         14    1    1    2    0    0  0.71454730432E-02  0.35563521283E-01  0.95983940619E-01  0.10260964228E+00  0.00000000000E+00 0. -1.
     999901    1    1    2    0    0  0.11135383636E-01 -0.69452702524E-01 -0.59703564322E-01  0.88482325368E+00  0.88000000000E+00 0.  1.
        -11    1    3    3    0    0 -0.20728161742E-01  0.19289554631E-01 -0.26199030719E-01  0.38579708898E-01  0.51100000000E-03 0. -1.
         11    1    3    3    0    0  0.24473050624E-02  0.14599626611E-01 -0.10081345579E-01  0.17917395149E-01  0.51100000000E-03 0.  1.
</event>
<event>
 8    1  0.1095698E+005  0.1043930E+01  0.7957747E-01            NaN
         13   -1    0    0    0    0  0.00000000000E+00  0.00000000000E+00  0.74505805969E-08  0.10566000000E+00  0.10566000000E+00 0. -1.
     999900   -1    0    0    0    0 -0.00000000000E+00 -0.00000000000E+00 -0.74505805969E-08  0.93827000000E+00  0.93827000000E+00 0. -1.
     999902    2    1    2    0    0 -0.11048487593E-01 -0.38580234878E-02  0.87251772170E-02  0.10293326667E+01  0.10292291565E+01 0.  0.
     999903    2    3    3    0    0 -0.89038886120E-01 -0.74335749317E-01  0.76846954558E-01  0.14046249129E+00  0.19249160166E-01 0.  0.
         14    1    1    2    0    0  0.11048487593E-01  0.38580234878E-02 -0.87251772170E-02  0.14597333345E-01  0.00000000000E+00 0.  1.
     999901    1    3    3    0    0  0.77990398528E-01  0.70477725830E-01 -0.68121777341E-01  0.88887017536E+00  0.88000000000E+00 0. -1.
        -11    1    4    4    0    0 -0.77069633797E-01 -0.56354690071E-01  0.57463603131E-01  0.11143566015E+00  0.51100000000E-03 0.  1.
         11    1    4    4    0    0 -0.11969252324E-01 -0.17981059247E-01  0.19383351427E-01  0.29026831146E-01  0.51100000000E-03 0. -1.
</event>
<event>
 8    1  0.1095698E+005  0.1043930E+01  0.7957747E-01            NaN
         13   -1    0    0    0    0  0.00000000000E+00  0.00000000000E+00  0.74505805969E-08  0.10566000000E+00  0.10566000000E+00 0. -1.
     999900   -1    0    0    0    0 -0.00000000000E+00 -0.00000000000E+00 -0.74505805969E-08  0.93827000000E+00  0.93827000000E+00 0.  1.
     999902    2    1    2    0    0 -0.12442147321E-01  0.19528756218E-01 -0.46354015175E-02  0.10203150408E+01  0.10200417228E+01 0.  0.
     999903    2    3    3    0    0  0.10861715236E+00 -0.28477411588E-02  0.66502790569E-01  0.12890228343E+00  0.19682024880E-01 0.  0.
         14    1    1    2    0    0  0.12442147321E-01 -0.19528756218E-01  0.46354015175E-02  0.23614959170E-01  0.00000000000E+00 0.  1.
     999901    1    3    3    0    0 -0.12105929969E+00  0.22376497377E-01 -0.71138192087E-01  0.89141275740E+00  0.88000000000E+00 0.  1.
        -11    1    4    4    0    0  0.86356574007E-01  0.44173923793E-02  0.57324197946E-01  0.10374630606E+00  0.51100000000E-03 0.  1.
         11    1    4    4    0    0  0.22260578357E-01 -0.72651335381E-02  0.91785926231E-02  0.25155977375E-01  0.51100000000E-03 0. -1.
</event>
<event>
 8    1  0.1095698E+005  0.1043930E+01  0.7957747E-01            NaN
         13   -1    0    0    0    0  0.00000000000E+00  0.00000000000E+00  0.74505805969E-08  0.10566000000E+00  0.10566000000E+00 0. -1.
     999900   -1    0    0    0    0 -0.00000000000E+00 -0.00000000000E+00 -0.74505805969E-08  0.93827000000E+00  0.93827000000E+00 0. -1.
     999902    2    1    2    0    0 -0.57467280782E-02 -0.12115061115E-01 -0.22957587974E-01  0.10173433410E+01  0.10169958816E+01 0.  0.
     999903    2    3    3    0    0 -0.20050864013E-01  0.11868503840E+00 -0.37154564997E-01  0.12744737605E+00  0.19344158647E-01 0.  0.
         14    1    1    2    0    0  0.57467280782E-02  0.12115061115E-01  0.22957587974E-01  0.26586658967E-01  0.00000000000E+00 0. -1.
     999901    1    3    3    0    0  0.14304135935E-01 -0.13080009952E+00  0.14196977023E-01  0.88989596498E+00  0.88000000000E+00 0. -1.
        -11    1    4    4    0    0 -0.93962658865E-03  0.38116446977E-01 -0.43438705501E-02  0.38378076563E-01  0.51100000000E-03 0.  1.
         11    1    4    4    0    0 -0.19111237425E-01  0.80568591424E-01 -0.32810694447E-01  0.89069299486E-01  0.51100000000E-03 0. -1.
</event>
<event>
 8    1  0.1095698E+005  0.1043930E+01  0.7957747E-01            NaN
         13   -1    0    0    0    0  0.00000000000E+00  0.00000000000E+00  0.74505805969E-08  0.10566000000E+00  0.10566000000E+00 0. -1.
     999900   -1    0    0    0    0 -0.00000000000E+00 -0.00000000000E+00 -0.74505805969E-08  0.93827000000E+00  0.93827000000E+00 0.  1.
     999902    2    1    2    0    0  0.19317097796E-01  0.12370652663E-01 -0.79823990265E-03  0.10209774293E+01  0.10207193986E+01 0.  0.
     999903    2    3    3    0    0 -0.11300380842E-01  0.11606836471E+00 -0.59501241501E-01  0.13241865923E+00  0.19868056757E-01 0.  0.
         14    1    1    2    0    0 -0.19317097796E-01 -0.12370652663E-01  0.79823990265E-03  0.22952570695E-01  0.00000000000E+00 0. -1.
     999901    1    3    3    0    0  0.30617478638E-01 -0.10369771204E+00  0.58703001598E-01  0.88855877008E+00  0.88000000000E+00 0. -1.
        -11    1    4    4    0    0 -0.64934955139E-02  0.99584526749E-01 -0.43231331281E-01  0.10875868966E+00  0.51100000000E-03 0.  1.
         11    1    4    4    0    0 -0.48068853284E-02  0.16483837958E-01 -0.16269910220E-01  0.23659969567E-01  0.51100000000E-03 0. -1.
</event>
<event>
 8    1  0.1095698E+005  0.1043930E+01  0.7957747E-01            NaN
         13   -1    0    0    0    0  0.00000000000E+00  0.00000000000E+00  0.74505805969E-08  0.10566000000E+00  0.10566000000E+00 0.  1.
     999900   -1    0    0    0    0 -0.00000000000E+00 -0.00000000000E+00 -0.74505805969E-08  0.93827000000E+00  0.93827000000E+00 0. -1.
     999902    2    1    2    0    0  0.22250225820E-01  0.67597409629E-02  0.47216514938E-02  0.10202011012E+01  0.10199251081E+01 0.  0.
     999903    2    3    3    0    0  0.10025937570E+00  0.20952869570E-01  0.82752772878E-01  0.13319730847E+00  0.20063309898E-01 0.  0.
         14    1    1    2    0    0 -0.22250225820E-01 -0.67597409629E-02 -0.47216514938E-02  0.23728898831E-01  0.00000000000E+00 0. -1.
     999901    1    3    3    0    0 -0.78009149883E-01 -0.14193128607E-01 -0.78031121384E-01  0.88700379270E+00  0.88000000000E+00 0. -1.
        -11    1    4    4    0    0  0.80852819144E-01  0.24813829786E-01  0.67385252503E-01  0.10813851251E+00  0.51100000000E-03 0. -1.
         11    1    4    4    0    0  0.19406556558E-01 -0.38609602152E-02  0.15367520375E-01  0.25058795955E-01  0.51100000000E-03 0.  1.
</event>
<event>
 8    1  0.1095698E+005  0.1043930E+01  0.7957747E-01            NaN
         13   -1    0    0    0    0  0.00000000000E+00  0.00000000000E+00  0.74505805969E-08  0.10566000000E+00  0.10566000000E+00 0. -1.
     999900   -1    0    0    0    0 -0.00000000000E+00 -0.00000000000E+00 -0.74505805969E-08  0.93827000000E+00  0.93827000000E+00 0.  1.
     999902    2    1    2    0    0  0.34084908358E-02  0.22936972174E-01  0.10629791611E-01  0.10184208845E+01  0.10181013619E+01 0.  0.
     999903    2    3    3    0    0  0.56384147527E-03 -0.12257165431E+00 -0.21103238697E-01  0.12590318856E+00  0.19548346461E-01 0.  0.
         14    1    1    2    0    0 -0.34084908358E-02 -0.22936972174E-01 -0.10629791611E-01  0.25509115469E-01  0.00000000000E+00 0.  1.
     999901    1    3    3    0    0  0.28446493605E-02  0.14550862648E+00  0.31733030309E-01  0.89251769597E+00  0.88000000000E+00 0.  1.
        -11    1    4    4    0    0  0.84950332872E-02 -0.93654171795E-01 -0.13914796498E-01  0.95063937262E-01  0.51100000000E-03 0. -1.
         11    1    4    4    0    0 -0.79311918120E-02 -0.28917482512E-01 -0.71884421994E-02  0.30839251298E-01  0.51100000000E-03 0.  1.
</event>
<event>
 8    1  0.1095698E+005  0.1043930E+01  0.7957747E-01            NaN
         13   -1    0    0    0    0  0.00000000000E+00  0.00000000000E+00  0.74505805969E-08  0.10566000000E+00  0.10566000000E+00 0.  1.
     999900   -1    0    0    0    0 -0.00000000000E+00 -0.00000000000E+00 -0.74505805969E-08  0.93827000000E+00  0.93827000000E+00 0.  1.
     999902    2    1    2    0    0 -0.60525043054E-02  0.21649931525E-01  0.77096432963E-02  0.10201646693E+01  0.10198878181E+01 0.  0.
     999903    2    3    3    0    0  0.10422867824E+00 -0.71672650330E-01 -0.70181915807E-02  0.12826335602E+00  0.20041140513E-01 0.  0.
         14    1    1    2    0    0  0.60525043054E-02 -0.21649931525E-01 -0.77096432963E-02  0.23765330698E-01  0.00000000000E+00 0. -1.
     999901    1    3    3    0    0 -0.11028118254E+00  0.93322581855E-01  0.14727834877E-01  0.89190131328E+00  0.88000000000E+00 0. -1.
        -11    1    4    4    0    0  0.11543870833E-01 -0.90682613701E-02 -0.73269603118E-02  0.16414621120E-01  0.51100000000E-03 0.  1.
         11    1    4    4    0    0  0.92684807405E-01 -0.62604388959E-01  0.30876873103E-03  0.11184873490E+00  0.51100000000E-03 0. -1.
</event>
<event>
 8    1  0.1095698E+005  0.1043930E+01  0.7957747E-01            NaN
         13   -1    0    0    0    0  0.00000000000E+00  0.00000000000E+00  0.74505805969E-08  0.10566000000E+00  0.10566000000E+00 0.  1.
     999900   -1    0    0    0    0 -0.00000000000E+00 -0.00000000000E+00 -0.74505805969E-08  0.93827000000E+00  0.93827000000E+00 0.  1.
     999902    2    1    2    0    0  0.12679575959E-01 -0.14667374275E-01 -0.13385229553E-01  0.10203701213E+01  0.10200980916E+01 0.  0.
     999903    2    3    3    0    0 -0.64627153693E-01 -0.11078052849E+00 -0.22977661799E-01  0.13171603582E+00  0.19291103213E-01 0.  0.
         14    1    1    2    0    0 -0.12679575959E-01  0.14667374275E-01  0.13385229553E-01  0.23559878710E-01  0.00000000000E+00 0.  1.
     999901    1    3    3    0    0  0.77306729652E-01  0.96113154218E-01  0.95924322456E-02  0.88865408547E+00  0.88000000000E+00 0. -1.
        -11    1    4    4    0    0 -0.35807059117E-01 -0.56458401116E-01 -0.25151774675E-02  0.66905035519E-01  0.51100000000E-03 0. -1.
         11    1    4    4    0    0 -0.28820094576E-01 -0.54322127378E-01 -0.20462484332E-01  0.64811000303E-01  0.51100000000E-03 0.  1.
</event>
<event>
 8    1  0.1095698E+005  0.1043930E+01  0.7957747E-01            NaN
         13   -1    0    0    0    0  0.00000000000E+00  0.00000000000E+00  0.74505805969E-08  0.10566000000E+00  0.10566000000E+00 0. -1.
     999900   -1    0    0    0    0 -0.00000000000E+00 -0.00000000000E+00 -0.74505805969E-08  0.93827000000E+00  0.93827000000E+00 0.  1.
     999902    2    1    2    0    0  0.22459130784E-01 -0.41336091456E-04 -0.68757200125E-02  0.10204419224E+01  0.10201715675E+01 0.  0.
     999903    2    3    3    0    0  0.39489805508E-01  0.10200849956E-01 -0.12428085208E+00  0.13242226535E+00  0.20650038446E-01 0.  0.
         14    1    1    2    0    0 -0.22459130784E-01  0.41336091456E-04  0.68757200125E-02  0.23488077613E-01  0.00000000000E+00 0. -1.
     999901    1    3    3    0    0 -0.17030674724E-01 -0.10242186047E-01  0.11740513206E+00  0.88801965704E+00  0.88000000000E+00 0. -1.
        -11    1    4    4    0    0  0.29885746893E-02 -0.31029969445E-02 -0.35884673020E-02  0.56301320845E-02  0.51100000000E-03 0. -1.
         11    1    4    4    0    0  0.36501230819E-01  0.13303846900E-01 -0.12069238477E+00  0.12679213326E+00  0.51100000000E-03 0.  1.
</event>
<event>
 8    1  0.1095698E+005  0.1043930E+01  0.7957747E-01            NaN
         13   -1    0    0    0    0  0.00000000000E+00  0.00000000000E+00  0.74505805969E-08  0.10566000000E+00  0.10566000000E+00 0. -1.
     999900   -1    0    0    0    0 -0.00000000000E+00 -0.00000000000E+00 -0.74505805969E-08  0.93827000000E+00  0.93827000000E+00 0.  1.
     999902    2    1    2    0    0  0.65001161253E-02  0.97887344270E-02  0.20887483988E-01  0.10199642365E+01  0.10196826398E+01 0.  0.
     999903    2    3    3    0    0  0.72883001389E-01 -0.16559679224E-01  0.10646074500E+00  0.13293339752E+00  0.27408813959E-01 0.  0.
         14    1    1    2    0    0 -0.65001161253E-02 -0.97887344270E-02 -0.20887483988E-01  0.23965763470E-01  0.00000000000E+00 0.  1.
     999901    1    3    3    0    0 -0.66382885264E-01  0.26348413651E-01 -0.85573261011E-01  0.88703083901E+00  0.88000000000E+00 0.  1.
        -11    1    4    4    0    0  0.43805916915E-01 -0.47395678253E-02  0.40348774872E-01  0.59747021805E-01  0.51100000000E-03 0.  1.
         11    1    4    4    0    0  0.29077084475E-01 -0.11820111398E-01  0.66111970128E-01  0.73186375714E-01  0.51100000000E-03 0. -1.
</event>
<event>
 8    1  0.1095698E+005  0.1043930E+01  0.7957747E-01            NaN
         13   -1    0    0    0    0  0.00000000000E+00  0.00000000000E+00  0.74505805969E-08  0.10566000000E+00  0.10566000000E+00 0. -1.
     999900   -1    0    0    0    0 -0.00000000000E+00 -0.00000000000E+00 -0.74505805969E-08  0.93827000000E+00  0.93827000000E+00 0. -1.
     999902    2    1    2    0    0  0.15183014962E-01  0.43673277716E-02 -0.20295382347E-01  0.10182103569E+01  0.10178854704E+01 0.  0.
     999903    2    3    3    0    0 -0.94463836482E-01 -0.81614411080E-01 -0.13489577771E-01  0.12722123779E+00  0.20468173758E-01 0.  0.
         14    1    1    2    0    0 -0.15183014962E-01 -0.43673277716E-02  0.20295382347E-01  0.25719643073E-01  0.00000000000E+00 0. -1.
     999901    1    3    3    0    0  0.10964685144E+00  0.85981738852E-01 -0.68058045763E-02  0.89098911914E+00  0.88000000000E+00 0. -1.
        -11    1    4    4    0    0 -0.70239628931E-01 -0.48544718901E-01 -0.11743813406E-01  0.86188012390E-01  0.51100000000E-03 0. -1.
         11    1    4    4    0    0 -0.24224207552E-01 -0.33069692179E-01 -0.17457643647E-02  0.41033225397E-01  0.51100000000E-03 0.  1.
</event>
<event>
 8    1  0.1095698E+005  0.1043930E+01  0.7957747E-01            NaN
         13   -1    0    0    0    0  0.00000000000E+00  0.00000000000E+00  0.74505805969E-08  0.10566000000E+00  0.10566000000E+00 0. -1.
     999900   -1    0    0    0    0 -0.00000000000E+00 -0.00000000000E+00 -0.74505805969E-08  0.93827000000E+00  0.93827000000E+00 0. -1.
     999902    2    1    2    0    0  0.16565311690E-01 -0.71137025105E-02 -0.11102423739E-01  0.10227574204E+01  0.10225382452E+01 0.  0.
     999903    2    3    3    0    0 -0.12378305339E+00  0.35355623771E-01 -0.67303832251E-02  0.13061369766E+00  0.21032724925E-01 0.  0.
         14    1    1    2    0    0 -0.16565311690E-01  0.71137025105E-02  0.11102423739E-01  0.21172579618E-01  0.00000000000E+00 0. -1.
     999901    1    3    3    0    0  0.14034836508E+00 -0.42469326281E-01 -0.43720405135E-02  0.89214372272E+00  0.88000000000E+00 0.  1.
        -11    1    4    4    0    0 -0.10207408310E+00  0.23365808897E-01  0.70575419517E-03  0.10471790046E+00  0.51100000000E-03 0. -1.
         11    1    4    4    0    0 -0.21708970292E-01  0.11989814874E-01 -0.74361374203E-02  0.25895797199E-01  0.51100000000E-03 0.  1.
</event>
<event>
 8    1  0.1095698E+005  0.1043930E+01  0.7957747E-01            NaN
         13   -1    0    0    0    0  0.00000000000E+00  0.00000000000E+00  0.74505805969E-08  0.10566000000E+00  0.10566000000E+00 0.  1.
     999900   -1    0    0    0    0 -0.00000000000E+00 -0.00000000000E+00 -0.74505805969E-08  0.93827000000E+00  0.93827000000E+00 0. -1.
     999902    2    1    2    0    0 -0.23473585466E-01  0.42487076139E-02 -0.56624608998E-02  0.10194121658E+01  0.10191172845E+01 0.  0.
     999903    2    3    3    0    0 -0.88109779864E-02  0.55933150508E-01 -0.11623676790E+00  0.13086675273E+00  0.20223009141E-01 0.  0.
         14    1    1    2    0    0  0.23473585466E-01 -0.42487076139E-02  0.56624608998E-02  0.24517834212E-01  0.00000000000E+00 0.  1.
     999901    1    3    3    0    0 -0.14662607480E-01 -0.51684442895E-01  0.11057430700E+00  0.88854541306E+00  0.88000000000E+00 0.  1.
        -11    1    4    4    0    0  0.40711901100E-02  0.28357075069E-01 -0.44350222090E-01  0.52800583480E-01  0.51100000000E-03 0. -1.
         11    1    4    4    0    0 -0.12882168096E-01  0.27576075440E-01 -0.71886545814E-01  0.78066169251E-01  0.51100000000E-03 0.  1.
</event>
<event>
 8    1  0.1095698E+005  0.1043930E+01  0.7957747E-01            NaN
         13   -1    0    0    0    0  0.00000000000E+00  0.00000000000E+00  0.74505805969E-08  0.10566000000E+00  0.10566000000E+00 0.  1.
     999900   -1    0    0    0    0 -0.00000000000E+00 -0.00000000000E+00 -0.74505805969E-08  0.93827000000E+00  0.93827000000E+00 0.  1.
     999902    2    1    2    0    0 -0.14938718958E-02  0.22814080140E-01  0.11696456112E-01  0.10182488592E+01  0.10179249571E+01 0.  0.
     999903    2    3    3    0    0 -0.38502691136E-01 -0.10483333374E+00  0.57455237196E-01  0.12709377675E+00  0.19474052456E-01 0.  0.
         14    1    1    2    0    0  0.14938718958E-02 -0.22814080140E-01 -0.11696456112E-01  0.25681140774E-01  0.00000000000E+00 0. -1.
     999901    1    3    3    0    0  0.37008819240E-01  0.12764741388E+00 -0.45758781084E-01  0.89115508247E+00  0.88000000000E+00 0.  1.
        -11    1    4    4    0    0 -0.22883838408E-01 -0.62110198115E-01  0.23178942242E-01  0.70134665142E-01  0.51100000000E-03 0. -1.
         11    1    4    4    0    0 -0.15618852728E-01 -0.42723135629E-01  0.34276294954E-01  0.56959111609E-01  0.51100000000E-03 0.  1.
</event>
<event>
 8    1  0.1095698E+005  0.1043930E+01  0.7957747E-01            NaN
         13   -1    0    0    0    0  0.00000000000E+00  0.00000000000E+00  0.74505805969E-08  0.10566000000E+00  0.10566000000E+00 0.  1.
     999900   -1    0    0    0    0 -0.00000000000E+00 -0.00000000000E+00 -0.74505805969E-08  0.93827000000E+00  0.93827000000E+00 0.  1.
     999902    2    1    2    0    0 -0.20543927718E-01 -0.37813641043E-02 -0.10513243346E-01  0.10205445352E+01  0.10202765646E+01 0.  0.
     999903    2    3    3    0    0  0.55365791622E-01  0.68575530119E-01 -0.93965897995E-01  0.13039727138E+00  0.20146567553E-01 0.  0.
         14    1    1    2    0    0  0.20543927718E-01  0.37813641043E-02  0.10513243346E-01  0.23385464849E-01  0.00000000000E+00 0. -1.
     999901    1    3    3    0    0 -0.75909719340E-01 -0.72356894223E-01  0.83452654648E-01  0.89014726377E+00  0.88000000000E+00 0. -1.
        -11    1    4    4    0    0  0.39417311623E-01  0.58555063500E-01 -0.65735252079E-01  0.96456230509E-01  0.51100000000E-03 0.  1.
         11    1    4    4    0    0  0.15948479999E-01  0.10020466619E-01 -0.28230645916E-01  0.33941040870E-01  0.51100000000E-03 0. -1.
</event>
<event>
 8    1  0.1095698E+005  0.1043930E+01  0.7957747E-01            NaN
         13   -1    0    0    0    0  0.00000000000E+00  0.00000000000E+00  0.74505805969E-08  0.10566000000E+00  0.10566000000E+00 0.  1.
     999900   -1    0    0    0    0 -0.00000000000E+00 -0.00000000000E+00 -0.74505805969E-08  0.93827000000E+00  0.93827000000E+00 0.  1.
     999902    2    1    2    0    0 -0.19732055066E-01 -0.60935628339E-03  0.47438741095E-02  0.10236265605E+01  0.10234251833E+01 0.  0.
     999903    2    3    3    0    0 -0.78873888337E-01 -0.93081244854E-01  0.55484887961E-01  0.13535663698E+00  0.18911318773E-01 0.  0.
         14    1    1    2    0    0  0.19732055066E-01  0.60935628339E-03 -0.47438741095E-02  0.20303439457E-01  0.00000000000E+00 0. -1.
     999901    1    3    3    0    0  0.59141833271E-01  0.92471888571E-01 -0.50741013851E-01  0.88826992356E+00  0.88000000000E+00 0.  1.
        -11    1    4    4    0    0 -0.34191818337E-01 -0.52501284738E-01  0.22515854119E-01  0.66578451078E-01  0.51100000000E-03 0. -1.
         11    1    4    4    0    0 -0.44682070001E-01 -0.40579960116E-01  0.32969033842E-01  0.68778185902E-01  0.51100000000E-03 0.  1.
</event>
<event>
 8    1  0.1095698E+005  0.1043930E+01  0.7957747E-01            NaN
         13   -1    0    0    0    0  0.00000000000E+00  0.00000000000E+00  0.74505805969E-08  0.10566000000E+00  0.10566000000E+00 0.  1.
     999900   -1    0    0    0    0 -0.00000000000E+00 -0.00000000000E+00 -0.74505805969E-08  0.93827000000E+00  0.93827000000E+00 0.  1.
     999902    2    1    2    0    0  0.17446044019E-01  0.15645375100E-01  0.45449808120E-02  0.10200595357E+01  0.10197802005E+01 0.  0.
     999903    2    3    3    0    0  0.10140787197E+00  0.37975615362E-01  0.74705104802E-01  0.13300222575E+00  0.19571293054E-01 0.  0.
         14    1    1    2    0    0 -0.17446044019E-01 -0.15645375100E-01 -0.45449808120E-02  0.23870464271E-01  0.00000000000E+00 0. -1.
     999901    1    3    3    0    0 -0.83961827952E-01 -0.22330240261E-01 -0.70160123990E-01  0.88705730998E+00  0.88000000000E+00 0.  1.
        -11    1    4    4    0    0  0.59898751245E-01  0.20478984993E-01  0.32018886078E-01  0.70941662045E-01  0.51100000000E-03 0. -1.
         11    1    4    4    0    0  0.41509120726E-01  0.17496630369E-01  0.42686218724E-01  0.62060563707E-01  0.51100000000E-03 0.  1.
</event>
<event>
 8    1  0.1095698E+005  0.1043930E+01  0.7957747E-01            NaN
         13   -1    0    0    0    0  0.00000000000E+00  0.00000000000E+00  0.74505805969E-08  0.10566000000E+00  0.10566000000E+00 0. -1.
     999900   -1    0    0    0    0 -0.00000000000E+00 -0.00000000000E+00 -0.74505805969E-08  0.93827000000E+00  0.93827000000E+00 0. -1.
     999902    2    1    2    0    0  0.45143046510E-02  0.29675816500E-01  0.91204378041E-02  0.10125577923E+01  0.10120716710E+01 0.  0.
     999903    2    3    3    0    0 -0.37319358236E-01  0.11953792130E+00  0.75145894770E-02  0.12699140178E+00  0.19705277036E-01 0.  0.
         14    1    1    2    0    0 -0.45143046510E-02 -0.29675816500E-01 -0.91204378041E-02  0.31372207719E-01  0.00000000000E+00 0. -1.
     999901    1    3    3    0    0  0.41833662887E-01 -0.89862104803E-01  0.16058483271E-02  0.88556639050E+00  0.88000000000E+00 0.  1.
        -11    1    4    4    0    0 -0.17721451621E-01  0.54815225305E-01  0.13272541705E-01  0.59120049536E-01  0.51100000000E-03 0.  1.
         11    1    4    4    0    0 -0.19597906615E-01  0.64722695998E-01 -0.57579522278E-02  0.67871352247E-01  0.51100000000E-03 0. -1.
</event>
<event>
 8    1  0.1095698E+005  0.1043930E+01  0.7957747E-01            NaN
         13   -1    0    0    0    0  0.00000000000E+00  0.00000000000E+00  0.74505805969E-08  0.10566000000E+00  0.10566000000E+00 0.  1.
     999900   -1    0    0    0    0 -0.00000000000E+00 -0.00000000000E+00 -0.74505805969E-08  0.93827000000E+00  0.93827000000E+00 0. -1.
     999902    2    1    2    0    0  0.13273902981E-01  0.18486948142E-01  0.57740526368E-02  0.10204501483E+01  0.10201799850E+01 0.  0.
     999903    2    3    3    0    0 -0.57714295596E-01  0.10649593006E+00 -0.47131768160E-01  0.13163974607E+00  0.20863751815E-01 0.  0.
         14    1    1    2    0    0 -0.13273902981E-01 -0.18486948142E-01 -0.57740526368E-02  0.23479851699E-01  0.00000000000E+00 0. -1.
     999901    1    3    3    0    0  0.70988198578E-01 -0.88008981921E-01  0.52905820797E-01  0.88881040223E+00  0.88000000000E+00 0.  1.
        -11    1    4    4    0    0 -0.49996938152E-01  0.82737104167E-01 -0.44792118540E-01  0.10654443784E+00  0.51100000000E-03 0. -1.
         11    1    4    4    0    0 -0.77173574444E-02  0.23758825896E-01 -0.23396496207E-02  0.25095308231E-01  0.51100000000E-03 0.  1.
</event>
<event>
 8    1  0.1095698E+005  0.1043930E+01  0.7957747E-01            NaN
         13   -1    0    0    0    0  0.00000000000E+00  0.00000000000E+00  0.74505805969E-08  0.10566000000E+00  0.10566000000E+00 0.  1.
     999900   -1    0    0    0    0 -0.00000000000E+00 -0.00000000000E+00 -0.74505805969E-08  0.93827000000E+00  0.93827000000E+00 0. -1.
     999902    2    1    2    0    0 -0.46410266406E-02 -0.17677716548E-01  0.15079172225E-01  0.10202356499E+01  0.10199604694E+01 0.  0.
     999903    2    3    3    0    0 -0.33345595124E-01  0.12257104635E+00  0.73848088678E-02  0.12863435395E+00  0.18885748521E-01 0.  0.
         14    1    1    2    0    0  0.46410266406E-02  0.17677716548E-01 -0.15079172225E-01  0.23694350078E-01  0.00000000000E+00 0. -1.
     999901    1    3    3    0    0  0.28704568483E-01 -0.14024876290E+00  0.76943633570E-02  0.89160129597E+00  0.88000000000E+00 0.  1.
        -11    1    4    4    0    0 -0.24574919463E-01  0.86511973809E-01 -0.33520407354E-02  0.89998586528E-01  0.51100000000E-03 0. -1.
         11    1    4    4    0    0 -0.87706756611E-02  0.36059072542E-01  0.10736849603E-01  0.38635767425E-01  0.51100000000E-03 0.  1.
</event>
<event>
 8    1  0.1095698E+005  0.1043930E+01  0.7957747E-01            NaN
         13   -1    0    0    0    0  0.00000000000E+00  0.00000000000E+00  0.74505805969E-08  0.10566000000E+00  0.10566000000E+00 0. -1.
     999900   -1    0    0    0    0 -0.00000000000E+00 -0.00000000000E+00 -0.74505805969E-08  0.93827000000E+00  0.93827000000E+00 0. -1.
     999902    2    1    2    0    0  0.91698343428E-02 -0.20856857896E-01  0.57245174099E-02  0.10204382039E+01  0.10201677625E+01 0.  0.
     999903    2    3    3    0    0 -0.10312266353E+00  0.73667227150E-01 -0.13752439654E-02  0.12825278915E+00  0.19640329413E-01 0.  0.
         14    1    1    2    0    0 -0.91698343428E-02  0.20856857896E-01 -0.57245174099E-02  0.23491796073E-01  0.00000000000E+00 0.  1.
     999901    1    3    3    0    0  0.11229249787E+00 -0.94524085046E-01  0.70997613752E-02  0.89218541478E+00  0.88000000000E+00 0.  1.
        -11    1    4    4    0    0 -0.81035894022E-01  0.49865667170E-01 -0.65169532396E-02  0.95373647738E-01  0.51100000000E-03 0. -1.
         11    1    4    4    0    0 -0.22086769506E-01  0.23801559980E-01  0.51417092742E-02  0.32879141411E-01  0.51100000000E-03 0.  1.
</event>
<event>
 8    1  0.1095698E+005  0.1043930E+01  0.7957747E-01            NaN
         13   -1    0    0    0    0  0.00000000000E+00  0.00000000000E+00  0.74505805969E-08  0.10566000000E+00  0.10566000000E+00 0.  1.
     999900   -1    0    0    0    0 -0.00000000000E+00 -0.00000000000E+00 -0.74505805969E-08  0.93827000000E+00  0.93827000000E+00 0.  1.
     999902    2    1    2    0    0  0.39124776319E-02  0.13891450196E-01 -0.15205950347E-01  0.10229657257E+01  0.10227508862E+01 0.  0.
     999903    2    3    3    0    0  0.81835392252E-01  0.75973173198E-01  0.70008781761E-01  0.13325359727E+00  0.19655462130E-01 0.  0.
         14    1    1    2    0    0 -0.39124776319E-02 -0.13891450196E-01  0.15205950347E-01  0.20964274272E-01  0.00000000000E+00 0. -1.
     999901    1    3    3    0    0 -0.77922914620E-01 -0.62081723002E-01 -0.85214732109E-01  0.88971212846E+00  0.88000000000E+00 0.  1.
        -11    1    4    4    0    0  0.12872884278E-01  0.22335109373E-01  0.19584526354E-01  0.32378743858E-01  0.51100000000E-03 0.  1.
         11    1    4    4    0    0  0.68962507973E-01  0.53638063824E-01  0.50424255408E-01  0.10087485341E+00  0.51100000000E-03 0. -1.
</event>
<event>
 8    1  0.1095698E+005  0.1043930E+01  0.7957747E-01            NaN
         13   -1    0    0    0    0  0.00000000000E+00  0.00000000000E+00  0.74505805969E-08  0.10566000000E+00  0.10566000000E+00 0. -1.
     999900   -1    0    0    0    0 -0.00000000000E+00 -0.00000000000E+00 -0.74505805969E-08  0.93827000000E+00  0.93827000000E+00 0.  1.
     999902    2    1    2    0    0  0.73251581879E-02 -0.29818334248E-03  0.22211323515E-01  0.10205400503E+01  0.10202719757E+01 0.  0.
     999903    2    3    3    0    0  0.97093639376E-01 -0.80721144581E-01 -0.27912385945E-01  0.13091169014E+00  0.20388509907E-01 0.  0.
         14    1    1    2    0    0 -0.73251581879E-02  0.29818334248E-03 -0.22211323515E-01  0.23389949724E-01  0.00000000000E+00 0.  1.
     999901    1    3    3    0    0 -0.89768481188E-01  0.80422961239E-01  0.50123709460E-01  0.88962836014E+00  0.88000000000E+00 0. -1.
        -11    1    4    4    0    0  0.35845761749E-01 -0.21620981316E-01 -0.16657250513E-01  0.45056748485E-01  0.51100000000E-03 0.  1.
         11    1    4    4    0    0  0.61247877628E-01 -0.59100163266E-01 -0.11255135432E-01  0.85854941655E-01  0.51100000000E-03 0. -1.
</event>
<event>
 8    1  0.1095698E+005  0.1043930E+01  0.7957747E-01            NaN
         13   -1    0    0    0    0  0.00000000000E+00  0.00000000000E+00  0.74505805969E-08  0.10566000000E+00  0.10566000000E+00 0.  1.
     999900   -1    0    0    0    0 -0.00000000000E+00 -0.00000000000E+00 -0.74505805969E-08  0.93827000000E+00  0.93827000000E+00 0. -1.
     999902    2    1    2    0    0 -0.93200233242E-03  0.16062814596E-03  0.23549871469E-01  0.10203611461E+01  0.10200889067E+01 0.  0.
     999903    2    3    3    0    0  0.82350729624E-01 -0.41423215507E-01  0.93409445197E-01  0.13269815284E+00  0.19645606695E-01 0.  0.
         14    1    1    2    0    0  0.93200233242E-03 -0.16062814596E-03 -0.23549871469E-01  0.23568853938E-01  0.00000000000E+00 0. -1.
     999901    1    3    3    0    0 -0.83282731957E-01  0.41583843653E-01 -0.69859573728E-01  0.88766299322E+00  0.88000000000E+00 0. -1.
        -11    1    4    4    0    0  0.34134717690E-01 -0.11542287725E-01  0.48073069577E-01  0.60080649941E-01  0.51100000000E-03 0. -1.
         11    1    4    4    0    0  0.48216011934E-01 -0.29880927781E-01  0.45336375620E-01  0.72617502899E-01  0.51100000000E-03 0.  1.
</event>
<event>
 8    1  0.1095698E+005  0.1043930E+01  0.7957747E-01            NaN
         13   -1    0    0    0    0  0.00000000000E+00  0.00000000000E+00  0.74505805969E-08  0.10566000000E+00  0.10566000000E+00 0.  1.
     999900   -1    0    0    0    0 -0.00000000000E+00 -0.00000000000E+00 -0.74505805969E-08  0.93827000000E+00  0.93827000000E+00 0.  1.
     999902    2    1    2    0    0  0.14307451605E-01 -0.18192139774E-01 -0.23494543282E-02  0.10206667875E+01  0.10204016435E+01 0.  0.
     999903    2    3    3    0    0  0.11117411846E+00 -0.16851755364E-01  0.69135190430E-01  0.13246917309E+00  0.11168750546E-01 0.  0.
         14    1    1    2    0    0 -0.14307451605E-01  0.18192139774E-01  0.23494543282E-02  0.23263212517E-01  0.00000000000E+00 0. -1.
     999901    1    3    3    0    0 -0.96866666856E-01 -0.13403844105E-02 -0.71484644758E-01  0.88819761439E+00  0.88000000000E+00 0. -1.
        -11    1    4    4    0    0  0.39621168379E-01 -0.10276951050E-01  0.28967855250E-01  0.50148284770E-01  0.51100000000E-03 0. -1.
         11    1    4    4    0    0  0.71552950082E-01 -0.65748043137E-02  0.40167335180E-01  0.82320888319E-01  0.51100000000E-03 0.  1.
</event>
<event>
 8    1  0.1095698E+005  0.1043930E+01  0.7957747E-01            NaN
         13   -1    0    0    0    0  0.00000000000E+00  0.00000000000E+00  0.74505805969E-08  0.10566000000E+00  0.10566000000E+00 0.  1.
     999900   -1    0    0    0    0 -0.00000000000E+00 -0.00000000000E+00 -0.74505805969E-08  0.93827000000E+00  0.93827000000E+00 0. -1.
     999902    2    1    2    0    0 -0.23948973270E-01 -0.67777535733E-02  0.39533567125E-03  0.10190372791E+01  0.10187331980E+01 0.  0.
     999903    2    3    3    0    0  0.70345228778E-01 -0.16514888178E-02 -0.10472766508E+00  0.12776374059E+00  0.20112457602E-01 0.  0.
         14    1    1    2    0    0  0.23948973270E-01  0.67777535733E-02 -0.39533567125E-03  0.24892720914E-01  0.00000000000E+00 0. -1.
     999901    1    3    3    0    0 -0.94294202048E-01 -0.51262647555E-02  0.10512300075E+00  0.89127353849E+00  0.88000000000E+00 0.  1.
        -11    1    4    4    0    0  0.66146492155E-02  0.40021145332E-02 -0.21026817099E-01  0.22408896967E-01  0.51100000000E-03 0.  1.
         11    1    4    4    0    0  0.63730579562E-01 -0.56536033509E-02 -0.83700847979E-01  0.10535484363E+00  0.51100000000E-03 0. -1.
</event>
<event>
 8    1  0.1095698E+005  0.1043930E+01  0.7957747E-01            NaN
         13   -1    0    0    0    0  0.00000000000E+00  0.00000000000E+00  0.74505805969E-08  0.10566000000E+00  0.10566000000E+00 0. -1.
     999900   -1    0    0    0    0 -0.00000000000E+00 -0.00000000000E+00 -0.74505805969E-08  0.93827000000E+00  0.93827000000E+00 0.  1.
     999902    2    1    2    0    0  0.67761665825E-03  0.22605366608E-01  0.93065136664E-02  0.10194744697E+01  0.10191811034E+01 0.  0.
     999903    2    3    3    0    0  0.10804787209E+00 -0.16576919284E-01 -0.65173999974E-01  0.12896283579E+00  0.20847681554E-01 0.  0.
         14    1    1    2    0    0 -0.67761665825E-03 -0.22605366608E-01 -0.93065136664E-02  0.24455530263E-01  0.00000000000E+00 0.  1.
     999901    1    3    3    0    0 -0.10737025543E+00  0.39182285892E-01  0.74480513640E-01  0.89051163395E+00  0.88000000000E+00 0. -1.
        -11    1    4    4    0    0  0.77120810271E-01 -0.21114599716E-01 -0.48733033601E-01  0.93640885210E-01  0.51100000000E-03 0. -1.
         11    1    4    4    0    0  0.30927061822E-01  0.45376804315E-02 -0.16440966373E-01  0.35321950582E-01  0.51100000000E-03 0.  1.
</event>
<event>
 8    1  0.1095698E+005  0.1043930E+01  0.7957747E-01            NaN
         13   -1    0    0    0    0  0.00000000000E+00  0.00000000000E+00  0.74505805969E-08  0.10566000000E+00  0.10566000000E+00 0.  1.
     999900   -1    0    0    0    0 -0.00000000000E+00 -0.00000000000E+00 -0.74505805969E-08  0.93827000000E+00  0.93827000000E+00 0.  1.
     999902    2    1    2    0    0 -0.18920965038E-01 -0.80941004121E-02  0.10872158521E-01  0.10206550948E+01  0.10203896812E+01 0.  0.
     999903    2    3    3    0    0 -0.12667149924E+00 -0.23517811787E-01  0.30075547835E-01  0.13374087201E+00  0.19578714930E-01 0.  0.
         14    1    1    2    0    0  0.18920965038E-01  0.80941004121E-02 -0.10872158521E-01  0.23274905164E-01  0.00000000000E+00 0. -1.
     999901    1    3    3    0    0  0.10775053420E+00  0.15423711375E-01 -0.19203389313E-01  0.88691422283E+00  0.88000000000E+00 0. -1.
        -11    1    4    4    0    0 -0.10699984930E-01 -0.72949189532E-02  0.53853653768E-03  0.12971378594E-01  0.51100000000E-03 0. -1.
         11    1    4    4    0    0 -0.11597151431E+00 -0.16222892834E-01  0.29537011297E-01  0.12076949341E+00  0.51100000000E-03 0.  1.
</event>
<event>
 8    1  0.1095698E+005  0.1043930E+01  0.7957747E-01            NaN
         13   -1    0    0    0    0  0.00000000000E+00  0.00000000000E+00  0.74505805969E-08  0.10566000000E+00  0.10566000000E+00 0. -1.
     999900   -1    0    0    0    0 -0.00000000000E+00 -0.00000000000E+00 -0.74505805969E-08  0.93827000000E+00  0.93827000000E+00 0. -1.
     999902    2    1    2    0    0  0.13996667867E-01 -0.17894760673E-01  0.19190290999E-02  0.10211306175E+01  0.10208760581E+01 0.  0.
     999903    2    3    3    0    0  0.38035756601E-01  0.11546004701E+00  0.41029510330E-01  0.12990056173E+00  0.20322253428E-01 0.  0.
         14    1    1    2    0    0 -0.13996667867E-01  0.17894760673E-01 -0.19190290999E-02  0.22799382527E-01  0.00000000000E+00 0.  1.
     999901    1    3    3    0    0 -0.24039088734E-01 -0.13335480768E+00 -0.39110481230E-01  0.89123005574E+00  0.88000000000E+00 0. -1.
        -11    1    4    4    0    0  0.10402612385E-01  0.22863544530E-01  0.54601538334E-03  0.25129967503E-01  0.51100000000E-03 0. -1.
         11    1    4    4    0    0  0.27633144215E-01  0.92596502479E-01  0.40483494947E-01  0.10477059423E+00  0.51100000000E-03 0.  1.
</event>
<event>
 8    1  0.1095698E+005  0.1043930E+01  0.7957747E-01            NaN
         13   -1    0    0    0    0  0.00000000000E+00  0.00000000000E+00  0.74505805969E-08  0.10566000000E+00  0.10566000000E+00 0.  1.
     999900   -1    0    0    0    0 -0.00000000000E+00 -0.00000000000E+00 -0.74505805969E-08  0.93827000000E+00  0.93827000000E+00 0.  1.
     999902    2    1    2    0    0 -0.55997301323E-02  0.11692021504E-01 -0.18868081292E-01  0.10210375376E+01  0.10207808718E+01 0.  0.
     999903    2    3    3    0    0 -0.82676116339E-01 -0.45280678663E-01  0.86746138817E-01  0.12955505240E+00  0.19337500612E-01 0.  0.
         14    1    1    2    0    0  0.55997301323E-02 -0.11692021504E-01  0.18868081292E-01  0.22892462429E-01  0.00000000000E+00 0.  1.
     999901    1    3    3    0    0  0.77076386207E-01  0.56972700167E-01 -0.10561422011E+00  0.89148248517E+00  0.88000000000E+00 0.  1.
        -11    1    4    4    0    0 -0.78061438815E-01 -0.36286154255E-01  0.76787991444E-01  0.11535566727E+00  0.51100000000E-03 0. -1.
         11    1    4    4    0    0 -0.46146775237E-02 -0.89945244079E-02  0.99581473732E-02  0.14199385130E-01  0.51100000000E-03 0.  1.
</event>
<event>
 8    1  0.1095698E+005  0.1043930E+01  0.7957747E-01            NaN
         13   -1    0    0    0    0  0.00000000000E+00  0.00000000000E+00  0.74505805969E-08  0.10566000000E+00  0.10566000000E+00 0. -1.
     999900   -1    0    0    0    0 -0.00000000000E+00 -0.00000000000E+00 -0.74505805969E-08  0.93827000000E+00  0.93827000000E+00 0. -1.
     999902    2    1    2    0    0  0.19094722649E-01 -0.76628371473E-02  0.10543841609E-01  0.10208107417E+01  0.10205489064E+01 0.  0.
     999903    2    3    3    0    0  0.11427687514E+00  0.15741353560E-01  0.64610432576E-01  0.13371965592E+00  0.19986094605E-01 0.  0.
         14    1    1    2    0    0 -0.19094722649E-01  0.76628371473E-02 -0.10543841609E-01  0.23119258251E-01  0.00000000000E+00 0. -1.
     999901    1    3    3    0    0 -0.95182152495E-01 -0.23404190707E-01 -0.54066590966E-01  0.88709108583E+00  0.88000000000E+00 0.  1.
        -11    1    4    4    0    0  0.39736258986E-01  0.46464764399E-02  0.33516415606E-01  0.52193594028E-01  0.51100000000E-03 0. -1.
         11    1    4    4    0    0  0.74540616157E-01  0.11094877120E-01  0.31094016970E-01  0.81526061893E-01  0.51100000000E-03 0.  1.
</event>
<event>
 8    1  0.1095698E+005  0.1043930E+01  0.7957747E-01            NaN
         13   -1    0    0    0    0  0.00000000000E+00  0.00000000000E+00  0.74505805969E-08  0.10566000000E+00  0.10566000000E+00 0. -1.
     999900   -1    0    0    0    0 -0.00000000000E+00 -0.00000000000E+00 -0.74505805969E-08  0.93827000000E+00  0.93827000000E+00 0. -1.
     999902    2    1    2    0    0 -0.91041172890E-02 -0.21187492606E-01  0.51021558266E-02  0.10203116430E+01  0.10200382454E+01 0.  0.
     999903    2    3    3    0    0 -0.60089468878E-02  0.10227109799E+00  0.75757638830E-01  0.12888368685E+00  0.19398452739E-01 0.  0.
         14    1    1    2    0    0  0.91041172890E-02  0.21187492606E-01 -0.51021558266E-02  0.23618357026E-01  0.00000000000E+00 0.  1.
     999901    1    3    3    0    0 -0.30951704012E-02 -0.12345859060E+00 -0.70655483003E-01  0.89142795612E+00  0.88000000000E+00 0. -1.
        -11    1    4    4    0    0  0.68879916064E-02  0.44720632183E-01  0.34592881322E-01  0.56958826624E-01  0.51100000000E-03 0.  1.
         11    1    4    4    0    0 -0.12896938494E-01  0.57550465811E-01  0.41164757507E-01  0.71924860230E-01  0.51100000000E-03 0. -1.
</event>
<event>
 8    1  0.1095698E+005  0.1043930E+01  0.7957747E-01            NaN
         13   -1    0    0    0    0  0.00000000000E+00  0.00000000000E+00  0.74505805969E-08  0.10566000000E+00  0.10566000000E+00 0. -1.
     999900   -1    0    0    0    0 -0.00000000000E+00 -0.00000000000E+00 -0.74505805969E-08  0.93827000000E+00  0.93827000000E+00 0. -1.
     999902    2    1    2    0    0  0.15012623651E-01 -0.17506988856E-01 -0.91935772334E-03  0.10208492993E+01  0.10205883465E+01 0.  0.
     999903    2    3    3    0    0  0.98443090881E-01 -0.55442628040E-01  0.66475825583E-01  0.13352643451E+00  0.25403664707E-01 0.  0.
         14    1    1    2    0    0 -0.15012623651E-01  0.17506988856E-01  0.91935772334E-03  0.23080700733E-01  0.00000000000E+00 0.  1.
     999901    1    3    3    0    0 -0.83430467231E-01  0.37935639184E-01 -0.67395183306E-01  0.88732286475E+00  0.88000000000E+00 0.  1.
        -11    1    4    4    0    0  0.73774725527E-01 -0.28034246432E-01  0.45032112025E-01  0.90866832970E-01  0.51100000000E-03 0.  1.
         11    1    4    4    0    0  0.24668365355E-01 -0.27408381608E-01  0.21443713558E-01  0.42659601543E-01  0.51100000000E-03 0. -1.
</event>
<event>
 8    1  0.1095698E+005  0.1043930E+01  0.7957747E-01            NaN
         13   -1    0    0    0    0  0.00000000000E+00  0.00000000000E+00  0.74505805969E-08  0.10566000000E+00  0.10566000000E+00 0.  1.
     999900   -1    0    0    0    0 -0.00000000000E+00 -0.00000000000E+00 -0.74505805969E-08  0.93827000000E+00  0.93827000000E+00 0. -1.
     999902    2    1    2    0    0 -0.27904653275E-02 -0.48542898156E-02  0.21119246330E-01  0.10220811238E+01  0.10218475670E+01 0.  0.
     999903    2    3    3    0    0  0.12599393233E+00 -0.26396479401E-01 -0.19321602190E-01  0.13152795342E+00  0.18842322354E-01 0.  0.
         14    1    1    2    0    0  0.27904653275E-02  0.48542898156E-02 -0.21119246330E-01  0.21848876216E-01  0.00000000000E+00 0. -1.
     999901    1    3    3    0    0 -0.12878439766E+00  0.21542189585E-01  0.40440848520E-01  0.89055317036E+00  0.88000000000E+00 0. -1.
        -11    1    4    4    0    0  0.90510258374E-01 -0.11053565389E-01 -0.17316905985E-01  0.92813924239E-01  0.51100000000E-03 0.  1.
         11    1    4    4    0    0  0.35483673956E-01 -0.15342914012E-01 -0.20046962055E-02  0.38714029184E-01  0.51100000000E-03 0. -1.
</event>
<event>
 8    1  0.1095698E+005  0.1043930E+01  0.7957747E-01            NaN
         13   -1    0    0    0    0  0.00000000000E+00  0.00000000000E+00  0.74505805969E-08  0.10566000000E+00  0.10566000000E+00 0. -1.
     999900   -1    0    0    0    0 -0.00000000000E+00 -0.00000000000E+00 -0.74505805969E-08  0.93827000000E+00  0.93827000000E+00 0.  1.
     999902    2    1    2    0    0  0.76071756179E-02  0.30101885871E-02  0.22750879758E-01  0.10197528851E+01  0.10194662396E+01 0.  0.
     999903    2    3    3    0    0 -0.20717674212E-01  0.66896146681E-01 -0.10494992868E+00  0.12779368801E+00  0.20308192888E-01 0.  0.
         14    1    1    2    0    0 -0.76071756179E-02 -0.30101885871E-02 -0.22750879758E-01  0.24177114922E-01  0.00000000000E+00 0.  1.
     999901    1    3    3    0    0  0.28324849830E-01 -0.63885958094E-01  0.12770080844E+00  0.89195919707E+00  0.88000000000E+00 0. -1.
        -11    1    4    4    0    0 -0.91402863389E-03  0.26731240202E-01 -0.51729228630E-01  0.58237177702E-01  0.51100000000E-03 0. -1.
         11    1    4    4    0    0 -0.19803645579E-01  0.40164906479E-01 -0.53220700055E-01  0.69556510306E-01  0.51100000000E-03 0.  1.
</event>
<event>
 8    1  0.1095698E+005  0.1043930E+01  0.7957747E-01            NaN
         13   -1    0    0    0    0  0.00000000000E+00  0.00000000000E+00  0.74505805969E-08  0.10566000000E+00  0.10566000000E+00 0. -1.
     999900   -1    0    0    0    0 -0.00000000000E+00 -0.00000000000E+00 -0.74505805969E-08  0.93827000000E+00  0.93827000000E+00 0. -1.
     999902    2    1    2    0    0  0.21805679020E-01  0.79331475424E-02  0.64251733342E-02  0.10198529296E+01  0.10195686797E+01 0.  0.
     999903    2    3    3    0    0  0.60575025873E-02  0.38779276554E-01 -0.12210551797E+00  0.12984190305E+00  0.20214762967E-01 0.  0.
         14    1    1    2    0    0 -0.21805679020E-01 -0.79331475424E-02 -0.64251733342E-02  0.24077070416E-01  0.00000000000E+00 0. -1.
     999901    1    3    3    0    0  0.15748176433E-01 -0.30846129012E-01  0.12853069131E+00  0.89001102653E+00  0.88000000000E+00 0.  1.
        -11    1    4    4    0    0  0.13239189545E-01  0.25819350389E-01 -0.87742763052E-01  0.92417360833E-01  0.51100000000E-03 0. -1.
         11    1    4    4    0    0 -0.71816869575E-02  0.12959926166E-01 -0.34362754920E-01  0.37424542221E-01  0.51100000000E-03 0.  1.
</event>
<event>
 8    1  0.1095698E+005  0.1043930E+01  0.7957747E-01            NaN
         13   -1    0    0    0    0  0.00000000000E+00  0.00000000000E+00  0.74505805969E-08  0.10566000000E+00  0.10566000000E+00 0. -1.
     999900   -1    0    0    0    0 -0.00000000000E+00 -0.00000000000E+00 -0.74505805969E-08  0.93827000000E+00  0.93827000000E+00 0.  1.
     999902    2    1    2    0    0 -0.21938836786E-01 -0.26536309653E-02 -0.18108328744E-02  0.10217571916E+01  0.10215165809E+01 0.  0.
     999903    2    3    3    0    0 -0.84810482670E-01 -0.68111504027E-01 -0.75639230918E-01  0.13401386757E+00  0.20160071792E-01 0.  0.
         14    1    1    2    0    0  0.21938836786E-01  0.26536309653E-02  0.18108328744E-02  0.22172808404E-01  0.00000000000E+00 0.  1.
     999901    1    3    3    0    0  0.62871645885E-01  0.65457873062E-01  0.73828398043E-01  0.88774332403E+00  0.88000000000E+00 0. -1.
        -11    1    4    4    0    0 -0.26501683337E-01 -0.21436504482E-01 -0.12830307872E-01  0.36424454220E-01  0.51100000000E-03 0. -1.
         11    1    4    4    0    0 -0.58308799334E-01 -0.46674999545E-01 -0.62808923046E-01  0.97589413347E-01  0.51100000000E-03 0.  1.
</event>
<event>
 8    1  0.1095698E+005  0.1043930E+01  0.7957747E-01            NaN
         13   -1    0    0    0    0  0.00000000000E+00  0.00000000000E+00  0.74505805969E-08  0.10566000000E+00  0.10566000000E+00 0.  1.
     999900   -1    0    0    0    0 -0.00000000000E+00 -0.00000000000E+00 -0.74505805969E-08  0.93827000000E+00  0.93827000000E+00 0. -1.
     999902    2    1    2    0    0 -0.92944200181E-02 -0.41206362304E-02 -0.21158872667E-01  0.10204552523E+01  0.10201852078E+01 0.  0.
     999903    2    3    3    0    0  0.26688586762E-01  0.90002722742E-01 -0.90523693446E-01  0.13199283789E+00  0.20366625017E-01 0.  0.
         14    1    1    2    0    0  0.92944200181E-02  0.41206362304E-02  0.21158872667E-01  0.23474747687E-01  0.00000000000E+00 0.  1.
     999901    1    3    3    0    0 -0.35983006780E-01 -0.94123358973E-01  0.69364820779E-01  0.88846241442E+00  0.88000000000E+00 0.  1.
        -11    1    4    4    0    0  0.25627930443E-01  0.58673265721E-01 -0.53175264692E-01  0.83229879402E-01  0.51100000000E-03 0. -1.
         11    1    4    4    0    0  0.10606563193E-02  0.31329457021E-01 -0.37348428754E-01  0.48762958488E-01  0.51100000000E-03 0.  1.
</event>
<event>
 8    1  0.1095698E+005  0.1043930E+01  0.7957747E-01            NaN
         13   -1    0    0    0    0  0.00000000000E+00  0.00000000000E+00  0.74505805969E-08  0.10566000000E+00  0.10566000000E+00 0.  1.
     999900   -1    0    0    0    0 -0.00000000000E+00 -0.00000000000E+00 -0.74505805969E-08  0.93827000000E+00  0.93827000000E+00 0. -1.
     999902    2    1    2    0    0  0.22842141880E-01 -0.11259334741E-01 -0.45225026893E-02  0.10180651765E+01  0.10177365644E+01 0.  0.
     999903    2    3    3    0    0 -0.89938454586E-01 -0.75908838745E-01  0.43823657981E-01  0.12720246397E+00  0.20220693087E-01 0.  0.
         14    1    1    2    0    0 -0.22842141880E-01  0.11259334741E-01  0.45225026893E-02  0.25864823507E-01  0.00000000000E+00 0. -1.
     999901    1    3    3    0    0  0.11278059647E+00  0.64649504004E-01 -0.48346160670E-01  0.89086271252E+00  0.88000000000E+00 0. -1.
        -11    1    4    4    0    0 -0.89642903726E-02 -0.11928549205E-01  0.12151765579E-01  0.19250332873E-01  0.51100000000E-03 0.  1.
         11    1    4    4    0    0 -0.80974164214E-01 -0.63980289540E-01  0.31671892402E-01  0.10795213110E+00  0.51100000000E-03 0. -1.
</event>
<event>
 8    1  0.1095698E+005  0.1043930E+01  0.7957747E-01            NaN
         13   -1    0    0    0    0  0.00000000000E+00  0.00000000000E+00  0.74505805969E-08  0.10566000000E+00  0.10566000000E+00 0.  1.
     999900   -1    0    0    0    0 -0.00000000000E+00 -0.00000000000E+00 -0.74505805969E-08  0.93827000000E+00  0.93827000000E+00 0. -1.
     999902    2    1    2    0    0 -0.78778880083E-02  0.20128933090E-01 -0.10125628741E-01  0.10200602823E+01  0.10197809647E+01 0.  0.
     999903    2    3    3    0    0  0.43376393469E-01 -0.11202626653E+00  0.39496543812E-01  0.12733728035E+00  0.14946909056E-01 0.  0.
         14    1    1    2    0    0  0.78778880083E-02 -0.20128933090E-01  0.10125628741E-01  0.23869717724E-01  0.00000000000E+00 0.  1.
     999901    1    3    3    0    0 -0.51254281477E-01  0.13215519962E+00 -0.49622172553E-01  0.89272300193E+00  0.88000000000E+00 0. -1.
        -11    1    4    4    0    0  0.30632148114E-01 -0.92012690568E-01  0.35491709329E-01  0.10326948376E+00  0.51100000000E-03 0. -1.
         11    1    4    4    0    0  0.12744245354E-01 -0.20013575965E-01  0.40048344826E-02  0.24067796592E-01  0.51100000000E-03 0.  1.
</event>
<event>
 8    1  0.1095698E+005  0.1043930E+01  0.7957747E-01            NaN
         13   -1    0    0    0    0  0.00000000000E+00  0.00000000000E+00  0.74505805969E-08  0.10566000000E+00  0.10566000000E+00 0. -1.
     999900   -1    0    0    0    0 -0.00000000000E+00 -0.00000000000E+00 -0.74505805969E-08  0.93827000000E+00  0.93827000000E+00 0.  1.
     999902    2    1    2    0    0 -0.50999372211E-02  0.92119325245E-02  0.14704946686E-01  0.10258439690E+01  0.10256845247E+01 0.  0.
     999903    2    3    3    0    0  0.37928984777E-01 -0.11222891035E+00 -0.57977140133E-01  0.13349759443E+00  0.20647584277E-01 0.  0.
         14    1    1    2    0    0  0.50999372211E-02 -0.92119325245E-02 -0.14704946686E-01  0.18086031006E-01  0.00000000000E+00 0.  1.
     999901    1    3    3    0    0 -0.43028921998E-01  0.12144084288E+00  0.72682086820E-01  0.89234637456E+00  0.88000000000E+00 0.  1.
        -11    1    4    4    0    0  0.33313177236E-01 -0.67443852449E-01 -0.36566187962E-01  0.83640828749E-01  0.51100000000E-03 0. -1.
         11    1    4    4    0    0  0.46158075402E-02 -0.44785057903E-01 -0.21410952171E-01  0.49856765684E-01  0.51100000000E-03 0.  1.
</event>
<event>
 8    1  0.1095698E+005  0.1043930E+01  0.7957747E-01            NaN
         13   -1    0    0    0    0  0.00000000000E+00  0.00000000000E+00  0.74505805969E-08  0.10566000000E+00  0.10566000000E+00 0. -1.
     999900   -1    0    0    0    0 -0.00000000000E+00 -0.00000000000E+00 -0.74505805969E-08  0.93827000000E+00  0.93827000000E+00 0. -1.
     999902    2    1    2    0    0 -0.20200138578E-01 -0.78512133325E-02 -0.99668738042E-02  0.10200757399E+01  0.10197967883E+01 0.  0.
     999903    2    3    3    0    0  0.57877291044E-01 -0.95094638357E-01  0.62776088636E-01  0.12934624183E+00  0.19920891252E-01 0.  0.
         14    1    1    2    0    0  0.20200138578E-01  0.78512133325E-02  0.99668738042E-02  0.23854260056E-01  0.00000000000E+00 0. -1.
     999901    1    3    3    0    0 -0.78077429623E-01  0.87243425024E-01 -0.72742962440E-01  0.89072949811E+00  0.88000000000E+00 0. -1.
        -11    1    4    4    0    0  0.21693428785E-01 -0.20658028115E-01  0.12193740487E-01  0.32346675348E-01  0.51100000000E-03 0. -1.
         11    1    4    4    0    0  0.36183862259E-01 -0.74436610242E-01  0.50582348149E-01  0.96999566482E-01  0.51100000000E-03 0.  1.
</event>
<event>
 8    1  0.1095698E+005  0.1043930E+01  0.7957747E-01            NaN
         13   -1    0    0    0    0  0.00000000000E+00  0.00000000000E+00  0.74505805969E-08  0.10566000000E+00  0.10566000000E+00 0. -1.
     999900   -1    0    0    0    0 -0.00000000000E+00 -0.00000000000E+00 -0.74505805969E-08  0.93827000000E+00  0.93827000000E+00 0. -1.
     999902    2    1    2    0    0  0.13697281026E-01 -0.31981644491E-02 -0.19139046484E-01  0.10201782240E+01  0.10199016922E+01 0.  0.
     999903    2    3    3    0    0 -0.12676785970E+00  0.10706234771E-02 -0.94278911555E-02  0.12897511311E+00  0.21782060974E-01 0.  0.
         14    1    1    2    0    0 -0.13697281026E-01  0.31981644491E-02  0.19139046484E-01  0.23751776011E-01  0.00000000000E+00 0. -1.
     999901    1    3    3    0    0  0.14046514073E+00 -0.42687879262E-02 -0.97111553284E-02  0.89120311088E+00  0.88000000000E+00 0.  1.
        -11    1    4    4    0    0 -0.12130221399E+00 -0.29752592479E-02 -0.11405940743E-01  0.12187467289E+00  0.51100000000E-03 0. -1.
         11    1    4    4    0    0 -0.54656457125E-02  0.40458827250E-02  0.19780495870E-02  0.71004402150E-02  0.51100000000E-03 0.  1.
</event>
<event>
 8    1  0.1095698E+005  0.1043930E+01  0.7957747E-01            NaN
         13   -1    0    0    0    0  0.00000000000E+00  0.00000000000E+00  0.74505805969E-08  0.10566000000E+00  0.10566000000E+00 0. -1.
     999900   -1    0    0    0    0 -0.00000000000E+00 -0.00000000000E+00 -0.74505805969E-08  0.93827000000E+00  0.93827000000E+00 0.  1.
     999902    2    1    2    0    0  0.82326758741E-02  0.20800982747E-01  0.46190464044E-02  0.10210872019E+01  0.10208316612E+01 0.  0.
     999903    2    3    3    0    0  0.97273107095E-01 -0.80376543522E-01 -0.25391299562E-01  0.13032027892E+00  0.20401247311E-01 0.  0.
         14    1    1    2    0    0 -0.82326758741E-02 -0.20800982747E-01 -0.46190464044E-02  0.22842798098E-01  0.00000000000E+00 0.  1.
     999901    1    3    3    0    0 -0.89040431221E-01  0.10117752627E+00  0.30010345967E-01  0.89076692298E+00  0.88000000000E+00 0.  1.
        -11    1    4    4    0    0  0.61391311310E-01 -0.40691613334E-01 -0.81335763307E-02  0.74102069371E-01  0.51100000000E-03 0. -1.
         11    1    4    4    0    0  0.35881795784E-01 -0.39684930188E-01 -0.17257723232E-01  0.56218209549E-01  0.51100000000E-03 0.  1.
</event>
<event>
 8    1  0.1095698E+005  0.1043930E+01  0.7957747E-01            NaN
         13   -1    0    0    0    0  0.00000000000E+00  0.00000000000E+00  0.74505805969E-08  0.10566000000E+00  0.10566000000E+00 0. -1.
     999900   -1    0    0    0    0 -0.00000000000E+00 -0.00000000000E+00 -0.74505805969E-08  0.93827000000E+00  0.93827000000E+00 0.  1.
     999902    2    1    2    0    0 -0.45439864131E-03 -0.83491887795E-02  0.22368367285E-01  0.10200498977E+01  0.10197703342E+01 0.  0.
     999903    2    3    3    0    0 -0.44552080932E-01 -0.12105722696E+00 -0.12471041239E-01  0.13108336748E+00  0.19687108566E-01 0.  0.
         14    1    1    2    0    0  0.45439864131E-03  0.83491887795E-02 -0.22368367285E-01  0.23880102311E-01  0.00000000000E+00 0.  1.
     999901    1    3    3    0    0  0.44097682290E-01  0.11270803818E+00  0.34839408523E-01  0.88896653021E+00  0.88000000000E+00 0. -1.
        -11    1    4    4    0    0 -0.36040493867E-01 -0.88009855691E-01 -0.11061259668E-02  0.95111179850E-01  0.51100000000E-03 0. -1.
         11    1    4    4    0    0 -0.85115870653E-02 -0.33047371272E-01 -0.11364915272E-01  0.35972187625E-01  0.51100000000E-03 0.  1.
</event>
<event>
 8    1  0.1095698E+005  0.1043930E+01  0.7957747E-01            NaN
         13   -1    0    0    0    0  0.00000000000E+00  0.00000000000E+00  0.74505805969E-08  0.10566000000E+00  0.10566000000E+00 0. -1.
     999900   -1    0    0    0    0 -0.00000000000E+00 -0.00000000000E+00 -0.74505805969E-08  0.93827000000E+00  0.93827000000E+00 0. -1.
     999902    2    1    2    0    0  0.60176047104E-02 -0.39275654256E-02  0.22448653046E-01  0.10203592690E+01  0.10200869857E+01 0.  0.
     999903    2    3    3    0    0 -0.59129916140E-01 -0.11479468960E+00  0.22572692956E-03  0.13073599078E+00  0.20437235383E-01 0.  0.
         14    1    1    2    0    0 -0.60176047104E-02  0.39275654256E-02 -0.22448653046E-01  0.23570731007E-01  0.00000000000E+00 0.  1.
     999901    1    3    3    0    0  0.65147520851E-01  0.11086712417E+00  0.22222926116E-01  0.88962327821E+00  0.88000000000E+00 0.  1.
        -11    1    4    4    0    0 -0.66272847545E-02 -0.30642907911E-01 -0.29730363580E-02  0.31496170793E-01  0.51100000000E-03 0. -1.
         11    1    4    4    0    0 -0.52502631386E-01 -0.84151781686E-01  0.31987632876E-02  0.99239819986E-01  0.51100000000E-03 0.  1.
</event>
<event>
 8    1  0.1095698E+005  0.1043930E+01  0.7957747E-01            NaN
         13   -1    0    0    0    0  0.00000000000E+00  0.00000000000E+00  0.74505805969E-08  0.10566000000E+00  0.10566000000E+00 0. -1.
     999900   -1    0    0    0    0 -0.00000000000E+00 -0.00000000000E+00 -0.74505805969E-08  0.93827000000E+00  0.93827000000E+00 0. -1.
     999902    2    1    2    0    0 -0.16959985696E-01  0.25473646472E-02  0.16506427901E-01  0.10201267997E+01  0.10198490551E+01 0.  0.
     999903    2    3    3    0    0  0.67676075726E-01 -0.70422977022E-02  0.11024240926E+00  0.13105894027E+00  0.19834612225E-01 0.  0.
         14    1    1    2    0    0  0.16959985696E-01 -0.25473646472E-02 -0.16506427901E-01  0.23803200279E-01  0.00000000000E+00 0.  1.
     999901    1    3    3    0    0 -0.84636061422E-01  0.95896623494E-02 -0.93735981355E-01  0.88906785946E+00  0.88000000000E+00 0. -1.
        -11    1    4    4    0    0  0.38436503806E-01 -0.12070395728E-01  0.52923956569E-01  0.66515152994E-01  0.51100000000E-03 0.  1.
         11    1    4    4    0    0  0.29239571920E-01  0.50280980260E-02  0.57318452688E-01  0.64543787272E-01  0.51100000000E-03 0. -1.
</event>
<event>
 8    1  0.1095698E+005  0.1043930E+01  0.7957747E-01            NaN
         13   -1    0    0    0    0  0.00000000000E+00  0.00000000000E+00  0.74505805969E-08  0.10566000000E+00  0.10566000000E+00 0. -1.
     999900   -1    0    0    0    0 -0.00000000000E+00 -0.00000000000E+00 -0.74505805969E-08  0.93827000000E+00  0.93827000000E+00 0. -1.
     999902    2    1    2    0    0  0.14884815141E-01 -0.38019084005E-02 -0.17440598687E-01  0.10206880829E+01  0.10204234297E+01 0.  0.
     999903    2    3    3    0    0 -0.98300757462E-01 -0.20873962395E-01 -0.81644400089E-01  0.13095522578E+00  0.19613818331E-01 0.  0.
         14    1    1    2    0    0 -0.14884815141E-01  0.38019084005E-02  0.17440598687E-01  0.23241917129E-01  0.00000000000E+00 0. -1.
     999901    1    3    3    0    0  0.11318557260E+00  0.17072053994E-01  0.64203801402E-01  0.88973285709E+00  0.88000000000E+00 0.  1.
        -11    1    4    4    0    0 -0.58044625980E-01 -0.55446704602E-02 -0.37814712212E-01  0.69499176659E-01  0.51100000000E-03 0. -1.
         11    1    4    4    0    0 -0.40256131482E-01 -0.15329291935E-01 -0.43829687877E-01  0.61456049121E-01  0.51100000000E-03 0.  1.
</event>
<event>
 8    1  0.1095698E+005  0.1043930E+01  0.7957747E-01            NaN
         13   -1    0    0    0    0  0.00000000000E+00  0.00000000000E+00  0.74505805969E-08  0.10566000000E+00  0.10566000000E+00 0. -1.
     999900   -1    0    0    0    0 -0.00000000000E+00 -0.00000000000E+00 -0.74505805969E-08  0.93827000000E+00  0.93827000000E+00 0. -1.
     999902    2    1    2    0    0 -0.16628677740E-02  0.16562091543E-01 -0.15768700758E-01  0.10210014168E+01  0.10207439312E+01 0.  0.
     999903    2    3    3    0    0  0.76034032077E-01 -0.64560280833E-02  0.10237025158E+00  0.12941661758E+00  0.21121982977E-01 0.  0.
         14    1    1    2    0    0  0.16628677740E-02 -0.16562091543E-01  0.15768700758E-01  0.22928583234E-01  0.00000000000E+00 0. -1.
     999901    1    3    3    0    0 -0.77696899851E-01  0.23018119627E-01 -0.11813895234E+00  0.89158479918E+00  0.88000000000E+00 0. -1.
        -11    1    4    4    0    0  0.39166667421E-01 -0.32124430267E-02  0.35377134905E-01  0.52878638619E-01  0.51100000000E-03 0.  1.
         11    1    4    4    0    0  0.36867364656E-01 -0.32435850567E-02  0.66993116676E-01  0.76537978963E-01  0.51100000000E-03 0. -1.
</event>
<event>
 8    1  0.1095698E+005  0.1043930E+01  0.7957747E-01            NaN
         13   -1    0    0    0    0  0.00000000000E+00  0.00000000000E+00  0.74505805969E-08  0.10566000000E+00  0.10566000000E+00 0.  1.
     999900   -1    0    0    0    0 -0.00000000000E+00 -0.00000000000E+00 -0.74505805969E-08  0.93827000000E+00  0.93827000000E+00 0.  1.
     999902    2    1    2    0    0 -0.51637304113E-02  0.60968389776E-02  0.21990258165E-01  0.10205332692E+01  0.10202650374E+01 0.  0.
     999903    2    3    3    0    0  0.43181605918E-02  0.89146341604E-01 -0.91353353857E-01  0.12933525501E+00  0.20407258366E-01 0.  0.
         14    1    1    2    0    0  0.51637304113E-02 -0.60968389776E-02 -0.21990258165E-01  0.23396730786E-01  0.00000000000E+00 0. -1.
     999901    1    3    3    0    0 -0.94818910031E-02 -0.83049502627E-01  0.11334361202E+00  0.89119801421E+00  0.88000000000E+00 0. -1.
        -11    1    4    4    0    0 -0.81384769260E-02  0.35960454197E-01 -0.34661099360E-01  0.50606738707E-01  0.51100000000E-03 0.  1.
         11    1    4    4    0    0  0.12456637518E-01  0.53185887407E-01 -0.56692254498E-01  0.78728516298E-01  0.51100000000E-03 0. -1.
</event>
<event>
 8    1  0.1095698E+005  0.1043930E+01  0.7957747E-01            NaN
         13   -1    0    0    0    0  0.00000000000E+00  0.00000000000E+00  0.74505805969E-08  0.10566000000E+00  0.10566000000E+00 0.  1.
     999900   -1    0    0    0    0 -0.00000000000E+00 -0.00000000000E+00 -0.74505805969E-08  0.93827000000E+00  0.93827000000E+00 0.  1.
     999902    2    1    2    0    0 -0.10751174026E-02 -0.23905921185E-01  0.75537498394E-03  0.10199879964E+01  0.10197069644E+01 0.  0.
     999903    2    3    3    0    0  0.36479547120E-01 -0.59064018025E-01 -0.10999260966E+00  0.13155591644E+00  0.19729910940E-01 0.  0.
         14    1    1    2    0    0  0.10751174026E-02  0.23905921185E-01 -0.75537498394E-03  0.23942003603E-01  0.00000000000E+00 0. -1.
     999901    1    3    3    0    0 -0.37554664522E-01  0.35158096839E-01  0.11074798465E+00  0.88843207996E+00  0.88000000000E+00 0. -1.
        -11    1    4    4    0    0  0.16679247343E-01 -0.15135300388E-01 -0.48117596816E-01  0.53130394824E-01  0.51100000000E-03 0.  1.
         11    1    4    4    0    0  0.19800299777E-01 -0.43928717637E-01 -0.61875012846E-01  0.78425521612E-01  0.51100000000E-03 0. -1.
</event>
<event>
 8    1  0.1095698E+005  0.1043930E+01  0.7957747E-01            NaN
         13   -1    0    0    0    0  0.00000000000E+00  0.00000000000E+00  0.74505805969E-08  0.10566000000E+00  0.10566000000E+00 0. -1.
     999900   -1    0    0    0    0 -0.00000000000E+00 -0.00000000000E+00 -0.74505805969E-08  0.93827000000E+00  0.93827000000E+00 0. -1.
     999902    2    1    2    0    0  0.22157829946E-01  0.87402679272E-02  0.12153016841E-02  0.10200796610E+01  0.10198008022E+01 0.  0.
     999903    2    3    3    0    0 -0.11739838473E+00  0.47669084243E-01  0.34144699796E-02  0.12822977111E+00  0.19403434305E-01 0.  0.
         14    1    1    2    0    0 -0.22157829946E-01 -0.87402679272E-02 -0.12153016841E-02  0.23850338981E-01  0.00000000000E+00 0.  1.
     999901    1    3    3    0    0  0.13955621468E+00 -0.38928816316E-01 -0.21991682955E-02  0.89184988991E+00  0.88000000000E+00 0.  1.
        -11    1    4    4    0    0 -0.23505958609E-01  0.38794818075E-02  0.60787530945E-02  0.24592536051E-01  0.51100000000E-03 0.  1.
         11    1    4    4    0    0 -0.93892426122E-01  0.43789602435E-01 -0.26642831149E-02  0.10363723506E+00  0.51100000000E-03 0. -1.
</event>
<event>
 8    1  0.1095698E+005  0.1043930E+01  0.7957747E-01            NaN
         13   -1    0    0    0    0  0.00000000000E+00  0.00000000000E+00  0.74505805969E-08  0.10566000000E+00  0.10566000000E+00 0.  1.
     999900   -1    0    0    0    0 -0.00000000000E+00 -0.00000000000E+00 -0.74505805969E-08  0.93827000000E+00  0.93827000000E+00 0.  1.
     999902    2    1    2    0    0 -0.19187819022E-01  0.56084487895E-02  0.14610107127E-01  0.10191695007E+01  0.10188686808E+01 0.  0.
     999903    2    3    3    0    0  0.64324233503E-01 -0.39119397908E-01  0.10349201827E+00  0.12963319601E+00  0.20645419690E-01 0.  0.
         14    1    1    2    0    0  0.19187819022E-01 -0.56084487895E-02 -0.14610107127E-01  0.24760499327E-01  0.00000000000E+00 0. -1.
     999901    1    3    3    0    0 -0.83512052525E-01  0.44727846698E-01 -0.88881911139E-01  0.88953630466E+00  0.88000000000E+00 0.  1.
        -11    1    4    4    0    0  0.29569826353E-01 -0.12989671692E-01  0.59938301625E-01  0.68087938167E-01  0.51100000000E-03 0.  1.
         11    1    4    4    0    0  0.34754407150E-01 -0.26129726216E-01  0.43553716642E-01  0.61545257842E-01  0.51100000000E-03 0. -1.
</event>
<event>
 8    1  0.1095698E+005  0.1043930E+01  0.7957747E-01            NaN
         13   -1    0    0    0    0  0.00000000000E+00  0.00000000000E+00  0.74505805969E-08  0.10566000000E+00  0.10566000000E+00 0. -1.
     999900   -1    0    0    0    0 -0.00000000000E+00 -0.00000000000E+00 -0.74505805969E-08  0.93827000000E+00  0.93827000000E+00 0. -1.
     999902    2    1    2    0    0 -0.24216397242E-02 -0.22572935683E-01  0.79392017505E-03  0.10212136606E+01  0.10209609731E+01 0.  0.
     999903    2    3    3    0    0  0.41160968193E-01  0.11965543878E+00  0.12566903059E-01  0.12865164188E+00  0.19536339836E-01 0.  0.
         14    1    1    2    0    0  0.24216397242E-02  0.22572935683E-01 -0.79392017505E-03  0.22716339351E-01  0.00000000000E+00 0.  1.
     999901    1    3    3    0    0 -0.43582607918E-01 -0.14222837446E+00 -0.11772982884E-01  0.89256201876E+00  0.88000000000E+00 0. -1.
        -11    1    4    4    0    0  0.32016912100E-01  0.77000575780E-01  0.15907802440E-01  0.84896941231E-01  0.51100000000E-03 0. -1.
         11    1    4    4    0    0  0.91440560934E-02  0.42654863002E-01 -0.33408993812E-02  0.43754700653E-01  0.51100000000E-03 0.  1.
</event>
<event>
 8    1  0.1103371E+005  0.1043930E+01  0.7957747E-01            NaN
         13   -1    0    0    0    0  0.00000000000E+00  0.00000000000E+00  0.74505805969E-08  0.10566000000E+00  0.10566000000E+00 0. -1.
     999900   -1    0    0    0    0 -0.00000000000E+00 -0.00000000000E+00 -0.74505805969E-08  0.93827000000E+00  0.93827000000E+00 0.  1.
     999902    2    1    2    0    0  0.14784200060E-02 -0.28904799124E-03  0.24309200795E-01  0.10195741687E+01  0.10192832182E+01 0.  0.
     999903    2    3    3    0    0  0.95741520860E-01 -0.41241949103E-02 -0.82583966822E-01  0.12809988988E+00  0.20149997795E-01 0.  0.
         14    1    1    2    0    0 -0.14784200060E-02  0.28904799124E-03 -0.24309200795E-01  0.24355831288E-01  0.00000000000E+00 0.  1.
     999901    1    3    3    0    0 -0.94263100854E-01  0.38351469191E-02  0.10689316762E+00  0.89147427883E+00  0.88000000000E+00 0. -1.
        -11    1    4    4    0    0  0.47494537774E-01 -0.12022864759E-01 -0.39537783955E-01  0.62958540933E-01  0.51100000000E-03 0. -1.
         11    1    4    4    0    0  0.48246983086E-01  0.78986698483E-02 -0.43046182866E-01  0.65141348947E-01  0.51100000000E-03 0.  1.
</event>
<event>
 8    1  0.1095698E+005  0.1043930E+01  0.7957747E-01            NaN
         13   -1    0    0    0    0  0.00000000000E+00  0.00000000000E+00  0.74505805969E-08  0.10566000000E+00  0.10566000000E+00 0. -1.
     999900   -1    0    0    0    0 -0.00000000000E+00 -0.00000000000E+00 -0.74505805969E-08  0.93827000000E+00  0.93827000000E+00 0.  1.
     999902    2    1    2    0    0  0.12397139546E-01 -0.25536264047E-02  0.19860344124E-01  0.10203791328E+01  0.10201073136E+01 0.  0.
     999903    2    3    3    0    0 -0.77135858540E-01 -0.31833432145E-01 -0.94321418100E-01  0.12801657219E+00  0.22987056531E-01 0.  0.
         14    1    1    2    0    0 -0.12397139546E-01  0.25536264047E-02 -0.19860344124E-01  0.23550867191E-01  0.00000000000E+00 0.  1.
     999901    1    3    3    0    0  0.89532998086E-01  0.29279805740E-01  0.11418176222E+00  0.89236256062E+00  0.88000000000E+00 0. -1.
        -11    1    4    4    0    0 -0.32698269110E-01 -0.37881528530E-02 -0.46433858502E-01  0.56920042526E-01  0.51100000000E-03 0. -1.
         11    1    4    4    0    0 -0.44437589430E-01 -0.28045279292E-01 -0.47887559598E-01  0.71096529663E-01  0.51100000000E-03 0.  1.
</event>
<event>
 8    1  0.1095698E+005  0.1043930E+01  0.7957747E-01            NaN
         13   -1    0    0    0    0  0.00000000000E+00  0.00000000000E+00  0.74505805969E-08  0.10566000000E+00  0.10566000000E+00 0. -1.
     999900   -1    0    0    0    0 -0.00000000000E+00 -0.00000000000E+00 -0.74505805969E-08  0.93827000000E+00  0.93827000000E+00 0.  1.
     999902    2    1    2    0    0 -0.21346631783E-01  0.58971653226E-02 -0.77155818721E-02  0.10204782314E+01  0.10202087214E+01 0.  0.
     999903    2    3    3    0    0  0.47788974328E-01 -0.11581898004E+00  0.22363819200E-01  0.12890696534E+00  0.20470542264E-01 0.  0.
         14    1    1    2    0    0  0.21346631783E-01 -0.58971653226E-02  0.77155818721E-02  0.23451768610E-01  0.00000000000E+00 0.  1.
     999901    1    3    3    0    0 -0.69135606110E-01  0.12171614536E+00 -0.30079401072E-01  0.89157126605E+00  0.88000000000E+00 0. -1.
        -11    1    4    4    0    0  0.23762789934E-01 -0.81320343397E-01  0.18218771244E-01  0.86659409081E-01  0.51100000000E-03 0. -1.
         11    1    4    4    0    0  0.24026184393E-01 -0.34498636639E-01  0.41450479556E-02  0.42247556261E-01  0.51100000000E-03 0.  1.
</event>
<event>
 8    1  0.1095698E+005  0.1043930E+01  0.7957747E-01            NaN
         13   -1    0    0    0    0  0.00000000000E+00  0.00000000000E+00  0.74505805969E-08  0.10566000000E+00  0.10566000000E+00 0.  1.
     999900   -1    0    0    0    0 -0.00000000000E+00 -0.00000000000E+00 -0.74505805969E-08  0.93827000000E+00  0.93827000000E+00 0.  1.
     999902    2    1    2    0    0 -0.17823454968E-01  0.26720171018E-02  0.16427605612E-01  0.10195439087E+01  0.10192522261E+01 0.  0.
     999903    2    3    3    0    0 -0.22008886622E-01 -0.12652056485E+00 -0.18332479381E-02  0.12991381713E+00  0.19554913993E-01 0.  0.
         14    1    1    2    0    0  0.17823454968E-01 -0.26720171018E-02 -0.16427605612E-01  0.24386091293E-01  0.00000000000E+00 0. -1.
     999901    1    3    3    0    0  0.41854316537E-02  0.12919258196E+00  0.18260853550E-01  0.88963009158E+00  0.88000000000E+00 0.  1.
        -11    1    4    4    0    0 -0.19158878546E-01 -0.86284703587E-01 -0.93457256387E-02  0.88880348835E-01  0.51100000000E-03 0.  1.
         11    1    4    4    0    0 -0.28500080758E-02 -0.40235861268E-01  0.75124777006E-02  0.41033468293E-01  0.51100000000E-03 0. -1.
</event>
<event>
 8    1  0.1095698E+005  0.1043930E+01  0.7957747E-01            NaN
         13   -1    0    0    0    0  0.00000000000E+00  0.00000000000E+00  0.74505805969E-08  0.10566000000E+00  0.10566000000E+00 0.  1.
     999900   -1    0    0    0    0 -0.00000000000E+00 -0.00000000000E+00 -0.74505805969E-08  0.93827000000E+00  0.93827000000E+00 0.  1.
     999902    2    1    2    0    0 -0.13661369390E-02 -0.15408940362E-01 -0.17553728529E-01  0.10205326677E+01  0.10202644219E+01 0.  0.
     999903    2    3    3    0    0  0.73901882912E-01 -0.53994593660E-01 -0.93657072563E-01  0.13320756019E+00  0.24407015557E-01 0.  0.
         14    1    1    2    0    0  0.13661369390E-02  0.15408940362E-01  0.17553728529E-01  0.23397332294E-01  0.00000000000E+00 0.  1.
     999901    1    3    3    0    0 -0.75268019851E-01  0.38585653298E-01  0.76103344034E-01  0.88732510751E+00  0.88000000000E+00 0. -1.
        -11    1    4    4    0    0  0.40464394453E-01 -0.29141996194E-01 -0.33672429624E-01  0.60172392328E-01  0.51100000000E-03 0.  1.
         11    1    4    4    0    0  0.33437488459E-01 -0.24852597466E-01 -0.59984642940E-01  0.73035167863E-01  0.51100000000E-03 0. -1.
</event>
<event>
 8    1  0.1095698E+005  0.1043930E+01  0.7957747E-01            NaN
         13   -1    0    0    0    0  0.00000000000E+00  0.00000000000E+00  0.74505805969E-08  0.10566000000E+00  0.10566000000E+00 0. -1.
     999900   -1    0    0    0    0 -0.00000000000E+00 -0.00000000000E+00 -0.74505805969E-08  0.93827000000E+00  0.93827000000E+00 0. -1.
     999902    2    1    2    0    0  0.22067649485E-01 -0.10241912946E-02  0.69570718866E-02  0.10207690205E+01  0.10205062284E+01 0.  0.
     999903    2    3    3    0    0  0.98716570927E-01  0.39535629931E-01 -0.76706057780E-01  0.13255751669E+00  0.19484571366E-01 0.  0.
         14    1    1    2    0    0 -0.22067649485E-01  0.10241912946E-02 -0.69570718866E-02  0.23160979488E-01  0.00000000000E+00 0.  1.
     999901    1    3    3    0    0 -0.76648921442E-01 -0.40559821225E-01  0.83663129667E-01  0.88821150382E+00  0.88000000000E+00 0.  1.
        -11    1    4    4    0    0  0.17721029669E-02  0.16844891105E-02  0.98408855998E-03  0.26846608319E-02  0.51100000000E-03 0. -1.
         11    1    4    4    0    0  0.96944467960E-01  0.37851140820E-01 -0.77690146340E-01  0.12987285586E+00  0.51100000000E-03 0.  1.
</event>
<event>
 8    1  0.1095698E+005  0.1043930E+01  0.7957747E-01            NaN
         13   -1    0    0    0    0  0.00000000000E+00  0.00000000000E+00  0.74505805969E-08  0.10566000000E+00  0.10566000000E+00 0. -1.
     999900   -1    0    0    0    0 -0.00000000000E+00 -0.00000000000E+00 -0.74505805969E-08  0.93827000000E+00  0.93827000000E+00 0. -1.
     999902    2    1    2    0    0  0.23927912781E-01  0.12776170575E-02  0.44126471488E-02  0.10195650914E+01  0.10192739214E+01 0.  0.
     999903    2    3    3    0    0  0.10593106301E+00 -0.45223712487E-01 -0.61710953008E-01  0.13206341773E+00  0.19129304745E-01 0.  0.
         14    1    1    2    0    0 -0.23927912781E-01 -0.12776170575E-02 -0.44126471488E-02  0.24364908583E-01  0.00000000000E+00 0.  1.
     999901    1    3    3    0    0 -0.82003150229E-01  0.46501329545E-01  0.66123600157E-01  0.88750167369E+00  0.88000000000E+00 0.  1.
        -11    1    4    4    0    0  0.56121377967E-02 -0.79338610859E-02 -0.52126033035E-02  0.11039682812E-01  0.51100000000E-03 0.  1.
         11    1    4    4    0    0  0.10031892521E+00 -0.37289851401E-01 -0.56498349705E-01  0.12102373492E+00  0.51100000000E-03 0. -1.
</event>
<event>
 8    1  0.1095698E+005  0.1043930E+01  0.7957747E-01            NaN
         13   -1    0    0    0    0  0.00000000000E+00  0.00000000000E+00  0.74505805969E-08  0.10566000000E+00  0.10566000000E+00 0. -1.
     999900   -1    0    0    0    0 -0.00000000000E+00 -0.00000000000E+00 -0.74505805969E-08  0.93827000000E+00  0.93827000000E+00 0. -1.
     999902    2    1    2    0    0 -0.69612976981E-02  0.22549545198E-01 -0.68255864104E-03  0.10203205201E+01  0.10200473304E+01 0.  0.
     999903    2    3    3    0    0 -0.99732026314E-01 -0.41118259479E-01  0.70850221654E-01  0.13027729864E+00  0.17754782343E-01 0.  0.
         14    1    1    2    0    0  0.69612976981E-02 -0.22549545198E-01  0.68255864104E-03  0.23609479888E-01  0.00000000000E+00 0.  1.
     999901    1    3    3    0    0  0.92770728615E-01  0.63667804677E-01 -0.71532780295E-01  0.89004322148E+00  0.88000000000E+00 0. -1.
        -11    1    4    4    0    0 -0.70410864280E-01 -0.29049671095E-01  0.59285337437E-01  0.96522461403E-01  0.51100000000E-03 0. -1.
         11    1    4    4    0    0 -0.29321162034E-01 -0.12068588384E-01  0.11564884217E-01  0.33754837232E-01  0.51100000000E-03 0.  1.
</event>
<event>
 8    1  0.1233363E+005  0.1043930E+01  0.7957747E-01            NaN
         13   -1    0    0    0    0  0.00000000000E+00  0.00000000000E+00  0.74505805969E-08  0.10566000000E+00  0.10566000000E+00 0.  1.
     999900   -1    0    0    0    0 -0.00000000000E+00 -0.00000000000E+00 -0.74505805969E-08  0.93827000000E+00  0.93827000000E+00 0.  1.
     999902    2    1    2    0    0 -0.11760423306E-01 -0.18578753229E-01 -0.90278063246E-02  0.10201607149E+01  0.10198837705E+01 0.  0.
     999903    2    3    3    0    0 -0.63700331856E-01  0.11040015584E+00 -0.87462488794E-02  0.12924355130E+00  0.19531308091E-01 0.  0.
         14    1    1    2    0    0  0.11760423306E-01  0.18578753229E-01  0.90278063246E-02  0.23769285116E-01  0.00000000000E+00 0.  1.
     999901    1    3    3    0    0  0.51939908549E-01 -0.12897890907E+00 -0.28155744525E-03  0.89091716358E+00  0.88000000000E+00 0.  1.
        -11    1    4    4    0    0 -0.15732447368E-01  0.45685524540E-01 -0.53527339699E-02  0.48616765983E-01  0.51100000000E-03 0. -1.
         11    1    4    4    0    0 -0.47967884487E-01  0.64714631302E-01 -0.33935149094E-02  0.80626785321E-01  0.51100000000E-03 0.  1.
</event>
<event>
 8    1  0.1095698E+005  0.1043930E+01  0.7957747E-01            NaN
         13   -1    0    0    0    0  0.00000000000E+00  0.00000000000E+00  0.74505805969E-08  0.10566000000E+00  0.10566000000E+00 0. -1.
     999900   -1    0    0    0    0 -0.00000000000E+00 -0.00000000000E+00 -0.74505805969E-08  0.93827000000E+00  0.93827000000E+00 0. -1.
     999902    2    1    2    0    0 -0.76132645298E-02 -0.27611505160E-02  0.22025720580E-01  0.10204626159E+01  0.10201927427E+01 0.  0.
     999903    2    3    3    0    0 -0.59680888926E-01  0.50273813838E-01  0.10625662539E+00  0.13332193356E+00  0.19874674040E-01 0.  0.
         14    1    1    2    0    0  0.76132645298E-02  0.27611505160E-02 -0.22025720580E-01  0.23467384091E-01  0.00000000000E+00 0.  1.
     999901    1    3    3    0    0  0.52067624397E-01 -0.53034964354E-01 -0.84230904809E-01  0.88714068235E+00  0.88000000000E+00 0. -1.
        -11    1    4    4    0    0 -0.22350390393E-01  0.11594774822E-01  0.46943968723E-01  0.53272657849E-01  0.51100000000E-03 0. -1.
         11    1    4    4    0    0 -0.37330498533E-01  0.38679039016E-01  0.59312656666E-01  0.80049275711E-01  0.51100000000E-03 0.  1.
</event>
<event>
 8    1  0.1095698E+005  0.1043930E+01  0.7957747E-01            NaN
         13   -1    0    0    0    0  0.00000000000E+00  0.00000000000E+00  0.74505805969E-08  0.10566000000E+00  0.10566000000E+00 0.  1.
     999900   -1    0    0    0    0 -0.00000000000E+00 -0.00000000000E+00 -0.74505805969E-08  0.93827000000E+00  0.93827000000E+00 0.  1.
     999902    2    1    2    0    0  0.25674982316E-01 -0.84338067038E-02 -0.76781178334E-02  0.10158357425E+01  0.10154471766E+01 0.  0.
     999903    2    3    3    0    0  0.54522959891E-01 -0.11410637399E+00 -0.15407173707E-01  0.12901071148E+00  0.20331378074E-01 0.  0.
         14    1    1    2    0    0 -0.25674982316E-01  0.84338067038E-02  0.76781178334E-02  0.28094257525E-01  0.00000000000E+00 0.  1.
     999901    1    3    3    0    0 -0.28847977575E-01  0.10567256729E+00  0.77290558736E-02  0.88682503099E+00  0.88000000000E+00 0. -1.
        -11    1    4    4    0    0  0.52227284786E-01 -0.97556716027E-01 -0.17942807185E-01  0.11210355734E+00  0.51100000000E-03 0. -1.
         11    1    4    4    0    0  0.22956751051E-02 -0.16549657967E-01  0.25356334776E-02  0.16907154141E-01  0.51100000000E-03 0.  1.
</event>
<event>
 8    1  0.1095698E+005  0.1043930E+01  0.7957747E-01            NaN
         13   -1    0    0    0    0  0.00000000000E+00  0.00000000000E+00  0.74505805969E-08  0.10566000000E+00  0.10566000000E+00 0.  1.
     999900   -1    0    0    0    0 -0.00000000000E+00 -0.00000000000E+00 -0.74505805969E-08  0.93827000000E+00  0.93827000000E+00 0. -1.
     999902    2    1    2    0    0 -0.80249034976E-02  0.19180729886E-01 -0.12113159517E-01  0.10198669971E+01  0.10195830833E+01 0.  0.
     999903    2    3    3    0    0  0.89073954220E-01  0.84568580719E-01  0.39710854370E-01  0.13060354479E+00  0.19857487018E-01 0.  0.
         14    1    1    2    0    0  0.80249034976E-02 -0.19180729886E-01  0.12113159517E-01  0.24063002900E-01  0.00000000000E+00 0. -1.
     999901    1    3    3    0    0 -0.97098857717E-01 -0.65387850833E-01 -0.51824013886E-01  0.88926345231E+00  0.88000000000E+00 0. -1.
        -11    1    4    4    0    0  0.10386128200E-01  0.60972903205E-02  0.97557400597E-02  0.15507552784E-01  0.51100000000E-03 0. -1.
         11    1    4    4    0    0  0.78687826020E-01  0.78471290398E-01  0.29955114310E-01  0.11509599200E+00  0.51100000000E-03 0.  1.
</event>
<event>
 8    1  0.1095698E+005  0.1043930E+01  0.7957747E-01            NaN
         13   -1    0    0    0    0  0.00000000000E+00  0.00000000000E+00  0.74505805969E-08  0.10566000000E+00  0.10566000000E+00 0.  1.
     999900   -1    0    0    0    0 -0.00000000000E+00 -0.00000000000E+00 -0.74505805969E-08  0.93827000000E+00  0.93827000000E+00 0.  1.
     999902    2    1    2    0    0  0.15630748613E-01 -0.14695253215E-01 -0.10572953683E-01  0.10200122635E+01  0.10197318077E+01 0.  0.
     999903    2    3    3    0    0  0.39966660040E-01 -0.99954915734E-01 -0.75724970421E-01  0.13316039768E+00  0.20226252029E-01 0.  0.
         14    1    1    2    0    0 -0.15630748613E-01  0.14695253215E-01  0.10572953683E-01  0.23917736491E-01  0.00000000000E+00 0.  1.
     999901    1    3    3    0    0 -0.24335911427E-01  0.85259662519E-01  0.65152016738E-01  0.88685186583E+00  0.88000000000E+00 0. -1.
        -11    1    4    4    0    0  0.73703978088E-02 -0.27220351091E-01 -0.30396240714E-01  0.41466406258E-01  0.51100000000E-03 0.  1.
         11    1    4    4    0    0  0.32596262231E-01 -0.72734564643E-01 -0.45328729706E-01  0.91693991423E-01  0.51100000000E-03 0. -1.
</event>
<event>
 8    1  0.1131576E+005  0.1043930E+01  0.7957747E-01            NaN
         13   -1    0    0    0    0  0.00000000000E+00  0.00000000000E+00  0.74505805969E-08  0.10566000000E+00  0.10566000000E+00 0. -1.
     999900   -1    0    0    0    0 -0.00000000000E+00 -0.00000000000E+00 -0.74505805969E-08  0.93827000000E+00  0.93827000000E+00 0.  1.
     999902    2    1    2    0    0  0.19023222697E-02 -0.24476161640E-01  0.49010969540E-02  0.10188955823E+01  0.10185879862E+01 0.  0.
     999903    2    3    3    0    0  0.59312875644E-01  0.10946409542E+00 -0.19834666951E-01  0.12656838775E+00  0.11213267256E-01 0.  0.
         14    1    1    2    0    0 -0.19023222697E-02  0.24476161640E-01 -0.49010969540E-02  0.25034417708E-01  0.00000000000E+00 0.  1.
     999901    1    3    3    0    0 -0.57410553375E-01 -0.13394025706E+00  0.24735763904E-01  0.89232719454E+00  0.88000000000E+00 0.  1.
        -11    1    4    4    0    0  0.34762231881E-01  0.57695546681E-01 -0.60187799691E-02  0.67628956117E-01  0.51100000000E-03 0.  1.
         11    1    4    4    0    0  0.24550643764E-01  0.51768548735E-01 -0.13815886981E-01  0.58939431635E-01  0.51100000000E-03 0. -1.
</event>
<event>
 8    1  0.1095698E+005  0.1043930E+01  0.7957747E-01            NaN
         13   -1    0    0    0    0  0.00000000000E+00  0.00000000000E+00  0.74505805969E-08  0.10566000000E+00  0.10566000000E+00 0.  1.
     999900   -1    0    0    0    0 -0.00000000000E+00 -0.00000000000E+00 -0.74505805969E-08  0.93827000000E+00  0.93827000000E+00 0.  1.
     999902    2    1    2    0    0 -0.83378110964E-02  0.11279783225E-01  0.18046434447E-01  0.10210733511E+01  0.10208174969E+01 0.  0.
     999903    2    3    3    0    0 -0.10842810971E+00  0.14675143455E-01  0.74103311482E-01  0.13362083415E+00  0.19779073152E-01 0.  0.
         14    1    1    2    0    0  0.83378110964E-02 -0.11279783225E-01 -0.18046434447E-01  0.22856648918E-01  0.00000000000E+00 0. -1.
     999901    1    3    3    0    0  0.10009029862E+00 -0.33953602304E-02 -0.56056877035E-01  0.88745251693E+00  0.88000000000E+00 0.  1.
        -11    1    4    4    0    0 -0.27626412826E-01  0.11761348699E-01  0.15769801024E-01  0.33918958625E-01  0.51100000000E-03 0.  1.
         11    1    4    4    0    0 -0.80801696887E-01  0.29137947561E-02  0.58333510459E-01  0.99701875525E-01  0.51100000000E-03 0. -1.
</event>
<event>
 8    1  0.1095698E+005  0.1043930E+01  0.7957747E-01            NaN
         13   -1    0    0    0    0  0.00000000000E+00  0.00000000000E+00  0.74505805969E-08  0.10566000000E+00  0.10566000000E+00 0. -1.
     999900   -1    0    0    0    0 -0.00000000000E+00 -0.00000000000E+00 -0.74505805969E-08  0.93827000000E+00  0.93827000000E+00 0. -1.
     999902    2    1    2    0    0 -0.80997565206E-02 -0.19518523414E-01  0.11677053533E-01  0.10197860071E+01  0.10195001559E+01 0.  0.
     999903    2    3    3    0    0 -0.44702430650E-01  0.10125300541E+00 -0.60633574391E-01  0.12784747516E+00  0.20446714877E-01 0.  0.
         14    1    1    2    0    0  0.80997565206E-02  0.19518523414E-01 -0.11677053533E-01  0.24143992859E-01  0.00000000000E+00 0.  1.
     999901    1    3    3    0    0  0.36602674129E-01 -0.12077152883E+00  0.72310627924E-01  0.89193853198E+00  0.88000000000E+00 0. -1.
        -11    1    4    4    0    0 -0.42288820406E-01  0.84554237117E-01 -0.44474322832E-01  0.10447961456E+00  0.51100000000E-03 0. -1.
         11    1    4    4    0    0 -0.24136102437E-02  0.16698768296E-01 -0.16159251559E-01  0.23367860598E-01  0.51100000000E-03 0.  1.
</event>
<event>
 8    1  0.1095698E+005  0.1043930E+01  0.7957747E-01            NaN
         13   -1    0    0    0    0  0.00000000000E+00  0.00000000000E+00  0.74505805969E-08  0.10566000000E+00  0.10566000000E+00 0.  1.
     999900   -1    0    0    0    0 -0.00000000000E+00 -0.00000000000E+00 -0.74505805969E-08  0.93827000000E+00  0.93827000000E+00 0. -1.
     999902    2    1    2    0    0 -0.60205269909E-02 -0.39050349420E-02  0.21942652846E-01  0.10208437258E+01  0.10205826456E+01 0.  0.
     999903    2    3    3    0    0 -0.23907135181E-01  0.35982293762E-01 -0.11940811364E+00  0.12849235501E+00  0.19639529428E-01 0.  0.
         14    1    1    2    0    0  0.60205269909E-02  0.39050349420E-02 -0.21942652846E-01  0.23086274213E-01  0.00000000000E+00 0. -1.
     999901    1    3    3    0    0  0.17886608190E-01 -0.39887328704E-01  0.14135076648E+00  0.89235137078E+00  0.88000000000E+00 0.  1.
        -11    1    4    4    0    0  0.17024535475E-02  0.12627399324E-01 -0.34488739054E-01  0.36770692193E-01  0.51100000000E-03 0. -1.
         11    1    4    4    0    0 -0.25609588728E-01  0.23354894438E-01 -0.84919374584E-01  0.91721662816E-01  0.51100000000E-03 0.  1.
</event>
<event>
 8    1  0.1095698E+005  0.1043930E+01  0.7957747E-01            NaN
         13   -1    0    0    0    0  0.00000000000E+00  0.00000000000E+00  0.74505805969E-08  0.10566000000E+00  0.10566000000E+00 0. -1.
     999900   -1    0    0    0    0 -0.00000000000E+00 -0.00000000000E+00 -0.74505805969E-08  0.93827000000E+00  0.93827000000E+00 0.  1.
     999902    2    1    2    0    0 -0.23111322476E-01 -0.92245626038E-02  0.47771682607E-02  0.10185913513E+01  0.10182761383E+01 0.  0.
     999903    2    3    3    0    0 -0.50412200811E-02 -0.41475742680E-01 -0.12037165243E+00  0.12896845672E+00  0.19946854118E-01 0.  0.
         14    1    1    2    0    0  0.23111322476E-01  0.92245626038E-02 -0.47771682607E-02  0.25338648709E-01  0.00000000000E+00 0. -1.
     999901    1    3    3    0    0 -0.18070102395E-01  0.32251180076E-01  0.12514882069E+00  0.88962289457E+00  0.88000000000E+00 0. -1.
        -11    1    4    4    0    0 -0.97805493442E-02 -0.28528292215E-01 -0.99314609318E-01  0.10379390804E+00  0.51100000000E-03 0.  1.
         11    1    4    4    0    0  0.47393292631E-02 -0.12947450465E-01 -0.21057043116E-01  0.25174548679E-01  0.51100000000E-03 0. -1.
</event>
<event>
 8    1  0.1095698E+005  0.1043930E+01  0.7957747E-01            NaN
         13   -1    0    0    0    0  0.00000000000E+00  0.00000000000E+00  0.74505805969E-08  0.10566000000E+00  0.10566000000E+00 0. -1.
     999900   -1    0    0    0    0 -0.00000000000E+00 -0.00000000000E+00 -0.74505805969E-08  0.93827000000E+00  0.93827000000E+00 0.  1.
     999902    2    1    2    0    0 -0.12628274599E-01 -0.17683617905E-01 -0.69437959857E-02  0.10211177234E+01  0.10208628728E+01 0.  0.
     999903    2    3    3    0    0  0.70771967601E-01  0.73239113324E-02 -0.10817190550E+00  0.13104575603E+00  0.20236550095E-01 0.  0.
         14    1    1    2    0    0  0.12628274599E-01  0.17683617905E-01  0.69437959857E-02  0.22812276612E-01  0.00000000000E+00 0. -1.
     999901    1    3    3    0    0 -0.83400242200E-01 -0.25007529237E-01  0.10122810951E+00  0.89007196736E+00  0.88000000000E+00 0. -1.
        -11    1    4    4    0    0  0.45780198805E-01  0.72293448701E-02 -0.85706512941E-01  0.97436941205E-01  0.51100000000E-03 0. -1.
         11    1    4    4    0    0  0.24991768796E-01  0.94566462350E-04 -0.22465392556E-01  0.33608814827E-01  0.51100000000E-03 0.  1.
</event>
<event>
 8    1  0.1095698E+005  0.1043930E+01  0.7957747E-01            NaN
         13   -1    0    0    0    0  0.00000000000E+00  0.00000000000E+00  0.74505805969E-08  0.10566000000E+00  0.10566000000E+00 0. -1.
     999900   -1    0    0    0    0 -0.00000000000E+00 -0.00000000000E+00 -0.74505805969E-08  0.93827000000E+00  0.93827000000E+00 0. -1.
     999902    2    1    2    0    0  0.17227426298E-01  0.99547233918E-02 -0.12498430330E-01  0.10204333727E+01  0.10201628187E+01 0.  0.
     999903    2    3    3    0    0 -0.10718543559E+00  0.50462740122E-01 -0.49808607470E-01  0.12997758549E+00  0.19444012145E-01 0.  0.
         14    1    1    2    0    0 -0.17227426298E-01 -0.99547233918E-02  0.12498430330E-01  0.23496627319E-01  0.00000000000E+00 0. -1.
     999901    1    3    3    0    0  0.12441286189E+00 -0.40508016731E-01  0.37310177139E-01  0.89045578719E+00  0.88000000000E+00 0.  1.
        -11    1    4    4    0    0 -0.60391503103E-01  0.27524232139E-01 -0.38220875295E-01  0.76588598571E-01  0.51100000000E-03 0.  1.
         11    1    4    4    0    0 -0.46793932488E-01  0.22938507984E-01 -0.11587732174E-01  0.53388986919E-01  0.51100000000E-03 0. -1.
</event>
<event>
 8    1  0.1095698E+005  0.1043930E+01  0.7957747E-01            NaN
         13   -1    0    0    0    0  0.00000000000E+00  0.00000000000E+00  0.74505805969E-08  0.10566000000E+00  0.10566000000E+00 0. -1.
     999900   -1    0    0    0    0 -0.00000000000E+00 -0.00000000000E+00 -0.74505805969E-08  0.93827000000E+00  0.93827000000E+00 0.  1.
     999902    2    1    2    0    0  0.20728626605E-02 -0.20903343766E-02 -0.21473296028E-01  0.10222558518E+01  0.10220260554E+01 0.  0.
     999903    2    3    3    0    0  0.99143761493E-01 -0.16092769393E-01  0.81040224791E-01  0.13089293496E+00  0.21839865345E-01 0.  0.
         14    1    1    2    0    0 -0.20728626605E-02  0.20903343766E-02  0.21473296028E-01  0.21674148189E-01  0.00000000000E+00 0. -1.
     999901    1    3    3    0    0 -0.97070898833E-01  0.14002435017E-01 -0.10251352082E+00  0.89136291685E+00  0.88000000000E+00 0.  1.
        -11    1    4    4    0    0  0.36713711457E-01  0.14087168075E-02  0.19962567353E-01  0.41816818486E-01  0.51100000000E-03 0. -1.
         11    1    4    4    0    0  0.62430050036E-01 -0.17501486201E-01  0.61077657439E-01  0.89076116473E-01  0.51100000000E-03 0.  1.
</event>
<event>
 8    1  0.1095698E+005  0.1043930E+01  0.7957747E-01            NaN
         13   -1    0    0    0    0  0.00000000000E+00  0.00000000000E+00  0.74505805969E-08  0.10566000000E+00  0.10566000000E+00 0.  1.
     999900   -1    0    0    0    0 -0.00000000000E+00 -0.00000000000E+00 -0.74505805969E-08  0.93827000000E+00  0.93827000000E+00 0. -1.
     999902    2    1    2    0    0 -0.10460413247E-03 -0.21470564659E-01  0.11613448813E-01  0.10195195866E+01  0.10192273148E+01 0.  0.
     999903    2    3    3    0    0 -0.49273772167E-01  0.91753720308E-01 -0.70061351090E-01  0.12715860655E+00  0.20348672887E-01 0.  0.
         14    1    1    2    0    0  0.10460413247E-03  0.21470564659E-01 -0.11613448813E-01  0.24410413395E-01  0.00000000000E+00 0.  1.
     999901    1    3    3    0    0  0.49169168035E-01 -0.11322428497E+00  0.81674799903E-01  0.89236098006E+00  0.88000000000E+00 0.  1.
        -11    1    4    4    0    0 -0.29645580995E-01  0.35207223574E-01 -0.34614958016E-01  0.57592234752E-01  0.51100000000E-03 0. -1.
         11    1    4    4    0    0 -0.19628191172E-01  0.56546496734E-01 -0.35446393074E-01  0.69566371794E-01  0.51100000000E-03 0.  1.
</event>
<event>
 8    1  0.1095698E+005  0.1043930E+01  0.7957747E-01            NaN
         13   -1    0    0    0    0  0.00000000000E+00  0.00000000000E+00  0.74505805969E-08  0.10566000000E+00  0.10566000000E+00 0.  1.
     999900   -1    0    0    0    0 -0.00000000000E+00 -0.00000000000E+00 -0.74505805969E-08  0.93827000000E+00  0.93827000000E+00 0.  1.
     999902    2    1    2    0    0 -0.36019543581E-02 -0.22626636570E-01  0.28871582848E-02  0.10208372643E+01  0.10205760363E+01 0.  0.
     999903    2    3    3    0    0 -0.19449871561E-01  0.12050103563E+00  0.34953072072E-01  0.12855652944E+00  0.20156064172E-01 0.  0.
         14    1    1    2    0    0  0.36019543581E-02  0.22626636570E-01 -0.28871582848E-02  0.23092735668E-01  0.00000000000E+00 0. -1.
     999901    1    3    3    0    0  0.15847917202E-01 -0.14312767220E+00 -0.32065913787E-01  0.89228073489E+00  0.88000000000E+00 0. -1.
        -11    1    4    4    0    0 -0.64668431526E-02  0.15967824247E-01  0.11259480404E-01  0.20587095267E-01  0.51100000000E-03 0. -1.
         11    1    4    4    0    0 -0.12983028408E-01  0.10453321138E+00  0.23693591667E-01  0.10796943417E+00  0.51100000000E-03 0.  1.
</event>
<event>
 8    1  0.1095698E+005  0.1043930E+01  0.7957747E-01            NaN
         13   -1    0    0    0    0  0.00000000000E+00  0.00000000000E+00  0.74505805969E-08  0.10566000000E+00  0.10566000000E+00 0.  1.
     999900   -1    0    0    0    0 -0.00000000000E+00 -0.00000000000E+00 -0.74505805969E-08  0.93827000000E+00  0.93827000000E+00 0.  1.
     999902    2    1    2    0    0  0.35760653632E-02 -0.15992061241E-01 -0.14992440987E-01  0.10217194720E+01  0.10214780330E+01 0.  0.
     999903    2    3    3    0    0  0.69654424528E-01  0.85935726463E-01 -0.68905881261E-01  0.13174066188E+00  0.19258597621E-01 0.  0.
         14    1    1    2    0    0 -0.35760653632E-02  0.15992061241E-01  0.14992440987E-01  0.22210527975E-01  0.00000000000E+00 0. -1.
     999901    1    3    3    0    0 -0.66078359165E-01 -0.10192778770E+00  0.53913440274E-01  0.88997881014E+00  0.88000000000E+00 0. -1.
        -11    1    4    4    0    0  0.28788348287E-01  0.23017629067E-01 -0.27971993311E-01  0.46273899509E-01  0.51100000000E-03 0. -1.
         11    1    4    4    0    0  0.40866076241E-01  0.62918097396E-01 -0.40933887950E-01  0.85466762376E-01  0.51100000000E-03 0.  1.
</event>
<event>
 8    1  0.1095698E+005  0.1043930E+01  0.7957747E-01            NaN
         13   -1    0    0    0    0  0.00000000000E+00  0.00000000000E+00  0.74505805969E-08  0.10566000000E+00  0.10566000000E+00 0.  1.
     999900   -1    0    0    0    0 -0.00000000000E+00 -0.00000000000E+00 -0.74505805969E-08  0.93827000000E+00  0.93827000000E+00 0. -1.
     999902    2    1    2    0    0 -0.10427752185E-01  0.21246525244E-01  0.36846535026E-02  0.10199773483E+01  0.10196960633E+01 0.  0.
     999903    2    3    3    0    0  0.55995303331E-01  0.87637503260E-01  0.78440279719E-01  0.13182860633E+00  0.20250876321E-01 0.  0.
         14    1    1    2    0    0  0.10427752185E-01 -0.21246525244E-01 -0.36846535026E-02  0.23952651670E-01  0.00000000000E+00 0.  1.
     999901    1    3    3    0    0 -0.66423055516E-01 -0.66390978016E-01 -0.74755626216E-01  0.88814874200E+00  0.88000000000E+00 0. -1.
        -11    1    4    4    0    0  0.48794262294E-01  0.85293921586E-01  0.71300725236E-01  0.12140835075E+00  0.51100000000E-03 0. -1.
         11    1    4    4    0    0  0.72010410367E-02  0.23435816735E-02  0.71395544830E-02  0.10420255577E-01  0.51100000000E-03 0.  1.
</event>
<event>
 8    1  0.1095698E+005  0.1043930E+01  0.7957747E-01            NaN
         13   -1    0    0    0    0  0.00000000000E+00  0.00000000000E+00  0.74505805969E-08  0.10566000000E+00  0.10566000000E+00 0.  1.
     999900   -1    0    0    0    0 -0.00000000000E+00 -0.00000000000E+00 -0.74505805969E-08  0.93827000000E+00  0.93827000000E+00 0.  1.
     999902    2    1    2    0    0  0.20476925765E-01  0.11809915656E-01  0.11427196761E-02  0.10202638976E+01  0.10199893805E+01 0.  0.
     999903    2    3    3    0    0  0.88945393249E-01 -0.47971738792E-01 -0.81789367200E-01  0.13170354042E+00  0.21065404538E-01 0.  0.
         14    1    1    2    0    0 -0.20476925765E-01 -0.11809915656E-01 -0.11427196761E-02  0.23666102443E-01  0.00000000000E+00 0.  1.
     999901    1    3    3    0    0 -0.68468467484E-01  0.59781654448E-01  0.82932086876E-01  0.88856035714E+00  0.88000000000E+00 0. -1.
        -11    1    4    4    0    0  0.14608064778E-01 -0.14626858775E-01 -0.24724640783E-01  0.32232119649E-01  0.51100000000E-03 0. -1.
         11    1    4    4    0    0  0.74337328471E-01 -0.33344880016E-01 -0.57064726417E-01  0.99471420768E-01  0.51100000000E-03 0.  1.
</event>
<event>
 8    1  0.1095698E+005  0.1043930E+01  0.7957747E-01            NaN
         13   -1    0    0    0    0  0.00000000000E+00  0.00000000000E+00  0.74505805969E-08  0.10566000000E+00  0.10566000000E+00 0.  1.
     999900   -1    0    0    0    0 -0.00000000000E+00 -0.00000000000E+00 -0.74505805969E-08  0.93827000000E+00  0.93827000000E+00 0. -1.
     999902    2    1    2    0    0  0.17928463478E-02  0.19432643764E-01  0.13449168344E-01  0.10202293234E+01  0.10199539942E+01 0.  0.
     999903    2    3    3    0    0 -0.43354484685E-01  0.99243167680E-01 -0.71631132265E-01  0.13138363445E+00  0.20045513680E-01 0.  0.
         14    1    1    2    0    0 -0.17928463478E-02 -0.19432643764E-01 -0.13449168344E-01  0.23700676590E-01  0.00000000000E+00 0. -1.
     999901    1    3    3    0    0  0.45147331033E-01 -0.79810523917E-01  0.85080300609E-01  0.88884568896E+00  0.88000000000E+00 0.  1.
        -11    1    4    4    0    0 -0.12520962476E-01  0.28290998205E-01 -0.31794578693E-01  0.44365656041E-01  0.51100000000E-03 0. -1.
         11    1    4    4    0    0 -0.30833522209E-01  0.70952169476E-01 -0.39836553572E-01  0.87017978411E-01  0.51100000000E-03 0.  1.
</event>
<event>
 8    1  0.1095698E+005  0.1043930E+01  0.7957747E-01            NaN
         13   -1    0    0    0    0  0.00000000000E+00  0.00000000000E+00  0.74505805969E-08  0.10566000000E+00  0.10566000000E+00 0. -1.
     999900   -1    0    0    0    0 -0.00000000000E+00 -0.00000000000E+00 -0.74505805969E-08  0.93827000000E+00  0.93827000000E+00 0. -1.
     999902    2    1    2    0    0 -0.10608879498E-01 -0.19180777532E-01  0.83063084984E-02  0.10204897502E+01  0.10202205080E+01 0.  0.
     999903    2    3    3    0    0 -0.76630655566E-01  0.58699159495E-01 -0.84266413525E-01  0.12976315443E+00  0.20488999522E-01 0.  0.
         14    1    1    2    0    0  0.10608879498E-01  0.19180777532E-01 -0.83063084984E-02  0.23440249824E-01  0.00000000000E+00 0.  1.
     999901    1    3    3    0    0  0.66021776068E-01 -0.77879937027E-01  0.92572722023E-01  0.89072659575E+00  0.88000000000E+00 0.  1.
        -11    1    4    4    0    0 -0.62331451155E-01  0.37704411017E-01 -0.57041937433E-01  0.92525002893E-01  0.51100000000E-03 0. -1.
         11    1    4    4    0    0 -0.14299204411E-01  0.20994748478E-01 -0.27224476091E-01  0.37238151537E-01  0.51100000000E-03 0.  1.
</event>
<event>
 8    1  0.1095698E+005  0.1043930E+01  0.7957747E-01            NaN
         13   -1    0    0    0    0  0.00000000000E+00  0.00000000000E+00  0.74505805969E-08  0.10566000000E+00  0.10566000000E+00 0. -1.
     999900   -1    0    0    0    0 -0.00000000000E+00 -0.00000000000E+00 -0.74505805969E-08  0.93827000000E+00  0.93827000000E+00 0. -1.
     999902    2    1    2    0    0 -0.88278737173E-02  0.21491019927E-01  0.11723415955E-02  0.10206669461E+01  0.10204018058E+01 0.  0.
     999903    2    3    3    0    0  0.98258064848E-01  0.69016920953E-01 -0.49574613178E-01  0.13145304443E+00  0.20106663889E-01 0.  0.
         14    1    1    2    0    0  0.88278737173E-02 -0.21491019927E-01 -0.11723415955E-02  0.23263053898E-01  0.00000000000E+00 0. -1.
     999901    1    3    3    0    0 -0.10708593857E+00 -0.47525901026E-01  0.50746954774E-01  0.88921390167E+00  0.88000000000E+00 0.  1.
        -11    1    4    4    0    0  0.27177008308E-01  0.29094769300E-01 -0.21348224495E-01  0.45178570045E-01  0.51100000000E-03 0.  1.
         11    1    4    4    0    0  0.71081056540E-01  0.39922151653E-01 -0.28226388683E-01  0.86274474386E-01  0.51100000000E-03 0. -1.
</event>
<event>
 8    1  0.1095698E+005  0.1043930E+01  0.7957747E-01            NaN
         13   -1    0    0    0    0  0.00000000000E+00  0.00000000000E+00  0.74505805969E-08  0.10566000000E+00  0.10566000000E+00 0. -1.
     999900   -1    0    0    0    0 -0.00000000000E+00 -0.00000000000E+00 -0.74505805969E-08  0.93827000000E+00  0.93827000000E+00 0.  1.
     999902    2    1    2    0    0  0.98940890516E-02 -0.29825615380E-02 -0.20693226043E-01  0.10207999703E+01  0.10205378881E+01 0.  0.
     999903    2    3    3    0    0 -0.10703377439E+00  0.98938415833E-02  0.67684100514E-01  0.12858448124E+00  0.19967833926E-01 0.  0.
         14    1    1    2    0    0 -0.98940890516E-02  0.29825615380E-02  0.20693226043E-01  0.23130029736E-01  0.00000000000E+00 0. -1.
     999901    1    3    3    0    0  0.11692786344E+00 -0.12876403121E-01 -0.88377326558E-01  0.89221548902E+00  0.88000000000E+00 0.  1.
        -11    1    4    4    0    0 -0.41802670595E-01 -0.28502633291E-02  0.18022022493E-01  0.45614051405E-01  0.51100000000E-03 0.  1.
         11    1    4    4    0    0 -0.65231103796E-01  0.12744104912E-01  0.49662078021E-01  0.82970429834E-01  0.51100000000E-03 0. -1.
</event>
<event>
 8    1  0.1095698E+005  0.1043930E+01  0.7957747E-01            NaN
         13   -1    0    0    0    0  0.00000000000E+00  0.00000000000E+00  0.74505805969E-08  0.10566000000E+00  0.10566000000E+00 0. -1.
     999900   -1    0    0    0    0 -0.00000000000E+00 -0.00000000000E+00 -0.74505805969E-08  0.93827000000E+00  0.93827000000E+00 0.  1.
     999902    2    1    2    0    0  0.38074215452E-02  0.20152505519E-01  0.12271848107E-01  0.10200298286E+01  0.10197497894E+01 0.  0.
     999903    2    3    3    0    0  0.10875752950E+00  0.11502966613E-01  0.70747521583E-01  0.13182447842E+00  0.20296867641E-01 0.  0.
         14    1    1    2    0    0 -0.38074215452E-02 -0.20152505519E-01 -0.12271848107E-01  0.23900171411E-01  0.00000000000E+00 0. -1.
     999901    1    3    3    0    0 -0.10495010796E+00  0.86495389060E-02 -0.58475673477E-01  0.88820535017E+00  0.88000000000E+00 0.  1.
        -11    1    4    4    0    0  0.41266117419E-01  0.19596477591E-02  0.38274963625E-01  0.56320215088E-01  0.51100000000E-03 0.  1.
         11    1    4    4    0    0  0.67491412082E-01  0.95433188543E-02  0.32472557959E-01  0.75504263330E-01  0.51100000000E-03 0. -1.
</event>
<event>
 8    1  0.1095698E+005  0.1043930E+01  0.7957747E-01            NaN
         13   -1    0    0    0    0  0.00000000000E+00  0.00000000000E+00  0.74505805969E-08  0.10566000000E+00  0.10566000000E+00 0.  1.
     999900   -1    0    0    0    0 -0.00000000000E+00 -0.00000000000E+00 -0.74505805969E-08  0.93827000000E+00  0.93827000000E+00 0.  1.
     999902    2    1    2    0    0 -0.10885452521E-01 -0.16516662472E-01  0.91118538486E-02  0.10221511319E+01  0.10219190855E+01 0.  0.
     999903    2    3    3    0    0  0.10034472874E+00  0.54557762427E-01 -0.58275311223E-01  0.12975841726E+00  0.19890221847E-01 0.  0.
         14    1    1    2    0    0  0.10885452521E-01  0.16516662472E-01 -0.91118538486E-02  0.21778868115E-01  0.00000000000E+00 0.  1.
     999901    1    3    3    0    0 -0.11123018126E+00 -0.71074424898E-01  0.67387165072E-01  0.89239271462E+00  0.88000000000E+00 0. -1.
        -11    1    4    4    0    0  0.26809696683E-01  0.51668591026E-02 -0.15269605980E-01  0.31287030172E-01  0.51100000000E-03 0.  1.
         11    1    4    4    0    0  0.73535032057E-01  0.49390903324E-01 -0.43005705243E-01  0.98471387089E-01  0.51100000000E-03 0. -1.
</event>
<event>
 6    1  0.1164419E+005  0.1043930E+01  0.7957747E-01            NaN
         13   -1    0    0    0    0  0.00000000000E+00  0.00000000000E+00  0.74505805969E-08  0.10566000000E+00  0.10566000000E+00 0.  1.
     999900   -1    0    0    0    0 -0.00000000000E+00 -0.00000000000E+00 -0.74505805969E-08  0.93827000000E+00  0.93827000000E+00 0.  1.
         14    1    1    2    0    0 -0.19296639056E-01 -0.32190396670E-02 -0.38955439973E-01  0.43591843259E-01  0.00000000000E+00 0. -1.
     999901    1    1    2    0    0 -0.30678735350E-01  0.81223468550E-01 -0.20132810926E-01  0.88450198797E+00  0.88000000000E+00 0.  1.
        -11    1    1    2    0    0  0.18742949040E-01 -0.46276645876E-01  0.49464869526E-01  0.70284141387E-01  0.51100000000E-03 0.  1.
         11    1    1    2    0    0  0.31232425366E-01 -0.31727783007E-01  0.96233813724E-02  0.45552027385E-01  0.51100000000E-03 0. -1.
</event>
<event>
 8    1  0.1095698E+005  0.1043930E+01  0.7957747E-01            NaN
         13   -1    0    0    0    0  0.00000000000E+00  0.00000000000E+00  0.74505805969E-08  0.10566000000E+00  0.10566000000E+00 0. -1.
     999900   -1    0    0    0    0 -0.00000000000E+00 -0.00000000000E+00 -0.74505805969E-08  0.93827000000E+00  0.93827000000E+00 0.  1.
     999902    2    1    2    0    0  0.18151000760E-01  0.17753690426E-01  0.32571684202E-02  0.10183319239E+01  0.10180101403E+01 0.  0.
     999903    2    3    3    0    0  0.45884375409E-01 -0.11730096503E+00 -0.96946503000E-02  0.12750273175E+00  0.17264647591E-01 0.  0.
         14    1    1    2    0    0 -0.18151000760E-01 -0.17753690426E-01 -0.32571684202E-02  0.25598076069E-01  0.00000000000E+00 0. -1.
     999901    1    3    3    0    0 -0.27733374649E-01  0.13505465545E+00  0.12951818720E-01  0.89082919218E+00  0.88000000000E+00 0. -1.
        -11    1    4    4    0    0  0.34172230957E-02 -0.23119325206E-01  0.23244878178E-02  0.23491380894E-01  0.51100000000E-03 0.  1.
         11    1    4    4    0    0  0.42467152314E-01 -0.94181639822E-01 -0.12019138118E-01  0.10401135086E+00  0.51100000000E-03 0. -1.
</event>
<event>
 8    1  0.1095698E+005  0.1043930E+01  0.7957747E-01            NaN
         13   -1    0    0    0    0  0.00000000000E+00  0.00000000000E+00  0.74505805969E-08  0.10566000000E+00  0.10566000000E+00 0. -1.
     999900   -1    0    0    0    0 -0.00000000000E+00 -0.00000000000E+00 -0.74505805969E-08  0.93827000000E+00  0.93827000000E+00 0.  1.
     999902    2    1    2    0    0 -0.23331711473E-02  0.74403133076E-02  0.22531812846E-01  0.10200870862E+01  0.10198084030E+01 0.  0.
     999903    2    3    3    0    0 -0.11829317484E+00 -0.50039642924E-01  0.14641916292E-01  0.13058558629E+00  0.18465333930E-01 0.  0.
         14    1    1    2    0    0  0.23331711473E-02 -0.74403133076E-02 -0.22531812846E-01  0.23842913829E-01  0.00000000000E+00 0.  1.
     999901    1    3    3    0    0  0.11596000369E+00  0.57479956232E-01  0.78898965540E-02  0.88950149988E+00  0.88000000000E+00 0.  1.
        -11    1    4    4    0    0 -0.91966808900E-01 -0.30620150760E-01  0.85770663699E-02  0.97310404173E-01  0.51100000000E-03 0. -1.
         11    1    4    4    0    0 -0.26326365936E-01 -0.19419492164E-01  0.60648499224E-02  0.33275182116E-01  0.51100000000E-03 0.  1.
</event>
<event>
 8    1  0.1095698E+005  0.1043930E+01  0.7957747E-01            NaN
         13   -1    0    0    0    0  0.00000000000E+00  0.00000000000E+00  0.74505805969E-08  0.10566000000E+00  0.10566000000E+00 0. -1.
     999900   -1    0    0    0    0 -0.00000000000E+00 -0.00000000000E+00 -0.74505805969E-08  0.93827000000E+00  0.93827000000E+00 0.  1.
     999902    2    1    2    0    0 -0.14112540165E-01  0.10748634009E-01 -0.12534322763E-01  0.10222089003E+01  0.10219780965E+01 0.  0.
     999903    2    3    3    0    0 -0.51306173270E-01 -0.11092107838E+00 -0.46450666229E-01  0.13241274189E+00  0.20968089487E-01 0.  0.
         14    1    1    2    0    0  0.14112540165E-01 -0.10748634009E-01  0.12534322763E-01  0.21721099652E-01  0.00000000000E+00 0. -1.
     999901    1    3    3    0    0  0.37193633105E-01  0.12166971239E+00  0.33916343466E-01  0.88979615846E+00  0.88000000000E+00 0. -1.
        -11    1    4    4    0    0 -0.46344916076E-01 -0.84388869266E-01 -0.42044130793E-01  0.10505856727E+00  0.51100000000E-03 0. -1.
         11    1    4    4    0    0 -0.49612571936E-02 -0.26532209113E-01 -0.44065354364E-02  0.27354174616E-01  0.51100000000E-03 0.  1.
</event>
<event>
 8    1  0.1095698E+005  0.1043930E+01  0.7957747E-01            NaN
         13   -1    0    0    0    0  0.00000000000E+00  0.00000000000E+00  0.74505805969E-08  0.10566000000E+00  0.10566000000E+00 0. -1.
     999900   -1    0    0    0    0 -0.00000000000E+00 -0.00000000000E+00 -0.74505805969E-08  0.93827000000E+00  0.93827000000E+00 0. -1.
     999902    2    1    2    0    0 -0.45804877906E-02  0.25834085736E-02 -0.24369867362E-01  0.10189991897E+01  0.10186941657E+01 0.  0.
     999903    2    3    3    0    0  0.49220358157E-01  0.13108374652E-01  0.11415971861E+00  0.12647705991E+00  0.19223219950E-01 0.  0.
         14    1    1    2    0    0  0.45804877906E-02 -0.25834085736E-02  0.24369867362E-01  0.24930810325E-01  0.00000000000E+00 0. -1.
     999901    1    3    3    0    0 -0.53800845948E-01 -0.10524966078E-01 -0.13852958598E+00  0.89252212977E+00  0.88000000000E+00 0. -1.
        -11    1    4    4    0    0  0.11319993415E-01  0.10899262919E-01  0.24518456307E-01  0.29126482860E-01  0.51100000000E-03 0.  1.
         11    1    4    4    0    0  0.37900364743E-01  0.22091117329E-02  0.89641262307E-01  0.97350577047E-01  0.51100000000E-03 0. -1.
</event>
<event>
 8    1  0.1095698E+005  0.1043930E+01  0.7957747E-01            NaN
         13   -1    0    0    0    0  0.00000000000E+00  0.00000000000E+00  0.74505805969E-08  0.10566000000E+00  0.10566000000E+00 0.  1.
     999900   -1    0    0    0    0 -0.00000000000E+00 -0.00000000000E+00 -0.74505805969E-08  0.93827000000E+00  0.93827000000E+00 0.  1.
     999902    2    1    2    0    0  0.85853922037E-02  0.18575341848E-01  0.12595203966E-01  0.10199010290E+01  0.10196179272E+01 0.  0.
     999903    2    3    3    0    0  0.10461688480E+00 -0.53888155060E-02  0.77417479156E-01  0.13198309599E+00  0.21268277589E-01 0.  0.
         14    1    1    2    0    0 -0.85853922037E-02 -0.18575341848E-01 -0.12595203966E-01  0.24028970993E-01  0.00000000000E+00 0.  1.
     999901    1    3    3    0    0 -0.96031492594E-01  0.23964157354E-01 -0.64822275190E-01  0.88791793301E+00  0.88000000000E+00 0.  1.
        -11    1    4    4    0    0  0.37912672446E-01 -0.12106424178E-01  0.30745622983E-01  0.50294042311E-01  0.51100000000E-03 0.  1.
         11    1    4    4    0    0  0.66704212352E-01  0.67176086722E-02  0.46671856173E-01  0.81689053682E-01  0.51100000000E-03 0. -1.
</event>
<event>
 8    1  0.1095698E+005  0.1043930E+01  0.7957747E-01            NaN
         13   -1    0    0    0    0  0.00000000000E+00  0.00000000000E+00  0.74505805969E-08  0.10566000000E+00  0.10566000000E+00 0. -1.
     999900   -1    0    0    0    0 -0.00000000000E+00 -0.00000000000E+00 -0.74505805969E-08  0.93827000000E+00  0.93827000000E+00 0.  1.
     999902    2    1    2    0    0  0.19998094795E-02 -0.20519937598E-01  0.11342733430E-01  0.10203986448E+01  0.10201272811E+01 0.  0.
     999903    2    3    3    0    0 -0.96345679706E-02  0.12236753479E+00  0.30286506825E-01  0.12859650582E+00  0.23519148439E-01 0.  0.
         14    1    1    2    0    0 -0.19998094795E-02  0.20519937598E-01 -0.11342733430E-01  0.23531355223E-01  0.00000000000E+00 0.  1.
     999901    1    3    3    0    0  0.11634377450E-01 -0.14288747238E+00 -0.18943773395E-01  0.89180213896E+00  0.88000000000E+00 0.  1.
        -11    1    4    4    0    0  0.40729880138E-02  0.76518420036E-01  0.24171364977E-01  0.80350319489E-01  0.51100000000E-03 0.  1.
         11    1    4    4    0    0 -0.13707555984E-01  0.45849114750E-01  0.61151418475E-02  0.48246186328E-01  0.51100000000E-03 0. -1.
</event>
<event>
 8    1  0.1095698E+005  0.1043930E+01  0.7957747E-01            NaN
         13   -1    0    0    0    0  0.00000000000E+00  0.00000000000E+00  0.74505805969E-08  0.10566000000E+00  0.10566000000E+00 0. -1.
     999900   -1    0    0    0    0 -0.00000000000E+00 -0.00000000000E+00 -0.74505805969E-08  0.93827000000E+00  0.93827000000E+00 0. -1.
     999902    2    1    2    0    0 -0.42523375527E-02 -0.81107126548E-02  0.20316972004E-01  0.10216444579E+01  0.10214013672E+01 0.  0.
     999903    2    3    3    0    0 -0.82747196981E-01 -0.37063824554E-01  0.97079300609E-01  0.13434959107E+00  0.20114579660E-01 0.  0.
         14    1    1    2    0    0  0.42523375527E-02  0.81107126548E-02 -0.20316972004E-01  0.22285542081E-01  0.00000000000E+00 0.  1.
     999901    1    3    3    0    0  0.78494859428E-01  0.28953111899E-01 -0.76762328605E-01  0.88729486685E+00  0.88000000000E+00 0.  1.
        -11    1    4    4    0    0 -0.54579510645E-01 -0.33143246537E-01  0.73820068235E-01  0.97606666619E-01  0.51100000000E-03 0.  1.
         11    1    4    4    0    0 -0.28167686336E-01 -0.39205780171E-02  0.23259232374E-01  0.36742924450E-01  0.51100000000E-03 0. -1.
</event>
<event>
 7    1  0.1095698E+005  0.1043930E+01  0.7957747E-01            NaN
         13   -1    0    0    0    0  0.00000000000E+00  0.00000000000E+00  0.74505805969E-08  0.10566000000E+00  0.10566000000E+00 0.  1.
     999900   -1    0    0    0    0 -0.00000000000E+00 -0.00000000000E+00 -0.74505805969E-08  0.93827000000E+00  0.93827000000E+00 0. -1.
     999902    2    1    2    0    0 -0.49403625211E-03 -0.23356466444E-01 -0.11369978421E-01  0.10179483718E+01  0.10176167464E+01 0.  0.
         14    1    1    2    0    0  0.49403625211E-03  0.23356466444E-01  0.11369978421E-01  0.25981628237E-01  0.00000000000E+00 0. -1.
     999901    1    3    3    0    0 -0.11254412936E+00 -0.52163563993E-01 -0.39114838143E-01  0.88956010984E+00  0.88000000000E+00 0. -1.
        -11    1    3    3    0    0  0.49624716849E-01  0.32872648045E-01  0.28102998754E-01  0.65827525943E-01  0.51100000000E-03 0. -1.
         11    1    3    3    0    0  0.62425376255E-01 -0.40655504955E-02 -0.35813903180E-03  0.62560735977E-01  0.51100000000E-03 0.  1.
</event>
<event>
 8    1  0.1095698E+005  0.1043930E+01  0.7957747E-01            NaN
         13   -1    0    0    0    0  0.00000000000E+00  0.00000000000E+00  0.74505805969E-08  0.10566000000E+00  0.10566000000E+00 0. -1.
     999900   -1    0    0    0    0 -0.00000000000E+00 -0.00000000000E+00 -0.74505805969E-08  0.93827000000E+00  0.93827000000E+00 0. -1.
     999902    2    1    2    0    0  0.22141157217E-02  0.86494982560E-02 -0.23104379355E-01  0.10191604931E+01  0.10188594516E+01 0.  0.
     999903    2    3    3    0    0 -0.94464269074E-01  0.74447902930E-01  0.42852497470E-01  0.12897711322E+00  0.18242006839E-01 0.  0.
         14    1    1    2    0    0 -0.22141157217E-02 -0.86494982560E-02  0.23104379355E-01  0.24769506937E-01  0.00000000000E+00 0. -1.
     999901    1    3    3    0    0  0.96678384796E-01 -0.65798404674E-01 -0.65956876824E-01  0.89018337984E+00  0.88000000000E+00 0. -1.
        -11    1    4    4    0    0 -0.21775723832E-01  0.13123584007E-01  0.21184000935E-02  0.25517824076E-01  0.51100000000E-03 0. -1.
         11    1    4    4    0    0 -0.72688545241E-01  0.61324318923E-01  0.40734097376E-01  0.10345928915E+00  0.51100000000E-03 0.  1.
</event>
<event>
 8    1  0.1095698E+005  0.1043930E+01  0.7957747E-01            NaN
         13   -1    0    0    0    0  0.00000000000E+00  0.00000000000E+00  0.74505805969E-08  0.10566000000E+00  0.10566000000E+00 0.  1.
     999900   -1    0    0    0    0 -0.00000000000E+00 -0.00000000000E+00 -0.74505805969E-08  0.93827000000E+00  0.93827000000E+00 0. -1.
     999902    2    1    2    0    0 -0.23786523721E-01 -0.52879658313E-02  0.81479648778E-02  0.10182366035E+01  0.10179123882E+01 0.  0.
     999903    2    3    3    0    0 -0.71498132586E-01  0.36043647859E-01  0.10170217815E+00  0.13102913578E+00  0.20351262065E-01 0.  0.
         14    1    1    2    0    0  0.23786523721E-01  0.52879658313E-02 -0.81479648778E-02  0.25693396526E-01  0.00000000000E+00 0.  1.
     999901    1    3    3    0    0  0.47711608865E-01 -0.41331613690E-01 -0.93554213277E-01  0.88720746769E+00  0.88000000000E+00 0. -1.
        -11    1    4    4    0    0 -0.64693586299E-01  0.24474218436E-01  0.86023848310E-01  0.11038392580E+00  0.51100000000E-03 0.  1.
         11    1    4    4    0    0 -0.68045462868E-02  0.11569429423E-01  0.15678329844E-01  0.20645209978E-01  0.51100000000E-03 0. -1.
</event>
<event>
 7    1  0.1095698E+005  0.1043930E+01  0.7957747E-01            NaN
         13   -1    0    0    0    0  0.00000000000E+00  0.00000000000E+00  0.74505805969E-08  0.10566000000E+00  0.10566000000E+00 0.  1.
     999900   -1    0    0    0    0 -0.00000000000E+00 -0.00000000000E+00 -0.74505805969E-08  0.93827000000E+00  0.93827000000E+00 0. -1.
     999903    2    1    2    0    0 -0.10204952677E+00  0.24850744264E-01 -0.10942708112E-01  0.10737462582E+00  0.19439701764E-01 0.  0.
         14    1    1    2    0    0  0.13483665840E-01 -0.30823922679E-01  0.39175022937E-01  0.51639189342E-01  0.00000000000E+00 0.  1.
     999901    1    1    2    0    0  0.88565860933E-01  0.59731784146E-02 -0.28232314824E-01  0.88491618484E+00  0.88000000000E+00 0. -1.
        -11    1    3    3    0    0 -0.63148220306E-01  0.13244746372E-01 -0.15954605718E-01  0.66467522888E-01  0.51100000000E-03 0. -1.
         11    1    3    3    0    0 -0.38901306467E-01  0.11605997892E-01  0.50118976052E-02  0.40907102935E-01  0.51100000000E-03 0.  1.
</event>
<event>
 8    1  0.1095698E+005  0.1043930E+01  0.7957747E-01            NaN
         13   -1    0    0    0    0  0.00000000000E+00  0.00000000000E+00  0.74505805969E-08  0.10566000000E+00  0.10566000000E+00 0. -1.
     999900   -1    0    0    0    0 -0.00000000000E+00 -0.00000000000E+00 -0.74505805969E-08  0.93827000000E+00  0.93827000000E+00 0. -1.
     999902    2    1    2    0    0 -0.30898055142E-02  0.21993854337E-01  0.96871041264E-02  0.10196995127E+01  0.10194115851E+01 0.  0.
     999903    2    3    3    0    0  0.21580944409E-01  0.80463217945E-01  0.10143482070E+00  0.13265669760E+00  0.19201821889E-01 0.  0.
         14    1    1    2    0    0  0.30898055142E-02 -0.21993854337E-01 -0.96871041264E-02  0.24230487264E-01  0.00000000000E+00 0.  1.
     999901    1    3    3    0    0 -0.24670749923E-01 -0.58469363608E-01 -0.91747716578E-01  0.88704281513E+00  0.88000000000E+00 0. -1.
        -11    1    4    4    0    0  0.92034091714E-02  0.18718216395E-01  0.14927655963E-01  0.25654831883E-01  0.51100000000E-03 0.  1.
         11    1    4    4    0    0  0.12377535238E-01  0.61745001550E-01  0.86507164741E-01  0.10700186572E+00  0.51100000000E-03 0. -1.
</event>
<event>
 8    1  0.1095698E+005  0.1043930E+01  0.7957747E-01            NaN
         13   -1    0    0    0    0  0.00000000000E+00  0.00000000000E+00  0.74505805969E-08  0.10566000000E+00  0.10566000000E+00 0.  1.
     999900   -1    0    0    0    0 -0.00000000000E+00 -0.00000000000E+00 -0.74505805969E-08  0.93827000000E+00  0.93827000000E+00 0. -1.
     999902    2    1    2    0    0 -0.16714531149E-01  0.67377155454E-02 -0.15560600867E-01  0.10201202402E+01  0.10198423407E+01 0.  0.
     999903    2    3    3    0    0  0.97929654706E-01 -0.36201323541E-01  0.70441389580E-01  0.12749299841E+00  0.19791972631E-01 0.  0.
         14    1    1    2    0    0  0.16714531149E-01 -0.67377155454E-02  0.15560600867E-01  0.23809759798E-01  0.00000000000E+00 0. -1.
     999901    1    3    3    0    0 -0.11464418586E+00  0.42939039086E-01 -0.86001990447E-01  0.89262724179E+00  0.88000000000E+00 0. -1.
        -11    1    4    4    0    0  0.23026160056E-01 -0.16717497476E-01  0.14104225449E-01  0.31762699276E-01  0.51100000000E-03 0.  1.
         11    1    4    4    0    0  0.74903494649E-01 -0.19483826065E-01  0.56337164132E-01  0.95730299134E-01  0.51100000000E-03 0. -1.
</event>
<event>
 8    1  0.1095698E+005  0.1043930E+01  0.7957747E-01            NaN
         13   -1    0    0    0    0  0.00000000000E+00  0.00000000000E+00  0.74505805969E-08  0.10566000000E+00  0.10566000000E+00 0.  1.
     999900   -1    0    0    0    0 -0.00000000000E+00 -0.00000000000E+00 -0.74505805969E-08  0.93827000000E+00  0.93827000000E+00 0.  1.
     999902    2    1    2    0    0  0.81746045307E-03 -0.23193713741E-01 -0.35429847257E-02  0.10204530040E+01  0.10201829072E+01 0.  0.
     999903    2    3    3    0    0  0.10220730772E+00 -0.26628136304E-01  0.75027419820E-01  0.13114709218E+00  0.20372890538E-01 0.  0.
         14    1    1    2    0    0 -0.81746045307E-03  0.23193713741E-01  0.35429847257E-02  0.23476995963E-01  0.00000000000E+00 0. -1.
     999901    1    3    3    0    0 -0.10138984727E+00  0.34344225629E-02 -0.78570404546E-01  0.88930591185E+00  0.88000000000E+00 0. -1.
        -11    1    4    4    0    0  0.93406368086E-01 -0.24704186257E-01  0.60352011290E-01  0.11391958921E+00  0.51100000000E-03 0.  1.
         11    1    4    4    0    0  0.88009396341E-02 -0.19239500462E-02  0.14675408530E-01  0.17227502975E-01  0.51100000000E-03 0. -1.
</event>
<event>
 7    1  0.1095698E+005  0.1043930E+01  0.7957747E-01            NaN
         13   -1    0    0    0    0  0.00000000000E+00  0.00000000000E+00  0.74505805969E-08  0.10566000000E+00  0.10566000000E+00 0. -1.
     999900   -1    0    0    0    0 -0.00000000000E+00 -0.00000000000E+00 -0.74505805969E-08  0.93827000000E+00  0.93827000000E+00 0.  1.
     999903    2    1    2    0    0 -0.57757415636E-01 -0.50589968035E-01 -0.50458347463E-01  0.94034947733E-01  0.20031541122E-01 0.  0.
         14    1    1    2    0    0 -0.89604949929E-02  0.44915398188E-01  0.49380411502E-01  0.67350638491E-01  0.00000000000E+00 0. -1.
     999901    1    1    2    0    0  0.66717910629E-01  0.56745698461E-02  0.10779359610E-02  0.88254441378E+00  0.88000000000E+00 0.  1.
        -11    1    3    3    0    0 -0.26263877285E-01 -0.35235741272E-01 -0.32493026038E-01  0.54657173136E-01  0.51100000000E-03 0.  1.
         11    1    3    3    0    0 -0.31493538351E-01 -0.15354226762E-01 -0.17965321425E-01  0.39377774598E-01  0.51100000000E-03 0. -1.
</event>
<event>
 8    1  0.1095698E+005  0.1043930E+01  0.7957747E-01            NaN
         13   -1    0    0    0    0  0.00000000000E+00  0.00000000000E+00  0.74505805969E-08  0.10566000000E+00  0.10566000000E+00 0. -1.
     999900   -1    0    0    0    0 -0.00000000000E+00 -0.00000000000E+00 -0.74505805969E-08  0.93827000000E+00  0.93827000000E+00 0.  1.
     999902    2    1    2    0    0  0.54533799370E-02  0.47197095012E-02  0.22779487693E-01  0.10200360662E+01  0.10197561750E+01 0.  0.
     999903    2    3    3    0    0  0.12352887373E+00  0.38753161847E-01 -0.38832435962E-02  0.13109793603E+00  0.20258308258E-01 0.  0.
         14    1    1    2    0    0 -0.54533799370E-02 -0.47197095012E-02 -0.22779487693E-01  0.23893933751E-01  0.00000000000E+00 0.  1.
     999901    1    3    3    0    0 -0.11807549379E+00 -0.34033452346E-01  0.26662731290E-01  0.88893813022E+00  0.88000000000E+00 0.  1.
        -11    1    4    4    0    0  0.66113704912E-01  0.11192472684E-01 -0.63824066406E-02  0.67359406600E-01  0.51100000000E-03 0. -1.
         11    1    4    4    0    0  0.57415168817E-01  0.27560689163E-01  0.24991630444E-02  0.63738529433E-01  0.51100000000E-03 0.  1.
</event>
<event>
 8    1  0.1095698E+005  0.1043930E+01  0.7957747E-01            NaN
         13   -1    0    0    0    0  0.00000000000E+00  0.00000000000E+00  0.74505805969E-08  0.10566000000E+00  0.10566000000E+00 0. -1.
     999900   -1    0    0    0    0 -0.00000000000E+00 -0.00000000000E+00 -0.74505805969E-08  0.93827000000E+00  0.93827000000E+00 0.  1.
     999902    2    1    2    0    0 -0.72678731629E-02  0.44654992528E-03  0.23980257418E-01  0.10188685928E+01  0.10185603248E+01 0.  0.
     999903    2    3    3    0    0  0.10100906845E+00 -0.37642777462E-01  0.70940599127E-01  0.13017293808E+00  0.17105981394E-01 0.  0.
         14    1    1    2    0    0  0.72678731629E-02 -0.44654992528E-03 -0.23980257418E-01  0.25061407243E-01  0.00000000000E+00 0.  1.
     999901    1    3    3    0    0 -0.10827694162E+00  0.38089327388E-01 -0.46960341708E-01  0.88869565468E+00  0.88000000000E+00 0.  1.
        -11    1    4    4    0    0  0.65319564702E-01 -0.28294386541E-01  0.55099390518E-01  0.90019007987E-01  0.51100000000E-03 0.  1.
         11    1    4    4    0    0  0.35689503751E-01 -0.93483909218E-02  0.15841208609E-01  0.40153930094E-01  0.51100000000E-03 0. -1.
</event>
<event>
 8    1  0.1095698E+005  0.1043930E+01  0.7957747E-01            NaN
         13   -1    0    0    0    0  0.00000000000E+00  0.00000000000E+00  0.74505805969E-08  0.10566000000E+00  0.10566000000E+00 0.  1.
     999900   -1    0    0    0    0 -0.00000000000E+00 -0.00000000000E+00 -0.74505805969E-08  0.93827000000E+00  0.93827000000E+00 0.  1.
     999902    2    1    2    0    0  0.60679534057E-02  0.20422039192E-01  0.70686821309E-02  0.10214834856E+01  0.10212368311E+01 0.  0.
     999903    2    3    3    0    0  0.24546811953E-01  0.12181733761E+00 -0.45780354909E-01  0.13389377434E+00  0.19740622866E-01 0.  0.
         14    1    1    2    0    0 -0.60679534057E-02 -0.20422039192E-01 -0.70686821309E-02  0.22446514437E-01  0.00000000000E+00 0.  1.
     999901    1    3    3    0    0 -0.18478858548E-01 -0.10139529842E+00  0.52849037040E-01  0.88758971122E+00  0.88000000000E+00 0. -1.
        -11    1    4    4    0    0 -0.91739230597E-03  0.15274654395E-02 -0.33378550254E-02  0.38180042538E-02  0.51100000000E-03 0. -1.
         11    1    4    4    0    0  0.25464204259E-01  0.12028987217E+00 -0.42442499884E-01  0.13007577009E+00  0.51100000000E-03 0.  1.
</event>
<event>
 8    1  0.1095698E+005  0.1043930E+01  0.7957747E-01            NaN
         13   -1    0    0    0    0  0.00000000000E+00  0.00000000000E+00  0.74505805969E-08  0.10566000000E+00  0.10566000000E+00 0. -1.
     999900   -1    0    0    0    0 -0.00000000000E+00 -0.00000000000E+00 -0.74505805969E-08  0.93827000000E+00  0.93827000000E+00 0.  1.
     999902    2    1    2    0    0  0.38181982008E-02 -0.14151749856E-01 -0.17953196197E-01  0.10207531168E+01  0.10204899595E+01 0.  0.
     999903    2    3    3    0    0 -0.85190162377E-01 -0.50514538841E-01  0.81582355987E-01  0.12993772244E+00  0.20470674231E-01 0.  0.
         14    1    1    2    0    0 -0.38181982008E-02  0.14151749856E-01  0.17953196197E-01  0.23176883206E-01  0.00000000000E+00 0. -1.
     999901    1    3    3    0    0  0.89008360578E-01  0.36362788986E-01 -0.99535552184E-01  0.89081539436E+00  0.88000000000E+00 0.  1.
        -11    1    4    4    0    0 -0.25892723638E-01 -0.97439036071E-02  0.13166176907E-01  0.30642880580E-01  0.51100000000E-03 0.  1.
         11    1    4    4    0    0 -0.59297438739E-01 -0.40770635234E-01  0.68416179080E-01  0.99294841856E-01  0.51100000000E-03 0. -1.
</event>
<event>
 8    1  0.1095698E+005  0.1043930E+01  0.7957747E-01            NaN
         13   -1    0    0    0    0  0.00000000000E+00  0.00000000000E+00  0.74505805969E-08  0.10566000000E+00  0.10566000000E+00 0.  1.
     999900   -1    0    0    0    0 -0.00000000000E+00 -0.00000000000E+00 -0.74505805969E-08  0.93827000000E+00  0.93827000000E+00 0.  1.
     999902    2    1    2    0    0  0.19918390982E-01  0.98728429754E-02 -0.77999619903E-02  0.10203704004E+01  0.10200983772E+01 0.  0.
     999903    2    3    3    0    0 -0.15136779863E-01  0.11030043549E+00  0.67939917572E-01  0.13073502804E+00  0.89725683877E-02 0.  0.
         14    1    1    2    0    0 -0.19918390982E-01 -0.98728429754E-02  0.77999619903E-02  0.23559599631E-01  0.00000000000E+00 0.  1.
     999901    1    3    3    0    0  0.35055170846E-01 -0.10042759251E+00 -0.75739879562E-01  0.88963537233E+00  0.88000000000E+00 0.  1.
        -11    1    4    4    0    0 -0.60433035591E-02  0.69848326667E-01  0.39753506844E-01  0.80597225036E-01  0.51100000000E-03 0. -1.
         11    1    4    4    0    0 -0.90934763043E-02  0.40452108822E-01  0.28186410728E-01  0.50137803005E-01  0.51100000000E-03 0.  1.
</event>
<event>
 8    1  0.1095698E+005  0.1043930E+01  0.7957747E-01            NaN
         13   -1    0    0    0    0  0.00000000000E+00  0.00000000000E+00  0.74505805969E-08  0.10566000000E+00  0.10566000000E+00 0.  1.
     999900   -1    0    0    0    0 -0.00000000000E+00 -0.00000000000E+00 -0.74505805969E-08  0.93827000000E+00  0.93827000000E+00 0.  1.
     999902    2    1    2    0    0  0.78861983398E-02  0.11421645965E-01  0.14910850451E-01  0.10235589524E+01  0.10233562182E+01 0.  0.
     999903    2    3    3    0    0  0.18931829465E-01  0.11549121030E+00  0.66012052389E-01  0.13588569433E+00  0.20265661562E-01 0.  0.
         14    1    1    2    0    0 -0.78861983398E-02 -0.11421645965E-01 -0.14910850451E-01  0.20371047641E-01  0.00000000000E+00 0. -1.
     999901    1    3    3    0    0 -0.11045631125E-01 -0.10406956433E+00 -0.51101201938E-01  0.88767325803E+00  0.88000000000E+00 0.  1.
        -11    1    4    4    0    0  0.10676852666E-01  0.47606477972E-01  0.38582005493E-01  0.62202927557E-01  0.51100000000E-03 0. -1.
         11    1    4    4    0    0  0.82549767990E-02  0.67884732327E-01  0.27430046897E-01  0.73682766770E-01  0.51100000000E-03 0.  1.
</event>
<event>
 8    1  0.1095698E+005  0.1043930E+01  0.7957747E-01            NaN
         13   -1    0    0    0    0  0.00000000000E+00  0.00000000000E+00  0.74505805969E-08  0.10566000000E+00  0.10566000000E+00 0. -1.
     999900   -1    0    0    0    0 -0.00000000000E+00 -0.00000000000E+00 -0.74505805969E-08  0.93827000000E+00  0.93827000000E+00 0.  1.
     999902    2    1    2    0    0  0.16695864708E-01  0.91844696006E-02 -0.13280402397E-01  0.10207033888E+01  0.10204390881E+01 0.  0.
     999903    2    3    3    0    0  0.39481769592E-01  0.11963390444E+00  0.34575440664E-01  0.13221677841E+00  0.20365023297E-01 0.  0.
         14    1    1    2    0    0 -0.16695864708E-01 -0.91844696006E-02  0.13280402397E-01  0.23226611204E-01  0.00000000000E+00 0.  1.
     999901    1    3    3    0    0 -0.22785904884E-01 -0.11044943484E+00 -0.47855843061E-01  0.88848661039E+00  0.88000000000E+00 0.  1.
        -11    1    4    4    0    0  0.37894363247E-02  0.37202333284E-01  0.55043110186E-02  0.37801216782E-01  0.51100000000E-03 0. -1.
         11    1    4    4    0    0  0.35692333267E-01  0.82431571159E-01  0.29071129645E-01  0.94415561629E-01  0.51100000000E-03 0.  1.
</event>
<event>
 8    1  0.1095698E+005  0.1043930E+01  0.7957747E-01            NaN
         13   -1    0    0    0    0  0.00000000000E+00  0.00000000000E+00  0.74505805969E-08  0.10566000000E+00  0.10566000000E+00 0.  1.
     999900   -1    0    0    0    0 -0.00000000000E+00 -0.00000000000E+00 -0.74505805969E-08  0.93827000000E+00  0.93827000000E+00 0.  1.
     999902    2    1    2    0    0  0.18037356166E-01  0.64809440648E-02 -0.30550531291E-01  0.10078650057E+01  0.10072195321E+01 0.  0.
     999903    2    3    3    0    0  0.86493038923E-01 -0.62416680365E-01 -0.56425642961E-01  0.12214350060E+00  0.18928649842E-01 0.  0.
         14    1    1    2    0    0 -0.18037356166E-01 -0.64809440648E-02  0.30550531291E-01  0.36064994324E-01  0.00000000000E+00 0.  1.
     999901    1    3    3    0    0 -0.68455682757E-01  0.68897624430E-01  0.25875111671E-01  0.88572150508E+00  0.88000000000E+00 0. -1.
        -11    1    4    4    0    0  0.67993502718E-01 -0.57658181335E-01 -0.48114754977E-01  0.10130583919E+00  0.51100000000E-03 0.  1.
         11    1    4    4    0    0  0.18499536205E-01 -0.47584990298E-02 -0.83108879840E-02  0.20837661407E-01  0.51100000000E-03 0. -1.
</event>
<event>
 8    1  0.1095698E+005  0.1043930E+01  0.7957747E-01            NaN
         13   -1    0    0    0    0  0.00000000000E+00  0.00000000000E+00  0.74505805969E-08  0.10566000000E+00  0.10566000000E+00 0.  1.
     999900   -1    0    0    0    0 -0.00000000000E+00 -0.00000000000E+00 -0.74505805969E-08  0.93827000000E+00  0.93827000000E+00 0. -1.
     999902    2    1    2    0    0 -0.10866434117E-01 -0.53144467946E-02 -0.21287622480E-01  0.10194456048E+01  0.10191515371E+01 0.  0.
     999903    2    3    3    0    0 -0.12866854791E+00  0.94901255774E-02 -0.18647233802E-01  0.13146841762E+00  0.17046049369E-01 0.  0.
         14    1    1    2    0    0  0.10866434117E-01  0.53144467946E-02  0.21287622480E-01  0.24484395153E-01  0.00000000000E+00 0.  1.
     999901    1    3    3    0    0  0.11780211379E+00 -0.14804572372E-01 -0.26403886779E-02  0.88797718722E+00  0.88000000000E+00 0. -1.
        -11    1    4    4    0    0 -0.62166116219E-01  0.12769208301E-01 -0.66838080382E-02  0.63817028270E-01  0.51100000000E-03 0.  1.
         11    1    4    4    0    0 -0.66502431692E-01 -0.32790827234E-02 -0.11963425764E-01  0.67651389354E-01  0.51100000000E-03 0. -1.
</event>
<event>
 8    1  0.1095698E+005  0.1043930E+01  0.7957747E-01            NaN
         13   -1    0    0    0    0  0.00000000000E+00  0.00000000000E+00  0.74505805969E-08  0.10566000000E+00  0.10566000000E+00 0. -1.
     999900   -1    0    0    0    0 -0.00000000000E+00 -0.00000000000E+00 -0.74505805969E-08  0.93827000000E+00  0.93827000000E+00 0. -1.
     999902    2    1    2    0    0 -0.22124039827E-01  0.62707259388E-02 -0.85639146500E-03  0.10209185127E+01  0.10206591405E+01 0.  0.
     999903    2    3    3    0    0 -0.85538652410E-01 -0.91984266546E-01 -0.37428121683E-01  0.13242937483E+00  0.18939606041E-01 0.  0.
         14    1    1    2    0    0  0.22124039827E-01 -0.62707259388E-02  0.85639146500E-03  0.23011487314E-01  0.00000000000E+00 0.  1.
     999901    1    3    3    0    0  0.63414612583E-01  0.98254992484E-01  0.36571730218E-01  0.88848913786E+00  0.88000000000E+00 0.  1.
        -11    1    4    4    0    0 -0.65203124659E-01 -0.79627405671E-01 -0.26720388627E-01  0.10633067050E+00  0.51100000000E-03 0. -1.
         11    1    4    4    0    0 -0.20335527751E-01 -0.12356860874E-01 -0.10707733055E-01  0.26098704331E-01  0.51100000000E-03 0.  1.
</event>
<event>
 8    1  0.1164636E+005  0.1043930E+01  0.7957747E-01            NaN
         13   -1    0    0    0    0  0.00000000000E+00  0.00000000000E+00  0.74505805969E-08  0.10566000000E+00  0.10566000000E+00 0.  1.
     999900   -1    0    0    0    0 -0.00000000000E+00 -0.00000000000E+00 -0.74505805969E-08  0.93827000000E+00  0.93827000000E+00 0. -1.
     999902    2    1    2    0    0 -0.22371692094E-01  0.28382604060E-02  0.66220327613E-02  0.10204268162E+01  0.10201561094E+01 0.  0.
     999903    2    3    3    0    0 -0.41373455381E-01  0.18203953517E-01 -0.12116024571E+00  0.13086204500E+00  0.20048016028E-01 0.  0.
         14    1    1    2    0    0  0.22371692094E-01 -0.28382604060E-02 -0.66220327613E-02  0.23503183767E-01  0.00000000000E+00 0.  1.
     999901    1    3    3    0    0  0.19001763286E-01 -0.15365693111E-01  0.12778227847E+00  0.88956477124E+00  0.88000000000E+00 0.  1.
        -11    1    4    4    0    0 -0.22890080285E-01  0.59907059276E-03 -0.44268885333E-01  0.49842852954E-01  0.51100000000E-03 0.  1.
         11    1    4    4    0    0 -0.18483375096E-01  0.17604882924E-01 -0.76891360376E-01  0.81019192043E-01  0.51100000000E-03 0. -1.
</event>
<event>
 8    1  0.1095698E+005  0.1043930E+01  0.7957747E-01            NaN
         13   -1    0    0    0    0  0.00000000000E+00  0.00000000000E+00  0.74505805969E-08  0.10566000000E+00  0.10566000000E+00 0. -1.
     999900   -1    0    0    0    0 -0.00000000000E+00 -0.00000000000E+00 -0.74505805969E-08  0.93827000000E+00  0.93827000000E+00 0.  1.
     999902    2    1    2    0    0  0.15099014042E-03 -0.90844601811E-02 -0.21708012715E-01  0.10203972987E+01  0.10201259036E+01 0.  0.
     999903    2    3    3    0    0  0.69051554191E-01 -0.10949041306E+00 -0.16524467732E-01  0.13199676276E+00  0.19844889997E-01 0.  0.
         14    1    1    2    0    0 -0.15099014042E-03  0.90844601811E-02  0.21708012715E-01  0.23532701308E-01  0.00000000000E+00 0. -1.
     999901    1    3    3    0    0 -0.68900564051E-01  0.10040595287E+00 -0.51835449837E-02  0.88840053593E+00  0.88000000000E+00 0. -1.
        -11    1    4    4    0    0  0.28073476881E-01 -0.62962305945E-01 -0.76585155470E-02  0.69363434571E-01  0.51100000000E-03 0. -1.
         11    1    4    4    0    0  0.40978077311E-01 -0.46528107110E-01 -0.88659521848E-02  0.62633328193E-01  0.51100000000E-03 0.  1.
</event>
<event>
 8    1  0.1095698E+005  0.1043930E+01  0.7957747E-01            NaN
         13   -1    0    0    0    0  0.00000000000E+00  0.00000000000E+00  0.74505805969E-08  0.10566000000E+00  0.10566000000E+00 0. -1.
     999900   -1    0    0    0    0 -0.00000000000E+00 -0.00000000000E+00 -0.74505805969E-08  0.93827000000E+00  0.93827000000E+00 0.  1.
     999902    2    1    2    0    0 -0.22090041058E-01  0.12745276633E-02 -0.83335041259E-02  0.10202859389E+01  0.10200119389E+01 0.  0.
     999903    2    3    3    0    0  0.23663745180E-01 -0.95676915430E-01  0.81249404634E-01  0.12926512611E+00  0.19848478325E-01 0.  0.
         14    1    1    2    0    0  0.22090041058E-01 -0.12745276633E-02  0.83335041259E-02  0.23644061109E-01  0.00000000000E+00 0. -1.
     999901    1    3    3    0    0 -0.45753786238E-01  0.96951443093E-01 -0.89582908760E-01  0.89102081278E+00  0.88000000000E+00 0.  1.
        -11    1    4    4    0    0  0.70481577228E-02 -0.66581762539E-01  0.51796844706E-01  0.84652122670E-01  0.51100000000E-03 0.  1.
         11    1    4    4    0    0  0.16615587457E-01 -0.29095152891E-01  0.29452559928E-01  0.44613003436E-01  0.51100000000E-03 0. -1.
</event>
<event>
 8    1  0.1095698E+005  0.1043930E+01  0.7957747E-01            NaN
         13   -1    0    0    0    0  0.00000000000E+00  0.00000000000E+00  0.74505805969E-08  0.10566000000E+00  0.10566000000E+00 0. -1.
     999900   -1    0    0    0    0 -0.00000000000E+00 -0.00000000000E+00 -0.74505805969E-08  0.93827000000E+00  0.93827000000E+00 0. -1.
     999902    2    1    2    0    0  0.18303527207E-01  0.54622841665E-02 -0.17932274964E-01  0.10177303408E+01  0.10173930531E+01 0.  0.
     999903    2    3    3    0    0  0.34779657384E-01  0.66958701961E-01  0.10068217088E+00  0.12749292358E+00  0.20602273967E-01 0.  0.
         14    1    1    2    0    0 -0.18303527207E-01 -0.54622841665E-02  0.17932274964E-01  0.26199659195E-01  0.00000000000E+00 0.  1.
     999901    1    3    3    0    0 -0.16476130177E-01 -0.61496417794E-01 -0.11861444585E+00  0.89023741723E+00  0.88000000000E+00 0.  1.
        -11    1    4    4    0    0  0.22929821172E-01  0.45135761708E-01  0.50545240385E-01  0.71540870351E-01  0.51100000000E-03 0. -1.
         11    1    4    4    0    0  0.11849836212E-01  0.21822940253E-01  0.50136930499E-01  0.55952053228E-01  0.51100000000E-03 0.  1.
</event>
<event>
 8    1  0.1095698E+005  0.1043930E+01  0.7957747E-01            NaN
         13   -1    0    0    0    0  0.00000000000E+00  0.00000000000E+00  0.74505805969E-08  0.10566000000E+00  0.10566000000E+00 0. -1.
     999900   -1    0    0    0    0 -0.00000000000E+00 -0.00000000000E+00 -0.74505805969E-08  0.93827000000E+00  0.93827000000E+00 0.  1.
     999902    2    1    2    0    0 -0.19289192157E-01  0.11559318692E-01  0.79783560378E-02  0.10200690497E+01  0.10197899398E+01 0.  0.
     999903    2    3    3    0    0 -0.74812972362E-01  0.81824691234E-01  0.71694485768E-01  0.13323205347E+00  0.17844322727E-01 0.  0.
         14    1    1    2    0    0  0.19289192157E-01 -0.11559318692E-01 -0.79783560378E-02  0.23860950269E-01  0.00000000000E+00 0.  1.
     999901    1    3    3    0    0  0.55523780205E-01 -0.70265372541E-01 -0.63716129730E-01  0.88683699626E+00  0.88000000000E+00 0.  1.
        -11    1    4    4    0    0 -0.20833683605E-01  0.12044862190E-01  0.15842491543E-01  0.28816084693E-01  0.51100000000E-03 0. -1.
         11    1    4    4    0    0 -0.53979288757E-01  0.69779829044E-01  0.55851994225E-01  0.10441596878E+00  0.51100000000E-03 0.  1.
</event>
<event>
 8    1  0.1095698E+005  0.1043930E+01  0.7957747E-01            NaN
         13   -1    0    0    0    0  0.00000000000E+00  0.00000000000E+00  0.74505805969E-08  0.10566000000E+00  0.10566000000E+00 0.  1.
     999900   -1    0    0    0    0 -0.00000000000E+00 -0.00000000000E+00 -0.74505805969E-08  0.93827000000E+00  0.93827000000E+00 0. -1.
     999902    2    1    2    0    0  0.15018921172E-01 -0.43811782594E-02 -0.17443096319E-01  0.10204987319E+01  0.10202296984E+01 0.  0.
     999903    2    3    3    0    0  0.89869377068E-01  0.59670106859E-01 -0.75887670372E-01  0.13307497398E+00  0.17691342427E-01 0.  0.
         14    1    1    2    0    0 -0.15018921172E-01  0.43811782594E-02  0.17443096319E-01  0.23431268111E-01  0.00000000000E+00 0.  1.
     999901    1    3    3    0    0 -0.74850455896E-01 -0.64051285119E-01  0.58444574053E-01  0.88742375791E+00  0.88000000000E+00 0.  1.
        -11    1    4    4    0    0  0.22744054764E-01  0.22190995116E-01 -0.15761426747E-01  0.35474159404E-01  0.51100000000E-03 0.  1.
         11    1    4    4    0    0  0.67125322304E-01  0.37479111743E-01 -0.60126243625E-01  0.97600814571E-01  0.51100000000E-03 0. -1.
</event>
<event>
 8    1  0.1095698E+005  0.1043930E+01  0.7957747E-01            NaN
         13   -1    0    0    0    0  0.00000000000E+00  0.00000000000E+00  0.74505805969E-08  0.10566000000E+00  0.10566000000E+00 0.  1.
     999900   -1    0    0    0    0 -0.00000000000E+00 -0.00000000000E+00 -0.74505805969E-08  0.93827000000E+00  0.93827000000E+00 0.  1.
     999902    2    1    2    0    0 -0.23281018811E-04 -0.17609095979E-01  0.15625547232E-01  0.10203877289E+01  0.10201161104E+01 0.  0.
     999903    2    3    3    0    0 -0.30275116362E-01  0.94342057180E-01 -0.78201001945E-01  0.12783428198E+00  0.20228705380E-01 0.  0.
         14    1    1    2    0    0  0.23281018811E-04  0.17609095979E-01 -0.15625547232E-01  0.23542271120E-01  0.00000000000E+00 0. -1.
     999901    1    3    3    0    0  0.30251835344E-01 -0.11195115316E+00  0.93826549177E-01  0.89255344690E+00  0.88000000000E+00 0.  1.
        -11    1    4    4    0    0 -0.27054623618E-01  0.87101186125E-01 -0.77801747559E-01  0.11988303603E+00  0.51100000000E-03 0.  1.
         11    1    4    4    0    0 -0.32204927440E-02  0.72408710558E-02 -0.39925438604E-03  0.79512459542E-02  0.51100000000E-03 0. -1.
</event>
<event>
 8    1  0.1095698E+005  0.1043930E+01  0.7957747E-01            NaN
         13   -1    0    0    0    0  0.00000000000E+00  0.00000000000E+00  0.74505805969E-08  0.10566000000E+00  0.10566000000E+00 0.  1.
     999900   -1    0    0    0    0 -0.00000000000E+00 -0.00000000000E+00 -0.74505805969E-08  0.93827000000E+00  0.93827000000E+00 0.  1.
     999902    2    1    2    0    0 -0.67107355101E-02  0.13281171145E-01 -0.17773708360E-01  0.10207496595E+01  0.10204864228E+01 0.  0.
     999903    2    3    3    0    0 -0.11938959412E-01 -0.62741168949E-01 -0.11413235702E+00  0.13221619376E+00  0.19389015961E-01 0.  0.
         14    1    1    2    0    0  0.67107355101E-02 -0.13281171145E-01  0.17773708360E-01  0.23180340527E-01  0.00000000000E+00 0.  1.
     999901    1    3    3    0    0  0.52282239019E-02  0.76022340093E-01  0.96358648663E-01  0.88853346571E+00  0.88000000000E+00 0. -1.
        -11    1    4    4    0    0 -0.13808779976E-01 -0.43211114798E-01 -0.64611275153E-01  0.78947836223E-01  0.51100000000E-03 0.  1.
         11    1    4    4    0    0  0.18698205636E-02 -0.19530054151E-01 -0.49521081871E-01  0.53268357538E-01  0.51100000000E-03 0. -1.
</event>
<event>
 8    1  0.1095698E+005  0.1043930E+01  0.7957747E-01            NaN
         13   -1    0    0    0    0  0.00000000000E+00  0.00000000000E+00  0.74505805969E-08  0.10566000000E+00  0.10566000000E+00 0. -1.
     999900   -1    0    0    0    0 -0.00000000000E+00 -0.00000000000E+00 -0.74505805969E-08  0.93827000000E+00  0.93827000000E+00 0.  1.
     999902    2    1    2    0    0  0.82525915244E-02  0.17775684274E-01 -0.12539579708E-01  0.10206636879E+01  0.10203984724E+01 0.  0.
     999903    2    3    3    0    0 -0.31097919990E-01 -0.80633910335E-01 -0.95568451018E-01  0.13042399855E+00  0.20203525539E-01 0.  0.
         14    1    1    2    0    0 -0.82525915244E-02 -0.17775684274E-01  0.12539579708E-01  0.23266312074E-01  0.00000000000E+00 0.  1.
     999901    1    3    3    0    0  0.39350511514E-01  0.98409594610E-01  0.83028871311E-01  0.89023968938E+00  0.88000000000E+00 0. -1.
        -11    1    4    4    0    0 -0.18737804229E-02 -0.16354513539E-01 -0.29161629321E-01  0.33490937757E-01  0.51100000000E-03 0. -1.
         11    1    4    4    0    0 -0.29224139567E-01 -0.64279396796E-01 -0.66406821697E-01  0.96933060794E-01  0.51100000000E-03 0.  1.
</event>
<event>
 8    1  0.1095698E+005  0.1043930E+01  0.7957747E-01            NaN
         13   -1    0    0    0    0  0.00000000000E+00  0.00000000000E+00  0.74505805969E-08  0.10566000000E+00  0.10566000000E+00 0.  1.
     999900   -1    0    0    0    0 -0.00000000000E+00 -0.00000000000E+00 -0.74505805969E-08  0.93827000000E+00  0.93827000000E+00 0.  1.
     999902    2    1    2    0    0 -0.18321717763E-01  0.27541601350E-02  0.55971922002E-02  0.10245754321E+01  0.10243926087E+01 0.  0.
     999903    2    3    3    0    0  0.15715982193E-01  0.12270011760E+00  0.49180657581E-01  0.13471863673E+00  0.20689684547E-01 0.  0.
         14    1    1    2    0    0  0.18321717763E-01 -0.27541601350E-02 -0.55971922002E-02  0.19354567945E-01  0.00000000000E+00 0. -1.
     999901    1    3    3    0    0 -0.34037699956E-01 -0.11994595747E+00 -0.43583465381E-01  0.88985679532E+00  0.88000000000E+00 0.  1.
        -11    1    4    4    0    0  0.12173598669E-01  0.46962970264E-01  0.27897548333E-01  0.55966520389E-01  0.51100000000E-03 0. -1.
         11    1    4    4    0    0  0.35423835245E-02  0.75737147337E-01  0.21283109249E-01  0.78752116341E-01  0.51100000000E-03 0.  1.
</event>
<event>
 8    1  0.1095698E+005  0.1043930E+01  0.7957747E-01            NaN
         13   -1    0    0    0    0  0.00000000000E+00  0.00000000000E+00  0.74505805969E-08  0.10566000000E+00  0.10566000000E+00 0.  1.
     999900   -1    0    0    0    0 -0.00000000000E+00 -0.00000000000E+00 -0.74505805969E-08  0.93827000000E+00  0.93827000000E+00 0. -1.
     999902    2    1    2    0    0  0.20995544790E-01 -0.69839334345E-02  0.73274731867E-02  0.10206216305E+01  0.10203554442E+01 0.  0.
     999903    2    3    3    0    0 -0.20838095973E-01 -0.11927784324E+00 -0.45783307642E-01  0.13091340260E+00  0.19513523292E-01 0.  0.
         14    1    1    2    0    0 -0.20995544790E-01  0.69839334345E-02 -0.73274731867E-02  0.23308369539E-01  0.00000000000E+00 0. -1.
     999901    1    3    3    0    0  0.41833640763E-01  0.11229390980E+00  0.53110780829E-01  0.88970822786E+00  0.88000000000E+00 0. -1.
        -11    1    4    4    0    0 -0.62051105866E-02 -0.28349178479E-01 -0.20080971555E-01  0.35294275137E-01  0.51100000000E-03 0.  1.
         11    1    4    4    0    0 -0.14632985386E-01 -0.90928664759E-01 -0.25702336087E-01  0.95619127466E-01  0.51100000000E-03 0. -1.
</event>
<event>
 8    1  0.1095698E+005  0.1043930E+01  0.7957747E-01            NaN
         13   -1    0    0    0    0  0.00000000000E+00  0.00000000000E+00  0.74505805969E-08  0.10566000000E+00  0.10566000000E+00 0. -1.
     999900   -1    0    0    0    0 -0.00000000000E+00 -0.00000000000E+00 -0.74505805969E-08  0.93827000000E+00  0.93827000000E+00 0. -1.
     999902    2    1    2    0    0 -0.20782289887E-01 -0.50964267393E-02  0.10364805981E-01  0.10201538283E+01  0.10198767215E+01 0.  0.
     999903    2    3    3    0    0  0.44592068716E-01  0.22433473400E-01 -0.11648323038E+00  0.12823335734E+00  0.19589222873E-01 0.  0.
         14    1    1    2    0    0  0.20782289887E-01  0.50964267393E-02 -0.10364805981E-01  0.23776171716E-01  0.00000000000E+00 0.  1.
     999901    1    3    3    0    0 -0.65374358603E-01 -0.27529900139E-01  0.12684803636E+00  0.89192047095E+00  0.88000000000E+00 0.  1.
        -11    1    4    4    0    0  0.27200693813E-01  0.20964881387E-01 -0.91664241279E-01  0.97887681788E-01  0.51100000000E-03 0.  1.
         11    1    4    4    0    0  0.17391374903E-01  0.14685920126E-02 -0.24818989103E-01  0.30345675550E-01  0.51100000000E-03 0. -1.
</event>
<event>
 8    1  0.1095698E+005  0.1043930E+01  0.7957747E-01            NaN
         13   -1    0    0    0    0  0.00000000000E+00  0.00000000000E+00  0.74505805969E-08  0.10566000000E+00  0.10566000000E+00 0.  1.
     999900   -1    0    0    0    0 -0.00000000000E+00 -0.00000000000E+00 -0.74505805969E-08  0.93827000000E+00  0.93827000000E+00 0.  1.
     999902    2    1    2    0    0 -0.14170911720E-01  0.10935283139E-01 -0.15296204656E-01  0.10203849574E+01  0.10201132742E+01 0.  0.
     999903    2    3    3    0    0 -0.11371988496E+00 -0.35343901443E-01  0.50940945042E-01  0.13109359846E+00  0.20227408916E-01 0.  0.
         14    1    1    2    0    0  0.14170911720E-01 -0.10935283139E-01  0.15296204656E-01  0.23545042646E-01  0.00000000000E+00 0.  1.
     999901    1    3    3    0    0  0.99548973240E-01  0.46279184581E-01 -0.66237149698E-01  0.88929135889E+00  0.88000000000E+00 0.  1.
        -11    1    4    4    0    0 -0.76866161439E-01 -0.23180211865E-01  0.23825799784E-01  0.83747590131E-01  0.51100000000E-03 0.  1.
         11    1    4    4    0    0 -0.36853723522E-01 -0.12163689577E-01  0.27115145257E-01  0.47346008331E-01  0.51100000000E-03 0. -1.
</event>
<event>
 8    1  0.1095698E+005  0.1043930E+01  0.7957747E-01            NaN
         13   -1    0    0    0    0  0.00000000000E+00  0.00000000000E+00  0.74505805969E-08  0.10566000000E+00  0.10566000000E+00 0.  1.
     999900   -1    0    0    0    0 -0.00000000000E+00 -0.00000000000E+00 -0.74505805969E-08  0.93827000000E+00  0.93827000000E+00 0.  1.
     999902    2    1    2    0    0  0.98429797572E-02  0.14349376242E-03 -0.21838121757E-01  0.10199757018E+01  0.10196943777E+01 0.  0.
     999903    2    3    3    0    0 -0.66297762777E-01  0.17307349816E-01  0.10613314410E+00  0.12730070185E+00  0.15693524377E-01 0.  0.
         14    1    1    2    0    0 -0.98429797572E-02 -0.14349376242E-03  0.21838121757E-01  0.23954298212E-01  0.00000000000E+00 0.  1.
     999901    1    3    3    0    0  0.76140742535E-01 -0.17163856053E-01 -0.12797126586E+00  0.89267499994E+00  0.88000000000E+00 0.  1.
        -11    1    4    4    0    0 -0.15915709364E-02  0.28024454581E-02  0.99615154771E-02  0.10482352322E-01  0.51100000000E-03 0. -1.
         11    1    4    4    0    0 -0.64706191841E-01  0.14504904358E-01  0.96171628626E-01  0.11681834953E+00  0.51100000000E-03 0.  1.
</event>
<event>
 8    1  0.1095698E+005  0.1043930E+01  0.7957747E-01            NaN
         13   -1    0    0    0    0  0.00000000000E+00  0.00000000000E+00  0.74505805969E-08  0.10566000000E+00  0.10566000000E+00 0. -1.
     999900   -1    0    0    0    0 -0.00000000000E+00 -0.00000000000E+00 -0.74505805969E-08  0.93827000000E+00  0.93827000000E+00 0.  1.
     999902    2    1    2    0    0  0.57015879894E-02 -0.20460238846E-01 -0.63945159276E-02  0.10217484916E+01  0.10215076901E+01 0.  0.
     999903    2    3    3    0    0  0.60408570967E-01 -0.11855433558E+00 -0.22534317356E-02  0.13459999540E+00  0.20192941217E-01 0.  0.
         14    1    1    2    0    0 -0.57015879894E-02  0.20460238846E-01  0.63945159276E-02  0.22181508362E-01  0.00000000000E+00 0.  1.
     999901    1    3    3    0    0 -0.54706982978E-01  0.98094096736E-01 -0.41410841921E-02  0.88714849624E+00  0.88000000000E+00 0. -1.
        -11    1    4    4    0    0  0.46936501258E-01 -0.10066290610E+00  0.46259258147E-02  0.11116526492E+00  0.51100000000E-03 0.  1.
         11    1    4    4    0    0  0.13472069709E-01 -0.17891429487E-01 -0.68793575502E-02  0.23434730480E-01  0.51100000000E-03 0. -1.
</event>
<event>
 8    1  0.1095698E+005  0.1043930E+01  0.7957747E-01            NaN
         13   -1    0    0    0    0  0.00000000000E+00  0.00000000000E+00  0.74505805969E-08  0.10566000000E+00  0.10566000000E+00 0.  1.
     999900   -1    0    0    0    0 -0.00000000000E+00 -0.00000000000E+00 -0.74505805969E-08  0.93827000000E+00  0.93827000000E+00 0. -1.
     999902    2    1    2    0    0 -0.19892779123E-01 -0.12511904162E-01 -0.53053555474E-02  0.10198381507E+01  0.10195535476E+01 0.  0.
     999903    2    3    3    0    0 -0.18224907069E-01  0.12490025177E+00  0.17224744349E-01  0.12888782219E+00  0.19574441536E-01 0.  0.
         14    1    1    2    0    0  0.19892779123E-01  0.12511904162E-01  0.53053555474E-02  0.24091849337E-01  0.00000000000E+00 0.  1.
     999901    1    3    3    0    0 -0.16678720535E-02 -0.13741215594E+00 -0.22530099897E-01  0.89095032847E+00  0.88000000000E+00 0.  1.
        -11    1    4    4    0    0 -0.63558958527E-02  0.50373874769E-01 -0.26577240732E-02  0.50845346784E-01  0.51100000000E-03 0. -1.
         11    1    4    4    0    0 -0.11869011217E-01  0.74526377004E-01  0.19882468423E-01  0.78042475410E-01  0.51100000000E-03 0.  1.
</event>
<event>
 8    1  0.1095698E+005  0.1043930E+01  0.7957747E-01            NaN
         13   -1    0    0    0    0  0.00000000000E+00  0.00000000000E+00  0.74505805969E-08  0.10566000000E+00  0.10566000000E+00 0. -1.
     999900   -1    0    0    0    0 -0.00000000000E+00 -0.00000000000E+00 -0.74505805969E-08  0.93827000000E+00  0.93827000000E+00 0.  1.
     999902    2    1    2    0    0  0.14675440852E-01  0.34871770273E-02 -0.18106045009E-01  0.10203639686E+01  0.10200917952E+01 0.  0.
     999903    2    3    3    0    0 -0.26476541199E-01  0.97553095935E-01  0.77837175616E-01  0.12921471947E+00  0.20498879467E-01 0.  0.
         14    1    1    2    0    0 -0.14675440852E-01 -0.34871770273E-02  0.18106045009E-01  0.23566031352E-01  0.00000000000E+00 0.  1.
     999901    1    3    3    0    0  0.41151982051E-01 -0.94065918908E-01 -0.95943220624E-01  0.89114924918E+00  0.88000000000E+00 0.  1.
        -11    1    4    4    0    0 -0.18374233732E-01  0.34246813594E-01  0.23711462460E-01  0.45529674714E-01  0.51100000000E-03 0.  1.
         11    1    4    4    0    0 -0.81023074673E-02  0.63306282342E-01  0.54125713155E-01  0.83685044756E-01  0.51100000000E-03 0. -1.
</event>
<event>
 8    1  0.1095698E+005  0.1043930E+01  0.7957747E-01            NaN
         13   -1    0    0    0    0  0.00000000000E+00  0.00000000000E+00  0.74505805969E-08  0.10566000000E+00  0.10566000000E+00 0.  1.
     999900   -1    0    0    0    0 -0.00000000000E+00 -0.00000000000E+00 -0.74505805969E-08  0.93827000000E+00  0.93827000000E+00 0.  1.
     999902    2    1    2    0    0 -0.21426981999E-01 -0.91380968427E-02 -0.71349915850E-03  0.10206248621E+01  0.10203587505E+01 0.  0.
     999903    2    3    3    0    0 -0.11041758760E+00  0.56136474832E-01 -0.43279350194E-01  0.13271048038E+00  0.19890248633E-01 0.  0.
         14    1    1    2    0    0  0.21426981999E-01  0.91380968427E-02  0.71349915850E-03  0.23305137900E-01  0.00000000000E+00 0.  1.
     999901    1    3    3    0    0  0.88990605603E-01 -0.65274571675E-01  0.42565851036E-01  0.88791438172E+00  0.88000000000E+00 0.  1.
        -11    1    4    4    0    0 -0.35219884694E-01  0.13073188522E-01 -0.47365827653E-02  0.37868784946E-01  0.51100000000E-03 0.  1.
         11    1    4    4    0    0 -0.75197702908E-01  0.43063286310E-01 -0.38542767429E-01  0.94841695433E-01  0.51100000000E-03 0. -1.
</event>
<event>
 8    1  0.1095698E+005  0.1043930E+01  0.7957747E-01            NaN
         13   -1    0    0    0    0  0.00000000000E+00  0.00000000000E+00  0.74505805969E-08  0.10566000000E+00  0.10566000000E+00 0.  1.
     999900   -1    0    0    0    0 -0.00000000000E+00 -0.00000000000E+00 -0.74505805969E-08  0.93827000000E+00  0.93827000000E+00 0. -1.
     999902    2    1    2    0    0  0.15409368594E-01  0.18024056505E-01 -0.72679085041E-02  0.10191280294E+01  0.10188261886E+01 0.  0.
     999903    2    3    3    0    0  0.12981925024E+00  0.78425712008E-02 -0.23256670318E-02  0.13164974264E+00  0.20290449805E-01 0.  0.
         14    1    1    2    0    0 -0.15409368594E-01 -0.18024056505E-01  0.72679085041E-02  0.24801970635E-01  0.00000000000E+00 0.  1.
     999901    1    3    3    0    0 -0.11440988165E+00  0.10181485304E-01 -0.49422414723E-02  0.88747828673E+00  0.88000000000E+00 0.  1.
        -11    1    4    4    0    0  0.11379707699E+00  0.35368811929E-02  0.39055907930E-02  0.11392014317E+00  0.51100000000E-03 0. -1.
         11    1    4    4    0    0  0.16022173254E-01  0.43056900079E-02 -0.62312578248E-02  0.17729599469E-01  0.51100000000E-03 0.  1.
</event>
<event>
 8    1  0.1095698E+005  0.1043930E+01  0.7957747E-01            NaN
         13   -1    0    0    0    0  0.00000000000E+00  0.00000000000E+00  0.74505805969E-08  0.10566000000E+00  0.10566000000E+00 0. -1.
     999900   -1    0    0    0    0 -0.00000000000E+00 -0.00000000000E+00 -0.74505805969E-08  0.93827000000E+00  0.93827000000E+00 0.  1.
     999902    2    1    2    0    0 -0.10293534409E-01 -0.18014559369E-01 -0.13260551566E-01  0.10193063644E+01  0.10190089014E+01 0.  0.
     999903    2    3    3    0    0  0.99938075799E-01  0.66589138798E-01 -0.39768947453E-01  0.12800872130E+00  0.19568626600E-01 0.  0.
         14    1    1    2    0    0  0.10293534409E-01  0.18014559369E-01  0.13260551566E-01  0.24623635550E-01  0.00000000000E+00 0.  1.
     999901    1    3    3    0    0 -0.11023161021E+00 -0.84603698167E-01  0.26508395887E-01  0.89129764315E+00  0.88000000000E+00 0. -1.
        -11    1    4    4    0    0  0.78010633166E-01  0.56433952069E-01 -0.38832291103E-01  0.10382031490E+00  0.51100000000E-03 0. -1.
         11    1    4    4    0    0  0.21927442633E-01  0.10155186729E-01 -0.93665634942E-03  0.24188406397E-01  0.51100000000E-03 0.  1.
</event>
<event>
 8    1  0.1095698E+005  0.1043930E+01  0.7957747E-01            NaN
         13   -1    0    0    0    0  0.00000000000E+00  0.00000000000E+00  0.74505805969E-08  0.10566000000E+00  0.10566000000E+00 0.  1.
     999900   -1    0    0    0    0 -0.00000000000E+00 -0.00000000000E+00 -0.74505805969E-08  0.93827000000E+00  0.93827000000E+00 0. -1.
     999902    2    1    2    0    0 -0.13780741966E-01  0.25345579621E-01  0.17592259228E-01  0.10101395451E+01  0.10095742201E+01 0.  0.
     999903    2    3    3    0    0 -0.57874859197E-01  0.10873592971E+00  0.84132749586E-02  0.12505056914E+00  0.19845904132E-01 0.  0.
         14    1    1    2    0    0  0.13780741966E-01 -0.25345579621E-01 -0.17592259228E-01  0.33790454868E-01  0.00000000000E+00 0. -1.
     999901    1    3    3    0    0  0.44094117231E-01 -0.83390350089E-01  0.91789842689E-02  0.88508897599E+00  0.88000000000E+00 0. -1.
        -11    1    4    4    0    0 -0.35195804914E-01  0.71818630330E-01 -0.36776341615E-02  0.80065263754E-01  0.51100000000E-03 0.  1.
         11    1    4    4    0    0 -0.22679054283E-01  0.36917299380E-01  0.12090909120E-01  0.44985305390E-01  0.51100000000E-03 0. -1.
</event>
<event>
 8    1  0.1095698E+005  0.1043930E+01  0.7957747E-01            NaN
         13   -1    0    0    0    0  0.00000000000E+00  0.00000000000E+00  0.74505805969E-08  0.10566000000E+00  0.10566000000E+00 0. -1.
     999900   -1    0    0    0    0 -0.00000000000E+00 -0.00000000000E+00 -0.74505805969E-08  0.93827000000E+00  0.93827000000E+00 0. -1.
     999902    2    1    2    0    0 -0.23268826914E-01  0.36419700627E-03  0.91075713629E-02  0.10189396258E+01  0.10186331245E+01 0.  0.
     999903    2    3    3    0    0  0.49738536174E-01  0.64122165277E-01  0.98733246082E-01  0.12909249561E+00  0.18194627770E-01 0.  0.
         14    1    1    2    0    0  0.23268826914E-01 -0.36419700627E-03 -0.91075713629E-02  0.24990374178E-01  0.00000000000E+00 0. -1.
     999901    1    3    3    0    0 -0.73007363088E-01 -0.63757968271E-01 -0.89625674719E-01  0.88984713022E+00  0.88000000000E+00 0. -1.
        -11    1    4    4    0    0  0.44779554743E-02  0.28768696601E-02  0.14911761099E-01  0.15841407903E-01  0.51100000000E-03 0.  1.
         11    1    4    4    0    0  0.45260580700E-01  0.61245295617E-01  0.83821484983E-01  0.11325108770E+00  0.51100000000E-03 0. -1.
</event>
<event>
 8    1  0.1095698E+005  0.1043930E+01  0.7957747E-01            NaN
         13   -1    0    0    0    0  0.00000000000E+00  0.00000000000E+00  0.74505805969E-08  0.10566000000E+00  0.10566000000E+00 0. -1.
     999900   -1    0    0    0    0 -0.00000000000E+00 -0.00000000000E+00 -0.74505805969E-08  0.93827000000E+00  0.93827000000E+00 0.  1.
     999902    2    1    2    0    0  0.14018579681E-02 -0.13140851169E-01  0.19217883292E-01  0.10206067452E+01  0.10203402149E+01 0.  0.
     999903    2    3    3    0    0  0.35915704914E-01 -0.11310304319E+00  0.58035432334E-01  0.13342556441E+00  0.18762558294E-01 0.  0.
         14    1    1    2    0    0 -0.14018579681E-02  0.13140851169E-01 -0.19217883292E-01  0.23323254777E-01  0.00000000000E+00 0.  1.
     999901    1    3    3    0    0 -0.34513846946E-01  0.99962192026E-01 -0.38817549043E-01  0.88718118081E+00  0.88000000000E+00 0.  1.
        -11    1    4    4    0    0  0.31069188820E-01 -0.76148472227E-01  0.46118440579E-01  0.94292396293E-01  0.51100000000E-03 0. -1.
         11    1    4    4    0    0  0.48465160946E-02 -0.36954570968E-01  0.11916991756E-01  0.39133168121E-01  0.51100000000E-03 0.  1.
</event>
<event>
 8    1  0.1095698E+005  0.1043930E+01  0.7957747E-01            NaN
         13   -1    0    0    0    0  0.00000000000E+00  0.00000000000E+00  0.74505805969E-08  0.10566000000E+00  0.10566000000E+00 0. -1.
     999900   -1    0    0    0    0 -0.00000000000E+00 -0.00000000000E+00 -0.74505805969E-08  0.93827000000E+00  0.93827000000E+00 0.  1.
     999902    2    1    2    0    0  0.10077982580E-01 -0.19777213291E-01 -0.46748668350E-02  0.10212461229E+01  0.10209941652E+01 0.  0.
     999903    2    3    3    0    0  0.12507713406E+00 -0.28504356509E-01 -0.30931857684E-01  0.13333261508E+00  0.19079272035E-01 0.  0.
         14    1    1    2    0    0 -0.10077982580E-01  0.19777213291E-01  0.46748668350E-02  0.22683877057E-01  0.00000000000E+00 0.  1.
     999901    1    3    3    0    0 -0.11499915148E+00  0.87271432186E-02  0.26256990849E-01  0.88791350786E+00  0.88000000000E+00 0. -1.
        -11    1    4    4    0    0  0.50385424784E-01 -0.35295050308E-02 -0.17373980692E-01  0.53415959810E-01  0.51100000000E-03 0. -1.
         11    1    4    4    0    0  0.74691709274E-01 -0.24974851478E-01 -0.13557876992E-01  0.79916655274E-01  0.51100000000E-03 0.  1.
</event>
<event>
 8    1  0.1095698E+005  0.1043930E+01  0.7957747E-01            NaN
         13   -1    0    0    0    0  0.00000000000E+00  0.00000000000E+00  0.74505805969E-08  0.10566000000E+00  0.10566000000E+00 0. -1.
     999900   -1    0    0    0    0 -0.00000000000E+00 -0.00000000000E+00 -0.74505805969E-08  0.93827000000E+00  0.93827000000E+00 0.  1.
     999902    2    1    2    0    0  0.19151122345E-01  0.32278676537E-02 -0.10144990256E-01  0.10220186914E+01  0.10217837835E+01 0.  0.
     999903    2    3    3    0    0 -0.45068684325E-01 -0.12044948944E+00  0.90914523425E-02  0.13084513203E+00  0.22327746314E-01 0.  0.
         14    1    1    2    0    0 -0.19151122345E-01 -0.32278676537E-02  0.10144990256E-01  0.21911308586E-01  0.00000000000E+00 0.  1.
     999901    1    3    3    0    0  0.64219806669E-01  0.12367735710E+00 -0.19236442599E-01  0.89117355939E+00  0.88000000000E+00 0. -1.
        -11    1    4    4    0    0 -0.11583520646E-01 -0.35493001893E-01  0.12742698256E-01  0.39453372654E-01  0.51100000000E-03 0.  1.
         11    1    4    4    0    0 -0.33485163679E-01 -0.84956487550E-01 -0.36512459139E-02  0.91391759372E-01  0.51100000000E-03 0. -1.
</event>
<event>
 8    1  0.1095698E+005  0.1043930E+01  0.7957747E-01            NaN
         13   -1    0    0    0    0  0.00000000000E+00  0.00000000000E+00  0.74505805969E-08  0.10566000000E+00  0.10566000000E+00 0. -1.
     999900   -1    0    0    0    0 -0.00000000000E+00 -0.00000000000E+00 -0.74505805969E-08  0.93827000000E+00  0.93827000000E+00 0. -1.
     999902    2    1    2    0    0 -0.16223750046E-01  0.16327178988E-01 -0.59354406658E-02  0.10201599286E+01  0.10198829656E+01 0.  0.
     999903    2    3    3    0    0  0.72029689969E-01  0.37331797239E-01 -0.10029554746E+00  0.13047813523E+00  0.19580796998E-01 0.  0.
         14    1    1    2    0    0  0.16223750046E-01 -0.16327178988E-01  0.59354406658E-02  0.23770071417E-01  0.00000000000E+00 0. -1.
     999901    1    3    3    0    0 -0.88253440015E-01 -0.21004618251E-01  0.94360106797E-01  0.88968179335E+00  0.88000000000E+00 0.  1.
        -11    1    4    4    0    0  0.63130907787E-01  0.25306802718E-01 -0.76480686665E-01  0.10234990149E+00  0.51100000000E-03 0. -1.
         11    1    4    4    0    0  0.88987821811E-02  0.12024994521E-01 -0.23814860798E-01  0.28128233740E-01  0.51100000000E-03 0.  1.
</event>
<event>
 8    1  0.1095698E+005  0.1043930E+01  0.7957747E-01            NaN
         13   -1    0    0    0    0  0.00000000000E+00  0.00000000000E+00  0.74505805969E-08  0.10566000000E+00  0.10566000000E+00 0. -1.
     999900   -1    0    0    0    0 -0.00000000000E+00 -0.00000000000E+00 -0.74505805969E-08  0.93827000000E+00  0.93827000000E+00 0.  1.
     999902    2    1    2    0    0  0.18563235569E-01 -0.14400444190E-01  0.46802842691E-02  0.10199743834E+01  0.10196930279E+01 0.  0.
     999903    2    3    3    0    0  0.11216222993E+00  0.65407162204E-01 -0.25012883257E-02  0.13139034076E+00  0.19967536429E-01 0.  0.
         14    1    1    2    0    0 -0.18563235569E-01  0.14400444190E-01 -0.46802842691E-02  0.23955616638E-01  0.00000000000E+00 0.  1.
     999901    1    3    3    0    0 -0.93598994361E-01 -0.79807606394E-01  0.71815725947E-02  0.88858404260E+00  0.88000000000E+00 0.  1.
        -11    1    4    4    0    0  0.88841428630E-01  0.45056408929E-01 -0.80549927149E-02  0.99940099336E-01  0.51100000000E-03 0.  1.
         11    1    4    4    0    0  0.23320801300E-01  0.20350753275E-01  0.55537043893E-02  0.31450241423E-01  0.51100000000E-03 0. -1.
</event>
<event>
 8    1  0.1095698E+005  0.1043930E+01  0.7957747E-01            NaN
         13   -1    0    0    0    0  0.00000000000E+00  0.00000000000E+00  0.74505805969E-08  0.10566000000E+00  0.10566000000E+00 0. -1.
     999900   -1    0    0    0    0 -0.00000000000E+00 -0.00000000000E+00 -0.74505805969E-08  0.93827000000E+00  0.93827000000E+00 0. -1.
     999902    2    1    2    0    0  0.12743339299E-02  0.35128326226E-01 -0.49548739328E-02  0.10084310704E+01  0.10078060576E+01 0.  0.
     999903    2    3    3    0    0  0.96862836885E-01 -0.12845463090E-01  0.65640895503E-01  0.11914910774E+00  0.18449054786E-01 0.  0.
         14    1    1    2    0    0 -0.12743339299E-02 -0.35128326226E-01  0.49548739328E-02  0.35498929647E-01  0.00000000000E+00 0.  1.
     999901    1    3    3    0    0 -0.95588502955E-01  0.47973789316E-01 -0.70595769436E-01  0.88928196261E+00  0.88000000000E+00 0. -1.
        -11    1    4    4    0    0  0.83290553892E-01 -0.15488454426E-01  0.61557545092E-01  0.10472249552E+00  0.51100000000E-03 0. -1.
         11    1    4    4    0    0  0.13572282993E-01  0.26429913359E-02  0.40833504110E-02  0.14426612229E-01  0.51100000000E-03 0.  1.
</event>
<event>
 8    1  0.1095698E+005  0.1043930E+01  0.7957747E-01            NaN
         13   -1    0    0    0    0  0.00000000000E+00  0.00000000000E+00  0.74505805969E-08  0.10566000000E+00  0.10566000000E+00 0.  1.
     999900   -1    0    0    0    0 -0.00000000000E+00 -0.00000000000E+00 -0.74505805969E-08  0.93827000000E+00  0.93827000000E+00 0.  1.
     999902    2    1    2    0    0 -0.18500295244E-01 -0.14143459677E-01 -0.46661309386E-02  0.10201798178E+01  0.10199033236E+01 0.  0.
     999903    2    3    3    0    0  0.90610196708E-01  0.65395381867E-01 -0.59621985339E-01  0.12818672777E+00  0.19755817436E-01 0.  0.
         14    1    1    2    0    0  0.18500295244E-01  0.14143459677E-01  0.46661309386E-02  0.23750182182E-01  0.00000000000E+00 0.  1.
     999901    1    3    3    0    0 -0.10911049195E+00 -0.79538841544E-01  0.54955854401E-01  0.89199309005E+00  0.88000000000E+00 0.  1.
        -11    1    4    4    0    0  0.69261769970E-01  0.59414494693E-01 -0.46511287148E-01  0.10242478173E+00  0.51100000000E-03 0. -1.
         11    1    4    4    0    0  0.21348426738E-01  0.59808871744E-02 -0.13110698192E-01  0.25761946037E-01  0.51100000000E-03 0.  1.
</event>
<event>
 8    1  0.1095698E+005  0.1043930E+01  0.7957747E-01            NaN
         13   -1    0    0    0    0  0.00000000000E+00  0.00000000000E+00  0.74505805969E-08  0.10566000000E+00  0.10566000000E+00 0.  1.
     999900   -1    0    0    0    0 -0.00000000000E+00 -0.00000000000E+00 -0.74505805969E-08  0.93827000000E+00  0.93827000000E+00 0.  1.
     999902    2    1    2    0    0 -0.77360063896E-02 -0.78048401241E-02  0.21478344190E-01  0.10198036535E+01  0.10195182250E+01 0.  0.
     999903    2    3    3    0    0  0.12385809910E+00  0.21318618785E-02  0.32039445515E-01  0.12990069057E+00  0.22411822631E-01 0.  0.
         14    1    1    2    0    0  0.77360063896E-02  0.78048401241E-02 -0.21478344190E-01  0.24126346457E-01  0.00000000000E+00 0. -1.
     999901    1    3    3    0    0 -0.13159410549E+00 -0.99367020026E-02 -0.10561101325E-01  0.88990296297E+00  0.88000000000E+00 0. -1.
        -11    1    4    4    0    0  0.42046144736E-01  0.70606323000E-02  0.22642878523E-02  0.42697996863E-01  0.51100000000E-03 0. -1.
         11    1    4    4    0    0  0.81811954365E-01 -0.49287704215E-02  0.29775157663E-01  0.87202693707E-01  0.51100000000E-03 0.  1.
</event>
<event>
 8    1  0.1095698E+005  0.1043930E+01  0.7957747E-01            NaN
         13   -1    0    0    0    0  0.00000000000E+00  0.00000000000E+00  0.74505805969E-08  0.10566000000E+00  0.10566000000E+00 0. -1.
     999900   -1    0    0    0    0 -0.00000000000E+00 -0.00000000000E+00 -0.74505805969E-08  0.93827000000E+00  0.93827000000E+00 0.  1.
     999902    2    1    2    0    0  0.36768120536E-03  0.14697810751E-01  0.17872903002E-01  0.10207869343E+01  0.10205245532E+01 0.  0.
     999903    2    3    3    0    0  0.10805133080E+00 -0.66336086548E-01  0.23758590747E-01  0.13050781947E+00  0.19805399311E-01 0.  0.
         14    1    1    2    0    0 -0.36768120536E-03 -0.14697810751E-01 -0.17872903002E-01  0.23143065745E-01  0.00000000000E+00 0.  1.
     999901    1    3    3    0    0 -0.10768364960E+00  0.81033897299E-01 -0.58856877446E-02  0.89027911478E+00  0.88000000000E+00 0. -1.
        -11    1    4    4    0    0  0.23306223414E-01 -0.18664650204E-01 -0.19662766651E-02  0.29927856288E-01  0.51100000000E-03 0.  1.
         11    1    4    4    0    0  0.84745107389E-01 -0.47671436344E-01  0.25724867412E-01  0.10057996318E+00  0.51100000000E-03 0. -1.
</event>
<event>
 8    1  0.1095698E+005  0.1043930E+01  0.7957747E-01            NaN
         13   -1    0    0    0    0  0.00000000000E+00  0.00000000000E+00  0.74505805969E-08  0.10566000000E+00  0.10566000000E+00 0.  1.
     999900   -1    0    0    0    0 -0.00000000000E+00 -0.00000000000E+00 -0.74505805969E-08  0.93827000000E+00  0.93827000000E+00 0.  1.
     999902    2    1    2    0    0  0.52150967897E-03  0.23826940874E-01 -0.39607573295E-02  0.10197704743E+01  0.10194842508E+01 0.  0.
     999903    2    3    3    0    0  0.58143697086E-01  0.40175081498E-01 -0.10898002967E+00  0.13150439606E+00  0.20543432804E-01 0.  0.
         14    1    1    2    0    0 -0.52150967897E-03 -0.23826940874E-01  0.39607573295E-02  0.24159525707E-01  0.00000000000E+00 0.  1.
     999901    1    3    3    0    0 -0.57622187407E-01 -0.16348140623E-01  0.10501927234E+00  0.88826607824E+00  0.88000000000E+00 0. -1.
        -11    1    4    4    0    0  0.19065500173E-01  0.23738861005E-01 -0.54975399464E-01  0.62845703798E-01  0.51100000000E-03 0. -1.
         11    1    4    4    0    0  0.39078196913E-01  0.16436220493E-01 -0.54004630204E-01  0.68658692258E-01  0.51100000000E-03 0.  1.
</event>
<event>
 8    1  0.1095698E+005  0.1043930E+01  0.7957747E-01            NaN
         13   -1    0    0    0    0  0.00000000000E+00  0.00000000000E+00  0.74505805969E-08  0.10566000000E+00  0.10566000000E+00 0. -1.
     999900   -1    0    0    0    0 -0.00000000000E+00 -0.00000000000E+00 -0.74505805969E-08  0.93827000000E+00  0.93827000000E+00 0.  1.
     999902    2    1    2    0    0  0.15018064368E-01 -0.16394896388E-01  0.74096210960E-02  0.10204941862E+01  0.10202250471E+01 0.  0.
     999903    2    3    3    0    0  0.12040350880E+00 -0.53697816345E-01 -0.52659813608E-03  0.13338619764E+00  0.20276587610E-01 0.  0.
         14    1    1    2    0    0 -0.15018064368E-01  0.16394896388E-01 -0.74096210960E-02  0.23435813827E-01  0.00000000000E+00 0.  1.
     999901    1    3    3    0    0 -0.10538544443E+00  0.37302919957E-01  0.79362192320E-02  0.88710798853E+00  0.88000000000E+00 0. -1.
        -11    1    4    4    0    0  0.16201745094E-01 -0.26107457870E-02  0.51143041546E-02  0.17196795214E-01  0.51100000000E-03 0. -1.
         11    1    4    4    0    0  0.10420176371E+00 -0.51087070558E-01 -0.56409022907E-02  0.11618940243E+00  0.51100000000E-03 0.  1.
</event>
<event>
 8    1  0.1095698E+005  0.1043930E+01  0.7957747E-01            NaN
         13   -1    0    0    0    0  0.00000000000E+00  0.00000000000E+00  0.74505805969E-08  0.10566000000E+00  0.10566000000E+00 0. -1.
     999900   -1    0    0    0    0 -0.00000000000E+00 -0.00000000000E+00 -0.74505805969E-08  0.93827000000E+00  0.93827000000E+00 0. -1.
     999902    2    1    2    0    0 -0.19292799956E-01 -0.12933317470E-01  0.21062719897E-02  0.10206079244E+01  0.10203414213E+01 0.  0.
     999903    2    3    3    0    0 -0.56360943513E-01 -0.41648286643E-01  0.11084463392E+00  0.13267626703E+00  0.20132640894E-01 0.  0.
         14    1    1    2    0    0  0.19292799956E-01  0.12933317470E-01 -0.21062719897E-02  0.23322075650E-01  0.00000000000E+00 0.  1.
     999901    1    3    3    0    0  0.37068143556E-01  0.28714969173E-01 -0.10873836193E+00  0.88793165732E+00  0.88000000000E+00 0.  1.
        -11    1    4    4    0    0 -0.22730465558E-01 -0.29291986344E-01  0.56786853068E-01  0.67821105350E-01  0.51100000000E-03 0. -1.
         11    1    4    4    0    0 -0.33630477955E-01 -0.12356300299E-01  0.54057780852E-01  0.64855161677E-01  0.51100000000E-03 0.  1.
</event>
<event>
 8    1  0.1095698E+005  0.1043930E+01  0.7957747E-01            NaN
         13   -1    0    0    0    0  0.00000000000E+00  0.00000000000E+00  0.74505805969E-08  0.10566000000E+00  0.10566000000E+00 0.  1.
     999900   -1    0    0    0    0 -0.00000000000E+00 -0.00000000000E+00 -0.74505805969E-08  0.93827000000E+00  0.93827000000E+00 0. -1.
     999902    2    1    2    0    0  0.19969239954E-01 -0.20580217716E-02  0.12799498548E-01  0.10201217417E+01  0.10198438777E+01 0.  0.
     999903    2    3    3    0    0  0.93358795674E-01  0.36986295746E-01  0.85015790481E-01  0.13325891220E+00  0.21128233382E-01 0.  0.
         14    1    1    2    0    0 -0.19969239954E-01  0.20580217716E-02 -0.12799498548E-01  0.23808258252E-01  0.00000000000E+00 0.  1.
     999901    1    3    3    0    0 -0.73389555721E-01 -0.39044317517E-01 -0.72216291933E-01  0.88686282955E+00  0.88000000000E+00 0. -1.
        -11    1    4    4    0    0  0.47826853771E-01  0.20103622476E-01  0.57477743777E-01  0.77430715669E-01  0.51100000000E-03 0.  1.
         11    1    4    4    0    0  0.45531941904E-01  0.16882673270E-01  0.27538046704E-01  0.55828196527E-01  0.51100000000E-03 0. -1.
</event>
<event>
 8    1  0.1095698E+005  0.1043930E+01  0.7957747E-01            NaN
         13   -1    0    0    0    0  0.00000000000E+00  0.00000000000E+00  0.74505805969E-08  0.10566000000E+00  0.10566000000E+00 0. -1.
     999900   -1    0    0    0    0 -0.00000000000E+00 -0.00000000000E+00 -0.74505805969E-08  0.93827000000E+00  0.93827000000E+00 0. -1.
     999902    2    1    2    0    0  0.18024101737E-01 -0.15432045618E-01  0.11182627113E-02  0.10201756996E+01  0.10198991084E+01 0.  0.
     999903    2    3    3    0    0  0.35889093512E-01  0.12045207223E+00  0.22698507016E-01  0.12930569879E+00  0.20199326273E-01 0.  0.
         14    1    1    2    0    0 -0.18024101737E-01  0.15432045618E-01 -0.11182627113E-02  0.23754300387E-01  0.00000000000E+00 0. -1.
     999901    1    3    3    0    0 -0.17864991775E-01 -0.13588411785E+00 -0.21580244304E-01  0.89087000082E+00  0.88000000000E+00 0. -1.
        -11    1    4    4    0    0  0.58956509432E-02  0.15980890898E-01  0.10289841640E-01  0.19907022276E-01  0.51100000000E-03 0. -1.
         11    1    4    4    0    0  0.29993442569E-01  0.10447118133E+00  0.12408665375E-01  0.10939867652E+00  0.51100000000E-03 0.  1.
</event>
<event>
 8    1  0.1095698E+005  0.1043930E+01  0.7957747E-01            NaN
         13   -1    0    0    0    0  0.00000000000E+00  0.00000000000E+00  0.74505805969E-08  0.10566000000E+00  0.10566000000E+00 0.  1.
     999900   -1    0    0    0    0 -0.00000000000E+00 -0.00000000000E+00 -0.74505805969E-08  0.93827000000E+00  0.93827000000E+00 0.  1.
     999902    2    1    2    0    0  0.68214119736E-02 -0.44081576391E-02  0.24317720248E-01  0.10182918442E+01  0.10179690393E+01 0.  0.
     999903    2    3    3    0    0  0.68739959430E-01  0.69634718238E-01 -0.78371269976E-01  0.12707846755E+00  0.20801561279E-01 0.  0.
         14    1    1    2    0    0 -0.68214119736E-02  0.44081576391E-02 -0.24317720248E-01  0.25638155807E-01  0.00000000000E+00 0. -1.
     999901    1    3    3    0    0 -0.61918547457E-01 -0.74042875878E-01  0.10268899022E+00  0.89121337664E+00  0.88000000000E+00 0. -1.
        -11    1    4    4    0    0  0.68039451704E-01  0.65299893578E-01 -0.78429154021E-01  0.12265739444E+00  0.51100000000E-03 0.  1.
         11    1    4    4    0    0  0.70050772652E-03  0.43348246607E-02  0.57884045540E-04  0.44210731137E-02  0.51100000000E-03 0. -1.
</event>
<event>
 8    1  0.1095698E+005  0.1043930E+01  0.7957747E-01            NaN
         13   -1    0    0    0    0  0.00000000000E+00  0.00000000000E+00  0.74505805969E-08  0.10566000000E+00  0.10566000000E+00 0.  1.
     999900   -1    0    0    0    0 -0.00000000000E+00 -0.00000000000E+00 -0.74505805969E-08  0.93827000000E+00  0.93827000000E+00 0. -1.
     999902    2    1    2    0    0 -0.21275771108E-01 -0.22335013011E-02 -0.78433905326E-02  0.10211447912E+01  0.10208905519E+01 0.  0.
     999903    2    3    3    0    0 -0.22949081813E-01 -0.11126360929E+00  0.63431231590E-01  0.13155475295E+00  0.19413417421E-01 0.  0.
         14    1    1    2    0    0  0.21275771108E-01  0.22335013011E-02  0.78433905326E-02  0.22785208784E-01  0.00000000000E+00 0.  1.
     999901    1    3    3    0    0  0.16733107048E-02  0.10903010799E+00 -0.71274622123E-01  0.88959003826E+00  0.88000000000E+00 0. -1.
        -11    1    4    4    0    0  0.68345769203E-03 -0.32941031540E-01  0.23806414418E-01  0.40652000710E-01  0.51100000000E-03 0.  1.
         11    1    4    4    0    0 -0.23632539505E-01 -0.78322577748E-01  0.39624817172E-01  0.90902752243E-01  0.51100000000E-03 0. -1.
</event>
<event>
 8    1  0.1095698E+005  0.1043930E+01  0.7957747E-01            NaN
         13   -1    0    0    0    0  0.00000000000E+00  0.00000000000E+00  0.74505805969E-08  0.10566000000E+00  0.10566000000E+00 0.  1.
     999900   -1    0    0    0    0 -0.00000000000E+00 -0.00000000000E+00 -0.74505805969E-08  0.93827000000E+00  0.93827000000E+00 0. -1.
     999902    2    1    2    0    0 -0.62519939660E-02 -0.70432408987E-02  0.21566016963E-01  0.10203973045E+01  0.10201259095E+01 0.  0.
     999903    2    3    3    0    0  0.41624249638E-01 -0.12183818198E+00 -0.13520075991E-01  0.13095869102E+00  0.19755139907E-01 0.  0.
         14    1    1    2    0    0  0.62519939660E-02  0.70432408987E-02 -0.21566016963E-01  0.23532695522E-01  0.00000000000E+00 0. -1.
     999901    1    3    3    0    0 -0.47876243604E-01  0.11479494108E+00  0.35086092954E-01  0.88943861346E+00  0.88000000000E+00 0.  1.
        -11    1    4    4    0    0  0.14675364176E-01 -0.48641329082E-01 -0.14884898269E-01  0.52944938625E-01  0.51100000000E-03 0.  1.
         11    1    4    4    0    0  0.26948885463E-01 -0.73196852894E-01  0.13648222783E-02  0.78013752391E-01  0.51100000000E-03 0. -1.
</event>
<event>
 8    1  0.1095698E+005  0.1043930E+01  0.7957747E-01            NaN
         13   -1    0    0    0    0  0.00000000000E+00  0.00000000000E+00  0.74505805969E-08  0.10566000000E+00  0.10566000000E+00 0.  1.
     999900   -1    0    0    0    0 -0.00000000000E+00 -0.00000000000E+00 -0.74505805969E-08  0.93827000000E+00  0.93827000000E+00 0. -1.
     999902    2    1    2    0    0 -0.13252875992E-01 -0.19291776853E-01 -0.45929115576E-03  0.10205201234E+01  0.10202515865E+01 0.  0.
     999903    2    3    3    0    0  0.75214136068E-01  0.21162735469E-01 -0.10109163811E+00  0.12945904293E+00  0.20858975639E-01 0.  0.
         14    1    1    2    0    0  0.13252875992E-01  0.19291776853E-01  0.45929115576E-03  0.23409876646E-01  0.00000000000E+00 0.  1.
     999901    1    3    3    0    0 -0.88467012060E-01 -0.40454512322E-01  0.10063234695E+00  0.89106108042E+00  0.88000000000E+00 0.  1.
        -11    1    4    4    0    0  0.22460497130E-01  0.54097979041E-02 -0.15994597669E-01  0.28103880876E-01  0.51100000000E-03 0.  1.
         11    1    4    4    0    0  0.52753638938E-01  0.15752937565E-01 -0.85097040438E-01  0.10135516206E+00  0.51100000000E-03 0. -1.
</event>
<event>
 8    1  0.1095698E+005  0.1043930E+01  0.7957747E-01            NaN
         13   -1    0    0    0    0  0.00000000000E+00  0.00000000000E+00  0.74505805969E-08  0.10566000000E+00  0.10566000000E+00 0.  1.
     999900   -1    0    0    0    0 -0.00000000000E+00 -0.00000000000E+00 -0.74505805969E-08  0.93827000000E+00  0.93827000000E+00 0.  1.
     999902    2    1    2    0    0 -0.60789624797E-02 -0.22681721189E-01  0.11938626306E-02  0.10204174593E+01  0.10201465344E+01 0.  0.
     999903    2    3    3    0    0  0.96119052798E-01  0.34128463989E-01 -0.77823463862E-01  0.12917362661E+00  0.15023645346E-01 0.  0.
         14    1    1    2    0    0  0.60789624797E-02  0.22681721189E-01 -0.11938626306E-02  0.23512540673E-01  0.00000000000E+00 0. -1.
     999901    1    3    3    0    0 -0.10219801528E+00 -0.56810185178E-01  0.79017326492E-01  0.89124383272E+00  0.88000000000E+00 0. -1.
        -11    1    4    4    0    0  0.61364583243E-02  0.51641867601E-02 -0.99992669621E-02  0.12828538749E-01  0.51100000000E-03 0. -1.
         11    1    4    4    0    0  0.89982594474E-01  0.28964277229E-01 -0.67824196900E-01  0.11634508786E+00  0.51100000000E-03 0.  1.
</event>
<event>
 8    1  0.1095698E+005  0.1043930E+01  0.7957747E-01            NaN
         13   -1    0    0    0    0  0.00000000000E+00  0.00000000000E+00  0.74505805969E-08  0.10566000000E+00  0.10566000000E+00 0. -1.
     999900   -1    0    0    0    0 -0.00000000000E+00 -0.00000000000E+00 -0.74505805969E-08  0.93827000000E+00  0.93827000000E+00 0.  1.
     999902    2    1    2    0    0 -0.78525735830E-02 -0.76120901811E-02 -0.20782917598E-01  0.10204451859E+01  0.10201749070E+01 0.  0.
     999903    2    3    3    0    0  0.46751972171E-01  0.11436910972E+00  0.31011016957E-01  0.12884904348E+00  0.19348195562E-01 0.  0.
         14    1    1    2    0    0  0.78525735830E-02  0.76120901811E-02  0.20782917598E-01  0.23484814087E-01  0.00000000000E+00 0. -1.
     999901    1    3    3    0    0 -0.54604545754E-01 -0.12198119991E+00 -0.51793934555E-01  0.89159614243E+00  0.88000000000E+00 0.  1.
        -11    1    4    4    0    0  0.37293105588E-01  0.76510601535E-01  0.13931319304E-01  0.86249583478E-01  0.51100000000E-03 0.  1.
         11    1    4    4    0    0  0.94588665832E-02  0.37858508190E-01  0.17079697653E-01  0.42599460000E-01  0.51100000000E-03 0. -1.
</event>
<event>
 8    1  0.1095698E+005  0.1043930E+01  0.7957747E-01            NaN
         13   -1    0    0    0    0  0.00000000000E+00  0.00000000000E+00  0.74505805969E-08  0.10566000000E+00  0.10566000000E+00 0.  1.
     999900   -1    0    0    0    0 -0.00000000000E+00 -0.00000000000E+00 -0.74505805969E-08  0.93827000000E+00  0.93827000000E+00 0.  1.
     999902    2    1    2    0    0 -0.93424800807E-02 -0.23815758774E-02  0.21664516895E-01  0.10202170261E+01  0.10199414078E+01 0.  0.
     999903    2    3    3    0    0  0.28112077746E-01 -0.11534730385E+00 -0.47698825989E-01  0.12950081266E+00  0.19999826434E-01 0.  0.
         14    1    1    2    0    0  0.93424800807E-02  0.23815758774E-02 -0.21664516895E-01  0.23712973875E-01  0.00000000000E+00 0. -1.
     999901    1    3    3    0    0 -0.37454557826E-01  0.11296572797E+00  0.69363342884E-01  0.89071621347E+00  0.88000000000E+00 0. -1.
        -11    1    4    4    0    0  0.15342291751E-01 -0.50778881347E-01 -0.31572685635E-01  0.61733105432E-01  0.51100000000E-03 0.  1.
         11    1    4    4    0    0  0.12769785995E-01 -0.64568422502E-01 -0.16126140355E-01  0.67767707225E-01  0.51100000000E-03 0. -1.
</event>
<event>
 8    1  0.1095698E+005  0.1043930E+01  0.7957747E-01            NaN
         13   -1    0    0    0    0  0.00000000000E+00  0.00000000000E+00  0.74505805969E-08  0.10566000000E+00  0.10566000000E+00 0. -1.
     999900   -1    0    0    0    0 -0.00000000000E+00 -0.00000000000E+00 -0.74505805969E-08  0.93827000000E+00  0.93827000000E+00 0.  1.
     999902    2    1    2    0    0 -0.45468440720E-02  0.21968271948E-01 -0.93863415225E-03  0.10214764970E+01  0.10212296872E+01 0.  0.
     999903    2    3    3    0    0 -0.93698592253E-01 -0.76466608601E-01  0.44357449844E-01  0.13035967236E+00  0.19987305971E-01 0.  0.
         14    1    1    2    0    0  0.45468440720E-02 -0.21968271948E-01  0.93863415225E-03  0.22453503011E-01  0.00000000000E+00 0.  1.
     999901    1    3    3    0    0  0.89151748181E-01  0.98434880549E-01 -0.45296083996E-01  0.89111682463E+00  0.88000000000E+00 0.  1.
        -11    1    4    4    0    0 -0.24891456402E-01 -0.98227776496E-02  0.86136635746E-02  0.28116327707E-01  0.51100000000E-03 0. -1.
         11    1    4    4    0    0 -0.68807135851E-01 -0.66643830951E-01  0.35743786270E-01  0.10224334465E+00  0.51100000000E-03 0.  1.
</event>
<event>
 8    1  0.1095698E+005  0.1043930E+01  0.7957747E-01            NaN
         13   -1    0    0    0    0  0.00000000000E+00  0.00000000000E+00  0.74505805969E-08  0.10566000000E+00  0.10566000000E+00 0. -1.
     999900   -1    0    0    0    0 -0.00000000000E+00 -0.00000000000E+00 -0.74505805969E-08  0.93827000000E+00  0.93827000000E+00 0. -1.
     999902    2    1    2    0    0  0.22354501422E-01  0.40350688550E-02 -0.17104703688E-01  0.10154945221E+01  0.10150963245E+01 0.  0.
     999903    2    3    3    0    0 -0.16593796804E-01 -0.49285552138E-01  0.11039142915E+00  0.12385820474E+00  0.21217151322E-01 0.  0.
         14    1    1    2    0    0 -0.22354501422E-01 -0.40350688550E-02  0.17104703688E-01  0.28435477889E-01  0.00000000000E+00 0. -1.
     999901    1    3    3    0    0  0.38948298226E-01  0.53320620993E-01 -0.12749613284E+00  0.89163631737E+00  0.88000000000E+00 0. -1.
        -11    1    4    4    0    0 -0.13965563986E-01 -0.51066912608E-01  0.10445447847E+00  0.11710621561E+00  0.51100000000E-03 0.  1.
         11    1    4    4    0    0 -0.26282328183E-02  0.17813604708E-02  0.59369506800E-02  0.67519891329E-02  0.51100000000E-03 0. -1.
</event>
<event>
 8    1  0.1095698E+005  0.1043930E+01  0.7957747E-01            NaN
         13   -1    0    0    0    0  0.00000000000E+00  0.00000000000E+00  0.74505805969E-08  0.10566000000E+00  0.10566000000E+00 0.  1.
     999900   -1    0    0    0    0 -0.00000000000E+00 -0.00000000000E+00 -0.74505805969E-08  0.93827000000E+00  0.93827000000E+00 0. -1.
     999902    2    1    2    0    0  0.17022388422E-01  0.14912320143E-01 -0.22991524174E-02  0.10211830199E+01  0.10209296426E+01 0.  0.
     999903    2    3    3    0    0 -0.15942922276E-01  0.99999104749E-01 -0.83384654033E-01  0.13275669706E+00  0.20428958988E-01 0.  0.
         14    1    1    2    0    0 -0.17022388422E-01 -0.14912320143E-01  0.22991524174E-02  0.22746980052E-01  0.00000000000E+00 0.  1.
     999901    1    3    3    0    0  0.32965310698E-01 -0.85086784606E-01  0.81085501615E-01  0.88842632289E+00  0.88000000000E+00 0.  1.
        -11    1    4    4    0    0 -0.33542217023E-02  0.23761135848E-01 -0.31828695190E-01  0.39864386845E-01  0.51100000000E-03 0. -1.
         11    1    4    4    0    0 -0.12588700573E-01  0.76237968902E-01 -0.51555958843E-01  0.92892310218E-01  0.51100000000E-03 0.  1.
</event>
<event>
 8    1  0.1095698E+005  0.1043930E+01  0.7957747E-01            NaN
         13   -1    0    0    0    0  0.00000000000E+00  0.00000000000E+00  0.74505805969E-08  0.10566000000E+00  0.10566000000E+00 0.  1.
     999900   -1    0    0    0    0 -0.00000000000E+00 -0.00000000000E+00 -0.74505805969E-08  0.93827000000E+00  0.93827000000E+00 0. -1.
     999902    2    1    2    0    0  0.18194838955E-01  0.15078535183E-01 -0.25190374680E-02  0.10201653216E+01  0.10198884858E+01 0.  0.
     999903    2    3    3    0    0  0.64663280602E-01  0.43314696426E-01  0.10444509178E+00  0.13202235915E+00  0.21531914345E-01 0.  0.
         14    1    1    2    0    0 -0.18194838955E-01 -0.15078535183E-01  0.25190374680E-02  0.23764678361E-01  0.00000000000E+00 0.  1.
     999901    1    3    3    0    0 -0.46468441647E-01 -0.28236161243E-01 -0.10696412924E+00  0.88814296249E+00  0.88000000000E+00 0. -1.
        -11    1    4    4    0    0  0.33302531738E-01  0.34286623820E-01  0.56272308190E-01  0.73834036753E-01  0.51100000000E-03 0. -1.
         11    1    4    4    0    0  0.31360748863E-01  0.90280726057E-02  0.48172783585E-01  0.58188322399E-01  0.51100000000E-03 0.  1.
</event>
<event>
 8    1  0.1095698E+005  0.1043930E+01  0.7957747E-01            NaN
         13   -1    0    0    0    0  0.00000000000E+00  0.00000000000E+00  0.74505805969E-08  0.10566000000E+00  0.10566000000E+00 0.  1.
     999900   -1    0    0    0    0 -0.00000000000E+00 -0.00000000000E+00 -0.74505805969E-08  0.93827000000E+00  0.93827000000E+00 0.  1.
     999902    2    1    2    0    0  0.30410026732E-02 -0.10491051489E-02  0.23057539545E-01  0.10206491399E+01  0.10203835888E+01 0.  0.
     999903    2    3    3    0    0  0.94850342468E-02 -0.80128707161E-01  0.10432318394E+00  0.13335030973E+00  0.19707937786E-01 0.  0.
         14    1    1    2    0    0 -0.30410026732E-02  0.10491051489E-02 -0.23057539545E-01  0.23280860137E-01  0.00000000000E+00 0. -1.
     999901    1    3    3    0    0 -0.64440315736E-02  0.79079602012E-01 -0.81265644395E-01  0.88729883013E+00  0.88000000000E+00 0.  1.
        -11    1    4    4    0    0  0.56780739917E-02 -0.66467524493E-01  0.72590886486E-01  0.98589402363E-01  0.51100000000E-03 0. -1.
         11    1    4    4    0    0  0.38069602552E-02 -0.13661182668E-01  0.31732297453E-01  0.34760907366E-01  0.51100000000E-03 0.  1.
</event>
<event>
 8    1  0.1095698E+005  0.1043930E+01  0.7957747E-01            NaN
         13   -1    0    0    0    0  0.00000000000E+00  0.00000000000E+00  0.74505805969E-08  0.10566000000E+00  0.10566000000E+00 0.  1.
     999900   -1    0    0    0    0 -0.00000000000E+00 -0.00000000000E+00 -0.74505805969E-08  0.93827000000E+00  0.93827000000E+00 0. -1.
     999902    2    1    2    0    0  0.33819607824E-02 -0.14229624241E-03 -0.22904054355E-01  0.10207771684E+01  0.10205145633E+01 0.  0.
     999903    2    3    3    0    0 -0.63921785447E-01  0.63936498274E-01  0.89565770786E-01  0.12876520223E+00  0.19610699666E-01 0.  0.
         14    1    1    2    0    0 -0.33819607824E-02  0.14229624241E-03  0.22904054355E-01  0.23152831638E-01  0.00000000000E+00 0.  1.
     999901    1    3    3    0    0  0.67303746230E-01 -0.64078794517E-01 -0.11246982514E+00  0.89201196614E+00  0.88000000000E+00 0. -1.
        -11    1    4    4    0    0 -0.21979776206E-01  0.20249252317E-01  0.43006120857E-01  0.52372992406E-01  0.51100000000E-03 0.  1.
         11    1    4    4    0    0 -0.41942009241E-01  0.43687245958E-01  0.46559649929E-01  0.76392209819E-01  0.51100000000E-03 0. -1.
</event>
<event>
 8    1  0.1095698E+005  0.1043930E+01  0.7957747E-01            NaN
         13   -1    0    0    0    0  0.00000000000E+00  0.00000000000E+00  0.74505805969E-08  0.10566000000E+00  0.10566000000E+00 0.  1.
     999900   -1    0    0    0    0 -0.00000000000E+00 -0.00000000000E+00 -0.74505805969E-08  0.93827000000E+00  0.93827000000E+00 0.  1.
     999902    2    1    2    0    0  0.24819684812E-02 -0.14056888557E-01 -0.18868289271E-01  0.10202705701E+01  0.10199962096E+01 0.  0.
     999903    2    3    3    0    0  0.45000738561E-01  0.10387211640E+00  0.57268391214E-01  0.12813162905E+00  0.17987848471E-01 0.  0.
         14    1    1    2    0    0 -0.24819684812E-02  0.14056888557E-01  0.18868289271E-01  0.23659429905E-01  0.00000000000E+00 0.  1.
     999901    1    3    3    0    0 -0.42518770080E-01 -0.11792900496E+00 -0.76136680484E-01  0.89213894105E+00  0.88000000000E+00 0. -1.
        -11    1    4    4    0    0  0.70755973255E-02  0.53285510010E-02  0.63114021965E-02  0.10888179461E-01  0.51100000000E-03 0.  1.
         11    1    4    4    0    0  0.37925141236E-01  0.98543565403E-01  0.50956989017E-01  0.11724344959E+00  0.51100000000E-03 0. -1.
</event>
<event>
 8    1  0.1095698E+005  0.1043930E+01  0.7957747E-01            NaN
         13   -1    0    0    0    0  0.00000000000E+00  0.00000000000E+00  0.74505805969E-08  0.10566000000E+00  0.10566000000E+00 0.  1.
     999900   -1    0    0    0    0 -0.00000000000E+00 -0.00000000000E+00 -0.74505805969E-08  0.93827000000E+00  0.93827000000E+00 0.  1.
     999902    2    1    2    0    0  0.20523791073E-01  0.13561095337E-01 -0.54604135458E-02  0.10187318766E+01  0.10184201937E+01 0.  0.
     999903    2    3    3    0    0 -0.77498318786E-01 -0.80346847235E-01  0.55450620217E-01  0.12624255469E+00  0.20020141256E-01 0.  0.
         14    1    1    2    0    0 -0.20523791073E-01 -0.13561095337E-01  0.54604135458E-02  0.25198123399E-01  0.00000000000E+00 0.  1.
     999901    1    3    3    0    0  0.98022109859E-01  0.93907942571E-01 -0.60911033762E-01  0.89248932192E+00  0.88000000000E+00 0.  1.
        -11    1    4    4    0    0 -0.39774800904E-01 -0.31648937987E-01  0.16881210882E-01  0.53562360520E-01  0.51100000000E-03 0. -1.
         11    1    4    4    0    0 -0.37723517882E-01 -0.48697909248E-01  0.38569409335E-01  0.72680194165E-01  0.51100000000E-03 0.  1.
</event>
<event>
 8    1  0.1095698E+005  0.1043930E+01  0.7957747E-01            NaN
         13   -1    0    0    0    0  0.00000000000E+00  0.00000000000E+00  0.74505805969E-08  0.10566000000E+00  0.10566000000E+00 0.  1.
     999900   -1    0    0    0    0 -0.00000000000E+00 -0.00000000000E+00 -0.74505805969E-08  0.93827000000E+00  0.93827000000E+00 0. -1.
     999902    2    1    2    0    0 -0.11440840618E-01  0.85499333983E-02  0.16104582155E-01  0.10224043929E+01  0.10221777687E+01 0.  0.
     999903    2    3    3    0    0  0.12745980570E+00 -0.46804856227E-02  0.25187475257E-01  0.13136514994E+00  0.18827763902E-01 0.  0.
         14    1    1    2    0    0  0.11440840618E-01 -0.85499333983E-02 -0.16104582155E-01  0.21525607112E-01  0.00000000000E+00 0.  1.
     999901    1    3    3    0    0 -0.13890064632E+00  0.13230419021E-01 -0.90828931019E-02  0.89103924295E+00  0.88000000000E+00 0.  1.
        -11    1    4    4    0    0  0.42333881207E-01 -0.22317295091E-02 -0.54668933491E-03  0.42399270099E-01  0.51100000000E-03 0. -1.
         11    1    4    4    0    0  0.85125924490E-01 -0.24487561135E-02  0.25734164592E-01  0.88965879836E-01  0.51100000000E-03 0.  1.
</event>
<event>
 8    1  0.1095698E+005  0.1043930E+01  0.7957747E-01            NaN
         13   -1    0    0    0    0  0.00000000000E+00  0.00000000000E+00  0.74505805969E-08  0.10566000000E+00  0.10566000000E+00 0.  1.
     999900   -1    0    0    0    0 -0.00000000000E+00 -0.00000000000E+00 -0.74505805969E-08  0.93827000000E+00  0.93827000000E+00 0.  1.
     999902    2    1    2    0    0  0.22943755535E-01 -0.33452097372E-02 -0.37887234774E-02  0.10204361546E+01  0.10201656654E+01 0.  0.
     999903    2    3    3    0    0  0.12132572753E+00  0.15887644501E-02  0.51708524809E-01  0.13320264470E+00  0.18620329826E-01 0.  0.
         14    1    1    2    0    0 -0.22943755535E-01  0.33452097372E-02  0.37887234774E-02  0.23493845403E-01  0.00000000000E+00 0.  1.
     999901    1    3    3    0    0 -0.98381972000E-01 -0.49339741873E-02 -0.55497248286E-01  0.88723350990E+00  0.88000000000E+00 0. -1.
        -11    1    4    4    0    0  0.83870147130E-01  0.85829407101E-02  0.30966355662E-01  0.89816728702E-01  0.51100000000E-03 0. -1.
         11    1    4    4    0    0  0.37455580405E-01 -0.69941762600E-02  0.20742169147E-01  0.43385915998E-01  0.51100000000E-03 0.  1.
</event>
<event>
 8    1  0.1095698E+005  0.1043930E+01  0.7957747E-01            NaN
         13   -1    0    0    0    0  0.00000000000E+00  0.00000000000E+00  0.74505805969E-08  0.10566000000E+00  0.10566000000E+00 0.  1.
     999900   -1    0    0    0    0 -0.00000000000E+00 -0.00000000000E+00 -0.74505805969E-08  0.93827000000E+00  0.93827000000E+00 0.  1.
     999902    2    1    2    0    0  0.23883822448E-01  0.12210919392E-02 -0.27627092871E-02  0.10198559351E+01  0.10195717570E+01 0.  0.
     999903    2    3    3    0    0 -0.46212969511E-01 -0.13935178413E-01  0.11758667659E+00  0.12877386956E+00  0.20645949237E-01 0.  0.
         14    1    1    2    0    0 -0.23883822448E-01 -0.12210919392E-02  0.27627092871E-02  0.24074064943E-01  0.00000000000E+00 0.  1.
     999901    1    3    3    0    0  0.70096791959E-01  0.15156270353E-01 -0.12034938588E+00  0.89108206550E+00  0.88000000000E+00 0.  1.
        -11    1    4    4    0    0 -0.19345204964E-01  0.11362738579E-02  0.28151627522E-01  0.34180452403E-01  0.51100000000E-03 0.  1.
         11    1    4    4    0    0 -0.26867764548E-01 -0.15071452271E-01  0.89435049072E-01  0.94593417154E-01  0.51100000000E-03 0. -1.
</event>
<event>
 8    1  0.1095698E+005  0.1043930E+01  0.7957747E-01            NaN
         13   -1    0    0    0    0  0.00000000000E+00  0.00000000000E+00  0.74505805969E-08  0.10566000000E+00  0.10566000000E+00 0. -1.
     999900   -1    0    0    0    0 -0.00000000000E+00 -0.00000000000E+00 -0.74505805969E-08  0.93827000000E+00  0.93827000000E+00 0. -1.
     999902    2    1    2    0    0  0.33810268706E-03 -0.18732511518E-01 -0.96507430246E-02  0.10228549403E+01  0.10226378004E+01 0.  0.
     999903    2    3    3    0    0 -0.12926549556E+00 -0.77370202481E-02 -0.95107330765E-02  0.13329436724E+00  0.30124814843E-01 0.  0.
         14    1    1    2    0    0 -0.33810268706E-03  0.18732511518E-01  0.96507430246E-02  0.21075059718E-01  0.00000000000E+00 0. -1.
     999901    1    3    3    0    0  0.12960359825E+00 -0.10995491269E-01 -0.14000994813E-03  0.88956057304E+00  0.88000000000E+00 0. -1.
        -11    1    4    4    0    0 -0.26588294940E-01 -0.84164721105E-02 -0.12509262696E-01  0.30569874138E-01  0.51100000000E-03 0.  1.
         11    1    4    4    0    0 -0.10267720062E+00  0.67945186243E-03  0.29985296198E-02  0.10272449310E+00  0.51100000000E-03 0. -1.
</event>
<event>
 8    1  0.1095698E+005  0.1043930E+01  0.7957747E-01            NaN
         13   -1    0    0    0    0  0.00000000000E+00  0.00000000000E+00  0.74505805969E-08  0.10566000000E+00  0.10566000000E+00 0.  1.
     999900   -1    0    0    0    0 -0.00000000000E+00 -0.00000000000E+00 -0.74505805969E-08  0.93827000000E+00  0.93827000000E+00 0. -1.
     999902    2    1    2    0    0 -0.23186868102E-01 -0.33570752835E-02 -0.14298427886E-02  0.10204577769E+01  0.10201877911E+01 0.  0.
     999903    2    3    3    0    0 -0.13062783556E+00 -0.17793316972E-01 -0.25864545932E-03  0.13380489202E+00  0.22879000822E-01 0.  0.
         14    1    1    2    0    0  0.23186868102E-01  0.33570752835E-02  0.14298427886E-02  0.23472223100E-01  0.00000000000E+00 0.  1.
     999901    1    3    3    0    0  0.10744096746E+00  0.14436241688E-01 -0.11711973292E-02  0.88665288488E+00  0.88000000000E+00 0. -1.
        -11    1    4    4    0    0 -0.68837939459E-01 -0.46494445260E-03  0.71096029788E-02  0.69207554918E-01  0.51100000000E-03 0.  1.
         11    1    4    4    0    0 -0.61789896103E-01 -0.17328372519E-01 -0.73682484382E-02  0.64597337102E-01  0.51100000000E-03 0. -1.
</event>
<event>
 8    1  0.1095698E+005  0.1043930E+01  0.7957747E-01            NaN
         13   -1    0    0    0    0  0.00000000000E+00  0.00000000000E+00  0.74505805969E-08  0.10566000000E+00  0.10566000000E+00 0. -1.
     999900   -1    0    0    0    0 -0.00000000000E+00 -0.00000000000E+00 -0.74505805969E-08  0.93827000000E+00  0.93827000000E+00 0. -1.
     999902    2    1    2    0    0 -0.24170405120E-01 -0.73848538110E-02 -0.79516607278E-02  0.10174352183E+01  0.10170901877E+01 0.  0.
     999903    2    3    3    0    0  0.58676463692E-01 -0.11080365356E-01  0.10906003294E+00  0.12582487911E+00  0.19290088951E-01 0.  0.
         14    1    1    2    0    0  0.24170405120E-01  0.73848538110E-02  0.79516607278E-02  0.26494781709E-01  0.00000000000E+00 0. -1.
     999901    1    3    3    0    0 -0.82846868812E-01  0.36955115454E-02 -0.11701169366E+00  0.89161033918E+00  0.88000000000E+00 0. -1.
        -11    1    4    4    0    0  0.49800923464E-01 -0.41335755123E-02  0.76605927691E-01  0.91465554733E-01  0.51100000000E-03 0.  1.
         11    1    4    4    0    0  0.88755402285E-02 -0.69467898441E-02  0.32454105245E-01  0.34359324378E-01  0.51100000000E-03 0. -1.
</event>
<event>
 8    1  0.1095698E+005  0.1043930E+01  0.7957747E-01            NaN
         13   -1    0    0    0    0  0.00000000000E+00  0.00000000000E+00  0.74505805969E-08  0.10566000000E+00  0.10566000000E+00 0.  1.
     999900   -1    0    0    0    0 -0.00000000000E+00 -0.00000000000E+00 -0.74505805969E-08  0.93827000000E+00  0.93827000000E+00 0.  1.
     999902    2    1    2    0    0 -0.60475036280E-02  0.84900466288E-02  0.20611504981E-01  0.10208326554E+01  0.10205713218E+01 0.  0.
     999903    2    3    3    0    0 -0.12071441775E+00  0.45154011545E-01  0.23958775121E-01  0.13263000296E+00  0.20145455265E-01 0.  0.
         14    1    1    2    0    0  0.60475036280E-02 -0.84900466288E-02 -0.20611504981E-01  0.23097344641E-01  0.00000000000E+00 0. -1.
     999901    1    3    3    0    0  0.11466691412E+00 -0.36663964916E-01 -0.33472701403E-02  0.88820265240E+00  0.88000000000E+00 0.  1.
        -11    1    4    4    0    0 -0.91391932110E-01  0.27542319834E-01  0.11151818047E-01  0.96102491140E-01  0.51100000000E-03 0.  1.
         11    1    4    4    0    0 -0.29322485639E-01  0.17611691710E-01  0.12806957075E-01  0.36527511816E-01  0.51100000000E-03 0. -1.
</event>
<event>
 8    1  0.1095698E+005  0.1043930E+01  0.7957747E-01            NaN
         13   -1    0    0    0    0  0.00000000000E+00  0.00000000000E+00  0.74505805969E-08  0.10566000000E+00  0.10566000000E+00 0. -1.
     999900   -1    0    0    0    0 -0.00000000000E+00 -0.00000000000E+00 -0.74505805969E-08  0.93827000000E+00  0.93827000000E+00 0. -1.
     999902    2    1    2    0    0  0.73138472358E-02 -0.17654324761E-01  0.11370984358E-01  0.10216933899E+01  0.10214513773E+01 0.  0.
     999903    2    3    3    0    0 -0.76929685251E-02  0.71550321745E-01  0.10861516113E+00  0.13172760212E+00  0.19397876828E-01 0.  0.
         14    1    1    2    0    0 -0.73138472358E-02  0.17654324761E-01 -0.11370984358E-01  0.22236610116E-01  0.00000000000E+00 0. -1.
     999901    1    3    3    0    0  0.15006815761E-01 -0.89204646506E-01 -0.97244176774E-01  0.88996578777E+00  0.88000000000E+00 0.  1.
        -11    1    4    4    0    0 -0.13350184676E-01  0.52372832676E-01  0.85597917269E-01  0.10123440915E+00  0.51100000000E-03 0. -1.
         11    1    4    4    0    0  0.56572161505E-02  0.19177489069E-01  0.23017243864E-01  0.30493192972E-01  0.51100000000E-03 0.  1.
</event>
<event>
 8    1  0.1095698E+005  0.1043930E+01  0.7957747E-01            NaN
         13   -1    0    0    0    0  0.00000000000E+00  0.00000000000E+00  0.74505805969E-08  0.10566000000E+00  0.10566000000E+00 0. -1.
     999900   -1    0    0    0    0 -0.00000000000E+00 -0.00000000000E+00 -0.74505805969E-08  0.93827000000E+00  0.93827000000E+00 0.  1.
     999902    2    1    2    0    0 -0.23755084551E-01 -0.37737831396E-02 -0.33542353630E-02  0.10196442763E+01  0.10193550185E+01 0.  0.
     999903    2    3    3    0    0  0.93116019136E-01 -0.30565743438E-01  0.79858071847E-01  0.12762356348E+00  0.17481550969E-01 0.  0.
         14    1    1    2    0    0  0.23755084551E-01  0.37737831396E-02  0.33542353630E-02  0.24285723709E-01  0.00000000000E+00 0.  1.
     999901    1    3    3    0    0 -0.11687110369E+00  0.26791960298E-01 -0.83212307210E-01  0.89202071281E+00  0.88000000000E+00 0.  1.
        -11    1    4    4    0    0  0.36740726556E-01 -0.13103630667E-01  0.21142886162E-01  0.44371937987E-01  0.51100000000E-03 0.  1.
         11    1    4    4    0    0  0.56375292580E-01 -0.17462112771E-01  0.58715185685E-01  0.83251625492E-01  0.51100000000E-03 0. -1.
</event>
<event>
 8    1  0.1095698E+005  0.1043930E+01  0.7957747E-01            NaN
         13   -1    0    0    0    0  0.00000000000E+00  0.00000000000E+00  0.74505805969E-08  0.10566000000E+00  0.10566000000E+00 0. -1.
     999900   -1    0    0    0    0 -0.00000000000E+00 -0.00000000000E+00 -0.74505805969E-08  0.93827000000E+00  0.93827000000E+00 0. -1.
     999902    2    1    2    0    0 -0.17955167658E-01  0.36106087364E-02 -0.15121738993E-01  0.10201793888E+01  0.10199028845E+01 0.  0.
     999903    2    3    3    0    0 -0.82292938753E-01 -0.72303752988E-01  0.66510654775E-01  0.13081659063E+00  0.26255527417E-01 0.  0.
         14    1    1    2    0    0  0.17955167658E-01 -0.36106087364E-02  0.15121738993E-01  0.23750611176E-01  0.00000000000E+00 0. -1.
     999901    1    3    3    0    0  0.64337771095E-01  0.75914361724E-01 -0.81632393767E-01  0.88936279820E+00  0.88000000000E+00 0. -1.
        -11    1    4    4    0    0 -0.71775202630E-01 -0.59284845355E-01  0.65903847823E-01  0.11406117166E+00  0.51100000000E-03 0. -1.
         11    1    4    4    0    0 -0.10517736123E-01 -0.13018907633E-01  0.60680695147E-03  0.16755418968E-01  0.51100000000E-03 0.  1.
</event>
<event>
 8    1  0.1095698E+005  0.1043930E+01  0.7957747E-01            NaN
         13   -1    0    0    0    0  0.00000000000E+00  0.00000000000E+00  0.74505805969E-08  0.10566000000E+00  0.10566000000E+00 0.  1.
     999900   -1    0    0    0    0 -0.00000000000E+00 -0.00000000000E+00 -0.74505805969E-08  0.93827000000E+00  0.93827000000E+00 0.  1.
     999902    2    1    2    0    0 -0.13337612031E-02 -0.22616030130E-01 -0.72537562658E-02  0.10201417525E+01  0.10198643609E+01 0.  0.
     999903    2    3    3    0    0 -0.80747739113E-01 -0.79875274596E-01 -0.66199228830E-01  0.13275245256E+00  0.18455863543E-01 0.  0.
         14    1    1    2    0    0  0.13337612031E-02  0.22616030130E-01  0.72537562658E-02  0.23788247471E-01  0.00000000000E+00 0.  1.
     999901    1    3    3    0    0  0.79413977910E-01  0.57259244467E-01  0.58945472564E-01  0.88738929997E+00  0.88000000000E+00 0. -1.
        -11    1    4    4    0    0 -0.36993714547E-01 -0.47572970591E-01 -0.29162580709E-01  0.66951024499E-01  0.51100000000E-03 0. -1.
         11    1    4    4    0    0 -0.43754024566E-01 -0.32302304006E-01 -0.37036648121E-01  0.65801428061E-01  0.51100000000E-03 0.  1.
</event>
<event>
 8    1  0.1095698E+005  0.1043930E+01  0.7957747E-01            NaN
         13   -1    0    0    0    0  0.00000000000E+00  0.00000000000E+00  0.74505805969E-08  0.10566000000E+00  0.10566000000E+00 0.  1.
     999900   -1    0    0    0    0 -0.00000000000E+00 -0.00000000000E+00 -0.74505805969E-08  0.93827000000E+00  0.93827000000E+00 0.  1.
     999902    2    1    2    0    0 -0.11136615856E-01 -0.20331259468E-01  0.32210002516E-02  0.10205257447E+01  0.10202573383E+01 0.  0.
     999903    2    3    3    0    0 -0.69993624135E-01 -0.55776512023E-02 -0.10895947292E+00  0.13133157301E+00  0.21109185615E-01 0.  0.
         14    1    1    2    0    0  0.11136615856E-01  0.20331259468E-01 -0.32210002516E-02  0.23404255316E-01  0.00000000000E+00 0. -1.
     999901    1    3    3    0    0  0.58857008280E-01 -0.14753608266E-01  0.11218047317E+00  0.88919417168E+00  0.88000000000E+00 0. -1.
        -11    1    4    4    0    0 -0.27818024989E-01 -0.11505975059E-01 -0.53669150582E-01  0.61537539937E-01  0.51100000000E-03 0. -1.
         11    1    4    4    0    0 -0.42175599147E-01  0.59283238562E-02 -0.55290322338E-01  0.69794033071E-01  0.51100000000E-03 0.  1.
</event>
<event>
 8    1  0.1095698E+005  0.1043930E+01  0.7957747E-01            NaN
         13   -1    0    0    0    0  0.00000000000E+00  0.00000000000E+00  0.74505805969E-08  0.10566000000E+00  0.10566000000E+00 0. -1.
     999900   -1    0    0    0    0 -0.00000000000E+00 -0.00000000000E+00 -0.74505805969E-08  0.93827000000E+00  0.93827000000E+00 0.  1.
     999902    2    1    2    0    0 -0.20461968577E-01  0.94878026194E-02 -0.55668413813E-02  0.10206985498E+01  0.10204341376E+01 0.  0.
     999903    2    3    3    0    0 -0.89553322439E-01  0.89022886837E-01 -0.36978789728E-01  0.13385800306E+00  0.24610204235E-01 0.  0.
         14    1    1    2    0    0  0.20461968577E-01 -0.94878026194E-02  0.55668413813E-02  0.23231450225E-01  0.00000000000E+00 0. -1.
     999901    1    3    3    0    0  0.69091353862E-01 -0.79535084218E-01  0.31411948347E-01  0.88684054672E+00  0.88000000000E+00 0. -1.
        -11    1    4    4    0    0 -0.29501807509E-01  0.16284664723E-01 -0.40223937033E-02  0.33940944647E-01  0.51100000000E-03 0.  1.
         11    1    4    4    0    0 -0.60051514930E-01  0.72738222114E-01 -0.32956396025E-01  0.99917058412E-01  0.51100000000E-03 0. -1.
</event>
<event>
 8    1  0.1095698E+005  0.1043930E+01  0.7957747E-01            NaN
         13   -1    0    0    0    0  0.00000000000E+00  0.00000000000E+00  0.74505805969E-08  0.10566000000E+00  0.10566000000E+00 0. -1.
     999900   -1    0    0    0    0 -0.00000000000E+00 -0.00000000000E+00 -0.74505805969E-08  0.93827000000E+00  0.93827000000E+00 0. -1.
     999902    2    1    2    0    0 -0.15010355374E-01  0.16808291686E-01 -0.99267549391E-02  0.10193054208E+01  0.10190079347E+01 0.  0.
     999903    2    3    3    0    0  0.83048354379E-01  0.65345500675E-01  0.71090996878E-01  0.12883630435E+00  0.19437074314E-01 0.  0.
         14    1    1    2    0    0  0.15010355374E-01 -0.16808291686E-01  0.99267549391E-02  0.24624579214E-01  0.00000000000E+00 0. -1.
     999901    1    3    3    0    0 -0.98058709754E-01 -0.48537208989E-01 -0.81017751818E-01  0.89046911644E+00  0.88000000000E+00 0. -1.
        -11    1    4    4    0    0  0.54725135991E-01  0.54121799412E-01  0.50242281513E-01  0.91916035889E-01  0.51100000000E-03 0.  1.
         11    1    4    4    0    0  0.28323218388E-01  0.11223701263E-01  0.20848715365E-01  0.36920268462E-01  0.51100000000E-03 0. -1.
</event>
<event>
 8    1  0.1095698E+005  0.1043930E+01  0.7957747E-01            NaN
         13   -1    0    0    0    0  0.00000000000E+00  0.00000000000E+00  0.74505805969E-08  0.10566000000E+00  0.10566000000E+00 0.  1.
     999900   -1    0    0    0    0 -0.00000000000E+00 -0.00000000000E+00 -0.74505805969E-08  0.93827000000E+00  0.93827000000E+00 0. -1.
     999902    2    1    2    0    0 -0.12042890727E-01 -0.37294465349E-02 -0.20436435246E-01  0.10199177557E+01  0.10196350527E+01 0.  0.
     999903    2    3    3    0    0 -0.78004604913E-01  0.87824746480E-01  0.51774458892E-01  0.12977870412E+00  0.19079123875E-01 0.  0.
         14    1    1    2    0    0  0.12042890727E-01  0.37294465349E-02  0.20436435246E-01  0.24012244253E-01  0.00000000000E+00 0.  1.
     999901    1    3    3    0    0  0.65961714186E-01 -0.91554193015E-01 -0.72210894138E-01  0.89013905163E+00  0.88000000000E+00 0. -1.
        -11    1    4    4    0    0 -0.39476917673E-01  0.57701828271E-01  0.33960154846E-01  0.77726966061E-01  0.51100000000E-03 0.  1.
         11    1    4    4    0    0 -0.38527687240E-01  0.30122918209E-01  0.17814304046E-01  0.52051738060E-01  0.51100000000E-03 0. -1.
</event>
<event>
 8    1  0.1095698E+005  0.1043930E+01  0.7957747E-01            NaN
         13   -1    0    0    0    0  0.00000000000E+00  0.00000000000E+00  0.74505805969E-08  0.10566000000E+00  0.10566000000E+00 0. -1.
     999900   -1    0    0    0    0 -0.00000000000E+00 -0.00000000000E+00 -0.74505805969E-08  0.93827000000E+00  0.93827000000E+00 0.  1.
     999902    2    1    2    0    0 -0.19459559570E-01 -0.98272352377E-02  0.85946704060E-02  0.10204967465E+01  0.10202276669E+01 0.  0.
     999903    2    3    3    0    0  0.84941370022E-01 -0.89387087185E-01 -0.34908575160E-01  0.12969830883E+00  0.19948809433E-01 0.  0.
         14    1    1    2    0    0  0.19459559570E-01  0.98272352377E-02 -0.85946704060E-02  0.23433253519E-01  0.00000000000E+00 0.  1.
     999901    1    3    3    0    0 -0.10440092959E+00  0.79559851947E-01  0.43503245566E-01  0.89079843765E+00  0.88000000000E+00 0.  1.
        -11    1    4    4    0    0  0.17440221730E-01 -0.95646114471E-02 -0.98331898314E-02  0.22194500882E-01  0.51100000000E-03 0. -1.
         11    1    4    4    0    0  0.67501148292E-01 -0.79822475738E-01 -0.25075385329E-01  0.10750380795E+00  0.51100000000E-03 0.  1.
</event>
<event>
 8    1  0.1095698E+005  0.1043930E+01  0.7957747E-01            NaN
         13   -1    0    0    0    0  0.00000000000E+00  0.00000000000E+00  0.74505805969E-08  0.10566000000E+00  0.10566000000E+00 0.  1.
     999900   -1    0    0    0    0 -0.00000000000E+00 -0.00000000000E+00 -0.74505805969E-08  0.93827000000E+00  0.93827000000E+00 0. -1.
     999902    2    1    2    0    0 -0.10586819662E-02  0.74041766728E-02 -0.22272420673E-01  0.10204352482E+01  0.10201647379E+01 0.  0.
     999903    2    3    3    0    0 -0.14040433604E-01 -0.67203055119E-01  0.10460133370E+00  0.12811707935E+00  0.27552905766E-01 0.  0.
         14    1    1    2    0    0  0.10586819662E-02 -0.74041766728E-02  0.22272420673E-01  0.23494751804E-01  0.00000000000E+00 0.  1.
     999901    1    3    3    0    0  0.12981751637E-01  0.74607231792E-01 -0.12687375437E+00  0.89231816885E+00  0.88000000000E+00 0. -1.
        -11    1    4    4    0    0  0.46299149137E-02 -0.14811908958E-01  0.39783399883E-01  0.42706074349E-01  0.51100000000E-03 0.  1.
         11    1    4    4    0    0 -0.18670348517E-01 -0.52391146161E-01  0.64817933814E-01  0.85411004997E-01  0.51100000000E-03 0. -1.
</event>
<event>
 8    1  0.1095698E+005  0.1043930E+01  0.7957747E-01            NaN
         13   -1    0    0    0    0  0.00000000000E+00  0.00000000000E+00  0.74505805969E-08  0.10566000000E+00  0.10566000000E+00 0. -1.
     999900   -1    0    0    0    0 -0.00000000000E+00 -0.00000000000E+00 -0.74505805969E-08  0.93827000000E+00  0.93827000000E+00 0.  1.
     999902    2    1    2    0    0 -0.19874491562E-02 -0.22831951244E-01  0.43566190831E-02  0.10206013035E+01  0.10203346473E+01 0.  0.
     999903    2    3    3    0    0 -0.55134485911E-02 -0.56333566807E-01  0.11830476118E+00  0.13261539705E+00  0.19671251913E-01 0.  0.
         14    1    1    2    0    0  0.19874491562E-02  0.22831951244E-01 -0.43566190831E-02  0.23328696526E-01  0.00000000000E+00 0.  1.
     999901    1    3    3    0    0  0.35259994349E-02  0.33501615563E-01 -0.11394814210E+00  0.88798590642E+00  0.88000000000E+00 0.  1.
        -11    1    4    4    0    0  0.42263968914E-02 -0.43066709152E-01  0.80935975174E-01  0.91779611386E-01  0.51100000000E-03 0.  1.
         11    1    4    4    0    0 -0.97398454825E-02 -0.13266857656E-01  0.37368786009E-01  0.40835785665E-01  0.51100000000E-03 0. -1.
</event>
<event>
 8    1  0.1095698E+005  0.1043930E+01  0.7957747E-01            NaN
         13   -1    0    0    0    0  0.00000000000E+00  0.00000000000E+00  0.74505805969E-08  0.10566000000E+00  0.10566000000E+00 0. -1.
     999900   -1    0    0    0    0 -0.00000000000E+00 -0.00000000000E+00 -0.74505805969E-08  0.93827000000E+00  0.93827000000E+00 0. -1.
     999902    2    1    2    0    0  0.10651647457E-01  0.47631134709E-02 -0.20233970061E-01  0.10205728086E+01  0.10203054932E+01 0.  0.
     999903    2    3    3    0    0  0.12810711368E+00 -0.12237939956E-01 -0.24811123574E-01  0.13259433329E+00  0.20111330577E-01 0.  0.
         14    1    1    2    0    0 -0.10651647457E-01 -0.47631134709E-02  0.20233970061E-01  0.23357191353E-01  0.00000000000E+00 0. -1.
     999901    1    3    3    0    0 -0.11745546622E+00  0.17001053427E-01  0.45771535134E-02  0.88797847536E+00  0.88000000000E+00 0. -1.
        -11    1    4    4    0    0  0.29112393751E-01 -0.94788084041E-02 -0.52464370124E-03  0.30625408580E-01  0.51100000000E-03 0. -1.
         11    1    4    4    0    0  0.98994719929E-01 -0.27591315521E-02 -0.24286479873E-01  0.10196892471E+00  0.51100000000E-03 0.  1.
</event>
<event>
 8    1  0.1095698E+005  0.1043930E+01  0.7957747E-01            NaN
         13   -1    0    0    0    0  0.00000000000E+00  0.00000000000E+00  0.74505805969E-08  0.10566000000E+00  0.10566000000E+00 0. -1.
     999900   -1    0    0    0    0 -0.00000000000E+00 -0.00000000000E+00 -0.74505805969E-08  0.93827000000E+00  0.93827000000E+00 0.  1.
     999902    2    1    2    0    0 -0.19326748011E-01  0.63991767050E-02  0.11010913905E-01  0.10207845280E+01  0.10205220917E+01 0.  0.
     999903    2    3    3    0    0 -0.97255872650E-01 -0.68315304445E-01 -0.53309237283E-01  0.13185692460E+00  0.20461871824E-01 0.  0.
         14    1    1    2    0    0  0.19326748011E-01 -0.63991767050E-02 -0.11010913905E-01  0.23145472045E-01  0.00000000000E+00 0.  1.
     999901    1    3    3    0    0  0.77929124639E-01  0.74714481150E-01  0.64320151187E-01  0.88892760336E+00  0.88000000000E+00 0. -1.
        -11    1    4    4    0    0 -0.54052399535E-01 -0.25530828771E-01 -0.25434191360E-01  0.64966486163E-01  0.51100000000E-03 0. -1.
         11    1    4    4    0    0 -0.43203473115E-01 -0.42784475674E-01 -0.27875045923E-01  0.66890438435E-01  0.51100000000E-03 0.  1.
</event>
<event>
 6    1  0.1095698E+005  0.1043930E+01  0.7957747E-01            NaN
         13   -1    0    0    0    0  0.00000000000E+00  0.00000000000E+00  0.74505805969E-08  0.10566000000E+00  0.10566000000E+00 0. -1.
     999900   -1    0    0    0    0 -0.00000000000E+00 -0.00000000000E+00 -0.74505805969E-08  0.93827000000E+00  0.93827000000E+00 0.  1.
         14    1    1    2    0    0  0.14323232756E-01 -0.20131009425E-01 -0.47443399023E-01  0.53491014647E-01  0.00000000000E+00 0.  1.
     999901    1    1    2    0    0  0.78930576486E-01 -0.20309984047E-01  0.69120954503E-01  0.88646502340E+00  0.88000000000E+00 0. -1.
        -11    1    1    2    0    0 -0.42156273722E-01  0.17889851662E-01 -0.11145908996E-01  0.47134813195E-01  0.51100000000E-03 0. -1.
         11    1    1    2    0    0 -0.51097535520E-01  0.22551141810E-01 -0.10531646484E-01  0.56839148760E-01  0.51100000000E-03 0.  1.
</event>
<event>
 8    1  0.1095698E+005  0.1043930E+01  0.7957747E-01            NaN
         13   -1    0    0    0    0  0.00000000000E+00  0.00000000000E+00  0.74505805969E-08  0.10566000000E+00  0.10566000000E+00 0.  1.
     999900   -1    0    0    0    0 -0.00000000000E+00 -0.00000000000E+00 -0.74505805969E-08  0.93827000000E+00  0.93827000000E+00 0. -1.
     999902    2    1    2    0    0  0.75122164970E-02 -0.22794870910E-01  0.97306646153E-02  0.10180316338E+01  0.10177021579E+01 0.  0.
     999903    2    3    3    0    0 -0.35703128352E-01  0.95766840113E-01 -0.70051414923E-01  0.12545691675E+00  0.19652892629E-01 0.  0.
         14    1    1    2    0    0 -0.75122164970E-02  0.22794870910E-01 -0.97306646153E-02  0.25898366171E-01  0.00000000000E+00 0.  1.
     999901    1    3    3    0    0  0.43215344849E-01 -0.11856171102E+00  0.79782079538E-01  0.89257471708E+00  0.88000000000E+00 0. -1.
        -11    1    4    4    0    0 -0.12582942372E-01  0.13573068764E-01 -0.15366435555E-01  0.24061319521E-01  0.51100000000E-03 0.  1.
         11    1    4    4    0    0 -0.23120185980E-01  0.82193771348E-01 -0.54684979368E-01  0.10139559723E+00  0.51100000000E-03 0. -1.
</event>
<event>
 8    1  0.1095698E+005  0.1043930E+01  0.7957747E-01            NaN
         13   -1    0    0    0    0  0.00000000000E+00  0.00000000000E+00  0.74505805969E-08  0.10566000000E+00  0.10566000000E+00 0. -1.
     999900   -1    0    0    0    0 -0.00000000000E+00 -0.00000000000E+00 -0.74505805969E-08  0.93827000000E+00  0.93827000000E+00 0. -1.
     999902    2    1    2    0    0  0.65516957878E-02 -0.14659157250E-01 -0.17244646171E-01  0.10203674570E+01  0.10200953651E+01 0.  0.
     999903    2    3    3    0    0 -0.94360556235E-02 -0.12767158734E+00  0.25377161497E-01  0.13197338005E+00  0.19593349833E-01 0.  0.
         14    1    1    2    0    0 -0.65516957878E-02  0.14659157250E-01  0.17244646171E-01  0.23562542956E-01  0.00000000000E+00 0. -1.
     999901    1    3    3    0    0  0.15987751411E-01  0.11301243009E+00 -0.42621807668E-01  0.88839407699E+00  0.88000000000E+00 0.  1.
        -11    1    4    4    0    0  0.13048921397E-02 -0.62056619680E-01  0.42948770018E-02  0.62220847624E-01  0.51100000000E-03 0.  1.
         11    1    4    4    0    0 -0.10740947763E-01 -0.65614967656E-01  0.21082284495E-01  0.69752532426E-01  0.51100000000E-03 0. -1.
</event>
<event>
 8    1  0.1095698E+005  0.1043930E+01  0.7957747E-01            NaN
         13   -1    0    0    0    0  0.00000000000E+00  0.00000000000E+00  0.74505805969E-08  0.10566000000E+00  0.10566000000E+00 0. -1.
     999900   -1    0    0    0    0 -0.00000000000E+00 -0.00000000000E+00 -0.74505805969E-08  0.93827000000E+00  0.93827000000E+00 0. -1.
     999902    2    1    2    0    0 -0.53169266595E-02  0.14698939478E-01 -0.16439904889E-01  0.10212452253E+01  0.10209932474E+01 0.  0.
     999903    2    3    3    0    0 -0.69863534195E-01  0.48713344407E-01 -0.10153062103E+00  0.13413549461E+00  0.20735490732E-01 0.  0.
         14    1    1    2    0    0  0.53169266595E-02 -0.14698939478E-01  0.16439904889E-01  0.22684774710E-01  0.00000000000E+00 0. -1.
     999901    1    3    3    0    0  0.64546607535E-01 -0.34014404929E-01  0.85090716137E-01  0.88710973068E+00  0.88000000000E+00 0.  1.
        -11    1    4    4    0    0 -0.60826577876E-01  0.32494133653E-01 -0.82777764691E-01  0.10774117480E+00  0.51100000000E-03 0. -1.
         11    1    4    4    0    0 -0.90369563185E-02  0.16219210753E-01 -0.18752856336E-01  0.26394319819E-01  0.51100000000E-03 0.  1.
</event>
<event>
 8    1  0.1095698E+005  0.1043930E+01  0.7957747E-01            NaN
         13   -1    0    0    0    0  0.00000000000E+00  0.00000000000E+00  0.74505805969E-08  0.10566000000E+00  0.10566000000E+00 0.  1.
     999900   -1    0    0    0    0 -0.00000000000E+00 -0.00000000000E+00 -0.74505805969E-08  0.93827000000E+00  0.93827000000E+00 0. -1.
     999902    2    1    2    0    0 -0.15611097385E-01 -0.82243390073E-02 -0.14824716489E-01  0.10208839953E+01  0.10206238355E+01 0.  0.
     999903    2    3    3    0    0  0.38256951540E-01 -0.76583515198E-01  0.95462288085E-01  0.12973980548E+00  0.19767132809E-01 0.  0.
         14    1    1    2    0    0  0.15611097385E-01  0.82243390073E-02  0.14824716489E-01  0.23046004700E-01  0.00000000000E+00 0. -1.
     999901    1    3    3    0    0 -0.53868048925E-01  0.68359176190E-01 -0.11028700457E+00  0.89114418982E+00  0.88000000000E+00 0. -1.
        -11    1    4    4    0    0  0.23093643876E-01 -0.56450502740E-01  0.55354328463E-01  0.82367095661E-01  0.51100000000E-03 0. -1.
         11    1    4    4    0    0  0.15163307664E-01 -0.20133012458E-01  0.40107959622E-01  0.47372709823E-01  0.51100000000E-03 0.  1.
</event>
<event>
 8    1  0.1095698E+005  0.1043930E+01  0.7957747E-01            NaN
         13   -1    0    0    0    0  0.00000000000E+00  0.00000000000E+00  0.74505805969E-08  0.10566000000E+00  0.10566000000E+00 0.  1.
     999900   -1    0    0    0    0 -0.00000000000E+00 -0.00000000000E+00 -0.74505805969E-08  0.93827000000E+00  0.93827000000E+00 0. -1.
     999902    2    1    2    0    0 -0.75880028736E-02 -0.21091443434E-01 -0.59699495299E-02  0.10207337272E+01  0.10204701244E+01 0.  0.
     999903    2    3    3    0    0  0.39456575361E-01 -0.56103431741E-01  0.10995418050E+00  0.13119596209E+00  0.20446081895E-01 0.  0.
         14    1    1    2    0    0  0.75880028736E-02  0.21091443434E-01  0.59699495299E-02  0.23196272786E-01  0.00000000000E+00 0.  1.
     999901    1    3    3    0    0 -0.47044578234E-01  0.35011988307E-01 -0.11592413003E+00  0.88953776513E+00  0.88000000000E+00 0. -1.
        -11    1    4    4    0    0  0.22858956679E-01 -0.17947592674E-01  0.35299374569E-01  0.45726960857E-01  0.51100000000E-03 0.  1.
         11    1    4    4    0    0  0.16597618682E-01 -0.38155839067E-01  0.74654805935E-01  0.85469001229E-01  0.51100000000E-03 0. -1.
</event>
<event>
 7    1  0.2848560E+005  0.1043930E+01  0.7957747E-01            NaN
         13   -1    0    0    0    0  0.00000000000E+00  0.00000000000E+00  0.74505805969E-08  0.10566000000E+00  0.10566000000E+00 0. -1.
     999900   -1    0    0    0    0 -0.00000000000E+00 -0.00000000000E+00 -0.74505805969E-08  0.93827000000E+00  0.93827000000E+00 0.  1.
     999903    2    1    2    0    0  0.89166336728E-01 -0.13569879823E-01 -0.24688539895E-01  0.95168737425E-01  0.17685794779E-01 0.  0.
         14    1    1    2    0    0  0.35007076824E-01 -0.44999570150E-01 -0.76802611676E-02  0.57527759847E-01  0.00000000000E+00 0.  1.
     999901    1    1    2    0    0 -0.12417341355E+00  0.58569449973E-01  0.32368801062E-01  0.89123350273E+00  0.88000000000E+00 0. -1.
        -11    1    3    3    0    0  0.60257390697E-01 -0.11454790720E-01 -0.83876602883E-02  0.61909444596E-01  0.51100000000E-03 0. -1.
         11    1    3    3    0    0  0.28908946031E-01 -0.21150891036E-02 -0.16300879606E-01  0.33259292829E-01  0.51100000000E-03 0.  1.
</event>
<event>
 8    1  0.1095698E+005  0.1043930E+01  0.7957747E-01            NaN
         13   -1    0    0    0    0  0.00000000000E+00  0.00000000000E+00  0.74505805969E-08  0.10566000000E+00  0.10566000000E+00 0.  1.
     999900   -1    0    0    0    0 -0.00000000000E+00 -0.00000000000E+00 -0.74505805969E-08  0.93827000000E+00  0.93827000000E+00 0. -1.
     999902    2    1    2    0    0 -0.39652289487E-02  0.96159716554E-02  0.20926926748E-01  0.10205606565E+01  0.10202930596E+01 0.  0.
     999903    2    3    3    0    0 -0.74779450352E-02 -0.92146710575E-01  0.91866193796E-01  0.13185352688E+00  0.19975461345E-01 0.  0.
         14    1    1    2    0    0  0.39652289487E-02 -0.96159716554E-02 -0.20926926748E-01  0.23369343478E-01  0.00000000000E+00 0. -1.
     999901    1    3    3    0    0  0.35127160865E-02  0.10176268223E+00 -0.70939267048E-01  0.88870712964E+00  0.88000000000E+00 0.  1.
        -11    1    4    4    0    0  0.54634423081E-02 -0.38204305422E-01  0.44515890002E-01  0.58918110444E-01  0.51100000000E-03 0.  1.
         11    1    4    4    0    0 -0.12941387343E-01 -0.53942405153E-01  0.47350303794E-01  0.72935416434E-01  0.51100000000E-03 0. -1.
</event>
<event>
 8    1  0.1095698E+005  0.1043930E+01  0.7957747E-01            NaN
         13   -1    0    0    0    0  0.00000000000E+00  0.00000000000E+00  0.74505805969E-08  0.10566000000E+00  0.10566000000E+00 0.  1.
     999900   -1    0    0    0    0 -0.00000000000E+00 -0.00000000000E+00 -0.74505805969E-08  0.93827000000E+00  0.93827000000E+00 0.  1.
     999902    2    1    2    0    0 -0.13346498416E-01  0.20137125565E-01 -0.26651830544E-03  0.10197700356E+01  0.10194838016E+01 0.  0.
     999903    2    3    3    0    0  0.11760838181E+00 -0.17486699867E-01  0.43683712377E-01  0.12820043338E+00  0.19737483274E-01 0.  0.
         14    1    1    2    0    0  0.13346498416E-01 -0.20137125565E-01  0.26651830544E-03  0.24159964362E-01  0.00000000000E+00 0.  1.
     999901    1    3    3    0    0 -0.13095488023E+00  0.37623825432E-01 -0.43950230682E-01  0.89156960226E+00  0.88000000000E+00 0.  1.
        -11    1    4    4    0    0  0.72028143499E-01 -0.37407561725E-02  0.33432663976E-01  0.79498747501E-01  0.51100000000E-03 0. -1.
         11    1    4    4    0    0  0.45580238316E-01 -0.13745943695E-01  0.10251048401E-01  0.48701685878E-01  0.51100000000E-03 0.  1.
</event>
<event>
 8    1  0.1095698E+005  0.1043930E+01  0.7957747E-01            NaN
         13   -1    0    0    0    0  0.00000000000E+00  0.00000000000E+00  0.74505805969E-08  0.10566000000E+00  0.10566000000E+00 0.  1.
     999900   -1    0    0    0    0 -0.00000000000E+00 -0.00000000000E+00 -0.74505805969E-08  0.93827000000E+00  0.93827000000E+00 0.  1.
     999902    2    1    2    0    0  0.18609210811E-01 -0.54969183011E-02 -0.16259327326E-01  0.10186143020E+01  0.10182996670E+01 0.  0.
     999903    2    3    3    0    0 -0.73229581912E-01 -0.49552803861E-01 -0.92339470636E-01  0.12947793843E+00  0.20491624259E-01 0.  0.
         14    1    1    2    0    0 -0.18609210811E-01  0.54969183011E-02  0.16259327326E-01  0.25315697954E-01  0.00000000000E+00 0.  1.
     999901    1    3    3    0    0  0.91838792723E-01  0.44055885560E-01  0.76080143309E-01  0.88913636362E+00  0.88000000000E+00 0. -1.
        -11    1    4    4    0    0 -0.33279037724E-01 -0.34573507299E-01 -0.45791516796E-01  0.66332087938E-01  0.51100000000E-03 0. -1.
         11    1    4    4    0    0 -0.39950544187E-01 -0.14979296562E-01 -0.46547953840E-01  0.63145850490E-01  0.51100000000E-03 0.  1.
</event>
<event>
 8    1  0.1095698E+005  0.1043930E+01  0.7957747E-01            NaN
         13   -1    0    0    0    0  0.00000000000E+00  0.00000000000E+00  0.74505805969E-08  0.10566000000E+00  0.10566000000E+00 0. -1.
     999900   -1    0    0    0    0 -0.00000000000E+00 -0.00000000000E+00 -0.74505805969E-08  0.93827000000E+00  0.93827000000E+00 0.  1.
     999902    2    1    2    0    0  0.22549769203E-01  0.28528948251E-02 -0.10759920351E-01  0.10187822966E+01  0.10184718754E+01 0.  0.
     999903    2    3    3    0    0 -0.11588672773E+00  0.46626126640E-01 -0.13186494363E-01  0.12688171483E+00  0.17926421196E-01 0.  0.
         14    1    1    2    0    0 -0.22549769203E-01 -0.28528948251E-02  0.10759920351E-01  0.25147703393E-01  0.00000000000E+00 0. -1.
     999901    1    3    3    0    0  0.13843649693E+00 -0.43773231815E-01  0.24265740121E-02  0.89190058177E+00  0.88000000000E+00 0.  1.
        -11    1    4    4    0    0 -0.94052546747E-01  0.35628678804E-01 -0.36717629039E-02  0.10064306865E+00  0.51100000000E-03 0. -1.
         11    1    4    4    0    0 -0.21834180980E-01  0.10997447836E-01 -0.95147314589E-02  0.26238646187E-01  0.51100000000E-03 0.  1.
</event>
<event>
 8    1  0.1095698E+005  0.1043930E+01  0.7957747E-01            NaN
         13   -1    0    0    0    0  0.00000000000E+00  0.00000000000E+00  0.74505805969E-08  0.10566000000E+00  0.10566000000E+00 0.  1.
     999900   -1    0    0    0    0 -0.00000000000E+00 -0.00000000000E+00 -0.74505805969E-08  0.93827000000E+00  0.93827000000E+00 0. -1.
     999902    2    1    2    0    0  0.46594779248E-02  0.15198694326E-01 -0.16851430509E-01  0.10207636072E+01  0.10205006909E+01 0.  0.
     999903    2    3    3    0    0 -0.11779837247E+00 -0.39418083922E-01 -0.35005079917E-01  0.13042183433E+00  0.18821725547E-01 0.  0.
         14    1    1    2    0    0 -0.46594779248E-02 -0.15198694326E-01  0.16851430509E-01  0.23166392769E-01  0.00000000000E+00 0. -1.
     999901    1    3    3    0    0  0.12245785040E+00  0.54616778247E-01  0.18153649408E-01  0.89034177290E+00  0.88000000000E+00 0. -1.
        -11    1    4    4    0    0 -0.33038863191E-01 -0.26025521166E-02 -0.11304136203E-01  0.35019771198E-01  0.51100000000E-03 0.  1.
         11    1    4    4    0    0 -0.84759509280E-01 -0.36815531805E-01 -0.23700943715E-01  0.95402063130E-01  0.51100000000E-03 0. -1.
</event>
<event>
 8    1  0.1095698E+005  0.1043930E+01  0.7957747E-01            NaN
         13   -1    0    0    0    0  0.00000000000E+00  0.00000000000E+00  0.74505805969E-08  0.10566000000E+00  0.10566000000E+00 0. -1.
     999900   -1    0    0    0    0 -0.00000000000E+00 -0.00000000000E+00 -0.74505805969E-08  0.93827000000E+00  0.93827000000E+00 0. -1.
     999902    2    1    2    0    0 -0.11657153076E-01 -0.15199381211E-01  0.15809183306E-01  0.10190937224E+01  0.10187910357E+01 0.  0.
     999903    2    3    3    0    0  0.35653164553E-01  0.12045316942E+00 -0.42521722648E-03  0.12729585496E+00  0.20589796414E-01 0.  0.
         14    1    1    2    0    0  0.11657153076E-01  0.15199381211E-01 -0.15809183306E-01  0.24836277576E-01  0.00000000000E+00 0.  1.
     999901    1    3    3    0    0 -0.47310317629E-01 -0.13565255063E+00  0.16234400533E-01  0.89179786746E+00  0.88000000000E+00 0. -1.
        -11    1    4    4    0    0  0.10591700505E-01  0.60068213429E-01  0.74164593040E-02  0.61446231567E-01  0.51100000000E-03 0.  1.
         11    1    4    4    0    0  0.25061464048E-01  0.60384955987E-01 -0.78416765305E-02  0.65849623397E-01  0.51100000000E-03 0. -1.
</event>
<event>
 8    1  0.1095698E+005  0.1043930E+01  0.7957747E-01            NaN
         13   -1    0    0    0    0  0.00000000000E+00  0.00000000000E+00  0.74505805969E-08  0.10566000000E+00  0.10566000000E+00 0. -1.
     999900   -1    0    0    0    0 -0.00000000000E+00 -0.00000000000E+00 -0.74505805969E-08  0.93827000000E+00  0.93827000000E+00 0.  1.
     999902    2    1    2    0    0  0.15198969040E-01  0.71393965878E-03  0.18141503840E-01  0.10202523200E+01  0.10199775311E+01 0.  0.
     999903    2    3    3    0    0 -0.15122574087E-01  0.12786859180E+00  0.77536842706E-02  0.13053573121E+00  0.20009709754E-01 0.  0.
         14    1    1    2    0    0 -0.15198969040E-01 -0.71393965878E-03 -0.18141503840E-01  0.23677680023E-01  0.00000000000E+00 0.  1.
     999901    1    3    3    0    0  0.30321543127E-01 -0.12715465215E+00  0.10387819569E-01  0.88971658877E+00  0.88000000000E+00 0. -1.
        -11    1    4    4    0    0 -0.36903122717E-02  0.37029789406E-01  0.11348113281E-01  0.38908411740E-01  0.51100000000E-03 0.  1.
         11    1    4    4    0    0 -0.11432261815E-01  0.90838802399E-01 -0.35944290106E-02  0.91627319465E-01  0.51100000000E-03 0. -1.
</event>
<event>
 8    1  0.1095698E+005  0.1043930E+01  0.7957747E-01            NaN
         13   -1    0    0    0    0  0.00000000000E+00  0.00000000000E+00  0.74505805969E-08  0.10566000000E+00  0.10566000000E+00 0. -1.
     999900   -1    0    0    0    0 -0.00000000000E+00 -0.00000000000E+00 -0.74505805969E-08  0.93827000000E+00  0.93827000000E+00 0.  1.
     999902    2    1    2    0    0 -0.11403183428E-02  0.12793407239E-01  0.19688453270E-01  0.10204224100E+01  0.10201516005E+01 0.  0.
     999903    2    3    3    0    0  0.58299451214E-01 -0.11104955092E+00 -0.20165906995E-01  0.12887401844E+00  0.21702996409E-01 0.  0.
         14    1    1    2    0    0  0.11403183428E-02 -0.12793407239E-01 -0.19688453270E-01  0.23507589985E-01  0.00000000000E+00 0.  1.
     999901    1    3    3    0    0 -0.59439769557E-01  0.12384295816E+00  0.39854360266E-01  0.89154839158E+00  0.88000000000E+00 0.  1.
        -11    1    4    4    0    0  0.63413773812E-02 -0.31061441447E-01 -0.81478177901E-02  0.32736436391E-01  0.51100000000E-03 0. -1.
         11    1    4    4    0    0  0.51958073833E-01 -0.79988109470E-01 -0.12018089205E-01  0.96137582048E-01  0.51100000000E-03 0.  1.
</event>
<event>
 8    1  0.1095698E+005  0.1043930E+01  0.7957747E-01            NaN
         13   -1    0    0    0    0  0.00000000000E+00  0.00000000000E+00  0.74505805969E-08  0.10566000000E+00  0.10566000000E+00 0.  1.
     999900   -1    0    0    0    0 -0.00000000000E+00 -0.00000000000E+00 -0.74505805969E-08  0.93827000000E+00  0.93827000000E+00 0. -1.
     999902    2    1    2    0    0  0.50246020805E-02 -0.17688334286E-02 -0.21779543348E-01  0.10215084946E+01  0.10212623955E+01 0.  0.
     999903    2    3    3    0    0 -0.11622476181E+00  0.55357535818E-01  0.87803235668E-02  0.13083530210E+00  0.21636315866E-01 0.  0.
         14    1    1    2    0    0 -0.50246020805E-02  0.17688334286E-02  0.21779543348E-01  0.22421505440E-01  0.00000000000E+00 0.  1.
     999901    1    3    3    0    0  0.12124936389E+00 -0.57126369247E-01 -0.30559866914E-01  0.89067319246E+00  0.88000000000E+00 0.  1.
        -11    1    4    4    0    0 -0.26782932478E-01  0.15833637400E-01 -0.67009652400E-02  0.31830702185E-01  0.51100000000E-03 0.  1.
         11    1    4    4    0    0 -0.89441829328E-01  0.39523898418E-01  0.15481288807E-01  0.99004599913E-01  0.51100000000E-03 0. -1.
</event>
<event>
 8    1  0.1095698E+005  0.1043930E+01  0.7957747E-01            NaN
         13   -1    0    0    0    0  0.00000000000E+00  0.00000000000E+00  0.74505805969E-08  0.10566000000E+00  0.10566000000E+00 0. -1.
     999900   -1    0    0    0    0 -0.00000000000E+00 -0.00000000000E+00 -0.74505805969E-08  0.93827000000E+00  0.93827000000E+00 0.  1.
     999902    2    1    2    0    0  0.15508125724E-01  0.29852912810E-02 -0.17640003591E-01  0.10202533521E+01  0.10199785875E+01 0.  0.
     999903    2    3    3    0    0 -0.12391030440E-01  0.10039262871E+00  0.77687846385E-01  0.12932465056E+00  0.21383316691E-01 0.  0.
         14    1    1    2    0    0 -0.15508125724E-01 -0.29852912810E-02  0.17640003591E-01  0.23676647867E-01  0.00000000000E+00 0. -1.
     999901    1    3    3    0    0  0.27899156164E-01 -0.97407337429E-01 -0.95327849976E-01  0.89092870157E+00  0.88000000000E+00 0. -1.
        -11    1    4    4    0    0 -0.89747394444E-02  0.12399981064E-01  0.10764422468E-01  0.18720026457E-01  0.51100000000E-03 0.  1.
         11    1    4    4    0    0 -0.34162909955E-02  0.87992647646E-01  0.66923423917E-01  0.11060462411E+00  0.51100000000E-03 0. -1.
</event>
<event>
 8    1  0.1095698E+005  0.1043930E+01  0.7957747E-01            NaN
         13   -1    0    0    0    0  0.00000000000E+00  0.00000000000E+00  0.74505805969E-08  0.10566000000E+00  0.10566000000E+00 0. -1.
     999900   -1    0    0    0    0 -0.00000000000E+00 -0.00000000000E+00 -0.74505805969E-08  0.93827000000E+00  0.93827000000E+00 0. -1.
     999902    2    1    2    0    0  0.17018072502E-01 -0.36774055622E-02 -0.16073957399E-01  0.10202337933E+01  0.10199585692E+01 0.  0.
     999903    2    3    3    0    0  0.19096353490E-01  0.12736963796E+00 -0.36564903857E-02  0.13044064865E+00  0.20339555244E-01 0.  0.
         14    1    1    2    0    0 -0.17018072502E-01  0.36774055622E-02  0.16073957399E-01  0.23696206655E-01  0.00000000000E+00 0. -1.
     999901    1    3    3    0    0 -0.20782809872E-02 -0.13104704352E+00 -0.12417467013E-01  0.88979314470E+00  0.88000000000E+00 0.  1.
        -11    1    4    4    0    0  0.84476919087E-02  0.71908208741E-01  0.77677536239E-02  0.72820004808E-01  0.51100000000E-03 0. -1.
         11    1    4    4    0    0  0.10648661581E-01  0.55461429216E-01 -0.11424244010E-01  0.57620643838E-01  0.51100000000E-03 0.  1.
</event>
<event>
 8    1  0.1095698E+005  0.1043930E+01  0.7957747E-01            NaN
         13   -1    0    0    0    0  0.00000000000E+00  0.00000000000E+00  0.74505805969E-08  0.10566000000E+00  0.10566000000E+00 0. -1.
     999900   -1    0    0    0    0 -0.00000000000E+00 -0.00000000000E+00 -0.74505805969E-08  0.93827000000E+00  0.93827000000E+00 0.  1.
     999902    2    1    2    0    0 -0.66495050943E-02 -0.13116963283E-01 -0.18554914271E-01  0.10202539470E+01  0.10199791963E+01 0.  0.
     999903    2    3    3    0    0 -0.81140304416E-01  0.55363116550E-02  0.98020738077E-01  0.12925074463E+00  0.21983861050E-01 0.  0.
         14    1    1    2    0    0  0.66495050943E-02  0.13116963283E-01  0.18554914271E-01  0.23676053036E-01  0.00000000000E+00 0. -1.
     999901    1    3    3    0    0  0.74490799321E-01 -0.18653274938E-01 -0.11657565235E+00  0.89100320233E+00  0.88000000000E+00 0.  1.
        -11    1    4    4    0    0 -0.42148685759E-01 -0.58115179325E-02  0.60457437023E-01  0.73930022753E-01  0.51100000000E-03 0. -1.
         11    1    4    4    0    0 -0.38991618657E-01  0.11347829587E-01  0.37563301054E-01  0.55320721876E-01  0.51100000000E-03 0.  1.
</event>
<event>
 8    1  0.1095698E+005  0.1043930E+01  0.7957747E-01            NaN
         13   -1    0    0    0    0  0.00000000000E+00  0.00000000000E+00  0.74505805969E-08  0.10566000000E+00  0.10566000000E+00 0.  1.
     999900   -1    0    0    0    0 -0.00000000000E+00 -0.00000000000E+00 -0.74505805969E-08  0.93827000000E+00  0.93827000000E+00 0. -1.
     999902    2    1    2    0    0  0.19104925646E-01 -0.10871044029E-01  0.83935895327E-02  0.10204006539E+01  0.10201293371E+01 0.  0.
     999903    2    3    3    0    0 -0.64787849400E-01  0.10616941855E+00  0.25594990740E-01  0.12853050877E+00  0.19889124385E-01 0.  0.
         14    1    1    2    0    0 -0.19104925646E-01  0.10871044029E-01 -0.83935895327E-02  0.23529346091E-01  0.00000000000E+00 0. -1.
     999901    1    3    3    0    0  0.83892775046E-01 -0.11704046258E+00 -0.17201401207E-01  0.89187014514E+00  0.88000000000E+00 0.  1.
        -11    1    4    4    0    0 -0.47257039679E-01  0.78071364110E-01  0.27611407380E-01  0.95346822872E-01  0.51100000000E-03 0. -1.
         11    1    4    4    0    0 -0.17530809721E-01  0.28098054439E-01 -0.20164166404E-02  0.33183685899E-01  0.51100000000E-03 0.  1.
</event>
<event>
 8    1  0.1095698E+005  0.1043930E+01  0.7957747E-01            NaN
         13   -1    0    0    0    0  0.00000000000E+00  0.00000000000E+00  0.74505805969E-08  0.10566000000E+00  0.10566000000E+00 0.  1.
     999900   -1    0    0    0    0 -0.00000000000E+00 -0.00000000000E+00 -0.74505805969E-08  0.93827000000E+00  0.93827000000E+00 0.  1.
     999902    2    1    2    0    0 -0.29989012471E-02  0.21081639339E-01 -0.96530485320E-02  0.10205503021E+01  0.10202824653E+01 0.  0.
     999903    2    3    3    0    0  0.26547912197E-01 -0.12281142800E+00 -0.18147237121E-01  0.12833374757E+00  0.18782706418E-01 0.  0.
         14    1    1    2    0    0  0.29989012471E-02 -0.21081639339E-01  0.96530485320E-02  0.23379697857E-01  0.00000000000E+00 0.  1.
     999901    1    3    3    0    0 -0.29546813444E-01  0.14389306734E+00  0.84941885888E-02  0.89221655457E+00  0.88000000000E+00 0.  1.
        -11    1    4    4    0    0  0.17647352367E-01 -0.83386380604E-01 -0.21093217528E-01  0.87806050262E-01  0.51100000000E-03 0. -1.
         11    1    4    4    0    0  0.89005598298E-02 -0.39425047398E-01  0.29459804068E-02  0.40527697309E-01  0.51100000000E-03 0.  1.
</event>
<event>
 8    1  0.1095698E+005  0.1043930E+01  0.7957747E-01            NaN
         13   -1    0    0    0    0  0.00000000000E+00  0.00000000000E+00  0.74505805969E-08  0.10566000000E+00  0.10566000000E+00 0.  1.
     999900   -1    0    0    0    0 -0.00000000000E+00 -0.00000000000E+00 -0.74505805969E-08  0.93827000000E+00  0.93827000000E+00 0.  1.
     999902    2    1    2    0    0  0.83842758828E-02 -0.19002001832E-01 -0.12988085773E-01  0.10194338263E+01  0.10191394721E+01 0.  0.
     999903    2    3    3    0    0 -0.11047045393E+00  0.46881879799E-01 -0.41318801189E-01  0.12855237394E+00  0.20416602753E-01 0.  0.
         14    1    1    2    0    0 -0.83842758828E-02  0.19002001832E-01  0.12988085773E-01  0.24496173737E-01  0.00000000000E+00 0.  1.
     999901    1    3    3    0    0  0.11885472982E+00 -0.65883881632E-01  0.28330715416E-01  0.89088145232E+00  0.88000000000E+00 0.  1.
        -11    1    4    4    0    0 -0.45744006946E-01  0.29236292381E-01 -0.23332763978E-01  0.59092757251E-01  0.51100000000E-03 0. -1.
         11    1    4    4    0    0 -0.64726446987E-01  0.17645587418E-01 -0.17986037211E-01  0.69459616688E-01  0.51100000000E-03 0.  1.
</event>
<event>
 8    1  0.1095698E+005  0.1043930E+01  0.7957747E-01            NaN
         13   -1    0    0    0    0  0.00000000000E+00  0.00000000000E+00  0.74505805969E-08  0.10566000000E+00  0.10566000000E+00 0.  1.
     999900   -1    0    0    0    0 -0.00000000000E+00 -0.00000000000E+00 -0.74505805969E-08  0.93827000000E+00  0.93827000000E+00 0.  1.
     999902    2    1    2    0    0 -0.11454466151E-01  0.29089253940E-02  0.19567858678E-01  0.10210702595E+01  0.10208143353E+01 0.  0.
     999903    2    3    3    0    0 -0.38793680403E-01  0.74055375496E-01 -0.97636149843E-01  0.13003376778E+00  0.19667606028E-01 0.  0.
         14    1    1    2    0    0  0.11454466151E-01 -0.29089253940E-02 -0.19567858678E-01  0.22859740484E-01  0.00000000000E+00 0.  1.
     999901    1    3    3    0    0  0.27339214252E-01 -0.71146450102E-01  0.11720400852E+00  0.89103649174E+00  0.88000000000E+00 0. -1.
        -11    1    4    4    0    0 -0.39311979765E-01  0.73554766265E-01 -0.91392237984E-01  0.12372767547E+00  0.51100000000E-03 0.  1.
         11    1    4    4    0    0  0.51829936180E-03  0.50060923126E-03 -0.62439118590E-02  0.63060923030E-02  0.51100000000E-03 0. -1.
</event>
<event>
 8    1  0.1095698E+005  0.1043930E+01  0.7957747E-01            NaN
         13   -1    0    0    0    0  0.00000000000E+00  0.00000000000E+00  0.74505805969E-08  0.10566000000E+00  0.10566000000E+00 0.  1.
     999900   -1    0    0    0    0 -0.00000000000E+00 -0.00000000000E+00 -0.74505805969E-08  0.93827000000E+00  0.93827000000E+00 0. -1.
     999902    2    1    2    0    0 -0.69101518045E-02 -0.19859619895E-01  0.99244103775E-02  0.10206781480E+01  0.10204132659E+01 0.  0.
     999903    2    3    3    0    0 -0.57093213304E-01  0.48078945504E-01 -0.10380582933E+00  0.12934849195E+00  0.19600055085E-01 0.  0.
         14    1    1    2    0    0  0.69101518045E-02  0.19859619895E-01 -0.99244103775E-02  0.23251852005E-01  0.00000000000E+00 0. -1.
     999901    1    3    3    0    0  0.50183061500E-01 -0.67938565399E-01  0.11373023971E+00  0.89132965605E+00  0.88000000000E+00 0. -1.
        -11    1    4    4    0    0 -0.42886018121E-01  0.23879000171E-01 -0.64775782211E-01  0.81274721048E-01  0.51100000000E-03 0. -1.
         11    1    4    4    0    0 -0.14207195183E-01  0.24199945333E-01 -0.39030047120E-01  0.48073770897E-01  0.51100000000E-03 0.  1.
</event>
<event>
 8    1  0.1095698E+005  0.1043930E+01  0.7957747E-01            NaN
         13   -1    0    0    0    0  0.00000000000E+00  0.00000000000E+00  0.74505805969E-08  0.10566000000E+00  0.10566000000E+00 0.  1.
     999900   -1    0    0    0    0 -0.00000000000E+00 -0.00000000000E+00 -0.74505805969E-08  0.93827000000E+00  0.93827000000E+00 0. -1.
     999902    2    1    2    0    0 -0.21122898401E-01  0.22820505116E-03 -0.90507563551E-02  0.10209485922E+01  0.10206899053E+01 0.  0.
     999903    2    3    3    0    0  0.43327067038E-01  0.10729453355E+00  0.55264220132E-01  0.12979573608E+00  0.20086000390E-01 0.  0.
         14    1    1    2    0    0  0.21122898401E-01 -0.22820505116E-03  0.90507563551E-02  0.22981407811E-01  0.00000000000E+00 0.  1.
     999901    1    3    3    0    0 -0.64449965439E-01 -0.10706632850E+00 -0.64314976487E-01  0.89115285610E+00  0.88000000000E+00 0. -1.
        -11    1    4    4    0    0  0.44131308144E-01  0.91190531794E-01  0.47452862345E-01  0.11187189421E+00  0.51100000000E-03 0. -1.
         11    1    4    4    0    0 -0.80424110600E-03  0.16104001753E-01  0.78113577872E-02  0.17923841879E-01  0.51100000000E-03 0.  1.
</event>
<event>
 8    1  0.1095698E+005  0.1043930E+01  0.7957747E-01            NaN
         13   -1    0    0    0    0  0.00000000000E+00  0.00000000000E+00  0.74505805969E-08  0.10566000000E+00  0.10566000000E+00 0. -1.
     999900   -1    0    0    0    0 -0.00000000000E+00 -0.00000000000E+00 -0.74505805969E-08  0.93827000000E+00  0.93827000000E+00 0.  1.
     999902    2    1    2    0    0 -0.18898281455E-02  0.19632560078E-01  0.13045339492E-01  0.10202828068E+01  0.10200087333E+01 0.  0.
     999903    2    3    3    0    0 -0.40587962112E-01  0.12072598696E+00  0.34418421296E-01  0.13339260208E+00  0.19667535947E-01 0.  0.
         14    1    1    2    0    0  0.18898281455E-02 -0.19632560078E-01 -0.13045339492E-01  0.23647193239E-01  0.00000000000E+00 0.  1.
     999901    1    3    3    0    0  0.38698133966E-01 -0.10109342688E+00 -0.21373081804E-01  0.88689020468E+00  0.88000000000E+00 0.  1.
        -11    1    4    4    0    0 -0.28144934268E-01  0.97554439171E-01  0.34023798079E-01  0.10708354628E+00  0.51100000000E-03 0.  1.
         11    1    4    4    0    0 -0.12443027844E-01  0.23171547787E-01  0.39462321772E-03  0.26309055803E-01  0.51100000000E-03 0. -1.
</event>
<event>
 7    1  0.1095698E+005  0.1043930E+01  0.7957747E-01            NaN
         13   -1    0    0    0    0  0.00000000000E+00  0.00000000000E+00  0.74505805969E-08  0.10566000000E+00  0.10566000000E+00 0. -1.
     999900   -1    0    0    0    0 -0.00000000000E+00 -0.00000000000E+00 -0.74505805969E-08  0.93827000000E+00  0.93827000000E+00 0. -1.
     999902    2    1    2    0    0 -0.80616434665E-02  0.67929149900E-04  0.19723444955E-01  0.10226225133E+01  0.10224005065E+01 0.  0.
         14    1    1    2    0    0  0.80616434665E-02 -0.67929149900E-04 -0.19723444955E-01  0.21307486727E-01  0.00000000000E+00 0. -1.
     999901    1    3    3    0    0 -0.10990057565E+00  0.19676161945E-02  0.49456654697E-01  0.88821617230E+00  0.88000000000E+00 0.  1.
        -11    1    3    3    0    0  0.57029246643E-01 -0.71717737371E-02 -0.57598979308E-01  0.81373661891E-01  0.51100000000E-03 0. -1.
         11    1    3    3    0    0  0.44809685538E-01  0.52720866924E-02  0.27865769566E-01  0.53032679082E-01  0.51100000000E-03 0.  1.
</event>
<event>
 8    1  0.1156016E+005  0.1043930E+01  0.7957747E-01            NaN
         13   -1    0    0    0    0  0.00000000000E+00  0.00000000000E+00  0.74505805969E-08  0.10566000000E+00  0.10566000000E+00 0.  1.
     999900   -1    0    0    0    0 -0.00000000000E+00 -0.00000000000E+00 -0.74505805969E-08  0.93827000000E+00  0.93827000000E+00 0.  1.
     999902    2    1    2    0    0  0.43939577468E-02 -0.22987618699E-01  0.35748152372E-02  0.10202547644E+01  0.10199800329E+01 0.  0.
     999903    2    3    3    0    0 -0.69438533532E-02  0.86242477024E-01 -0.92487992598E-01  0.12824141087E+00  0.20145687997E-01 0.  0.
         14    1    1    2    0    0 -0.43939577468E-02  0.22987618699E-01 -0.35748152372E-02  0.23675235629E-01  0.00000000000E+00 0.  1.
     999901    1    3    3    0    0  0.11337811100E-01 -0.10923009572E+00  0.96062807835E-01  0.89201335350E+00  0.88000000000E+00 0. -1.
        -11    1    4    4    0    0  0.45429345208E-02  0.54461943478E-01 -0.51250687991E-01  0.74924199576E-01  0.51100000000E-03 0.  1.
         11    1    4    4    0    0 -0.11486787874E-01  0.31780533545E-01 -0.41237304607E-01  0.53317211295E-01  0.51100000000E-03 0. -1.
</event>
<event>
 8    1  0.1095698E+005  0.1043930E+01  0.7957747E-01            NaN
         13   -1    0    0    0    0  0.00000000000E+00  0.00000000000E+00  0.74505805969E-08  0.10566000000E+00  0.10566000000E+00 0. -1.
     999900   -1    0    0    0    0 -0.00000000000E+00 -0.00000000000E+00 -0.74505805969E-08  0.93827000000E+00  0.93827000000E+00 0. -1.
     999902    2    1    2    0    0 -0.17399201161E-01  0.16166039714E-01  0.23594692870E-02  0.10200628649E+01  0.10197836086E+01 0.  0.
     999903    2    3    3    0    0 -0.14964062604E-01 -0.11230277226E+00 -0.56815618233E-01  0.12876501543E+00  0.22728372019E-01 0.  0.
         14    1    1    2    0    0  0.17399201161E-01 -0.16166039714E-01 -0.23594692870E-02  0.23867135069E-01  0.00000000000E+00 0.  1.
     999901    1    3    3    0    0 -0.24351385568E-02  0.12846881198E+00  0.59175087520E-01  0.89129784951E+00  0.88000000000E+00 0.  1.
        -11    1    4    4    0    0 -0.15755997311E-01 -0.57211064547E-01 -0.38336068614E-01  0.70648939381E-01  0.51100000000E-03 0. -1.
         11    1    4    4    0    0  0.79193470709E-03 -0.55091707716E-01 -0.18479549619E-01  0.58116076044E-01  0.51100000000E-03 0.  1.
</event>
<event>
 8    1  0.1095698E+005  0.1043930E+01  0.7957747E-01            NaN
         13   -1    0    0    0    0  0.00000000000E+00  0.00000000000E+00  0.74505805969E-08  0.10566000000E+00  0.10566000000E+00 0.  1.
     999900   -1    0    0    0    0 -0.00000000000E+00 -0.00000000000E+00 -0.74505805969E-08  0.93827000000E+00  0.93827000000E+00 0. -1.
     999902    2    1    2    0    0 -0.14204997602E-01  0.30675322413E-02 -0.19087756165E-01  0.10199397072E+01  0.10196575270E+01 0.  0.
     999903    2    3    3    0    0 -0.93733201165E-01  0.46275338490E-01 -0.80129744812E-01  0.13319409882E+00  0.19813429906E-01 0.  0.
         14    1    1    2    0    0  0.14204997602E-01 -0.30675322413E-02  0.19087756165E-01  0.23990292752E-01  0.00000000000E+00 0.  1.
     999901    1    3    3    0    0  0.79528203562E-01 -0.43207806249E-01  0.61041988647E-01  0.88674560842E+00  0.88000000000E+00 0.  1.
        -11    1    4    4    0    0 -0.34443207497E-01  0.93009050434E-02 -0.35190243081E-01  0.50114426131E-01  0.51100000000E-03 0.  1.
         11    1    4    4    0    0 -0.59289993668E-01  0.36974433447E-01 -0.44939501731E-01  0.83079672692E-01  0.51100000000E-03 0. -1.
</event>
<event>
 8    1  0.1095698E+005  0.1043930E+01  0.7957747E-01            NaN
         13   -1    0    0    0    0  0.00000000000E+00  0.00000000000E+00  0.74505805969E-08  0.10566000000E+00  0.10566000000E+00 0. -1.
     999900   -1    0    0    0    0 -0.00000000000E+00 -0.00000000000E+00 -0.74505805969E-08  0.93827000000E+00  0.93827000000E+00 0. -1.
     999902    2    1    2    0    0 -0.47154721492E-02 -0.40571040846E-02  0.21929896344E-01  0.10211349101E+01  0.10208804477E+01 0.  0.
     999903    2    3    3    0    0 -0.54254557684E-01  0.49621506399E-01  0.11011024337E+00  0.13371658266E+00  0.18708496964E-01 0.  0.
         14    1    1    2    0    0  0.47154721492E-02  0.40571040846E-02 -0.21929896344E-01  0.22795089927E-01  0.00000000000E+00 0.  1.
     999901    1    3    3    0    0  0.49539085535E-01 -0.53678610483E-01 -0.88180347021E-01  0.88741832741E+00  0.88000000000E+00 0. -1.
        -11    1    4    4    0    0 -0.13711196001E-01  0.23669979602E-01  0.46370614790E-01  0.53840132495E-01  0.51100000000E-03 0. -1.
         11    1    4    4    0    0 -0.40543361683E-01  0.25951526797E-01  0.63739628576E-01  0.79876450169E-01  0.51100000000E-03 0.  1.
</event>
<event>
 8    1  0.1095698E+005  0.1043930E+01  0.7957747E-01            NaN
         13   -1    0    0    0    0  0.00000000000E+00  0.00000000000E+00  0.74505805969E-08  0.10566000000E+00  0.10566000000E+00 0.  1.
     999900   -1    0    0    0    0 -0.00000000000E+00 -0.00000000000E+00 -0.74505805969E-08  0.93827000000E+00  0.93827000000E+00 0. -1.
     999902    2    1    2    0    0 -0.20731710247E-01  0.89904470242E-02  0.64248567174E-02  0.10204372196E+01  0.10201667552E+01 0.  0.
     999903    2    3    3    0    0 -0.73871604669E-01 -0.98017944991E-01 -0.42023569253E-01  0.13104310317E+00  0.18487374067E-01 0.  0.
         14    1    1    2    0    0  0.20731710247E-01 -0.89904470242E-02 -0.64248567174E-02  0.23492780408E-01  0.00000000000E+00 0. -1.
     999901    1    3    3    0    0  0.53139894422E-01  0.10700839202E+00  0.48448425971E-01  0.88939411642E+00  0.88000000000E+00 0.  1.
        -11    1    4    4    0    0 -0.21040633990E-01 -0.23144165075E-01 -0.18841052252E-01  0.36518584675E-01  0.51100000000E-03 0.  1.
         11    1    4    4    0    0 -0.52830970679E-01 -0.74873779916E-01 -0.23182517001E-01  0.94524518498E-01  0.51100000000E-03 0. -1.
</event>
<event>
 8    1  0.1095698E+005  0.1043930E+01  0.7957747E-01            NaN
         13   -1    0    0    0    0  0.00000000000E+00  0.00000000000E+00  0.74505805969E-08  0.10566000000E+00  0.10566000000E+00 0. -1.
     999900   -1    0    0    0    0 -0.00000000000E+00 -0.00000000000E+00 -0.74505805969E-08  0.93827000000E+00  0.93827000000E+00 0.  1.
     999902    2    1    2    0    0 -0.11775493199E-01 -0.15856671794E-01 -0.78549470934E-02  0.10226744954E+01  0.10224535819E+01 0.  0.
     999903    2    3    3    0    0  0.34410491598E-01  0.11824372979E+00 -0.39040739628E-01  0.13077280996E+00  0.20290069152E-01 0.  0.
         14    1    1    2    0    0  0.11775493199E-01  0.15856671794E-01  0.78549470934E-02  0.21255504565E-01  0.00000000000E+00 0.  1.
     999901    1    3    3    0    0 -0.46185984797E-01 -0.13410040159E+00  0.31185792534E-01  0.89190168548E+00  0.88000000000E+00 0. -1.
        -11    1    4    4    0    0 -0.15190019325E-02  0.97638437868E-02  0.34270990165E-03  0.99004334977E-02  0.51100000000E-03 0. -1.
         11    1    4    4    0    0  0.35929493531E-01  0.10847988601E+00 -0.39383449529E-01  0.12087237646E+00  0.51100000000E-03 0.  1.
</event>
<event>
 8    1  0.1095698E+005  0.1043930E+01  0.7957747E-01            NaN
         13   -1    0    0    0    0  0.00000000000E+00  0.00000000000E+00  0.74505805969E-08  0.10566000000E+00  0.10566000000E+00 0.  1.
     999900   -1    0    0    0    0 -0.00000000000E+00 -0.00000000000E+00 -0.74505805969E-08  0.93827000000E+00  0.93827000000E+00 0. -1.
     999902    2    1    2    0    0 -0.18030509105E-01 -0.66112936326E-02 -0.13997851340E-01  0.10201655664E+01  0.10198887364E+01 0.  0.
     999903    2    3    3    0    0 -0.34680458036E-01  0.98837150681E-01  0.73307416012E-01  0.12942497290E+00  0.20132805151E-01 0.  0.
         14    1    1    2    0    0  0.18030509105E-01  0.66112936326E-02  0.13997851340E-01  0.23764433598E-01  0.00000000000E+00 0.  1.
     999901    1    3    3    0    0  0.16649948932E-01 -0.10544844431E+00 -0.87305267352E-01  0.89074059350E+00  0.88000000000E+00 0. -1.
        -11    1    4    4    0    0  0.15702279612E-02  0.14249298671E-01  0.13285524998E-01  0.19551839401E-01  0.51100000000E-03 0.  1.
         11    1    4    4    0    0 -0.36250685998E-01  0.84587852009E-01  0.60021891014E-01  0.10987313350E+00  0.51100000000E-03 0. -1.
</event>
<event>
 8    1  0.1095698E+005  0.1043930E+01  0.7957747E-01            NaN
         13   -1    0    0    0    0  0.00000000000E+00  0.00000000000E+00  0.74505805969E-08  0.10566000000E+00  0.10566000000E+00 0.  1.
     999900   -1    0    0    0    0 -0.00000000000E+00 -0.00000000000E+00 -0.74505805969E-08  0.93827000000E+00  0.93827000000E+00 0. -1.
     999902    2    1    2    0    0 -0.13536652659E-01  0.12679185723E-01  0.14497920543E-01  0.10203887083E+01  0.10201171127E+01 0.  0.
     999903    2    3    3    0    0 -0.57638122664E-01  0.11029320364E+00 -0.39917668545E-01  0.13222515775E+00  0.20083030817E-01 0.  0.
         14    1    1    2    0    0  0.13536652659E-01 -0.12679185723E-01 -0.14497920543E-01  0.23541291721E-01  0.00000000000E+00 0.  1.
     999901    1    3    3    0    0  0.44101470005E-01 -0.97614017917E-01  0.54415589087E-01  0.88816355053E+00  0.88000000000E+00 0. -1.
        -11    1    4    4    0    0 -0.14664602636E-01  0.49314726409E-01 -0.15843506988E-01  0.53835589027E-01  0.51100000000E-03 0. -1.
         11    1    4    4    0    0 -0.42973520027E-01  0.60978477232E-01 -0.24074161557E-01  0.78389568724E-01  0.51100000000E-03 0.  1.
</event>
<event>
 8    1  0.1095698E+005  0.1043930E+01  0.7957747E-01            NaN
         13   -1    0    0    0    0  0.00000000000E+00  0.00000000000E+00  0.74505805969E-08  0.10566000000E+00  0.10566000000E+00 0. -1.
     999900   -1    0    0    0    0 -0.00000000000E+00 -0.00000000000E+00 -0.74505805969E-08  0.93827000000E+00  0.93827000000E+00 0. -1.
     999902    2    1    2    0    0 -0.13075513715E-01  0.50635704798E-02  0.20331485561E-01  0.10192322651E+01  0.10189329870E+01 0.  0.
     999903    2    3    3    0    0  0.12289455881E+00  0.76123174056E-02  0.31626213625E-01  0.12871447884E+00  0.20153900712E-01 0.  0.
         14    1    1    2    0    0  0.13075513715E-01 -0.50635704798E-02 -0.20331485561E-01  0.24697734918E-01  0.00000000000E+00 0.  1.
     999901    1    3    3    0    0 -0.13597007252E+00 -0.25487469258E-02 -0.11294728063E-01  0.89051778624E+00  0.88000000000E+00 0. -1.
        -11    1    4    4    0    0  0.33183572063E-01 -0.11712738121E-02  0.17291719285E-01  0.37440432877E-01  0.51100000000E-03 0.  1.
         11    1    4    4    0    0  0.89710986745E-01  0.87835912177E-02  0.14334494340E-01  0.91274045963E-01  0.51100000000E-03 0. -1.
</event>
<event>
 8    1  0.1095698E+005  0.1043930E+01  0.7957747E-01            NaN
         13   -1    0    0    0    0  0.00000000000E+00  0.00000000000E+00  0.74505805969E-08  0.10566000000E+00  0.10566000000E+00 0.  1.
     999900   -1    0    0    0    0 -0.00000000000E+00 -0.00000000000E+00 -0.74505805969E-08  0.93827000000E+00  0.93827000000E+00 0.  1.
     999902    2    1    2    0    0  0.72563214907E-02 -0.16232918658E-01 -0.21077059459E-01  0.10163545710E+01  0.10159804180E+01 0.  0.
     999903    2    3    3    0    0  0.15822795405E-02 -0.11705940784E+00  0.47441640264E-01  0.12793294367E+00  0.20266234833E-01 0.  0.
         14    1    1    2    0    0 -0.72563214907E-02  0.16232918658E-01  0.21077059459E-01  0.27575429011E-01  0.00000000000E+00 0.  1.
     999901    1    3    3    0    0  0.56740419502E-02  0.10082648918E+00 -0.68518699723E-01  0.88842162732E+00  0.88000000000E+00 0.  1.
        -11    1    4    4    0    0  0.70677029315E-02 -0.15118235731E-01  0.75849504755E-02  0.18338649652E-01  0.51100000000E-03 0.  1.
         11    1    4    4    0    0 -0.54854233910E-02 -0.10194117211E+00  0.39856689789E-01  0.10959429402E+00  0.51100000000E-03 0. -1.
</event>
<event>
 8    1  0.1095698E+005  0.1043930E+01  0.7957747E-01            NaN
         13   -1    0    0    0    0  0.00000000000E+00  0.00000000000E+00  0.74505805969E-08  0.10566000000E+00  0.10566000000E+00 0.  1.
     999900   -1    0    0    0    0 -0.00000000000E+00 -0.00000000000E+00 -0.74505805969E-08  0.93827000000E+00  0.93827000000E+00 0. -1.
     999902    2    1    2    0    0 -0.11258207614E-01 -0.18253263904E-01  0.21625020118E-02  0.10223752953E+01  0.10221480514E+01 0.  0.
     999903    2    3    3    0    0 -0.79247756141E-01 -0.10760017549E+00  0.59151800366E-02  0.13523408219E+00  0.19881222582E-01 0.  0.
         14    1    1    2    0    0  0.11258207614E-01  0.18253263904E-01 -0.21625020118E-02  0.21554704748E-01  0.00000000000E+00 0.  1.
     999901    1    3    3    0    0  0.67989548527E-01  0.89346911590E-01 -0.37526780249E-02  0.88714121306E+00  0.88000000000E+00 0.  1.
        -11    1    4    4    0    0 -0.65158257586E-01 -0.74568541247E-01  0.72741269770E-02  0.99293705338E-01  0.51100000000E-03 0. -1.
         11    1    4    4    0    0 -0.14089498554E-01 -0.33031634247E-01 -0.13589469403E-02  0.35940376853E-01  0.51100000000E-03 0.  1.
</event>
<event>
 8    1  0.1095698E+005  0.1043930E+01  0.7957747E-01            NaN
         13   -1    0    0    0    0  0.00000000000E+00  0.00000000000E+00  0.74505805969E-08  0.10566000000E+00  0.10566000000E+00 0.  1.
     999900   -1    0    0    0    0 -0.00000000000E+00 -0.00000000000E+00 -0.74505805969E-08  0.93827000000E+00  0.93827000000E+00 0. -1.
     999902    2    1    2    0    0 -0.15423796379E-01 -0.16479114943E-01 -0.72125892670E-02  0.10202345117E+01  0.10199593044E+01 0.  0.
     999903    2    3    3    0    0 -0.33971023699E-01 -0.11419506201E+00 -0.57838418140E-01  0.13318582049E+00  0.14093882605E-01 0.  0.
         14    1    1    2    0    0  0.15423796379E-01  0.16479114943E-01  0.72125892670E-02  0.23695488347E-01  0.00000000000E+00 0.  1.
     999901    1    3    3    0    0  0.18547227319E-01  0.97715947068E-01  0.50625828873E-01  0.88704869117E+00  0.88000000000E+00 0.  1.
        -11    1    4    4    0    0 -0.32428115153E-01 -0.11129894519E+00 -0.53382188405E-01  0.12762819834E+00  0.51100000000E-03 0. -1.
         11    1    4    4    0    0 -0.15429085457E-02 -0.28961168213E-02 -0.44562297350E-02  0.55576221420E-02  0.51100000000E-03 0.  1.
</event>
<event>
 8    1  0.1251103E+005  0.1043930E+01  0.7957747E-01            NaN
         13   -1    0    0    0    0  0.00000000000E+00  0.00000000000E+00  0.74505805969E-08  0.10566000000E+00  0.10566000000E+00 0.  1.
     999900   -1    0    0    0    0 -0.00000000000E+00 -0.00000000000E+00 -0.74505805969E-08  0.93827000000E+00  0.93827000000E+00 0.  1.
     999902    2    1    2    0    0 -0.61936912676E-02  0.12687167392E-01 -0.20295698309E-01  0.10192067033E+01  0.10189067979E+01 0.  0.
     999903    2    3    3    0    0  0.71925388101E-01 -0.23713135406E-01 -0.10492012019E+00  0.13095625139E+00  0.20142837773E-01 0.  0.
         14    1    1    2    0    0  0.61936912676E-02 -0.12687167392E-01  0.20295698309E-01  0.24723296661E-01  0.00000000000E+00 0.  1.
     999901    1    3    3    0    0 -0.78119079369E-01  0.36400302798E-01  0.84624421882E-01  0.88825045195E+00  0.88000000000E+00 0. -1.
        -11    1    4    4    0    0  0.37349436925E-01 -0.20935209917E-02 -0.45864204973E-01  0.59187411564E-01  0.51100000000E-03 0.  1.
         11    1    4    4    0    0  0.34575951176E-01 -0.21619614414E-01 -0.59055915218E-01  0.71768839828E-01  0.51100000000E-03 0. -1.
</event>
<event>
 8    1  0.1095698E+005  0.1043930E+01  0.7957747E-01            NaN
         13   -1    0    0    0    0  0.00000000000E+00  0.00000000000E+00  0.74505805969E-08  0.10566000000E+00  0.10566000000E+00 0. -1.
     999900   -1    0    0    0    0 -0.00000000000E+00 -0.00000000000E+00 -0.74505805969E-08  0.93827000000E+00  0.93827000000E+00 0. -1.
     999902    2    1    2    0    0 -0.22500761093E-02  0.11605580842E-01 -0.19743465643E-01  0.10209178992E+01  0.10206585129E+01 0.  0.
     999903    2    3    3    0    0 -0.66797807039E-01  0.11203369490E+00  0.12248663849E-01  0.13228090241E+00  0.18295123838E-01 0.  0.
         14    1    1    2    0    0  0.22500761093E-02 -0.11605580842E-01  0.19743465643E-01  0.23012100833E-01  0.00000000000E+00 0.  1.
     999901    1    3    3    0    0  0.64547730930E-01 -0.10042811406E+00 -0.31992129492E-01  0.88863699676E+00  0.88000000000E+00 0. -1.
        -11    1    4    4    0    0 -0.25351047203E-01  0.32168540051E-01  0.10492914280E-01  0.42283009997E-01  0.51100000000E-03 0. -1.
         11    1    4    4    0    0 -0.41446759837E-01  0.79865154852E-01  0.17557495690E-02  0.89997892409E-01  0.51100000000E-03 0.  1.
</event>
<event>
 8    1  0.1095698E+005  0.1043930E+01  0.7957747E-01            NaN
         13   -1    0    0    0    0  0.00000000000E+00  0.00000000000E+00  0.74505805969E-08  0.10566000000E+00  0.10566000000E+00 0. -1.
     999900   -1    0    0    0    0 -0.00000000000E+00 -0.00000000000E+00 -0.74505805969E-08  0.93827000000E+00  0.93827000000E+00 0. -1.
     999902    2    1    2    0    0  0.67493635244E-02 -0.22884513628E-01 -0.32268828178E-02  0.10198537120E+01  0.10195694808E+01 0.  0.
     999903    2    3    3    0    0 -0.16747827274E-01 -0.81152000242E-01 -0.10116837245E+00  0.13219400615E+00  0.19341117223E-01 0.  0.
         14    1    1    2    0    0 -0.67493635244E-02  0.22884513628E-01  0.32268828178E-02  0.24076288018E-01  0.00000000000E+00 0.  1.
     999901    1    3    3    0    0  0.23497190798E-01  0.58267486614E-01  0.97941489632E-01  0.88765970584E+00  0.88000000000E+00 0.  1.
        -11    1    4    4    0    0 -0.11719528967E-01 -0.44154083197E-01 -0.69818115856E-01  0.83437167047E-01  0.51100000000E-03 0. -1.
         11    1    4    4    0    0 -0.50282983066E-02 -0.36997917045E-01 -0.31350256594E-01  0.48756839100E-01  0.51100000000E-03 0.  1.
</event>
<event>
 8    1  0.1095698E+005  0.1043930E+01  0.7957747E-01            NaN
         13   -1    0    0    0    0  0.00000000000E+00  0.00000000000E+00  0.74505805969E-08  0.10566000000E+00  0.10566000000E+00 0. -1.
     999900   -1    0    0    0    0 -0.00000000000E+00 -0.00000000000E+00 -0.74505805969E-08  0.93827000000E+00  0.93827000000E+00 0. -1.
     999902    2    1    2    0    0  0.34437196830E-02 -0.23151011532E-02  0.23179429204E-01  0.10203820736E+01  0.10201103231E+01 0.  0.
     999903    2    3    3    0    0 -0.86574081021E-01 -0.89224062221E-01  0.36389533639E-01  0.13143276189E+00  0.22234386812E-01 0.  0.
         14    1    1    2    0    0 -0.34437196830E-02  0.23151011532E-02 -0.23179429204E-01  0.23547926381E-01  0.00000000000E+00 0.  1.
     999901    1    3    3    0    0  0.90017800704E-01  0.86908961068E-01 -0.13210104435E-01  0.88894931173E+00  0.88000000000E+00 0. -1.
        -11    1    4    4    0    0 -0.48419875057E-03 -0.74862431591E-02  0.31630069635E-02  0.81574517539E-02  0.51100000000E-03 0.  1.
         11    1    4    4    0    0 -0.86089882270E-01 -0.81737819062E-01  0.33226526676E-01  0.12327531014E+00  0.51100000000E-03 0. -1.
</event>
<event>
 8    1  0.1095698E+005  0.1043930E+01  0.7957747E-01            NaN
         13   -1    0    0    0    0  0.00000000000E+00  0.00000000000E+00  0.74505805969E-08  0.10566000000E+00  0.10566000000E+00 0.  1.
     999900   -1    0    0    0    0 -0.00000000000E+00 -0.00000000000E+00 -0.74505805969E-08  0.93827000000E+00  0.93827000000E+00 0.  1.
     999902    2    1    2    0    0 -0.23788337211E-01 -0.19285917728E-02 -0.99767182037E-03  0.10200427690E+01  0.10197630366E+01 0.  0.
     999903    2    3    3    0    0  0.55624237698E-01 -0.78759261495E-01  0.83468114354E-01  0.12911977692E+00  0.20196870749E-01 0.  0.
         14    1    1    2    0    0  0.23788337211E-01  0.19285917728E-02  0.99767182037E-03  0.23887230952E-01  0.00000000000E+00 0.  1.
     999901    1    3    3    0    0 -0.79412574909E-01  0.76830669722E-01 -0.84465786174E-01  0.89092299213E+00  0.88000000000E+00 0.  1.
        -11    1    4    4    0    0  0.34014042588E-01 -0.38956250977E-01  0.33209645339E-01  0.61462885125E-01  0.51100000000E-03 0.  1.
         11    1    4    4    0    0  0.21610195110E-01 -0.39803010518E-01  0.50258469015E-01  0.67656891798E-01  0.51100000000E-03 0. -1.
</event>
<event>
 7    1  0.1095698E+005  0.1043930E+01  0.7957747E-01            NaN
         13   -1    0    0    0    0  0.00000000000E+00  0.00000000000E+00  0.74505805969E-08  0.10566000000E+00  0.10566000000E+00 0. -1.
     999900   -1    0    0    0    0 -0.00000000000E+00 -0.00000000000E+00 -0.74505805969E-08  0.93827000000E+00  0.93827000000E+00 0.  1.
     999903    2    1    2    0    0 -0.47765012383E-01 -0.20656896929E-03 -0.40090884457E-01  0.66773825743E-01  0.23873116870E-01 0.  0.
         14    1    1    2    0    0 -0.59547230382E-01 -0.13903895116E-02 -0.60556752695E-01  0.84940721248E-01  0.00000000000E+00 0. -1.
     999901    1    1    2    0    0  0.10731224277E+00  0.15969584809E-02  0.10064763715E+00  0.89221545301E+00  0.88000000000E+00 0. -1.
        -11    1    3    3    0    0 -0.38966547150E-01  0.17209416433E-02 -0.18096569818E-01  0.43001167393E-01  0.51100000000E-03 0. -1.
         11    1    3    3    0    0 -0.87984652335E-02 -0.19275106126E-02 -0.21994314638E-01  0.23772658350E-01  0.51100000000E-03 0.  1.
</event>
<event>
 8    1  0.1095698E+005  0.1043930E+01  0.7957747E-01            NaN
         13   -1    0    0    0    0  0.00000000000E+00  0.00000000000E+00  0.74505805969E-08  0.10566000000E+00  0.10566000000E+00 0. -1.
     999900   -1    0    0    0    0 -0.00000000000E+00 -0.00000000000E+00 -0.74505805969E-08  0.93827000000E+00  0.93827000000E+00 0. -1.
     999902    2    1    2    0    0 -0.21110638003E-01  0.74759752539E-02  0.66484634526E-02  0.10205686792E+01  0.10203012681E+01 0.  0.
     999903    2    3    3    0    0  0.89900984455E-01 -0.64971351149E-01  0.62694552026E-01  0.12887738763E+00  0.19372937661E-01 0.  0.
         14    1    1    2    0    0  0.21110638003E-01 -0.74759752539E-02 -0.66484634526E-02  0.23361320793E-01  0.00000000000E+00 0.  1.
     999901    1    3    3    0    0 -0.11101162246E+00  0.72447326403E-01 -0.56046088573E-01  0.89169129157E+00  0.88000000000E+00 0. -1.
        -11    1    4    4    0    0  0.75901354633E-01 -0.61360740249E-01  0.50171713508E-01  0.10974341910E+00  0.51100000000E-03 0. -1.
         11    1    4    4    0    0  0.13999629821E-01 -0.36106109002E-02  0.12522838518E-01  0.19133968531E-01  0.51100000000E-03 0.  1.
</event>
<event>
 8    1  0.1095698E+005  0.1043930E+01  0.7957747E-01            NaN
         13   -1    0    0    0    0  0.00000000000E+00  0.00000000000E+00  0.74505805969E-08  0.10566000000E+00  0.10566000000E+00 0. -1.
     999900   -1    0    0    0    0 -0.00000000000E+00 -0.00000000000E+00 -0.74505805969E-08  0.93827000000E+00  0.93827000000E+00 0.  1.
     999902    2    1    2    0    0  0.17605932113E-01 -0.66203989926E-02 -0.14565040745E-01  0.10201405288E+01  0.10198631082E+01 0.  0.
     999903    2    3    3    0    0  0.32459373253E-01 -0.39220764755E-01  0.11718477889E+00  0.12961179622E+00  0.21796009169E-01 0.  0.
         14    1    1    2    0    0 -0.17605932113E-01  0.66203989926E-02  0.14565040745E-01  0.23789471207E-01  0.00000000000E+00 0.  1.
     999901    1    3    3    0    0 -0.14853441140E-01  0.32600365763E-01 -0.13174981964E+00  0.89052873257E+00  0.88000000000E+00 0.  1.
        -11    1    4    4    0    0  0.20552862208E-01 -0.36635488457E-01  0.10065936498E+00  0.10907404842E+00  0.51100000000E-03 0.  1.
         11    1    4    4    0    0  0.11906511045E-01 -0.25852762980E-02  0.16525413912E-01  0.20537747802E-01  0.51100000000E-03 0. -1.
</event>
<event>
 8    1  0.1095698E+005  0.1043930E+01  0.7957747E-01            NaN
         13   -1    0    0    0    0  0.00000000000E+00  0.00000000000E+00  0.74505805969E-08  0.10566000000E+00  0.10566000000E+00 0. -1.
     999900   -1    0    0    0    0 -0.00000000000E+00 -0.00000000000E+00 -0.74505805969E-08  0.93827000000E+00  0.93827000000E+00 0. -1.
     999902    2    1    2    0    0 -0.87739384086E-02 -0.96669888537E-02 -0.20138616742E-01  0.10199300718E+01  0.10196476621E+01 0.  0.
     999903    2    3    3    0    0 -0.12898709030E+00 -0.16443110883E-01 -0.14239115636E-02  0.13153412523E+00  0.19777593774E-01 0.  0.
         14    1    1    2    0    0  0.87739384086E-02  0.96669888537E-02  0.20138616742E-01  0.23999928187E-01  0.00000000000E+00 0. -1.
     999901    1    3    3    0    0  0.12021315189E+00  0.67761220291E-02 -0.18714705179E-01  0.88839594658E+00  0.88000000000E+00 0. -1.
        -11    1    4    4    0    0 -0.76054127818E-01  0.13426552898E-03 -0.78684980632E-03  0.76060033126E-01  0.51100000000E-03 0.  1.
         11    1    4    4    0    0 -0.52932962483E-01 -0.16577376412E-01 -0.63706175725E-03  0.55474092103E-01  0.51100000000E-03 0. -1.
</event>
<event>
 8    1  0.1095698E+005  0.1043930E+01  0.7957747E-01            NaN
         13   -1    0    0    0    0  0.00000000000E+00  0.00000000000E+00  0.74505805969E-08  0.10566000000E+00  0.10566000000E+00 0. -1.
     999900   -1    0    0    0    0 -0.00000000000E+00 -0.00000000000E+00 -0.74505805969E-08  0.93827000000E+00  0.93827000000E+00 0. -1.
     999902    2    1    2    0    0 -0.19959082585E-01 -0.41632195262E-02 -0.12246039914E-01  0.10201463319E+01  0.10198690483E+01 0.  0.
     999903    2    3    3    0    0 -0.39870959983E-01 -0.12185517564E+00  0.21096511767E-01  0.13146213313E+00  0.19971288355E-01 0.  0.
         14    1    1    2    0    0  0.19959082585E-01  0.41632195262E-02  0.12246039914E-01  0.23783668095E-01  0.00000000000E+00 0.  1.
     999901    1    3    3    0    0  0.19911877398E-01  0.11769195612E+00 -0.33342551681E-01  0.88868419877E+00  0.88000000000E+00 0. -1.
        -11    1    4    4    0    0 -0.59982193731E-02 -0.40920125054E-01  0.61839212255E-03  0.41365188262E-01  0.51100000000E-03 0. -1.
         11    1    4    4    0    0 -0.33872740610E-01 -0.80935050587E-01  0.20478119645E-01  0.90096944871E-01  0.51100000000E-03 0.  1.
</event>
<event>
 8    1  0.1095698E+005  0.1043930E+01  0.7957747E-01            NaN
         13   -1    0    0    0    0  0.00000000000E+00  0.00000000000E+00  0.74505805969E-08  0.10566000000E+00  0.10566000000E+00 0. -1.
     999900   -1    0    0    0    0 -0.00000000000E+00 -0.00000000000E+00 -0.74505805969E-08  0.93827000000E+00  0.93827000000E+00 0. -1.
     999902    2    1    2    0    0 -0.12106093715E-01 -0.10321994715E-01  0.15935722706E-01  0.10214122661E+01  0.10211640265E+01 0.  0.
     999903    2    3    3    0    0  0.27250650653E-01  0.11634175054E+00 -0.45421242983E-01  0.12935994989E+00  0.19821867775E-01 0.  0.
         14    1    1    2    0    0  0.12106093715E-01  0.10321994715E-01 -0.15935722706E-01  0.22517733858E-01  0.00000000000E+00 0.  1.
     999901    1    3    3    0    0 -0.39356744368E-01 -0.12666374526E+00  0.61356965689E-01  0.89205231625E+00  0.88000000000E+00 0.  1.
        -11    1    4    4    0    0  0.77952034499E-02  0.17929765438E-01 -0.14625703120E-01  0.24421588774E-01  0.51100000000E-03 0.  1.
         11    1    4    4    0    0  0.19455447203E-01  0.98411985103E-01 -0.30795539863E-01  0.10493836112E+00  0.51100000000E-03 0. -1.
</event>
<event>
 8    1  0.1095698E+005  0.1043930E+01  0.7957747E-01            NaN
         13   -1    0    0    0    0  0.00000000000E+00  0.00000000000E+00  0.74505805969E-08  0.10566000000E+00  0.10566000000E+00 0.  1.
     999900   -1    0    0    0    0 -0.00000000000E+00 -0.00000000000E+00 -0.74505805969E-08  0.93827000000E+00  0.93827000000E+00 0.  1.
     999902    2    1    2    0    0 -0.52162623534E-04 -0.12233599382E-01  0.20454156419E-01  0.10200964902E+01  0.10198180294E+01 0.  0.
     999903    2    3    3    0    0  0.10567380579E+00 -0.74122402805E-01 -0.11713374834E-01  0.13102790204E+00  0.19236011414E-01 0.  0.
         14    1    1    2    0    0  0.52162623534E-04  0.12233599382E-01 -0.20454156419E-01  0.23833509804E-01  0.00000000000E+00 0. -1.
     999901    1    3    3    0    0 -0.10572596841E+00  0.61888803423E-01  0.32167531252E-01  0.88906858816E+00  0.88000000000E+00 0.  1.
        -11    1    4    4    0    0  0.63716167631E-01 -0.54579282051E-01 -0.11906521680E-01  0.84738860190E-01  0.51100000000E-03 0. -1.
         11    1    4    4    0    0  0.41957638154E-01 -0.19543120755E-01  0.19314684643E-03  0.46289041846E-01  0.51100000000E-03 0.  1.
</event>
<event>
 8    1  0.1095698E+005  0.1043930E+01  0.7957747E-01            NaN
         13   -1    0    0    0    0  0.00000000000E+00  0.00000000000E+00  0.74505805969E-08  0.10566000000E+00  0.10566000000E+00 0.  1.
     999900   -1    0    0    0    0 -0.00000000000E+00 -0.00000000000E+00 -0.74505805969E-08  0.93827000000E+00  0.93827000000E+00 0.  1.
     999902    2    1    2    0    0  0.16556504302E-01 -0.17054617723E-01  0.49648769606E-02  0.10196477467E+01  0.10193585726E+01 0.  0.
     999903    2    3    3    0    0 -0.10978149125E+00  0.55049437408E-01  0.27493099770E-01  0.12742142751E+00  0.19948264969E-01 0.  0.
         14    1    1    2    0    0 -0.16556504302E-01  0.17054617723E-01 -0.49648769606E-02  0.24282253265E-01  0.00000000000E+00 0.  1.
     999901    1    3    3    0    0  0.12633799555E+00 -0.72104055132E-01 -0.22528222810E-01  0.89222631922E+00  0.88000000000E+00 0. -1.
        -11    1    4    4    0    0 -0.49771454014E-02  0.60393151318E-02 -0.18538954566E-02  0.80587438830E-02  0.51100000000E-03 0. -1.
         11    1    4    4    0    0 -0.10480434585E+00  0.49010122277E-01  0.29346995227E-01  0.11936268363E+00  0.51100000000E-03 0.  1.
</event>
<event>
 8    1  0.1095698E+005  0.1043930E+01  0.7957747E-01            NaN
         13   -1    0    0    0    0  0.00000000000E+00  0.00000000000E+00  0.74505805969E-08  0.10566000000E+00  0.10566000000E+00 0. -1.
     999900   -1    0    0    0    0 -0.00000000000E+00 -0.00000000000E+00 -0.74505805969E-08  0.93827000000E+00  0.93827000000E+00 0.  1.
     999902    2    1    2    0    0 -0.30085856512E-02  0.12852841184E-01 -0.18743024535E-01  0.10210051645E+01  0.10207477641E+01 0.  0.
     999903    2    3    3    0    0  0.35037824595E-01 -0.26785377143E-01 -0.12425166990E+00  0.13300134022E+00  0.17486378858E-01 0.  0.
         14    1    1    2    0    0  0.30085856512E-02 -0.12852841184E-01  0.18743024535E-01  0.22924835503E-01  0.00000000000E+00 0. -1.
     999901    1    3    3    0    0 -0.38046410246E-01  0.39638218326E-01  0.10550864537E+00  0.88800382428E+00  0.88000000000E+00 0. -1.
        -11    1    4    4    0    0  0.28973712682E-01 -0.19988527349E-01 -0.74230473170E-01  0.82154984755E-01  0.51100000000E-03 0. -1.
         11    1    4    4    0    0  0.60641119135E-02 -0.67968497941E-02 -0.50021196733E-01  0.50846355464E-01  0.51100000000E-03 0.  1.
</event>
<event>
 8    1  0.1095698E+005  0.1043930E+01  0.7957747E-01            NaN
         13   -1    0    0    0    0  0.00000000000E+00  0.00000000000E+00  0.74505805969E-08  0.10566000000E+00  0.10566000000E+00 0. -1.
     999900   -1    0    0    0    0 -0.00000000000E+00 -0.00000000000E+00 -0.74505805969E-08  0.93827000000E+00  0.93827000000E+00 0. -1.
     999902    2    1    2    0    0  0.21471859983E-01 -0.52122251392E-02 -0.62628043923E-02  0.10209641388E+01  0.10207058058E+01 0.  0.
     999903    2    3    3    0    0 -0.49440191048E-01  0.69254683875E-01  0.94929256686E-01  0.12921660011E+00  0.21090809383E-01 0.  0.
         14    1    1    2    0    0 -0.21471859983E-01  0.52122251392E-02  0.62628043923E-02  0.22965861205E-01  0.00000000000E+00 0.  1.
     999901    1    3    3    0    0  0.70912051031E-01 -0.74466909015E-01 -0.10119206108E+00  0.89174753868E+00  0.88000000000E+00 0. -1.
        -11    1    4    4    0    0 -0.27416918071E-01  0.44236737075E-01  0.71649792726E-01  0.88558061306E-01  0.51100000000E-03 0. -1.
         11    1    4    4    0    0 -0.22023272977E-01  0.25017946801E-01  0.23279463960E-01  0.40658538808E-01  0.51100000000E-03 0.  1.
</event>
<event>
 8    1  0.1095698E+005  0.1043930E+01  0.7957747E-01            NaN
         13   -1    0    0    0    0  0.00000000000E+00  0.00000000000E+00  0.74505805969E-08  0.10566000000E+00  0.10566000000E+00 0.  1.
     999900   -1    0    0    0    0 -0.00000000000E+00 -0.00000000000E+00 -0.74505805969E-08  0.93827000000E+00  0.93827000000E+00 0.  1.
     999902    2    1    2    0    0 -0.18782876382E-01  0.82121222633E-02 -0.87465013444E-02  0.10216424097E+01  0.10213992738E+01 0.  0.
     999903    2    3    3    0    0  0.10142304393E+00 -0.55536700944E-01 -0.56200254198E-01  0.12992203062E+00  0.18716476092E-01 0.  0.
         14    1    1    2    0    0  0.18782876382E-01 -0.82121222633E-02  0.87465013444E-02  0.22287590337E-01  0.00000000000E+00 0.  1.
     999901    1    3    3    0    0 -0.12020592031E+00  0.63748823207E-01  0.47453752854E-01  0.89172037904E+00  0.88000000000E+00 0. -1.
        -11    1    4    4    0    0  0.60501087886E-01 -0.37871607280E-01 -0.25495424549E-01  0.75795237761E-01  0.51100000000E-03 0.  1.
         11    1    4    4    0    0  0.40921956043E-01 -0.17665093664E-01 -0.30704829649E-01  0.54126792860E-01  0.51100000000E-03 0. -1.
</event>
<event>
 8    1  0.1095698E+005  0.1043930E+01  0.7957747E-01            NaN
         13   -1    0    0    0    0  0.00000000000E+00  0.00000000000E+00  0.74505805969E-08  0.10566000000E+00  0.10566000000E+00 0.  1.
     999900   -1    0    0    0    0 -0.00000000000E+00 -0.00000000000E+00 -0.74505805969E-08  0.93827000000E+00  0.93827000000E+00 0.  1.
     999902    2    1    2    0    0 -0.99286085106E-02 -0.96889856004E-02 -0.22883639794E-01  0.10171696809E+01  0.10168176066E+01 0.  0.
     999903    2    3    3    0    0  0.10677314562E+00  0.59566491039E-01  0.21519548427E-01  0.12566126052E+00  0.19467664229E-01 0.  0.
         14    1    1    2    0    0  0.99286085106E-02  0.96889856004E-02  0.22883639794E-01  0.26760319115E-01  0.00000000000E+00 0.  1.
     999901    1    3    3    0    0 -0.11670175413E+00 -0.69255476640E-01 -0.44403188221E-01  0.89150842037E+00  0.88000000000E+00 0.  1.
        -11    1    4    4    0    0  0.38698392138E-02  0.19775428012E-02 -0.28825678558E-02  0.52399093040E-02  0.51100000000E-03 0. -1.
         11    1    4    4    0    0  0.10290330640E+00  0.57588948238E-01  0.24402116283E-01  0.12042135121E+00  0.51100000000E-03 0.  1.
</event>
<event>
 8    1  0.1095698E+005  0.1043930E+01  0.7957747E-01            NaN
         13   -1    0    0    0    0  0.00000000000E+00  0.00000000000E+00  0.74505805969E-08  0.10566000000E+00  0.10566000000E+00 0.  1.
     999900   -1    0    0    0    0 -0.00000000000E+00 -0.00000000000E+00 -0.74505805969E-08  0.93827000000E+00  0.93827000000E+00 0.  1.
     999902    2    1    2    0    0 -0.20571507395E-01  0.11747833931E-01 -0.17255141444E-02  0.10201776124E+01  0.10199010662E+01 0.  0.
     999903    2    3    3    0    0  0.94129894184E-01 -0.40061196578E-01 -0.74665403753E-01  0.12823545357E+00  0.20101556768E-01 0.  0.
         14    1    1    2    0    0  0.20571507395E-01 -0.11747833931E-01  0.17255141444E-02  0.23752387619E-01  0.00000000000E+00 0.  1.
     999901    1    3    3    0    0 -0.11470140158E+00  0.51809030509E-01  0.72939889608E-01  0.89194215881E+00  0.88000000000E+00 0. -1.
        -11    1    4    4    0    0  0.66870092193E-01 -0.36518820326E-01 -0.60590815721E-01  0.97348556942E-01  0.51100000000E-03 0.  1.
         11    1    4    4    0    0  0.27259801991E-01 -0.35423762524E-02 -0.14074588032E-01  0.30886896629E-01  0.51100000000E-03 0. -1.
</event>
<event>
 8    1  0.1095698E+005  0.1043930E+01  0.7957747E-01            NaN
         13   -1    0    0    0    0  0.00000000000E+00  0.00000000000E+00  0.74505805969E-08  0.10566000000E+00  0.10566000000E+00 0. -1.
     999900   -1    0    0    0    0 -0.00000000000E+00 -0.00000000000E+00 -0.74505805969E-08  0.93827000000E+00  0.93827000000E+00 0. -1.
     999902    2    1    2    0    0 -0.14681219575E-01  0.18106394234E-01 -0.33402683824E-03  0.10206171003E+01  0.10203508093E+01 0.  0.
     999903    2    3    3    0    0 -0.77894668605E-01  0.49337891708E-01 -0.94149613743E-01  0.13282618404E+00  0.16638462785E-01 0.  0.
         14    1    1    2    0    0  0.14681219575E-01 -0.18106394234E-01  0.33402683824E-03  0.23312899741E-01  0.00000000000E+00 0.  1.
     999901    1    3    3    0    0  0.63213449029E-01 -0.31231497473E-01  0.93815586905E-01  0.88779091622E+00  0.88000000000E+00 0.  1.
        -11    1    4    4    0    0 -0.37013050347E-01  0.16417715727E-01 -0.49182541350E-01  0.63707854934E-01  0.51100000000E-03 0.  1.
         11    1    4    4    0    0 -0.40881618257E-01  0.32920175981E-01 -0.44967072393E-01  0.69118329107E-01  0.51100000000E-03 0. -1.
</event>
<event>
 8    1  0.1095698E+005  0.1043930E+01  0.7957747E-01            NaN
         13   -1    0    0    0    0  0.00000000000E+00  0.00000000000E+00  0.74505805969E-08  0.10566000000E+00  0.10566000000E+00 0. -1.
     999900   -1    0    0    0    0 -0.00000000000E+00 -0.00000000000E+00 -0.74505805969E-08  0.93827000000E+00  0.93827000000E+00 0. -1.
     999902    2    1    2    0    0 -0.16552227132E-01  0.49706591077E-02 -0.15442252801E-01  0.10207535713E+01  0.10204904245E+01 0.  0.
     999903    2    3    3    0    0  0.89130846457E-01 -0.87346906327E-01  0.25090771751E-01  0.12871412655E+00  0.19078514422E-01 0.  0.
         14    1    1    2    0    0  0.16552227132E-01 -0.49706591077E-02  0.15442252801E-01  0.23176428684E-01  0.00000000000E+00 0. -1.
     999901    1    3    3    0    0 -0.10568307359E+00  0.92317565435E-01 -0.40533024552E-01  0.89203944476E+00  0.88000000000E+00 0. -1.
        -11    1    4    4    0    0  0.46259682239E-01 -0.58116453479E-01  0.16922504448E-01  0.76184727102E-01  0.51100000000E-03 0. -1.
         11    1    4    4    0    0  0.42871164217E-01 -0.29230452849E-01  0.81682673038E-02  0.52529399452E-01  0.51100000000E-03 0.  1.
</event>
<event>
 8    1  0.1095698E+005  0.1043930E+01  0.7957747E-01            NaN
         13   -1    0    0    0    0  0.00000000000E+00  0.00000000000E+00  0.74505805969E-08  0.10566000000E+00  0.10566000000E+00 0. -1.
     999900   -1    0    0    0    0 -0.00000000000E+00 -0.00000000000E+00 -0.74505805969E-08  0.93827000000E+00  0.93827000000E+00 0. -1.
     999902    2    1    2    0    0 -0.22455537300E-01 -0.25776822550E-03 -0.70208204613E-02  0.10204010918E+01  0.10201297852E+01 0.  0.
     999903    2    3    3    0    0 -0.11352511253E+00 -0.22564678682E-01 -0.63469127635E-01  0.13362170710E+00  0.20719907035E-01 0.  0.
         14    1    1    2    0    0  0.22455537300E-01  0.25776822550E-03  0.70208204613E-02  0.23528908174E-01  0.00000000000E+00 0. -1.
     999901    1    3    3    0    0  0.91069575229E-01  0.22306910456E-01  0.56448307174E-01  0.88677938472E+00  0.88000000000E+00 0. -1.
        -11    1    4    4    0    0 -0.91331190073E-01 -0.26333693980E-01 -0.52152797724E-01  0.10842059376E+00  0.51100000000E-03 0.  1.
         11    1    4    4    0    0 -0.22193922456E-01  0.37690152982E-02 -0.11316329911E-01  0.25201113348E-01  0.51100000000E-03 0. -1.
</event>
<event>
 8    1  0.1095698E+005  0.1043930E+01  0.7957747E-01            NaN
         13   -1    0    0    0    0  0.00000000000E+00  0.00000000000E+00  0.74505805969E-08  0.10566000000E+00  0.10566000000E+00 0.  1.
     999900   -1    0    0    0    0 -0.00000000000E+00 -0.00000000000E+00 -0.74505805969E-08  0.93827000000E+00  0.93827000000E+00 0.  1.
     999902    2    1    2    0    0  0.91257376925E-02 -0.21380798053E-01 -0.64977367741E-02  0.10197921004E+01  0.10195063952E+01 0.  0.
     999903    2    3    3    0    0  0.47958656530E-02 -0.17842089846E-01 -0.12850428167E+00  0.13135703398E+00  0.19999486800E-01 0.  0.
         14    1    1    2    0    0 -0.91257376925E-02  0.21380798053E-01  0.64977367741E-02  0.24137899598E-01  0.00000000000E+00 0. -1.
     999901    1    3    3    0    0  0.43298720395E-02 -0.35387082073E-02  0.12200654489E+00  0.88843506642E+00  0.88000000000E+00 0. -1.
        -11    1    4    4    0    0  0.47058362239E-02 -0.33754455547E-02 -0.74975905886E-02  0.94875451458E-02  0.51100000000E-03 0.  1.
         11    1    4    4    0    0  0.90029429142E-04 -0.14466644291E-01 -0.12100669108E+00  0.12186948884E+00  0.51100000000E-03 0. -1.
</event>
<event>
 8    1  0.1095698E+005  0.1043930E+01  0.7957747E-01            NaN
         13   -1    0    0    0    0  0.00000000000E+00  0.00000000000E+00  0.74505805969E-08  0.10566000000E+00  0.10566000000E+00 0.  1.
     999900   -1    0    0    0    0 -0.00000000000E+00 -0.00000000000E+00 -0.74505805969E-08  0.93827000000E+00  0.93827000000E+00 0. -1.
     999902    2    1    2    0    0  0.78103867458E-02 -0.18190764460E-01 -0.16800170976E-01  0.10179655667E+01  0.10176343858E+01 0.  0.
     999903    2    3    3    0    0 -0.42863992688E-01 -0.11345614243E+00 -0.45711870533E-01  0.13090340914E+00  0.18344189587E-01 0.  0.
         14    1    1    2    0    0 -0.78103867458E-02  0.18190764460E-01  0.16800170976E-01  0.25964433319E-01  0.00000000000E+00 0.  1.
     999901    1    3    3    0    0  0.50674379434E-01  0.95265377973E-01  0.28911699556E-01  0.88706215754E+00  0.88000000000E+00 0.  1.
        -11    1    4    4    0    0 -0.17770726466E-01 -0.71304029492E-01 -0.24599178867E-01  0.77494800231E-01  0.51100000000E-03 0.  1.
         11    1    4    4    0    0 -0.25093266222E-01 -0.42152112941E-01 -0.21112691666E-01  0.53408608908E-01  0.51100000000E-03 0. -1.
</event>
<event>
 8    1  0.1095698E+005  0.1043930E+01  0.7957747E-01            NaN
         13   -1    0    0    0    0  0.00000000000E+00  0.00000000000E+00  0.74505805969E-08  0.10566000000E+00  0.10566000000E+00 0.  1.
     999900   -1    0    0    0    0 -0.00000000000E+00 -0.00000000000E+00 -0.74505805969E-08  0.93827000000E+00  0.93827000000E+00 0. -1.
     999902    2    1    2    0    0 -0.23800979588E-01  0.19022804428E-02  0.18678303813E-03  0.10200523915E+01  0.10197728871E+01 0.  0.
     999903    2    3    3    0    0  0.11605300584E+00 -0.28453770692E-01 -0.40153049016E-01  0.12757946242E+00  0.19655397561E-01 0.  0.
         14    1    1    2    0    0  0.23800979588E-01 -0.19022804428E-02 -0.18678303813E-03  0.23877608510E-01  0.00000000000E+00 0.  1.
     999901    1    3    3    0    0 -0.13985398543E+00  0.30356051134E-01  0.40339832054E-01  0.89247292907E+00  0.88000000000E+00 0. -1.
        -11    1    4    4    0    0  0.16212948432E-01 -0.49114481554E-02 -0.13299314175E-01  0.21543326075E-01  0.51100000000E-03 0. -1.
         11    1    4    4    0    0  0.99840057411E-01 -0.23542322536E-01 -0.26853734841E-01  0.10603613634E+00  0.51100000000E-03 0.  1.
</event>
<event>
 8    1  0.1095698E+005  0.1043930E+01  0.7957747E-01            NaN
         13   -1    0    0    0    0  0.00000000000E+00  0.00000000000E+00  0.74505805969E-08  0.10566000000E+00  0.10566000000E+00 0. -1.
     999900   -1    0    0    0    0 -0.00000000000E+00 -0.00000000000E+00 -0.74505805969E-08  0.93827000000E+00  0.93827000000E+00 0. -1.
     999902    2    1    2    0    0 -0.54196487331E-02  0.77777211635E-02 -0.24150164000E-01  0.10179859070E+01  0.10176552515E+01 0.  0.
     999903    2    3    3    0    0 -0.81041575416E-01 -0.67870069717E-01 -0.73442677470E-01  0.13013962757E+00  0.19194074120E-01 0.  0.
         14    1    1    2    0    0  0.54196487331E-02 -0.77777211635E-02  0.24150164000E-01  0.25944092971E-01  0.00000000000E+00 0. -1.
     999901    1    3    3    0    0  0.75621926683E-01  0.75647790881E-01  0.49292513471E-01  0.88784627946E+00  0.88000000000E+00 0.  1.
        -11    1    4    4    0    0 -0.17950366712E-01 -0.19629335926E-01 -0.28052619677E-01  0.38661829830E-01  0.51100000000E-03 0.  1.
         11    1    4    4    0    0 -0.63091208704E-01 -0.48240733791E-01 -0.45390057793E-01  0.91477797743E-01  0.51100000000E-03 0. -1.
</event>
<event>
 8    1  0.1095698E+005  0.1043930E+01  0.7957747E-01            NaN
         13   -1    0    0    0    0  0.00000000000E+00  0.00000000000E+00  0.74505805969E-08  0.10566000000E+00  0.10566000000E+00 0. -1.
     999900   -1    0    0    0    0 -0.00000000000E+00 -0.00000000000E+00 -0.74505805969E-08  0.93827000000E+00  0.93827000000E+00 0. -1.
     999902    2    1    2    0    0  0.67604874639E-03 -0.21070397771E-01 -0.96487327527E-02  0.10207455926E+01  0.10204822625E+01 0.  0.
     999903    2    3    3    0    0 -0.72513142662E-01 -0.10630248874E+00 -0.29048806247E-01  0.13339136233E+00  0.19774919177E-01 0.  0.
         14    1    1    2    0    0 -0.67604874639E-03  0.21070397771E-01  0.96487327527E-02  0.23184407430E-01  0.00000000000E+00 0. -1.
     999901    1    3    3    0    0  0.73189191409E-01  0.85232090972E-01  0.19400073494E-01  0.88735423024E+00  0.88000000000E+00 0.  1.
        -11    1    4    4    0    0 -0.28950757602E-01 -0.43063034323E-01 -0.18552554384E-02  0.51925662101E-01  0.51100000000E-03 0.  1.
         11    1    4    4    0    0 -0.43562385060E-01 -0.63239454420E-01 -0.27193550809E-01  0.81465700231E-01  0.51100000000E-03 0. -1.
</event>
<event>
 7    1  0.1095698E+005  0.1043930E+01  0.7957747E-01            NaN
         13   -1    0    0    0    0  0.00000000000E+00  0.00000000000E+00  0.74505805969E-08  0.10566000000E+00  0.10566000000E+00 0.  1.
     999900   -1    0    0    0    0 -0.00000000000E+00 -0.00000000000E+00 -0.74505805969E-08  0.93827000000E+00  0.93827000000E+00 0.  1.
     999902    2    1    2    0    0 -0.10781121113E-01 -0.64506306780E-02 -0.19390013628E-01  0.10208255451E+01  0.10205640488E+01 0.  0.
         14    1    1    2    0    0  0.10781121113E-01  0.64506306780E-02  0.19390013628E-01  0.23104454918E-01  0.00000000000E+00 0.  1.
     999901    1    3    3    0    0 -0.84956013945E-01 -0.78159050550E-01  0.25688173918E-01  0.88791116885E+00  0.88000000000E+00 0. -1.
        -11    1    3    3    0    0 -0.64736375656E-02  0.26856741028E-01  0.47537731092E-02  0.28036618943E-01  0.51100000000E-03 0.  1.
         11    1    3    3    0    0  0.80648530398E-01  0.44851678844E-01 -0.49831960654E-01  0.10487775729E+00  0.51100000000E-03 0. -1.
</event>
<event>
 8    1  0.1095698E+005  0.1043930E+01  0.7957747E-01            NaN
         13   -1    0    0    0    0  0.00000000000E+00  0.00000000000E+00  0.74505805969E-08  0.10566000000E+00  0.10566000000E+00 0.  1.
     999900   -1    0    0    0    0 -0.00000000000E+00 -0.00000000000E+00 -0.74505805969E-08  0.93827000000E+00  0.93827000000E+00 0. -1.
     999902    2    1    2    0    0 -0.17824526987E-01  0.14614284981E-01  0.31890882231E-02  0.10206606775E+01  0.10203953926E+01 0.  0.
     999903    2    3    3    0    0 -0.62464564637E-01 -0.92723045185E-01 -0.64753927402E-01  0.13041897501E+00  0.17794745990E-01 0.  0.
         14    1    1    2    0    0  0.17824526987E-01 -0.14614284981E-01 -0.31890882231E-02  0.23269322541E-01  0.00000000000E+00 0. -1.
     999901    1    3    3    0    0  0.44640037650E-01  0.10733733017E+00  0.67943015625E-01  0.89024170245E+00  0.88000000000E+00 0.  1.
        -11    1    4    4    0    0 -0.18139994371E-01 -0.34002295866E-01 -0.31049048792E-01  0.49492626440E-01  0.51100000000E-03 0. -1.
         11    1    4    4    0    0 -0.44324570265E-01 -0.58720749318E-01 -0.33704878610E-01  0.80926348570E-01  0.51100000000E-03 0.  1.
</event>
<event>
 8    1  0.1095698E+005  0.1043930E+01  0.7957747E-01            NaN
         13   -1    0    0    0    0  0.00000000000E+00  0.00000000000E+00  0.74505805969E-08  0.10566000000E+00  0.10566000000E+00 0. -1.
     999900   -1    0    0    0    0 -0.00000000000E+00 -0.00000000000E+00 -0.74505805969E-08  0.93827000000E+00  0.93827000000E+00 0.  1.
     999902    2    1    2    0    0  0.34736334707E-02 -0.23655979002E-01  0.47249831351E-02  0.10195579476E+01  0.10192666048E+01 0.  0.
     999903    2    3    3    0    0 -0.10186061342E-01  0.95828042353E-01 -0.80811644502E-01  0.12726901835E+00  0.19496450873E-01 0.  0.
         14    1    1    2    0    0 -0.34736334707E-02  0.23655979002E-01 -0.47249831351E-02  0.24372052389E-01  0.00000000000E+00 0.  1.
     999901    1    3    3    0    0  0.13659694812E-01 -0.11948402136E+00  0.85536627637E-01  0.89228892927E+00  0.88000000000E+00 0. -1.
        -11    1    4    4    0    0  0.35461496654E-04  0.45820884228E-01 -0.49176059495E-01  0.67216818115E-01  0.51100000000E-03 0.  1.
         11    1    4    4    0    0 -0.10221522838E-01  0.50007158125E-01 -0.31635585007E-01  0.60052200231E-01  0.51100000000E-03 0. -1.
</event>
<event>
 8    1  0.1095698E+005  0.1043930E+01  0.7957747E-01            NaN
         13   -1    0    0    0    0  0.00000000000E+00  0.00000000000E+00  0.74505805969E-08  0.10566000000E+00  0.10566000000E+00 0.  1.
     999900   -1    0    0    0    0 -0.00000000000E+00 -0.00000000000E+00 -0.74505805969E-08  0.93827000000E+00  0.93827000000E+00 0. -1.
     999902    2    1    2    0    0 -0.73961535782E-02 -0.22699467626E-01  0.78229121568E-03  0.10200431648E+01  0.10197634417E+01 0.  0.
     999903    2    3    3    0    0  0.18240634128E-01 -0.13149783579E-01  0.12722081908E+00  0.13058538460E+00  0.19020208258E-01 0.  0.
         14    1    1    2    0    0  0.73961535782E-02  0.22699467626E-01 -0.78229121568E-03  0.23886835240E-01  0.00000000000E+00 0.  1.
     999901    1    3    3    0    0 -0.25636787707E-01 -0.95496840461E-02 -0.12643852787E+00  0.88945778016E+00  0.88000000000E+00 0. -1.
        -11    1    4    4    0    0  0.84459599087E-02 -0.16701566616E-01  0.90224260583E-01  0.92146377493E-01  0.51100000000E-03 0. -1.
         11    1    4    4    0    0  0.97946742196E-02  0.35517830369E-02  0.36996558501E-01  0.38439007112E-01  0.51100000000E-03 0.  1.
</event>
<event>
 8    1  0.1095698E+005  0.1043930E+01  0.7957747E-01            NaN
         13   -1    0    0    0    0  0.00000000000E+00  0.00000000000E+00  0.74505805969E-08  0.10566000000E+00  0.10566000000E+00 0. -1.
     999900   -1    0    0    0    0 -0.00000000000E+00 -0.00000000000E+00 -0.74505805969E-08  0.93827000000E+00  0.93827000000E+00 0. -1.
     999902    2    1    2    0    0  0.33759847544E-01  0.56059606536E-02 -0.43425482824E-02  0.10094334520E+01  0.10088438344E+01 0.  0.
     999903    2    3    3    0    0  0.12191836381E+00 -0.16211145810E-01  0.45464224139E-02  0.12471489563E+00  0.20155558849E-01 0.  0.
         14    1    1    2    0    0 -0.33759847544E-01 -0.56059606536E-02  0.43425482824E-02  0.34496548040E-01  0.00000000000E+00 0. -1.
     999901    1    3    3    0    0 -0.88158516261E-01  0.21817106464E-01 -0.88889706963E-02  0.88471855634E+00  0.88000000000E+00 0.  1.
        -11    1    4    4    0    0  0.10642284997E+00 -0.19052248459E-01  0.85460679746E-02  0.10845325060E+00  0.51100000000E-03 0.  1.
         11    1    4    4    0    0  0.15495513840E-01  0.28411026483E-02 -0.39996455607E-02  0.16261645028E-01  0.51100000000E-03 0. -1.
</event>
<event>
 8    1  0.1095698E+005  0.1043930E+01  0.7957747E-01            NaN
         13   -1    0    0    0    0  0.00000000000E+00  0.00000000000E+00  0.74505805969E-08  0.10566000000E+00  0.10566000000E+00 0. -1.
     999900   -1    0    0    0    0 -0.00000000000E+00 -0.00000000000E+00 -0.74505805969E-08  0.93827000000E+00  0.93827000000E+00 0. -1.
     999902    2    1    2    0    0 -0.15686627087E-01 -0.48415241848E-02 -0.16803555093E-01  0.10204380846E+01  0.10201676403E+01 0.  0.
     999903    2    3    3    0    0 -0.71075317027E-01 -0.71220801202E-01  0.81192563852E-01  0.13078795408E+00  0.19726968678E-01 0.  0.
         14    1    1    2    0    0  0.15686627087E-01  0.48415241848E-02  0.16803555093E-01  0.23491915408E-01  0.00000000000E+00 0.  1.
     999901    1    3    3    0    0  0.55388689941E-01  0.66379277017E-01 -0.97996118945E-01  0.88965013051E+00  0.88000000000E+00 0. -1.
        -11    1    4    4    0    0 -0.43741610342E-01 -0.55037964038E-01  0.50049916720E-01  0.86300412777E-01  0.51100000000E-03 0.  1.
         11    1    4    4    0    0 -0.27333706685E-01 -0.16182837164E-01  0.31142647132E-01  0.44487541304E-01  0.51100000000E-03 0. -1.
</event>
<event>
 8    1  0.1095698E+005  0.1043930E+01  0.7957747E-01            NaN
         13   -1    0    0    0    0  0.00000000000E+00  0.00000000000E+00  0.74505805969E-08  0.10566000000E+00  0.10566000000E+00 0.  1.
     999900   -1    0    0    0    0 -0.00000000000E+00 -0.00000000000E+00 -0.74505805969E-08  0.93827000000E+00  0.93827000000E+00 0. -1.
     999902    2    1    2    0    0  0.34176220729E-02  0.14435671531E-01  0.18229677033E-01  0.10204270241E+01  0.10201563221E+01 0.  0.
     999903    2    3    3    0    0 -0.32933176922E-01  0.96016940749E-01 -0.79764044589E-01  0.13049463700E+00  0.19044695386E-01 0.  0.
         14    1    1    2    0    0 -0.34176220729E-02 -0.14435671531E-01 -0.18229677033E-01  0.23502975937E-01  0.00000000000E+00 0. -1.
     999901    1    3    3    0    0  0.36350798995E-01 -0.81581269218E-01  0.97993721622E-01  0.88993238707E+00  0.88000000000E+00 0.  1.
        -11    1    4    4    0    0 -0.20487259365E-01  0.80836800004E-01 -0.67999842277E-01  0.10760369744E+00  0.51100000000E-03 0. -1.
         11    1    4    4    0    0 -0.12445917557E-01  0.15180140745E-01 -0.11764202312E-01  0.22890939559E-01  0.51100000000E-03 0.  1.
</event>
<event>
 8    1  0.1095698E+005  0.1043930E+01  0.7957747E-01            NaN
         13   -1    0    0    0    0  0.00000000000E+00  0.00000000000E+00  0.74505805969E-08  0.10566000000E+00  0.10566000000E+00 0. -1.
     999900   -1    0    0    0    0 -0.00000000000E+00 -0.00000000000E+00 -0.74505805969E-08  0.93827000000E+00  0.93827000000E+00 0.  1.
     999902    2    1    2    0    0  0.21750657711E-01 -0.76593837090E-02  0.22491003490E-02  0.10207607160E+01  0.10204977332E+01 0.  0.
     999903    2    3    3    0    0  0.22068825435E-01 -0.11713342512E+00 -0.53520079483E-01  0.13222547842E+00  0.20295464980E-01 0.  0.
         14    1    1    2    0    0 -0.21750657711E-01  0.76593837090E-02 -0.22491003490E-02  0.23169284021E-01  0.00000000000E+00 0. -1.
     999901    1    3    3    0    0 -0.31816772336E-03  0.10947404141E+00  0.55769179832E-01  0.88853523756E+00  0.88000000000E+00 0. -1.
        -11    1    4    4    0    0  0.21208428644E-03 -0.48106826576E-01 -0.26622026410E-01  0.54984590151E-01  0.51100000000E-03 0. -1.
         11    1    4    4    0    0  0.21856741148E-01 -0.69026598540E-01 -0.26898053073E-01  0.77240888264E-01  0.51100000000E-03 0.  1.
</event>
<event>
 8    1  0.1095698E+005  0.1043930E+01  0.7957747E-01            NaN
         13   -1    0    0    0    0  0.00000000000E+00  0.00000000000E+00  0.74505805969E-08  0.10566000000E+00  0.10566000000E+00 0.  1.
     999900   -1    0    0    0    0 -0.00000000000E+00 -0.00000000000E+00 -0.74505805969E-08  0.93827000000E+00  0.93827000000E+00 0. -1.
     999902    2    1    2    0    0  0.13120480576E-02  0.25148668317E-01  0.10795458506E-01  0.10165307498E+01  0.10161614273E+01 0.  0.
     999903    2    3    3    0    0  0.10955061285E+00 -0.58282145544E-01  0.98074946393E-02  0.12598189448E+00  0.19419204937E-01 0.  0.
         14    1    1    2    0    0 -0.13120480576E-02 -0.25148668317E-01 -0.10795458506E-01  0.27399250220E-01  0.00000000000E+00 0.  1.
     999901    1    3    3    0    0 -0.10823856479E+00  0.83430813861E-01  0.98796386652E-03  0.89054885530E+00  0.88000000000E+00 0.  1.
        -11    1    4    4    0    0  0.31037687551E-01 -0.23134292007E-01  0.98962396743E-02  0.39959106545E-01  0.51100000000E-03 0.  1.
         11    1    4    4    0    0  0.78512925297E-01 -0.35147853536E-01 -0.88745035039E-04  0.86022787932E-01  0.51100000000E-03 0. -1.
</event>
<event>
 8    1  0.1095698E+005  0.1043930E+01  0.7957747E-01            NaN
         13   -1    0    0    0    0  0.00000000000E+00  0.00000000000E+00  0.74505805969E-08  0.10566000000E+00  0.10566000000E+00 0. -1.
     999900   -1    0    0    0    0 -0.00000000000E+00 -0.00000000000E+00 -0.74505805969E-08  0.93827000000E+00  0.93827000000E+00 0. -1.
     999902    2    1    2    0    0  0.13120051781E-01  0.79513522184E-02 -0.18361203825E-01  0.10200031622E+01  0.10197224904E+01 0.  0.
     999903    2    3    3    0    0 -0.57987631487E-01 -0.75243861294E-01 -0.87120450645E-01  0.13056200047E+00  0.20790838801E-01 0.  0.
         14    1    1    2    0    0 -0.13120051781E-01 -0.79513522184E-02  0.18361203825E-01  0.23926837792E-01  0.00000000000E+00 0. -1.
     999901    1    3    3    0    0  0.71107683268E-01  0.83195213512E-01  0.68759246820E-01  0.88944116174E+00  0.88000000000E+00 0. -1.
        -11    1    4    4    0    0 -0.30560027330E-01 -0.33160344377E-01 -0.28441155745E-01  0.53316828214E-01  0.51100000000E-03 0.  1.
         11    1    4    4    0    0 -0.27427604157E-01 -0.42083516916E-01 -0.58679294900E-01  0.77245172256E-01  0.51100000000E-03 0. -1.
</event>
