<event>
 8    1  0.1123470E+005  0.1043930E+01  0.7957747E-01            NaN
         13   -1    0    0    0    0  0.00000000000E+00  0.00000000000E+00  0.74505805969E-08  0.10566000000E+00  0.10566000000E+00 0. -1.
     999900   -1    0    0    0    0 -0.00000000000E+00 -0.00000000000E+00 -0.74505805969E-08  0.93827000000E+00  0.93827000000E+00 0.  1.
     999902    2    1    2    0    0  0.12715695069E-01  0.41823753347E-02  0.18796722760E-01  0.10208540829E+01  0.10205932395E+01 0.  0.
     999903    2    3    3    0    0  0.10786958611E+00 -0.61739850555E-01 -0.37852412945E-01  0.13146714379E+00  0.20078545142E-01 0.  0.
         14    1    1    2    0    0 -0.12715695069E-01 -0.41823753347E-02 -0.18796722760E-01  0.23075917123E-01  0.00000000000E+00 0.  1.
     999901    1    3    3    0    0 -0.95153891044E-01  0.65922225890E-01  0.56649135705E-01  0.88938693909E+00  0.88000000000E+00 0. -1.
        -11    1    4    4    0    0  0.64015788499E-01 -0.34954499923E-01 -0.11924377330E-01  0.73907307742E-01  0.51100000000E-03 0. -1.
         11    1    4    4    0    0  0.43853797615E-01 -0.26785350632E-01 -0.25928035615E-01  0.57559836045E-01  0.51100000000E-03 0.  1.
</event>
<event>
 8    1  0.1123470E+005  0.1043930E+01  0.7957747E-01            NaN
         13   -1    0    0    0    0  0.00000000000E+00  0.00000000000E+00  0.74505805969E-08  0.10566000000E+00  0.10566000000E+00 0. -1.
     999900   -1    0    0    0    0 -0.00000000000E+00 -0.00000000000E+00 -0.74505805969E-08  0.93827000000E+00  0.93827000000E+00 0.  1.
     999902    2    1    2    0    0  0.22831055239E-01 -0.47998440500E-02 -0.18310264516E-03  0.10205991382E+01  0.10203324320E+01 0.  0.
     999903    2    3    3    0    0  0.93694183546E-01 -0.38046513444E-01  0.84950850773E-01  0.13303240042E+00  0.15963561559E-01 0.  0.
         14    1    1    2    0    0 -0.22831055239E-01  0.47998440500E-02  0.18310264516E-03  0.23330861810E-01  0.00000000000E+00 0. -1.
     999901    1    3    3    0    0 -0.70863128307E-01  0.33246669394E-01 -0.85133953419E-01  0.88756673777E+00  0.88000000000E+00 0.  1.
        -11    1    4    4    0    0  0.54370511909E-01 -0.21802595900E-01  0.59262847188E-01  0.83329778178E-01  0.51100000000E-03 0. -1.
         11    1    4    4    0    0  0.39323671636E-01 -0.16243917544E-01  0.25688003585E-01  0.49702622238E-01  0.51100000000E-03 0.  1.
</event>
<event>
 8    1  0.1123470E+005  0.1043930E+01  0.7957747E-01            NaN
         13   -1    0    0    0    0  0.00000000000E+00  0.00000000000E+00  0.74505805969E-08  0.10566000000E+00  0.10566000000E+00 0. -1.
     999900   -1    0    0    0    0 -0.00000000000E+00 -0.00000000000E+00 -0.74505805969E-08  0.93827000000E+00  0.93827000000E+00 0. -1.
     999902    2    1    2    0    0  0.14770796018E-02 -0.12308232180E-01  0.19864507730E-01  0.10205147697E+01  0.10202461086E+01 0.  0.
     999903    2    3    3    0    0 -0.97401451181E-01 -0.86600424380E-01  0.13453578654E-01  0.13184306782E+00  0.14660135039E-01 0.  0.
         14    1    1    2    0    0 -0.14770796018E-02  0.12308232180E-01 -0.19864507730E-01  0.23415230319E-01  0.00000000000E+00 0.  1.
     999901    1    3    3    0    0  0.98878530783E-01  0.74292192200E-01  0.64109290759E-02  0.88867170186E+00  0.88000000000E+00 0. -1.
        -11    1    4    4    0    0 -0.12189421225E-01 -0.16770572616E-01 -0.80057320186E-03  0.20754183533E-01  0.51100000000E-03 0.  1.
         11    1    4    4    0    0 -0.85212029957E-01 -0.69829851763E-01  0.14254151856E-01  0.11108888429E+00  0.51100000000E-03 0. -1.
</event>
<event>
 8    1  0.1123470E+005  0.1043930E+01  0.7957747E-01            NaN
         13   -1    0    0    0    0  0.00000000000E+00  0.00000000000E+00  0.74505805969E-08  0.10566000000E+00  0.10566000000E+00 0. -1.
     999900   -1    0    0    0    0 -0.00000000000E+00 -0.00000000000E+00 -0.74505805969E-08  0.93827000000E+00  0.93827000000E+00 0. -1.
     999902    2    1    2    0    0 -0.20897596299E-01 -0.12315013817E-01 -0.27738208217E-02  0.10195155949E+01  0.10192232263E+01 0.  0.
     999903    2    3    3    0    0 -0.79096695852E-02 -0.88175818647E-01 -0.94868357758E-01  0.13136867476E+00  0.20498427684E-01 0.  0.
         14    1    1    2    0    0  0.20897596299E-01  0.12315013817E-01  0.27738208217E-02  0.24414405140E-01  0.00000000000E+00 0.  1.
     999901    1    3    3    0    0 -0.12987926713E-01  0.75860804831E-01  0.92094536936E-01  0.88814692010E+00  0.88000000000E+00 0.  1.
        -11    1    4    4    0    0 -0.93753464155E-02 -0.18229298223E-01 -0.16547966618E-01  0.26349587365E-01  0.51100000000E-03 0.  1.
         11    1    4    4    0    0  0.14656768302E-02 -0.69946520424E-01 -0.78320391140E-01  0.10501908740E+00  0.51100000000E-03 0. -1.
</event>
<event>
 8    1  0.1123470E+005  0.1043930E+01  0.7957747E-01            NaN
         13   -1    0    0    0    0  0.00000000000E+00  0.00000000000E+00  0.74505805969E-08  0.10566000000E+00  0.10566000000E+00 0. -1.
     999900   -1    0    0    0    0 -0.00000000000E+00 -0.00000000000E+00 -0.74505805969E-08  0.93827000000E+00  0.93827000000E+00 0.  1.
     999902    2    1    2    0    0  0.81012603059E-02 -0.10806318030E-01 -0.22133612284E-01  0.10180011797E+01  0.10176709184E+01 0.  0.
     999903    2    3    3    0    0 -0.92424490428E-01  0.37599627007E-01 -0.79415645440E-01  0.12910872650E+00  0.20154407387E-01 0.  0.
         14    1    1    2    0    0 -0.81012603059E-02  0.10806318030E-01  0.22133612284E-01  0.25928820272E-01  0.00000000000E+00 0. -1.
     999901    1    3    3    0    0  0.10052575073E+00 -0.48405945037E-01  0.57282033155E-01  0.88889245322E+00  0.88000000000E+00 0. -1.
        -11    1    4    4    0    0 -0.59091384608E-01  0.33383112306E-01 -0.48207348141E-01  0.83249224969E-01  0.51100000000E-03 0.  1.
         11    1    4    4    0    0 -0.33333105820E-01  0.42165147007E-02 -0.31208297298E-01  0.45859501536E-01  0.51100000000E-03 0. -1.
</event>
<event>
 8    1  0.1123470E+005  0.1043930E+01  0.7957747E-01            NaN
         13   -1    0    0    0    0  0.00000000000E+00  0.00000000000E+00  0.74505805969E-08  0.10566000000E+00  0.10566000000E+00 0.  1.
     999900   -1    0    0    0    0 -0.00000000000E+00 -0.00000000000E+00 -0.74505805969E-08  0.93827000000E+00  0.93827000000E+00 0.  1.
     999902    2    1    2    0    0 -0.14637952056E-01 -0.48275807994E-02  0.44643758292E-02  0.10278830119E+01  0.10277577439E+01 0.  0.
     999903    2    3    3    0    0  0.12903595344E+00 -0.36506007776E-01 -0.11670546796E-01  0.13552319117E+00  0.15727930500E-01 0.  0.
         14    1    1    2    0    0  0.14637952056E-01  0.48275807994E-02 -0.44643758292E-02  0.16046988138E-01  0.00000000000E+00 0. -1.
     999901    1    3    3    0    0 -0.14367390550E+00  0.31678426977E-01  0.16134922625E-01  0.89235982069E+00  0.88000000000E+00 0. -1.
        -11    1    4    4    0    0  0.54221817331E-01 -0.23086519215E-01 -0.28490506751E-02  0.59003144449E-01  0.51100000000E-03 0. -1.
         11    1    4    4    0    0  0.74814136111E-01 -0.13419488561E-01 -0.88214961209E-02  0.76520046721E-01  0.51100000000E-03 0.  1.
</event>
<event>
 8    1  0.1123470E+005  0.1043930E+01  0.7957747E-01            NaN
         13   -1    0    0    0    0  0.00000000000E+00  0.00000000000E+00  0.74505805969E-08  0.10566000000E+00  0.10566000000E+00 0.  1.
     999900   -1    0    0    0    0 -0.00000000000E+00 -0.00000000000E+00 -0.74505805969E-08  0.93827000000E+00  0.93827000000E+00 0.  1.
     999902    2    1    2    0    0 -0.32621075816E-02  0.21631874421E-01 -0.11317801205E-01  0.10192992883E+01  0.10190016521E+01 0.  0.
     999903    2    3    3    0    0 -0.88994401501E-01 -0.74583107610E-01 -0.52126472226E-01  0.12897760672E+00  0.20866492009E-01 0.  0.
         14    1    1    2    0    0  0.32621075816E-02 -0.21631874421E-01  0.11317801205E-01  0.24630711743E-01  0.00000000000E+00 0. -1.
     999901    1    3    3    0    0  0.85732293920E-01  0.96214982031E-01  0.40808671021E-01  0.89032168154E+00  0.88000000000E+00 0. -1.
        -11    1    4    4    0    0 -0.45197238759E-01 -0.40697535792E-01 -0.38380493117E-01  0.71919421465E-01  0.51100000000E-03 0.  1.
         11    1    4    4    0    0 -0.43797162743E-01 -0.33885571818E-01 -0.13745979108E-01  0.57058185253E-01  0.51100000000E-03 0. -1.
</event>
<event>
 8    1  0.1123470E+005  0.1043930E+01  0.7957747E-01            NaN
         13   -1    0    0    0    0  0.00000000000E+00  0.00000000000E+00  0.74505805969E-08  0.10566000000E+00  0.10566000000E+00 0. -1.
     999900   -1    0    0    0    0 -0.00000000000E+00 -0.00000000000E+00 -0.74505805969E-08  0.93827000000E+00  0.93827000000E+00 0.  1.
     999902    2    1    2    0    0  0.46855099412E-02 -0.23472583211E-01 -0.11000428316E-02  0.10199690680E+01  0.10196875862E+01 0.  0.
     999903    2    3    3    0    0 -0.30887449523E-01  0.11060605898E+00  0.52070529152E-01  0.12751759740E+00  0.19017434603E-01 0.  0.
         14    1    1    2    0    0 -0.46855099412E-02  0.23472583211E-01  0.11000428316E-02  0.23960931957E-01  0.00000000000E+00 0. -1.
     999901    1    3    3    0    0  0.35572959465E-01 -0.13407864219E+00 -0.53170571984E-01  0.89245147065E+00  0.88000000000E+00 0.  1.
        -11    1    4    4    0    0 -0.16458644577E-01  0.28682426067E-01  0.11992218651E-01  0.35180150306E-01  0.51100000000E-03 0. -1.
         11    1    4    4    0    0 -0.14428804947E-01  0.81923632910E-01  0.40078310501E-01  0.92337447089E-01  0.51100000000E-03 0.  1.
</event>
<event>
 8    1  0.1123470E+005  0.1043930E+01  0.7957747E-01            NaN
         13   -1    0    0    0    0  0.00000000000E+00  0.00000000000E+00  0.74505805969E-08  0.10566000000E+00  0.10566000000E+00 0.  1.
     999900   -1    0    0    0    0 -0.00000000000E+00 -0.00000000000E+00 -0.74505805969E-08  0.93827000000E+00  0.93827000000E+00 0.  1.
     999902    2    1    2    0    0 -0.12196422208E-01  0.20481649368E-01  0.33839573516E-02  0.10198530018E+01  0.10195687536E+01 0.  0.
     999903    2    3    3    0    0 -0.24280321271E-01  0.11335332201E-01  0.12701555714E+00  0.13108168801E+00  0.18205312908E-01 0.  0.
         14    1    1    2    0    0  0.12196422208E-01 -0.20481649368E-01 -0.33839573516E-02  0.24076998212E-01  0.00000000000E+00 0.  1.
     999901    1    3    3    0    0  0.12083899063E-01  0.91463171675E-02 -0.12363159979E+00  0.88877131378E+00  0.88000000000E+00 0.  1.
        -11    1    4    4    0    0 -0.94368972727E-02 -0.45326305192E-02  0.35108065032E-01  0.36639283847E-01  0.51100000000E-03 0. -1.
         11    1    4    4    0    0 -0.14843423999E-01  0.15867962720E-01  0.91907492108E-01  0.94442404160E-01  0.51100000000E-03 0.  1.
</event>
<event>
 8    1  0.1123470E+005  0.1043930E+01  0.7957747E-01            NaN
         13   -1    0    0    0    0  0.00000000000E+00  0.00000000000E+00  0.74505805969E-08  0.10566000000E+00  0.10566000000E+00 0. -1.
     999900   -1    0    0    0    0 -0.00000000000E+00 -0.00000000000E+00 -0.74505805969E-08  0.93827000000E+00  0.93827000000E+00 0.  1.
     999902    2    1    2    0    0 -0.16964268738E-01  0.15183993864E-01  0.47305471727E-02  0.10206766527E+01  0.10204117361E+01 0.  0.
     999903    2    3    3    0    0  0.97990910671E-01  0.57451637911E-01  0.60912935282E-01  0.13041955067E+00  0.19898850196E-01 0.  0.
         14    1    1    2    0    0  0.16964268738E-01 -0.15183993864E-01 -0.47305471727E-02  0.23253347287E-01  0.00000000000E+00 0.  1.
     999901    1    3    3    0    0 -0.11495517941E+00 -0.42267644047E-01 -0.56182388109E-01  0.89025710204E+00  0.88000000000E+00 0.  1.
        -11    1    4    4    0    0  0.70273446376E-01  0.30355301529E-01  0.40987430164E-01  0.86833358503E-01  0.51100000000E-03 0.  1.
         11    1    4    4    0    0  0.27717464296E-01  0.27096336382E-01  0.19925505118E-01  0.43586192166E-01  0.51100000000E-03 0. -1.
</event>
<event>
 8    1  0.1123470E+005  0.1043930E+01  0.7957747E-01            NaN
         13   -1    0    0    0    0  0.00000000000E+00  0.00000000000E+00  0.74505805969E-08  0.10566000000E+00  0.10566000000E+00 0. -1.
     999900   -1    0    0    0    0 -0.00000000000E+00 -0.00000000000E+00 -0.74505805969E-08  0.93827000000E+00  0.93827000000E+00 0.  1.
     999902    2    1    2    0    0 -0.13713207330E-01 -0.18290051448E-01 -0.73033492543E-02  0.10199317303E+01  0.10196493601E+01 0.  0.
     999903    2    3    3    0    0 -0.48170062749E-01 -0.11946555519E+00  0.25744680030E-01  0.13284891024E+00  0.19841133532E-01 0.  0.
         14    1    1    2    0    0  0.13713207330E-01  0.18290051448E-01  0.73033492543E-02  0.23998269679E-01  0.00000000000E+00 0. -1.
     999901    1    3    3    0    0  0.34456855419E-01  0.10117550374E+00 -0.33048029284E-01  0.88708282008E+00  0.88000000000E+00 0.  1.
        -11    1    4    4    0    0 -0.32080856866E-01 -0.61374138317E-01  0.64440416587E-02  0.69553957653E-01  0.51100000000E-03 0. -1.
         11    1    4    4    0    0 -0.16089205883E-01 -0.58091416875E-01  0.19300638371E-01  0.63294952587E-01  0.51100000000E-03 0.  1.
</event>
<event>
 7    1  0.1123470E+005  0.1043930E+01  0.7957747E-01            NaN
         13   -1    0    0    0    0  0.00000000000E+00  0.00000000000E+00  0.74505805969E-08  0.10566000000E+00  0.10566000000E+00 0.  1.
     999900   -1    0    0    0    0 -0.00000000000E+00 -0.00000000000E+00 -0.74505805969E-08  0.93827000000E+00  0.93827000000E+00 0. -1.
     999902    2    1    2    0    0 -0.23831449634E-01 -0.50544200827E-02  0.41689161357E-02  0.10192143164E+01  0.10189145979E+01 0.  0.
         14    1    1    2    0    0  0.23831449634E-01  0.50544200827E-02 -0.41689161357E-02  0.24715683599E-01  0.00000000000E+00 0. -1.
     999901    1    3    3    0    0  0.37246387173E-01  0.44034240546E-02  0.11267826503E+00  0.88797695629E+00  0.88000000000E+00 0.  1.
        -11    1    3    3    0    0 -0.20755728819E-02  0.29047254122E-02 -0.39251454430E-01  0.39416788661E-01  0.51100000000E-03 0.  1.
         11    1    3    3    0    0 -0.59002263925E-01 -0.12362569550E-01 -0.69257894463E-01  0.91820571445E-01  0.51100000000E-03 0. -1.
</event>
<event>
 8    1  0.1123470E+005  0.1043930E+01  0.7957747E-01            NaN
         13   -1    0    0    0    0  0.00000000000E+00  0.00000000000E+00  0.74505805969E-08  0.10566000000E+00  0.10566000000E+00 0. -1.
     999900   -1    0    0    0    0 -0.00000000000E+00 -0.00000000000E+00 -0.74505805969E-08  0.93827000000E+00  0.93827000000E+00 0. -1.
     999902    2    1    2    0    0  0.65308066468E-02 -0.21123723076E-01  0.95029215291E-02  0.10198640774E+01  0.10195800939E+01 0.  0.
     999903    2    3    3    0    0 -0.66241866283E-01  0.85412986434E-01  0.66665103768E-01  0.12862143511E+00  0.20392999000E-01 0.  0.
         14    1    1    2    0    0 -0.65308066468E-02  0.21123723076E-01 -0.95029215291E-02  0.24065922580E-01  0.00000000000E+00 0.  1.
     999901    1    3    3    0    0  0.72772672930E-01 -0.10653670951E+00 -0.57162182239E-01  0.89124264231E+00  0.88000000000E+00 0. -1.
        -11    1    4    4    0    0 -0.30359150781E-01  0.48738415514E-01  0.44863708699E-01  0.72870602181E-01  0.51100000000E-03 0.  1.
         11    1    4    4    0    0 -0.35882715502E-01  0.36674570920E-01  0.21801395069E-01  0.55750832926E-01  0.51100000000E-03 0. -1.
</event>
<event>
 8    1  0.1123470E+005  0.1043930E+01  0.7957747E-01            NaN
         13   -1    0    0    0    0  0.00000000000E+00  0.00000000000E+00  0.74505805969E-08  0.10566000000E+00  0.10566000000E+00 0. -1.
     999900   -1    0    0    0    0 -0.00000000000E+00 -0.00000000000E+00 -0.74505805969E-08  0.93827000000E+00  0.93827000000E+00 0. -1.
     999902    2    1    2    0    0 -0.13195492077E-01 -0.17647127965E-01  0.81596336556E-02  0.10204327287E+01  0.10201621597E+01 0.  0.
     999903    2    3    3    0    0  0.82715620396E-01  0.25595338355E-01  0.94740834717E-01  0.12994681823E+00  0.20331123982E-01 0.  0.
         14    1    1    2    0    0  0.13195492077E-01  0.17647127965E-01 -0.81596336556E-02  0.23497271288E-01  0.00000000000E+00 0.  1.
     999901    1    3    3    0    0 -0.95911112473E-01 -0.43242466321E-01 -0.86581201061E-01  0.89048591048E+00  0.88000000000E+00 0. -1.
        -11    1    4    4    0    0  0.66123416473E-02  0.80356693297E-02  0.15564303851E-01  0.18729754911E-01  0.51100000000E-03 0. -1.
         11    1    4    4    0    0  0.76103278748E-01  0.17559669026E-01  0.79176530865E-01  0.11121706332E+00  0.51100000000E-03 0.  1.
</event>
<event>
 8    1  0.1123470E+005  0.1043930E+01  0.7957747E-01            NaN
         13   -1    0    0    0    0  0.00000000000E+00  0.00000000000E+00  0.74505805969E-08  0.10566000000E+00  0.10566000000E+00 0. -1.
     999900   -1    0    0    0    0 -0.00000000000E+00 -0.00000000000E+00 -0.74505805969E-08  0.93827000000E+00  0.93827000000E+00 0. -1.
     999902    2    1    2    0    0  0.20072956331E-01  0.71489273178E-02  0.12490118436E-01  0.10192311378E+01  0.10189318321E+01 0.  0.
     999903    2    3    3    0    0  0.22542819263E-01 -0.12179002334E+00  0.32280068449E-01  0.12961155876E+00  0.20400119093E-01 0.  0.
         14    1    1    2    0    0 -0.20072956331E-01 -0.71489273178E-02 -0.12490118436E-01  0.24698862245E-01  0.00000000000E+00 0.  1.
     999901    1    3    3    0    0 -0.24698629317E-02  0.12893895066E+00 -0.19789950014E-01  0.88961957900E+00  0.88000000000E+00 0. -1.
        -11    1    4    4    0    0  0.14639861251E-01 -0.77024101787E-01  0.10178229658E-01  0.79062603508E-01  0.51100000000E-03 0.  1.
         11    1    4    4    0    0  0.79029580119E-02 -0.44765921551E-01  0.22101838791E-01  0.50548955247E-01  0.51100000000E-03 0. -1.
</event>
<event>
 8    1  0.1123470E+005  0.1043930E+01  0.7957747E-01            NaN
         13   -1    0    0    0    0  0.00000000000E+00  0.00000000000E+00  0.74505805969E-08  0.10566000000E+00  0.10566000000E+00 0.  1.
     999900   -1    0    0    0    0 -0.00000000000E+00 -0.00000000000E+00 -0.74505805969E-08  0.93827000000E+00  0.93827000000E+00 0. -1.
     999902    2    1    2    0    0 -0.95056852339E-02 -0.18960994270E-01 -0.30063382352E-02  0.10225076886E+01  0.10222832572E+01 0.  0.
     999903    2    3    3    0    0 -0.13210333663E+00 -0.19468638925E-02 -0.29571920945E-02  0.13384596041E+00  0.21234742907E-01 0.  0.
         14    1    1    2    0    0  0.95056852339E-02  0.18960994270E-01  0.30063382352E-02  0.21422311385E-01  0.00000000000E+00 0. -1.
     999901    1    3    3    0    0  0.12259765139E+00 -0.17014130378E-01 -0.49146140758E-04  0.88866172820E+00  0.88000000000E+00 0.  1.
        -11    1    4    4    0    0 -0.10697829029E+00 -0.63842732998E-02  0.44857894958E-02  0.10726367963E+00  0.51100000000E-03 0.  1.
         11    1    4    4    0    0 -0.25125046336E-01  0.44374094074E-02 -0.74429815903E-02  0.26582280782E-01  0.51100000000E-03 0. -1.
</event>
<event>
 8    1  0.1123470E+005  0.1043930E+01  0.7957747E-01            NaN
         13   -1    0    0    0    0  0.00000000000E+00  0.00000000000E+00  0.74505805969E-08  0.10566000000E+00  0.10566000000E+00 0.  1.
     999900   -1    0    0    0    0 -0.00000000000E+00 -0.00000000000E+00 -0.74505805969E-08  0.93827000000E+00  0.93827000000E+00 0.  1.
     999902    2    1    2    0    0 -0.22242007819E-01  0.15285785050E-03 -0.62751556330E-02  0.10208192264E+01  0.10205575854E+01 0.  0.
     999903    2    3    3    0    0 -0.35058144661E-01  0.76665869716E-01 -0.10030497102E+00  0.13241610816E+00  0.19136598540E-01 0.  0.
         14    1    1    2    0    0  0.22242007819E-01 -0.15285785050E-03  0.62751556330E-02  0.23110773582E-01  0.00000000000E+00 0.  1.
     999901    1    3    3    0    0  0.12816136842E-01 -0.76513011866E-01  0.94029815383E-01  0.88840311826E+00  0.88000000000E+00 0. -1.
        -11    1    4    4    0    0 -0.32388388132E-01  0.50351217505E-01 -0.72737394500E-01  0.94208505294E-01  0.51100000000E-03 0.  1.
         11    1    4    4    0    0 -0.26697565285E-02  0.26314652211E-01 -0.27567576515E-01  0.38207602867E-01  0.51100000000E-03 0. -1.
</event>
<event>
 8    1  0.1123470E+005  0.1043930E+01  0.7957747E-01            NaN
         13   -1    0    0    0    0  0.00000000000E+00  0.00000000000E+00  0.74505805969E-08  0.10566000000E+00  0.10566000000E+00 0.  1.
     999900   -1    0    0    0    0 -0.00000000000E+00 -0.00000000000E+00 -0.74505805969E-08  0.93827000000E+00  0.93827000000E+00 0.  1.
     999902    2    1    2    0    0 -0.51462765735E-02 -0.16403025767E-01 -0.16341268745E-01  0.10202112209E+01  0.10199354660E+01 0.  0.
     999903    2    3    3    0    0  0.81985023254E-01  0.75788407851E-01 -0.63086227787E-01  0.12988756346E+00  0.20627171447E-01 0.  0.
         14    1    1    2    0    0  0.51462765735E-02  0.16403025767E-01  0.16341268745E-01  0.23718779080E-01  0.00000000000E+00 0.  1.
     999901    1    3    3    0    0 -0.87131299827E-01 -0.92191433617E-01  0.46744959043E-01  0.89032365746E+00  0.88000000000E+00 0. -1.
        -11    1    4    4    0    0  0.57895730735E-01  0.53303452915E-01 -0.33258962903E-01  0.85437658351E-01  0.51100000000E-03 0. -1.
         11    1    4    4    0    0  0.24089292519E-01  0.22484954936E-01 -0.29827264884E-01  0.44449905107E-01  0.51100000000E-03 0.  1.
</event>
<event>
 8    1  0.1123470E+005  0.1043930E+01  0.7957747E-01            NaN
         13   -1    0    0    0    0  0.00000000000E+00  0.00000000000E+00  0.74505805969E-08  0.10566000000E+00  0.10566000000E+00 0.  1.
     999900   -1    0    0    0    0 -0.00000000000E+00 -0.00000000000E+00 -0.74505805969E-08  0.93827000000E+00  0.93827000000E+00 0. -1.
     999902    2    1    2    0    0 -0.89884959872E-02 -0.72082964032E-02 -0.20293958273E-01  0.10205933906E+01  0.10203265514E+01 0.  0.
     999903    2    3    3    0    0 -0.59418535965E-01  0.10618429091E+00  0.40431294791E-01  0.12981360626E+00  0.20278479189E-01 0.  0.
         14    1    1    2    0    0  0.89884959872E-02  0.72082964032E-02  0.20293958273E-01  0.23336609427E-01  0.00000000000E+00 0.  1.
     999901    1    3    3    0    0  0.50430039977E-01 -0.11339258731E+00 -0.60725253064E-01  0.89077978432E+00  0.88000000000E+00 0. -1.
        -11    1    4    4    0    0 -0.50535054348E-01  0.85060130161E-01  0.24590713031E-01  0.10195087910E+00  0.51100000000E-03 0. -1.
         11    1    4    4    0    0 -0.88834816162E-02  0.21124160749E-01  0.15840581761E-01  0.27862727154E-01  0.51100000000E-03 0.  1.
</event>
<event>
 8    1  0.1123470E+005  0.1043930E+01  0.7957747E-01            NaN
         13   -1    0    0    0    0  0.00000000000E+00  0.00000000000E+00  0.74505805969E-08  0.10566000000E+00  0.10566000000E+00 0.  1.
     999900   -1    0    0    0    0 -0.00000000000E+00 -0.00000000000E+00 -0.74505805969E-08  0.93827000000E+00  0.93827000000E+00 0.  1.
     999902    2    1    2    0    0  0.67117805383E-02 -0.22719000131E-01  0.15229214794E-02  0.10201914184E+01  0.10199151975E+01 0.  0.
     999903    2    3    3    0    0 -0.92282621798E-01  0.48123562149E-01 -0.73071965593E-01  0.12868541313E+00  0.19709486952E-01 0.  0.
         14    1    1    2    0    0 -0.67117805383E-02  0.22719000131E-01 -0.15229214794E-02  0.23738581566E-01  0.00000000000E+00 0. -1.
     999901    1    3    3    0    0  0.98994402336E-01 -0.70842562280E-01  0.74594887072E-01  0.89150600531E+00  0.88000000000E+00 0. -1.
        -11    1    4    4    0    0 -0.15005836503E-01  0.41624800991E-02 -0.19213330221E-01  0.24736906616E-01  0.51100000000E-03 0.  1.
         11    1    4    4    0    0 -0.77276785295E-01  0.43961082050E-01 -0.53858635371E-01  0.10394850651E+00  0.51100000000E-03 0. -1.
</event>
<event>
 8    1  0.1123470E+005  0.1043930E+01  0.7957747E-01            NaN
         13   -1    0    0    0    0  0.00000000000E+00  0.00000000000E+00  0.74505805969E-08  0.10566000000E+00  0.10566000000E+00 0.  1.
     999900   -1    0    0    0    0 -0.00000000000E+00 -0.00000000000E+00 -0.74505805969E-08  0.93827000000E+00  0.93827000000E+00 0.  1.
     999902    2    1    2    0    0  0.20056254810E-01 -0.13235995354E-01  0.94054000762E-03  0.10198815168E+01  0.10195979495E+01 0.  0.
     999903    2    3    3    0    0  0.47795346553E-01 -0.52767914886E-02 -0.12046737511E+00  0.13107743938E+00  0.18885628623E-01 0.  0.
         14    1    1    2    0    0 -0.20056254810E-01  0.13235995354E-01 -0.94054000762E-03  0.24048483227E-01  0.00000000000E+00 0.  1.
     999901    1    3    3    0    0 -0.27739091743E-01 -0.79592038657E-02  0.12140791512E+00  0.88880407739E+00  0.88000000000E+00 0. -1.
        -11    1    4    4    0    0  0.90403967807E-02 -0.84835334440E-02 -0.22917616420E-01  0.26061031772E-01  0.51100000000E-03 0. -1.
         11    1    4    4    0    0  0.38754949772E-01  0.32067419553E-02 -0.97549758688E-01  0.10501640761E+00  0.51100000000E-03 0.  1.
</event>
<event>
 8    1  0.1123470E+005  0.1043930E+01  0.7957747E-01            NaN
         13   -1    0    0    0    0  0.00000000000E+00  0.00000000000E+00  0.74505805969E-08  0.10566000000E+00  0.10566000000E+00 0. -1.
     999900   -1    0    0    0    0 -0.00000000000E+00 -0.00000000000E+00 -0.74505805969E-08  0.93827000000E+00  0.93827000000E+00 0. -1.
     999902    2    1    2    0    0  0.60518301228E-02  0.77064823293E-02 -0.21459142394E-01  0.10203395504E+01  0.10200668061E+01 0.  0.
     999903    2    3    3    0    0 -0.97692282509E-01 -0.13543879368E-01 -0.84848095147E-01  0.13172682372E+00  0.20628574995E-01 0.  0.
         14    1    1    2    0    0 -0.60518301228E-02 -0.77064823293E-02  0.21459142394E-01  0.23590449551E-01  0.00000000000E+00 0. -1.
     999901    1    3    3    0    0  0.10374411263E+00  0.21250361697E-01  0.63388952753E-01  0.88861272673E+00  0.88000000000E+00 0.  1.
        -11    1    4    4    0    0 -0.26882043637E-01 -0.17557027146E-03 -0.34855547478E-01  0.44020965528E-01  0.51100000000E-03 0.  1.
         11    1    4    4    0    0 -0.70810238873E-01 -0.13368309096E-01 -0.49992547669E-01  0.87705858190E-01  0.51100000000E-03 0. -1.
</event>
<event>
 8    1  0.1123470E+005  0.1043930E+01  0.7957747E-01            NaN
         13   -1    0    0    0    0  0.00000000000E+00  0.00000000000E+00  0.74505805969E-08  0.10566000000E+00  0.10566000000E+00 0. -1.
     999900   -1    0    0    0    0 -0.00000000000E+00 -0.00000000000E+00 -0.74505805969E-08  0.93827000000E+00  0.93827000000E+00 0.  1.
     999902    2    1    2    0    0  0.89617622071E-02 -0.62722879641E-02  0.20384360776E-01  0.10207961084E+01  0.10205339377E+01 0.  0.
     999903    2    3    3    0    0  0.12671312249E-01  0.54786338840E-01 -0.11376723017E+00  0.12853013567E+00  0.20369291544E-01 0.  0.
         14    1    1    2    0    0 -0.89617622071E-02  0.62722879641E-02 -0.20384360776E-01  0.23133891640E-01  0.00000000000E+00 0.  1.
     999901    1    3    3    0    0 -0.37095500422E-02 -0.61058626804E-01  0.13415159094E+00  0.89226597269E+00  0.88000000000E+00 0. -1.
        -11    1    4    4    0    0  0.26065445912E-02  0.23970708096E-01 -0.70169956769E-01  0.74198873815E-01  0.51100000000E-03 0. -1.
         11    1    4    4    0    0  0.10064767658E-01  0.30815630743E-01 -0.43597273397E-01  0.54331261855E-01  0.51100000000E-03 0.  1.
</event>
<event>
 8    1  0.1123470E+005  0.1043930E+01  0.7957747E-01            NaN
         13   -1    0    0    0    0  0.00000000000E+00  0.00000000000E+00  0.74505805969E-08  0.10566000000E+00  0.10566000000E+00 0.  1.
     999900   -1    0    0    0    0 -0.00000000000E+00 -0.00000000000E+00 -0.74505805969E-08  0.93827000000E+00  0.93827000000E+00 0.  1.
     999902    2    1    2    0    0 -0.51629302990E-02  0.40765730488E-02  0.22459403125E-01  0.10205270283E+01  0.10202586517E+01 0.  0.
     999903    2    3    3    0    0  0.74579105650E-01 -0.36934668642E-01 -0.95437846761E-01  0.12814791838E+00  0.19679777508E-01 0.  0.
         14    1    1    2    0    0  0.51629302990E-02 -0.40765730488E-02 -0.22459403125E-01  0.23402971730E-01  0.00000000000E+00 0. -1.
     999901    1    3    3    0    0 -0.79742035949E-01  0.41011241691E-01  0.11789724989E+00  0.89237910989E+00  0.88000000000E+00 0. -1.
        -11    1    4    4    0    0  0.55157044540E-01 -0.17310409654E-01 -0.67332745180E-01  0.88746321271E-01  0.51100000000E-03 0.  1.
         11    1    4    4    0    0  0.19422061110E-01 -0.19624258988E-01 -0.28105101581E-01  0.39401597106E-01  0.51100000000E-03 0. -1.
</event>
<event>
 8    1  0.1123470E+005  0.1043930E+01  0.7957747E-01            NaN
         13   -1    0    0    0    0  0.00000000000E+00  0.00000000000E+00  0.74505805969E-08  0.10566000000E+00  0.10566000000E+00 0.  1.
     999900   -1    0    0    0    0 -0.00000000000E+00 -0.00000000000E+00 -0.74505805969E-08  0.93827000000E+00  0.93827000000E+00 0. -1.
     999902    2    1    2    0    0 -0.10806389550E-01  0.18042032530E-01 -0.15632585286E-01  0.10177255974E+01  0.10173881859E+01 0.  0.
     999903    2    3    3    0    0  0.69693938852E-01 -0.31082551036E-01  0.97476564983E-01  0.12548840502E+00  0.20549671111E-01 0.  0.
         14    1    1    2    0    0  0.10806389550E-01 -0.18042032530E-01  0.15632585286E-01  0.26204402601E-01  0.00000000000E+00 0. -1.
     999901    1    3    3    0    0 -0.80500328402E-01  0.49124583566E-01 -0.11310915027E+00  0.89223719238E+00  0.88000000000E+00 0. -1.
        -11    1    4    4    0    0  0.66244192558E-01 -0.33397944801E-01  0.95292439265E-01  0.12076682436E+00  0.51100000000E-03 0. -1.
         11    1    4    4    0    0  0.34497462943E-02  0.23153937650E-02  0.21841257180E-02  0.47215806605E-02  0.51100000000E-03 0.  1.
</event>
<event>
 8    1  0.1123470E+005  0.1043930E+01  0.7957747E-01            NaN
         13   -1    0    0    0    0  0.00000000000E+00  0.00000000000E+00  0.74505805969E-08  0.10566000000E+00  0.10566000000E+00 0.  1.
     999900   -1    0    0    0    0 -0.00000000000E+00 -0.00000000000E+00 -0.74505805969E-08  0.93827000000E+00  0.93827000000E+00 0. -1.
     999902    2    1    2    0    0  0.14863590073E-01 -0.59419282547E-02 -0.17829244513E-01  0.10199693076E+01  0.10196878315E+01 0.  0.
     999903    2    3    3    0    0 -0.75580568723E-01  0.92178588892E-01 -0.46524572953E-01  0.12944631315E+00  0.19557542786E-01 0.  0.
         14    1    1    2    0    0 -0.14863590073E-01  0.59419282547E-02  0.17829244513E-01  0.23960692418E-01  0.00000000000E+00 0.  1.
     999901    1    3    3    0    0  0.90444158797E-01 -0.98120517147E-01  0.28695328440E-01  0.89052299444E+00  0.88000000000E+00 0. -1.
        -11    1    4    4    0    0 -0.65131495260E-01  0.67471770882E-01 -0.39119778784E-01  0.10161284246E+00  0.51100000000E-03 0.  1.
         11    1    4    4    0    0 -0.10449073463E-01  0.24706818010E-01 -0.74047941695E-02  0.27833470681E-01  0.51100000000E-03 0. -1.
</event>
<event>
 7    1  0.1123470E+005  0.1043930E+01  0.7957747E-01            NaN
         13   -1    0    0    0    0  0.00000000000E+00  0.00000000000E+00  0.74505805969E-08  0.10566000000E+00  0.10566000000E+00 0.  1.
     999900   -1    0    0    0    0 -0.00000000000E+00 -0.00000000000E+00 -0.74505805969E-08  0.93827000000E+00  0.93827000000E+00 0.  1.
     999902    2    1    2    0    0 -0.18811492977E-01  0.32784658366E-02 -0.13934768664E-01  0.10202910833E+01  0.10200172039E+01 0.  0.
         14    1    1    2    0    0  0.18811492977E-01 -0.32784658366E-02  0.13934768664E-01  0.23638916726E-01  0.00000000000E+00 0. -1.
     999901    1    3    3    0    0 -0.10776019240E+00  0.64910978182E-01  0.48631041534E-01  0.89027561595E+00  0.88000000000E+00 0. -1.
        -11    1    3    3    0    0  0.10389414736E-02 -0.11543589161E-01 -0.12746986729E-01  0.17236027436E-01  0.51100000000E-03 0. -1.
         11    1    3    3    0    0  0.87909757950E-01 -0.50088923184E-01 -0.49818823469E-01  0.11277943989E+00  0.51100000000E-03 0.  1.
</event>
<event>
 8    1  0.1123470E+005  0.1043930E+01  0.7957747E-01            NaN
         13   -1    0    0    0    0  0.00000000000E+00  0.00000000000E+00  0.74505805969E-08  0.10566000000E+00  0.10566000000E+00 0. -1.
     999900   -1    0    0    0    0 -0.00000000000E+00 -0.00000000000E+00 -0.74505805969E-08  0.93827000000E+00  0.93827000000E+00 0.  1.
     999902    2    1    2    0    0 -0.11536258043E-01  0.21861241599E-01 -0.34181556437E-02  0.10189763846E+01  0.10186707954E+01 0.  0.
     999903    2    3    3    0    0  0.11906882376E+00 -0.31186106369E-01  0.25940754445E-01  0.12727371323E+00  0.19383428868E-01 0.  0.
         14    1    1    2    0    0  0.11536258043E-01 -0.21861241599E-01  0.34181556437E-02  0.24953615407E-01  0.00000000000E+00 0.  1.
     999901    1    3    3    0    0 -0.13060508181E+00  0.53047347968E-01 -0.29358910089E-01  0.89170267137E+00  0.88000000000E+00 0. -1.
        -11    1    4    4    0    0  0.10439454208E+00 -0.28369073489E-01  0.16096063192E-01  0.10937261594E+00  0.51100000000E-03 0.  1.
         11    1    4    4    0    0  0.14674281685E-01 -0.28170328797E-02  0.98446912528E-02  0.17901097287E-01  0.51100000000E-03 0. -1.
</event>
<event>
 8    1  0.1123470E+005  0.1043930E+01  0.7957747E-01            NaN
         13   -1    0    0    0    0  0.00000000000E+00  0.00000000000E+00  0.74505805969E-08  0.10566000000E+00  0.10566000000E+00 0. -1.
     999900   -1    0    0    0    0 -0.00000000000E+00 -0.00000000000E+00 -0.74505805969E-08  0.93827000000E+00  0.93827000000E+00 0. -1.
     999902    2    1    2    0    0  0.12489602759E-01  0.48296486793E-02 -0.24088116489E-01  0.10163700102E+01  0.10159962818E+01 0.  0.
     999903    2    3    3    0    0  0.98701046191E-01 -0.49742408888E-01  0.58591119532E-01  0.12662489020E+00  0.19614784431E-01 0.  0.
         14    1    1    2    0    0 -0.12489602759E-01 -0.48296486793E-02  0.24088116489E-01  0.27559989830E-01  0.00000000000E+00 0. -1.
     999901    1    3    3    0    0 -0.86211443431E-01  0.54572057568E-01 -0.82679236021E-01  0.88974511997E+00  0.88000000000E+00 0. -1.
        -11    1    4    4    0    0  0.90488915379E-01 -0.49275873416E-01  0.58281171436E-01  0.11837783396E+00  0.51100000000E-03 0.  1.
         11    1    4    4    0    0  0.82121308115E-02 -0.46653547267E-03  0.30994809657E-03  0.82470562406E-02  0.51100000000E-03 0. -1.
</event>
<event>
 8    1  0.1123470E+005  0.1043930E+01  0.7957747E-01            NaN
         13   -1    0    0    0    0  0.00000000000E+00  0.00000000000E+00  0.74505805969E-08  0.10566000000E+00  0.10566000000E+00 0.  1.
     999900   -1    0    0    0    0 -0.00000000000E+00 -0.00000000000E+00 -0.74505805969E-08  0.93827000000E+00  0.93827000000E+00 0.  1.
     999902    2    1    2    0    0 -0.12437353418E-01  0.18606565058E-01 -0.88774934245E-02  0.10198530003E+01  0.10195687522E+01 0.  0.
     999903    2    3    3    0    0 -0.71552685634E-01 -0.92846976963E-01 -0.51713945503E-01  0.12982408162E+00  0.20966927653E-01 0.  0.
         14    1    1    2    0    0  0.12437353418E-01 -0.18606565058E-01  0.88774934245E-02  0.24076999664E-01  0.00000000000E+00 0. -1.
     999901    1    3    3    0    0  0.59115332217E-01  0.11145354202E+00  0.42836452078E-01  0.89002891872E+00  0.88000000000E+00 0. -1.
        -11    1    4    4    0    0 -0.37667314930E-01 -0.65380717160E-01 -0.33012890685E-01  0.82362472418E-01  0.51100000000E-03 0. -1.
         11    1    4    4    0    0 -0.33885370705E-01 -0.27466259803E-01 -0.18701054817E-01  0.47461609198E-01  0.51100000000E-03 0.  1.
</event>
<event>
 8    1  0.1123470E+005  0.1043930E+01  0.7957747E-01            NaN
         13   -1    0    0    0    0  0.00000000000E+00  0.00000000000E+00  0.74505805969E-08  0.10566000000E+00  0.10566000000E+00 0.  1.
     999900   -1    0    0    0    0 -0.00000000000E+00 -0.00000000000E+00 -0.74505805969E-08  0.93827000000E+00  0.93827000000E+00 0.  1.
     999902    2    1    2    0    0  0.16014955973E-01 -0.12619381594E-01 -0.12364510368E-01  0.10200844821E+01  0.10198057373E+01 0.  0.
     999903    2    3    3    0    0 -0.47740818235E-01  0.51898962043E-01  0.10468151154E+00  0.12771281815E+00  0.19484790831E-01 0.  0.
         14    1    1    2    0    0 -0.16014955973E-01  0.12619381594E-01  0.12364510368E-01  0.23845517886E-01  0.00000000000E+00 0.  1.
     999901    1    3    3    0    0  0.63755774208E-01 -0.64518343637E-01 -0.11704602191E+00  0.89237166397E+00  0.88000000000E+00 0.  1.
        -11    1    4    4    0    0 -0.76770309846E-02  0.10629120742E-02  0.65691656042E-02  0.10172592814E-01  0.51100000000E-03 0. -1.
         11    1    4    4    0    0 -0.40063787250E-01  0.50836049969E-01  0.98112345934E-01  0.11754022533E+00  0.51100000000E-03 0.  1.
</event>
<event>
 8    1  0.1123470E+005  0.1043930E+01  0.7957747E-01            NaN
         13   -1    0    0    0    0  0.00000000000E+00  0.00000000000E+00  0.74505805969E-08  0.10566000000E+00  0.10566000000E+00 0.  1.
     999900   -1    0    0    0    0 -0.00000000000E+00 -0.00000000000E+00 -0.74505805969E-08  0.93827000000E+00  0.93827000000E+00 0.  1.
     999902    2    1    2    0    0  0.14665949206E-01 -0.15401161015E-01 -0.11824579593E-01  0.10195967612E+01  0.10193063568E+01 0.  0.
     999903    2    3    3    0    0  0.11885667196E+00  0.51028524386E-01 -0.12225712802E-02  0.13090051819E+00  0.20065697376E-01 0.  0.
         14    1    1    2    0    0 -0.14665949206E-01  0.15401161015E-01  0.11824579593E-01  0.24333238775E-01  0.00000000000E+00 0.  1.
     999901    1    3    3    0    0 -0.10419072275E+00 -0.66429685401E-01 -0.10602008313E-01  0.88869624304E+00  0.88000000000E+00 0. -1.
        -11    1    4    4    0    0  0.93033911480E-01  0.42257831873E-01  0.69707588436E-02  0.10242014274E+00  0.51100000000E-03 0.  1.
         11    1    4    4    0    0  0.25822760477E-01  0.87706925137E-02 -0.81933301238E-02  0.28480375442E-01  0.51100000000E-03 0. -1.
</event>
<event>
 8    1  0.1123470E+005  0.1043930E+01  0.7957747E-01            NaN
         13   -1    0    0    0    0  0.00000000000E+00  0.00000000000E+00  0.74505805969E-08  0.10566000000E+00  0.10566000000E+00 0.  1.
     999900   -1    0    0    0    0 -0.00000000000E+00 -0.00000000000E+00 -0.74505805969E-08  0.93827000000E+00  0.93827000000E+00 0. -1.
     999902    2    1    2    0    0  0.12825912633E-02 -0.21072332873E-01 -0.94846504694E-02  0.10207859544E+01  0.10205235508E+01 0.  0.
     999903    2    3    3    0    0  0.62156657030E-01 -0.10694666077E+00 -0.46415095471E-01  0.13374372887E+00  0.20784264751E-01 0.  0.
         14    1    1    2    0    0 -0.12825912633E-02  0.21072332873E-01  0.94846504694E-02  0.23144045618E-01  0.00000000000E+00 0.  1.
     999901    1    3    3    0    0 -0.60874065766E-01  0.85874327897E-01  0.36930445001E-01  0.88704222551E+00  0.88000000000E+00 0. -1.
        -11    1    4    4    0    0  0.94081742517E-02 -0.10731383284E-01 -0.12266486666E-01  0.18825624720E-01  0.51100000000E-03 0. -1.
         11    1    4    4    0    0  0.52748482778E-01 -0.96215277485E-01 -0.34148608804E-01  0.11491810415E+00  0.51100000000E-03 0.  1.
</event>
<event>
 8    1  0.1123470E+005  0.1043930E+01  0.7957747E-01            NaN
         13   -1    0    0    0    0  0.00000000000E+00  0.00000000000E+00  0.74505805969E-08  0.10566000000E+00  0.10566000000E+00 0. -1.
     999900   -1    0    0    0    0 -0.00000000000E+00 -0.00000000000E+00 -0.74505805969E-08  0.93827000000E+00  0.93827000000E+00 0.  1.
     999902    2    1    2    0    0 -0.16868467305E-01  0.11675599430E-01  0.11879760505E-01  0.10202235975E+01  0.10199481336E+01 0.  0.
     999903    2    3    3    0    0  0.31768018310E-02 -0.49177479074E-01  0.11959662066E+00  0.13134349760E+00  0.22786973699E-01 0.  0.
         14    1    1    2    0    0  0.16868467305E-01 -0.11675599430E-01 -0.11879760505E-01  0.23706402530E-01  0.00000000000E+00 0.  1.
     999901    1    3    3    0    0 -0.20045269136E-01  0.60853078504E-01 -0.10771686016E+00  0.88888009987E+00  0.88000000000E+00 0.  1.
        -11    1    4    4    0    0 -0.40670601462E-02 -0.16150984664E-01  0.65177673910E-01  0.67273959161E-01  0.51100000000E-03 0.  1.
         11    1    4    4    0    0  0.72438619772E-02 -0.33026494410E-01  0.54418946754E-01  0.64069538441E-01  0.51100000000E-03 0. -1.
</event>
<event>
 8    1  0.1123470E+005  0.1043930E+01  0.7957747E-01            NaN
         13   -1    0    0    0    0  0.00000000000E+00  0.00000000000E+00  0.74505805969E-08  0.10566000000E+00  0.10566000000E+00 0.  1.
     999900   -1    0    0    0    0 -0.00000000000E+00 -0.00000000000E+00 -0.74505805969E-08  0.93827000000E+00  0.93827000000E+00 0.  1.
     999902    2    1    2    0    0  0.97987761146E-02 -0.21198889347E-01  0.32818593073E-02  0.10203465413E+01  0.10200739605E+01 0.  0.
     999903    2    3    3    0    0 -0.18017456241E-01 -0.10559679306E+00 -0.75410809517E-01  0.13237734981E+00  0.19017389876E-01 0.  0.
         14    1    1    2    0    0 -0.97987761146E-02  0.21198889347E-01 -0.32818593073E-02  0.23583458682E-01  0.00000000000E+00 0. -1.
     999901    1    3    3    0    0  0.27816232356E-01  0.84397903713E-01  0.78692668824E-01  0.88796919150E+00  0.88000000000E+00 0. -1.
        -11    1    4    4    0    0 -0.53005546924E-02 -0.12985558627E-01 -0.17415611308E-01  0.22367057275E-01  0.51100000000E-03 0. -1.
         11    1    4    4    0    0 -0.12716901549E-01 -0.92611234433E-01 -0.57995198209E-01  0.11001029254E+00  0.51100000000E-03 0.  1.
</event>
<event>
 8    1  0.1123470E+005  0.1043930E+01  0.7957747E-01            NaN
         13   -1    0    0    0    0  0.00000000000E+00  0.00000000000E+00  0.74505805969E-08  0.10566000000E+00  0.10566000000E+00 0.  1.
     999900   -1    0    0    0    0 -0.00000000000E+00 -0.00000000000E+00 -0.74505805969E-08  0.93827000000E+00  0.93827000000E+00 0. -1.
     999902    2    1    2    0    0  0.20235764274E-01  0.11356257709E-01 -0.10467432854E-02  0.10207018615E+01  0.10204375256E+01 0.  0.
     999903    2    3    3    0    0  0.58718164018E-01  0.52976494942E-01  0.10439200874E+00  0.13259687356E+00  0.20734212951E-01 0.  0.
         14    1    1    2    0    0 -0.20235764274E-01 -0.11356257709E-01  0.10467432854E-02  0.23228138462E-01  0.00000000000E+00 0. -1.
     999901    1    3    3    0    0 -0.38482399744E-01 -0.41620237233E-01 -0.10543875203E+00  0.88810498798E+00  0.88000000000E+00 0. -1.
        -11    1    4    4    0    0  0.88825792027E-02  0.68900880900E-03  0.17140404129E-01  0.19324324598E-01  0.51100000000E-03 0.  1.
         11    1    4    4    0    0  0.49835584815E-01  0.52287486133E-01  0.87251604615E-01  0.11327254896E+00  0.51100000000E-03 0. -1.
</event>
<event>
 8    1  0.1123470E+005  0.1043930E+01  0.7957747E-01            NaN
         13   -1    0    0    0    0  0.00000000000E+00  0.00000000000E+00  0.74505805969E-08  0.10566000000E+00  0.10566000000E+00 0. -1.
     999900   -1    0    0    0    0 -0.00000000000E+00 -0.00000000000E+00 -0.74505805969E-08  0.93827000000E+00  0.93827000000E+00 0. -1.
     999902    2    1    2    0    0  0.17346317141E-01  0.16896715500E-01 -0.88204808391E-02  0.10181580269E+01  0.10178318001E+01 0.  0.
     999903    2    3    3    0    0  0.24938876283E-01 -0.28646264728E-01 -0.12236940545E+00  0.12966201216E+00  0.19884918290E-01 0.  0.
         14    1    1    2    0    0 -0.17346317141E-01 -0.16896715500E-01  0.88204808391E-02  0.25771973058E-01  0.00000000000E+00 0.  1.
     999901    1    3    3    0    0 -0.75925591414E-02  0.45542980228E-01  0.11354892461E+00  0.88849601478E+00  0.88000000000E+00 0.  1.
        -11    1    4    4    0    0  0.82272449720E-02 -0.23306037381E-01 -0.60625222123E-01  0.65471655063E-01  0.51100000000E-03 0. -1.
         11    1    4    4    0    0  0.16711631311E-01 -0.53402273474E-02 -0.61744183323E-01  0.64190357099E-01  0.51100000000E-03 0.  1.
</event>
<event>
 8    1  0.1123470E+005  0.1043930E+01  0.7957747E-01            NaN
         13   -1    0    0    0    0  0.00000000000E+00  0.00000000000E+00  0.74505805969E-08  0.10566000000E+00  0.10566000000E+00 0. -1.
     999900   -1    0    0    0    0 -0.00000000000E+00 -0.00000000000E+00 -0.74505805969E-08  0.93827000000E+00  0.93827000000E+00 0.  1.
     999902    2    1    2    0    0 -0.79138730847E-02  0.21858106669E-01  0.45176804847E-02  0.10202484534E+01  0.10199735736E+01 0.  0.
     999903    2    3    3    0    0 -0.28133222558E-01  0.52058626447E-01  0.11673263419E+00  0.13237848015E+00  0.19899128673E-01 0.  0.
         14    1    1    2    0    0  0.79138730847E-02 -0.21858106669E-01 -0.45176804847E-02  0.23681546641E-01  0.00000000000E+00 0. -1.
     999901    1    3    3    0    0  0.20219349473E-01 -0.30200519778E-01 -0.11221495371E+00  0.88786997321E+00  0.88000000000E+00 0.  1.
        -11    1    4    4    0    0 -0.17621709462E-01  0.12984331271E-01  0.38052721787E-01  0.43902030242E-01  0.51100000000E-03 0. -1.
         11    1    4    4    0    0 -0.10511513096E-01  0.39074295176E-01  0.78679912407E-01  0.88476449909E-01  0.51100000000E-03 0.  1.
</event>
<event>
 8    1  0.1123470E+005  0.1043930E+01  0.7957747E-01            NaN
         13   -1    0    0    0    0  0.00000000000E+00  0.00000000000E+00  0.74505805969E-08  0.10566000000E+00  0.10566000000E+00 0. -1.
     999900   -1    0    0    0    0 -0.00000000000E+00 -0.00000000000E+00 -0.74505805969E-08  0.93827000000E+00  0.93827000000E+00 0. -1.
     999902    2    1    2    0    0  0.20492304019E-01  0.37308397536E-02 -0.73336600299E-02  0.10218475124E+01  0.10216088793E+01 0.  0.
     999903    2    3    3    0    0 -0.32618798142E-01  0.75107706541E-01  0.10015645203E+00  0.13085392629E+00  0.19654047128E-01 0.  0.
         14    1    1    2    0    0 -0.20492304019E-01 -0.37308397536E-02  0.73336600299E-02  0.22082487602E-01  0.00000000000E+00 0.  1.
     999901    1    3    3    0    0  0.53111102161E-01 -0.71376866788E-01 -0.10749011206E+00  0.89099358610E+00  0.88000000000E+00 0. -1.
        -11    1    4    4    0    0 -0.21279801372E-01  0.51447722942E-01  0.52903246438E-01  0.76803077719E-01  0.51100000000E-03 0.  1.
         11    1    4    4    0    0 -0.11338996770E-01  0.23659983599E-01  0.47253205597E-01  0.54050848576E-01  0.51100000000E-03 0. -1.
</event>
<event>
 8    1  0.1123470E+005  0.1043930E+01  0.7957747E-01            NaN
         13   -1    0    0    0    0  0.00000000000E+00  0.00000000000E+00  0.74505805969E-08  0.10566000000E+00  0.10566000000E+00 0.  1.
     999900   -1    0    0    0    0 -0.00000000000E+00 -0.00000000000E+00 -0.74505805969E-08  0.93827000000E+00  0.93827000000E+00 0. -1.
     999902    2    1    2    0    0 -0.19418949781E-01  0.50479415429E-02 -0.11920801704E-01  0.10205915588E+01  0.10203246773E+01 0.  0.
     999903    2    3    3    0    0 -0.40321444319E-01 -0.33120727199E-01 -0.12054294173E+00  0.13284580080E+00  0.19864655718E-01 0.  0.
         14    1    1    2    0    0  0.19418949781E-01 -0.50479415429E-02  0.11920801704E-01  0.23338441201E-01  0.00000000000E+00 0.  1.
     999901    1    3    3    0    0  0.20902494538E-01  0.38168668742E-01  0.10862214002E+00  0.88774575800E+00  0.88000000000E+00 0.  1.
        -11    1    4    4    0    0 -0.10665091399E-01  0.55829766619E-03 -0.28641551290E-01  0.30572135223E-01  0.51100000000E-03 0.  1.
         11    1    4    4    0    0 -0.29656352920E-01 -0.33679024865E-01 -0.91901390436E-01  0.10227366557E+00  0.51100000000E-03 0. -1.
</event>
<event>
 8    1  0.1123470E+005  0.1043930E+01  0.7957747E-01            NaN
         13   -1    0    0    0    0  0.00000000000E+00  0.00000000000E+00  0.74505805969E-08  0.10566000000E+00  0.10566000000E+00 0. -1.
     999900   -1    0    0    0    0 -0.00000000000E+00 -0.00000000000E+00 -0.74505805969E-08  0.93827000000E+00  0.93827000000E+00 0. -1.
     999902    2    1    2    0    0  0.14441317541E-01  0.68714713335E-02 -0.19803485174E-01  0.10184752009E+01  0.10181570547E+01 0.  0.
     999903    2    3    3    0    0 -0.40950094445E-02 -0.96669766464E-01 -0.84342430427E-01  0.12986411682E+00  0.19728923379E-01 0.  0.
         14    1    1    2    0    0 -0.14441317541E-01 -0.68714713335E-02  0.19803485174E-01  0.25454799069E-01  0.00000000000E+00 0. -1.
     999901    1    3    3    0    0  0.18536326985E-01  0.10354123780E+00  0.64538945253E-01  0.88861108411E+00  0.88000000000E+00 0.  1.
        -11    1    4    4    0    0 -0.91618095737E-02 -0.28718913603E-01 -0.31779004869E-01  0.43805034239E-01  0.51100000000E-03 0.  1.
         11    1    4    4    0    0  0.50668001292E-02 -0.67950852861E-01 -0.52563425558E-01  0.86059082585E-01  0.51100000000E-03 0. -1.
</event>
<event>
 8    1  0.1123470E+005  0.1043930E+01  0.7957747E-01            NaN
         13   -1    0    0    0    0  0.00000000000E+00  0.00000000000E+00  0.74505805969E-08  0.10566000000E+00  0.10566000000E+00 0. -1.
     999900   -1    0    0    0    0 -0.00000000000E+00 -0.00000000000E+00 -0.74505805969E-08  0.93827000000E+00  0.93827000000E+00 0.  1.
     999902    2    1    2    0    0  0.23337075765E-01  0.13865859317E-02  0.63211207301E-02  0.10197122732E+01  0.10194246523E+01 0.  0.
     999903    2    3    3    0    0 -0.68603963509E-01  0.10700217958E+00 -0.42670695040E-03  0.12861556601E+00  0.19642084819E-01 0.  0.
         14    1    1    2    0    0 -0.23337075765E-01 -0.13865859317E-02 -0.63211207301E-02  0.24217726836E-01  0.00000000000E+00 0. -1.
     999901    1    3    3    0    0  0.91941039274E-01 -0.10561559365E+00  0.67478276805E-02  0.89109670716E+00  0.88000000000E+00 0. -1.
        -11    1    4    4    0    0 -0.95176089669E-02  0.29454616976E-01 -0.28685230941E-02  0.31090977588E-01  0.51100000000E-03 0.  1.
         11    1    4    4    0    0 -0.59086354542E-01  0.77547562608E-01  0.24418161437E-02  0.97524588421E-01  0.51100000000E-03 0. -1.
</event>
<event>
 8    1  0.1123470E+005  0.1043930E+01  0.7957747E-01            NaN
         13   -1    0    0    0    0  0.00000000000E+00  0.00000000000E+00  0.74505805969E-08  0.10566000000E+00  0.10566000000E+00 0.  1.
     999900   -1    0    0    0    0 -0.00000000000E+00 -0.00000000000E+00 -0.74505805969E-08  0.93827000000E+00  0.93827000000E+00 0.  1.
     999902    2    1    2    0    0 -0.23697509420E-01 -0.31901501915E-02  0.21572086188E-02  0.10199216148E+01  0.10196390037E+01 0.  0.
     999903    2    3    3    0    0 -0.10805860462E+00  0.30929892312E-01 -0.67347306736E-01  0.13250297101E+00  0.19699170830E-01 0.  0.
         14    1    1    2    0    0  0.23697509420E-01  0.31901501915E-02 -0.21572086188E-02  0.24008385201E-01  0.00000000000E+00 0. -1.
     999901    1    3    3    0    0  0.84361095202E-01 -0.34120042504E-01  0.69504515355E-01  0.88741864379E+00  0.88000000000E+00 0.  1.
        -11    1    4    4    0    0 -0.63070454295E-01  0.23035015447E-01 -0.30198248271E-01  0.73625331654E-01  0.51100000000E-03 0.  1.
         11    1    4    4    0    0 -0.44988150327E-01  0.78948768649E-02 -0.37149058465E-01  0.58877639358E-01  0.51100000000E-03 0. -1.
</event>
<event>
 8    1  0.1123470E+005  0.1043930E+01  0.7957747E-01            NaN
         13   -1    0    0    0    0  0.00000000000E+00  0.00000000000E+00  0.74505805969E-08  0.10566000000E+00  0.10566000000E+00 0. -1.
     999900   -1    0    0    0    0 -0.00000000000E+00 -0.00000000000E+00 -0.74505805969E-08  0.93827000000E+00  0.93827000000E+00 0. -1.
     999902    2    1    2    0    0  0.14855256903E-01 -0.11345579352E-01  0.15149614531E-01  0.10198694171E+01  0.10195855611E+01 0.  0.
     999903    2    3    3    0    0 -0.10178434851E+00  0.28624522503E-01 -0.68123015111E-01  0.12738034858E+00  0.20139293100E-01 0.  0.
         14    1    1    2    0    0 -0.14855256903E-01  0.11345579352E-01 -0.15149614531E-01  0.24060582888E-01  0.00000000000E+00 0. -1.
     999901    1    3    3    0    0  0.11663960542E+00 -0.39970101855E-01  0.83272629642E-01  0.89248906853E+00  0.88000000000E+00 0.  1.
        -11    1    4    4    0    0 -0.11165065959E-01  0.62071263335E-02 -0.15938171216E-01  0.20432169192E-01  0.51100000000E-03 0.  1.
         11    1    4    4    0    0 -0.90619282556E-01  0.22417396170E-01 -0.52184843895E-01  0.10694817939E+00  0.51100000000E-03 0. -1.
</event>
<event>
 8    1  0.1123470E+005  0.1043930E+01  0.7957747E-01            NaN
         13   -1    0    0    0    0  0.00000000000E+00  0.00000000000E+00  0.74505805969E-08  0.10566000000E+00  0.10566000000E+00 0.  1.
     999900   -1    0    0    0    0 -0.00000000000E+00 -0.00000000000E+00 -0.74505805969E-08  0.93827000000E+00  0.93827000000E+00 0. -1.
     999902    2    1    2    0    0 -0.11957144246E-01  0.11307489744E-01  0.16747579941E-01  0.10204499221E+01  0.10201797535E+01 0.  0.
     999903    2    3    3    0    0  0.12254328494E+00  0.35042876785E-01  0.14426549387E-01  0.12991125299E+00  0.20590008010E-01 0.  0.
         14    1    1    2    0    0  0.11957144246E-01 -0.11307489744E-01 -0.16747579941E-01  0.23480077868E-01  0.00000000000E+00 0. -1.
     999901    1    3    3    0    0 -0.13450042919E+00 -0.23735387041E-01  0.23210305532E-02  0.89053866914E+00  0.88000000000E+00 0.  1.
        -11    1    4    4    0    0  0.71525032518E-01  0.13268459577E-01  0.15707222416E-01  0.74423519490E-01  0.51100000000E-03 0.  1.
         11    1    4    4    0    0  0.51018252422E-01  0.21774417208E-01 -0.12806730287E-02  0.55487733503E-01  0.51100000000E-03 0. -1.
</event>
<event>
 8    1  0.1123470E+005  0.1043930E+01  0.7957747E-01            NaN
         13   -1    0    0    0    0  0.00000000000E+00  0.00000000000E+00  0.74505805969E-08  0.10566000000E+00  0.10566000000E+00 0.  1.
     999900   -1    0    0    0    0 -0.00000000000E+00 -0.00000000000E+00 -0.74505805969E-08  0.93827000000E+00  0.93827000000E+00 0.  1.
     999902    2    1    2    0    0 -0.69414801419E-02 -0.19907370366E-01  0.22258407241E-01  0.10132718162E+01  0.10128079034E+01 0.  0.
     999903    2    3    3    0    0 -0.12725744037E-01  0.71556684439E-01 -0.94211060895E-01  0.12087937559E+00  0.21302483419E-01 0.  0.
         14    1    1    2    0    0  0.69414801419E-02  0.19907370366E-01 -0.22258407241E-01  0.30658183807E-01  0.00000000000E+00 0. -1.
     999901    1    3    3    0    0  0.57842638955E-02 -0.91464054805E-01  0.11646946814E+00  0.89239244060E+00  0.88000000000E+00 0. -1.
        -11    1    4    4    0    0  0.60704252706E-03  0.38175706611E-01 -0.36097490371E-01  0.52545627867E-01  0.51100000000E-03 0.  1.
         11    1    4    4    0    0 -0.13332786564E-01  0.33380977828E-01 -0.58113570524E-01  0.68333747727E-01  0.51100000000E-03 0. -1.
</event>
<event>
 8    1  0.1123470E+005  0.1043930E+01  0.7957747E-01            NaN
         13   -1    0    0    0    0  0.00000000000E+00  0.00000000000E+00  0.74505805969E-08  0.10566000000E+00  0.10566000000E+00 0. -1.
     999900   -1    0    0    0    0 -0.00000000000E+00 -0.00000000000E+00 -0.74505805969E-08  0.93827000000E+00  0.93827000000E+00 0. -1.
     999902    2    1    2    0    0 -0.10210405951E-01  0.19060339183E-01  0.11348412195E-01  0.10195100209E+01  0.10192175172E+01 0.  0.
     999903    2    3    3    0    0 -0.75213897009E-01  0.78183668079E-01 -0.71263138733E-01  0.13128387278E+00  0.19677501189E-01 0.  0.
         14    1    1    2    0    0  0.10210405951E-01 -0.19060339183E-01 -0.11348412195E-01  0.24419979091E-01  0.00000000000E+00 0.  1.
     999901    1    3    3    0    0  0.65003491058E-01 -0.59123328896E-01  0.82611550927E-01  0.88822614813E+00  0.88000000000E+00 0.  1.
        -11    1    4    4    0    0 -0.18243419584E-01  0.82261807444E-02 -0.12023793166E-01  0.23352197559E-01  0.51100000000E-03 0. -1.
         11    1    4    4    0    0 -0.56970477426E-01  0.69957487335E-01 -0.59239345566E-01  0.10793167522E+00  0.51100000000E-03 0.  1.
</event>
<event>
 8    1  0.1123470E+005  0.1043930E+01  0.7957747E-01            NaN
         13   -1    0    0    0    0  0.00000000000E+00  0.00000000000E+00  0.74505805969E-08  0.10566000000E+00  0.10566000000E+00 0.  1.
     999900   -1    0    0    0    0 -0.00000000000E+00 -0.00000000000E+00 -0.74505805969E-08  0.93827000000E+00  0.93827000000E+00 0.  1.
     999902    2    1    2    0    0 -0.22474426869E-02  0.24586647942E-01 -0.12912784604E-02  0.10192071026E+01  0.10189072069E+01 0.  0.
     999903    2    3    3    0    0 -0.88535473120E-01 -0.13891872863E-01 -0.91348839790E-01  0.12957988567E+00  0.20367182091E-01 0.  0.
         14    1    1    2    0    0  0.22474426869E-02 -0.24586647942E-01  0.12912784604E-02  0.24722897398E-01  0.00000000000E+00 0. -1.
     999901    1    3    3    0    0  0.86288030433E-01  0.38478520805E-01  0.90057561329E-01  0.88962721694E+00  0.88000000000E+00 0. -1.
        -11    1    4    4    0    0 -0.32158710038E-01  0.64387639657E-03 -0.44163256937E-01  0.54637455948E-01  0.51100000000E-03 0.  1.
         11    1    4    4    0    0 -0.56376763082E-01 -0.14535749259E-01 -0.47185582853E-01  0.74942429720E-01  0.51100000000E-03 0. -1.
</event>
<event>
 8    1  0.1123470E+005  0.1043930E+01  0.7957747E-01            NaN
         13   -1    0    0    0    0  0.00000000000E+00  0.00000000000E+00  0.74505805969E-08  0.10566000000E+00  0.10566000000E+00 0.  1.
     999900   -1    0    0    0    0 -0.00000000000E+00 -0.00000000000E+00 -0.74505805969E-08  0.93827000000E+00  0.93827000000E+00 0.  1.
     999902    2    1    2    0    0 -0.37906470802E-02  0.38764868158E-02 -0.22910862025E-01  0.10203863437E+01  0.10201146928E+01 0.  0.
     999903    2    3    3    0    0  0.82721727262E-01  0.23993074794E-01  0.92530480816E-01  0.12841337789E+00  0.22573301508E-01 0.  0.
         14    1    1    2    0    0  0.37906470802E-02 -0.38764868158E-02  0.22910862025E-01  0.23543656344E-01  0.00000000000E+00 0.  1.
     999901    1    3    3    0    0 -0.86512374342E-01 -0.20116587978E-01 -0.11544134284E+00  0.89197296577E+00  0.88000000000E+00 0. -1.
        -11    1    4    4    0    0  0.41339656766E-01  0.20475391982E-01  0.59824371744E-01  0.75547504750E-01  0.51100000000E-03 0. -1.
         11    1    4    4    0    0  0.41382070496E-01  0.35176828112E-02  0.32706109072E-01  0.52865873137E-01  0.51100000000E-03 0.  1.
</event>
<event>
 8    1  0.1123470E+005  0.1043930E+01  0.7957747E-01            NaN
         13   -1    0    0    0    0  0.00000000000E+00  0.00000000000E+00  0.74505805969E-08  0.10566000000E+00  0.10566000000E+00 0. -1.
     999900   -1    0    0    0    0 -0.00000000000E+00 -0.00000000000E+00 -0.74505805969E-08  0.93827000000E+00  0.93827000000E+00 0. -1.
     999902    2    1    2    0    0  0.11947451228E-01 -0.17414933634E-01  0.11019178905E-01  0.10201089209E+01  0.10198307540E+01 0.  0.
     999903    2    3    3    0    0 -0.48752727262E-01  0.11099683093E+00  0.37077611515E-01  0.12833925624E+00  0.19977250195E-01 0.  0.
         14    1    1    2    0    0 -0.11947451228E-01  0.17414933634E-01 -0.11019178905E-01  0.23821079070E-01  0.00000000000E+00 0. -1.
     999901    1    3    3    0    0  0.60700178490E-01 -0.12841176456E+00 -0.26058432610E-01  0.89176966469E+00  0.88000000000E+00 0. -1.
        -11    1    4    4    0    0 -0.39147926852E-01  0.10354440655E+00  0.33422536738E-01  0.11563447318E+00  0.51100000000E-03 0.  1.
         11    1    4    4    0    0 -0.96048004103E-02  0.74524243808E-02  0.36550747775E-02  0.12704783064E-01  0.51100000000E-03 0. -1.
</event>
<event>
 8    1  0.1123470E+005  0.1043930E+01  0.7957747E-01            NaN
         13   -1    0    0    0    0  0.00000000000E+00  0.00000000000E+00  0.74505805969E-08  0.10566000000E+00  0.10566000000E+00 0.  1.
     999900   -1    0    0    0    0 -0.00000000000E+00 -0.00000000000E+00 -0.74505805969E-08  0.93827000000E+00  0.93827000000E+00 0. -1.
     999902    2    1    2    0    0  0.40599292987E-02 -0.84546475768E-02  0.20385123496E-01  0.10214908077E+01  0.10212443159E+01 0.  0.
     999903    2    3    3    0    0 -0.95104213642E-01  0.85469081823E-01 -0.12715413084E-01  0.13033939535E+00  0.21838059692E-01 0.  0.
         14    1    1    2    0    0 -0.40599292987E-02  0.84546475768E-02 -0.20385123496E-01  0.22439192309E-01  0.00000000000E+00 0. -1.
     999901    1    3    3    0    0  0.99164142940E-01 -0.93923729400E-01  0.33100536579E-01  0.89115141234E+00  0.88000000000E+00 0.  1.
        -11    1    4    4    0    0 -0.50724800537E-01  0.50335214612E-01  0.32153488545E-02  0.71534878268E-01  0.51100000000E-03 0. -1.
         11    1    4    4    0    0 -0.44379413105E-01  0.35133867210E-01 -0.15930761938E-01  0.58804517085E-01  0.51100000000E-03 0.  1.
</event>
<event>
 8    1  0.1123470E+005  0.1043930E+01  0.7957747E-01            NaN
         13   -1    0    0    0    0  0.00000000000E+00  0.00000000000E+00  0.74505805969E-08  0.10566000000E+00  0.10566000000E+00 0. -1.
     999900   -1    0    0    0    0 -0.00000000000E+00 -0.00000000000E+00 -0.74505805969E-08  0.93827000000E+00  0.93827000000E+00 0.  1.
     999902    2    1    2    0    0 -0.48940203763E-02 -0.11812595865E-01  0.19550562379E-01  0.10205694917E+01  0.10203020994E+01 0.  0.
     999903    2    3    3    0    0 -0.10828134755E+00  0.52114800208E-02  0.74009891468E-01  0.13268178651E+00  0.19364469702E-01 0.  0.
         14    1    1    2    0    0  0.48940203763E-02  0.11812595865E-01 -0.19550562379E-01  0.23360508254E-01  0.00000000000E+00 0.  1.
     999901    1    3    3    0    0  0.10338732717E+00 -0.17024075886E-01 -0.54459329089E-01  0.88788770523E+00  0.88000000000E+00 0.  1.
        -11    1    4    4    0    0 -0.40560234669E-01  0.72174090241E-02  0.18819604839E-01  0.45295278747E-01  0.51100000000E-03 0.  1.
         11    1    4    4    0    0 -0.67721112877E-01 -0.20059290033E-02  0.55190286629E-01  0.87386507767E-01  0.51100000000E-03 0. -1.
</event>
<event>
 8    1  0.1123470E+005  0.1043930E+01  0.7957747E-01            NaN
         13   -1    0    0    0    0  0.00000000000E+00  0.00000000000E+00  0.74505805969E-08  0.10566000000E+00  0.10566000000E+00 0.  1.
     999900   -1    0    0    0    0 -0.00000000000E+00 -0.00000000000E+00 -0.74505805969E-08  0.93827000000E+00  0.93827000000E+00 0.  1.
     999902    2    1    2    0    0 -0.18464562509E-01 -0.17280433021E-02 -0.15362745229E-01  0.10198480536E+01  0.10195636872E+01 0.  0.
     999903    2    3    3    0    0 -0.12110742633E-01 -0.12168947284E+00  0.38712731346E-01  0.13004174164E+00  0.21381793982E-01 0.  0.
         14    1    1    2    0    0  0.18464562509E-01  0.17280433021E-02  0.15362745229E-01  0.24081946418E-01  0.00000000000E+00 0. -1.
     999901    1    3    3    0    0 -0.63538198763E-02  0.11996142954E+00 -0.54075476574E-01  0.88980631194E+00  0.88000000000E+00 0.  1.
        -11    1    4    4    0    0 -0.14163389087E-01 -0.47959367981E-01  0.10702993362E-01  0.51142132880E-01  0.51100000000E-03 0.  1.
         11    1    4    4    0    0  0.20526464540E-02 -0.73730104857E-01  0.28009737984E-01  0.78899608761E-01  0.51100000000E-03 0. -1.
</event>
<event>
 8    1  0.1123470E+005  0.1043930E+01  0.7957747E-01            NaN
         13   -1    0    0    0    0  0.00000000000E+00  0.00000000000E+00  0.74505805969E-08  0.10566000000E+00  0.10566000000E+00 0. -1.
     999900   -1    0    0    0    0 -0.00000000000E+00 -0.00000000000E+00 -0.74505805969E-08  0.93827000000E+00  0.93827000000E+00 0. -1.
     999902    2    1    2    0    0 -0.43165534253E-02  0.34483249001E-02 -0.23143923193E-01  0.10201357831E+01  0.10198582505E+01 0.  0.
     999903    2    3    3    0    0  0.61888953272E-01 -0.14532845433E-01  0.10887907129E+00  0.12764681246E+00  0.19940171362E-01 0.  0.
         14    1    1    2    0    0  0.43165534253E-02 -0.34483249001E-02  0.23143923193E-01  0.23794216920E-01  0.00000000000E+00 0. -1.
     999901    1    3    3    0    0 -0.66205506697E-01  0.17981170333E-01 -0.13202299448E+00  0.89248897062E+00  0.88000000000E+00 0. -1.
        -11    1    4    4    0    0  0.16564771702E-01 -0.13332392325E-01  0.35969997874E-01  0.41788110926E-01  0.51100000000E-03 0. -1.
         11    1    4    4    0    0  0.45324181570E-01 -0.12004531078E-02  0.72909073412E-01  0.85858701536E-01  0.51100000000E-03 0.  1.
</event>
<event>
 8    1  0.1123470E+005  0.1043930E+01  0.7957747E-01            NaN
         13   -1    0    0    0    0  0.00000000000E+00  0.00000000000E+00  0.74505805969E-08  0.10566000000E+00  0.10566000000E+00 0.  1.
     999900   -1    0    0    0    0 -0.00000000000E+00 -0.00000000000E+00 -0.74505805969E-08  0.93827000000E+00  0.93827000000E+00 0.  1.
     999902    2    1    2    0    0 -0.11161464401E-01  0.19174083361E-01  0.92545597642E-02  0.10198910600E+01  0.10196077205E+01 0.  0.
     999903    2    3    3    0    0 -0.11761236719E+00  0.47443292401E-01  0.33612637958E-01  0.13269082393E+00  0.19837096945E-01 0.  0.
         14    1    1    2    0    0  0.11161464401E-01 -0.19174083361E-01 -0.92545597642E-02  0.24038940009E-01  0.00000000000E+00 0. -1.
     999901    1    3    3    0    0  0.10645090279E+00 -0.28269209040E-01 -0.24358078194E-01  0.88720023606E+00  0.88000000000E+00 0.  1.
        -11    1    4    4    0    0 -0.94526363608E-01  0.29708130999E-01  0.23175653208E-01  0.10176039744E+00  0.51100000000E-03 0.  1.
         11    1    4    4    0    0 -0.23086003586E-01  0.17735161402E-01  0.10436984749E-01  0.30930426496E-01  0.51100000000E-03 0. -1.
</event>
<event>
 8    1  0.1123470E+005  0.1043930E+01  0.7957747E-01            NaN
         13   -1    0    0    0    0  0.00000000000E+00  0.00000000000E+00  0.74505805969E-08  0.10566000000E+00  0.10566000000E+00 0. -1.
     999900   -1    0    0    0    0 -0.00000000000E+00 -0.00000000000E+00 -0.74505805969E-08  0.93827000000E+00  0.93827000000E+00 0.  1.
     999902    2    1    2    0    0 -0.20255456431E-01  0.11704745517E-01 -0.42580382633E-02  0.10201515334E+01  0.10198743725E+01 0.  0.
     999903    2    3    3    0    0  0.54660365308E-01  0.13735480072E-01  0.11428064629E+00  0.12904664399E+00  0.20409587510E-01 0.  0.
         14    1    1    2    0    0  0.20255456431E-01 -0.11704745517E-01  0.42580382633E-02  0.23778466576E-01  0.00000000000E+00 0.  1.
     999901    1    3    3    0    0 -0.74915821739E-01 -0.20307345551E-02 -0.11853868455E+00  0.89110488943E+00  0.88000000000E+00 0.  1.
        -11    1    4    4    0    0  0.21244627167E-01  0.43117708478E-03  0.25134205307E-01  0.32916705402E-01  0.51100000000E-03 0.  1.
         11    1    4    4    0    0  0.33415738141E-01  0.13304302988E-01  0.89146440980E-01  0.96129938593E-01  0.51100000000E-03 0. -1.
</event>
<event>
 8    1  0.1123470E+005  0.1043930E+01  0.7957747E-01            NaN
         13   -1    0    0    0    0  0.00000000000E+00  0.00000000000E+00  0.74505805969E-08  0.10566000000E+00  0.10566000000E+00 0.  1.
     999900   -1    0    0    0    0 -0.00000000000E+00 -0.00000000000E+00 -0.74505805969E-08  0.93827000000E+00  0.93827000000E+00 0. -1.
     999902    2    1    2    0    0  0.10362336345E-01  0.95919056355E-02  0.17636477073E-01  0.10213373465E+01  0.10210874338E+01 0.  0.
     999903    2    3    3    0    0  0.66993657185E-01 -0.50928395629E-01 -0.97072101287E-01  0.13003051308E+00  0.20077098879E-01 0.  0.
         14    1    1    2    0    0 -0.10362336345E-01 -0.95919056355E-02 -0.17636477073E-01  0.22592653491E-01  0.00000000000E+00 0.  1.
     999901    1    3    3    0    0 -0.56631320841E-01  0.60520301265E-01  0.11470857836E+00  0.89130683343E+00  0.88000000000E+00 0.  1.
        -11    1    4    4    0    0  0.45442184385E-01 -0.24291613734E-01 -0.49947529768E-01  0.71764137774E-01  0.51100000000E-03 0.  1.
         11    1    4    4    0    0  0.21551472800E-01 -0.26636781895E-01 -0.47124571519E-01  0.58266375307E-01  0.51100000000E-03 0. -1.
</event>
<event>
 8    1  0.1123470E+005  0.1043930E+01  0.7957747E-01            NaN
         13   -1    0    0    0    0  0.00000000000E+00  0.00000000000E+00  0.74505805969E-08  0.10566000000E+00  0.10566000000E+00 0.  1.
     999900   -1    0    0    0    0 -0.00000000000E+00 -0.00000000000E+00 -0.74505805969E-08  0.93827000000E+00  0.93827000000E+00 0. -1.
     999902    2    1    2    0    0 -0.14606892565E-01 -0.77782073540E-02 -0.17381817477E-01  0.10199302209E+01  0.10196478147E+01 0.  0.
     999903    2    3    3    0    0  0.59476053737E-01  0.47759420390E-01 -0.10427789908E+00  0.13081625740E+00  0.20509747901E-01 0.  0.
         14    1    1    2    0    0  0.14606892565E-01  0.77782073540E-02  0.17381817477E-01  0.23999779141E-01  0.00000000000E+00 0.  1.
     999901    1    3    3    0    0 -0.74082946302E-01 -0.55537627744E-01  0.86896081600E-01  0.88911396346E+00  0.88000000000E+00 0. -1.
        -11    1    4    4    0    0  0.14154423619E-01  0.34036666813E-02 -0.28469176005E-01  0.31979489650E-01  0.51100000000E-03 0. -1.
         11    1    4    4    0    0  0.45321630118E-01  0.44355753709E-01 -0.75808723071E-01  0.98836767746E-01  0.51100000000E-03 0.  1.
</event>
<event>
 7    1  0.1123470E+005  0.1043930E+01  0.7957747E-01            NaN
         13   -1    0    0    0    0  0.00000000000E+00  0.00000000000E+00  0.74505805969E-08  0.10566000000E+00  0.10566000000E+00 0.  1.
     999900   -1    0    0    0    0 -0.00000000000E+00 -0.00000000000E+00 -0.74505805969E-08  0.93827000000E+00  0.93827000000E+00 0. -1.
     999903    2    1    2    0    0 -0.60570478657E-01  0.83183801219E-01  0.56141066258E-01  0.11898242209E+00  0.20412490690E-01 0.  0.
         14    1    1    2    0    0 -0.11890081699E-01 -0.26820886102E-01 -0.26721355380E-01  0.39683306408E-01  0.00000000000E+00 0. -1.
     999901    1    1    2    0    0  0.72460560356E-01 -0.56362915116E-01 -0.29419710878E-01  0.88526427150E+00  0.88000000000E+00 0. -1.
        -11    1    3    3    0    0 -0.50144041566E-01  0.70794781961E-01  0.55044496568E-01  0.10274475062E+00  0.51100000000E-03 0. -1.
         11    1    3    3    0    0 -0.10426437091E-01  0.12389019258E-01  0.10965696906E-02  0.16237671467E-01  0.51100000000E-03 0.  1.
</event>
<event>
 8    1  0.1123470E+005  0.1043930E+01  0.7957747E-01            NaN
         13   -1    0    0    0    0  0.00000000000E+00  0.00000000000E+00  0.74505805969E-08  0.10566000000E+00  0.10566000000E+00 0.  1.
     999900   -1    0    0    0    0 -0.00000000000E+00 -0.00000000000E+00 -0.74505805969E-08  0.93827000000E+00  0.93827000000E+00 0.  1.
     999902    2    1    2    0    0 -0.19761970743E-01 -0.90954147406E-02 -0.14789505158E-02  0.10221251989E+01  0.10218925936E+01 0.  0.
     999903    2    3    3    0    0 -0.10655782610E+00  0.51377794144E-03  0.79741629694E-01  0.13408092086E+00  0.16252124796E-01 0.  0.
         14    1    1    2    0    0  0.19761970743E-01  0.90954147406E-02  0.14789505158E-02  0.21804801113E-01  0.00000000000E+00 0. -1.
     999901    1    3    3    0    0  0.86795855359E-01 -0.96091926821E-02 -0.81220580210E-01  0.88804427803E+00  0.88000000000E+00 0.  1.
        -11    1    4    4    0    0 -0.98190978236E-01 -0.37063099912E-02  0.74663556695E-01  0.12341034300E+00  0.51100000000E-03 0. -1.
         11    1    4    4    0    0 -0.83668478661E-02  0.42200879326E-02  0.50780729986E-02  0.10670577855E-01  0.51100000000E-03 0.  1.
</event>
<event>
 8    1  0.1123470E+005  0.1043930E+01  0.7957747E-01            NaN
         13   -1    0    0    0    0  0.00000000000E+00  0.00000000000E+00  0.74505805969E-08  0.10566000000E+00  0.10566000000E+00 0. -1.
     999900   -1    0    0    0    0 -0.00000000000E+00 -0.00000000000E+00 -0.74505805969E-08  0.93827000000E+00  0.93827000000E+00 0.  1.
     999902    2    1    2    0    0 -0.42575618520E-02  0.14910652616E-01 -0.17836672687E-01  0.10202952526E+01  0.10200214709E+01 0.  0.
     999903    2    3    3    0    0  0.88476987419E-01  0.57971257361E-02  0.88515558074E-01  0.12900767271E+00  0.30760227996E-01 0.  0.
         14    1    1    2    0    0  0.42575618520E-02 -0.14910652616E-01  0.17836672687E-01  0.23634747447E-01  0.00000000000E+00 0. -1.
     999901    1    3    3    0    0 -0.92734549271E-01  0.91135268797E-02 -0.10635223076E+00  0.89128757985E+00  0.88000000000E+00 0. -1.
        -11    1    4    4    0    0  0.80290946042E-01  0.14751808212E-01  0.75317219554E-01  0.11107293345E+00  0.51100000000E-03 0. -1.
         11    1    4    4    0    0  0.81860413768E-02 -0.89546824755E-02  0.13198338521E-01  0.17934739261E-01  0.51100000000E-03 0.  1.
</event>
<event>
 8    1  0.1123470E+005  0.1043930E+01  0.7957747E-01            NaN
         13   -1    0    0    0    0  0.00000000000E+00  0.00000000000E+00  0.74505805969E-08  0.10566000000E+00  0.10566000000E+00 0.  1.
     999900   -1    0    0    0    0 -0.00000000000E+00 -0.00000000000E+00 -0.74505805969E-08  0.93827000000E+00  0.93827000000E+00 0. -1.
     999902    2    1    2    0    0 -0.20550555212E-01  0.10687698587E-01 -0.41293444077E-02  0.10204012154E+01  0.10201299116E+01 0.  0.
     999903    2    3    3    0    0 -0.98399684181E-01  0.79030616570E-02 -0.87094069252E-01  0.13307298600E+00  0.19444445811E-01 0.  0.
         14    1    1    2    0    0  0.20550555212E-01 -0.10687698587E-01  0.41293444077E-02  0.23528784624E-01  0.00000000000E+00 0.  1.
     999901    1    3    3    0    0  0.77849128969E-01  0.27846369304E-02  0.82964724844E-01  0.88732822938E+00  0.88000000000E+00 0.  1.
        -11    1    4    4    0    0 -0.47489786293E-01  0.54210501781E-02 -0.29540680504E-01  0.56192352797E-01  0.51100000000E-03 0.  1.
         11    1    4    4    0    0 -0.50909897888E-01  0.24820114789E-02 -0.57553388748E-01  0.76880633201E-01  0.51100000000E-03 0. -1.
</event>
<event>
 8    1  0.1123470E+005  0.1043930E+01  0.7957747E-01            NaN
         13   -1    0    0    0    0  0.00000000000E+00  0.00000000000E+00  0.74505805969E-08  0.10566000000E+00  0.10566000000E+00 0.  1.
     999900   -1    0    0    0    0 -0.00000000000E+00 -0.00000000000E+00 -0.74505805969E-08  0.93827000000E+00  0.93827000000E+00 0. -1.
     999902    2    1    2    0    0  0.97894391055E-02 -0.18137774099E-01 -0.11461805207E-01  0.10203464264E+01  0.10200738428E+01 0.  0.
     999903    2    3    3    0    0 -0.88410828249E-01 -0.47328394832E-01  0.79389031346E-01  0.12975714989E+00  0.21859737901E-01 0.  0.
         14    1    1    2    0    0 -0.97894391055E-02  0.18137774099E-01  0.11461805207E-01  0.23583573645E-01  0.00000000000E+00 0.  1.
     999901    1    3    3    0    0  0.98200267355E-01  0.29190620733E-01 -0.90850836553E-01  0.89058927646E+00  0.88000000000E+00 0. -1.
        -11    1    4    4    0    0 -0.65533685799E-01 -0.44169895878E-01  0.55824696059E-01  0.96758986597E-01  0.51100000000E-03 0. -1.
         11    1    4    4    0    0 -0.22877142451E-01 -0.31584989539E-02  0.23564335288E-01  0.32998163296E-01  0.51100000000E-03 0.  1.
</event>
<event>
 8    1  0.1123470E+005  0.1043930E+01  0.7957747E-01            NaN
         13   -1    0    0    0    0  0.00000000000E+00  0.00000000000E+00  0.74505805969E-08  0.10566000000E+00  0.10566000000E+00 0.  1.
     999900   -1    0    0    0    0 -0.00000000000E+00 -0.00000000000E+00 -0.74505805969E-08  0.93827000000E+00  0.93827000000E+00 0. -1.
     999902    2    1    2    0    0 -0.42082748352E-02 -0.17483689047E-01  0.17431196039E-01  0.10188853288E+01  0.10185774775E+01 0.  0.
     999903    2    3    3    0    0  0.72603343431E-02  0.11927805145E+00 -0.36136812001E-01  0.12663825868E+00  0.21246490722E-01 0.  0.
         14    1    1    2    0    0  0.42082748352E-02  0.17483689047E-01 -0.17431196039E-01  0.25044671192E-01  0.00000000000E+00 0. -1.
     999901    1    3    3    0    0 -0.11468609178E-01 -0.13676174050E+00  0.53568008040E-01  0.89224707012E+00  0.88000000000E+00 0. -1.
        -11    1    4    4    0    0 -0.10535429662E-02  0.80148469121E-01 -0.32400865256E-01  0.86457875556E-01  0.51100000000E-03 0.  1.
         11    1    4    4    0    0  0.83138773093E-02  0.39129582329E-01 -0.37359467458E-02  0.40180383127E-01  0.51100000000E-03 0. -1.
</event>
<event>
 8    1  0.1123470E+005  0.1043930E+01  0.7957747E-01            NaN
         13   -1    0    0    0    0  0.00000000000E+00  0.00000000000E+00  0.74505805969E-08  0.10566000000E+00  0.10566000000E+00 0. -1.
     999900   -1    0    0    0    0 -0.00000000000E+00 -0.00000000000E+00 -0.74505805969E-08  0.93827000000E+00  0.93827000000E+00 0. -1.
     999902    2    1    2    0    0  0.10060582160E-01 -0.20455039119E-01  0.74357630636E-02  0.10199526250E+01  0.10196707521E+01 0.  0.
     999903    2    3    3    0    0 -0.26941744156E-01 -0.86555620074E-03 -0.12473890566E+00  0.12909738254E+00  0.19486734655E-01 0.  0.
         14    1    1    2    0    0 -0.10060582160E-01  0.20455039119E-01 -0.74357630636E-02  0.23977374983E-01  0.00000000000E+00 0.  1.
     999901    1    3    3    0    0  0.37002326316E-01 -0.19589482918E-01  0.13217466873E+00  0.89085524248E+00  0.88000000000E+00 0.  1.
        -11    1    4    4    0    0 -0.22166023336E-01 -0.87623676626E-02 -0.83596638431E-01  0.86929688574E-01  0.51100000000E-03 0.  1.
         11    1    4    4    0    0 -0.47757208205E-02  0.78968114618E-02 -0.41142267231E-01  0.42167693967E-01  0.51100000000E-03 0. -1.
</event>
<event>
 8    1  0.1123470E+005  0.1043930E+01  0.7957747E-01            NaN
         13   -1    0    0    0    0  0.00000000000E+00  0.00000000000E+00  0.74505805969E-08  0.10566000000E+00  0.10566000000E+00 0. -1.
     999900   -1    0    0    0    0 -0.00000000000E+00 -0.00000000000E+00 -0.74505805969E-08  0.93827000000E+00  0.93827000000E+00 0. -1.
     999902    2    1    2    0    0 -0.88831072655E-02  0.16911472111E-01  0.14507469309E-01  0.10199430421E+01  0.10196609412E+01 0.  0.
     999903    2    3    3    0    0 -0.81690361955E-01  0.97911608206E-01 -0.28616782675E-01  0.13218090082E+00  0.19820999779E-01 0.  0.
         14    1    1    2    0    0  0.88831072655E-02 -0.16911472111E-01 -0.14507469309E-01  0.23986957902E-01  0.00000000000E+00 0. -1.
     999901    1    3    3    0    0  0.72807254690E-01 -0.81000136094E-01  0.43124251984E-01  0.88776214128E+00  0.88000000000E+00 0. -1.
        -11    1    4    4    0    0 -0.37812665716E-01  0.33085519236E-01 -0.16989002705E-01  0.53040895596E-01  0.51100000000E-03 0.  1.
         11    1    4    4    0    0 -0.43877696239E-01  0.64826088969E-01 -0.11627779969E-01  0.79140005220E-01  0.51100000000E-03 0. -1.
</event>
<event>
 8    1  0.1123470E+005  0.1043930E+01  0.7957747E-01            NaN
         13   -1    0    0    0    0  0.00000000000E+00  0.00000000000E+00  0.74505805969E-08  0.10566000000E+00  0.10566000000E+00 0. -1.
     999900   -1    0    0    0    0 -0.00000000000E+00 -0.00000000000E+00 -0.74505805969E-08  0.93827000000E+00  0.93827000000E+00 0.  1.
     999902    2    1    2    0    0 -0.22191720061E-02 -0.31222292655E-01  0.80893729805E-02  0.10116005361E+01  0.10110837999E+01 0.  0.
     999903    2    3    3    0    0  0.23998317906E-01  0.11131957288E+00 -0.27750763010E-01  0.11902557812E+00  0.20712721447E-01 0.  0.
         14    1    1    2    0    0  0.22191720061E-02  0.31222292655E-01 -0.80893729805E-02  0.32329463934E-01  0.00000000000E+00 0.  1.
     999901    1    3    3    0    0 -0.26217489912E-01 -0.14254186554E+00  0.35840135990E-01  0.89257495795E+00  0.88000000000E+00 0. -1.
        -11    1    4    4    0    0  0.20693651192E-01  0.82501406077E-01 -0.29323856616E-01  0.89971433756E-01  0.51100000000E-03 0.  1.
         11    1    4    4    0    0  0.33046667145E-02  0.28818166805E-01  0.15730936061E-02  0.29054144361E-01  0.51100000000E-03 0. -1.
</event>
<event>
 8    1  0.1123470E+005  0.1043930E+01  0.7957747E-01            NaN
         13   -1    0    0    0    0  0.00000000000E+00  0.00000000000E+00  0.74505805969E-08  0.10566000000E+00  0.10566000000E+00 0. -1.
     999900   -1    0    0    0    0 -0.00000000000E+00 -0.00000000000E+00 -0.74505805969E-08  0.93827000000E+00  0.93827000000E+00 0.  1.
     999902    2    1    2    0    0  0.11946606134E-01 -0.74955279310E-02  0.19069504992E-01  0.10202118559E+01  0.10199361160E+01 0.  0.
     999903    2    3    3    0    0 -0.90453152924E-02  0.12043501079E+00  0.44759594033E-01  0.13034284076E+00  0.19985627974E-01 0.  0.
         14    1    1    2    0    0 -0.11946606134E-01  0.74955279310E-02 -0.19069504992E-01  0.23718144061E-01  0.00000000000E+00 0.  1.
     999901    1    3    3    0    0  0.20991921426E-01 -0.12793053872E+00 -0.25690089041E-01  0.88986901518E+00  0.88000000000E+00 0. -1.
        -11    1    4    4    0    0  0.19605895768E-02  0.32851289265E-01  0.20576245101E-01  0.38816157735E-01  0.51100000000E-03 0.  1.
         11    1    4    4    0    0 -0.11005904869E-01  0.87583721528E-01  0.24183348932E-01  0.91526683023E-01  0.51100000000E-03 0. -1.
</event>
<event>
 8    1  0.1123470E+005  0.1043930E+01  0.7957747E-01            NaN
         13   -1    0    0    0    0  0.00000000000E+00  0.00000000000E+00  0.74505805969E-08  0.10566000000E+00  0.10566000000E+00 0. -1.
     999900   -1    0    0    0    0 -0.00000000000E+00 -0.00000000000E+00 -0.74505805969E-08  0.93827000000E+00  0.93827000000E+00 0. -1.
     999902    2    1    2    0    0 -0.10750001192E-01 -0.27079333869E-02  0.22433237036E-01  0.10189070994E+01  0.10185997898E+01 0.  0.
     999903    2    3    3    0    0 -0.14995773415E-01  0.88445479609E-01 -0.88137825321E-01  0.12730576974E+00  0.19773888664E-01 0.  0.
         14    1    1    2    0    0  0.10750001192E-01  0.27079333869E-02 -0.22433237036E-01  0.25022900566E-01  0.00000000000E+00 0.  1.
     999901    1    3    3    0    0  0.42457722234E-02 -0.91153412996E-01  0.11057106236E+00  0.89160132969E+00  0.88000000000E+00 0.  1.
        -11    1    4    4    0    0 -0.17070246939E-03  0.37129230387E-01 -0.25823192035E-01  0.45229495424E-01  0.51100000000E-03 0.  1.
         11    1    4    4    0    0 -0.14825070946E-01  0.51316249222E-01 -0.62314633286E-01  0.82076274315E-01  0.51100000000E-03 0. -1.
</event>
<event>
 8    1  0.1123470E+005  0.1043930E+01  0.7957747E-01            NaN
         13   -1    0    0    0    0  0.00000000000E+00  0.00000000000E+00  0.74505805969E-08  0.10566000000E+00  0.10566000000E+00 0. -1.
     999900   -1    0    0    0    0 -0.00000000000E+00 -0.00000000000E+00 -0.74505805969E-08  0.93827000000E+00  0.93827000000E+00 0.  1.
     999902    2    1    2    0    0  0.12807877809E-01  0.17905951187E-01  0.38053118194E-03  0.10219116071E+01  0.10216743723E+01 0.  0.
     999903    2    3    3    0    0 -0.70946936071E-01  0.36760636658E-01  0.10300564722E+00  0.13179797253E+00  0.19383757597E-01 0.  0.
         14    1    1    2    0    0 -0.12807877809E-01 -0.17905951187E-01 -0.38053118194E-03  0.22018392900E-01  0.00000000000E+00 0. -1.
     999901    1    3    3    0    0  0.83754813880E-01 -0.18854685471E-01 -0.10262511603E+00  0.89011363457E+00  0.88000000000E+00 0.  1.
        -11    1    4    4    0    0 -0.30667757038E-01  0.25054681618E-01  0.41658562001E-01  0.57479955651E-01  0.51100000000E-03 0.  1.
         11    1    4    4    0    0 -0.40279179033E-01  0.11705955040E-01  0.61347085215E-01  0.74318016876E-01  0.51100000000E-03 0. -1.
</event>
<event>
 8    1  0.1123470E+005  0.1043930E+01  0.7957747E-01            NaN
         13   -1    0    0    0    0  0.00000000000E+00  0.00000000000E+00  0.74505805969E-08  0.10566000000E+00  0.10566000000E+00 0.  1.
     999900   -1    0    0    0    0 -0.00000000000E+00 -0.00000000000E+00 -0.74505805969E-08  0.93827000000E+00  0.93827000000E+00 0.  1.
     999902    2    1    2    0    0  0.14505457834E-01  0.15216035323E-01 -0.13856281581E-01  0.10187519823E+01  0.10184408028E+01 0.  0.
     999903    2    3    3    0    0 -0.80869743061E-01 -0.69729433143E-01  0.63678469546E-01  0.12615812211E+00  0.21419969656E-01 0.  0.
         14    1    1    2    0    0 -0.14505457834E-01 -0.15216035323E-01  0.13856281581E-01  0.25178017737E-01  0.00000000000E+00 0.  1.
     999901    1    3    3    0    0  0.95375200895E-01  0.84945468466E-01 -0.77534751128E-01  0.89259386016E+00  0.88000000000E+00 0.  1.
        -11    1    4    4    0    0 -0.58659060798E-01 -0.44771134021E-01  0.33150908202E-01  0.80898601291E-01  0.51100000000E-03 0. -1.
         11    1    4    4    0    0 -0.22210682263E-01 -0.24958299123E-01  0.30527561344E-01  0.45259520814E-01  0.51100000000E-03 0.  1.
</event>
<event>
 8    1  0.1123470E+005  0.1043930E+01  0.7957747E-01            NaN
         13   -1    0    0    0    0  0.00000000000E+00  0.00000000000E+00  0.74505805969E-08  0.10566000000E+00  0.10566000000E+00 0. -1.
     999900   -1    0    0    0    0 -0.00000000000E+00 -0.00000000000E+00 -0.74505805969E-08  0.93827000000E+00  0.93827000000E+00 0. -1.
     999902    2    1    2    0    0 -0.59911088133E-02 -0.16493138521E-01 -0.14838032978E-01  0.10209499168E+01  0.10206912600E+01 0.  0.
     999903    2    3    3    0    0  0.77496776615E-01  0.31107083118E-01  0.95869194791E-01  0.12882206808E+00  0.20756245045E-01 0.  0.
         14    1    1    2    0    0  0.59911088133E-02  0.16493138521E-01  0.14838032978E-01  0.22980083240E-01  0.00000000000E+00 0.  1.
     999901    1    3    3    0    0 -0.83487885428E-01 -0.47600221638E-01 -0.11070722777E+00  0.89212784868E+00  0.88000000000E+00 0. -1.
        -11    1    4    4    0    0  0.46363949360E-01  0.24155007330E-01  0.71991090795E-01  0.88972234175E-01  0.51100000000E-03 0.  1.
         11    1    4    4    0    0  0.31132827255E-01  0.69520757879E-02  0.23878103996E-01  0.39849833903E-01  0.51100000000E-03 0. -1.
</event>
<event>
 8    1  0.1123470E+005  0.1043930E+01  0.7957747E-01            NaN
         13   -1    0    0    0    0  0.00000000000E+00  0.00000000000E+00  0.74505805969E-08  0.10566000000E+00  0.10566000000E+00 0. -1.
     999900   -1    0    0    0    0 -0.00000000000E+00 -0.00000000000E+00 -0.74505805969E-08  0.93827000000E+00  0.93827000000E+00 0. -1.
     999902    2    1    2    0    0  0.76448472684E-02 -0.15738398553E-01  0.16876178361E-01  0.10196206134E+01  0.10193307849E+01 0.  0.
     999903    2    3    3    0    0 -0.12241228898E+00 -0.30647196989E-01 -0.24722120339E-01  0.12896492833E+00  0.98361745410E-02 0.  0.
         14    1    1    2    0    0 -0.76448472684E-02  0.15738398553E-01 -0.16876178361E-01  0.24309386559E-01  0.00000000000E+00 0.  1.
     999901    1    3    3    0    0  0.13005713625E+00  0.14908798436E-01  0.41598298700E-01  0.89065568511E+00  0.88000000000E+00 0. -1.
        -11    1    4    4    0    0 -0.61558526768E-01 -0.12623941538E-01 -0.81471483110E-02  0.63367604219E-01  0.51100000000E-03 0.  1.
         11    1    4    4    0    0 -0.60853762211E-01 -0.18023255451E-01 -0.16574972028E-01  0.65597324115E-01  0.51100000000E-03 0. -1.
</event>
<event>
 8    1  0.1123470E+005  0.1043930E+01  0.7957747E-01            NaN
         13   -1    0    0    0    0  0.00000000000E+00  0.00000000000E+00  0.74505805969E-08  0.10566000000E+00  0.10566000000E+00 0.  1.
     999900   -1    0    0    0    0 -0.00000000000E+00 -0.00000000000E+00 -0.74505805969E-08  0.93827000000E+00  0.93827000000E+00 0.  1.
     999902    2    1    2    0    0  0.15097574129E-01  0.78208758732E-03 -0.20164169764E-01  0.10187279733E+01  0.10184161927E+01 0.  0.
     999903    2    3    3    0    0  0.16510974188E-01 -0.75390783172E-01 -0.10443112668E+00  0.13142575652E+00  0.20260473850E-01 0.  0.
         14    1    1    2    0    0 -0.15097574129E-01 -0.78208758732E-03  0.20164169764E-01  0.25202026662E-01  0.00000000000E+00 0.  1.
     999901    1    3    3    0    0 -0.14134000585E-02  0.76172870759E-01  0.84266956920E-01  0.88730221682E+00  0.88000000000E+00 0. -1.
        -11    1    4    4    0    0  0.87051293202E-02 -0.86858977719E-02 -0.12176947981E-01  0.17313673201E-01  0.51100000000E-03 0.  1.
         11    1    4    4    0    0  0.78058448677E-02 -0.66704885400E-01 -0.92254178704E-01  0.11411208332E+00  0.51100000000E-03 0. -1.
</event>
<event>
 8    1  0.1123470E+005  0.1043930E+01  0.7957747E-01            NaN
         13   -1    0    0    0    0  0.00000000000E+00  0.00000000000E+00  0.74505805969E-08  0.10566000000E+00  0.10566000000E+00 0. -1.
     999900   -1    0    0    0    0 -0.00000000000E+00 -0.00000000000E+00 -0.74505805969E-08  0.93827000000E+00  0.93827000000E+00 0. -1.
     999902    2    1    2    0    0  0.22013956862E-01 -0.72273211329E-02 -0.23500828276E-01  0.10109279183E+01  0.10103890927E+01 0.  0.
     999903    2    3    3    0    0  0.39535686316E-01  0.11290322286E+00  0.12872394900E-01  0.12184897356E+00  0.19268253188E-01 0.  0.
         14    1    1    2    0    0 -0.22013956862E-01  0.72273211329E-02  0.23500828276E-01  0.33002081709E-01  0.00000000000E+00 0. -1.
     999901    1    3    3    0    0 -0.17521729454E-01 -0.12013054400E+00 -0.36373223176E-01  0.88907894473E+00  0.88000000000E+00 0. -1.
        -11    1    4    4    0    0  0.19717421352E-01  0.65584239367E-01  0.16405002387E-01  0.70423393715E-01  0.51100000000E-03 0.  1.
         11    1    4    4    0    0  0.19818264964E-01  0.47318983498E-01 -0.35326074871E-02  0.51425579842E-01  0.51100000000E-03 0. -1.
</event>
<event>
 8    1  0.1123470E+005  0.1043930E+01  0.7957747E-01            NaN
         13   -1    0    0    0    0  0.00000000000E+00  0.00000000000E+00  0.74505805969E-08  0.10566000000E+00  0.10566000000E+00 0.  1.
     999900   -1    0    0    0    0 -0.00000000000E+00 -0.00000000000E+00 -0.74505805969E-08  0.93827000000E+00  0.93827000000E+00 0. -1.
     999902    2    1    2    0    0 -0.39683545292E-02  0.23143699213E-01 -0.31044916844E-03  0.10204464945E+01  0.10201762461E+01 0.  0.
     999903    2    3    3    0    0  0.47536487220E-01 -0.41649426048E-01 -0.11172026029E+00  0.12956881278E+00  0.17671117063E-01 0.  0.
         14    1    1    2    0    0  0.39683545292E-02 -0.23143699213E-01  0.31044916844E-03  0.23483505479E-01  0.00000000000E+00 0.  1.
     999901    1    3    3    0    0 -0.51504841750E-01  0.64793125261E-01  0.11140981113E+00  0.89087768174E+00  0.88000000000E+00 0.  1.
        -11    1    4    4    0    0  0.27906392800E-01 -0.29307093865E-01 -0.54966089265E-01  0.68258366520E-01  0.51100000000E-03 0.  1.
         11    1    4    4    0    0  0.19630094421E-01 -0.12342332183E-01 -0.56754171028E-01  0.61310446262E-01  0.51100000000E-03 0. -1.
</event>
<event>
 8    1  0.1123470E+005  0.1043930E+01  0.7957747E-01            NaN
         13   -1    0    0    0    0  0.00000000000E+00  0.00000000000E+00  0.74505805969E-08  0.10566000000E+00  0.10566000000E+00 0.  1.
     999900   -1    0    0    0    0 -0.00000000000E+00 -0.00000000000E+00 -0.74505805969E-08  0.93827000000E+00  0.93827000000E+00 0.  1.
     999902    2    1    2    0    0 -0.30010323395E-02 -0.13815012148E-01 -0.22418965717E-01  0.10174258347E+01  0.10170805564E+01 0.  0.
     999903    2    3    3    0    0 -0.51866254123E-01 -0.11608919179E+00  0.13973926113E-01  0.12940992249E+00  0.19617560005E-01 0.  0.
         14    1    1    2    0    0  0.30010323395E-02  0.13815012148E-01  0.22418965717E-01  0.26504165325E-01  0.00000000000E+00 0.  1.
     999901    1    3    3    0    0  0.48865221784E-01  0.10227417964E+00 -0.36392891830E-01  0.88801591219E+00  0.88000000000E+00 0.  1.
        -11    1    4    4    0    0 -0.50901880216E-01 -0.97437675167E-01  0.10856618337E-01  0.11046822726E+00  0.51100000000E-03 0.  1.
         11    1    4    4    0    0 -0.96437390742E-03 -0.18651516622E-01  0.31173077759E-02  0.18941695228E-01  0.51100000000E-03 0. -1.
</event>
<event>
 8    1  0.1123470E+005  0.1043930E+01  0.7957747E-01            NaN
         13   -1    0    0    0    0  0.00000000000E+00  0.00000000000E+00  0.74505805969E-08  0.10566000000E+00  0.10566000000E+00 0.  1.
     999900   -1    0    0    0    0 -0.00000000000E+00 -0.00000000000E+00 -0.74505805969E-08  0.93827000000E+00  0.93827000000E+00 0. -1.
     999902    2    1    2    0    0 -0.51643952965E-02  0.47873857907E-02 -0.22085498328E-01  0.10207489889E+01  0.10204857368E+01 0.  0.
     999903    2    3    3    0    0  0.11957094652E+00 -0.42558228676E-01  0.17728078539E-01  0.12980250695E+00  0.20639572726E-01 0.  0.
         14    1    1    2    0    0  0.51643952965E-02 -0.47873857907E-02  0.22085498328E-01  0.23181011149E-01  0.00000000000E+00 0.  1.
     999901    1    3    3    0    0 -0.12473534182E+00  0.47345614467E-01 -0.39813576867E-01  0.89094648190E+00  0.88000000000E+00 0.  1.
        -11    1    4    4    0    0  0.69655335931E-01 -0.13917194717E-01  0.10060539481E-01  0.71742802482E-01  0.51100000000E-03 0. -1.
         11    1    4    4    0    0  0.49915610590E-01 -0.28641033959E-01  0.76675390581E-02  0.58059704469E-01  0.51100000000E-03 0.  1.
</event>
<event>
 8    1  0.1123470E+005  0.1043930E+01  0.7957747E-01            NaN
         13   -1    0    0    0    0  0.00000000000E+00  0.00000000000E+00  0.74505805969E-08  0.10566000000E+00  0.10566000000E+00 0.  1.
     999900   -1    0    0    0    0 -0.00000000000E+00 -0.00000000000E+00 -0.74505805969E-08  0.93827000000E+00  0.93827000000E+00 0.  1.
     999902    2    1    2    0    0 -0.12120340449E-01 -0.18039408124E-01 -0.14392595058E-01  0.10178633606E+01  0.10175295333E+01 0.  0.
     999903    2    3    3    0    0  0.44294073589E-01  0.41565445035E-01 -0.11154762908E+00  0.12872083811E+00  0.20893286799E-01 0.  0.
         14    1    1    2    0    0  0.12120340449E-01  0.18039408124E-01  0.14392595058E-01  0.26066639418E-01  0.00000000000E+00 0.  1.
     999901    1    3    3    0    0 -0.56414414037E-01 -0.59604853159E-01  0.97155034027E-01  0.88914252247E+00  0.88000000000E+00 0. -1.
        -11    1    4    4    0    0  0.18341093717E-01  0.29115697071E-01 -0.72022877351E-01  0.79822775682E-01  0.51100000000E-03 0.  1.
         11    1    4    4    0    0  0.25952979872E-01  0.12449747964E-01 -0.39524751733E-01  0.48898062428E-01  0.51100000000E-03 0. -1.
</event>
<event>
 8    1  0.1123470E+005  0.1043930E+01  0.7957747E-01            NaN
         13   -1    0    0    0    0  0.00000000000E+00  0.00000000000E+00  0.74505805969E-08  0.10566000000E+00  0.10566000000E+00 0. -1.
     999900   -1    0    0    0    0 -0.00000000000E+00 -0.00000000000E+00 -0.74505805969E-08  0.93827000000E+00  0.93827000000E+00 0. -1.
     999902    2    1    2    0    0 -0.19548826608E-01  0.57209031349E-03  0.13329235187E-01  0.10202624606E+01  0.10199879098E+01 0.  0.
     999903    2    3    3    0    0  0.10422051749E+00 -0.15777034346E-01 -0.69233497623E-01  0.12762437649E+00  0.19592682356E-01 0.  0.
         14    1    1    2    0    0  0.19548826608E-01 -0.57209031349E-03 -0.13329235187E-01  0.23667539368E-01  0.00000000000E+00 0.  1.
     999901    1    3    3    0    0 -0.12376934410E+00  0.16349124659E-01  0.82562732810E-01  0.89263808414E+00  0.88000000000E+00 0.  1.
        -11    1    4    4    0    0  0.37133909301E-01 -0.26573576741E-02 -0.14138186646E-01  0.39826350729E-01  0.51100000000E-03 0.  1.
         11    1    4    4    0    0  0.67086608191E-01 -0.13119676672E-01 -0.55095310977E-01  0.87798025759E-01  0.51100000000E-03 0. -1.
</event>
<event>
 8    1  0.1123470E+005  0.1043930E+01  0.7957747E-01            NaN
         13   -1    0    0    0    0  0.00000000000E+00  0.00000000000E+00  0.74505805969E-08  0.10566000000E+00  0.10566000000E+00 0. -1.
     999900   -1    0    0    0    0 -0.00000000000E+00 -0.00000000000E+00 -0.74505805969E-08  0.93827000000E+00  0.93827000000E+00 0. -1.
     999902    2    1    2    0    0  0.20993850012E-01  0.70187089412E-02 -0.17803926009E-01  0.10155225398E+01  0.10151251376E+01 0.  0.
     999903    2    3    3    0    0  0.10826795627E-01 -0.12241385531E+00 -0.19084344778E-01  0.12599581330E+00  0.20207950908E-01 0.  0.
         14    1    1    2    0    0 -0.20993850012E-01 -0.70187089412E-02  0.17803926009E-01  0.28407460197E-01  0.00000000000E+00 0. -1.
     999901    1    3    3    0    0  0.10167054385E-01  0.12943256425E+00  0.12804187684E-02  0.88952672650E+00  0.88000000000E+00 0.  1.
        -11    1    4    4    0    0 -0.39388618401E-02 -0.53636472437E-01 -0.13354178762E-01  0.55416432757E-01  0.51100000000E-03 0. -1.
         11    1    4    4    0    0  0.14765657467E-01 -0.68777382870E-01 -0.57301660161E-02  0.70579380547E-01  0.51100000000E-03 0.  1.
</event>
<event>
 8    1  0.1123470E+005  0.1043930E+01  0.7957747E-01            NaN
         13   -1    0    0    0    0  0.00000000000E+00  0.00000000000E+00  0.74505805969E-08  0.10566000000E+00  0.10566000000E+00 0.  1.
     999900   -1    0    0    0    0 -0.00000000000E+00 -0.00000000000E+00 -0.74505805969E-08  0.93827000000E+00  0.93827000000E+00 0.  1.
     999902    2    1    2    0    0 -0.17650680100E-02  0.10082052613E-02  0.23644819403E-01  0.10201979662E+01  0.10199218994E+01 0.  0.
     999903    2    3    3    0    0 -0.30800636762E-01 -0.10173842038E+00  0.76190964117E-01  0.13218837693E+00  0.19217663170E-01 0.  0.
         14    1    1    2    0    0  0.17650680100E-02 -0.10082052613E-02 -0.23644819403E-01  0.23732033784E-01  0.00000000000E+00 0. -1.
     999901    1    3    3    0    0  0.29035568752E-01  0.10274662564E+00 -0.52546144714E-01  0.88800958928E+00  0.88000000000E+00 0.  1.
        -11    1    4    4    0    0 -0.14777412573E-01 -0.63470923650E-01  0.56547625552E-01  0.86283400188E-01  0.51100000000E-03 0.  1.
         11    1    4    4    0    0 -0.16023224189E-01 -0.38267496725E-01  0.19643338565E-01  0.45904976746E-01  0.51100000000E-03 0. -1.
</event>
<event>
 8    1  0.1123470E+005  0.1043930E+01  0.7957747E-01            NaN
         13   -1    0    0    0    0  0.00000000000E+00  0.00000000000E+00  0.74505805969E-08  0.10566000000E+00  0.10566000000E+00 0.  1.
     999900   -1    0    0    0    0 -0.00000000000E+00 -0.00000000000E+00 -0.74505805969E-08  0.93827000000E+00  0.93827000000E+00 0.  1.
     999902    2    1    2    0    0  0.16691797784E-01  0.71110940437E-02  0.14124482384E-01  0.10209368538E+01  0.10206778995E+01 0.  0.
     999903    2    3    3    0    0  0.84898424981E-01 -0.94072979425E-01 -0.27800397362E-01  0.13152802972E+00  0.21663159685E-01 0.  0.
         14    1    1    2    0    0 -0.16691797784E-01 -0.71110940437E-02 -0.14124482384E-01  0.22993146248E-01  0.00000000000E+00 0. -1.
     999901    1    3    3    0    0 -0.68206627197E-01  0.10118407347E+00  0.41924879746E-01  0.88940882403E+00  0.88000000000E+00 0.  1.
        -11    1    4    4    0    0  0.67911217204E-01 -0.65113878183E-01 -0.27227088116E-01  0.97945525689E-01  0.51100000000E-03 0.  1.
         11    1    4    4    0    0  0.16987207777E-01 -0.28959101242E-01 -0.57330924568E-03  0.33582504036E-01  0.51100000000E-03 0. -1.
</event>
<event>
 8    1  0.1123470E+005  0.1043930E+01  0.7957747E-01            NaN
         13   -1    0    0    0    0  0.00000000000E+00  0.00000000000E+00  0.74505805969E-08  0.10566000000E+00  0.10566000000E+00 0.  1.
     999900   -1    0    0    0    0 -0.00000000000E+00 -0.00000000000E+00 -0.74505805969E-08  0.93827000000E+00  0.93827000000E+00 0.  1.
     999902    2    1    2    0    0  0.83845120663E-02 -0.86102824509E-02  0.20981166585E-01  0.10197505385E+01  0.10194638368E+01 0.  0.
     999903    2    3    3    0    0 -0.58530229392E-01 -0.91962173975E-01 -0.66231313466E-01  0.12900302259E+00  0.19296729248E-01 0.  0.
         14    1    1    2    0    0 -0.83845120663E-02  0.86102824509E-02 -0.20981166585E-01  0.24179461486E-01  0.00000000000E+00 0. -1.
     999901    1    3    3    0    0  0.66914741458E-01  0.83351891524E-01  0.87212480050E-01  0.89074751592E+00  0.88000000000E+00 0. -1.
        -11    1    4    4    0    0 -0.10021207169E-01 -0.12417830251E-01 -0.18099833878E-01  0.24134875360E-01  0.51100000000E-03 0.  1.
         11    1    4    4    0    0 -0.48509022223E-01 -0.79544343724E-01 -0.48131479588E-01  0.10486814723E+00  0.51100000000E-03 0. -1.
</event>
<event>
 8    1  0.1123470E+005  0.1043930E+01  0.7957747E-01            NaN
         13   -1    0    0    0    0  0.00000000000E+00  0.00000000000E+00  0.74505805969E-08  0.10566000000E+00  0.10566000000E+00 0. -1.
     999900   -1    0    0    0    0 -0.00000000000E+00 -0.00000000000E+00 -0.74505805969E-08  0.93827000000E+00  0.93827000000E+00 0.  1.
     999902    2    1    2    0    0 -0.65070835991E-02  0.22676330337E-01  0.63264429422E-02  0.10195049724E+01  0.10192123462E+01 0.  0.
     999903    2    3    3    0    0 -0.70791317404E-01  0.20872484888E-01  0.10693548871E+00  0.13144084368E+00  0.19860145940E-01 0.  0.
         14    1    1    2    0    0  0.65070835991E-02 -0.22676330337E-01 -0.63264429422E-02  0.24425027632E-01  0.00000000000E+00 0.  1.
     999901    1    3    3    0    0  0.64284233805E-01  0.18038454491E-02 -0.10060904577E+00  0.88806412869E+00  0.88000000000E+00 0.  1.
        -11    1    4    4    0    0 -0.36932519035E-01  0.19861557420E-02  0.60891337805E-01  0.71245855441E-01  0.51100000000E-03 0.  1.
         11    1    4    4    0    0 -0.33858798369E-01  0.18886329146E-01  0.46044150903E-01  0.60194988238E-01  0.51100000000E-03 0. -1.
</event>
<event>
 7    1  0.1250869E+005  0.1043930E+01  0.7957747E-01            NaN
         13   -1    0    0    0    0  0.00000000000E+00  0.00000000000E+00  0.74505805969E-08  0.10566000000E+00  0.10566000000E+00 0. -1.
     999900   -1    0    0    0    0 -0.00000000000E+00 -0.00000000000E+00 -0.74505805969E-08  0.93827000000E+00  0.93827000000E+00 0.  1.
     999903    2    1    2    0    0 -0.78716288793E-01  0.52891538591E-01  0.62172446493E-01  0.11534939824E+00  0.21125851359E-01 0.  0.
         14    1    1    2    0    0 -0.29889312921E-01 -0.24246001750E-01  0.54367935042E-02  0.38868989585E-01  0.00000000000E+00 0. -1.
     999901    1    1    2    0    0  0.10860560171E+00 -0.28645536841E-01 -0.67609239997E-01  0.88971161217E+00  0.88000000000E+00 0.  1.
        -11    1    3    3    0    0 -0.45419945390E-01  0.18086458263E-01  0.28710246535E-01  0.56697714141E-01  0.51100000000E-03 0. -1.
         11    1    3    3    0    0 -0.33296343403E-01  0.34805080328E-01  0.33462199958E-01  0.58651684099E-01  0.51100000000E-03 0.  1.
</event>
<event>
 8    1  0.1123470E+005  0.1043930E+01  0.7957747E-01            NaN
         13   -1    0    0    0    0  0.00000000000E+00  0.00000000000E+00  0.74505805969E-08  0.10566000000E+00  0.10566000000E+00 0. -1.
     999900   -1    0    0    0    0 -0.00000000000E+00 -0.00000000000E+00 -0.74505805969E-08  0.93827000000E+00  0.93827000000E+00 0.  1.
     999902    2    1    2    0    0  0.10363407307E-01  0.96048384460E-02 -0.18214924528E-01  0.10208770911E+01  0.10206167736E+01 0.  0.
     999903    2    3    3    0    0  0.51117128121E-01  0.10173805625E+00  0.61827409045E-01  0.13151992397E+00  0.22611258592E-01 0.  0.
         14    1    1    2    0    0 -0.10363407307E-01 -0.96048384460E-02  0.18214924528E-01  0.23052908887E-01  0.00000000000E+00 0.  1.
     999901    1    3    3    0    0 -0.40753720813E-01 -0.92133217804E-01 -0.80042333574E-01  0.88935716714E+00  0.88000000000E+00 0.  1.
        -11    1    4    4    0    0  0.28281572873E-01  0.71398843975E-01  0.50410499209E-01  0.91864693090E-01  0.51100000000E-03 0.  1.
         11    1    4    4    0    0  0.22835555247E-01  0.30339212275E-01  0.11416909837E-01  0.39655230880E-01  0.51100000000E-03 0. -1.
</event>
<event>
 8    1  0.1123470E+005  0.1043930E+01  0.7957747E-01            NaN
         13   -1    0    0    0    0  0.00000000000E+00  0.00000000000E+00  0.74505805969E-08  0.10566000000E+00  0.10566000000E+00 0. -1.
     999900   -1    0    0    0    0 -0.00000000000E+00 -0.00000000000E+00 -0.74505805969E-08  0.93827000000E+00  0.93827000000E+00 0.  1.
     999902    2    1    2    0    0 -0.78740755669E-03 -0.22863266211E-01  0.54539908853E-02  0.10204120288E+01  0.10201409773E+01 0.  0.
     999903    2    3    3    0    0 -0.51528251862E-01 -0.85190320152E-03  0.11909311959E+00  0.13138279140E+00  0.20551891961E-01 0.  0.
         14    1    1    2    0    0  0.78740755669E-03  0.22863266211E-01 -0.54539908853E-02  0.23517971194E-01  0.00000000000E+00 0.  1.
     999901    1    3    3    0    0  0.50740844305E-01 -0.22011363010E-01 -0.11363912871E+00  0.88902923740E+00  0.88000000000E+00 0.  1.
        -11    1    4    4    0    0 -0.68050694193E-02  0.40465422885E-02  0.36267625124E-01  0.37125264005E-01  0.51100000000E-03 0. -1.
         11    1    4    4    0    0 -0.44723182442E-01 -0.48984454900E-02  0.82825494471E-01  0.94257527399E-01  0.51100000000E-03 0.  1.
</event>
<event>
 7    1  0.1123470E+005  0.1043930E+01  0.7957747E-01            NaN
         13   -1    0    0    0    0  0.00000000000E+00  0.00000000000E+00  0.74505805969E-08  0.10566000000E+00  0.10566000000E+00 0. -1.
     999900   -1    0    0    0    0 -0.00000000000E+00 -0.00000000000E+00 -0.74505805969E-08  0.93827000000E+00  0.93827000000E+00 0. -1.
     999902    2    1    2    0    0  0.21530176995E-01 -0.82760183624E-02 -0.37136824338E-02  0.10205669429E+01  0.10202994915E+01 0.  0.
         14    1    1    2    0    0 -0.21530176995E-01  0.82760183624E-02  0.37136824338E-02  0.23363057133E-01  0.00000000000E+00 0. -1.
     999901    1    3    3    0    0  0.12970640144E-01  0.72230107813E-01  0.10028038660E+00  0.88873032013E+00  0.88000000000E+00 0.  1.
        -11    1    3    3    0    0  0.22609088658E-02 -0.36032281678E-01 -0.45664042777E-01  0.58214284807E-01  0.51100000000E-03 0.  1.
         11    1    3    3    0    0  0.62986279854E-02 -0.44473844498E-01 -0.58330026252E-01  0.73622337932E-01  0.51100000000E-03 0. -1.
</event>
<event>
 8    1  0.1123470E+005  0.1043930E+01  0.7957747E-01            NaN
         13   -1    0    0    0    0  0.00000000000E+00  0.00000000000E+00  0.74505805969E-08  0.10566000000E+00  0.10566000000E+00 0. -1.
     999900   -1    0    0    0    0 -0.00000000000E+00 -0.00000000000E+00 -0.74505805969E-08  0.93827000000E+00  0.93827000000E+00 0. -1.
     999902    2    1    2    0    0 -0.18629319294E-01  0.16220043838E-02  0.14613645442E-01  0.10201972996E+01  0.10199212171E+01 0.  0.
     999903    2    3    3    0    0  0.95491646742E-01  0.10332402258E-01 -0.81395572800E-01  0.12760711596E+00  0.20806817138E-01 0.  0.
         14    1    1    2    0    0  0.18629319294E-01 -0.16220043838E-02 -0.14613645442E-01  0.23732700408E-01  0.00000000000E+00 0.  1.
     999901    1    3    3    0    0 -0.11412096604E+00 -0.87103978742E-02  0.96009218242E-01  0.89259018363E+00  0.88000000000E+00 0. -1.
        -11    1    4    4    0    0  0.48586562683E-01  0.15077582873E-01 -0.46825026913E-01  0.69143559679E-01  0.51100000000E-03 0.  1.
         11    1    4    4    0    0  0.46905084059E-01 -0.47451806149E-02 -0.34570545887E-01  0.58463556286E-01  0.51100000000E-03 0. -1.
</event>
<event>
 8    1  0.1123470E+005  0.1043930E+01  0.7957747E-01            NaN
         13   -1    0    0    0    0  0.00000000000E+00  0.00000000000E+00  0.74505805969E-08  0.10566000000E+00  0.10566000000E+00 0.  1.
     999900   -1    0    0    0    0 -0.00000000000E+00 -0.00000000000E+00 -0.74505805969E-08  0.93827000000E+00  0.93827000000E+00 0. -1.
     999902    2    1    2    0    0  0.47727557889E-02 -0.14449552642E-01  0.18392186653E-01  0.10200586511E+01  0.10197792949E+01 0.  0.
     999903    2    3    3    0    0 -0.13058469658E-01  0.63740687689E-01  0.11236137308E+00  0.13142944028E+00  0.20376965336E-01 0.  0.
         14    1    1    2    0    0 -0.47727557889E-02  0.14449552642E-01 -0.18392186653E-01  0.23871348919E-01  0.00000000000E+00 0.  1.
     999901    1    3    3    0    0  0.17831225447E-01 -0.78190240331E-01 -0.93969186426E-01  0.88862921080E+00  0.88000000000E+00 0. -1.
        -11    1    4    4    0    0 -0.11199094199E-01  0.32714211036E-01  0.76607135844E-01  0.84050899447E-01  0.51100000000E-03 0.  1.
         11    1    4    4    0    0 -0.18593754591E-02  0.31026476653E-01  0.35754237234E-01  0.47378540837E-01  0.51100000000E-03 0. -1.
</event>
<event>
 8    1  0.1123470E+005  0.1043930E+01  0.7957747E-01            NaN
         13   -1    0    0    0    0  0.00000000000E+00  0.00000000000E+00  0.74505805969E-08  0.10566000000E+00  0.10566000000E+00 0. -1.
     999900   -1    0    0    0    0 -0.00000000000E+00 -0.00000000000E+00 -0.74505805969E-08  0.93827000000E+00  0.93827000000E+00 0. -1.
     999902    2    1    2    0    0 -0.35344974871E-02  0.21669604057E-01 -0.10244938525E-01  0.10197014388E+01  0.10194135574E+01 0.  0.
     999903    2    3    3    0    0  0.50024198309E-01  0.94467018112E-01  0.73303828325E-01  0.13113608170E+00  0.19919406370E-01 0.  0.
         14    1    1    2    0    0  0.35344974871E-02 -0.21669604057E-01  0.10244938525E-01  0.24228561200E-01  0.00000000000E+00 0. -1.
     999901    1    3    3    0    0 -0.53558695796E-01 -0.72797414055E-01 -0.83548766850E-01  0.88856535710E+00  0.88000000000E+00 0. -1.
        -11    1    4    4    0    0  0.34039108486E-01  0.66693193526E-01  0.39910836075E-01  0.84851511044E-01  0.51100000000E-03 0. -1.
         11    1    4    4    0    0  0.15985089823E-01  0.27773824586E-01  0.33392992250E-01  0.46284570660E-01  0.51100000000E-03 0.  1.
</event>
<event>
 8    1  0.1123470E+005  0.1043930E+01  0.7957747E-01            NaN
         13   -1    0    0    0    0  0.00000000000E+00  0.00000000000E+00  0.74505805969E-08  0.10566000000E+00  0.10566000000E+00 0.  1.
     999900   -1    0    0    0    0 -0.00000000000E+00 -0.00000000000E+00 -0.74505805969E-08  0.93827000000E+00  0.93827000000E+00 0.  1.
     999902    2    1    2    0    0  0.13913447084E-01  0.42935059009E-02 -0.20056187159E-01  0.10191455523E+01  0.10188441431E+01 0.  0.
     999903    2    3    3    0    0 -0.11118363245E+00 -0.24171877265E-02  0.57641048646E-01  0.12688372239E+00  0.20232290962E-01 0.  0.
         14    1    1    2    0    0 -0.13913447084E-01 -0.42935059009E-02  0.20056187159E-01  0.24784447665E-01  0.00000000000E+00 0.  1.
     999901    1    3    3    0    0  0.12509707954E+00  0.67106936274E-02 -0.77697235805E-01  0.89226182994E+00  0.88000000000E+00 0. -1.
        -11    1    4    4    0    0 -0.40925006252E-01  0.60459636997E-02  0.29076786375E-01  0.50568077289E-01  0.51100000000E-03 0.  1.
         11    1    4    4    0    0 -0.70258626201E-01 -0.84631514262E-02  0.28564262271E-01  0.76315645105E-01  0.51100000000E-03 0. -1.
</event>
<event>
 8    1  0.1123470E+005  0.1043930E+01  0.7957747E-01            NaN
         13   -1    0    0    0    0  0.00000000000E+00  0.00000000000E+00  0.74505805969E-08  0.10566000000E+00  0.10566000000E+00 0. -1.
     999900   -1    0    0    0    0 -0.00000000000E+00 -0.00000000000E+00 -0.74505805969E-08  0.93827000000E+00  0.93827000000E+00 0. -1.
     999902    2    1    2    0    0 -0.59455060677E-02  0.18153050566E-01 -0.12729746233E-01  0.10209750718E+01  0.10207169875E+01 0.  0.
     999903    2    3    3    0    0 -0.67648031498E-01  0.11295187817E+00 -0.10858382163E-01  0.13373354816E+00  0.20793616631E-01 0.  0.
         14    1    1    2    0    0  0.59455060677E-02 -0.18153050566E-01  0.12729746233E-01  0.22954928151E-01  0.00000000000E+00 0. -1.
     999901    1    3    3    0    0  0.61702525430E-01 -0.94798827601E-01 -0.18713640702E-02  0.88724152369E+00  0.88000000000E+00 0.  1.
        -11    1    4    4    0    0 -0.20130435709E-01  0.46101504291E-01  0.36551311617E-02  0.50440105517E-01  0.51100000000E-03 0.  1.
         11    1    4    4    0    0 -0.47517595789E-01  0.66850373876E-01 -0.14513513325E-01  0.83293442641E-01  0.51100000000E-03 0. -1.
</event>
<event>
 8    1  0.1123470E+005  0.1043930E+01  0.7957747E-01            NaN
         13   -1    0    0    0    0  0.00000000000E+00  0.00000000000E+00  0.74505805969E-08  0.10566000000E+00  0.10566000000E+00 0.  1.
     999900   -1    0    0    0    0 -0.00000000000E+00 -0.00000000000E+00 -0.74505805969E-08  0.93827000000E+00  0.93827000000E+00 0.  1.
     999902    2    1    2    0    0 -0.52396257722E-02  0.15611104604E-01  0.17369862101E-01  0.10199952476E+01  0.10197143878E+01 0.  0.
     999903    2    3    3    0    0 -0.28663774269E-01  0.11320625005E+00 -0.56481719374E-01  0.13121655787E+00  0.19756857801E-01 0.  0.
         14    1    1    2    0    0  0.52396257722E-02 -0.15611104604E-01 -0.17369862101E-01  0.23934752445E-01  0.00000000000E+00 0. -1.
     999901    1    3    3    0    0  0.23424148496E-01 -0.97595145449E-01  0.73851581475E-01  0.88877868968E+00  0.88000000000E+00 0. -1.
        -11    1    4    4    0    0 -0.91901638290E-02  0.13823141599E-01 -0.37046488318E-02  0.17015401812E-01  0.51100000000E-03 0. -1.
         11    1    4    4    0    0 -0.19473610440E-01  0.99383108454E-01 -0.52777070542E-01  0.11420115606E+00  0.51100000000E-03 0.  1.
</event>
<event>
 8    1  0.1123470E+005  0.1043930E+01  0.7957747E-01            NaN
         13   -1    0    0    0    0  0.00000000000E+00  0.00000000000E+00  0.74505805969E-08  0.10566000000E+00  0.10566000000E+00 0. -1.
     999900   -1    0    0    0    0 -0.00000000000E+00 -0.00000000000E+00 -0.74505805969E-08  0.93827000000E+00  0.93827000000E+00 0.  1.
     999902    2    1    2    0    0  0.11575277004E-01  0.60451793031E-03  0.20101805022E-01  0.10207257968E+01  0.10204620117E+01 0.  0.
     999903    2    3    3    0    0 -0.31731195993E-01 -0.11789288723E+00  0.44383134017E-01  0.13139646043E+00  0.19737415484E-01 0.  0.
         14    1    1    2    0    0 -0.11575277004E-01 -0.60451793031E-03 -0.20101805022E-01  0.23204203171E-01  0.00000000000E+00 0.  1.
     999901    1    3    3    0    0  0.43306472997E-01  0.11849740516E+00 -0.24281328996E-01  0.88932933639E+00  0.88000000000E+00 0. -1.
        -11    1    4    4    0    0 -0.20217799921E-01 -0.99543495487E-01  0.40648677137E-01  0.10940860570E+00  0.51100000000E-03 0. -1.
         11    1    4    4    0    0 -0.11513396072E-01 -0.18349391747E-01  0.37344568805E-02  0.21987854734E-01  0.51100000000E-03 0.  1.
</event>
<event>
 8    1  0.1123470E+005  0.1043930E+01  0.7957747E-01            NaN
         13   -1    0    0    0    0  0.00000000000E+00  0.00000000000E+00  0.74505805969E-08  0.10566000000E+00  0.10566000000E+00 0. -1.
     999900   -1    0    0    0    0 -0.00000000000E+00 -0.00000000000E+00 -0.74505805969E-08  0.93827000000E+00  0.93827000000E+00 0. -1.
     999902    2    1    2    0    0  0.15864331266E-01 -0.16283693200E-01  0.87421271281E-02  0.10195730614E+01  0.10192820842E+01 0.  0.
     999903    2    3    3    0    0  0.11577262781E+00 -0.62114830678E-01 -0.45124510962E-02  0.13263572161E+00  0.17615870513E-01 0.  0.
         14    1    1    2    0    0 -0.15864331266E-01  0.16283693200E-01 -0.87421271281E-02  0.24356938589E-01  0.00000000000E+00 0.  1.
     999901    1    3    3    0    0 -0.99908296541E-01  0.45831137478E-01  0.13254578224E-01  0.88693733980E+00  0.88000000000E+00 0.  1.
        -11    1    4    4    0    0  0.49893363056E-01 -0.18968579623E-01  0.33923854384E-02  0.53487606882E-01  0.51100000000E-03 0.  1.
         11    1    4    4    0    0  0.65879264751E-01 -0.43146251054E-01 -0.79048365346E-02  0.79148114733E-01  0.51100000000E-03 0. -1.
</event>
<event>
 8    1  0.1123470E+005  0.1043930E+01  0.7957747E-01            NaN
         13   -1    0    0    0    0  0.00000000000E+00  0.00000000000E+00  0.74505805969E-08  0.10566000000E+00  0.10566000000E+00 0. -1.
     999900   -1    0    0    0    0 -0.00000000000E+00 -0.00000000000E+00 -0.74505805969E-08  0.93827000000E+00  0.93827000000E+00 0.  1.
     999902    2    1    2    0    0  0.30339255978E-02  0.22361049159E-01 -0.91194773715E-02  0.10195910170E+01  0.10193004738E+01 0.  0.
     999903    2    3    3    0    0 -0.39130052757E-01  0.36110538857E-02  0.12099713118E+00  0.12882747085E+00  0.20298048013E-01 0.  0.
         14    1    1    2    0    0 -0.30339255978E-02 -0.22361049159E-01  0.91194773715E-02  0.24338982961E-01  0.00000000000E+00 0.  1.
     999901    1    3    3    0    0  0.42163978355E-01  0.18749995274E-01 -0.13011660855E+00  0.89076354619E+00  0.88000000000E+00 0.  1.
        -11    1    4    4    0    0 -0.87770134473E-02 -0.73535285710E-02  0.23901191473E-01  0.26507327710E-01  0.51100000000E-03 0.  1.
         11    1    4    4    0    0 -0.30353039310E-01  0.10964582457E-01  0.97095939708E-01  0.10232014314E+00  0.51100000000E-03 0. -1.
</event>
<event>
 8    1  0.1123470E+005  0.1043930E+01  0.7957747E-01            NaN
         13   -1    0    0    0    0  0.00000000000E+00  0.00000000000E+00  0.74505805969E-08  0.10566000000E+00  0.10566000000E+00 0.  1.
     999900   -1    0    0    0    0 -0.00000000000E+00 -0.00000000000E+00 -0.74505805969E-08  0.93827000000E+00  0.93827000000E+00 0.  1.
     999902    2    1    2    0    0 -0.20313285816E-01 -0.85349738766E-02 -0.60874420577E-02  0.10210710344E+01  0.10208151277E+01 0.  0.
     999903    2    3    3    0    0 -0.48029011482E-03 -0.10118670266E+00 -0.83421862762E-01  0.13261264861E+00  0.19695885648E-01 0.  0.
         14    1    1    2    0    0  0.20313285816E-01  0.85349738766E-02  0.60874420577E-02  0.22858965649E-01  0.00000000000E+00 0. -1.
     999901    1    3    3    0    0 -0.19832995701E-01  0.92651728783E-01  0.77334420704E-01  0.88845838574E+00  0.88000000000E+00 0. -1.
        -11    1    4    4    0    0 -0.88211322608E-02 -0.54531279705E-01 -0.38724435924E-01  0.67463441205E-01  0.51100000000E-03 0. -1.
         11    1    4    4    0    0  0.83408421460E-02 -0.46655422955E-01 -0.44697426837E-01  0.65149207406E-01  0.51100000000E-03 0.  1.
</event>
<event>
 8    1  0.1123470E+005  0.1043930E+01  0.7957747E-01            NaN
         13   -1    0    0    0    0  0.00000000000E+00  0.00000000000E+00  0.74505805969E-08  0.10566000000E+00  0.10566000000E+00 0. -1.
     999900   -1    0    0    0    0 -0.00000000000E+00 -0.00000000000E+00 -0.74505805969E-08  0.93827000000E+00  0.93827000000E+00 0. -1.
     999902    2    1    2    0    0  0.71315969291E-02 -0.17098474524E-01  0.14832892995E-01  0.10201974860E+01  0.10199214079E+01 0.  0.
     999903    2    3    3    0    0  0.14571062341E-01 -0.79409537057E-01  0.10495961511E+00  0.13337121204E+00  0.15911284157E-01 0.  0.
         14    1    1    2    0    0 -0.71315969291E-02  0.17098474524E-01 -0.14832892995E-01  0.23732513993E-01  0.00000000000E+00 0.  1.
     999901    1    3    3    0    0 -0.74394654119E-02  0.62311062532E-01 -0.90126722115E-01  0.88682627397E+00  0.88000000000E+00 0. -1.
        -11    1    4    4    0    0  0.12815900974E-02 -0.12210971973E-01  0.80328661150E-02  0.14681225041E-01  0.51100000000E-03 0. -1.
         11    1    4    4    0    0  0.13289472244E-01 -0.67198565084E-01  0.96926748995E-01  0.11868998700E+00  0.51100000000E-03 0.  1.
</event>
<event>
 8    1  0.1123470E+005  0.1043930E+01  0.7957747E-01            NaN
         13   -1    0    0    0    0  0.00000000000E+00  0.00000000000E+00  0.74505805969E-08  0.10566000000E+00  0.10566000000E+00 0. -1.
     999900   -1    0    0    0    0 -0.00000000000E+00 -0.00000000000E+00 -0.74505805969E-08  0.93827000000E+00  0.93827000000E+00 0. -1.
     999902    2    1    2    0    0  0.25132867868E-03 -0.22441791364E-01  0.41717466440E-02  0.10211023712E+01  0.10208471736E+01 0.  0.
     999903    2    3    3    0    0  0.10162259196E+00  0.10727658451E-01 -0.78978940379E-01  0.13077075762E+00  0.20520335593E-01 0.  0.
         14    1    1    2    0    0 -0.25132867868E-03  0.22441791364E-01 -0.41717466440E-02  0.22827628782E-01  0.00000000000E+00 0.  1.
     999901    1    3    3    0    0 -0.10137126328E+00 -0.33169449815E-01  0.83150687023E-01  0.89033161360E+00  0.88000000000E+00 0.  1.
        -11    1    4    4    0    0  0.60637926075E-01 -0.37197068570E-02 -0.47085038485E-01  0.76863881427E-01  0.51100000000E-03 0.  1.
         11    1    4    4    0    0  0.40984665883E-01  0.14447365308E-01 -0.31893901894E-01  0.53906876193E-01  0.51100000000E-03 0. -1.
</event>
<event>
 8    1  0.1123470E+005  0.1043930E+01  0.7957747E-01            NaN
         13   -1    0    0    0    0  0.00000000000E+00  0.00000000000E+00  0.74505805969E-08  0.10566000000E+00  0.10566000000E+00 0. -1.
     999900   -1    0    0    0    0 -0.00000000000E+00 -0.00000000000E+00 -0.74505805969E-08  0.93827000000E+00  0.93827000000E+00 0.  1.
     999902    2    1    2    0    0 -0.17673541720E-01 -0.14777522291E-01  0.71627388894E-03  0.10208813061E+01  0.10206210849E+01 0.  0.
     999903    2    3    3    0    0  0.60602654147E-01  0.62181723652E-01 -0.93417497474E-01  0.12907916701E+00  0.19883512693E-01 0.  0.
         14    1    1    2    0    0  0.17673541720E-01  0.14777522291E-01 -0.71627388894E-03  0.23048693895E-01  0.00000000000E+00 0.  1.
     999901    1    3    3    0    0 -0.78276195866E-01 -0.76959245942E-01  0.94133771363E-01  0.89180213909E+00  0.88000000000E+00 0. -1.
        -11    1    4    4    0    0  0.48438592228E-01  0.38105969231E-01 -0.70848605636E-01  0.93904995339E-01  0.51100000000E-03 0. -1.
         11    1    4    4    0    0  0.12164061919E-01  0.24075754420E-01 -0.22568891838E-01  0.35174171676E-01  0.51100000000E-03 0.  1.
</event>
<event>
 8    1  0.1123470E+005  0.1043930E+01  0.7957747E-01            NaN
         13   -1    0    0    0    0  0.00000000000E+00  0.00000000000E+00  0.74505805969E-08  0.10566000000E+00  0.10566000000E+00 0. -1.
     999900   -1    0    0    0    0 -0.00000000000E+00 -0.00000000000E+00 -0.74505805969E-08  0.93827000000E+00  0.93827000000E+00 0. -1.
     999902    2    1    2    0    0 -0.17364399264E-01 -0.78028159088E-03 -0.14508585085E-01  0.10212886608E+01  0.10210376577E+01 0.  0.
     999903    2    3    3    0    0 -0.50081312542E-01  0.88867561317E-01  0.79770151809E-01  0.13112260188E+00  0.20598016526E-01 0.  0.
         14    1    1    2    0    0  0.17364399264E-01  0.78028159088E-03  0.14508585085E-01  0.22641339235E-01  0.00000000000E+00 0.  1.
     999901    1    3    3    0    0  0.32716913278E-01 -0.89647842908E-01 -0.94278736895E-01  0.89016605888E+00  0.88000000000E+00 0. -1.
        -11    1    4    4    0    0 -0.22469261371E-01  0.44614413327E-01  0.51675851689E-01  0.71874671143E-01  0.51100000000E-03 0. -1.
         11    1    4    4    0    0 -0.27612051171E-01  0.44253147991E-01  0.28094300120E-01  0.59247930742E-01  0.51100000000E-03 0.  1.
</event>
<event>
 8    1  0.1123470E+005  0.1043930E+01  0.7957747E-01            NaN
         13   -1    0    0    0    0  0.00000000000E+00  0.00000000000E+00  0.74505805969E-08  0.10566000000E+00  0.10566000000E+00 0.  1.
     999900   -1    0    0    0    0 -0.00000000000E+00 -0.00000000000E+00 -0.74505805969E-08  0.93827000000E+00  0.93827000000E+00 0. -1.
     999902    2    1    2    0    0  0.13808461590E-01  0.18878017062E-01 -0.13175913214E-02  0.10205037501E+01  0.10202348331E+01 0.  0.
     999903    2    3    3    0    0  0.60597441817E-01 -0.11254884581E+00  0.46039217966E-02  0.12949460685E+00  0.20208029587E-01 0.  0.
         14    1    1    2    0    0 -0.13808461590E-01 -0.18878017062E-01  0.13175913214E-02  0.23426249947E-01  0.00000000000E+00 0.  1.
     999901    1    3    3    0    0 -0.46788980227E-01  0.13142686287E+00 -0.59215131180E-02  0.89100914320E+00  0.88000000000E+00 0.  1.
        -11    1    4    4    0    0  0.17202898745E-01 -0.41719202901E-01  0.10098299138E-01  0.46245739073E-01  0.51100000000E-03 0.  1.
         11    1    4    4    0    0  0.43394543073E-01 -0.70829642907E-01 -0.54943773411E-02  0.83248867777E-01  0.51100000000E-03 0. -1.
</event>
<event>
 8    1  0.1123470E+005  0.1043930E+01  0.7957747E-01            NaN
         13   -1    0    0    0    0  0.00000000000E+00  0.00000000000E+00  0.74505805969E-08  0.10566000000E+00  0.10566000000E+00 0. -1.
     999900   -1    0    0    0    0 -0.00000000000E+00 -0.00000000000E+00 -0.74505805969E-08  0.93827000000E+00  0.93827000000E+00 0. -1.
     999902    2    1    2    0    0  0.11598435693E-01 -0.20071911113E-01  0.34724533750E-02  0.10204893674E+01  0.10202201163E+01 0.  0.
     999903    2    3    3    0    0 -0.27917859126E-01 -0.12806357021E+00  0.10869326808E-01  0.13297686056E+00  0.19621883293E-01 0.  0.
         14    1    1    2    0    0 -0.11598435693E-01  0.20071911113E-01 -0.34724533750E-02  0.23440632643E-01  0.00000000000E+00 0. -1.
     999901    1    3    3    0    0  0.39516294819E-01  0.10799165910E+00 -0.73968734333E-02  0.88751250680E+00  0.88000000000E+00 0. -1.
        -11    1    4    4    0    0 -0.18356702159E-01 -0.49891595851E-01  0.10651267690E-01  0.54220388002E-01  0.51100000000E-03 0.  1.
         11    1    4    4    0    0 -0.95611569676E-02 -0.78171974363E-01  0.21805911780E-03  0.78756472554E-01  0.51100000000E-03 0. -1.
</event>
<event>
 8    1  0.1123470E+005  0.1043930E+01  0.7957747E-01            NaN
         13   -1    0    0    0    0  0.00000000000E+00  0.00000000000E+00  0.74505805969E-08  0.10566000000E+00  0.10566000000E+00 0.  1.
     999900   -1    0    0    0    0 -0.00000000000E+00 -0.00000000000E+00 -0.74505805969E-08  0.93827000000E+00  0.93827000000E+00 0. -1.
     999902    2    1    2    0    0 -0.19916859152E-01  0.11877946590E-01  0.70792656051E-02  0.10196837035E+01  0.10193953954E+01 0.  0.
     999903    2    3    3    0    0  0.84187919571E-01 -0.21447894001E-01  0.91963838241E-01  0.12886733223E+00  0.24532097619E-01 0.  0.
         14    1    1    2    0    0  0.19916859152E-01 -0.11877946590E-01 -0.70792656051E-02  0.24246296525E-01  0.00000000000E+00 0. -1.
     999901    1    3    3    0    0 -0.10410477872E+00  0.33325840591E-01 -0.84884572636E-01  0.89081637124E+00  0.88000000000E+00 0. -1.
        -11    1    4    4    0    0  0.47496376970E-01 -0.15920278654E-01  0.35887323441E-01  0.61624039161E-01  0.51100000000E-03 0.  1.
         11    1    4    4    0    0  0.36691542601E-01 -0.55276153468E-02  0.56076514800E-01  0.67243293070E-01  0.51100000000E-03 0. -1.
</event>
<event>
 8    1  0.1146243E+005  0.1043930E+01  0.7957747E-01            NaN
         13   -1    0    0    0    0  0.00000000000E+00  0.00000000000E+00  0.74505805969E-08  0.10566000000E+00  0.10566000000E+00 0.  1.
     999900   -1    0    0    0    0 -0.00000000000E+00 -0.00000000000E+00 -0.74505805969E-08  0.93827000000E+00  0.93827000000E+00 0. -1.
     999902    2    1    2    0    0  0.21473547562E-01  0.29034006181E-02  0.91593541579E-02  0.10204047636E+01  0.10201335426E+01 0.  0.
     999903    2    3    3    0    0 -0.82809819207E-01  0.95400958042E-01 -0.16990277371E-01  0.12904926663E+00  0.20155265812E-01 0.  0.
         14    1    1    2    0    0 -0.21473547562E-01 -0.29034006181E-02 -0.91593541579E-02  0.23525236421E-01  0.00000000000E+00 0. -1.
     999901    1    3    3    0    0  0.10428336677E+00 -0.92497557424E-01  0.26149631529E-01  0.89135549695E+00  0.88000000000E+00 0. -1.
        -11    1    4    4    0    0 -0.38926976664E-01  0.34064994825E-01  0.44927378143E-04  0.51730035029E-01  0.51100000000E-03 0.  1.
         11    1    4    4    0    0 -0.43882842543E-01  0.61335963217E-01 -0.17035204750E-01  0.77319231600E-01  0.51100000000E-03 0. -1.
</event>
<event>
 8    1  0.1123470E+005  0.1043930E+01  0.7957747E-01            NaN
         13   -1    0    0    0    0  0.00000000000E+00  0.00000000000E+00  0.74505805969E-08  0.10566000000E+00  0.10566000000E+00 0.  1.
     999900   -1    0    0    0    0 -0.00000000000E+00 -0.00000000000E+00 -0.74505805969E-08  0.93827000000E+00  0.93827000000E+00 0.  1.
     999902    2    1    2    0    0 -0.63643146897E-02 -0.52468770981E-03  0.22286427121E-01  0.10207467165E+01  0.10204834122E+01 0.  0.
     999903    2    3    3    0    0 -0.95086888411E-01 -0.66413965207E-01 -0.56071687351E-01  0.13037988983E+00  0.20063659389E-01 0.  0.
         14    1    1    2    0    0  0.63643146897E-02  0.52468770981E-03 -0.22286427121E-01  0.23183283471E-01  0.00000000000E+00 0. -1.
     999901    1    3    3    0    0  0.88722573722E-01  0.65889277498E-01  0.78358114473E-01  0.89036682670E+00  0.88000000000E+00 0. -1.
        -11    1    4    4    0    0 -0.50891232635E-01 -0.45050062159E-01 -0.39246869996E-01  0.78485690321E-01  0.51100000000E-03 0.  1.
         11    1    4    4    0    0 -0.44195655776E-01 -0.21363903049E-01 -0.16824817355E-01  0.51894199512E-01  0.51100000000E-03 0. -1.
</event>
<event>
 8    1  0.1123470E+005  0.1043930E+01  0.7957747E-01            NaN
         13   -1    0    0    0    0  0.00000000000E+00  0.00000000000E+00  0.74505805969E-08  0.10566000000E+00  0.10566000000E+00 0. -1.
     999900   -1    0    0    0    0 -0.00000000000E+00 -0.00000000000E+00 -0.74505805969E-08  0.93827000000E+00  0.93827000000E+00 0.  1.
     999902    2    1    2    0    0 -0.12436809649E-01 -0.24991459210E-02 -0.18281888790E-01  0.10216780917E+01  0.10214357423E+01 0.  0.
     999903    2    3    3    0    0  0.12421587221E+00  0.33536066327E-01 -0.48857758882E-02  0.13030165730E+00  0.20010008418E-01 0.  0.
         14    1    1    2    0    0  0.12436809649E-01  0.24991459210E-02  0.18281888790E-01  0.22251908285E-01  0.00000000000E+00 0. -1.
     999901    1    3    3    0    0 -0.13665268186E+00 -0.36035212248E-01 -0.13396112902E-01  0.89137643441E+00  0.88000000000E+00 0.  1.
        -11    1    4    4    0    0  0.92271055575E-01  0.27616007846E-01  0.46800888349E-02  0.96430057237E-01  0.51100000000E-03 0. -1.
         11    1    4    4    0    0  0.31944816635E-01  0.59200584805E-02 -0.95658647231E-02  0.33871600068E-01  0.51100000000E-03 0.  1.
</event>
<event>
 8    1  0.1123470E+005  0.1043930E+01  0.7957747E-01            NaN
         13   -1    0    0    0    0  0.00000000000E+00  0.00000000000E+00  0.74505805969E-08  0.10566000000E+00  0.10566000000E+00 0.  1.
     999900   -1    0    0    0    0 -0.00000000000E+00 -0.00000000000E+00 -0.74505805969E-08  0.93827000000E+00  0.93827000000E+00 0. -1.
     999902    2    1    2    0    0  0.18993606716E-01  0.14445944927E-01 -0.45545735238E-02  0.10196362444E+01  0.10193467930E+01 0.  0.
     999903    2    3    3    0    0  0.52450337145E-02 -0.49897018053E-01 -0.11808881395E+00  0.12990647425E+00  0.20334731000E-01 0.  0.
         14    1    1    2    0    0 -0.18993606716E-01 -0.14445944927E-01  0.45545735238E-02  0.24293755595E-01  0.00000000000E+00 0. -1.
     999901    1    3    3    0    0  0.13748573001E-01  0.64342962980E-01  0.11353424042E+00  0.88972977015E+00  0.88000000000E+00 0.  1.
        -11    1    4    4    0    0 -0.12237576050E-02 -0.26774347935E-01 -0.84246438443E-01  0.88408635333E-01  0.51100000000E-03 0. -1.
         11    1    4    4    0    0  0.64687913195E-02 -0.23122670118E-01 -0.33842375503E-01  0.41497838922E-01  0.51100000000E-03 0.  1.
</event>
<event>
 8    1  0.1123470E+005  0.1043930E+01  0.7957747E-01            NaN
         13   -1    0    0    0    0  0.00000000000E+00  0.00000000000E+00  0.74505805969E-08  0.10566000000E+00  0.10566000000E+00 0. -1.
     999900   -1    0    0    0    0 -0.00000000000E+00 -0.00000000000E+00 -0.74505805969E-08  0.93827000000E+00  0.93827000000E+00 0. -1.
     999902    2    1    2    0    0  0.63532054010E-02  0.23835481357E-01  0.28899268335E-02  0.10190936342E+01  0.10187909453E+01 0.  0.
     999903    2    3    3    0    0  0.94658574038E-01 -0.41550545813E-01  0.74759526851E-01  0.12935299214E+00  0.21366240295E-01 0.  0.
         14    1    1    2    0    0 -0.63532054010E-02 -0.23835481357E-01 -0.28899268335E-02  0.24836365827E-01  0.00000000000E+00 0.  1.
     999901    1    3    3    0    0 -0.88305368637E-01  0.65386027169E-01 -0.71869600017E-01  0.88974064203E+00  0.88000000000E+00 0. -1.
        -11    1    4    4    0    0  0.46151833276E-01 -0.11750790717E-01  0.25256723159E-01  0.53909516627E-01  0.51100000000E-03 0.  1.
         11    1    4    4    0    0  0.48506740762E-01 -0.29799755096E-01  0.49502803692E-01  0.75443475513E-01  0.51100000000E-03 0. -1.
</event>
<event>
 8    1  0.1123470E+005  0.1043930E+01  0.7957747E-01            NaN
         13   -1    0    0    0    0  0.00000000000E+00  0.00000000000E+00  0.74505805969E-08  0.10566000000E+00  0.10566000000E+00 0. -1.
     999900   -1    0    0    0    0 -0.00000000000E+00 -0.00000000000E+00 -0.74505805969E-08  0.93827000000E+00  0.93827000000E+00 0. -1.
     999902    2    1    2    0    0  0.17591597808E-01 -0.16458236158E-02 -0.16527803856E-01  0.10197361713E+01  0.10194491246E+01 0.  0.
     999903    2    3    3    0    0  0.33758981768E-01 -0.14928484517E-01 -0.12595011628E+00  0.13271246479E+00  0.19663113154E-01 0.  0.
         14    1    1    2    0    0 -0.17591597808E-01  0.16458236158E-02  0.16527803856E-01  0.24193828740E-01  0.00000000000E+00 0. -1.
     999901    1    3    3    0    0 -0.16167383960E-01  0.13282660901E-01  0.10942231243E+00  0.88702370647E+00  0.88000000000E+00 0.  1.
        -11    1    4    4    0    0  0.11260899934E-01  0.43666148160E-02 -0.40571622005E-01  0.42334298452E-01  0.51100000000E-03 0. -1.
         11    1    4    4    0    0  0.22498081834E-01 -0.19295099333E-01 -0.85378494277E-01  0.90378166337E-01  0.51100000000E-03 0.  1.
</event>
<event>
 8    1  0.1123470E+005  0.1043930E+01  0.7957747E-01            NaN
         13   -1    0    0    0    0  0.00000000000E+00  0.00000000000E+00  0.74505805969E-08  0.10566000000E+00  0.10566000000E+00 0. -1.
     999900   -1    0    0    0    0 -0.00000000000E+00 -0.00000000000E+00 -0.74505805969E-08  0.93827000000E+00  0.93827000000E+00 0. -1.
     999902    2    1    2    0    0 -0.42873171517E-02  0.24782359305E-01 -0.14346125694E-02  0.10187386417E+01  0.10184271282E+01 0.  0.
     999903    2    3    3    0    0 -0.42671666454E-01 -0.88957986709E-01  0.78044747260E-01  0.12703959310E+00  0.17711045253E-01 0.  0.
         14    1    1    2    0    0  0.42873171517E-02 -0.24782359305E-01  0.14346125694E-02  0.25191358326E-01  0.00000000000E+00 0.  1.
     999901    1    3    3    0    0  0.38384349302E-01  0.11374034601E+00 -0.79479359829E-01  0.89169904857E+00  0.88000000000E+00 0. -1.
        -11    1    4    4    0    0 -0.62239961382E-02 -0.15448569877E-01  0.55857153736E-02  0.17574349957E-01  0.51100000000E-03 0.  1.
         11    1    4    4    0    0 -0.36447670315E-01 -0.73509416832E-01  0.72459031886E-01  0.10946524315E+00  0.51100000000E-03 0. -1.
</event>
<event>
 8    1  0.1123470E+005  0.1043930E+01  0.7957747E-01            NaN
         13   -1    0    0    0    0  0.00000000000E+00  0.00000000000E+00  0.74505805969E-08  0.10566000000E+00  0.10566000000E+00 0.  1.
     999900   -1    0    0    0    0 -0.00000000000E+00 -0.00000000000E+00 -0.74505805969E-08  0.93827000000E+00  0.93827000000E+00 0.  1.
     999902    2    1    2    0    0 -0.17640243741E-01 -0.14707725322E-01  0.62950267228E-02  0.10201156609E+01  0.10198376532E+01 0.  0.
     999903    2    3    3    0    0 -0.90348094008E-01 -0.42263668365E-01 -0.84169934278E-01  0.13206742427E+00  0.20204726223E-01 0.  0.
         14    1    1    2    0    0  0.17640243741E-01  0.14707725322E-01 -0.62950267228E-02  0.23814339060E-01  0.00000000000E+00 0. -1.
     999901    1    3    3    0    0  0.72707850267E-01  0.27555943043E-01  0.90464961001E-01  0.88804823667E+00  0.88000000000E+00 0. -1.
        -11    1    4    4    0    0 -0.31304654791E-01 -0.12308081357E-01 -0.40964398481E-01  0.53007672484E-01  0.51100000000E-03 0. -1.
         11    1    4    4    0    0 -0.59043439217E-01 -0.29955587008E-01 -0.43205535798E-01  0.79059751784E-01  0.51100000000E-03 0.  1.
</event>
<event>
 8    1  0.1123470E+005  0.1043930E+01  0.7957747E-01            NaN
         13   -1    0    0    0    0  0.00000000000E+00  0.00000000000E+00  0.74505805969E-08  0.10566000000E+00  0.10566000000E+00 0.  1.
     999900   -1    0    0    0    0 -0.00000000000E+00 -0.00000000000E+00 -0.74505805969E-08  0.93827000000E+00  0.93827000000E+00 0.  1.
     999902    2    1    2    0    0  0.99268776010E-02 -0.20912258427E-01 -0.17303697781E-02  0.10207166497E+01  0.10204526542E+01 0.  0.
     999903    2    3    3    0    0 -0.12073351889E+00 -0.71212111213E-02  0.42658805461E-01  0.12985598100E+00  0.20384010576E-01 0.  0.
         14    1    1    2    0    0 -0.99268776010E-02  0.20912258427E-01  0.17303697781E-02  0.23213350275E-01  0.00000000000E+00 0. -1.
     999901    1    3    3    0    0  0.13066039649E+00 -0.13791047306E-01 -0.44389175239E-01  0.89086066872E+00  0.88000000000E+00 0. -1.
        -11    1    4    4    0    0 -0.49525818011E-01 -0.95321075180E-02  0.97423793646E-02  0.51369668094E-01  0.51100000000E-03 0. -1.
         11    1    4    4    0    0 -0.71207700880E-01  0.24108963967E-02  0.32916426096E-01  0.78486312909E-01  0.51100000000E-03 0.  1.
</event>
<event>
 8    1  0.1337895E+005  0.1043930E+01  0.7957747E-01            NaN
         13   -1    0    0    0    0  0.00000000000E+00  0.00000000000E+00  0.74505805969E-08  0.10566000000E+00  0.10566000000E+00 0. -1.
     999900   -1    0    0    0    0 -0.00000000000E+00 -0.00000000000E+00 -0.74505805969E-08  0.93827000000E+00  0.93827000000E+00 0. -1.
     999902    2    1    2    0    0 -0.10773208817E-01  0.16727387096E-01  0.20632128971E-01  0.10152672672E+01  0.10148625875E+01 0.  0.
     999903    2    3    3    0    0 -0.12304955811E+00 -0.57412973236E-02 -0.22358931950E-01  0.12680846019E+00  0.20157070466E-01 0.  0.
         14    1    1    2    0    0  0.10773208817E-01 -0.16727387096E-01 -0.20632128971E-01  0.28662732828E-01  0.00000000000E+00 0.  1.
     999901    1    3    3    0    0  0.11227634930E+00  0.22468684420E-01  0.42991060920E-01  0.88845880699E+00  0.88000000000E+00 0.  1.
        -11    1    4    4    0    0 -0.75575004766E-01  0.62150553684E-02 -0.14947921055E-01  0.77291071435E-01  0.51100000000E-03 0. -1.
         11    1    4    4    0    0 -0.47474553349E-01 -0.11956352692E-01 -0.74110108944E-02  0.49517388752E-01  0.51100000000E-03 0.  1.
</event>
<event>
 8    1  0.1123470E+005  0.1043930E+01  0.7957747E-01            NaN
         13   -1    0    0    0    0  0.00000000000E+00  0.00000000000E+00  0.74505805969E-08  0.10566000000E+00  0.10566000000E+00 0.  1.
     999900   -1    0    0    0    0 -0.00000000000E+00 -0.00000000000E+00 -0.74505805969E-08  0.93827000000E+00  0.93827000000E+00 0.  1.
     999902    2    1    2    0    0  0.11956991182E-01 -0.19307796571E-01 -0.95480358414E-02  0.10192941392E+01  0.10189963772E+01 0.  0.
     999903    2    3    3    0    0 -0.12247664967E+00  0.70692067107E-02 -0.30472245916E-01  0.12844848895E+00  0.22802481077E-01 0.  0.
         14    1    1    2    0    0 -0.11956991182E-01  0.19307796571E-01  0.95480358414E-02  0.24635860751E-01  0.00000000000E+00 0.  1.
     999901    1    3    3    0    0  0.13443364085E+00 -0.26377003281E-01  0.20924210074E-01  0.89084565030E+00  0.88000000000E+00 0. -1.
        -11    1    4    4    0    0 -0.45072011261E-01  0.73376309930E-02 -0.11763282607E-02  0.45683387538E-01  0.51100000000E-03 0.  1.
         11    1    4    4    0    0 -0.77404638410E-01 -0.26842428229E-03 -0.29295917655E-01  0.82765101409E-01  0.51100000000E-03 0. -1.
</event>
<event>
 8    1  0.1123470E+005  0.1043930E+01  0.7957747E-01            NaN
         13   -1    0    0    0    0  0.00000000000E+00  0.00000000000E+00  0.74505805969E-08  0.10566000000E+00  0.10566000000E+00 0.  1.
     999900   -1    0    0    0    0 -0.00000000000E+00 -0.00000000000E+00 -0.74505805969E-08  0.93827000000E+00  0.93827000000E+00 0.  1.
     999902    2    1    2    0    0  0.41592087113E-02  0.22209739108E-01  0.81128756319E-02  0.10199218706E+01  0.10196392655E+01 0.  0.
     999903    2    3    3    0    0  0.87098719998E-01  0.44294044303E-01 -0.84787214576E-01  0.13087906741E+00  0.19806795402E-01 0.  0.
         14    1    1    2    0    0 -0.41592087113E-02 -0.22209739108E-01 -0.81128756319E-02  0.24008129444E-01  0.00000000000E+00 0.  1.
     999901    1    3    3    0    0 -0.82939511286E-01 -0.22084305194E-01  0.92900090208E-01  0.88904280315E+00  0.88000000000E+00 0. -1.
        -11    1    4    4    0    0  0.33409828279E-01  0.24094423581E-01 -0.45340378941E-01  0.61259847836E-01  0.51100000000E-03 0. -1.
         11    1    4    4    0    0  0.53688891718E-01  0.20199620722E-01 -0.39446835636E-01  0.69619219573E-01  0.51100000000E-03 0.  1.
</event>
<event>
 8    1  0.1123470E+005  0.1043930E+01  0.7957747E-01            NaN
         13   -1    0    0    0    0  0.00000000000E+00  0.00000000000E+00  0.74505805969E-08  0.10566000000E+00  0.10566000000E+00 0. -1.
     999900   -1    0    0    0    0 -0.00000000000E+00 -0.00000000000E+00 -0.74505805969E-08  0.93827000000E+00  0.93827000000E+00 0.  1.
     999902    2    1    2    0    0 -0.18724090798E-01  0.72995448406E-02  0.11932290504E-01  0.10205579122E+01  0.10202902517E+01 0.  0.
     999903    2    3    3    0    0 -0.40680648825E-01  0.34770172629E-01 -0.11723406820E+00  0.13043394665E+00  0.20132252742E-01 0.  0.
         14    1    1    2    0    0  0.18724090798E-01 -0.72995448406E-02 -0.11932290504E-01  0.23372087792E-01  0.00000000000E+00 0. -1.
     999901    1    3    3    0    0  0.21956558027E-01 -0.27470627788E-01  0.12916635870E+00  0.89012396555E+00  0.88000000000E+00 0. -1.
        -11    1    4    4    0    0 -0.29371131281E-01  0.35061787676E-01 -0.97073129914E-01  0.10731004604E+00  0.51100000000E-03 0.  1.
         11    1    4    4    0    0 -0.11309517544E-01 -0.29161504732E-03 -0.20160938283E-01  0.23123900620E-01  0.51100000000E-03 0. -1.
</event>
<event>
 8    1  0.1123470E+005  0.1043930E+01  0.7957747E-01            NaN
         13   -1    0    0    0    0  0.00000000000E+00  0.00000000000E+00  0.74505805969E-08  0.10566000000E+00  0.10566000000E+00 0.  1.
     999900   -1    0    0    0    0 -0.00000000000E+00 -0.00000000000E+00 -0.74505805969E-08  0.93827000000E+00  0.93827000000E+00 0. -1.
     999902    2    1    2    0    0 -0.19988670843E-01 -0.76228713554E-02 -0.91965202460E-02  0.10206441435E+01  0.10203784771E+01 0.  0.
     999903    2    3    3    0    0 -0.76447633103E-01 -0.10661411306E+00 -0.11725007360E-01  0.13329231155E+00  0.20458612149E-01 0.  0.
         14    1    1    2    0    0  0.19988670843E-01  0.76228713554E-02  0.91965202460E-02  0.23285856532E-01  0.00000000000E+00 0.  1.
     999901    1    3    3    0    0  0.56458962260E-01  0.98991241706E-01  0.25284871140E-02  0.88735183191E+00  0.88000000000E+00 0. -1.
        -11    1    4    4    0    0 -0.60399928525E-01 -0.87984351733E-01 -0.17191824714E-01  0.10809818441E+00  0.51100000000E-03 0. -1.
         11    1    4    4    0    0 -0.16047704578E-01 -0.18629761328E-01  0.54668173540E-02  0.25194127140E-01  0.51100000000E-03 0.  1.
</event>
<event>
 8    1  0.1123470E+005  0.1043930E+01  0.7957747E-01            NaN
         13   -1    0    0    0    0  0.00000000000E+00  0.00000000000E+00  0.74505805969E-08  0.10566000000E+00  0.10566000000E+00 0. -1.
     999900   -1    0    0    0    0 -0.00000000000E+00 -0.00000000000E+00 -0.74505805969E-08  0.93827000000E+00  0.93827000000E+00 0. -1.
     999902    2    1    2    0    0  0.74796744282E-02 -0.14021530758E-01  0.16553146570E-01  0.10209832025E+01  0.10207253030E+01 0.  0.
     999903    2    3    3    0    0 -0.11079808819E+00  0.53599532048E-01  0.37623474758E-01  0.13024968679E+00  0.20008220155E-01 0.  0.
         14    1    1    2    0    0 -0.74796744282E-02  0.14021530758E-01 -0.16553146570E-01  0.22946797505E-01  0.00000000000E+00 0.  1.
     999901    1    3    3    0    0  0.11827776262E+00 -0.67621062806E-01 -0.21070328188E-01  0.89073351570E+00  0.88000000000E+00 0. -1.
        -11    1    4    4    0    0 -0.93976617830E-01  0.43689504210E-01  0.23835252464E-01  0.10634264365E+00  0.51100000000E-03 0. -1.
         11    1    4    4    0    0 -0.16821470363E-01  0.99100278387E-02  0.13788222294E-01  0.23907043146E-01  0.51100000000E-03 0.  1.
</event>
<event>
 8    1  0.1123470E+005  0.1043930E+01  0.7957747E-01            NaN
         13   -1    0    0    0    0  0.00000000000E+00  0.00000000000E+00  0.74505805969E-08  0.10566000000E+00  0.10566000000E+00 0.  1.
     999900   -1    0    0    0    0 -0.00000000000E+00 -0.00000000000E+00 -0.74505805969E-08  0.93827000000E+00  0.93827000000E+00 0.  1.
     999902    2    1    2    0    0  0.19881386520E-02  0.18986221415E-01 -0.15628282297E-01  0.10192587109E+01  0.10189600813E+01 0.  0.
     999903    2    3    3    0    0 -0.64764655596E-01 -0.11437282603E-01 -0.11164324717E+00  0.13100176686E+00  0.19286685386E-01 0.  0.
         14    1    1    2    0    0 -0.19881386520E-02 -0.18986221415E-01  0.15628282297E-01  0.24671289113E-01  0.00000000000E+00 0. -1.
     999901    1    3    3    0    0  0.66752794248E-01  0.30423504018E-01  0.96014964874E-01  0.88825694403E+00  0.88000000000E+00 0. -1.
        -11    1    4    4    0    0 -0.41120912499E-01  0.90202543829E-03 -0.58168070101E-01  0.71242744157E-01  0.51100000000E-03 0.  1.
         11    1    4    4    0    0 -0.23643743097E-01 -0.12339308041E-01 -0.53475177070E-01  0.59759022701E-01  0.51100000000E-03 0. -1.
</event>
<event>
 8    1  0.1123470E+005  0.1043930E+01  0.7957747E-01            NaN
         13   -1    0    0    0    0  0.00000000000E+00  0.00000000000E+00  0.74505805969E-08  0.10566000000E+00  0.10566000000E+00 0. -1.
     999900   -1    0    0    0    0 -0.00000000000E+00 -0.00000000000E+00 -0.74505805969E-08  0.93827000000E+00  0.93827000000E+00 0.  1.
     999902    2    1    2    0    0 -0.95638408993E-02  0.16817451352E-01 -0.13460112899E-01  0.10203616237E+01  0.10200893955E+01 0.  0.
     999903    2    3    3    0    0 -0.89432566437E-01 -0.77678145298E-01  0.48694379740E-01  0.12953525898E+00  0.19394909228E-01 0.  0.
         14    1    1    2    0    0  0.95638408993E-02 -0.16817451352E-01  0.13460112899E-01  0.23568376312E-01  0.00000000000E+00 0. -1.
     999901    1    3    3    0    0  0.79868725538E-01  0.94495596651E-01 -0.62154492639E-01  0.89082636471E+00  0.88000000000E+00 0.  1.
        -11    1    4    4    0    0 -0.28609643086E-01 -0.13597288110E-01  0.13175860653E-01  0.34311256847E-01  0.51100000000E-03 0. -1.
         11    1    4    4    0    0 -0.60822923351E-01 -0.64080857188E-01  0.35518519087E-01  0.95224002132E-01  0.51100000000E-03 0.  1.
</event>
<event>
 8    1  0.1123470E+005  0.1043930E+01  0.7957747E-01            NaN
         13   -1    0    0    0    0  0.00000000000E+00  0.00000000000E+00  0.74505805969E-08  0.10566000000E+00  0.10566000000E+00 0.  1.
     999900   -1    0    0    0    0 -0.00000000000E+00 -0.00000000000E+00 -0.74505805969E-08  0.93827000000E+00  0.93827000000E+00 0. -1.
     999902    2    1    2    0    0 -0.21065717994E-01  0.25614588612E-02 -0.11018193704E-01  0.10200192046E+01  0.10197389134E+01 0.  0.
     999903    2    3    3    0    0 -0.21316617419E-01 -0.71296613026E-01 -0.10714069934E+00  0.13170922836E+00  0.18182028846E-01 0.  0.
         14    1    1    2    0    0  0.21065717994E-01 -0.25614588612E-02  0.11018193704E-01  0.23910795441E-01  0.00000000000E+00 0. -1.
     999901    1    3    3    0    0  0.25089942505E-03  0.73858071887E-01  0.96122505631E-01  0.88830997620E+00  0.88000000000E+00 0.  1.
        -11    1    4    4    0    0 -0.23641558008E-01 -0.53494129729E-01 -0.85413071601E-01  0.10351907603E+00  0.51100000000E-03 0.  1.
         11    1    4    4    0    0  0.23249405892E-02 -0.17802483297E-01 -0.21727627734E-01  0.28190152327E-01  0.51100000000E-03 0. -1.
</event>
<event>
 8    1  0.1123470E+005  0.1043930E+01  0.7957747E-01            NaN
         13   -1    0    0    0    0  0.00000000000E+00  0.00000000000E+00  0.74505805969E-08  0.10566000000E+00  0.10566000000E+00 0. -1.
     999900   -1    0    0    0    0 -0.00000000000E+00 -0.00000000000E+00 -0.74505805969E-08  0.93827000000E+00  0.93827000000E+00 0.  1.
     999902    2    1    2    0    0  0.21450188480E-02 -0.70252312499E-02  0.22385844021E-01  0.10203698431E+01  0.10200978069E+01 0.  0.
     999903    2    3    3    0    0  0.85845023309E-01 -0.68471229137E-01 -0.66376048782E-01  0.12983069461E+00  0.19812929234E-01 0.  0.
         14    1    1    2    0    0 -0.21450188480E-02  0.70252312499E-02 -0.22385844021E-01  0.23560156886E-01  0.00000000000E+00 0.  1.
     999901    1    3    3    0    0 -0.83700004461E-01  0.61445997887E-01  0.88761892802E-01  0.89053914850E+00  0.88000000000E+00 0.  1.
        -11    1    4    4    0    0  0.14759340315E-01 -0.97361254315E-02 -0.19704639856E-01  0.26479505618E-01  0.51100000000E-03 0. -1.
         11    1    4    4    0    0  0.71085682994E-01 -0.58735103705E-01 -0.46671408926E-01  0.10335118899E+00  0.51100000000E-03 0.  1.
</event>
<event>
 8    1  0.1123470E+005  0.1043930E+01  0.7957747E-01            NaN
         13   -1    0    0    0    0  0.00000000000E+00  0.00000000000E+00  0.74505805969E-08  0.10566000000E+00  0.10566000000E+00 0.  1.
     999900   -1    0    0    0    0 -0.00000000000E+00 -0.00000000000E+00 -0.74505805969E-08  0.93827000000E+00  0.93827000000E+00 0. -1.
     999902    2    1    2    0    0 -0.11001817214E-01 -0.50334262310E-02 -0.19913030070E-01  0.10206296968E+01  0.10203636969E+01 0.  0.
     999903    2    3    3    0    0  0.41017775170E-01  0.57174115602E-02 -0.12451465515E+00  0.13284418304E+00  0.20700989019E-01 0.  0.
         14    1    1    2    0    0  0.11001817214E-01  0.50334262310E-02  0.19913030070E-01  0.23300303178E-01  0.00000000000E+00 0.  1.
     999901    1    3    3    0    0 -0.52019592384E-01 -0.10750837791E-01  0.10460162508E+00  0.88778551378E+00  0.88000000000E+00 0.  1.
        -11    1    4    4    0    0  0.69259400659E-02 -0.72585910941E-03 -0.51869233514E-01  0.52337118984E-01  0.51100000000E-03 0.  1.
         11    1    4    4    0    0  0.34091835104E-01  0.64432706696E-02 -0.72645421637E-01  0.80507064060E-01  0.51100000000E-03 0. -1.
</event>
<event>
 8    1  0.1123470E+005  0.1043930E+01  0.7957747E-01            NaN
         13   -1    0    0    0    0  0.00000000000E+00  0.00000000000E+00  0.74505805969E-08  0.10566000000E+00  0.10566000000E+00 0.  1.
     999900   -1    0    0    0    0 -0.00000000000E+00 -0.00000000000E+00 -0.74505805969E-08  0.93827000000E+00  0.93827000000E+00 0. -1.
     999902    2    1    2    0    0  0.56735331891E-02  0.19892099173E-01  0.10206914600E-01  0.10208634508E+01  0.10206028216E+01 0.  0.
     999903    2    3    3    0    0  0.93730338973E-01 -0.32360759163E-01 -0.78839349424E-01  0.13046264248E+00  0.31181130298E-01 0.  0.
         14    1    1    2    0    0 -0.56735331891E-02 -0.19892099173E-01 -0.10206914600E-01  0.23066549243E-01  0.00000000000E+00 0. -1.
     999901    1    3    3    0    0 -0.88056805784E-01  0.52252858336E-01  0.89046264024E-01  0.89040080828E+00  0.88000000000E+00 0. -1.
        -11    1    4    4    0    0  0.52452972230E-01 -0.49995913767E-02 -0.28760810830E-01  0.60031288261E-01  0.51100000000E-03 0.  1.
         11    1    4    4    0    0  0.41277366744E-01 -0.27361167787E-01 -0.50078538594E-01  0.70431354216E-01  0.51100000000E-03 0. -1.
</event>
<event>
 8    1  0.1123470E+005  0.1043930E+01  0.7957747E-01            NaN
         13   -1    0    0    0    0  0.00000000000E+00  0.00000000000E+00  0.74505805969E-08  0.10566000000E+00  0.10566000000E+00 0.  1.
     999900   -1    0    0    0    0 -0.00000000000E+00 -0.00000000000E+00 -0.74505805969E-08  0.93827000000E+00  0.93827000000E+00 0.  1.
     999902    2    1    2    0    0  0.29551848215E-02 -0.17118361616E-01 -0.12818402008E-01  0.10223410479E+01  0.10221130737E+01 0.  0.
     999903    2    3    3    0    0 -0.73401639001E-01 -0.73638489135E-01  0.79724370624E-01  0.13240337925E+00  0.19085383808E-01 0.  0.
         14    1    1    2    0    0 -0.29551848215E-02  0.17118361616E-01  0.12818402008E-01  0.21588952076E-01  0.00000000000E+00 0.  1.
     999901    1    3    3    0    0  0.76356823823E-01  0.56520127519E-01 -0.92542772632E-01  0.88993766867E+00  0.88000000000E+00 0.  1.
        -11    1    4    4    0    0 -0.27627956824E-01 -0.25779358576E-01  0.17945843265E-01  0.41835316879E-01  0.51100000000E-03 0. -1.
         11    1    4    4    0    0 -0.45773682177E-01 -0.47859130559E-01  0.61778527359E-01  0.90568062370E-01  0.51100000000E-03 0.  1.
</event>
<event>
 8    1  0.1123470E+005  0.1043930E+01  0.7957747E-01            NaN
         13   -1    0    0    0    0  0.00000000000E+00  0.00000000000E+00  0.74505805969E-08  0.10566000000E+00  0.10566000000E+00 0.  1.
     999900   -1    0    0    0    0 -0.00000000000E+00 -0.00000000000E+00 -0.74505805969E-08  0.93827000000E+00  0.93827000000E+00 0. -1.
     999902    2    1    2    0    0 -0.15631353634E-01 -0.28508797370E-03 -0.17973881841E-01  0.10201081420E+01  0.10198299566E+01 0.  0.
     999903    2    3    3    0    0  0.12513770610E+00 -0.12132981949E-01 -0.19495993060E-01  0.12884015893E+00  0.20323338035E-01 0.  0.
         14    1    1    2    0    0  0.15631353634E-01  0.28508797370E-03  0.17973881841E-01  0.23821858030E-01  0.00000000000E+00 0.  1.
     999901    1    3    3    0    0 -0.14076905973E+00  0.11847893976E-01  0.15221112189E-02  0.89126798304E+00  0.88000000000E+00 0.  1.
        -11    1    4    4    0    0  0.47519537011E-01  0.18635251318E-02  0.14776280657E-03  0.47559037821E-01  0.51100000000E-03 0.  1.
         11    1    4    4    0    0  0.77618169088E-01 -0.13996507081E-01 -0.19643755867E-01  0.81281121109E-01  0.51100000000E-03 0. -1.
</event>
<event>
 8    1  0.1123470E+005  0.1043930E+01  0.7957747E-01            NaN
         13   -1    0    0    0    0  0.00000000000E+00  0.00000000000E+00  0.74505805969E-08  0.10566000000E+00  0.10566000000E+00 0. -1.
     999900   -1    0    0    0    0 -0.00000000000E+00 -0.00000000000E+00 -0.74505805969E-08  0.93827000000E+00  0.93827000000E+00 0.  1.
     999902    2    1    2    0    0  0.23752727852E-01 -0.40181345469E-02  0.57613204580E-02  0.10191604562E+01  0.10188594139E+01 0.  0.
     999903    2    3    3    0    0  0.64103822184E-01  0.98404718572E-01 -0.52475281213E-01  0.13039155857E+00  0.21342791574E-01 0.  0.
         14    1    1    2    0    0 -0.23752727852E-01  0.40181345469E-02 -0.57613204580E-02  0.24769543780E-01  0.00000000000E+00 0.  1.
     999901    1    3    3    0    0 -0.40351094332E-01 -0.10242285312E+00  0.58236601671E-01  0.88876889765E+00  0.88000000000E+00 0.  1.
        -11    1    4    4    0    0  0.53887271009E-01  0.82806271849E-01 -0.52191458507E-01  0.11173596599E+00  0.51100000000E-03 0.  1.
         11    1    4    4    0    0  0.10216551175E-01  0.15598446723E-01 -0.28382270636E-03  0.18655592577E-01  0.51100000000E-03 0. -1.
</event>
<event>
 8    1  0.1123470E+005  0.1043930E+01  0.7957747E-01            NaN
         13   -1    0    0    0    0  0.00000000000E+00  0.00000000000E+00  0.74505805969E-08  0.10566000000E+00  0.10566000000E+00 0.  1.
     999900   -1    0    0    0    0 -0.00000000000E+00 -0.00000000000E+00 -0.74505805969E-08  0.93827000000E+00  0.93827000000E+00 0. -1.
     999902    2    1    2    0    0 -0.14051848670E-01  0.18850928334E-01 -0.19981477846E-02  0.10203332938E+01  0.10200604030E+01 0.  0.
     999903    2    3    3    0    0 -0.37176792986E-01 -0.10837296933E-02  0.12383800729E+00  0.13085766647E+00  0.20114383405E-01 0.  0.
         14    1    1    2    0    0  0.14051848670E-01 -0.18850928334E-01  0.19981477846E-02  0.23596706225E-01  0.00000000000E+00 0.  1.
     999901    1    3    3    0    0  0.23124944316E-01  0.19934658027E-01 -0.12583615507E+00  0.88947562730E+00  0.88000000000E+00 0. -1.
        -11    1    4    4    0    0 -0.88204811080E-02 -0.76536232339E-03  0.92611545163E-02  0.12822510302E-01  0.51100000000E-03 0. -1.
         11    1    4    4    0    0 -0.28356311878E-01 -0.31836736990E-03  0.11457685277E+00  0.11803515617E+00  0.51100000000E-03 0.  1.
</event>
<event>
 8    1  0.1123470E+005  0.1043930E+01  0.7957747E-01            NaN
         13   -1    0    0    0    0  0.00000000000E+00  0.00000000000E+00  0.74505805969E-08  0.10566000000E+00  0.10566000000E+00 0.  1.
     999900   -1    0    0    0    0 -0.00000000000E+00 -0.00000000000E+00 -0.74505805969E-08  0.93827000000E+00  0.93827000000E+00 0. -1.
     999902    2    1    2    0    0 -0.11970337709E-01 -0.98424283853E-02  0.18186704545E-01  0.10200360969E+01  0.10197562064E+01 0.  0.
     999903    2    3    3    0    0 -0.12700814819E+00 -0.22961561348E-02 -0.25602782194E-01  0.13143710796E+00  0.21997019208E-01 0.  0.
         14    1    1    2    0    0  0.11970337709E-01  0.98424283853E-02 -0.18186704545E-01  0.23893903063E-01  0.00000000000E+00 0. -1.
     999901    1    3    3    0    0  0.11503781048E+00 -0.75462722506E-02  0.43789486739E-01  0.88859898898E+00  0.88000000000E+00 0.  1.
        -11    1    4    4    0    0 -0.93438929457E-01 -0.86348321537E-02 -0.25611820037E-01  0.97270860544E-01  0.51100000000E-03 0. -1.
         11    1    4    4    0    0 -0.33569218728E-01  0.63386760189E-02  0.90378435171E-05  0.34166247415E-01  0.51100000000E-03 0.  1.
</event>
<event>
 8    1  0.1123470E+005  0.1043930E+01  0.7957747E-01            NaN
         13   -1    0    0    0    0  0.00000000000E+00  0.00000000000E+00  0.74505805969E-08  0.10566000000E+00  0.10566000000E+00 0. -1.
     999900   -1    0    0    0    0 -0.00000000000E+00 -0.00000000000E+00 -0.74505805969E-08  0.93827000000E+00  0.93827000000E+00 0. -1.
     999902    2    1    2    0    0  0.12704272476E-01 -0.54461234037E-02 -0.18254601452E-01  0.10210326361E+01  0.10207758592E+01 0.  0.
     999903    2    3    3    0    0  0.18074994779E-01 -0.11805999805E+00 -0.55417078015E-01  0.13306204026E+00  0.19224605212E-01 0.  0.
         14    1    1    2    0    0 -0.12704272476E-01  0.54461234037E-02  0.18254601452E-01  0.22897363897E-01  0.00000000000E+00 0. -1.
     999901    1    3    3    0    0 -0.53707223037E-02  0.11261387465E+00  0.37162476563E-01  0.88797059585E+00  0.88000000000E+00 0.  1.
        -11    1    4    4    0    0  0.10239766100E-01 -0.20322923807E-01 -0.13150331148E-01  0.26288141284E-01  0.51100000000E-03 0.  1.
         11    1    4    4    0    0  0.78352286793E-02 -0.97737074245E-01 -0.42266746868E-01  0.10677389897E+00  0.51100000000E-03 0. -1.
</event>
<event>
 8    1  0.1123470E+005  0.1043930E+01  0.7957747E-01            NaN
         13   -1    0    0    0    0  0.00000000000E+00  0.00000000000E+00  0.74505805969E-08  0.10566000000E+00  0.10566000000E+00 0. -1.
     999900   -1    0    0    0    0 -0.00000000000E+00 -0.00000000000E+00 -0.74505805969E-08  0.93827000000E+00  0.93827000000E+00 0.  1.
     999902    2    1    2    0    0 -0.88975977837E-02 -0.59992381009E-02 -0.19759774322E-01  0.10214442982E+01  0.10211967722E+01 0.  0.
     999903    2    3    3    0    0  0.42221046123E-01  0.36812297761E-01 -0.11936167241E+00  0.13331903594E+00  0.19722943579E-01 0.  0.
         14    1    1    2    0    0  0.88975977837E-02  0.59992381009E-02  0.19759774322E-01  0.22485701798E-01  0.00000000000E+00 0. -1.
     999901    1    3    3    0    0 -0.51118643907E-01 -0.42811535862E-01  0.99601898084E-01  0.88812526226E+00  0.88000000000E+00 0. -1.
        -11    1    4    4    0    0  0.29190392980E-02  0.59676140302E-02 -0.31936427588E-01  0.32624066818E-01  0.51100000000E-03 0. -1.
         11    1    4    4    0    0  0.39302006826E-01  0.30844683731E-01 -0.87425244818E-01  0.10069496913E+00  0.51100000000E-03 0.  1.
</event>
<event>
 7    1  0.1123470E+005  0.1043930E+01  0.7957747E-01            NaN
         13   -1    0    0    0    0  0.00000000000E+00  0.00000000000E+00  0.74505805969E-08  0.10566000000E+00  0.10566000000E+00 0. -1.
     999900   -1    0    0    0    0 -0.00000000000E+00 -0.00000000000E+00 -0.74505805969E-08  0.93827000000E+00  0.93827000000E+00 0.  1.
     999902    2    1    2    0    0  0.11158869638E-01  0.72579840052E-02  0.19662650365E-01  0.10201851369E+01  0.10199087680E+01 0.  0.
         14    1    1    2    0    0 -0.11158869638E-01 -0.72579840052E-02 -0.19662650365E-01  0.23744863082E-01  0.00000000000E+00 0.  1.
     999901    1    3    3    0    0  0.11496140780E+00 -0.48150966533E-01 -0.17702286669E-01  0.88895894833E+00  0.88000000000E+00 0.  1.
        -11    1    3    3    0    0 -0.46794135816E-01  0.44171133900E-01  0.45943360401E-02  0.64514721277E-01  0.51100000000E-03 0.  1.
         11    1    3    3    0    0 -0.57008402343E-01  0.11237816638E-01  0.32770600994E-01  0.66711467312E-01  0.51100000000E-03 0. -1.
</event>
<event>
 8    1  0.1123470E+005  0.1043930E+01  0.7957747E-01            NaN
         13   -1    0    0    0    0  0.00000000000E+00  0.00000000000E+00  0.74505805969E-08  0.10566000000E+00  0.10566000000E+00 0. -1.
     999900   -1    0    0    0    0 -0.00000000000E+00 -0.00000000000E+00 -0.74505805969E-08  0.93827000000E+00  0.93827000000E+00 0.  1.
     999902    2    1    2    0    0 -0.22214566098E-01 -0.18921050488E-01 -0.20519743336E-01  0.10082571397E+01  0.10076258764E+01 0.  0.
     999903    2    3    3    0    0 -0.96186085793E-02  0.82210434597E-01  0.79780664324E-01  0.11671554938E+00  0.20161643753E-01 0.  0.
         14    1    1    2    0    0  0.22214566098E-01  0.18921050488E-01  0.20519743336E-01  0.35672860344E-01  0.00000000000E+00 0.  1.
     999901    1    3    3    0    0 -0.12595957519E-01 -0.10113148509E+00 -0.10030040766E+00  0.89154159028E+00  0.88000000000E+00 0.  1.
        -11    1    4    4    0    0 -0.10957318734E-01  0.66419147441E-01  0.73475443676E-01  0.99651733176E-01  0.51100000000E-03 0.  1.
         11    1    4    4    0    0  0.13387101544E-02  0.15791287156E-01  0.63052206478E-02  0.17063816201E-01  0.51100000000E-03 0. -1.
</event>
<event>
 8    1  0.1123470E+005  0.1043930E+01  0.7957747E-01            NaN
         13   -1    0    0    0    0  0.00000000000E+00  0.00000000000E+00  0.74505805969E-08  0.10566000000E+00  0.10566000000E+00 0.  1.
     999900   -1    0    0    0    0 -0.00000000000E+00 -0.00000000000E+00 -0.74505805969E-08  0.93827000000E+00  0.93827000000E+00 0. -1.
     999902    2    1    2    0    0 -0.82792305865E-02  0.22577931471E-01  0.17244906697E-02  0.10198201987E+01  0.10195351663E+01 0.  0.
     999903    2    3    3    0    0 -0.15292864611E-01  0.12699938753E+00 -0.30066467772E-01  0.13304869684E+00  0.20862576692E-01 0.  0.
         14    1    1    2    0    0  0.82792305865E-02 -0.22577931471E-01 -0.17244906697E-02  0.24109801258E-01  0.00000000000E+00 0.  1.
     999901    1    3    3    0    0  0.70136340244E-02 -0.10442145606E+00  0.31790958441E-01  0.88677150190E+00  0.88000000000E+00 0. -1.
        -11    1    4    4    0    0  0.42854167956E-02  0.47587638648E-01 -0.12534665767E-01  0.49399667166E-01  0.51100000000E-03 0.  1.
         11    1    4    4    0    0 -0.19578281406E-01  0.79411748879E-01 -0.17531802004E-01  0.83649029674E-01  0.51100000000E-03 0. -1.
</event>
<event>
 8    1  0.1123470E+005  0.1043930E+01  0.7957747E-01            NaN
         13   -1    0    0    0    0  0.00000000000E+00  0.00000000000E+00  0.74505805969E-08  0.10566000000E+00  0.10566000000E+00 0. -1.
     999900   -1    0    0    0    0 -0.00000000000E+00 -0.00000000000E+00 -0.74505805969E-08  0.93827000000E+00  0.93827000000E+00 0. -1.
     999902    2    1    2    0    0 -0.64305310181E-02 -0.11205107991E-01 -0.14133274457E-01  0.10247817463E+01  0.10246028362E+01 0.  0.
     999903    2    3    3    0    0 -0.43333740881E-01  0.11295239440E+00 -0.54827475386E-01  0.13437007165E+00  0.20327508454E-01 0.  0.
         14    1    1    2    0    0  0.64305310181E-02  0.11205107991E-01  0.14133274457E-01  0.19148253736E-01  0.00000000000E+00 0. -1.
     999901    1    3    3    0    0  0.36903209863E-01 -0.12415750239E+00  0.40694200929E-01  0.89041167461E+00  0.88000000000E+00 0.  1.
        -11    1    4    4    0    0 -0.27568862841E-01  0.72267422211E-01 -0.24155587914E-01  0.81033178759E-01  0.51100000000E-03 0.  1.
         11    1    4    4    0    0 -0.15764878040E-01  0.40684972184E-01 -0.30671887472E-01  0.53336892892E-01  0.51100000000E-03 0. -1.
</event>
<event>
 8    1  0.1123470E+005  0.1043930E+01  0.7957747E-01            NaN
         13   -1    0    0    0    0  0.00000000000E+00  0.00000000000E+00  0.74505805969E-08  0.10566000000E+00  0.10566000000E+00 0.  1.
     999900   -1    0    0    0    0 -0.00000000000E+00 -0.00000000000E+00 -0.74505805969E-08  0.93827000000E+00  0.93827000000E+00 0. -1.
     999902    2    1    2    0    0 -0.17763411470E-01  0.96925894065E-03  0.16209786204E-01  0.10198626898E+01  0.10195786731E+01 0.  0.
     999903    2    3    3    0    0  0.47352593654E-03  0.44388252670E-01  0.12296849301E+00  0.13216047829E+00  0.19354600095E-01 0.  0.
         14    1    1    2    0    0  0.17763411470E-01 -0.96925894065E-03 -0.16209786204E-01  0.24067310168E-01  0.00000000000E+00 0. -1.
     999901    1    3    3    0    0 -0.18236937407E-01 -0.43418993729E-01 -0.10675870681E+00  0.88770221155E+00  0.88000000000E+00 0. -1.
        -11    1    4    4    0    0  0.90176122442E-02  0.14682465935E-01  0.50954839083E-01  0.53791717610E-01  0.51100000000E-03 0. -1.
         11    1    4    4    0    0 -0.85440863077E-02  0.29705786735E-01  0.72013653932E-01  0.78368760676E-01  0.51100000000E-03 0.  1.
</event>
<event>
 8    1  0.1123470E+005  0.1043930E+01  0.7957747E-01            NaN
         13   -1    0    0    0    0  0.00000000000E+00  0.00000000000E+00  0.74505805969E-08  0.10566000000E+00  0.10566000000E+00 0.  1.
     999900   -1    0    0    0    0 -0.00000000000E+00 -0.00000000000E+00 -0.74505805969E-08  0.93827000000E+00  0.93827000000E+00 0.  1.
     999902    2    1    2    0    0  0.27910116684E-02  0.25103877738E-01  0.81398929408E-02  0.10173922480E+01  0.10170460825E+01 0.  0.
     999903    2    3    3    0    0  0.94050716183E-01 -0.81402172186E-01 -0.95195919963E-02  0.12611017720E+00  0.18474396079E-01 0.  0.
         14    1    1    2    0    0 -0.27910116684E-02 -0.25103877738E-01 -0.81398929408E-02  0.26537751990E-01  0.00000000000E+00 0.  1.
     999901    1    3    3    0    0 -0.91259704515E-01  0.10650604992E+00  0.17659484937E-01  0.89128207081E+00  0.88000000000E+00 0. -1.
        -11    1    4    4    0    0  0.46714971413E-01 -0.28361466369E-01 -0.36164028247E-02  0.54772263228E-01  0.51100000000E-03 0. -1.
         11    1    4    4    0    0  0.47335744770E-01 -0.53040705817E-01 -0.59031891716E-02  0.71337913972E-01  0.51100000000E-03 0.  1.
</event>
<event>
 8    1  0.1123470E+005  0.1043930E+01  0.7957747E-01            NaN
         13   -1    0    0    0    0  0.00000000000E+00  0.00000000000E+00  0.74505805969E-08  0.10566000000E+00  0.10566000000E+00 0.  1.
     999900   -1    0    0    0    0 -0.00000000000E+00 -0.00000000000E+00 -0.74505805969E-08  0.93827000000E+00  0.93827000000E+00 0. -1.
     999902    2    1    2    0    0  0.14763605147E-01  0.51383067639E-02 -0.18195749108E-01  0.10199414294E+01  0.10196592901E+01 0.  0.
     999903    2    3    3    0    0 -0.39962962460E-01  0.81920860522E-03  0.11927707839E+00  0.12757803364E+00  0.21246735441E-01 0.  0.
         14    1    1    2    0    0 -0.14763605147E-01 -0.51383067639E-02  0.18195749108E-01  0.23988570590E-01  0.00000000000E+00 0.  1.
     999901    1    3    3    0    0  0.54726567607E-01  0.43190981587E-02 -0.13747282750E+00  0.89236339577E+00  0.88000000000E+00 0. -1.
        -11    1    4    4    0    0 -0.36104546024E-01 -0.52443079683E-02  0.84153274114E-01  0.91722819815E-01  0.51100000000E-03 0. -1.
         11    1    4    4    0    0 -0.38584164351E-02  0.60635165735E-02  0.35123804275E-01  0.35855213824E-01  0.51100000000E-03 0.  1.
</event>
<event>
 8    1  0.1123470E+005  0.1043930E+01  0.7957747E-01            NaN
         13   -1    0    0    0    0  0.00000000000E+00  0.00000000000E+00  0.74505805969E-08  0.10566000000E+00  0.10566000000E+00 0. -1.
     999900   -1    0    0    0    0 -0.00000000000E+00 -0.00000000000E+00 -0.74505805969E-08  0.93827000000E+00  0.93827000000E+00 0. -1.
     999902    2    1    2    0    0 -0.57132485913E-02 -0.18694233908E-01  0.17916387098E-01  0.10174137311E+01  0.10170681332E+01 0.  0.
     999903    2    3    3    0    0 -0.10138127891E+00  0.61157325532E-01  0.42613552983E-01  0.12829135841E+00  0.24987508193E-01 0.  0.
         14    1    1    2    0    0  0.57132485913E-02  0.18694233908E-01 -0.17916387098E-01  0.26516268921E-01  0.00000000000E+00 0.  1.
     999901    1    3    3    0    0  0.95668030321E-01 -0.79851559440E-01 -0.24697165886E-01  0.88912237266E+00  0.88000000000E+00 0. -1.
        -11    1    4    4    0    0 -0.68524287777E-01  0.53175329944E-01  0.25603864431E-01  0.90437894296E-01  0.51100000000E-03 0. -1.
         11    1    4    4    0    0 -0.32856991136E-01  0.79819955879E-02  0.17009688553E-01  0.37853464118E-01  0.51100000000E-03 0.  1.
</event>
<event>
 8    1  0.1123470E+005  0.1043930E+01  0.7957747E-01            NaN
         13   -1    0    0    0    0  0.00000000000E+00  0.00000000000E+00  0.74505805969E-08  0.10566000000E+00  0.10566000000E+00 0.  1.
     999900   -1    0    0    0    0 -0.00000000000E+00 -0.00000000000E+00 -0.74505805969E-08  0.93827000000E+00  0.93827000000E+00 0.  1.
     999902    2    1    2    0    0 -0.11071170550E-01  0.20984821837E-01  0.21846173702E-02  0.10201034157E+01  0.10198251187E+01 0.  0.
     999903    2    3    3    0    0  0.22956897869E-01 -0.10639855559E+00 -0.63934147204E-01  0.12782760338E+00  0.20115894581E-01 0.  0.
         14    1    1    2    0    0  0.11071170550E-01 -0.20984821837E-01 -0.21846173702E-02  0.23826584269E-01  0.00000000000E+00 0. -1.
     999901    1    3    3    0    0 -0.34028068418E-01  0.12738337743E+00  0.66118764574E-01  0.89227581236E+00  0.88000000000E+00 0.  1.
        -11    1    4    4    0    0  0.17674641568E-01 -0.56688129259E-01 -0.44435363146E-01  0.74166701237E-01  0.51100000000E-03 0.  1.
         11    1    4    4    0    0  0.52822563005E-02 -0.49710426331E-01 -0.19498784057E-01  0.53660902139E-01  0.51100000000E-03 0. -1.
</event>
<event>
 8    1  0.1123470E+005  0.1043930E+01  0.7957747E-01            NaN
         13   -1    0    0    0    0  0.00000000000E+00  0.00000000000E+00  0.74505805969E-08  0.10566000000E+00  0.10566000000E+00 0.  1.
     999900   -1    0    0    0    0 -0.00000000000E+00 -0.00000000000E+00 -0.74505805969E-08  0.93827000000E+00  0.93827000000E+00 0. -1.
     999902    2    1    2    0    0  0.27744157569E-02 -0.65045089650E-02  0.20611463643E-01  0.10221392117E+01  0.10219069085E+01 0.  0.
     999903    2    3    3    0    0 -0.12266867341E+00  0.31293883782E-01 -0.29652421846E-01  0.13102129288E+00  0.16136990694E-01 0.  0.
         14    1    1    2    0    0 -0.27744157569E-02  0.65045089650E-02 -0.20611463643E-01  0.21790788264E-01  0.00000000000E+00 0. -1.
     999901    1    3    3    0    0  0.12544308917E+00 -0.37798392747E-01  0.50263885488E-01  0.89111791885E+00  0.88000000000E+00 0.  1.
        -11    1    4    4    0    0 -0.50462224271E-01  0.49508943481E-02 -0.13605761028E-01  0.52500717018E-01  0.51100000000E-03 0.  1.
         11    1    4    4    0    0 -0.72206449142E-01  0.26342989434E-01 -0.16046660818E-01  0.78520575866E-01  0.51100000000E-03 0. -1.
</event>
<event>
 8    1  0.1123470E+005  0.1043930E+01  0.7957747E-01            NaN
         13   -1    0    0    0    0  0.00000000000E+00  0.00000000000E+00  0.74505805969E-08  0.10566000000E+00  0.10566000000E+00 0.  1.
     999900   -1    0    0    0    0 -0.00000000000E+00 -0.00000000000E+00 -0.74505805969E-08  0.93827000000E+00  0.93827000000E+00 0.  1.
     999902    2    1    2    0    0  0.17141985183E-02 -0.21729630264E-01 -0.84859358474E-02  0.10205392665E+01  0.10202711738E+01 0.  0.
     999903    2    3    3    0    0  0.64367595411E-01  0.10943239170E+00  0.20762605587E-02  0.12855244810E+00  0.20069513278E-01 0.  0.
         14    1    1    2    0    0 -0.17141985183E-02  0.21729630264E-01  0.84859358474E-02  0.23390733532E-01  0.00000000000E+00 0.  1.
     999901    1    3    3    0    0 -0.62653396892E-01 -0.13116202196E+00 -0.10562196406E-01  0.89198681837E+00  0.88000000000E+00 0.  1.
        -11    1    4    4    0    0  0.62602001369E-02  0.62352028386E-02  0.48395930607E-02  0.10087152333E-01  0.51100000000E-03 0.  1.
         11    1    4    4    0    0  0.58107395274E-01  0.10319718886E+00 -0.27633325021E-02  0.11846529577E+00  0.51100000000E-03 0. -1.
</event>
<event>
 8    1  0.1123470E+005  0.1043930E+01  0.7957747E-01            NaN
         13   -1    0    0    0    0  0.00000000000E+00  0.00000000000E+00  0.74505805969E-08  0.10566000000E+00  0.10566000000E+00 0. -1.
     999900   -1    0    0    0    0 -0.00000000000E+00 -0.00000000000E+00 -0.74505805969E-08  0.93827000000E+00  0.93827000000E+00 0. -1.
     999902    2    1    2    0    0 -0.22304997601E-01  0.64025193132E-02 -0.11092044889E-01  0.10182096067E+01  0.10178847010E+01 0.  0.
     999903    2    3    3    0    0  0.22933254186E-01 -0.11253920928E-01 -0.12514146456E+00  0.12952208038E+00  0.21517394639E-01 0.  0.
         14    1    1    2    0    0  0.22304997601E-01 -0.64025193132E-02  0.11092044889E-01  0.25720393297E-01  0.00000000000E+00 0. -1.
     999901    1    3    3    0    0 -0.45238251787E-01  0.17656440241E-01  0.11404941967E+00  0.88868752632E+00  0.88000000000E+00 0.  1.
        -11    1    4    4    0    0  0.39728967756E-02 -0.15896054703E-02 -0.23689073656E-02  0.49176821215E-02  0.51100000000E-03 0. -1.
         11    1    4    4    0    0  0.18960357411E-01 -0.96643154573E-02 -0.12277255719E+00  0.12460439826E+00  0.51100000000E-03 0.  1.
</event>
<event>
 8    1  0.1123470E+005  0.1043930E+01  0.7957747E-01            NaN
         13   -1    0    0    0    0  0.00000000000E+00  0.00000000000E+00  0.74505805969E-08  0.10566000000E+00  0.10566000000E+00 0. -1.
     999900   -1    0    0    0    0 -0.00000000000E+00 -0.00000000000E+00 -0.74505805969E-08  0.93827000000E+00  0.93827000000E+00 0. -1.
     999902    2    1    2    0    0 -0.20983745192E-01 -0.69957919793E-02 -0.90361386666E-02  0.10200362671E+01  0.10197563806E+01 0.  0.
     999903    2    3    3    0    0 -0.11254276982E+00 -0.60107439136E-01  0.24793028838E-01  0.13304792752E+00  0.28430220885E-01 0.  0.
         14    1    1    2    0    0  0.20983745192E-01  0.69957919793E-02  0.90361386666E-02  0.23893732854E-01  0.00000000000E+00 0. -1.
     999901    1    3    3    0    0  0.91559024633E-01  0.53111647157E-01 -0.33829167505E-01  0.88698833962E+00  0.88000000000E+00 0. -1.
        -11    1    4    4    0    0 -0.36690406734E-01 -0.27644025097E-01 -0.28540230071E-02  0.46030257855E-01  0.51100000000E-03 0. -1.
         11    1    4    4    0    0 -0.75852363091E-01 -0.32463414039E-01  0.27647051845E-01  0.87017669667E-01  0.51100000000E-03 0.  1.
</event>
<event>
 8    1  0.1123470E+005  0.1043930E+01  0.7957747E-01            NaN
         13   -1    0    0    0    0  0.00000000000E+00  0.00000000000E+00  0.74505805969E-08  0.10566000000E+00  0.10566000000E+00 0.  1.
     999900   -1    0    0    0    0 -0.00000000000E+00 -0.00000000000E+00 -0.74505805969E-08  0.93827000000E+00  0.93827000000E+00 0.  1.
     999902    2    1    2    0    0  0.17106858794E-01  0.33116335247E-01  0.41763935116E-02  0.10064229535E+01  0.10057238103E+01 0.  0.
     999903    2    3    3    0    0 -0.75146153254E-01 -0.20769774034E-01  0.84147009036E-01  0.11636136550E+00  0.19517181878E-01 0.  0.
         14    1    1    2    0    0 -0.17106858794E-01 -0.33116335247E-01 -0.41763935116E-02  0.37507046548E-01  0.00000000000E+00 0.  1.
     999901    1    3    3    0    0  0.92253012047E-01  0.53886109281E-01 -0.79970615524E-01  0.89006158795E+00  0.88000000000E+00 0.  1.
        -11    1    4    4    0    0 -0.49888874759E-01 -0.60731607491E-02  0.44661199489E-01  0.67235905341E-01  0.51100000000E-03 0.  1.
         11    1    4    4    0    0 -0.25257278494E-01 -0.14696613285E-01  0.39485809547E-01  0.49125460156E-01  0.51100000000E-03 0. -1.
</event>
<event>
 8    1  0.1123470E+005  0.1043930E+01  0.7957747E-01            NaN
         13   -1    0    0    0    0  0.00000000000E+00  0.00000000000E+00  0.74505805969E-08  0.10566000000E+00  0.10566000000E+00 0. -1.
     999900   -1    0    0    0    0 -0.00000000000E+00 -0.00000000000E+00 -0.74505805969E-08  0.93827000000E+00  0.93827000000E+00 0. -1.
     999902    2    1    2    0    0 -0.19250761566E-01 -0.29665534282E-02 -0.14278983593E-01  0.10197787758E+01  0.10194927512E+01 0.  0.
     999903    2    3    3    0    0 -0.80423472642E-01  0.10120021289E+00  0.10598572965E-01  0.13117779184E+00  0.19643453968E-01 0.  0.
         14    1    1    2    0    0  0.19250761566E-01  0.29665534282E-02  0.14278983593E-01  0.24151224245E-01  0.00000000000E+00 0. -1.
     999901    1    3    3    0    0  0.61172711076E-01 -0.10416676632E+00 -0.24877556558E-01  0.88860098391E+00  0.88000000000E+00 0. -1.
        -11    1    4    4    0    0 -0.58959246138E-01  0.84811793422E-01  0.39872732913E-02  0.10337017209E+00  0.51100000000E-03 0. -1.
         11    1    4    4    0    0 -0.21464226504E-01  0.16388419467E-01  0.66112996739E-02  0.27807619755E-01  0.51100000000E-03 0.  1.
</event>
<event>
 8    1  0.1123470E+005  0.1043930E+01  0.7957747E-01            NaN
         13   -1    0    0    0    0  0.00000000000E+00  0.00000000000E+00  0.74505805969E-08  0.10566000000E+00  0.10566000000E+00 0.  1.
     999900   -1    0    0    0    0 -0.00000000000E+00 -0.00000000000E+00 -0.74505805969E-08  0.93827000000E+00  0.93827000000E+00 0. -1.
     999902    2    1    2    0    0 -0.17091391497E-01 -0.22180988555E-01 -0.67511920181E-03  0.10159198643E+01  0.10155336543E+01 0.  0.
     999903    2    3    3    0    0 -0.92756812225E-01  0.24881146846E-01  0.81584059129E-01  0.12760310046E+00  0.20092159176E-01 0.  0.
         14    1    1    2    0    0  0.17091391497E-01  0.22180988555E-01  0.67511920181E-03  0.28010135711E-01  0.00000000000E+00 0.  1.
     999901    1    3    3    0    0  0.75665420727E-01 -0.47062135401E-01 -0.82259178331E-01  0.88831676383E+00  0.88000000000E+00 0.  1.
        -11    1    4    4    0    0 -0.21943043721E-02  0.79043679955E-03  0.83034511701E-02  0.86399180752E-02  0.51100000000E-03 0.  1.
         11    1    4    4    0    0 -0.90562507853E-01  0.24090710046E-01  0.73280607959E-01  0.11896318238E+00  0.51100000000E-03 0. -1.
</event>
<event>
 8    1  0.1123470E+005  0.1043930E+01  0.7957747E-01            NaN
         13   -1    0    0    0    0  0.00000000000E+00  0.00000000000E+00  0.74505805969E-08  0.10566000000E+00  0.10566000000E+00 0. -1.
     999900   -1    0    0    0    0 -0.00000000000E+00 -0.00000000000E+00 -0.74505805969E-08  0.93827000000E+00  0.93827000000E+00 0.  1.
     999902    2    1    2    0    0 -0.10945407370E-01  0.44468588231E-02 -0.19182250641E-01  0.10214014573E+01  0.10211529767E+01 0.  0.
     999903    2    3    3    0    0  0.29854666321E-01  0.11278035054E+00  0.55483965808E-01  0.13068498429E+00  0.19732868206E-01 0.  0.
         14    1    1    2    0    0  0.10945407370E-01 -0.44468588231E-02  0.19182250641E-01  0.22528542686E-01  0.00000000000E+00 0. -1.
     999901    1    3    3    0    0 -0.40800073691E-01 -0.10833349172E+00 -0.74666216449E-01  0.89071647303E+00  0.88000000000E+00 0.  1.
        -11    1    4    4    0    0  0.64946945008E-02  0.33327135703E-01  0.68458730280E-02  0.34641104621E-01  0.51100000000E-03 0. -1.
         11    1    4    4    0    0  0.23359971820E-01  0.79453214837E-01  0.48638092780E-01  0.96043879667E-01  0.51100000000E-03 0.  1.
</event>
<event>
 8    1  0.1123470E+005  0.1043930E+01  0.7957747E-01            NaN
         13   -1    0    0    0    0  0.00000000000E+00  0.00000000000E+00  0.74505805969E-08  0.10566000000E+00  0.10566000000E+00 0.  1.
     999900   -1    0    0    0    0 -0.00000000000E+00 -0.00000000000E+00 -0.74505805969E-08  0.93827000000E+00  0.93827000000E+00 0.  1.
     999902    2    1    2    0    0  0.22858849322E-02  0.25904152636E-02  0.24238868229E-01  0.10194461634E+01  0.10191521093E+01 0.  0.
     999903    2    3    3    0    0 -0.11905467013E+00 -0.46386450669E-01 -0.50318696474E-02  0.12928941328E+00  0.19097523141E-01 0.  0.
         14    1    1    2    0    0 -0.22858849322E-02 -0.25904152636E-02 -0.24238868229E-01  0.24483836591E-01  0.00000000000E+00 0. -1.
     999901    1    3    3    0    0  0.12134055506E+00  0.48976865932E-01  0.29270737877E-01  0.89015675013E+00  0.88000000000E+00 0. -1.
        -11    1    4    4    0    0 -0.29132491636E-01 -0.41462046303E-02  0.31717371820E-02  0.29600914167E-01  0.51100000000E-03 0.  1.
         11    1    4    4    0    0 -0.89922178492E-01 -0.42240246038E-01 -0.82036068294E-02  0.99688499117E-01  0.51100000000E-03 0. -1.
</event>
<event>
 8    1  0.1123470E+005  0.1043930E+01  0.7957747E-01            NaN
         13   -1    0    0    0    0  0.00000000000E+00  0.00000000000E+00  0.74505805969E-08  0.10566000000E+00  0.10566000000E+00 0. -1.
     999900   -1    0    0    0    0 -0.00000000000E+00 -0.00000000000E+00 -0.74505805969E-08  0.93827000000E+00  0.93827000000E+00 0.  1.
     999902    2    1    2    0    0 -0.38189031296E-02 -0.14536965281E-01 -0.18201629347E-01  0.10203247741E+01  0.10200516839E+01 0.  0.
     999903    2    3    3    0    0 -0.12604320835E+00 -0.32134323142E-01 -0.38726276681E-02  0.13158759802E+00  0.19513933783E-01 0.  0.
         14    1    1    2    0    0  0.38189031296E-02  0.14536965281E-01  0.18201629347E-01  0.23605225938E-01  0.00000000000E+00 0. -1.
     999901    1    3    3    0    0  0.12222430522E+00  0.17597357861E-01 -0.14329001678E-01  0.88873717604E+00  0.88000000000E+00 0. -1.
        -11    1    4    4    0    0 -0.11777713926E+00 -0.32624825725E-01 -0.76902398148E-02  0.12245503132E+00  0.51100000000E-03 0. -1.
         11    1    4    4    0    0 -0.82660690956E-02  0.49050258359E-03  0.38176121467E-02  0.91325667027E-02  0.51100000000E-03 0.  1.
</event>
<event>
 8    1  0.1285486E+005  0.1043930E+01  0.7957747E-01            NaN
         13   -1    0    0    0    0  0.00000000000E+00  0.00000000000E+00  0.74505805969E-08  0.10566000000E+00  0.10566000000E+00 0. -1.
     999900   -1    0    0    0    0 -0.00000000000E+00 -0.00000000000E+00 -0.74505805969E-08  0.93827000000E+00  0.93827000000E+00 0.  1.
     999902    2    1    2    0    0  0.13937099423E-01  0.23874166109E-02 -0.25533377328E-01  0.10147427450E+01  0.10143228986E+01 0.  0.
     999903    2    3    3    0    0 -0.74374540890E-01 -0.65699469380E-01  0.69238016468E-01  0.12265733037E+00  0.20072995782E-01 0.  0.
         14    1    1    2    0    0 -0.13937099423E-01 -0.23874166109E-02  0.25533377328E-01  0.29187255030E-01  0.00000000000E+00 0. -1.
     999901    1    3    3    0    0  0.88311640313E-01  0.68086885991E-01 -0.94771393797E-01  0.89208541460E+00  0.88000000000E+00 0.  1.
        -11    1    4    4    0    0 -0.38242259687E-01 -0.34516384315E-01  0.48004823705E-01  0.70417152968E-01  0.51100000000E-03 0. -1.
         11    1    4    4    0    0 -0.36132281203E-01 -0.31183085065E-01  0.21233192763E-01  0.52240177403E-01  0.51100000000E-03 0.  1.
</event>
<event>
 8    1  0.1123470E+005  0.1043930E+01  0.7957747E-01            NaN
         13   -1    0    0    0    0  0.00000000000E+00  0.00000000000E+00  0.74505805969E-08  0.10566000000E+00  0.10566000000E+00 0. -1.
     999900   -1    0    0    0    0 -0.00000000000E+00 -0.00000000000E+00 -0.74505805969E-08  0.93827000000E+00  0.93827000000E+00 0.  1.
     999902    2    1    2    0    0  0.18814280265E-02 -0.18224874161E-01 -0.14254302799E-01  0.10207164058E+01  0.10204524046E+01 0.  0.
     999903    2    3    3    0    0  0.50447681135E-01 -0.82096025257E-01 -0.90515654838E-01  0.13378123411E+00  0.20484358283E-01 0.  0.
         14    1    1    2    0    0 -0.18814280265E-02  0.18224874161E-01  0.14254302799E-01  0.23213594247E-01  0.00000000000E+00 0.  1.
     999901    1    3    3    0    0 -0.48566253108E-01  0.63871151095E-01  0.76261352039E-01  0.88693517164E+00  0.88000000000E+00 0. -1.
        -11    1    4    4    0    0  0.18320809082E-01 -0.48403905323E-01 -0.51853313952E-01  0.73264025174E-01  0.51100000000E-03 0.  1.
         11    1    4    4    0    0  0.32126872053E-01 -0.33692119934E-01 -0.38662340886E-01  0.60517208935E-01  0.51100000000E-03 0. -1.
</event>
<event>
 8    1  0.1145616E+005  0.1043930E+01  0.7957747E-01            NaN
         13   -1    0    0    0    0  0.00000000000E+00  0.00000000000E+00  0.74505805969E-08  0.10566000000E+00  0.10566000000E+00 0. -1.
     999900   -1    0    0    0    0 -0.00000000000E+00 -0.00000000000E+00 -0.74505805969E-08  0.93827000000E+00  0.93827000000E+00 0. -1.
     999902    2    1    2    0    0 -0.11766259876E-01 -0.15467100215E-01 -0.25307328199E-01  0.10120217421E+01  0.10115185958E+01 0.  0.
     999903    2    3    3    0    0 -0.80489484798E-01  0.34701194394E-01 -0.87972868138E-01  0.12569972991E+00  0.19454215881E-01 0.  0.
         14    1    1    2    0    0  0.11766259876E-01  0.15467100215E-01  0.25307328199E-01  0.31908257883E-01  0.00000000000E+00 0. -1.
     999901    1    3    3    0    0  0.68723224921E-01 -0.50168294609E-01  0.62665539939E-01  0.88632201221E+00  0.88000000000E+00 0.  1.
        -11    1    4    4    0    0 -0.33370489679E-01  0.51921297688E-02 -0.39158594436E-01  0.51712710547E-01  0.51100000000E-03 0.  1.
         11    1    4    4    0    0 -0.47118995119E-01  0.29509064625E-01 -0.48814273702E-01  0.73987019362E-01  0.51100000000E-03 0. -1.
</event>
<event>
 8    1  0.1123470E+005  0.1043930E+01  0.7957747E-01            NaN
         13   -1    0    0    0    0  0.00000000000E+00  0.00000000000E+00  0.74505805969E-08  0.10566000000E+00  0.10566000000E+00 0. -1.
     999900   -1    0    0    0    0 -0.00000000000E+00 -0.00000000000E+00 -0.74505805969E-08  0.93827000000E+00  0.93827000000E+00 0. -1.
     999902    2    1    2    0    0 -0.14763979797E-01 -0.17514264102E-01  0.84781762035E-02  0.10195045211E+01  0.10192118840E+01 0.  0.
     999903    2    3    3    0    0 -0.13237259162E-01 -0.12300256944E+00 -0.41101401280E-01  0.13181749974E+00  0.19536400121E-01 0.  0.
         14    1    1    2    0    0  0.14763979797E-01  0.17514264102E-01 -0.84781762035E-02  0.24425478874E-01  0.00000000000E+00 0.  1.
     999901    1    3    3    0    0 -0.15267206353E-02  0.10548830534E+00  0.49579577483E-01  0.88768702139E+00  0.88000000000E+00 0.  1.
        -11    1    4    4    0    0 -0.32669131251E-02 -0.58389278144E-01 -0.29184289557E-01  0.65360266228E-01  0.51100000000E-03 0. -1.
         11    1    4    4    0    0 -0.99703460369E-02 -0.64613291300E-01 -0.11917111723E-01  0.66457233508E-01  0.51100000000E-03 0.  1.
</event>
<event>
 8    1  0.1123470E+005  0.1043930E+01  0.7957747E-01            NaN
         13   -1    0    0    0    0  0.00000000000E+00  0.00000000000E+00  0.74505805969E-08  0.10566000000E+00  0.10566000000E+00 0. -1.
     999900   -1    0    0    0    0 -0.00000000000E+00 -0.00000000000E+00 -0.74505805969E-08  0.93827000000E+00  0.93827000000E+00 0.  1.
     999902    2    1    2    0    0 -0.56852399751E-02 -0.15045532895E-01  0.17706099718E-01  0.10200093817E+01  0.10197288575E+01 0.  0.
     999903    2    3    3    0    0 -0.54624592982E-01 -0.15919490169E-01  0.11935833320E+00  0.13280647329E+00  0.12404487857E-01 0.  0.
         14    1    1    2    0    0  0.56852399751E-02  0.15045532895E-01 -0.17706099718E-01  0.23920618322E-01  0.00000000000E+00 0.  1.
     999901    1    3    3    0    0  0.48939353006E-01  0.87395727415E-03 -0.10165223348E+00  0.88720290838E+00  0.88000000000E+00 0.  1.
        -11    1    4    4    0    0 -0.39771571061E-01 -0.61633248555E-02  0.77478249962E-01  0.87309247941E-01  0.51100000000E-03 0. -1.
         11    1    4    4    0    0 -0.14853021920E-01 -0.97561653133E-02  0.41880083238E-01  0.45497225353E-01  0.51100000000E-03 0.  1.
</event>
<event>
 8    1  0.1123470E+005  0.1043930E+01  0.7957747E-01            NaN
         13   -1    0    0    0    0  0.00000000000E+00  0.00000000000E+00  0.74505805969E-08  0.10566000000E+00  0.10566000000E+00 0.  1.
     999900   -1    0    0    0    0 -0.00000000000E+00 -0.00000000000E+00 -0.74505805969E-08  0.93827000000E+00  0.93827000000E+00 0. -1.
     999902    2    1    2    0    0 -0.22226047213E-01  0.79892301680E-02  0.63556159570E-02  0.10194714876E+01  0.10191780488E+01 0.  0.
     999903    2    3    3    0    0  0.66584653962E-01 -0.50799418551E-01  0.95448404249E-01  0.12858374454E+00  0.20230778947E-01 0.  0.
         14    1    1    2    0    0  0.22226047213E-01 -0.79892301680E-02 -0.63556159570E-02  0.24458512374E-01  0.00000000000E+00 0. -1.
     999901    1    3    3    0    0 -0.88810701175E-01  0.58788648719E-01 -0.89092788292E-01  0.89088774309E+00  0.88000000000E+00 0. -1.
        -11    1    4    4    0    0  0.44013640619E-01 -0.32330195688E-01  0.47104179074E-01  0.72121473370E-01  0.51100000000E-03 0.  1.
         11    1    4    4    0    0  0.22571013344E-01 -0.18469222863E-01  0.48344225175E-01  0.56462271167E-01  0.51100000000E-03 0. -1.
</event>
<event>
 8    1  0.1123470E+005  0.1043930E+01  0.7957747E-01            NaN
         13   -1    0    0    0    0  0.00000000000E+00  0.00000000000E+00  0.74505805969E-08  0.10566000000E+00  0.10566000000E+00 0. -1.
     999900   -1    0    0    0    0 -0.00000000000E+00 -0.00000000000E+00 -0.74505805969E-08  0.93827000000E+00  0.93827000000E+00 0. -1.
     999902    2    1    2    0    0  0.73859886426E-02 -0.19255877365E-01 -0.12635881190E-01  0.10197430793E+01  0.10194561985E+01 0.  0.
     999903    2    3    3    0    0 -0.37017039880E-01 -0.96044206834E-01  0.77775958542E-01  0.13067481571E+00  0.20785976691E-01 0.  0.
         14    1    1    2    0    0 -0.73859886426E-02  0.19255877365E-01  0.12635881190E-01  0.24186920737E-01  0.00000000000E+00 0. -1.
     999901    1    3    3    0    0  0.44403028522E-01  0.76788329470E-01 -0.90411839732E-01  0.88906826355E+00  0.88000000000E+00 0. -1.
        -11    1    4    4    0    0 -0.69358900793E-02 -0.34111738280E-01  0.16593357482E-01  0.38565760633E-01  0.51100000000E-03 0.  1.
         11    1    4    4    0    0 -0.30081149800E-01 -0.61932468554E-01  0.61182601060E-01  0.92109055081E-01  0.51100000000E-03 0. -1.
</event>
<event>
 8    1  0.1123470E+005  0.1043930E+01  0.7957747E-01            NaN
         13   -1    0    0    0    0  0.00000000000E+00  0.00000000000E+00  0.74505805969E-08  0.10566000000E+00  0.10566000000E+00 0.  1.
     999900   -1    0    0    0    0 -0.00000000000E+00 -0.00000000000E+00 -0.74505805969E-08  0.93827000000E+00  0.93827000000E+00 0.  1.
     999902    2    1    2    0    0  0.14467676687E-01  0.12926819383E-01 -0.13229949808E-01  0.10204470722E+01  0.10201768372E+01 0.  0.
     999903    2    3    3    0    0  0.11508533571E-01  0.13044880076E+00 -0.71439054175E-02  0.13260856625E+00  0.19612763557E-01 0.  0.
         14    1    1    2    0    0 -0.14467676687E-01 -0.12926819383E-01  0.13229949808E-01  0.23482927841E-01  0.00000000000E+00 0.  1.
     999901    1    3    3    0    0  0.29591431156E-02 -0.11752198138E+00 -0.60860443906E-02  0.88783850591E+00  0.88000000000E+00 0. -1.
        -11    1    4    4    0    0 -0.97338532669E-03  0.71097560651E-01  0.27297539511E-02  0.71158437920E-01  0.51100000000E-03 0.  1.
         11    1    4    4    0    0  0.12481918898E-01  0.59351240108E-01 -0.98736593686E-02  0.61450128332E-01  0.51100000000E-03 0. -1.
</event>
<event>
 8    1  0.1123470E+005  0.1043930E+01  0.7957747E-01            NaN
         13   -1    0    0    0    0  0.00000000000E+00  0.00000000000E+00  0.74505805969E-08  0.10566000000E+00  0.10566000000E+00 0. -1.
     999900   -1    0    0    0    0 -0.00000000000E+00 -0.00000000000E+00 -0.74505805969E-08  0.93827000000E+00  0.93827000000E+00 0. -1.
     999902    2    1    2    0    0  0.39221550862E-02 -0.15775574733E-02  0.20287825558E-01  0.10232063938E+01  0.10229965085E+01 0.  0.
     999903    2    3    3    0    0  0.66459551214E-01  0.54844278775E-01 -0.97266382158E-01  0.13140297304E+00  0.19524993331E-01 0.  0.
         14    1    1    2    0    0 -0.39221550862E-02  0.15775574733E-02 -0.20287825558E-01  0.20723606201E-01  0.00000000000E+00 0.  1.
     999901    1    3    3    0    0 -0.62537396128E-01 -0.56421836248E-01  0.11755420772E+00  0.89180342076E+00  0.88000000000E+00 0.  1.
        -11    1    4    4    0    0  0.27408513232E-01  0.34891100869E-01 -0.45448095891E-01  0.63516974570E-01  0.51100000000E-03 0.  1.
         11    1    4    4    0    0  0.39051037982E-01  0.19953177906E-01 -0.51818286267E-01  0.67885998473E-01  0.51100000000E-03 0. -1.
</event>
<event>
 8    1  0.1123470E+005  0.1043930E+01  0.7957747E-01            NaN
         13   -1    0    0    0    0  0.00000000000E+00  0.00000000000E+00  0.74505805969E-08  0.10566000000E+00  0.10566000000E+00 0.  1.
     999900   -1    0    0    0    0 -0.00000000000E+00 -0.00000000000E+00 -0.74505805969E-08  0.93827000000E+00  0.93827000000E+00 0. -1.
     999902    2    1    2    0    0 -0.10394627910E-01  0.16182350889E-01  0.12679840015E-01  0.10208931792E+01  0.10206332290E+01 0.  0.
     999903    2    3    3    0    0  0.27080959883E-01  0.10684020739E+00  0.72531744609E-01  0.13342176157E+00  0.19806670149E-01 0.  0.
         14    1    1    2    0    0  0.10394627910E-01 -0.16182350889E-01 -0.12679840015E-01  0.23036820798E-01  0.00000000000E+00 0. -1.
     999901    1    3    3    0    0 -0.37475587793E-01 -0.90657856498E-01 -0.59851904595E-01  0.88747141763E+00  0.88000000000E+00 0. -1.
        -11    1    4    4    0    0  0.17121647483E-01  0.92911651185E-01  0.57277734902E-01  0.11048405213E+00  0.51100000000E-03 0. -1.
         11    1    4    4    0    0  0.99593123999E-02  0.13928556202E-01  0.15254009707E-01  0.22937709443E-01  0.51100000000E-03 0.  1.
</event>
<event>
 8    1  0.1123470E+005  0.1043930E+01  0.7957747E-01            NaN
         13   -1    0    0    0    0  0.00000000000E+00  0.00000000000E+00  0.74505805969E-08  0.10566000000E+00  0.10566000000E+00 0. -1.
     999900   -1    0    0    0    0 -0.00000000000E+00 -0.00000000000E+00 -0.74505805969E-08  0.93827000000E+00  0.93827000000E+00 0.  1.
     999902    2    1    2    0    0  0.15703783613E-01  0.17391651234E-01  0.46988986383E-03  0.10204928682E+01  0.10202236984E+01 0.  0.
     999903    2    3    3    0    0  0.52707746126E-01 -0.10048688223E+00 -0.60064588428E-01  0.12980264987E+00  0.19111596671E-01 0.  0.
         14    1    1    2    0    0 -0.15703783613E-01 -0.17391651234E-01 -0.46988986383E-03  0.23437131840E-01  0.00000000000E+00 0. -1.
     999901    1    3    3    0    0 -0.37003962514E-01  0.11787853347E+00  0.60534478292E-01  0.89069021829E+00  0.88000000000E+00 0. -1.
        -11    1    4    4    0    0  0.11155901812E-01 -0.39695587821E-01 -0.25222917605E-01  0.48338913219E-01  0.51100000000E-03 0. -1.
         11    1    4    4    0    0  0.41551844314E-01 -0.60791294414E-01 -0.34841670823E-01  0.81463736651E-01  0.51100000000E-03 0.  1.
</event>
<event>
 8    1  0.1123470E+005  0.1043930E+01  0.7957747E-01            NaN
         13   -1    0    0    0    0  0.00000000000E+00  0.00000000000E+00  0.74505805969E-08  0.10566000000E+00  0.10566000000E+00 0. -1.
     999900   -1    0    0    0    0 -0.00000000000E+00 -0.00000000000E+00 -0.74505805969E-08  0.93827000000E+00  0.93827000000E+00 0. -1.
     999902    2    1    2    0    0  0.17724042612E-01  0.23146909924E-02 -0.15404840958E-01  0.10203332077E+01  0.10200603150E+01 0.  0.
     999903    2    3    3    0    0  0.36156038593E-01  0.51811064352E-01  0.11145172708E+00  0.12966928777E+00  0.20024764814E-01 0.  0.
         14    1    1    2    0    0 -0.17724042612E-01 -0.23146909924E-02  0.15404840958E-01  0.23596792279E-01  0.00000000000E+00 0. -1.
     999901    1    3    3    0    0 -0.18431995981E-01 -0.49496373360E-01 -0.12685656804E+00  0.89066391995E+00  0.88000000000E+00 0. -1.
        -11    1    4    4    0    0  0.78580721602E-02  0.15158161200E-01  0.49209454558E-01  0.52089832865E-01  0.51100000000E-03 0.  1.
         11    1    4    4    0    0  0.28297966433E-01  0.36652903152E-01  0.62242272519E-01  0.77579454903E-01  0.51100000000E-03 0. -1.
</event>
<event>
 8    1  0.1123470E+005  0.1043930E+01  0.7957747E-01            NaN
         13   -1    0    0    0    0  0.00000000000E+00  0.00000000000E+00  0.74505805969E-08  0.10566000000E+00  0.10566000000E+00 0.  1.
     999900   -1    0    0    0    0 -0.00000000000E+00 -0.00000000000E+00 -0.74505805969E-08  0.93827000000E+00  0.93827000000E+00 0. -1.
     999902    2    1    2    0    0 -0.71544790873E-02 -0.79984722516E-02  0.21433268780E-01  0.10199602870E+01  0.10196785964E+01 0.  0.
     999903    2    3    3    0    0 -0.11960214969E+00  0.33821075554E-01  0.39151724216E-01  0.13164317199E+00  0.18668900892E-01 0.  0.
         14    1    1    2    0    0  0.71544790873E-02  0.79984722516E-02 -0.21433268780E-01  0.23969712972E-01  0.00000000000E+00 0. -1.
     999901    1    3    3    0    0  0.11244767060E+00 -0.41819547806E-01 -0.17718455437E-01  0.88831711504E+00  0.88000000000E+00 0. -1.
        -11    1    4    4    0    0 -0.82522251600E-01  0.32121630907E-01  0.28307798579E-01  0.92969423805E-01  0.51100000000E-03 0.  1.
         11    1    4    4    0    0 -0.37079898092E-01  0.16994446468E-02  0.10843925637E-01  0.38673748187E-01  0.51100000000E-03 0. -1.
</event>
<event>
 8    1  0.1123470E+005  0.1043930E+01  0.7957747E-01            NaN
         13   -1    0    0    0    0  0.00000000000E+00  0.00000000000E+00  0.74505805969E-08  0.10566000000E+00  0.10566000000E+00 0.  1.
     999900   -1    0    0    0    0 -0.00000000000E+00 -0.00000000000E+00 -0.74505805969E-08  0.93827000000E+00  0.93827000000E+00 0. -1.
     999902    2    1    2    0    0 -0.15768430571E-01 -0.17486409532E-01 -0.10449429023E-02  0.10203607440E+01  0.10200884953E+01 0.  0.
     999903    2    3    3    0    0 -0.85150181869E-01  0.93014905553E-01 -0.20367525258E-01  0.13053057471E+00  0.26852722816E-01 0.  0.
         14    1    1    2    0    0  0.15768430571E-01  0.17486409532E-01  0.10449429023E-02  0.23569255963E-01  0.00000000000E+00 0. -1.
     999901    1    3    3    0    0  0.69381751299E-01 -0.11050131508E+00  0.19322582356E-01  0.88983016932E+00  0.88000000000E+00 0.  1.
        -11    1    4    4    0    0 -0.59238132611E-01  0.48757780725E-01 -0.19805762716E-01  0.79240184844E-01  0.51100000000E-03 0. -1.
         11    1    4    4    0    0 -0.25912049259E-01  0.44257124828E-01 -0.56176254224E-03  0.51290389870E-01  0.51100000000E-03 0.  1.
</event>
<event>
 8    1  0.1123470E+005  0.1043930E+01  0.7957747E-01            NaN
         13   -1    0    0    0    0  0.00000000000E+00  0.00000000000E+00  0.74505805969E-08  0.10566000000E+00  0.10566000000E+00 0. -1.
     999900   -1    0    0    0    0 -0.00000000000E+00 -0.00000000000E+00 -0.74505805969E-08  0.93827000000E+00  0.93827000000E+00 0.  1.
     999902    2    1    2    0    0 -0.61440981213E-02  0.14310793102E-01  0.17455035774E-01  0.10205371162E+01  0.10202689736E+01 0.  0.
     999903    2    3    3    0    0  0.58220351683E-01 -0.69395653138E-01  0.91258650812E-01  0.13115726191E+00  0.25859620615E-01 0.  0.
         14    1    1    2    0    0  0.61440981213E-02 -0.14310793102E-01 -0.17455035774E-01  0.23392883850E-01  0.00000000000E+00 0.  1.
     999901    1    3    3    0    0 -0.64364449804E-01  0.83706446240E-01 -0.73803615038E-01  0.88937985424E+00  0.88000000000E+00 0.  1.
        -11    1    4    4    0    0  0.83176869928E-02 -0.24824423409E-01  0.35165732672E-01  0.43844335893E-01  0.51100000000E-03 0.  1.
         11    1    4    4    0    0  0.49902664690E-01 -0.44571229729E-01  0.56092918140E-01  0.87312926014E-01  0.51100000000E-03 0. -1.
</event>
<event>
 8    1  0.1123470E+005  0.1043930E+01  0.7957747E-01            NaN
         13   -1    0    0    0    0  0.00000000000E+00  0.00000000000E+00  0.74505805969E-08  0.10566000000E+00  0.10566000000E+00 0. -1.
     999900   -1    0    0    0    0 -0.00000000000E+00 -0.00000000000E+00 -0.74505805969E-08  0.93827000000E+00  0.93827000000E+00 0. -1.
     999902    2    1    2    0    0 -0.21480653682E-01 -0.31744843039E-02 -0.79950966605E-02  0.10207909118E+01  0.10205286219E+01 0.  0.
     999903    2    3    3    0    0  0.86093036976E-01 -0.49973606678E-01 -0.81189259232E-01  0.12999371701E+00  0.19932342214E-01 0.  0.
         14    1    1    2    0    0  0.21480653682E-01  0.31744843039E-02  0.79950966605E-02  0.23139088224E-01  0.00000000000E+00 0.  1.
     999901    1    3    3    0    0 -0.10757369066E+00  0.46799122374E-01  0.73194162572E-01  0.89079719477E+00  0.88000000000E+00 0.  1.
        -11    1    4    4    0    0  0.26208636303E-01 -0.23405031317E-01 -0.20477008299E-01  0.40672559517E-01  0.51100000000E-03 0. -1.
         11    1    4    4    0    0  0.59884400673E-01 -0.26568575361E-01 -0.60712250933E-01  0.89321157488E-01  0.51100000000E-03 0.  1.
</event>
<event>
 8    1  0.1123470E+005  0.1043930E+01  0.7957747E-01            NaN
         13   -1    0    0    0    0  0.00000000000E+00  0.00000000000E+00  0.74505805969E-08  0.10566000000E+00  0.10566000000E+00 0. -1.
     999900   -1    0    0    0    0 -0.00000000000E+00 -0.00000000000E+00 -0.74505805969E-08  0.93827000000E+00  0.93827000000E+00 0. -1.
     999902    2    1    2    0    0  0.84502084921E-02  0.21613010456E-01 -0.22867419970E-02  0.10206113930E+01  0.10203449701E+01 0.  0.
     999903    2    3    3    0    0 -0.70565256386E-01  0.84893158107E-01 -0.69955477678E-01  0.13222697249E+00  0.20097255890E-01 0.  0.
         14    1    1    2    0    0 -0.84502084921E-02 -0.21613010456E-01  0.22867419970E-02  0.23318607023E-01  0.00000000000E+00 0.  1.
     999901    1    3    3    0    0  0.79015464878E-01 -0.63280147651E-01  0.67668735681E-01  0.88838442049E+00  0.88000000000E+00 0.  1.
        -11    1    4    4    0    0 -0.58435821281E-01  0.58816625657E-01 -0.46155781093E-01  0.94893402889E-01  0.51100000000E-03 0. -1.
         11    1    4    4    0    0 -0.12129435105E-01  0.26076532449E-01 -0.23799696586E-01  0.37333569600E-01  0.51100000000E-03 0.  1.
</event>
<event>
 8    1  0.1123470E+005  0.1043930E+01  0.7957747E-01            NaN
         13   -1    0    0    0    0  0.00000000000E+00  0.00000000000E+00  0.74505805969E-08  0.10566000000E+00  0.10566000000E+00 0. -1.
     999900   -1    0    0    0    0 -0.00000000000E+00 -0.00000000000E+00 -0.74505805969E-08  0.93827000000E+00  0.93827000000E+00 0. -1.
     999902    2    1    2    0    0  0.39161903231E-02  0.21320602689E-01  0.10072455222E-01  0.10200268831E+01  0.10197467740E+01 0.  0.
     999903    2    3    3    0    0  0.78330968208E-01 -0.86664011285E-01 -0.49256747473E-01  0.12833288267E+00  0.19917584453E-01 0.  0.
         14    1    1    2    0    0 -0.39161903231E-02 -0.21320602689E-01 -0.10072455222E-01  0.23903116949E-01  0.00000000000E+00 0. -1.
     999901    1    3    3    0    0 -0.74414777885E-01  0.10798461397E+00  0.59329202695E-01  0.89169400038E+00  0.88000000000E+00 0. -1.
        -11    1    4    4    0    0  0.35098086659E-02 -0.66143184512E-02 -0.87104236782E-02  0.11497850543E-01  0.51100000000E-03 0.  1.
         11    1    4    4    0    0  0.74821159542E-01 -0.80049692834E-01 -0.40546323795E-01  0.11683503213E+00  0.51100000000E-03 0. -1.
</event>
<event>
 8    1  0.1123470E+005  0.1043930E+01  0.7957747E-01            NaN
         13   -1    0    0    0    0  0.00000000000E+00  0.00000000000E+00  0.74505805969E-08  0.10566000000E+00  0.10566000000E+00 0.  1.
     999900   -1    0    0    0    0 -0.00000000000E+00 -0.00000000000E+00 -0.74505805969E-08  0.93827000000E+00  0.93827000000E+00 0. -1.
     999902    2    1    2    0    0 -0.62529231799E-02  0.16008243847E-01 -0.10491345691E-01  0.10237946765E+01  0.10235966531E+01 0.  0.
     999903    2    3    3    0    0 -0.11396723376E-01 -0.12754283042E+00 -0.25434520638E-01  0.13202303076E+00  0.19649603504E-01 0.  0.
         14    1    1    2    0    0  0.62529231799E-02 -0.16008243847E-01  0.10491345691E-01  0.20135323532E-01  0.00000000000E+00 0. -1.
     999901    1    3    3    0    0  0.51438001966E-02  0.14355107426E+00  0.14943174947E-01  0.89177164570E+00  0.88000000000E+00 0.  1.
        -11    1    4    4    0    0  0.16726886201E-02 -0.63055952377E-01 -0.19153795830E-01  0.65924047457E-01  0.51100000000E-03 0. -1.
         11    1    4    4    0    0 -0.13069411997E-01 -0.64486878040E-01 -0.62807248076E-02  0.66098983308E-01  0.51100000000E-03 0.  1.
</event>
<event>
 8    1  0.1123470E+005  0.1043930E+01  0.7957747E-01            NaN
         13   -1    0    0    0    0  0.00000000000E+00  0.00000000000E+00  0.74505805969E-08  0.10566000000E+00  0.10566000000E+00 0.  1.
     999900   -1    0    0    0    0 -0.00000000000E+00 -0.00000000000E+00 -0.74505805969E-08  0.93827000000E+00  0.93827000000E+00 0. -1.
     999902    2    1    2    0    0  0.40512032162E-02  0.16937347306E-01 -0.21493289663E-01  0.10162668931E+01  0.10158903241E+01 0.  0.
     999903    2    3    3    0    0  0.35002817834E-01  0.12047057080E+00 -0.26107294390E-01  0.12964497830E+00  0.19694514299E-01 0.  0.
         14    1    1    2    0    0 -0.40512032162E-02 -0.16937347306E-01  0.21493289663E-01  0.27663106872E-01  0.00000000000E+00 0.  1.
     999901    1    3    3    0    0 -0.30951614618E-01 -0.10353322349E+00  0.46140047266E-02  0.88662191483E+00  0.88000000000E+00 0.  1.
        -11    1    4    4    0    0  0.36394675364E-01  0.11346638152E+00 -0.27636045013E-01  0.12232417682E+00  0.51100000000E-03 0. -1.
         11    1    4    4    0    0 -0.13918575305E-02  0.70041892818E-02  0.15287506226E-02  0.73208014825E-02  0.51100000000E-03 0.  1.
</event>
<event>
 8    1  0.1123470E+005  0.1043930E+01  0.7957747E-01            NaN
         13   -1    0    0    0    0  0.00000000000E+00  0.00000000000E+00  0.74505805969E-08  0.10566000000E+00  0.10566000000E+00 0. -1.
     999900   -1    0    0    0    0 -0.00000000000E+00 -0.00000000000E+00 -0.74505805969E-08  0.93827000000E+00  0.93827000000E+00 0.  1.
     999902    2    1    2    0    0  0.20547648771E-02 -0.39313906797E-02 -0.26253938336E-01  0.10173039382E+01  0.10169554343E+01 0.  0.
     999903    2    3    3    0    0 -0.22868484383E-01 -0.65598057900E-01  0.10247172648E+00  0.12545516006E+00  0.20309349560E-01 0.  0.
         14    1    1    2    0    0 -0.20547648771E-02  0.39313906797E-02  0.26253938336E-01  0.26626061848E-01  0.00000000000E+00 0. -1.
     999901    1    3    3    0    0  0.24923249260E-01  0.61666667220E-01 -0.12872566482E+00  0.89184877809E+00  0.88000000000E+00 0.  1.
        -11    1    4    4    0    0 -0.17070442515E-01 -0.21816988326E-01  0.32461081828E-01  0.42677440665E-01  0.51100000000E-03 0. -1.
         11    1    4    4    0    0 -0.57980418681E-02 -0.43781069574E-01  0.70010644653E-01  0.82777719396E-01  0.51100000000E-03 0.  1.
</event>
<event>
 8    1  0.1123470E+005  0.1043930E+01  0.7957747E-01            NaN
         13   -1    0    0    0    0  0.00000000000E+00  0.00000000000E+00  0.74505805969E-08  0.10566000000E+00  0.10566000000E+00 0. -1.
     999900   -1    0    0    0    0 -0.00000000000E+00 -0.00000000000E+00 -0.74505805969E-08  0.93827000000E+00  0.93827000000E+00 0.  1.
     999902    2    1    2    0    0 -0.16743360348E-02  0.20471928188E-01 -0.12424751143E-01  0.10199242156E+01  0.10196416664E+01 0.  0.
     999903    2    3    3    0    0  0.70366137798E-01  0.10303701156E+00 -0.40329360540E-01  0.13268947207E+00  0.20298265344E-01 0.  0.
         14    1    1    2    0    0  0.16743360348E-02 -0.20471928188E-01  0.12424751143E-01  0.24005784425E-01  0.00000000000E+00 0. -1.
     999901    1    3    3    0    0 -0.72040473832E-01 -0.82565083372E-01  0.27904609397E-01  0.88723474351E+00  0.88000000000E+00 0. -1.
        -11    1    4    4    0    0  0.60208449315E-02  0.20430069653E-01 -0.10843890348E-01  0.23905844444E-01  0.51100000000E-03 0.  1.
         11    1    4    4    0    0  0.64345292866E-01  0.82606941907E-01 -0.29485470192E-01  0.10878362762E+00  0.51100000000E-03 0. -1.
</event>
<event>
 8    1  0.1123470E+005  0.1043930E+01  0.7957747E-01            NaN
         13   -1    0    0    0    0  0.00000000000E+00  0.00000000000E+00  0.74505805969E-08  0.10566000000E+00  0.10566000000E+00 0.  1.
     999900   -1    0    0    0    0 -0.00000000000E+00 -0.00000000000E+00 -0.74505805969E-08  0.93827000000E+00  0.93827000000E+00 0.  1.
     999902    2    1    2    0    0 -0.14776059474E-01 -0.18600511255E-01 -0.11733384845E-02  0.10201458104E+01  0.10198685145E+01 0.  0.
     999903    2    3    3    0    0 -0.12594906100E+00 -0.36947099395E-01 -0.82801534394E-02  0.13293301720E+00  0.19348695060E-01 0.  0.
         14    1    1    2    0    0  0.14776059474E-01  0.18600511255E-01  0.11733384845E-02  0.23784189617E-01  0.00000000000E+00 0. -1.
     999901    1    3    3    0    0  0.11117300153E+00  0.18346588139E-01  0.71068149549E-02  0.88721279318E+00  0.88000000000E+00 0. -1.
        -11    1    4    4    0    0 -0.28114806748E-01 -0.25487889876E-02  0.39426701484E-02  0.28508673289E-01  0.51100000000E-03 0. -1.
         11    1    4    4    0    0 -0.97834254254E-01 -0.34398310407E-01 -0.12222823588E-01  0.10442434391E+00  0.51100000000E-03 0.  1.
</event>
<event>
 8    1  0.1123470E+005  0.1043930E+01  0.7957747E-01            NaN
         13   -1    0    0    0    0  0.00000000000E+00  0.00000000000E+00  0.74505805969E-08  0.10566000000E+00  0.10566000000E+00 0.  1.
     999900   -1    0    0    0    0 -0.00000000000E+00 -0.00000000000E+00 -0.74505805969E-08  0.93827000000E+00  0.93827000000E+00 0.  1.
     999902    2    1    2    0    0  0.13169208020E-01 -0.11993560873E-01 -0.14980377048E-01  0.10206558676E+01  0.10203904717E+01 0.  0.
     999903    2    3    3    0    0 -0.79901510838E-01 -0.98105922663E-01 -0.31478951419E-01  0.13141478639E+00  0.16428578871E-01 0.  0.
         14    1    1    2    0    0 -0.13169208020E-01  0.11993560873E-01  0.14980377048E-01  0.23274132397E-01  0.00000000000E+00 0.  1.
     999901    1    3    3    0    0  0.93070718858E-01  0.86112361790E-01  0.16498574370E-01  0.88924108121E+00  0.88000000000E+00 0. -1.
        -11    1    4    4    0    0 -0.24573794645E-01 -0.24188738495E-01 -0.22143163221E-02  0.34556197288E-01  0.51100000000E-03 0. -1.
         11    1    4    4    0    0 -0.55327716192E-01 -0.73917184169E-01 -0.29264635096E-01  0.96858589102E-01  0.51100000000E-03 0.  1.
</event>
<event>
 8    1  0.1123470E+005  0.1043930E+01  0.7957747E-01            NaN
         13   -1    0    0    0    0  0.00000000000E+00  0.00000000000E+00  0.74505805969E-08  0.10566000000E+00  0.10566000000E+00 0. -1.
     999900   -1    0    0    0    0 -0.00000000000E+00 -0.00000000000E+00 -0.74505805969E-08  0.93827000000E+00  0.93827000000E+00 0. -1.
     999902    2    1    2    0    0  0.84308969508E-02  0.21861778319E-01  0.66075049378E-03  0.10204895656E+01  0.10202203191E+01 0.  0.
     999903    2    3    3    0    0  0.34633577056E-01  0.11842985103E+00  0.47445153814E-01  0.13358441084E+00  0.19199945940E-01 0.  0.
         14    1    1    2    0    0 -0.84308969508E-02 -0.21861778319E-01 -0.66075049378E-03  0.23440434422E-01  0.00000000000E+00 0. -1.
     999901    1    3    3    0    0 -0.26202680105E-01 -0.96568072709E-01 -0.46784403320E-01  0.88690515474E+00  0.88000000000E+00 0.  1.
        -11    1    4    4    0    0  0.18528742910E-01  0.76740486939E-01  0.21162303824E-01  0.81734453406E-01  0.51100000000E-03 0. -1.
         11    1    4    4    0    0  0.16104834146E-01  0.41689364089E-01  0.26282849990E-01  0.51849957431E-01  0.51100000000E-03 0.  1.
</event>
<event>
 8    1  0.1123470E+005  0.1043930E+01  0.7957747E-01            NaN
         13   -1    0    0    0    0  0.00000000000E+00  0.00000000000E+00  0.74505805969E-08  0.10566000000E+00  0.10566000000E+00 0. -1.
     999900   -1    0    0    0    0 -0.00000000000E+00 -0.00000000000E+00 -0.74505805969E-08  0.93827000000E+00  0.93827000000E+00 0. -1.
     999902    2    1    2    0    0 -0.48424814182E-02  0.85242935676E-02 -0.21159424119E-01  0.10206097419E+01  0.10203432809E+01 0.  0.
     999903    2    3    3    0    0 -0.29474942857E-01  0.21771890013E-01  0.12170157403E+00  0.12865036968E+00  0.19921271163E-01 0.  0.
         14    1    1    2    0    0  0.48424814182E-02 -0.85242935676E-02  0.21159424119E-01  0.23320258064E-01  0.00000000000E+00 0. -1.
     999901    1    3    3    0    0  0.24632461439E-01 -0.13247596446E-01 -0.14286099815E+00  0.89195937226E+00  0.88000000000E+00 0. -1.
        -11    1    4    4    0    0 -0.10597970232E-01  0.19351946376E-01  0.54358669414E-01  0.58668056581E-01  0.51100000000E-03 0.  1.
         11    1    4    4    0    0 -0.18876972625E-01  0.24199436372E-02  0.67342904619E-01  0.69982313096E-01  0.51100000000E-03 0. -1.
</event>
<event>
 8    1  0.1123470E+005  0.1043930E+01  0.7957747E-01            NaN
         13   -1    0    0    0    0  0.00000000000E+00  0.00000000000E+00  0.74505805969E-08  0.10566000000E+00  0.10566000000E+00 0.  1.
     999900   -1    0    0    0    0 -0.00000000000E+00 -0.00000000000E+00 -0.74505805969E-08  0.93827000000E+00  0.93827000000E+00 0. -1.
     999902    2    1    2    0    0 -0.10639223599E-01 -0.41237340119E-02 -0.21256657108E-01  0.10198044175E+01  0.10195190073E+01 0.  0.
     999903    2    3    3    0    0  0.19024328718E-01  0.11972879339E+00 -0.43564161116E-01  0.13035683632E+00  0.19953936722E-01 0.  0.
         14    1    1    2    0    0  0.10639223599E-01  0.41237340119E-02  0.21256657108E-01  0.24125582530E-01  0.00000000000E+00 0.  1.
     999901    1    3    3    0    0 -0.29663552317E-01 -0.12385252740E+00  0.22307504008E-01  0.88944758115E+00  0.88000000000E+00 0.  1.
        -11    1    4    4    0    0  0.82121690592E-02  0.59685149252E-01 -0.32135959221E-01  0.68284242384E-01  0.51100000000E-03 0. -1.
         11    1    4    4    0    0  0.10812159659E-01  0.60043644141E-01 -0.11428201895E-01  0.62072593935E-01  0.51100000000E-03 0.  1.
</event>
<event>
 8    1  0.1123470E+005  0.1043930E+01  0.7957747E-01            NaN
         13   -1    0    0    0    0  0.00000000000E+00  0.00000000000E+00  0.74505805969E-08  0.10566000000E+00  0.10566000000E+00 0.  1.
     999900   -1    0    0    0    0 -0.00000000000E+00 -0.00000000000E+00 -0.74505805969E-08  0.93827000000E+00  0.93827000000E+00 0.  1.
     999902    2    1    2    0    0  0.24175864908E-01  0.11817364146E-01  0.35976730228E-02  0.10167810444E+01  0.10164185292E+01 0.  0.
     999903    2    3    3    0    0 -0.10803193950E+00  0.28250393764E-01  0.53499914999E-01  0.12535567917E+00  0.19565804230E-01 0.  0.
         14    1    1    2    0    0 -0.24175864908E-01 -0.11817364146E-01 -0.35976730228E-02  0.27148955608E-01  0.00000000000E+00 0. -1.
     999901    1    3    3    0    0  0.13220780441E+00 -0.16433029618E-01 -0.49902241977E-01  0.89142536522E+00  0.88000000000E+00 0.  1.
        -11    1    4    4    0    0 -0.35711304279E-01  0.16296890758E-01  0.11662637405E-01  0.40953194429E-01  0.51100000000E-03 0.  1.
         11    1    4    4    0    0 -0.72320635220E-01  0.11953503005E-01  0.41837277594E-01  0.84402484740E-01  0.51100000000E-03 0. -1.
</event>
<event>
 8    1  0.1123470E+005  0.1043930E+01  0.7957747E-01            NaN
         13   -1    0    0    0    0  0.00000000000E+00  0.00000000000E+00  0.74505805969E-08  0.10566000000E+00  0.10566000000E+00 0.  1.
     999900   -1    0    0    0    0 -0.00000000000E+00 -0.00000000000E+00 -0.74505805969E-08  0.93827000000E+00  0.93827000000E+00 0. -1.
     999902    2    1    2    0    0  0.10706504898E-01  0.18829774805E-01 -0.98952126274E-02  0.10201160356E+01  0.10198380368E+01 0.  0.
     999903    2    3    3    0    0 -0.22035869716E-01 -0.71555008749E-01  0.10170493247E+00  0.12787387983E+00  0.20053354382E-01 0.  0.
         14    1    1    2    0    0 -0.10706504898E-01 -0.18829774805E-01  0.98952126274E-02  0.23813964375E-01  0.00000000000E+00 0.  1.
     999901    1    3    3    0    0  0.32742374613E-01  0.90384783553E-01 -0.11160014510E+00  0.89224215580E+00  0.88000000000E+00 0. -1.
        -11    1    4    4    0    0 -0.23203255882E-01 -0.48871582887E-01  0.63484482209E-01  0.83410810449E-01  0.51100000000E-03 0.  1.
         11    1    4    4    0    0  0.11673861667E-02 -0.22683425862E-01  0.38220450264E-01  0.44463069380E-01  0.51100000000E-03 0. -1.
</event>
<event>
 8    1  0.1123470E+005  0.1043930E+01  0.7957747E-01            NaN
         13   -1    0    0    0    0  0.00000000000E+00  0.00000000000E+00  0.74505805969E-08  0.10566000000E+00  0.10566000000E+00 0.  1.
     999900   -1    0    0    0    0 -0.00000000000E+00 -0.00000000000E+00 -0.74505805969E-08  0.93827000000E+00  0.93827000000E+00 0.  1.
     999902    2    1    2    0    0  0.71633532747E-02 -0.20493753034E-01 -0.10113548131E-01  0.10199802317E+01  0.10196990153E+01 0.  0.
     999903    2    3    3    0    0 -0.10408135063E-01 -0.92586033752E-01 -0.92671784634E-01  0.13300677298E+00  0.20548456641E-01 0.  0.
         14    1    1    2    0    0 -0.71633532747E-02  0.20493753034E-01  0.10113548131E-01  0.23949768252E-01  0.00000000000E+00 0. -1.
     999901    1    3    3    0    0  0.17571488338E-01  0.72092280718E-01  0.82558236503E-01  0.88697345877E+00  0.88000000000E+00 0. -1.
        -11    1    4    4    0    0 -0.70790283186E-02 -0.42284432711E-01 -0.56647848368E-01  0.71044533480E-01  0.51100000000E-03 0. -1.
         11    1    4    4    0    0 -0.33291067448E-02 -0.50301601041E-01 -0.36023936266E-01  0.61962239502E-01  0.51100000000E-03 0.  1.
</event>
<event>
 8    1  0.1123470E+005  0.1043930E+01  0.7957747E-01            NaN
         13   -1    0    0    0    0  0.00000000000E+00  0.00000000000E+00  0.74505805969E-08  0.10566000000E+00  0.10566000000E+00 0. -1.
     999900   -1    0    0    0    0 -0.00000000000E+00 -0.00000000000E+00 -0.74505805969E-08  0.93827000000E+00  0.93827000000E+00 0. -1.
     999902    2    1    2    0    0  0.47431005369E-03 -0.24113321207E-01 -0.34225732552E-02  0.10195703769E+01  0.10192793347E+01 0.  0.
     999903    2    3    3    0    0  0.37922914558E-01  0.11723137825E+00 -0.24699295087E-01  0.12725125185E+00  0.20037026374E-01 0.  0.
         14    1    1    2    0    0 -0.47431005369E-03  0.24113321207E-01  0.34225732552E-02  0.24359623095E-01  0.00000000000E+00 0. -1.
     999901    1    3    3    0    0 -0.37448604505E-01 -0.14134469945E+00  0.21276721832E-01  0.89231912505E+00  0.88000000000E+00 0.  1.
        -11    1    4    4    0    0  0.60601089207E-02  0.13098789766E-01  0.32913373745E-02  0.14812063873E-01  0.51100000000E-03 0.  1.
         11    1    4    4    0    0  0.31862805638E-01  0.10413258848E+00 -0.27990632462E-01  0.11243918798E+00  0.51100000000E-03 0. -1.
</event>
<event>
 8    1  0.1123470E+005  0.1043930E+01  0.7957747E-01            NaN
         13   -1    0    0    0    0  0.00000000000E+00  0.00000000000E+00  0.74505805969E-08  0.10566000000E+00  0.10566000000E+00 0. -1.
     999900   -1    0    0    0    0 -0.00000000000E+00 -0.00000000000E+00 -0.74505805969E-08  0.93827000000E+00  0.93827000000E+00 0.  1.
     999902    2    1    2    0    0  0.64416113499E-03 -0.44065803008E-03  0.23227103551E-01  0.10206897878E+01  0.10204251739E+01 0.  0.
     999903    2    3    3    0    0  0.72407566950E-01 -0.59917220682E-01 -0.86067058663E-01  0.12904374716E+00  0.20293373514E-01 0.  0.
         14    1    1    2    0    0 -0.64416113499E-03  0.44065803008E-03 -0.23227103551E-01  0.23240212185E-01  0.00000000000E+00 0.  1.
     999901    1    3    3    0    0 -0.71763405815E-01  0.59476562652E-01  0.10929416221E+00  0.89164604065E+00  0.88000000000E+00 0. -1.
        -11    1    4    4    0    0  0.65970535742E-01 -0.50819121102E-01 -0.66708635251E-01  0.10670050512E+00  0.51100000000E-03 0.  1.
         11    1    4    4    0    0  0.64370312086E-02 -0.90980995801E-02 -0.19358423412E-01  0.22343242037E-01  0.51100000000E-03 0. -1.
</event>
<event>
 8    1  0.1123470E+005  0.1043930E+01  0.7957747E-01            NaN
         13   -1    0    0    0    0  0.00000000000E+00  0.00000000000E+00  0.74505805969E-08  0.10566000000E+00  0.10566000000E+00 0.  1.
     999900   -1    0    0    0    0 -0.00000000000E+00 -0.00000000000E+00 -0.74505805969E-08  0.93827000000E+00  0.93827000000E+00 0.  1.
     999902    2    1    2    0    0  0.65197228629E-02  0.22515161962E-01  0.52404413076E-02  0.10199112255E+01  0.10196283668E+01 0.  0.
     999903    2    3    3    0    0 -0.11119613874E+00  0.74383009442E-02 -0.62326086820E-01  0.12937791811E+00  0.20837346400E-01 0.  0.
         14    1    1    2    0    0 -0.65197228629E-02 -0.22515161962E-01 -0.52404413076E-02  0.24018774521E-01  0.00000000000E+00 0. -1.
     999901    1    3    3    0    0  0.11771586160E+00  0.15076861018E-01  0.67566528128E-01  0.89053330737E+00  0.88000000000E+00 0. -1.
        -11    1    4    4    0    0 -0.73835396037E-01  0.54488005735E-02 -0.29836614465E-01  0.79823804842E-01  0.51100000000E-03 0.  1.
         11    1    4    4    0    0 -0.37360742700E-01  0.19895003707E-02 -0.32489472356E-01  0.49554113268E-01  0.51100000000E-03 0. -1.
</event>
<event>
 8    1  0.1123470E+005  0.1043930E+01  0.7957747E-01            NaN
         13   -1    0    0    0    0  0.00000000000E+00  0.00000000000E+00  0.74505805969E-08  0.10566000000E+00  0.10566000000E+00 0.  1.
     999900   -1    0    0    0    0 -0.00000000000E+00 -0.00000000000E+00 -0.74505805969E-08  0.93827000000E+00  0.93827000000E+00 0. -1.
     999902    2    1    2    0    0 -0.24448226116E-02 -0.19113230616E-01  0.13534880645E-01  0.10203824792E+01  0.10201107382E+01 0.  0.
     999903    2    3    3    0    0  0.65028258078E-01 -0.99175712727E-01 -0.53475035360E-01  0.13164576536E+00  0.20162633460E-01 0.  0.
         14    1    1    2    0    0  0.24448226116E-02  0.19113230616E-01 -0.13534880645E-01  0.23547520809E-01  0.00000000000E+00 0.  1.
     999901    1    3    3    0    0 -0.67473080690E-01  0.80062482111E-01  0.67009916005E-01  0.88873671383E+00  0.88000000000E+00 0.  1.
        -11    1    4    4    0    0  0.14780935024E-01 -0.37926064439E-01 -0.23042831330E-01  0.46777084141E-01  0.51100000000E-03 0.  1.
         11    1    4    4    0    0  0.50247323054E-01 -0.61249648289E-01 -0.30432204029E-01  0.84868681224E-01  0.51100000000E-03 0. -1.
</event>
<event>
 8    1  0.1123470E+005  0.1043930E+01  0.7957747E-01            NaN
         13   -1    0    0    0    0  0.00000000000E+00  0.00000000000E+00  0.74505805969E-08  0.10566000000E+00  0.10566000000E+00 0. -1.
     999900   -1    0    0    0    0 -0.00000000000E+00 -0.00000000000E+00 -0.74505805969E-08  0.93827000000E+00  0.93827000000E+00 0. -1.
     999902    2    1    2    0    0  0.11729380857E-01  0.17510674507E-01 -0.12733703998E-01  0.10193058388E+01  0.10190083629E+01 0.  0.
     999903    2    3    3    0    0  0.47691725961E-01 -0.14781172337E-01  0.11667586631E+00  0.12852927281E+00  0.20335496290E-01 0.  0.
         14    1    1    2    0    0 -0.11729380857E-01 -0.17510674507E-01  0.12733703998E-01  0.24624161194E-01  0.00000000000E+00 0. -1.
     999901    1    3    3    0    0 -0.35962345104E-01  0.32291846844E-01 -0.12940957031E+00  0.89077656599E+00  0.88000000000E+00 0. -1.
        -11    1    4    4    0    0  0.10308627040E-01 -0.10910971791E-01  0.21739212417E-01  0.26422936521E-01  0.51100000000E-03 0.  1.
         11    1    4    4    0    0  0.37383098921E-01 -0.38702005461E-02  0.94936653894E-01  0.10210633629E+00  0.51100000000E-03 0. -1.
</event>
<event>
 8    1  0.1123470E+005  0.1043930E+01  0.7957747E-01            NaN
         13   -1    0    0    0    0  0.00000000000E+00  0.00000000000E+00  0.74505805969E-08  0.10566000000E+00  0.10566000000E+00 0. -1.
     999900   -1    0    0    0    0 -0.00000000000E+00 -0.00000000000E+00 -0.74505805969E-08  0.93827000000E+00  0.93827000000E+00 0. -1.
     999902    2    1    2    0    0  0.20796301441E-02  0.13565825540E-01  0.11183598207E-01  0.10262260639E+01  0.10260733428E+01 0.  0.
     999903    2    3    3    0    0  0.19841324810E-01  0.77527760113E-01  0.11084532042E+00  0.13811623639E+00  0.19625950620E-01 0.  0.
         14    1    1    2    0    0 -0.20796301441E-02 -0.13565825540E-01 -0.11183598207E-01  0.17703936087E-01  0.00000000000E+00 0. -1.
     999901    1    3    3    0    0 -0.17761694666E-01 -0.63961934572E-01 -0.99661722208E-01  0.88810982752E+00  0.88000000000E+00 0. -1.
        -11    1    4    4    0    0 -0.27669084094E-02  0.21457482043E-01  0.34582352873E-01  0.40795582714E-01  0.51100000000E-03 0.  1.
         11    1    4    4    0    0  0.22608233220E-01  0.56070278070E-01  0.76262967542E-01  0.97320653674E-01  0.51100000000E-03 0. -1.
</event>
<event>
 8    1  0.1123470E+005  0.1043930E+01  0.7957747E-01            NaN
         13   -1    0    0    0    0  0.00000000000E+00  0.00000000000E+00  0.74505805969E-08  0.10566000000E+00  0.10566000000E+00 0. -1.
     999900   -1    0    0    0    0 -0.00000000000E+00 -0.00000000000E+00 -0.74505805969E-08  0.93827000000E+00  0.93827000000E+00 0.  1.
     999902    2    1    2    0    0 -0.15128248481E-02  0.22977137961E-01 -0.54257382003E-02  0.10202725246E+01  0.10199982099E+01 0.  0.
     999903    2    3    3    0    0 -0.61824025439E-01 -0.98166353928E-01 -0.51985449060E-01  0.12871153777E+00  0.20132805950E-01 0.  0.
         14    1    1    2    0    0  0.15128248481E-02 -0.22977137961E-01  0.54257382003E-02  0.23657475413E-01  0.00000000000E+00 0. -1.
     999901    1    3    3    0    0  0.60311200591E-01  0.12114349189E+00  0.46559710860E-01  0.89156098682E+00  0.88000000000E+00 0. -1.
        -11    1    4    4    0    0 -0.27073593888E-01 -0.29160743680E-01 -0.11181533481E-01  0.41335411816E-01  0.51100000000E-03 0. -1.
         11    1    4    4    0    0 -0.34750431550E-01 -0.69005610248E-01 -0.40803915579E-01  0.87376125951E-01  0.51100000000E-03 0.  1.
</event>
<event>
 8    1  0.1123470E+005  0.1043930E+01  0.7957747E-01            NaN
         13   -1    0    0    0    0  0.00000000000E+00  0.00000000000E+00  0.74505805969E-08  0.10566000000E+00  0.10566000000E+00 0. -1.
     999900   -1    0    0    0    0 -0.00000000000E+00 -0.00000000000E+00 -0.74505805969E-08  0.93827000000E+00  0.93827000000E+00 0. -1.
     999902    2    1    2    0    0 -0.10341326606E-01  0.19956797287E-01 -0.54541772187E-03  0.10214463554E+01  0.10211988752E+01 0.  0.
     999903    2    3    3    0    0 -0.87210913075E-01 -0.90921343308E-01  0.27037049224E-01  0.13073670132E+00  0.22105406895E-01 0.  0.
         14    1    1    2    0    0  0.10341326606E-01 -0.19956797287E-01  0.54541772187E-03  0.22483644598E-01  0.00000000000E+00 0. -1.
     999901    1    3    3    0    0  0.76869586468E-01  0.11087814059E+00 -0.27582466946E-01  0.89070965408E+00  0.88000000000E+00 0. -1.
        -11    1    4    4    0    0 -0.46146255000E-01 -0.56524325582E-01  0.24977804516E-01  0.77127349705E-01  0.51100000000E-03 0.  1.
         11    1    4    4    0    0 -0.41064658075E-01 -0.34397017726E-01  0.20592447081E-02  0.53609351619E-01  0.51100000000E-03 0. -1.
</event>
<event>
 8    1  0.1123470E+005  0.1043930E+01  0.7957747E-01            NaN
         13   -1    0    0    0    0  0.00000000000E+00  0.00000000000E+00  0.74505805969E-08  0.10566000000E+00  0.10566000000E+00 0. -1.
     999900   -1    0    0    0    0 -0.00000000000E+00 -0.00000000000E+00 -0.74505805969E-08  0.93827000000E+00  0.93827000000E+00 0. -1.
     999902    2    1    2    0    0 -0.20228699525E-01 -0.86214350792E-02  0.88785212646E-02  0.10202159205E+01  0.10199402761E+01 0.  0.
     999903    2    3    3    0    0 -0.42233866597E-01 -0.10368810328E+00  0.68424230038E-01  0.13282221406E+00  0.20614146640E-01 0.  0.
         14    1    1    2    0    0  0.20228699525E-01  0.86214350792E-02 -0.88785212646E-02  0.23714079513E-01  0.00000000000E+00 0. -1.
     999901    1    3    3    0    0  0.22005167071E-01  0.95066668197E-01 -0.59545708773E-01  0.88739370643E+00  0.88000000000E+00 0.  1.
        -11    1    4    4    0    0 -0.22356536046E-01 -0.34383134251E-01  0.17731486743E-01  0.44684240712E-01  0.51100000000E-03 0. -1.
         11    1    4    4    0    0 -0.19877330551E-01 -0.69304969025E-01  0.50692743294E-01  0.88137973344E-01  0.51100000000E-03 0.  1.
</event>
<event>
 8    1  0.1123470E+005  0.1043930E+01  0.7957747E-01            NaN
         13   -1    0    0    0    0  0.00000000000E+00  0.00000000000E+00  0.74505805969E-08  0.10566000000E+00  0.10566000000E+00 0. -1.
     999900   -1    0    0    0    0 -0.00000000000E+00 -0.00000000000E+00 -0.74505805969E-08  0.93827000000E+00  0.93827000000E+00 0.  1.
     999902    2    1    2    0    0 -0.12978142903E-01 -0.19366322565E-01 -0.60195026836E-02  0.10198526028E+01  0.10195683451E+01 0.  0.
     999903    2    3    3    0    0  0.75301007095E-01  0.87307577586E-01  0.50380779801E-01  0.12724209359E+00  0.18959763591E-01 0.  0.
         14    1    1    2    0    0  0.12978142903E-01  0.19366322565E-01  0.60195026836E-02  0.24077397190E-01  0.00000000000E+00 0. -1.
     999901    1    3    3    0    0 -0.88279149998E-01 -0.10667390015E+00 -0.56400282485E-01  0.89261050922E+00  0.88000000000E+00 0. -1.
        -11    1    4    4    0    0  0.16401576694E-01  0.27996247652E-01  0.75479313889E-02  0.33317172598E-01  0.51100000000E-03 0. -1.
         11    1    4    4    0    0  0.58899430402E-01  0.59311329933E-01  0.42832848412E-01  0.93924920996E-01  0.51100000000E-03 0.  1.
</event>
<event>
 8    1  0.1123470E+005  0.1043930E+01  0.7957747E-01            NaN
         13   -1    0    0    0    0  0.00000000000E+00  0.00000000000E+00  0.74505805969E-08  0.10566000000E+00  0.10566000000E+00 0.  1.
     999900   -1    0    0    0    0 -0.00000000000E+00 -0.00000000000E+00 -0.74505805969E-08  0.93827000000E+00  0.93827000000E+00 0.  1.
     999902    2    1    2    0    0  0.19164421362E-01  0.64800689438E-02 -0.74799918892E-02  0.10223611192E+01  0.10221335732E+01 0.  0.
     999903    2    3    3    0    0  0.83342702110E-01  0.78015190298E-02  0.10172009919E+00  0.13329123566E+00  0.20315147807E-01 0.  0.
         14    1    1    2    0    0 -0.19164421362E-01 -0.64800689438E-02  0.74799918892E-02  0.21568880785E-01  0.00000000000E+00 0. -1.
     999901    1    3    3    0    0 -0.64178280747E-01 -0.13214500860E-02 -0.10920009108E+00  0.88906988355E+00  0.88000000000E+00 0.  1.
        -11    1    4    4    0    0  0.28305294512E-01 -0.29508223907E-02  0.46941368633E-01  0.54896723584E-01  0.51100000000E-03 0. -1.
         11    1    4    4    0    0  0.55037407598E-01  0.10752341421E-01  0.54778730559E-01  0.78394512077E-01  0.51100000000E-03 0.  1.
</event>
<event>
 8    1  0.1123470E+005  0.1043930E+01  0.7957747E-01            NaN
         13   -1    0    0    0    0  0.00000000000E+00  0.00000000000E+00  0.74505805969E-08  0.10566000000E+00  0.10566000000E+00 0.  1.
     999900   -1    0    0    0    0 -0.00000000000E+00 -0.00000000000E+00 -0.74505805969E-08  0.93827000000E+00  0.93827000000E+00 0. -1.
     999902    2    1    2    0    0 -0.13661876308E-01  0.30465912433E-03  0.20566727392E-01  0.10192372894E+01  0.10189381346E+01 0.  0.
     999903    2    3    3    0    0  0.68924864751E-01  0.44035039942E-01  0.99712395304E-01  0.13075715301E+00  0.21567326249E-01 0.  0.
         14    1    1    2    0    0  0.13661876308E-01 -0.30465912433E-03 -0.20566727392E-01  0.24692710606E-01  0.00000000000E+00 0. -1.
     999901    1    3    3    0    0 -0.82586741059E-01 -0.43730380818E-01 -0.79145667912E-01  0.88848013639E+00  0.88000000000E+00 0. -1.
        -11    1    4    4    0    0  0.46985838970E-01  0.28925066452E-01  0.81731893312E-01  0.98613853176E-01  0.51100000000E-03 0.  1.
         11    1    4    4    0    0  0.21939025781E-01  0.15109973490E-01  0.17980501992E-01  0.32143299830E-01  0.51100000000E-03 0. -1.
</event>
<event>
 8    1  0.1123470E+005  0.1043930E+01  0.7957747E-01            NaN
         13   -1    0    0    0    0  0.00000000000E+00  0.00000000000E+00  0.74505805969E-08  0.10566000000E+00  0.10566000000E+00 0. -1.
     999900   -1    0    0    0    0 -0.00000000000E+00 -0.00000000000E+00 -0.74505805969E-08  0.93827000000E+00  0.93827000000E+00 0. -1.
     999902    2    1    2    0    0 -0.21832646658E-01  0.31604279580E-02  0.10580118562E-01  0.10194638668E+01  0.10191702429E+01 0.  0.
     999903    2    3    3    0    0  0.15501942113E-01  0.10795233894E+00 -0.66303886099E-01  0.12913450847E+00  0.19634109993E-01 0.  0.
         14    1    1    2    0    0  0.21832646658E-01 -0.31604279580E-02 -0.10580118562E-01  0.24466133200E-01  0.00000000000E+00 0. -1.
     999901    1    3    3    0    0 -0.37334588772E-01 -0.10479191098E+00  0.76884004660E-01  0.89032935833E+00  0.88000000000E+00 0.  1.
        -11    1    4    4    0    0  0.15966581822E-01  0.47483719207E-01 -0.34297341685E-01  0.60714117736E-01  0.51100000000E-03 0. -1.
         11    1    4    4    0    0 -0.46463970864E-03  0.60468619732E-01 -0.32006544413E-01  0.68420390737E-01  0.51100000000E-03 0.  1.
</event>
<event>
 8    1  0.1123470E+005  0.1043930E+01  0.7957747E-01            NaN
         13   -1    0    0    0    0  0.00000000000E+00  0.00000000000E+00  0.74505805969E-08  0.10566000000E+00  0.10566000000E+00 0. -1.
     999900   -1    0    0    0    0 -0.00000000000E+00 -0.00000000000E+00 -0.74505805969E-08  0.93827000000E+00  0.93827000000E+00 0. -1.
     999902    2    1    2    0    0 -0.12292349773E-01 -0.89805998525E-02  0.20443384203E-01  0.10184410810E+01  0.10181220705E+01 0.  0.
     999903    2    3    3    0    0 -0.11090887980E+00 -0.66524112294E-01  0.40161318636E-02  0.13091286707E+00  0.19895032398E-01 0.  0.
         14    1    1    2    0    0  0.12292349773E-01  0.89805998525E-02 -0.20443384203E-01  0.25488919050E-01  0.00000000000E+00 0.  1.
     999901    1    3    3    0    0  0.98616530025E-01  0.57543512442E-01  0.16427252340E-01  0.88752821388E+00  0.88000000000E+00 0.  1.
        -11    1    4    4    0    0 -0.88723868052E-01 -0.45836024433E-01  0.85775810730E-02  0.10023323758E+00  0.51100000000E-03 0. -1.
         11    1    4    4    0    0 -0.22185011746E-01 -0.20688087862E-01 -0.45614492094E-02  0.30679629487E-01  0.51100000000E-03 0.  1.
</event>
<event>
 8    1  0.1123470E+005  0.1043930E+01  0.7957747E-01            NaN
         13   -1    0    0    0    0  0.00000000000E+00  0.00000000000E+00  0.74505805969E-08  0.10566000000E+00  0.10566000000E+00 0.  1.
     999900   -1    0    0    0    0 -0.00000000000E+00 -0.00000000000E+00 -0.74505805969E-08  0.93827000000E+00  0.93827000000E+00 0. -1.
     999902    2    1    2    0    0 -0.89007455599E-02 -0.95196579812E-02  0.19509883592E-01  0.10204676319E+01  0.10201978754E+01 0.  0.
     999903    2    3    3    0    0 -0.97462418870E-01  0.84347937544E-01 -0.73754538104E-02  0.13064904541E+00  0.20031926733E-01 0.  0.
         14    1    1    2    0    0  0.89007455599E-02  0.95196579812E-02 -0.19509883592E-01  0.23462368111E-01  0.00000000000E+00 0. -1.
     999901    1    3    3    0    0  0.88561673310E-01 -0.93867595526E-01  0.26885337403E-01  0.88981858648E+00  0.88000000000E+00 0.  1.
        -11    1    4    4    0    0 -0.37388849101E-01  0.42824597525E-01  0.27650138836E-02  0.56919053164E-01  0.51100000000E-03 0. -1.
         11    1    4    4    0    0 -0.60073569769E-01  0.41523340019E-01 -0.10140467694E-01  0.73729992250E-01  0.51100000000E-03 0.  1.
</event>
<event>
 8    1  0.1123470E+005  0.1043930E+01  0.7957747E-01            NaN
         13   -1    0    0    0    0  0.00000000000E+00  0.00000000000E+00  0.74505805969E-08  0.10566000000E+00  0.10566000000E+00 0. -1.
     999900   -1    0    0    0    0 -0.00000000000E+00 -0.00000000000E+00 -0.74505805969E-08  0.93827000000E+00  0.93827000000E+00 0.  1.
     999902    2    1    2    0    0  0.13664051804E-02 -0.12659834299E-01 -0.19559383539E-01  0.10205910208E+01  0.10203241268E+01 0.  0.
     999903    2    3    3    0    0 -0.30543458121E-01 -0.10861337918E+00 -0.68317117865E-01  0.13345932884E+00  0.20356691523E-01 0.  0.
         14    1    1    2    0    0 -0.13664051804E-02  0.12659834299E-01  0.19559383539E-01  0.23338979242E-01  0.00000000000E+00 0. -1.
     999901    1    3    3    0    0  0.31909863302E-01  0.95953544881E-01  0.48757734326E-01  0.88713169192E+00  0.88000000000E+00 0. -1.
        -11    1    4    4    0    0 -0.21608289040E-01 -0.41239259723E-01 -0.24766490715E-01  0.52737414433E-01  0.51100000000E-03 0. -1.
         11    1    4    4    0    0 -0.89351690807E-02 -0.67374119458E-01 -0.43550627149E-01  0.80721914406E-01  0.51100000000E-03 0.  1.
</event>
<event>
 8    1  0.1123470E+005  0.1043930E+01  0.7957747E-01            NaN
         13   -1    0    0    0    0  0.00000000000E+00  0.00000000000E+00  0.74505805969E-08  0.10566000000E+00  0.10566000000E+00 0.  1.
     999900   -1    0    0    0    0 -0.00000000000E+00 -0.00000000000E+00 -0.74505805969E-08  0.93827000000E+00  0.93827000000E+00 0.  1.
     999902    2    1    2    0    0 -0.58370859017E-02  0.18536644035E-01  0.12762872720E-01  0.10206798459E+01  0.10204150029E+01 0.  0.
     999903    2    3    3    0    0  0.18572058527E-01  0.64378285711E-01  0.11350720768E+00  0.13341061765E+00  0.20616053877E-01 0.  0.
         14    1    1    2    0    0  0.58370859017E-02 -0.18536644035E-01 -0.12762872720E-01  0.23250154063E-01  0.00000000000E+00 0.  1.
     999901    1    3    3    0    0 -0.24409144429E-01 -0.45841641676E-01 -0.10074433496E+00  0.88726922829E+00  0.88000000000E+00 0.  1.
        -11    1    4    4    0    0  0.80758327585E-02  0.45758713502E-02  0.17455784534E-01  0.19776835137E-01  0.51100000000E-03 0.  1.
         11    1    4    4    0    0  0.10496225768E-01  0.59802414360E-01  0.96051423143E-01  0.11363378251E+00  0.51100000000E-03 0. -1.
</event>
<event>
 8    1  0.1123470E+005  0.1043930E+01  0.7957747E-01            NaN
         13   -1    0    0    0    0  0.00000000000E+00  0.00000000000E+00  0.74505805969E-08  0.10566000000E+00  0.10566000000E+00 0. -1.
     999900   -1    0    0    0    0 -0.00000000000E+00 -0.00000000000E+00 -0.74505805969E-08  0.93827000000E+00  0.93827000000E+00 0. -1.
     999902    2    1    2    0    0  0.20418818217E-01  0.11191208617E-01  0.40675849800E-02  0.10202928146E+01  0.10200189758E+01 0.  0.
     999903    2    3    3    0    0  0.68386462833E-01 -0.10939758779E+00  0.62823001970E-02  0.13077189985E+00  0.20427481057E-01 0.  0.
         14    1    1    2    0    0 -0.20418818217E-01 -0.11191208617E-01 -0.40675849800E-02  0.23637185434E-01  0.00000000000E+00 0.  1.
     999901    1    3    3    0    0 -0.47967644615E-01  0.12058879641E+00 -0.22147152169E-02  0.88952091471E+00  0.88000000000E+00 0. -1.
        -11    1    4    4    0    0  0.20971274908E-01 -0.50393188665E-01  0.72820902837E-02  0.55068664365E-01  0.51100000000E-03 0. -1.
         11    1    4    4    0    0  0.47415187925E-01 -0.59004399125E-01 -0.99979008670E-03  0.75703235487E-01  0.51100000000E-03 0.  1.
</event>
<event>
 8    1  0.1123470E+005  0.1043930E+01  0.7957747E-01            NaN
         13   -1    0    0    0    0  0.00000000000E+00  0.00000000000E+00  0.74505805969E-08  0.10566000000E+00  0.10566000000E+00 0. -1.
     999900   -1    0    0    0    0 -0.00000000000E+00 -0.00000000000E+00 -0.74505805969E-08  0.93827000000E+00  0.93827000000E+00 0.  1.
     999902    2    1    2    0    0 -0.24582917279E-02 -0.22706035576E-01 -0.57274814158E-02  0.10203840599E+01  0.10201123558E+01 0.  0.
     999903    2    3    3    0    0 -0.10499203466E+00  0.66968784422E-01 -0.29666775181E-01  0.12958226854E+00  0.20082363930E-01 0.  0.
         14    1    1    2    0    0  0.24582917279E-02  0.22706035576E-01  0.57274814158E-02  0.23545940057E-01  0.00000000000E+00 0. -1.
     999901    1    3    3    0    0  0.10253374293E+00 -0.89674819998E-01  0.23939293765E-01  0.89080179140E+00  0.88000000000E+00 0. -1.
        -11    1    4    4    0    0 -0.55371243838E-01  0.32944154229E-01 -0.25417221759E-01  0.69264624628E-01  0.51100000000E-03 0.  1.
         11    1    4    4    0    0 -0.49620790823E-01  0.34024630193E-01 -0.42495534224E-02  0.60317643911E-01  0.51100000000E-03 0. -1.
</event>
<event>
 8    1  0.1123470E+005  0.1043930E+01  0.7957747E-01            NaN
         13   -1    0    0    0    0  0.00000000000E+00  0.00000000000E+00  0.74505805969E-08  0.10566000000E+00  0.10566000000E+00 0.  1.
     999900   -1    0    0    0    0 -0.00000000000E+00 -0.00000000000E+00 -0.74505805969E-08  0.93827000000E+00  0.93827000000E+00 0.  1.
     999902    2    1    2    0    0  0.57366674773E-02 -0.14938544306E-01 -0.17381338489E-01  0.10203041585E+01  0.10200305855E+01 0.  0.
     999903    2    3    3    0    0 -0.42890877685E-01 -0.24715102539E-01  0.11738259033E+00  0.12866435691E+00  0.18038307721E-01 0.  0.
         14    1    1    2    0    0 -0.57366674773E-02  0.14938544306E-01  0.17381338489E-01  0.23625841517E-01  0.00000000000E+00 0.  1.
     999901    1    3    3    0    0  0.48627545162E-01  0.97765582334E-02 -0.13476392881E+00  0.89163980157E+00  0.88000000000E+00 0.  1.
        -11    1    4    4    0    0 -0.21458798010E-01 -0.13168436395E-01  0.37641384660E-01  0.45288217995E-01  0.51100000000E-03 0. -1.
         11    1    4    4    0    0 -0.21432079675E-01 -0.11546666144E-01  0.79741205666E-01  0.83376138914E-01  0.51100000000E-03 0.  1.
</event>
<event>
 8    1  0.1123470E+005  0.1043930E+01  0.7957747E-01            NaN
         13   -1    0    0    0    0  0.00000000000E+00  0.00000000000E+00  0.74505805969E-08  0.10566000000E+00  0.10566000000E+00 0.  1.
     999900   -1    0    0    0    0 -0.00000000000E+00 -0.00000000000E+00 -0.74505805969E-08  0.93827000000E+00  0.93827000000E+00 0.  1.
     999902    2    1    2    0    0  0.12195560916E-01  0.22671754970E-01 -0.30134349432E-02  0.10180104906E+01  0.10176804695E+01 0.  0.
     999903    2    3    3    0    0  0.19592902778E-03 -0.10027431398E+00 -0.74367763867E-01  0.12652231493E+00  0.20551288058E-01 0.  0.
         14    1    1    2    0    0 -0.12195560916E-01 -0.22671754970E-01  0.30134349432E-02  0.25919509440E-01  0.00000000000E+00 0.  1.
     999901    1    3    3    0    0  0.11999631888E-01  0.12294606895E+00  0.71354328924E-01  0.89148817563E+00  0.88000000000E+00 0.  1.
        -11    1    4    4    0    0  0.94522469496E-02 -0.66320319705E-01 -0.45255298060E-01  0.80845735210E-01  0.51100000000E-03 0.  1.
         11    1    4    4    0    0 -0.92563179218E-02 -0.33953994270E-01 -0.29112465808E-01  0.45676579718E-01  0.51100000000E-03 0. -1.
</event>
<event>
 8    1  0.1123470E+005  0.1043930E+01  0.7957747E-01            NaN
         13   -1    0    0    0    0  0.00000000000E+00  0.00000000000E+00  0.74505805969E-08  0.10566000000E+00  0.10566000000E+00 0.  1.
     999900   -1    0    0    0    0 -0.00000000000E+00 -0.00000000000E+00 -0.74505805969E-08  0.93827000000E+00  0.93827000000E+00 0. -1.
     999902    2    1    2    0    0 -0.16757379516E-01  0.86800954473E-02  0.21700874731E-01  0.10151709703E+01  0.10147635277E+01 0.  0.
     999903    2    3    3    0    0  0.10919946016E-01 -0.63867063708E-01 -0.10248668643E+00  0.12306577751E+00  0.21057484480E-01 0.  0.
         14    1    1    2    0    0  0.16757379516E-01 -0.86800954473E-02 -0.21700874731E-01  0.28759029700E-01  0.00000000000E+00 0. -1.
     999901    1    3    3    0    0 -0.27677325532E-01  0.72547159155E-01  0.12418756116E+00  0.89210519279E+00  0.88000000000E+00 0.  1.
        -11    1    4    4    0    0  0.57561561008E-02 -0.23479112813E-02 -0.11996962210E-01  0.13521621342E-01  0.51100000000E-03 0.  1.
         11    1    4    4    0    0  0.51637899151E-02 -0.61519152427E-01 -0.90489724216E-01  0.10954415617E+00  0.51100000000E-03 0. -1.
</event>
<event>
 8    1  0.1123470E+005  0.1043930E+01  0.7957747E-01            NaN
         13   -1    0    0    0    0  0.00000000000E+00  0.00000000000E+00  0.74505805969E-08  0.10566000000E+00  0.10566000000E+00 0. -1.
     999900   -1    0    0    0    0 -0.00000000000E+00 -0.00000000000E+00 -0.74505805969E-08  0.93827000000E+00  0.93827000000E+00 0. -1.
     999902    2    1    2    0    0 -0.19125870475E-01  0.12714090402E-01 -0.22254776959E-02  0.10208562104E+01  0.10205954157E+01 0.  0.
     999903    2    3    3    0    0  0.35498014512E-01  0.78342616668E-01 -0.97747310303E-01  0.13157824891E+00  0.18990110394E-01 0.  0.
         14    1    1    2    0    0  0.19125870475E-01 -0.12714090402E-01  0.22254776959E-02  0.23073789614E-01  0.00000000000E+00 0.  1.
     999901    1    3    3    0    0 -0.54623884987E-01 -0.65628526266E-01  0.95521832607E-01  0.88927796148E+00  0.88000000000E+00 0.  1.
        -11    1    4    4    0    0  0.13810202846E-01  0.26447542474E-01 -0.21274910646E-01  0.36648016994E-01  0.51100000000E-03 0. -1.
         11    1    4    4    0    0  0.21687811665E-01  0.51895074194E-01 -0.76472399657E-01  0.94930231911E-01  0.51100000000E-03 0.  1.
</event>
<event>
 8    1  0.1123470E+005  0.1043930E+01  0.7957747E-01            NaN
         13   -1    0    0    0    0  0.00000000000E+00  0.00000000000E+00  0.74505805969E-08  0.10566000000E+00  0.10566000000E+00 0.  1.
     999900   -1    0    0    0    0 -0.00000000000E+00 -0.00000000000E+00 -0.74505805969E-08  0.93827000000E+00  0.93827000000E+00 0.  1.
     999902    2    1    2    0    0 -0.31213582234E-02 -0.20455973022E-01  0.11571961929E-01  0.10202213515E+01  0.10199458349E+01 0.  0.
     999903    2    3    3    0    0 -0.73673522342E-01  0.10358587967E+00  0.56295537630E-02  0.12870617987E+00  0.19384697605E-01 0.  0.
         14    1    1    2    0    0  0.31213582234E-02  0.20455973022E-01 -0.11571961929E-01  0.23708648471E-01  0.00000000000E+00 0. -1.
     999901    1    3    3    0    0  0.70552164119E-01 -0.12404185269E+00  0.59424081657E-02  0.89151517166E+00  0.88000000000E+00 0. -1.
        -11    1    4    4    0    0 -0.24841403482E-01  0.51521921290E-01  0.25695122677E-02  0.57257900893E-01  0.51100000000E-03 0. -1.
         11    1    4    4    0    0 -0.48832118860E-01  0.52063958376E-01  0.30600414953E-02  0.71448278979E-01  0.51100000000E-03 0.  1.
</event>
<event>
 8    1  0.1123470E+005  0.1043930E+01  0.7957747E-01            NaN
         13   -1    0    0    0    0  0.00000000000E+00  0.00000000000E+00  0.74505805969E-08  0.10566000000E+00  0.10566000000E+00 0. -1.
     999900   -1    0    0    0    0 -0.00000000000E+00 -0.00000000000E+00 -0.74505805969E-08  0.93827000000E+00  0.93827000000E+00 0.  1.
     999902    2    1    2    0    0  0.23476193424E-01  0.36929368065E-02  0.42248274367E-02  0.10197925062E+01  0.10195068107E+01 0.  0.
     999903    2    3    3    0    0  0.69226136286E-01 -0.17752992921E-01 -0.10807633050E+00  0.13121806630E+00  0.20742733799E-01 0.  0.
         14    1    1    2    0    0 -0.23476193424E-01 -0.36929368065E-02 -0.42248274367E-02  0.24137493797E-01  0.00000000000E+00 0.  1.
     999901    1    3    3    0    0 -0.45749942862E-01  0.21445929727E-01  0.11230115794E+00  0.88857443990E+00  0.88000000000E+00 0. -1.
        -11    1    4    4    0    0  0.26646805885E-01 -0.17110160349E-01 -0.41913285836E-01  0.52533746312E-01  0.51100000000E-03 0.  1.
         11    1    4    4    0    0  0.42579330401E-01 -0.64283257169E-03 -0.66163044669E-01  0.78684319988E-01  0.51100000000E-03 0. -1.
</event>
<event>
 8    1  0.1123470E+005  0.1043930E+01  0.7957747E-01            NaN
         13   -1    0    0    0    0  0.00000000000E+00  0.00000000000E+00  0.74505805969E-08  0.10566000000E+00  0.10566000000E+00 0.  1.
     999900   -1    0    0    0    0 -0.00000000000E+00 -0.00000000000E+00 -0.74505805969E-08  0.93827000000E+00  0.93827000000E+00 0.  1.
     999902    2    1    2    0    0  0.42210631510E-02 -0.20014969966E-01 -0.13940624529E-01  0.10191760628E+01  0.10188754043E+01 0.  0.
     999903    2    3    3    0    0  0.34995368512E-01  0.12064326606E+00 -0.26370527396E-02  0.12740279114E+00  0.21096058388E-01 0.  0.
         14    1    1    2    0    0 -0.42210631510E-02  0.20014969966E-01  0.13940624529E-01  0.24753937244E-01  0.00000000000E+00 0.  1.
     999901    1    3    3    0    0 -0.30774305361E-01 -0.14065823603E+00 -0.11303571789E-01  0.89177327162E+00  0.88000000000E+00 0.  1.
        -11    1    4    4    0    0  0.17781349807E-01  0.84352786934E-01  0.56291956636E-02  0.86391654859E-01  0.51100000000E-03 0. -1.
         11    1    4    4    0    0  0.17214018705E-01  0.36290479129E-01 -0.82662484032E-02  0.41011136281E-01  0.51100000000E-03 0.  1.
</event>
<event>
 8    1  0.1123470E+005  0.1043930E+01  0.7957747E-01            NaN
         13   -1    0    0    0    0  0.00000000000E+00  0.00000000000E+00  0.74505805969E-08  0.10566000000E+00  0.10566000000E+00 0. -1.
     999900   -1    0    0    0    0 -0.00000000000E+00 -0.00000000000E+00 -0.74505805969E-08  0.93827000000E+00  0.93827000000E+00 0.  1.
     999902    2    1    2    0    0 -0.68042092526E-02  0.14040120037E-01 -0.19144433577E-01  0.10192332073E+01  0.10189339523E+01 0.  0.
     999903    2    3    3    0    0  0.16053688937E-01  0.94703295911E-01 -0.89112927382E-01  0.13248373781E+00  0.19605911704E-01 0.  0.
         14    1    1    2    0    0  0.68042092526E-02 -0.14040120037E-01  0.19144433577E-01  0.24696792731E-01  0.00000000000E+00 0. -1.
     999901    1    3    3    0    0 -0.22857898189E-01 -0.80663175874E-01  0.69968493805E-01  0.88674946945E+00  0.88000000000E+00 0. -1.
        -11    1    4    4    0    0 -0.37691770518E-02  0.17851995964E-01 -0.12143086775E-01  0.21922959038E-01  0.51100000000E-03 0. -1.
         11    1    4    4    0    0  0.19822865989E-01  0.76851299947E-01 -0.76969840608E-01  0.11056077878E+00  0.51100000000E-03 0.  1.
</event>
<event>
 8    1  0.1123470E+005  0.1043930E+01  0.7957747E-01            NaN
         13   -1    0    0    0    0  0.00000000000E+00  0.00000000000E+00  0.74505805969E-08  0.10566000000E+00  0.10566000000E+00 0. -1.
     999900   -1    0    0    0    0 -0.00000000000E+00 -0.00000000000E+00 -0.74505805969E-08  0.93827000000E+00  0.93827000000E+00 0. -1.
     999902    2    1    2    0    0 -0.55117094877E-02 -0.21643441444E-01  0.80512665331E-02  0.10201888882E+01  0.10199126076E+01 0.  0.
     999903    2    3    3    0    0  0.83239365651E-01 -0.51743535585E-01 -0.83813267946E-01  0.13045754572E+00  0.19705884486E-01 0.  0.
         14    1    1    2    0    0  0.55117094877E-02  0.21643441444E-01 -0.80512665331E-02  0.23741111848E-01  0.00000000000E+00 0. -1.
     999901    1    3    3    0    0 -0.88751075139E-01  0.30100094141E-01  0.91864534479E-01  0.88973134243E+00  0.88000000000E+00 0.  1.
        -11    1    4    4    0    0  0.42258929683E-01 -0.25768852293E-01 -0.55135739886E-01  0.74094951381E-01  0.51100000000E-03 0. -1.
         11    1    4    4    0    0  0.40980435968E-01 -0.25974683292E-01 -0.28677528061E-01  0.56362594342E-01  0.51100000000E-03 0.  1.
</event>
<event>
 8    1  0.1123470E+005  0.1043930E+01  0.7957747E-01            NaN
         13   -1    0    0    0    0  0.00000000000E+00  0.00000000000E+00  0.74505805969E-08  0.10566000000E+00  0.10566000000E+00 0.  1.
     999900   -1    0    0    0    0 -0.00000000000E+00 -0.00000000000E+00 -0.74505805969E-08  0.93827000000E+00  0.93827000000E+00 0. -1.
     999902    2    1    2    0    0 -0.14167475602E-01 -0.18275431871E-01 -0.34922796135E-02  0.10205440044E+01  0.10202760215E+01 0.  0.
     999903    2    3    3    0    0  0.11507927041E+00 -0.31971009019E-01  0.46014268374E-01  0.12962134303E+00  0.20469386385E-01 0.  0.
         14    1    1    2    0    0  0.14167475602E-01  0.18275431871E-01  0.34922796135E-02  0.23385995636E-01  0.00000000000E+00 0.  1.
     999901    1    3    3    0    0 -0.12924674601E+00  0.13695577148E-01 -0.49506547988E-01  0.89092266134E+00  0.88000000000E+00 0. -1.
        -11    1    4    4    0    0  0.69843071035E-01 -0.29586356701E-01  0.27550669830E-01  0.80701348213E-01  0.51100000000E-03 0.  1.
         11    1    4    4    0    0  0.45236199374E-01 -0.23846523179E-02  0.18463598544E-01  0.48919994814E-01  0.51100000000E-03 0. -1.
</event>
<event>
 8    1  0.1123470E+005  0.1043930E+01  0.7957747E-01            NaN
         13   -1    0    0    0    0  0.00000000000E+00  0.00000000000E+00  0.74505805969E-08  0.10566000000E+00  0.10566000000E+00 0.  1.
     999900   -1    0    0    0    0 -0.00000000000E+00 -0.00000000000E+00 -0.74505805969E-08  0.93827000000E+00  0.93827000000E+00 0.  1.
     999902    2    1    2    0    0 -0.16069856708E-01  0.22626910950E-02  0.51639401742E-02  0.10268998402E+01  0.10267586159E+01 0.  0.
     999903    2    3    3    0    0 -0.45772451624E-01 -0.36931017215E-02  0.12838621354E+00  0.13779835875E+00  0.19915107789E-01 0.  0.
         14    1    1    2    0    0  0.16069856708E-01 -0.22626910950E-02 -0.51639401742E-02  0.17030159826E-01  0.00000000000E+00 0.  1.
     999901    1    3    3    0    0  0.29702594916E-01  0.59557928165E-02 -0.12322227337E+00  0.88910148142E+00  0.88000000000E+00 0.  1.
        -11    1    4    4    0    0 -0.30957226658E-02  0.42697895691E-02  0.63565823809E-02  0.82753768707E-02  0.51100000000E-03 0.  1.
         11    1    4    4    0    0 -0.42676728958E-01 -0.79628912906E-02  0.12202963116E+00  0.12952298188E+00  0.51100000000E-03 0. -1.
</event>
<event>
 8    1  0.1123470E+005  0.1043930E+01  0.7957747E-01            NaN
         13   -1    0    0    0    0  0.00000000000E+00  0.00000000000E+00  0.74505805969E-08  0.10566000000E+00  0.10566000000E+00 0. -1.
     999900   -1    0    0    0    0 -0.00000000000E+00 -0.00000000000E+00 -0.74505805969E-08  0.93827000000E+00  0.93827000000E+00 0. -1.
     999902    2    1    2    0    0 -0.95293751567E-02 -0.77393969033E-02  0.20826092440E-01  0.10197549430E+01  0.10194683469E+01 0.  0.
     999903    2    3    3    0    0  0.48601511545E-01 -0.11188608107E+00  0.44140464298E-01  0.13140293407E+00  0.20922438483E-01 0.  0.
         14    1    1    2    0    0  0.95293751567E-02  0.77393969033E-02 -0.20826092440E-01  0.24175057014E-01  0.00000000000E+00 0.  1.
     999901    1    3    3    0    0 -0.58130886702E-01  0.10414668417E+00 -0.23314371858E-01  0.88835200892E+00  0.88000000000E+00 0.  1.
        -11    1    4    4    0    0  0.75665814155E-03 -0.21239729759E-01  0.70050539521E-02  0.22383711794E-01  0.51100000000E-03 0.  1.
         11    1    4    4    0    0  0.47844853404E-01 -0.90646351310E-01  0.37135410346E-01  0.10901922228E+00  0.51100000000E-03 0. -1.
</event>
<event>
 8    1  0.1123470E+005  0.1043930E+01  0.7957747E-01            NaN
         13   -1    0    0    0    0  0.00000000000E+00  0.00000000000E+00  0.74505805969E-08  0.10566000000E+00  0.10566000000E+00 0.  1.
     999900   -1    0    0    0    0 -0.00000000000E+00 -0.00000000000E+00 -0.74505805969E-08  0.93827000000E+00  0.93827000000E+00 0.  1.
     999902    2    1    2    0    0 -0.19603516707E-01  0.99273410424E-02 -0.64993828548E-02  0.10210151152E+01  0.10207579407E+01 0.  0.
     999903    2    3    3    0    0  0.10441587237E-01 -0.12715711187E+00  0.12773307917E-01  0.12968672897E+00  0.19430193829E-01 0.  0.
         14    1    1    2    0    0  0.19603516707E-01 -0.99273410424E-02  0.64993828548E-02  0.22914884790E-01  0.00000000000E+00 0.  1.
     999901    1    3    3    0    0 -0.30045103944E-01  0.13708445292E+00 -0.19272690772E-01  0.89132838624E+00  0.88000000000E+00 0.  1.
        -11    1    4    4    0    0  0.76725348122E-02 -0.60175531573E-01 -0.32705673122E-02  0.60752943320E-01  0.51100000000E-03 0. -1.
         11    1    4    4    0    0  0.27690524244E-02 -0.66981580301E-01  0.16043875229E-01  0.68933785652E-01  0.51100000000E-03 0.  1.
</event>
<event>
 8    1  0.1123470E+005  0.1043930E+01  0.7957747E-01            NaN
         13   -1    0    0    0    0  0.00000000000E+00  0.00000000000E+00  0.74505805969E-08  0.10566000000E+00  0.10566000000E+00 0.  1.
     999900   -1    0    0    0    0 -0.00000000000E+00 -0.00000000000E+00 -0.74505805969E-08  0.93827000000E+00  0.93827000000E+00 0.  1.
     999902    2    1    2    0    0  0.15624280962E-01  0.15748001382E-01 -0.73689800531E-02  0.10205543809E+01  0.10202866385E+01 0.  0.
     999903    2    3    3    0    0 -0.10944797831E+00  0.61781209014E-01 -0.27699250357E-01  0.13028731636E+00  0.20291835590E-01 0.  0.
         14    1    1    2    0    0 -0.15624280962E-01 -0.15748001382E-01  0.73689800531E-02  0.23375619139E-01  0.00000000000E+00 0.  1.
     999901    1    3    3    0    0  0.12507225927E+00 -0.46033207632E-01  0.20330270304E-01  0.89026706450E+00  0.88000000000E+00 0. -1.
        -11    1    4    4    0    0 -0.85064537348E-01  0.42799788023E-01 -0.13153419682E-01  0.96130489125E-01  0.51100000000E-03 0. -1.
         11    1    4    4    0    0 -0.24383440958E-01  0.18981420991E-01 -0.14545830675E-01  0.34156827236E-01  0.51100000000E-03 0.  1.
</event>
<event>
 8    1  0.1123470E+005  0.1043930E+01  0.7957747E-01            NaN
         13   -1    0    0    0    0  0.00000000000E+00  0.00000000000E+00  0.74505805969E-08  0.10566000000E+00  0.10566000000E+00 0. -1.
     999900   -1    0    0    0    0 -0.00000000000E+00 -0.00000000000E+00 -0.74505805969E-08  0.93827000000E+00  0.93827000000E+00 0. -1.
     999902    2    1    2    0    0 -0.18765740118E-01 -0.38134589503E-02  0.14565629036E-01  0.10198706355E+01  0.10195868085E+01 0.  0.
     999903    2    3    3    0    0 -0.11914961753E+00  0.12787980186E-01  0.54244895715E-01  0.13311983914E+00  0.20450405074E-01 0.  0.
         14    1    1    2    0    0  0.18765740118E-01  0.38134589503E-02 -0.14565629036E-01  0.24059364509E-01  0.00000000000E+00 0.  1.
     999901    1    3    3    0    0  0.10038387741E+00 -0.16601439136E-01 -0.39679266679E-01  0.88675079635E+00  0.88000000000E+00 0.  1.
        -11    1    4    4    0    0 -0.16803672217E-01  0.21533564199E-02  0.32901670640E-03  0.16951982682E-01  0.51100000000E-03 0. -1.
         11    1    4    4    0    0 -0.10234594531E+00  0.10634623766E-01  0.53915879009E-01  0.11616785646E+00  0.51100000000E-03 0.  1.
</event>
<event>
 8    1  0.1123470E+005  0.1043930E+01  0.7957747E-01            NaN
         13   -1    0    0    0    0  0.00000000000E+00  0.00000000000E+00  0.74505805969E-08  0.10566000000E+00  0.10566000000E+00 0. -1.
     999900   -1    0    0    0    0 -0.00000000000E+00 -0.00000000000E+00 -0.74505805969E-08  0.93827000000E+00  0.93827000000E+00 0.  1.
     999902    2    1    2    0    0 -0.48880167118E-02 -0.15748387463E-01  0.14359966885E-01  0.10220642033E+01  0.10218302808E+01 0.  0.
     999903    2    3    3    0    0 -0.11121771913E+00  0.56390752624E-01 -0.35970870270E-01  0.13130988573E+00  0.19977100750E-01 0.  0.
         14    1    1    2    0    0  0.48880167118E-02  0.15748387463E-01 -0.14359966885E-01  0.21865796669E-01  0.00000000000E+00 0.  1.
     999901    1    3    3    0    0  0.10632970241E+00 -0.72139140087E-01  0.50330837154E-01  0.89075431760E+00  0.88000000000E+00 0. -1.
        -11    1    4    4    0    0 -0.78930380290E-01  0.30451232638E-01 -0.28116788632E-01  0.89152102756E-01  0.51100000000E-03 0.  1.
         11    1    4    4    0    0 -0.32287338837E-01  0.25939519986E-01 -0.78540816380E-02  0.42157782978E-01  0.51100000000E-03 0. -1.
</event>
<event>
 8    1  0.1123470E+005  0.1043930E+01  0.7957747E-01            NaN
         13   -1    0    0    0    0  0.00000000000E+00  0.00000000000E+00  0.74505805969E-08  0.10566000000E+00  0.10566000000E+00 0. -1.
     999900   -1    0    0    0    0 -0.00000000000E+00 -0.00000000000E+00 -0.74505805969E-08  0.93827000000E+00  0.93827000000E+00 0.  1.
     999902    2    1    2    0    0 -0.61451522748E-02  0.14071694306E-01 -0.14502325418E-01  0.10228090881E+01  0.10225909924E+01 0.  0.
     999903    2    3    3    0    0 -0.12044531016E+00  0.55604105315E-01  0.45459270826E-02  0.13424153119E+00  0.20030825685E-01 0.  0.
         14    1    1    2    0    0  0.61451522748E-02 -0.14071694306E-01  0.14502325418E-01  0.21120911904E-01  0.00000000000E+00 0.  1.
     999901    1    3    3    0    0  0.11430015788E+00 -0.41532411009E-01 -0.19048252500E-01  0.88856755690E+00  0.88000000000E+00 0.  1.
        -11    1    4    4    0    0 -0.12628313259E-01  0.47084987184E-02 -0.55567082367E-02  0.14587062192E-01  0.51100000000E-03 0. -1.
         11    1    4    4    0    0 -0.10781699690E+00  0.50895606597E-01  0.10102635319E-01  0.11965446900E+00  0.51100000000E-03 0.  1.
</event>
<event>
 8    1  0.1123470E+005  0.1043930E+01  0.7957747E-01            NaN
         13   -1    0    0    0    0  0.00000000000E+00  0.00000000000E+00  0.74505805969E-08  0.10566000000E+00  0.10566000000E+00 0.  1.
     999900   -1    0    0    0    0 -0.00000000000E+00 -0.00000000000E+00 -0.74505805969E-08  0.93827000000E+00  0.93827000000E+00 0. -1.
     999902    2    1    2    0    0  0.16988436777E-01 -0.14505866584E-01  0.72586374400E-02  0.10204413864E+01  0.10201710191E+01 0.  0.
     999903    2    3    3    0    0  0.97442347608E-01  0.59320750948E-01  0.62926967875E-01  0.13194706218E+00  0.20886869854E-01 0.  0.
         14    1    1    2    0    0 -0.16988436777E-01  0.14505866584E-01 -0.72586374400E-02  0.23488613560E-01  0.00000000000E+00 0. -1.
     999901    1    3    3    0    0 -0.80453910832E-01 -0.73826617532E-01 -0.55668330435E-01  0.88849432426E+00  0.88000000000E+00 0.  1.
        -11    1    4    4    0    0  0.19455665159E-01  0.22344019174E-01  0.14716082390E-01  0.33084774467E-01  0.51100000000E-03 0.  1.
         11    1    4    4    0    0  0.77986682450E-01  0.36976731774E-01  0.48210885485E-01  0.98862287716E-01  0.51100000000E-03 0. -1.
</event>
<event>
 8    1  0.1123470E+005  0.1043930E+01  0.7957747E-01            NaN
         13   -1    0    0    0    0  0.00000000000E+00  0.00000000000E+00  0.74505805969E-08  0.10566000000E+00  0.10566000000E+00 0.  1.
     999900   -1    0    0    0    0 -0.00000000000E+00 -0.00000000000E+00 -0.74505805969E-08  0.93827000000E+00  0.93827000000E+00 0.  1.
     999902    2    1    2    0    0 -0.21271644012E-01 -0.65403887762E-02  0.85838382855E-02  0.10200774990E+01  0.10197985890E+01 0.  0.
     999903    2    3    3    0    0  0.77506436337E-01 -0.43823224772E-01 -0.90081707902E-01  0.12829164521E+00  0.20403662136E-01 0.  0.
         14    1    1    2    0    0  0.21271644012E-01  0.65403887762E-02 -0.85838382855E-02  0.23852501001E-01  0.00000000000E+00 0.  1.
     999901    1    3    3    0    0 -0.98778080349E-01  0.37282835996E-01  0.98665546187E-01  0.89178585379E+00  0.88000000000E+00 0. -1.
        -11    1    4    4    0    0  0.66016707126E-01 -0.44718124142E-01 -0.76954065874E-01  0.11081563798E+00  0.51100000000E-03 0.  1.
         11    1    4    4    0    0  0.11489729212E-01  0.89489937040E-03 -0.13127642028E-01  0.17476007223E-01  0.51100000000E-03 0. -1.
</event>
<event>
 8    1  0.1123470E+005  0.1043930E+01  0.7957747E-01            NaN
         13   -1    0    0    0    0  0.00000000000E+00  0.00000000000E+00  0.74505805969E-08  0.10566000000E+00  0.10566000000E+00 0. -1.
     999900   -1    0    0    0    0 -0.00000000000E+00 -0.00000000000E+00 -0.74505805969E-08  0.93827000000E+00  0.93827000000E+00 0.  1.
     999902    2    1    2    0    0  0.13342366546E-01 -0.10139612038E-01 -0.28931337652E-01  0.10104956946E+01  0.10099424222E+01 0.  0.
     999903    2    3    3    0    0 -0.61123507524E-01 -0.10364712237E+00  0.13319916054E-02  0.12189865998E+00  0.19460214659E-01 0.  0.
         14    1    1    2    0    0 -0.13342366546E-01  0.10139612038E-01  0.28931337652E-01  0.33434305372E-01  0.00000000000E+00 0. -1.
     999901    1    3    3    0    0  0.74465874070E-01  0.93507510336E-01 -0.30263329258E-01  0.88859703465E+00  0.88000000000E+00 0.  1.
        -11    1    4    4    0    0 -0.21194279034E-01 -0.48061488367E-01 -0.68277555718E-02  0.52971534761E-01  0.51100000000E-03 0.  1.
         11    1    4    4    0    0 -0.39929228490E-01 -0.55585634007E-01  0.81597471772E-02  0.68927125218E-01  0.51100000000E-03 0. -1.
</event>
<event>
 8    1  0.1123470E+005  0.1043930E+01  0.7957747E-01            NaN
         13   -1    0    0    0    0  0.00000000000E+00  0.00000000000E+00  0.74505805969E-08  0.10566000000E+00  0.10566000000E+00 0.  1.
     999900   -1    0    0    0    0 -0.00000000000E+00 -0.00000000000E+00 -0.74505805969E-08  0.93827000000E+00  0.93827000000E+00 0. -1.
     999902    2    1    2    0    0 -0.12358502973E-01  0.23720891609E-01  0.31386790078E-02  0.10169992629E+01  0.10166426295E+01 0.  0.
     999903    2    3    3    0    0 -0.33431505628E-01 -0.58816712829E-01  0.10509116243E+00  0.12702688330E+00  0.22684915307E-01 0.  0.
         14    1    1    2    0    0  0.12358502973E-01 -0.23720891609E-01 -0.31386790078E-02  0.26930737093E-01  0.00000000000E+00 0. -1.
     999901    1    3    3    0    0  0.21073002655E-01  0.82537604438E-01 -0.10195248343E+00  0.88997237961E+00  0.88000000000E+00 0. -1.
        -11    1    4    4    0    0 -0.84492927310E-02 -0.17210894664E-01  0.50296504017E-01  0.53829405348E-01  0.51100000000E-03 0. -1.
         11    1    4    4    0    0 -0.24982212897E-01 -0.41605818165E-01  0.54794658417E-01  0.73197477952E-01  0.51100000000E-03 0.  1.
</event>
<event>
 8    1  0.1123470E+005  0.1043930E+01  0.7957747E-01            NaN
         13   -1    0    0    0    0  0.00000000000E+00  0.00000000000E+00  0.74505805969E-08  0.10566000000E+00  0.10566000000E+00 0.  1.
     999900   -1    0    0    0    0 -0.00000000000E+00 -0.00000000000E+00 -0.74505805969E-08  0.93827000000E+00  0.93827000000E+00 0. -1.
     999902    2    1    2    0    0  0.19337706914E-01 -0.10035485441E-03  0.14289246029E-01  0.10198854677E+01  0.10196019948E+01 0.  0.
     999903    2    3    3    0    0 -0.64566927244E-01  0.96803306613E-01  0.53806942282E-01  0.12972146287E+00  0.19816725923E-01 0.  0.
         14    1    1    2    0    0 -0.19337706914E-01  0.10035485441E-03 -0.14289246029E-01  0.24044532266E-01  0.00000000000E+00 0. -1.
     999901    1    3    3    0    0  0.83904634159E-01 -0.96903661468E-01 -0.39517696253E-01  0.89016400486E+00  0.88000000000E+00 0.  1.
        -11    1    4    4    0    0 -0.42257985998E-01  0.46723895730E-01  0.32611002595E-01  0.70940809299E-01  0.51100000000E-03 0.  1.
         11    1    4    4    0    0 -0.22308941246E-01  0.50079410883E-01  0.21195939687E-01  0.58780653570E-01  0.51100000000E-03 0. -1.
</event>
<event>
 8    1  0.1123470E+005  0.1043930E+01  0.7957747E-01            NaN
         13   -1    0    0    0    0  0.00000000000E+00  0.00000000000E+00  0.74505805969E-08  0.10566000000E+00  0.10566000000E+00 0.  1.
     999900   -1    0    0    0    0 -0.00000000000E+00 -0.00000000000E+00 -0.74505805969E-08  0.93827000000E+00  0.93827000000E+00 0. -1.
     999902    2    1    2    0    0 -0.11466126980E-01 -0.19951754328E-01  0.39183274159E-02  0.10205869527E+01  0.10203199646E+01 0.  0.
     999903    2    3    3    0    0 -0.82824315067E-01 -0.26335497332E-01 -0.97193431131E-01  0.13190459609E+00  0.19970824459E-01 0.  0.
         14    1    1    2    0    0  0.11466126980E-01  0.19951754328E-01 -0.39183274159E-02  0.23343047325E-01  0.00000000000E+00 0. -1.
     999901    1    3    3    0    0  0.71358188087E-01  0.63837430039E-02  0.10111175855E+00  0.88868235658E+00  0.88000000000E+00 0.  1.
        -11    1    4    4    0    0 -0.16935288531E-01 -0.44893554313E-02 -0.32944674957E-01  0.37317168152E-01  0.51100000000E-03 0.  1.
         11    1    4    4    0    0 -0.65889026536E-01 -0.21846141900E-01 -0.64248756174E-01  0.94587427942E-01  0.51100000000E-03 0. -1.
</event>
<event>
 8    1  0.1123470E+005  0.1043930E+01  0.7957747E-01            NaN
         13   -1    0    0    0    0  0.00000000000E+00  0.00000000000E+00  0.74505805969E-08  0.10566000000E+00  0.10566000000E+00 0. -1.
     999900   -1    0    0    0    0 -0.00000000000E+00 -0.00000000000E+00 -0.74505805969E-08  0.93827000000E+00  0.93827000000E+00 0.  1.
     999902    2    1    2    0    0 -0.13530299898E-01  0.74815708196E-02  0.17870290313E-01  0.10202997187E+01  0.10200260417E+01 0.  0.
     999903    2    3    3    0    0 -0.52421565996E-01  0.10537836949E+00 -0.54226824321E-01  0.13108978417E+00  0.19782863785E-01 0.  0.
         14    1    1    2    0    0  0.13530299898E-01 -0.74815708196E-02 -0.17870290313E-01  0.23630281275E-01  0.00000000000E+00 0.  1.
     999901    1    3    3    0    0  0.38891266099E-01 -0.97896798675E-01  0.72097114634E-01  0.88920993455E+00  0.88000000000E+00 0. -1.
        -11    1    4    4    0    0 -0.21421249113E-01  0.32176861388E-01 -0.92427835873E-02  0.39748087901E-01  0.51100000000E-03 0. -1.
         11    1    4    4    0    0 -0.31000316883E-01  0.73201508106E-01 -0.44984040734E-01  0.91341696271E-01  0.51100000000E-03 0.  1.
</event>
<event>
 8    1  0.1123470E+005  0.1043930E+01  0.7957747E-01            NaN
         13   -1    0    0    0    0  0.00000000000E+00  0.00000000000E+00  0.74505805969E-08  0.10566000000E+00  0.10566000000E+00 0. -1.
     999900   -1    0    0    0    0 -0.00000000000E+00 -0.00000000000E+00 -0.74505805969E-08  0.93827000000E+00  0.93827000000E+00 0.  1.
     999902    2    1    2    0    0  0.29708068428E-02  0.14194424576E-01 -0.18409725803E-01  0.10204944418E+01  0.10202253087E+01 0.  0.
     999903    2    3    3    0    0 -0.20716694265E-01 -0.82420928248E-01  0.93534016052E-01  0.12784275979E+00  0.19307206907E-01 0.  0.
         14    1    1    2    0    0 -0.29708068428E-02 -0.14194424576E-01  0.18409725803E-01  0.23435558164E-01  0.00000000000E+00 0. -1.
     999901    1    3    3    0    0  0.23687501108E-01  0.96615352824E-01 -0.11194374185E+00  0.89265168204E+00  0.88000000000E+00 0.  1.
        -11    1    4    4    0    0 -0.18065393620E-01 -0.32963391241E-01  0.38803776367E-01  0.54027194912E-01  0.51100000000E-03 0.  1.
         11    1    4    4    0    0 -0.26513006455E-02 -0.49457537008E-01  0.54730239685E-01  0.73815564882E-01  0.51100000000E-03 0. -1.
</event>
<event>
 8    1  0.1123470E+005  0.1043930E+01  0.7957747E-01            NaN
         13   -1    0    0    0    0  0.00000000000E+00  0.00000000000E+00  0.74505805969E-08  0.10566000000E+00  0.10566000000E+00 0.  1.
     999900   -1    0    0    0    0 -0.00000000000E+00 -0.00000000000E+00 -0.74505805969E-08  0.93827000000E+00  0.93827000000E+00 0.  1.
     999902    2    1    2    0    0 -0.21359280045E-01 -0.95534152626E-02 -0.66562373954E-02  0.10196032229E+01  0.10193129746E+01 0.  0.
     999903    2    3    3    0    0  0.11781966124E-01  0.57037231410E-01 -0.11441268346E+00  0.12991557655E+00  0.19893074207E-01 0.  0.
         14    1    1    2    0    0  0.21359280045E-01  0.95534152626E-02  0.66562373954E-02  0.24326777088E-01  0.00000000000E+00 0.  1.
     999901    1    3    3    0    0 -0.33141246169E-01 -0.66590646673E-01  0.10775644606E+00  0.88968764636E+00  0.88000000000E+00 0. -1.
        -11    1    4    4    0    0 -0.18256837795E-02  0.34341923396E-01 -0.74068305382E-01  0.81664409672E-01  0.51100000000E-03 0.  1.
         11    1    4    4    0    0  0.13607649903E-01  0.22695308014E-01 -0.40344378076E-01  0.48251166878E-01  0.51100000000E-03 0. -1.
</event>
<event>
 8    1  0.1123470E+005  0.1043930E+01  0.7957747E-01            NaN
         13   -1    0    0    0    0  0.00000000000E+00  0.00000000000E+00  0.74505805969E-08  0.10566000000E+00  0.10566000000E+00 0. -1.
     999900   -1    0    0    0    0 -0.00000000000E+00 -0.00000000000E+00 -0.74505805969E-08  0.93827000000E+00  0.93827000000E+00 0. -1.
     999902    2    1    2    0    0  0.21102253626E-02 -0.17987989376E-01 -0.14193089740E-01  0.10209199020E+01  0.10206605615E+01 0.  0.
     999903    2    3    3    0    0  0.51366152551E-01 -0.46429707588E-02 -0.12123369957E+00  0.13296611491E+00  0.17953801751E-01 0.  0.
         14    1    1    2    0    0 -0.21102253626E-02  0.17987989376E-01  0.14193089740E-01  0.23010097984E-01  0.00000000000E+00 0. -1.
     999901    1    3    3    0    0 -0.49255927188E-01 -0.13345018617E-01  0.10704060983E+00  0.88795378711E+00  0.88000000000E+00 0.  1.
        -11    1    4    4    0    0  0.32092259344E-01 -0.80381498623E-02 -0.58034448796E-01  0.66804066725E-01  0.51100000000E-03 0. -1.
         11    1    4    4    0    0  0.19273893207E-01  0.33951791035E-02 -0.63199250774E-01  0.66162048184E-01  0.51100000000E-03 0.  1.
</event>
<event>
 8    1  0.1123470E+005  0.1043930E+01  0.7957747E-01            NaN
         13   -1    0    0    0    0  0.00000000000E+00  0.00000000000E+00  0.74505805969E-08  0.10566000000E+00  0.10566000000E+00 0.  1.
     999900   -1    0    0    0    0 -0.00000000000E+00 -0.00000000000E+00 -0.74505805969E-08  0.93827000000E+00  0.93827000000E+00 0.  1.
     999902    2    1    2    0    0 -0.23414854438E-01  0.12539687446E-02 -0.40722424683E-02  0.10201306092E+01  0.10198529545E+01 0.  0.
     999903    2    3    3    0    0 -0.40093158922E-01 -0.45417481323E-01  0.11403458289E+00  0.13085809058E+00  0.21207186812E-01 0.  0.
         14    1    1    2    0    0  0.23414854438E-01 -0.12539687446E-02  0.40722424683E-02  0.23799390847E-01  0.00000000000E+00 0.  1.
     999901    1    3    3    0    0  0.16678304484E-01  0.46671450068E-01 -0.11810682536E+00  0.88927251857E+00  0.88000000000E+00 0.  1.
        -11    1    4    4    0    0 -0.17098406168E-01 -0.21598103990E-01  0.31049823184E-01  0.41511278349E-01  0.51100000000E-03 0.  1.
         11    1    4    4    0    0 -0.22994752754E-01 -0.23819377334E-01  0.82984759710E-01  0.89346812231E-01  0.51100000000E-03 0. -1.
</event>
<event>
 8    1  0.1123470E+005  0.1043930E+01  0.7957747E-01            NaN
         13   -1    0    0    0    0  0.00000000000E+00  0.00000000000E+00  0.74505805969E-08  0.10566000000E+00  0.10566000000E+00 0. -1.
     999900   -1    0    0    0    0 -0.00000000000E+00 -0.00000000000E+00 -0.74505805969E-08  0.93827000000E+00  0.93827000000E+00 0. -1.
     999902    2    1    2    0    0  0.51095198056E-02 -0.22464317484E-01  0.45015419520E-02  0.10204562565E+01  0.10201862354E+01 0.  0.
     999903    2    3    3    0    0  0.45036383575E-01  0.10615515980E+00 -0.52787055839E-01  0.12836931692E+00  0.19874970777E-01 0.  0.
         14    1    1    2    0    0 -0.51095198056E-02  0.22464317484E-01 -0.45015419520E-02  0.23473743472E-01  0.00000000000E+00 0.  1.
     999901    1    3    3    0    0 -0.39926863769E-01 -0.12861947729E+00  0.57288597791E-01  0.89208693961E+00  0.88000000000E+00 0. -1.
        -11    1    4    4    0    0  0.12966195594E-01  0.55733984854E-01 -0.24350611961E-01  0.62190133621E-01  0.51100000000E-03 0.  1.
         11    1    4    4    0    0  0.32070187981E-01  0.50421174948E-01 -0.28436443878E-01  0.66179183296E-01  0.51100000000E-03 0. -1.
</event>
<event>
 8    1  0.1123470E+005  0.1043930E+01  0.7957747E-01            NaN
         13   -1    0    0    0    0  0.00000000000E+00  0.00000000000E+00  0.74505805969E-08  0.10566000000E+00  0.10566000000E+00 0.  1.
     999900   -1    0    0    0    0 -0.00000000000E+00 -0.00000000000E+00 -0.74505805969E-08  0.93827000000E+00  0.93827000000E+00 0. -1.
     999902    2    1    2    0    0 -0.20283021425E-01  0.96758660029E-02 -0.11098056276E-01  0.10188662773E+01  0.10185579517E+01 0.  0.
     999903    2    3    3    0    0  0.12264022000E-02 -0.84232573895E-02  0.12602508258E+00  0.12780343511E+00  0.19466413644E-01 0.  0.
         14    1    1    2    0    0  0.20283021425E-01 -0.96758660029E-02  0.11098056276E-01  0.25063722671E-01  0.00000000000E+00 0.  1.
     999901    1    3    3    0    0 -0.21509423625E-01  0.18099123392E-01 -0.13712313885E+00  0.89106284222E+00  0.88000000000E+00 0. -1.
        -11    1    4    4    0    0 -0.32698065444E-02 -0.93107890086E-02  0.28408720559E-01  0.30078213903E-01  0.51100000000E-03 0.  1.
         11    1    4    4    0    0  0.44962087444E-02  0.88753161912E-03  0.97616362019E-01  0.97725221208E-01  0.51100000000E-03 0. -1.
</event>
<event>
 8    1  0.1123470E+005  0.1043930E+01  0.7957747E-01            NaN
         13   -1    0    0    0    0  0.00000000000E+00  0.00000000000E+00  0.74505805969E-08  0.10566000000E+00  0.10566000000E+00 0. -1.
     999900   -1    0    0    0    0 -0.00000000000E+00 -0.00000000000E+00 -0.74505805969E-08  0.93827000000E+00  0.93827000000E+00 0.  1.
     999902    2    1    2    0    0 -0.10404044317E-01  0.20614425403E-01  0.70145406365E-02  0.10197969842E+01  0.10195113959E+01 0.  0.
     999903    2    3    3    0    0  0.12349959058E+00  0.34714545795E-01  0.43182780923E-02  0.12955192427E+00  0.17544372113E-01 0.  0.
         14    1    1    2    0    0  0.10404044317E-01 -0.20614425403E-01 -0.70145406365E-02  0.24133015833E-01  0.00000000000E+00 0.  1.
     999901    1    3    3    0    0 -0.13390363490E+00 -0.14100120392E-01  0.26962625443E-02  0.89024505989E+00  0.88000000000E+00 0.  1.
        -11    1    4    4    0    0  0.62379379381E-01  0.26617644639E-01  0.20476406357E-02  0.67853812945E-01  0.51100000000E-03 0. -1.
         11    1    4    4    0    0  0.61120211203E-01  0.80969011562E-02  0.22706374566E-02  0.61698111327E-01  0.51100000000E-03 0.  1.
</event>
<event>
 7    1  0.1123470E+005  0.1043930E+01  0.7957747E-01            NaN
         13   -1    0    0    0    0  0.00000000000E+00  0.00000000000E+00  0.74505805969E-08  0.10566000000E+00  0.10566000000E+00 0. -1.
     999900   -1    0    0    0    0 -0.00000000000E+00 -0.00000000000E+00 -0.74505805969E-08  0.93827000000E+00  0.93827000000E+00 0.  1.
     999902    2    1    2    0    0  0.10153717290E-02 -0.50950963933E-02  0.29137108160E-01  0.10143333438E+01  0.10139014598E+01 0.  0.
         14    1    1    2    0    0 -0.10153717290E-02  0.50950963933E-02 -0.29137108160E-01  0.29596656212E-01  0.00000000000E+00 0.  1.
     999901    1    3    3    0    0  0.26535283377E-01  0.42531227382E-01  0.11903044664E+00  0.88942749777E+00  0.88000000000E+00 0. -1.
        -11    1    3    3    0    0 -0.48038952540E-01 -0.40275785038E-01 -0.60166517547E-01  0.86891603600E-01  0.51100000000E-03 0. -1.
         11    1    3    3    0    0  0.22519040892E-01 -0.73505387378E-02 -0.29726820936E-01  0.38014242415E-01  0.51100000000E-03 0.  1.
</event>
<event>
 8    1  0.1123470E+005  0.1043930E+01  0.7957747E-01            NaN
         13   -1    0    0    0    0  0.00000000000E+00  0.00000000000E+00  0.74505805969E-08  0.10566000000E+00  0.10566000000E+00 0.  1.
     999900   -1    0    0    0    0 -0.00000000000E+00 -0.00000000000E+00 -0.74505805969E-08  0.93827000000E+00  0.93827000000E+00 0.  1.
     999902    2    1    2    0    0 -0.17346359835E-02  0.21810595507E-01 -0.12021303594E-01  0.10189655697E+01  0.10186597123E+01 0.  0.
     999903    2    3    3    0    0 -0.95665637053E-02 -0.82788344074E-01  0.93096241109E-01  0.12652398876E+00  0.19899260458E-01 0.  0.
         14    1    1    2    0    0  0.17346359835E-02 -0.21810595507E-01  0.12021303594E-01  0.24964430265E-01  0.00000000000E+00 0.  1.
     999901    1    3    3    0    0  0.78319277218E-02  0.10459893958E+00 -0.10511754470E+00  0.89244158098E+00  0.88000000000E+00 0.  1.
        -11    1    4    4    0    0  0.56456739875E-02 -0.35379947903E-01  0.36653904861E-01  0.51258016065E-01  0.51100000000E-03 0.  1.
         11    1    4    4    0    0 -0.15212237693E-01 -0.47408396172E-01  0.56442336249E-01  0.75265972693E-01  0.51100000000E-03 0. -1.
</event>
<event>
 8    1  0.1123470E+005  0.1043930E+01  0.7957747E-01            NaN
         13   -1    0    0    0    0  0.00000000000E+00  0.00000000000E+00  0.74505805969E-08  0.10566000000E+00  0.10566000000E+00 0.  1.
     999900   -1    0    0    0    0 -0.00000000000E+00 -0.00000000000E+00 -0.74505805969E-08  0.93827000000E+00  0.93827000000E+00 0.  1.
     999902    2    1    2    0    0 -0.14747655950E-01  0.63431142908E-02 -0.17303497223E-01  0.10203261980E+01  0.10200531411E+01 0.  0.
     999903    2    3    3    0    0 -0.26395087493E-01  0.12717872421E+00 -0.12026629765E-01  0.13197674384E+00  0.20052245666E-01 0.  0.
         14    1    1    2    0    0  0.14747655950E-01 -0.63431142908E-02  0.17303497223E-01  0.23603802047E-01  0.00000000000E+00 0.  1.
     999901    1    3    3    0    0  0.11647431543E-01 -0.12083560992E+00 -0.52768674582E-02  0.88834945411E+00  0.88000000000E+00 0.  1.
        -11    1    4    4    0    0 -0.23535106720E-01  0.72633699168E-01 -0.12397263907E-01  0.77353143288E-01  0.51100000000E-03 0.  1.
         11    1    4    4    0    0 -0.28599807733E-02  0.54545025044E-01  0.37063414195E-03  0.54623600556E-01  0.51100000000E-03 0. -1.
</event>
<event>
 8    1  0.1123470E+005  0.1043930E+01  0.7957747E-01            NaN
         13   -1    0    0    0    0  0.00000000000E+00  0.00000000000E+00  0.74505805969E-08  0.10566000000E+00  0.10566000000E+00 0.  1.
     999900   -1    0    0    0    0 -0.00000000000E+00 -0.00000000000E+00 -0.74505805969E-08  0.93827000000E+00  0.93827000000E+00 0.  1.
     999902    2    1    2    0    0 -0.13639343243E-01  0.18137933210E-01 -0.43382636268E-02  0.10208250906E+01  0.10205635839E+01 0.  0.
     999903    2    3    3    0    0 -0.54522006835E-01 -0.92695317190E-01  0.68793693484E-01  0.12992459972E+00  0.24140387115E-01 0.  0.
         14    1    1    2    0    0  0.13639343243E-01 -0.18137933210E-01  0.43382636268E-02  0.23104909360E-01  0.00000000000E+00 0.  1.
     999901    1    3    3    0    0  0.40882663592E-01  0.11083325040E+00 -0.73131957111E-01  0.89090049092E+00  0.88000000000E+00 0.  1.
        -11    1    4    4    0    0 -0.12346936849E-01 -0.39349748114E-01  0.34448693020E-01  0.53738469442E-01  0.51100000000E-03 0.  1.
         11    1    4    4    0    0 -0.42175069986E-01 -0.53345569076E-01  0.34345000464E-01  0.76186130275E-01  0.51100000000E-03 0. -1.
</event>
<event>
 8    1  0.1123470E+005  0.1043930E+01  0.7957747E-01            NaN
         13   -1    0    0    0    0  0.00000000000E+00  0.00000000000E+00  0.74505805969E-08  0.10566000000E+00  0.10566000000E+00 0.  1.
     999900   -1    0    0    0    0 -0.00000000000E+00 -0.00000000000E+00 -0.74505805969E-08  0.93827000000E+00  0.93827000000E+00 0.  1.
     999902    2    1    2    0    0 -0.14631283851E-01 -0.16775640674E-01  0.84843241942E-02  0.10201081541E+01  0.10198299690E+01 0.  0.
     999903    2    3    3    0    0 -0.10647670823E+00 -0.15126722485E-01 -0.72977933318E-01  0.13158443445E+00  0.20556690108E-01 0.  0.
         14    1    1    2    0    0  0.14631283851E-01  0.16775640674E-01 -0.84843241942E-02  0.23821845944E-01  0.00000000000E+00 0. -1.
     999901    1    3    3    0    0  0.91845424380E-01 -0.16489181889E-02  0.81462257512E-01  0.88852371961E+00  0.88000000000E+00 0. -1.
        -11    1    4    4    0    0 -0.13334416171E-01 -0.54455888312E-02 -0.17757377405E-01  0.22870213502E-01  0.51100000000E-03 0.  1.
         11    1    4    4    0    0 -0.93142292060E-01 -0.96811336541E-02 -0.55220555913E-01  0.10871422094E+00  0.51100000000E-03 0. -1.
</event>
<event>
 8    1  0.1123470E+005  0.1043930E+01  0.7957747E-01            NaN
         13   -1    0    0    0    0  0.00000000000E+00  0.00000000000E+00  0.74505805969E-08  0.10566000000E+00  0.10566000000E+00 0. -1.
     999900   -1    0    0    0    0 -0.00000000000E+00 -0.00000000000E+00 -0.74505805969E-08  0.93827000000E+00  0.93827000000E+00 0. -1.
     999902    2    1    2    0    0 -0.13916826259E-02 -0.66126905912E-02  0.22214873682E-01  0.10207100717E+01  0.10204459248E+01 0.  0.
     999903    2    3    3    0    0  0.90775474766E-01 -0.92969319868E-01  0.57105194175E-02  0.13153930856E+00  0.19659562769E-01 0.  0.
         14    1    1    2    0    0  0.13916826259E-02  0.66126905912E-02 -0.22214873682E-01  0.23219928297E-01  0.00000000000E+00 0.  1.
     999901    1    3    3    0    0 -0.92167157392E-01  0.86356629277E-01  0.16504354265E-01  0.88917076314E+00  0.88000000000E+00 0. -1.
        -11    1    4    4    0    0  0.78717155966E-01 -0.86443233314E-01  0.65413591807E-03  0.11691668933E+00  0.51100000000E-03 0. -1.
         11    1    4    4    0    0  0.12058318800E-01 -0.65260865540E-02  0.50563834994E-02  0.14622619228E-01  0.51100000000E-03 0.  1.
</event>
<event>
 8    1  0.1123470E+005  0.1043930E+01  0.7957747E-01            NaN
         13   -1    0    0    0    0  0.00000000000E+00  0.00000000000E+00  0.74505805969E-08  0.10566000000E+00  0.10566000000E+00 0.  1.
     999900   -1    0    0    0    0 -0.00000000000E+00 -0.00000000000E+00 -0.74505805969E-08  0.93827000000E+00  0.93827000000E+00 0. -1.
     999902    2    1    2    0    0 -0.58934994296E-02  0.10628607299E-01  0.20121127278E-01  0.10204233969E+01  0.10201526104E+01 0.  0.
     999903    2    3    3    0    0  0.58313533373E-01  0.79508160974E-01 -0.81492273472E-01  0.12958546592E+00  0.20721643419E-01 0.  0.
         14    1    1    2    0    0  0.58934994296E-02 -0.10628607299E-01 -0.20121127278E-01  0.23506603148E-01  0.00000000000E+00 0. -1.
     999901    1    3    3    0    0 -0.64207032803E-01 -0.68879553674E-01  0.10161340075E+00  0.89083793093E+00  0.88000000000E+00 0.  1.
        -11    1    4    4    0    0  0.11563506352E-01  0.29417021956E-01 -0.19222778154E-01  0.36998002390E-01  0.51100000000E-03 0.  1.
         11    1    4    4    0    0  0.46750027022E-01  0.50091139018E-01 -0.62269495318E-01  0.92587463529E-01  0.51100000000E-03 0. -1.
</event>
<event>
 8    1  0.1123470E+005  0.1043930E+01  0.7957747E-01            NaN
         13   -1    0    0    0    0  0.00000000000E+00  0.00000000000E+00  0.74505805969E-08  0.10566000000E+00  0.10566000000E+00 0.  1.
     999900   -1    0    0    0    0 -0.00000000000E+00 -0.00000000000E+00 -0.74505805969E-08  0.93827000000E+00  0.93827000000E+00 0. -1.
     999902    2    1    2    0    0 -0.20646604889E-01  0.27608302590E-02 -0.10946921112E-01  0.10203983286E+01  0.10201269575E+01 0.  0.
     999903    2    3    3    0    0  0.29817613753E-01  0.11754741814E+00  0.42005191716E-01  0.12993411013E+00  0.20296582057E-01 0.  0.
         14    1    1    2    0    0  0.20646604889E-01 -0.27608302590E-02  0.10946921112E-01  0.23531671403E-01  0.00000000000E+00 0.  1.
     999901    1    3    3    0    0 -0.50464218642E-01 -0.11478658788E+00 -0.52952112828E-01  0.89046421847E+00  0.88000000000E+00 0.  1.
        -11    1    4    4    0    0  0.30378950664E-01  0.90358790839E-01  0.28093352743E-01  0.99383546499E-01  0.51100000000E-03 0.  1.
         11    1    4    4    0    0 -0.56133691097E-03  0.27188627298E-01  0.13911838973E-01  0.30550563630E-01  0.51100000000E-03 0. -1.
</event>
<event>
 8    1  0.1123470E+005  0.1043930E+01  0.7957747E-01            NaN
         13   -1    0    0    0    0  0.00000000000E+00  0.00000000000E+00  0.74505805969E-08  0.10566000000E+00  0.10566000000E+00 0.  1.
     999900   -1    0    0    0    0 -0.00000000000E+00 -0.00000000000E+00 -0.74505805969E-08  0.93827000000E+00  0.93827000000E+00 0.  1.
     999902    2    1    2    0    0  0.27341543609E-01  0.60719580601E-02  0.11830141405E-01  0.10135263665E+01  0.10130702418E+01 0.  0.
     999903    2    3    3    0    0  0.67291161486E-01  0.13174095681E-01 -0.10281835613E+00  0.12516231374E+00  0.19807403001E-01 0.  0.
         14    1    1    2    0    0 -0.27341543609E-01 -0.60719580601E-02 -0.11830141405E-01  0.30403633455E-01  0.00000000000E+00 0.  1.
     999901    1    3    3    0    0 -0.39949617877E-01 -0.71021376209E-02  0.11464849753E+00  0.88836405280E+00  0.88000000000E+00 0. -1.
        -11    1    4    4    0    0  0.14425225148E-01 -0.52495131763E-02 -0.23555341605E-01  0.28120450713E-01  0.51100000000E-03 0. -1.
         11    1    4    4    0    0  0.52865936338E-01  0.18423608857E-01 -0.79263014520E-01  0.97041863028E-01  0.51100000000E-03 0.  1.
</event>
<event>
 8    1  0.1123470E+005  0.1043930E+01  0.7957747E-01            NaN
         13   -1    0    0    0    0  0.00000000000E+00  0.00000000000E+00  0.74505805969E-08  0.10566000000E+00  0.10566000000E+00 0.  1.
     999900   -1    0    0    0    0 -0.00000000000E+00 -0.00000000000E+00 -0.74505805969E-08  0.93827000000E+00  0.93827000000E+00 0.  1.
     999902    2    1    2    0    0 -0.14658244231E-01 -0.44873409937E-02  0.18620223762E-01  0.10198112711E+01  0.10195260249E+01 0.  0.
     999903    2    3    3    0    0 -0.67782426849E-01  0.20653619931E-01  0.10971056573E+00  0.13315931166E+00  0.25960828995E-01 0.  0.
         14    1    1    2    0    0  0.14658244231E-01  0.44873409937E-02 -0.18620223762E-01  0.24118728948E-01  0.00000000000E+00 0. -1.
     999901    1    3    3    0    0  0.53124182617E-01 -0.25140960925E-01 -0.91090341972E-01  0.88665195939E+00  0.88000000000E+00 0.  1.
        -11    1    4    4    0    0 -0.34159130506E-01  0.23879555567E-01  0.61103886295E-01  0.73966380284E-01  0.51100000000E-03 0. -1.
         11    1    4    4    0    0 -0.33623296343E-01 -0.32259356358E-02  0.48606679438E-01  0.59192931375E-01  0.51100000000E-03 0.  1.
</event>
<event>
 8    1  0.1123470E+005  0.1043930E+01  0.7957747E-01            NaN
         13   -1    0    0    0    0  0.00000000000E+00  0.00000000000E+00  0.74505805969E-08  0.10566000000E+00  0.10566000000E+00 0. -1.
     999900   -1    0    0    0    0 -0.00000000000E+00 -0.00000000000E+00 -0.74505805969E-08  0.93827000000E+00  0.93827000000E+00 0. -1.
     999902    2    1    2    0    0  0.93771371466E-02 -0.15119569901E-01  0.14317256959E-01  0.10210932765E+01  0.10208378732E+01 0.  0.
     999903    2    3    3    0    0  0.55695878440E-01  0.56917014875E-02  0.11897788558E+00  0.13343772277E+00  0.22703793987E-01 0.  0.
         14    1    1    2    0    0 -0.93771371466E-02  0.15119569901E-01 -0.14317256959E-01  0.22836723537E-01  0.00000000000E+00 0.  1.
     999901    1    3    3    0    0 -0.46318741293E-01 -0.20811271389E-01 -0.10466062862E+00  0.88765555369E+00  0.88000000000E+00 0. -1.
        -11    1    4    4    0    0  0.22084573644E-01 -0.88107056707E-02  0.48600291548E-01  0.54107359823E-01  0.51100000000E-03 0. -1.
         11    1    4    4    0    0  0.33611304795E-01  0.14502407158E-01  0.70377594031E-01  0.79330362952E-01  0.51100000000E-03 0.  1.
</event>
<event>
 8    1  0.1123470E+005  0.1043930E+01  0.7957747E-01            NaN
         13   -1    0    0    0    0  0.00000000000E+00  0.00000000000E+00  0.74505805969E-08  0.10566000000E+00  0.10566000000E+00 0. -1.
     999900   -1    0    0    0    0 -0.00000000000E+00 -0.00000000000E+00 -0.74505805969E-08  0.93827000000E+00  0.93827000000E+00 0. -1.
     999902    2    1    2    0    0 -0.37475395152E-02  0.22488963847E-01  0.23409072083E-02  0.10210110691E+01  0.10207538027E+01 0.  0.
     999903    2    3    3    0    0 -0.29668357093E-01  0.10406544712E+00  0.76240625716E-01  0.13377503522E+00  0.19320930138E-01 0.  0.
         14    1    1    2    0    0  0.37475395152E-02 -0.22488963847E-01 -0.23409072083E-02  0.22918930906E-01  0.00000000000E+00 0.  1.
     999901    1    3    3    0    0  0.25920817578E-01 -0.81576483276E-01 -0.73899718508E-01  0.88723603387E+00  0.88000000000E+00 0. -1.
        -11    1    4    4    0    0 -0.38069516380E-02  0.47106606388E-01  0.29950676563E-01  0.55953814828E-01  0.51100000000E-03 0. -1.
         11    1    4    4    0    0 -0.25861405455E-01  0.56958840734E-01  0.46289949153E-01  0.77821220393E-01  0.51100000000E-03 0.  1.
</event>
<event>
 8    1  0.1123470E+005  0.1043930E+01  0.7957747E-01            NaN
         13   -1    0    0    0    0  0.00000000000E+00  0.00000000000E+00  0.74505805969E-08  0.10566000000E+00  0.10566000000E+00 0. -1.
     999900   -1    0    0    0    0 -0.00000000000E+00 -0.00000000000E+00 -0.74505805969E-08  0.93827000000E+00  0.93827000000E+00 0.  1.
     999902    2    1    2    0    0 -0.12944040894E-01 -0.11774998612E-01 -0.15030051602E-01  0.10208626803E+01  0.10206020335E+01 0.  0.
     999903    2    3    3    0    0  0.47154058722E-01  0.71338016520E-01 -0.97360973263E-01  0.13108858789E+00  0.19810121292E-01 0.  0.
         14    1    1    2    0    0  0.12944040894E-01  0.11774998612E-01  0.15030051602E-01  0.23067319699E-01  0.00000000000E+00 0. -1.
     999901    1    3    3    0    0 -0.60098099616E-01 -0.83113015132E-01  0.82330921662E-01  0.88977409241E+00  0.88000000000E+00 0. -1.
        -11    1    4    4    0    0  0.22211241619E-01  0.50864891557E-01 -0.61494692621E-01  0.82839814032E-01  0.51100000000E-03 0. -1.
         11    1    4    4    0    0  0.24942817103E-01  0.20473124963E-01 -0.35866280642E-01  0.48248773859E-01  0.51100000000E-03 0.  1.
</event>
<event>
 8    1  0.1123470E+005  0.1043930E+01  0.7957747E-01            NaN
         13   -1    0    0    0    0  0.00000000000E+00  0.00000000000E+00  0.74505805969E-08  0.10566000000E+00  0.10566000000E+00 0. -1.
     999900   -1    0    0    0    0 -0.00000000000E+00 -0.00000000000E+00 -0.74505805969E-08  0.93827000000E+00  0.93827000000E+00 0. -1.
     999902    2    1    2    0    0 -0.14888267303E-01 -0.10230489783E-01  0.15831881182E-01  0.10199097609E+01  0.10196268673E+01 0.  0.
     999903    2    3    3    0    0  0.42847630494E-01 -0.10882224590E+00 -0.53644750658E-01  0.12980821016E+00  0.17152594800E-01 0.  0.
         14    1    1    2    0    0  0.14888267303E-01  0.10230489783E-01 -0.15831881182E-01  0.24020239097E-01  0.00000000000E+00 0.  1.
     999901    1    3    3    0    0 -0.57735897797E-01  0.98591756120E-01  0.69476631841E-01  0.89010155075E+00  0.88000000000E+00 0.  1.
        -11    1    4    4    0    0  0.28746267125E-01 -0.80896181327E-01 -0.31388402347E-01  0.91411339285E-01  0.51100000000E-03 0. -1.
         11    1    4    4    0    0  0.14101363369E-01 -0.27926064577E-01 -0.22256348311E-01  0.38396870872E-01  0.51100000000E-03 0.  1.
</event>
<event>
 8    1  0.1123470E+005  0.1043930E+01  0.7957747E-01            NaN
         13   -1    0    0    0    0  0.00000000000E+00  0.00000000000E+00  0.74505805969E-08  0.10566000000E+00  0.10566000000E+00 0.  1.
     999900   -1    0    0    0    0 -0.00000000000E+00 -0.00000000000E+00 -0.74505805969E-08  0.93827000000E+00  0.93827000000E+00 0.  1.
     999902    2    1    2    0    0  0.79320830140E-02 -0.17861986503E-01 -0.12990669917E-01  0.10204624478E+01  0.10201925707E+01 0.  0.
     999903    2    3    3    0    0  0.36360191843E-01 -0.11792257418E-01  0.12227710013E+00  0.12965249688E+00  0.19923851198E-01 0.  0.
         14    1    1    2    0    0 -0.79320830140E-02  0.17861986503E-01  0.12990669917E-01  0.23467552230E-01  0.00000000000E+00 0. -1.
     999901    1    3    3    0    0 -0.28428108829E-01 -0.60697290857E-02 -0.13526777005E+00  0.89080995089E+00  0.88000000000E+00 0.  1.
        -11    1    4    4    0    0  0.28303218067E-01 -0.17077077499E-01  0.10140297612E+00  0.10665609883E+00  0.51100000000E-03 0.  1.
         11    1    4    4    0    0  0.80569737761E-02  0.52848200809E-02  0.20874124005E-01  0.22996398059E-01  0.51100000000E-03 0. -1.
</event>
<event>
 8    1  0.1123470E+005  0.1043930E+01  0.7957747E-01            NaN
         13   -1    0    0    0    0  0.00000000000E+00  0.00000000000E+00  0.74505805969E-08  0.10566000000E+00  0.10566000000E+00 0.  1.
     999900   -1    0    0    0    0 -0.00000000000E+00 -0.00000000000E+00 -0.74505805969E-08  0.93827000000E+00  0.93827000000E+00 0.  1.
     999902    2    1    2    0    0 -0.18037310199E-01 -0.58738919062E-02 -0.15717861452E-01  0.10192946933E+01  0.10189969448E+01 0.  0.
     999903    2    3    3    0    0 -0.58130239584E-01 -0.10288948771E+00 -0.55808647310E-01  0.13214941780E+00  0.19582953638E-01 0.  0.
         14    1    1    2    0    0  0.18037310199E-01  0.58738919062E-02  0.15717861452E-01  0.24635306655E-01  0.00000000000E+00 0.  1.
     999901    1    3    3    0    0  0.40092929385E-01  0.97015595809E-01  0.40090785858E-01  0.88714527555E+00  0.88000000000E+00 0.  1.
        -11    1    4    4    0    0 -0.24015414750E-01 -0.53965063867E-01 -0.36585949100E-01  0.69482091623E-01  0.51100000000E-03 0. -1.
         11    1    4    4    0    0 -0.34114824834E-01 -0.48924423848E-01 -0.19222698211E-01  0.62667326174E-01  0.51100000000E-03 0.  1.
</event>
<event>
 8    1  0.1123470E+005  0.1043930E+01  0.7957747E-01            NaN
         13   -1    0    0    0    0  0.00000000000E+00  0.00000000000E+00  0.74505805969E-08  0.10566000000E+00  0.10566000000E+00 0.  1.
     999900   -1    0    0    0    0 -0.00000000000E+00 -0.00000000000E+00 -0.74505805969E-08  0.93827000000E+00  0.93827000000E+00 0.  1.
     999902    2    1    2    0    0 -0.16126112037E-01  0.17149296970E-01  0.77534558951E-02  0.10191456107E+01  0.10188442029E+01 0.  0.
     999903    2    3    3    0    0  0.36441161333E-02 -0.78568798943E-01 -0.98236199327E-01  0.12741323893E+00  0.19936068964E-01 0.  0.
         14    1    1    2    0    0  0.16126112037E-01 -0.17149296970E-01 -0.77534558951E-02  0.24784389327E-01  0.00000000000E+00 0. -1.
     999901    1    3    3    0    0 -0.19770228170E-01  0.95718095913E-01  0.10598965522E+00  0.89173237175E+00  0.88000000000E+00 0. -1.
        -11    1    4    4    0    0  0.95239613523E-02 -0.21668667922E-01 -0.33528362937E-01  0.41044478941E-01  0.51100000000E-03 0.  1.
         11    1    4    4    0    0 -0.58798452191E-02 -0.56900131021E-01 -0.64707836390E-01  0.86368759984E-01  0.51100000000E-03 0. -1.
</event>
<event>
 8    1  0.1123470E+005  0.1043930E+01  0.7957747E-01            NaN
         13   -1    0    0    0    0  0.00000000000E+00  0.00000000000E+00  0.74505805969E-08  0.10566000000E+00  0.10566000000E+00 0. -1.
     999900   -1    0    0    0    0 -0.00000000000E+00 -0.00000000000E+00 -0.74505805969E-08  0.93827000000E+00  0.93827000000E+00 0.  1.
     999902    2    1    2    0    0  0.16687729652E-01 -0.12236123942E-01  0.11414395875E-01  0.10202975756E+01  0.10200238484E+01 0.  0.
     999903    2    3    3    0    0  0.10270308049E+00  0.46397261372E-01  0.66881977934E-01  0.13242755858E+00  0.19058612101E-01 0.  0.
         14    1    1    2    0    0 -0.16687729652E-01  0.12236123942E-01 -0.11414395875E-01  0.23632424405E-01  0.00000000000E+00 0.  1.
     999901    1    3    3    0    0 -0.86015350835E-01 -0.58633385314E-01 -0.55467582060E-01  0.88787001701E+00  0.88000000000E+00 0. -1.
        -11    1    4    4    0    0  0.90103782782E-01  0.41502751119E-01  0.65397009107E-01  0.11882003174E+00  0.51100000000E-03 0. -1.
         11    1    4    4    0    0  0.12599297704E-01  0.48945102526E-02  0.14849688272E-02  0.13607526839E-01  0.51100000000E-03 0.  1.
</event>
<event>
 8    1  0.1123470E+005  0.1043930E+01  0.7957747E-01            NaN
         13   -1    0    0    0    0  0.00000000000E+00  0.00000000000E+00  0.74505805969E-08  0.10566000000E+00  0.10566000000E+00 0.  1.
     999900   -1    0    0    0    0 -0.00000000000E+00 -0.00000000000E+00 -0.74505805969E-08  0.93827000000E+00  0.93827000000E+00 0. -1.
     999902    2    1    2    0    0 -0.18967193557E-01  0.13982372020E-01  0.69608892191E-02  0.10193593847E+01  0.10190632169E+01 0.  0.
     999903    2    3    3    0    0 -0.24391918934E-01 -0.12467131316E+00  0.20643085909E-02  0.12847316940E+00  0.19057593033E-01 0.  0.
         14    1    1    2    0    0  0.18967193557E-01 -0.13982372020E-01 -0.69608892191E-02  0.24570615325E-01  0.00000000000E+00 0. -1.
     999901    1    3    3    0    0  0.54247253767E-02  0.13865368518E+00  0.48965806282E-02  0.89088621527E+00  0.88000000000E+00 0.  1.
        -11    1    4    4    0    0 -0.33923392932E-02 -0.44427592466E-01  0.81643058986E-02  0.45301610899E-01  0.51100000000E-03 0.  1.
         11    1    4    4    0    0 -0.20999579641E-01 -0.80243720694E-01 -0.60999973077E-02  0.83171558504E-01  0.51100000000E-03 0. -1.
</event>
<event>
 7    1  0.1123470E+005  0.1043930E+01  0.7957747E-01            NaN
         13   -1    0    0    0    0  0.00000000000E+00  0.00000000000E+00  0.74505805969E-08  0.10566000000E+00  0.10566000000E+00 0.  1.
     999900   -1    0    0    0    0 -0.00000000000E+00 -0.00000000000E+00 -0.74505805969E-08  0.93827000000E+00  0.93827000000E+00 0. -1.
     999903    2    1    2    0    0  0.69429014448E-01 -0.80249931579E-01  0.50692141816E-01  0.11936835179E+00  0.20461441813E-01 0.  0.
         14    1    1    2    0    0 -0.86819416959E-03  0.39557103361E-01 -0.21262788711E-02  0.39623720790E-01  0.00000000000E+00 0. -1.
     999901    1    1    2    0    0 -0.68560820278E-01  0.40692828219E-01 -0.48565862945E-01  0.88493792742E+00  0.88000000000E+00 0. -1.
        -11    1    3    3    0    0  0.42390412288E-01 -0.39697292534E-01  0.18496772508E-01  0.60952553701E-01  0.51100000000E-03 0. -1.
         11    1    3    3    0    0  0.27038602160E-01 -0.40552639045E-01  0.32195369308E-01  0.58415798087E-01  0.51100000000E-03 0.  1.
</event>
<event>
 8    1  0.1123470E+005  0.1043930E+01  0.7957747E-01            NaN
         13   -1    0    0    0    0  0.00000000000E+00  0.00000000000E+00  0.74505805969E-08  0.10566000000E+00  0.10566000000E+00 0. -1.
     999900   -1    0    0    0    0 -0.00000000000E+00 -0.00000000000E+00 -0.74505805969E-08  0.93827000000E+00  0.93827000000E+00 0.  1.
     999902    2    1    2    0    0  0.93192554707E-02  0.16190748063E-01 -0.13099253632E-01  0.10211137932E+01  0.10208588538E+01 0.  0.
     999903    2    3    3    0    0 -0.22266337440E-01 -0.12387583955E+00  0.18559950471E-01  0.12891504640E+00  0.20823160665E-01 0.  0.
         14    1    1    2    0    0 -0.93192554707E-02 -0.16190748063E-01  0.13099253632E-01  0.22816206763E-01  0.00000000000E+00 0. -1.
     999901    1    3    3    0    0  0.31585592911E-01  0.14006658761E+00 -0.31659204103E-01  0.89219874683E+00  0.88000000000E+00 0.  1.
        -11    1    4    4    0    0 -0.11592728582E-01 -0.37892728098E-01 -0.26303992219E-02  0.39716877014E-01  0.51100000000E-03 0. -1.
         11    1    4    4    0    0 -0.10673608858E-01 -0.85983111454E-01  0.21190349693E-01  0.89198169390E-01  0.51100000000E-03 0.  1.
</event>
<event>
 8    1  0.1123470E+005  0.1043930E+01  0.7957747E-01            NaN
         13   -1    0    0    0    0  0.00000000000E+00  0.00000000000E+00  0.74505805969E-08  0.10566000000E+00  0.10566000000E+00 0.  1.
     999900   -1    0    0    0    0 -0.00000000000E+00 -0.00000000000E+00 -0.74505805969E-08  0.93827000000E+00  0.93827000000E+00 0. -1.
     999902    2    1    2    0    0  0.88447407164E-02 -0.19169446854E-01  0.69399449103E-02  0.10217070397E+01  0.10214653273E+01 0.  0.
     999903    2    3    3    0    0 -0.11647032493E-01 -0.13146170239E+00  0.14758072049E-01  0.13430037610E+00  0.20023929868E-01 0.  0.
         14    1    1    2    0    0 -0.88447407164E-02  0.19169446854E-01 -0.69399449103E-02  0.22222960343E-01  0.00000000000E+00 0. -1.
     999901    1    3    3    0    0  0.20491773210E-01  0.11229225554E+00 -0.78181271391E-02  0.88740666356E+00  0.88000000000E+00 0. -1.
        -11    1    4    4    0    0  0.43321844679E-02 -0.57140595281E-01  0.95896512821E-02  0.58103683051E-01  0.51100000000E-03 0. -1.
         11    1    4    4    0    0 -0.15979216961E-01 -0.74321107110E-01  0.51684207674E-02  0.76196693045E-01  0.51100000000E-03 0.  1.
</event>
<event>
 8    1  0.1123470E+005  0.1043930E+01  0.7957747E-01            NaN
         13   -1    0    0    0    0  0.00000000000E+00  0.00000000000E+00  0.74505805969E-08  0.10566000000E+00  0.10566000000E+00 0.  1.
     999900   -1    0    0    0    0 -0.00000000000E+00 -0.00000000000E+00 -0.74505805969E-08  0.93827000000E+00  0.93827000000E+00 0. -1.
     999902    2    1    2    0    0 -0.77363109821E-03  0.14311569412E-01 -0.18612990237E-01  0.10204382370E+01  0.10201677963E+01 0.  0.
     999903    2    3    3    0    0  0.95429304122E-01  0.49042639528E-01 -0.75587951471E-01  0.13268410538E+00  0.19483347627E-01 0.  0.
         14    1    1    2    0    0  0.77363109821E-03 -0.14311569412E-01  0.18612990237E-01  0.23491763018E-01  0.00000000000E+00 0.  1.
     999901    1    3    3    0    0 -0.96202935220E-01 -0.34731070116E-01  0.56974961234E-01  0.88775413161E+00  0.88000000000E+00 0.  1.
        -11    1    4    4    0    0  0.21896670271E-01  0.18985634256E-01 -0.14132847327E-01  0.32247743667E-01  0.51100000000E-03 0.  1.
         11    1    4    4    0    0  0.73532633851E-01  0.30057005273E-01 -0.61455104144E-01  0.10043636171E+00  0.51100000000E-03 0. -1.
</event>
<event>
 8    1  0.1123470E+005  0.1043930E+01  0.7957747E-01            NaN
         13   -1    0    0    0    0  0.00000000000E+00  0.00000000000E+00  0.74505805969E-08  0.10566000000E+00  0.10566000000E+00 0.  1.
     999900   -1    0    0    0    0 -0.00000000000E+00 -0.00000000000E+00 -0.74505805969E-08  0.93827000000E+00  0.93827000000E+00 0. -1.
     999902    2    1    2    0    0  0.31206931535E-02 -0.10696555492E-01  0.22251378269E-01  0.10190446859E+01  0.10187407879E+01 0.  0.
     999903    2    3    3    0    0 -0.28706680564E-01  0.11899257569E+00  0.35119102248E-01  0.12887738092E+00  0.19817199351E-01 0.  0.
         14    1    1    2    0    0 -0.31206931535E-02  0.10696555492E-01 -0.22251378269E-01  0.24885314143E-01  0.00000000000E+00 0. -1.
     999901    1    3    3    0    0  0.31827373718E-01 -0.12968913118E+00 -0.12867723979E-01  0.89016730494E+00  0.88000000000E+00 0. -1.
        -11    1    4    4    0    0  0.65734083249E-03  0.24925400699E-01  0.24550699028E-02  0.25059852078E-01  0.51100000000E-03 0.  1.
         11    1    4    4    0    0 -0.29364021397E-01  0.94067174994E-01  0.32664032345E-01  0.10381752884E+00  0.51100000000E-03 0. -1.
</event>
<event>
 8    1  0.1123470E+005  0.1043930E+01  0.7957747E-01            NaN
         13   -1    0    0    0    0  0.00000000000E+00  0.00000000000E+00  0.74505805969E-08  0.10566000000E+00  0.10566000000E+00 0.  1.
     999900   -1    0    0    0    0 -0.00000000000E+00 -0.00000000000E+00 -0.74505805969E-08  0.93827000000E+00  0.93827000000E+00 0.  1.
     999902    2    1    2    0    0  0.14923290268E-01  0.24516556352E-02 -0.18018251577E-01  0.10204061271E+01  0.10201349379E+01 0.  0.
     999903    2    3    3    0    0 -0.90276618105E-01  0.35829450119E-01  0.81174490301E-01  0.12798229395E+00  0.18882595574E-01 0.  0.
         14    1    1    2    0    0 -0.14923290268E-01 -0.24516556352E-02  0.18018251577E-01  0.23523872930E-01  0.00000000000E+00 0.  1.
     999901    1    3    3    0    0  0.10519990837E+00 -0.33377794484E-01 -0.99192741878E-01  0.89242383312E+00  0.88000000000E+00 0.  1.
        -11    1    4    4    0    0 -0.41035621205E-01  0.17003242715E-01  0.49365908303E-01  0.66409987909E-01  0.51100000000E-03 0. -1.
         11    1    4    4    0    0 -0.49240996900E-01  0.18826207404E-01  0.31808581998E-01  0.61572306036E-01  0.51100000000E-03 0.  1.
</event>
<event>
 8    1  0.1123470E+005  0.1043930E+01  0.7957747E-01            NaN
         13   -1    0    0    0    0  0.00000000000E+00  0.00000000000E+00  0.74505805969E-08  0.10566000000E+00  0.10566000000E+00 0.  1.
     999900   -1    0    0    0    0 -0.00000000000E+00 -0.00000000000E+00 -0.74505805969E-08  0.93827000000E+00  0.93827000000E+00 0. -1.
     999902    2    1    2    0    0  0.83335808153E-04  0.16675853116E-01 -0.13009512705E-01  0.10227796231E+01  0.10225609121E+01 0.  0.
     999903    2    3    3    0    0 -0.91533675522E-01 -0.86325963107E-01  0.30336845635E-01  0.13099379809E+00  0.20210523865E-01 0.  0.
         14    1    1    2    0    0 -0.83335808153E-04 -0.16675853116E-01  0.13009512705E-01  0.21150376895E-01  0.00000000000E+00 0.  1.
     999901    1    3    3    0    0  0.91617011330E-01  0.10300181622E+00 -0.43346358340E-01  0.89178582501E+00  0.88000000000E+00 0. -1.
        -11    1    4    4    0    0 -0.51111692785E-01 -0.35384781881E-01  0.10869112539E-01  0.63110115327E-01  0.51100000000E-03 0.  1.
         11    1    4    4    0    0 -0.40421982736E-01 -0.50941181226E-01  0.19467733096E-01  0.67883682767E-01  0.51100000000E-03 0. -1.
</event>
<event>
 8    1  0.1123470E+005  0.1043930E+01  0.7957747E-01            NaN
         13   -1    0    0    0    0  0.00000000000E+00  0.00000000000E+00  0.74505805969E-08  0.10566000000E+00  0.10566000000E+00 0. -1.
     999900   -1    0    0    0    0 -0.00000000000E+00 -0.00000000000E+00 -0.74505805969E-08  0.93827000000E+00  0.93827000000E+00 0. -1.
     999902    2    1    2    0    0 -0.14060513732E-01  0.10939813678E-01  0.15769123257E-01  0.10201383456E+01  0.10198608735E+01 0.  0.
     999903    2    3    3    0    0 -0.41825189554E-01 -0.66865776395E-01  0.10426105066E+00  0.13185043718E+00  0.17140378234E-01 0.  0.
         14    1    1    2    0    0  0.14060513732E-01 -0.10939813678E-01 -0.15769123257E-01  0.23791654377E-01  0.00000000000E+00 0.  1.
     999901    1    3    3    0    0  0.27764675822E-01  0.77805590073E-01 -0.88491927402E-01  0.88828790844E+00  0.88000000000E+00 0. -1.
        -11    1    4    4    0    0 -0.15957967287E-01 -0.33694288506E-01  0.61109001058E-01  0.71585843078E-01  0.51100000000E-03 0. -1.
         11    1    4    4    0    0 -0.25867222267E-01 -0.33171487888E-01  0.43152049601E-01  0.60264594103E-01  0.51100000000E-03 0.  1.
</event>
<event>
 8    1  0.1123470E+005  0.1043930E+01  0.7957747E-01            NaN
         13   -1    0    0    0    0  0.00000000000E+00  0.00000000000E+00  0.74505805969E-08  0.10566000000E+00  0.10566000000E+00 0. -1.
     999900   -1    0    0    0    0 -0.00000000000E+00 -0.00000000000E+00 -0.74505805969E-08  0.93827000000E+00  0.93827000000E+00 0. -1.
     999902    2    1    2    0    0 -0.10388206781E-01  0.20239498291E-01  0.52729742454E-02  0.10205771332E+01  0.10203099178E+01 0.  0.
     999903    2    3    3    0    0 -0.19590897208E-01 -0.36554769207E-01 -0.12122286554E+00  0.12967226968E+00  0.19996499380E-01 0.  0.
         14    1    1    2    0    0  0.10388206781E-01 -0.20239498291E-01 -0.52729742454E-02  0.23352866817E-01  0.00000000000E+00 0. -1.
     999901    1    3    3    0    0  0.92026904277E-02  0.56794267498E-01  0.12649583979E+00  0.89090486350E+00  0.88000000000E+00 0.  1.
        -11    1    4    4    0    0 -0.81155813969E-02 -0.99022651205E-02 -0.15880596552E-01  0.20405195020E-01  0.51100000000E-03 0.  1.
         11    1    4    4    0    0 -0.11475315812E-01 -0.26652504087E-01 -0.10534226899E+00  0.10926707466E+00  0.51100000000E-03 0. -1.
</event>
<event>
 8    1  0.1123470E+005  0.1043930E+01  0.7957747E-01            NaN
         13   -1    0    0    0    0  0.00000000000E+00  0.00000000000E+00  0.74505805969E-08  0.10566000000E+00  0.10566000000E+00 0.  1.
     999900   -1    0    0    0    0 -0.00000000000E+00 -0.00000000000E+00 -0.74505805969E-08  0.93827000000E+00  0.93827000000E+00 0. -1.
     999902    2    1    2    0    0 -0.12089420536E-01  0.16803848651E-01 -0.10265890761E-01  0.10208234656E+01  0.10205619217E+01 0.  0.
     999903    2    3    3    0    0  0.19046591433E-01  0.10472568717E+00 -0.77878647635E-01  0.13331505110E+00  0.19431337959E-01 0.  0.
         14    1    1    2    0    0  0.12089420536E-01 -0.16803848651E-01  0.10265890761E-01  0.23106534390E-01  0.00000000000E+00 0.  1.
     999901    1    3    3    0    0 -0.31136011969E-01 -0.87921838517E-01  0.67612756874E-01  0.88750841451E+00  0.88000000000E+00 0.  1.
        -11    1    4    4    0    0  0.20434698926E-01  0.69439498448E-01 -0.58230158202E-01  0.92900125458E-01  0.51100000000E-03 0. -1.
         11    1    4    4    0    0 -0.13881074932E-02  0.35286188721E-01 -0.19648489433E-01  0.40414925644E-01  0.51100000000E-03 0.  1.
</event>
<event>
 8    1  0.1123470E+005  0.1043930E+01  0.7957747E-01            NaN
         13   -1    0    0    0    0  0.00000000000E+00  0.00000000000E+00  0.74505805969E-08  0.10566000000E+00  0.10566000000E+00 0.  1.
     999900   -1    0    0    0    0 -0.00000000000E+00 -0.00000000000E+00 -0.74505805969E-08  0.93827000000E+00  0.93827000000E+00 0. -1.
     999902    2    1    2    0    0  0.13440346006E-01  0.64239639898E-02  0.18709987991E-01  0.10200140249E+01  0.10197336109E+01 0.  0.
     999903    2    3    3    0    0  0.34762034028E-01  0.34696749483E-01  0.12216013921E+00  0.13324691987E+00  0.20478735556E-01 0.  0.
         14    1    1    2    0    0 -0.13440346006E-01 -0.64239639898E-02 -0.18709987991E-01  0.23915975094E-01  0.00000000000E+00 0.  1.
     999901    1    3    3    0    0 -0.21321688022E-01 -0.28272785493E-01 -0.10345015122E+00  0.88676710503E+00  0.88000000000E+00 0. -1.
        -11    1    4    4    0    0  0.22036344665E-02  0.14901597098E-01  0.36792336713E-01  0.39759914018E-01  0.51100000000E-03 0.  1.
         11    1    4    4    0    0  0.32558399562E-01  0.19795152385E-01  0.85367802496E-01  0.93487005856E-01  0.51100000000E-03 0. -1.
</event>
<event>
 8    1  0.1123470E+005  0.1043930E+01  0.7957747E-01            NaN
         13   -1    0    0    0    0  0.00000000000E+00  0.00000000000E+00  0.74505805969E-08  0.10566000000E+00  0.10566000000E+00 0. -1.
     999900   -1    0    0    0    0 -0.00000000000E+00 -0.00000000000E+00 -0.74505805969E-08  0.93827000000E+00  0.93827000000E+00 0.  1.
     999902    2    1    2    0    0  0.17368936279E-01  0.16712236398E-01  0.37642886533E-03  0.10198235591E+01  0.10195386070E+01 0.  0.
     999903    2    3    3    0    0  0.11107453733E+00  0.27284868642E-02 -0.68319178607E-01  0.13207620126E+00  0.20775352921E-01 0.  0.
         14    1    1    2    0    0 -0.17368936279E-01 -0.16712236398E-01 -0.37642886533E-03  0.24106440873E-01  0.00000000000E+00 0.  1.
     999901    1    3    3    0    0 -0.93705601052E-01  0.13983749533E-01  0.68695607472E-01  0.88774735787E+00  0.88000000000E+00 0. -1.
        -11    1    4    4    0    0  0.50822402183E-01 -0.48357326490E-02 -0.41034293392E-01  0.65500955940E-01  0.51100000000E-03 0. -1.
         11    1    4    4    0    0  0.60252135148E-01  0.75642195132E-02 -0.27284885215E-01  0.66575245317E-01  0.51100000000E-03 0.  1.
</event>
<event>
 8    1  0.1123470E+005  0.1043930E+01  0.7957747E-01            NaN
         13   -1    0    0    0    0  0.00000000000E+00  0.00000000000E+00  0.74505805969E-08  0.10566000000E+00  0.10566000000E+00 0.  1.
     999900   -1    0    0    0    0 -0.00000000000E+00 -0.00000000000E+00 -0.74505805969E-08  0.93827000000E+00  0.93827000000E+00 0. -1.
     999902    2    1    2    0    0 -0.10877332907E-01  0.90822080007E-02 -0.17939474536E-01  0.10210689497E+01  0.10208129958E+01 0.  0.
     999903    2    3    3    0    0  0.10416559833E+00  0.40040627795E-01 -0.66839153655E-01  0.13169586805E+00  0.20557369713E-01 0.  0.
         14    1    1    2    0    0  0.10877332907E-01 -0.90822080007E-02  0.17939474536E-01  0.22861050282E-01  0.00000000000E+00 0. -1.
     999901    1    3    3    0    0 -0.11504293124E+00 -0.30958419794E-01  0.48899679119E-01  0.88937308167E+00  0.88000000000E+00 0. -1.
        -11    1    4    4    0    0  0.30791435764E-01  0.19325920189E-01 -0.14132582266E-01  0.39007623742E-01  0.51100000000E-03 0. -1.
         11    1    4    4    0    0  0.73374162567E-01  0.20714707605E-01 -0.52706571389E-01  0.92688244304E-01  0.51100000000E-03 0.  1.
</event>
<event>
 8    1  0.1123470E+005  0.1043930E+01  0.7957747E-01            NaN
         13   -1    0    0    0    0  0.00000000000E+00  0.00000000000E+00  0.74505805969E-08  0.10566000000E+00  0.10566000000E+00 0.  1.
     999900   -1    0    0    0    0 -0.00000000000E+00 -0.00000000000E+00 -0.74505805969E-08  0.93827000000E+00  0.93827000000E+00 0. -1.
     999902    2    1    2    0    0 -0.23233066331E-01  0.13253148967E-05 -0.18643571994E-02  0.10206222502E+01  0.10203560782E+01 0.  0.
     999903    2    3    3    0    0  0.99539999731E-01  0.75306038933E-01 -0.24517349676E-01  0.12862607100E+00  0.19088076367E-01 0.  0.
         14    1    1    2    0    0  0.23233066331E-01 -0.13253148967E-05  0.18643571994E-02  0.23307749798E-01  0.00000000000E+00 0. -1.
     999901    1    3    3    0    0 -0.12277306606E+00 -0.75304713618E-01  0.22652992477E-01  0.89199617920E+00  0.88000000000E+00 0. -1.
        -11    1    4    4    0    0  0.45100504756E-01  0.26080436109E-01 -0.17194732718E-01  0.54864967248E-01  0.51100000000E-03 0.  1.
         11    1    4    4    0    0  0.54439494975E-01  0.49225602824E-01 -0.73226169580E-02  0.73761103752E-01  0.51100000000E-03 0. -1.
</event>
<event>
 8    1  0.1123470E+005  0.1043930E+01  0.7957747E-01            NaN
         13   -1    0    0    0    0  0.00000000000E+00  0.00000000000E+00  0.74505805969E-08  0.10566000000E+00  0.10566000000E+00 0. -1.
     999900   -1    0    0    0    0 -0.00000000000E+00 -0.00000000000E+00 -0.74505805969E-08  0.93827000000E+00  0.93827000000E+00 0.  1.
     999902    2    1    2    0    0 -0.81932708352E-02 -0.16044512335E-01 -0.16063361769E-01  0.10197931474E+01  0.10195074673E+01 0.  0.
     999903    2    3    3    0    0  0.85975016820E-01  0.74388238747E-01  0.53831346252E-01  0.12741933609E+00  0.20311567864E-01 0.  0.
         14    1    1    2    0    0  0.81932708352E-02  0.16044512335E-01  0.16063361769E-01  0.24136852619E-01  0.00000000000E+00 0. -1.
     999901    1    3    3    0    0 -0.94168287656E-01 -0.90432751082E-01 -0.69894708021E-01  0.89237381129E+00  0.88000000000E+00 0.  1.
        -11    1    4    4    0    0  0.63260563577E-01  0.64211571796E-01  0.37404463282E-01  0.97592929309E-01  0.51100000000E-03 0. -1.
         11    1    4    4    0    0  0.22714453243E-01  0.10176666951E-01  0.16426882970E-01  0.29826406781E-01  0.51100000000E-03 0.  1.
</event>
<event>
 8    1  0.1123470E+005  0.1043930E+01  0.7957747E-01            NaN
         13   -1    0    0    0    0  0.00000000000E+00  0.00000000000E+00  0.74505805969E-08  0.10566000000E+00  0.10566000000E+00 0. -1.
     999900   -1    0    0    0    0 -0.00000000000E+00 -0.00000000000E+00 -0.74505805969E-08  0.93827000000E+00  0.93827000000E+00 0.  1.
     999902    2    1    2    0    0  0.11631864074E-01  0.23470848624E-01 -0.18058198999E-02  0.10176727728E+01  0.10173339818E+01 0.  0.
     999903    2    3    3    0    0  0.10195825926E+00  0.49638448155E-01 -0.58681350075E-01  0.13083658334E+00  0.28552557269E-01 0.  0.
         14    1    1    2    0    0 -0.11631864074E-01 -0.23470848624E-01  0.18058198999E-02  0.26257227243E-01  0.00000000000E+00 0. -1.
     999901    1    3    3    0    0 -0.90326395183E-01 -0.26167599531E-01  0.56875530176E-01  0.88683618942E+00  0.88000000000E+00 0.  1.
        -11    1    4    4    0    0  0.77453888718E-01  0.47656798022E-01 -0.37458404051E-01  0.98354808882E-01  0.51100000000E-03 0.  1.
         11    1    4    4    0    0  0.24504370540E-01  0.19816501333E-02 -0.21222946024E-01  0.32481774455E-01  0.51100000000E-03 0. -1.
</event>
<event>
 8    1  0.1123470E+005  0.1043930E+01  0.7957747E-01            NaN
         13   -1    0    0    0    0  0.00000000000E+00  0.00000000000E+00  0.74505805969E-08  0.10566000000E+00  0.10566000000E+00 0.  1.
     999900   -1    0    0    0    0 -0.00000000000E+00 -0.00000000000E+00 -0.74505805969E-08  0.93827000000E+00  0.93827000000E+00 0.  1.
     999902    2    1    2    0    0 -0.11099816548E-01 -0.20489655531E-01  0.13502304052E-01  0.10169977865E+01  0.10166411134E+01 0.  0.
     999903    2    3    3    0    0 -0.59313384273E-01 -0.66407942776E-01  0.93721172785E-01  0.13084424214E+00  0.20210518443E-01 0.  0.
         14    1    1    2    0    0  0.11099816548E-01  0.20489655531E-01 -0.13502304052E-01  0.26932213535E-01  0.00000000000E+00 0.  1.
     999901    1    3    3    0    0  0.48213567725E-01  0.45918287245E-01 -0.80218868733E-01  0.88615354432E+00  0.88000000000E+00 0.  1.
        -11    1    4    4    0    0 -0.44333793380E-01 -0.60791795100E-01  0.78996452120E-01  0.10909550016E+00  0.51100000000E-03 0.  1.
         11    1    4    4    0    0 -0.14979590893E-01 -0.56161476758E-02  0.14724720665E-01  0.21748741980E-01  0.51100000000E-03 0. -1.
</event>
<event>
 8    1  0.1123470E+005  0.1043930E+01  0.7957747E-01            NaN
         13   -1    0    0    0    0  0.00000000000E+00  0.00000000000E+00  0.74505805969E-08  0.10566000000E+00  0.10566000000E+00 0. -1.
     999900   -1    0    0    0    0 -0.00000000000E+00 -0.00000000000E+00 -0.74505805969E-08  0.93827000000E+00  0.93827000000E+00 0.  1.
     999902    2    1    2    0    0 -0.13865244138E-01 -0.11644072167E-01  0.14831751091E-01  0.10205246533E+01  0.10202562217E+01 0.  0.
     999903    2    3    3    0    0 -0.71663995137E-01 -0.38768010512E-02 -0.10673077728E+00  0.13025588807E+00  0.20600479942E-01 0.  0.
         14    1    1    2    0    0  0.13865244138E-01  0.11644072167E-01 -0.14831751091E-01  0.23405346656E-01  0.00000000000E+00 0.  1.
     999901    1    3    3    0    0  0.57798750999E-01 -0.77672711161E-02  0.12156252837E+00  0.89026876527E+00  0.88000000000E+00 0. -1.
        -11    1    4    4    0    0 -0.47022427864E-01 -0.95888549783E-02 -0.57437983777E-01  0.74849435291E-01  0.51100000000E-03 0. -1.
         11    1    4    4    0    0 -0.24641567273E-01  0.57120539271E-02 -0.49292793499E-01  0.55406452780E-01  0.51100000000E-03 0.  1.
</event>
<event>
 8    1  0.1123470E+005  0.1043930E+01  0.7957747E-01            NaN
         13   -1    0    0    0    0  0.00000000000E+00  0.00000000000E+00  0.74505805969E-08  0.10566000000E+00  0.10566000000E+00 0.  1.
     999900   -1    0    0    0    0 -0.00000000000E+00 -0.00000000000E+00 -0.74505805969E-08  0.93827000000E+00  0.93827000000E+00 0.  1.
     999902    2    1    2    0    0  0.19633927165E-01  0.17695460932E-02 -0.12660911081E-01  0.10205009356E+01  0.10202319533E+01 0.  0.
     999903    2    3    3    0    0  0.12560689531E+00  0.37726252027E-01  0.96448234929E-02  0.13313364948E+00  0.20764964786E-01 0.  0.
         14    1    1    2    0    0 -0.19633927165E-01 -0.17695460932E-02  0.12660911081E-01  0.23429064401E-01  0.00000000000E+00 0. -1.
     999901    1    3    3    0    0 -0.10597296814E+00 -0.35956705934E-01 -0.22305734574E-01  0.88736728612E+00  0.88000000000E+00 0. -1.
        -11    1    4    4    0    0  0.68965895698E-01  0.23005683454E-01 -0.47693004843E-02  0.72859890123E-01  0.51100000000E-03 0.  1.
         11    1    4    4    0    0  0.56640999611E-01  0.14720568574E-01  0.14414123977E-01  0.60273759357E-01  0.51100000000E-03 0. -1.
</event>
<event>
 8    1  0.1123470E+005  0.1043930E+01  0.7957747E-01            NaN
         13   -1    0    0    0    0  0.00000000000E+00  0.00000000000E+00  0.74505805969E-08  0.10566000000E+00  0.10566000000E+00 0. -1.
     999900   -1    0    0    0    0 -0.00000000000E+00 -0.00000000000E+00 -0.74505805969E-08  0.93827000000E+00  0.93827000000E+00 0. -1.
     999902    2    1    2    0    0 -0.61719364846E-02  0.16053806280E-01 -0.15893307592E-01  0.10205117438E+01  0.10202430125E+01 0.  0.
     999903    2    3    3    0    0 -0.46053482568E-01  0.98864828609E-02  0.11900532324E+00  0.12931804199E+00  0.18499276299E-01 0.  0.
         14    1    1    2    0    0  0.61719364846E-02 -0.16053806280E-01  0.15893307592E-01  0.23418256175E-01  0.00000000000E+00 0.  1.
     999901    1    3    3    0    0  0.39881546084E-01  0.61673234196E-02 -0.13489863083E+00  0.89119370184E+00  0.88000000000E+00 0. -1.
        -11    1    4    4    0    0 -0.35831094614E-01  0.12583676692E-01  0.10569851013E+00  0.11231496973E+00  0.51100000000E-03 0. -1.
         11    1    4    4    0    0 -0.10222387955E-01 -0.26971938309E-02  0.13306813109E-01  0.17003072257E-01  0.51100000000E-03 0.  1.
</event>
<event>
 8    1  0.1123470E+005  0.1043930E+01  0.7957747E-01            NaN
         13   -1    0    0    0    0  0.00000000000E+00  0.00000000000E+00  0.74505805969E-08  0.10566000000E+00  0.10566000000E+00 0.  1.
     999900   -1    0    0    0    0 -0.00000000000E+00 -0.00000000000E+00 -0.74505805969E-08  0.93827000000E+00  0.93827000000E+00 0.  1.
     999902    2    1    2    0    0 -0.11615059041E-01 -0.19793807293E-01 -0.16178652120E-01  0.10158505914E+01  0.10154624419E+01 0.  0.
     999903    2    3    3    0    0  0.31329270011E-01 -0.59561767166E-01 -0.10837370208E+00  0.12910055148E+00  0.19823365579E-01 0.  0.
         14    1    1    2    0    0  0.11615059041E-01  0.19793807293E-01  0.16178652120E-01  0.28079408613E-01  0.00000000000E+00 0.  1.
     999901    1    3    3    0    0 -0.42944329052E-01  0.39767959873E-01  0.92195049963E-01  0.88675003990E+00  0.88000000000E+00 0. -1.
        -11    1    4    4    0    0  0.20493037459E-01 -0.48768527012E-01 -0.95187377110E-01  0.10890009960E+00  0.51100000000E-03 0. -1.
         11    1    4    4    0    0  0.10836232552E-01 -0.10793240154E-01 -0.13186324973E-01  0.20200451882E-01  0.51100000000E-03 0.  1.
</event>
<event>
 8    1  0.1123470E+005  0.1043930E+01  0.7957747E-01            NaN
         13   -1    0    0    0    0  0.00000000000E+00  0.00000000000E+00  0.74505805969E-08  0.10566000000E+00  0.10566000000E+00 0. -1.
     999900   -1    0    0    0    0 -0.00000000000E+00 -0.00000000000E+00 -0.74505805969E-08  0.93827000000E+00  0.93827000000E+00 0.  1.
     999902    2    1    2    0    0 -0.12519951576E-01 -0.96595024980E-02 -0.16616252957E-01  0.10209919304E+01  0.10207342293E+01 0.  0.
     999903    2    3    3    0    0 -0.84039636406E-01 -0.27408248205E-01 -0.98747958032E-01  0.13410089971E+00  0.20445525915E-01 0.  0.
         14    1    1    2    0    0  0.12519951576E-01  0.96595024980E-02  0.16616252957E-01  0.22938069629E-01  0.00000000000E+00 0.  1.
     999901    1    3    3    0    0  0.71519684830E-01  0.17748745707E-01  0.82131705075E-01  0.88689103066E+00  0.88000000000E+00 0.  1.
        -11    1    4    4    0    0 -0.20910823061E-01 -0.13076796312E-02 -0.13804931820E-01  0.25096011848E-01  0.51100000000E-03 0.  1.
         11    1    4    4    0    0 -0.63128813344E-01 -0.26100568574E-01 -0.84943026213E-01  0.10900488786E+00  0.51100000000E-03 0. -1.
</event>
<event>
 8    1  0.1123470E+005  0.1043930E+01  0.7957747E-01            NaN
         13   -1    0    0    0    0  0.00000000000E+00  0.00000000000E+00  0.74505805969E-08  0.10566000000E+00  0.10566000000E+00 0.  1.
     999900   -1    0    0    0    0 -0.00000000000E+00 -0.00000000000E+00 -0.74505805969E-08  0.93827000000E+00  0.93827000000E+00 0. -1.
     999902    2    1    2    0    0 -0.55537296311E-02  0.23227857050E-01 -0.36828387602E-02  0.10197651380E+01  0.10194787865E+01 0.  0.
     999903    2    3    3    0    0 -0.36016666150E-01 -0.11823140065E+00 -0.22352347135E-01  0.12775209847E+00  0.23347524491E-01 0.  0.
         14    1    1    2    0    0  0.55537296311E-02 -0.23227857050E-01  0.36828387602E-02  0.24164862037E-01  0.00000000000E+00 0.  1.
     999901    1    3    3    0    0  0.30462936519E-01  0.14145925770E+00  0.18669508374E-01  0.89201303950E+00  0.88000000000E+00 0. -1.
        -11    1    4    4    0    0 -0.25355588600E-01 -0.10793872894E+00 -0.18274073931E-01  0.11237383137E+00  0.51100000000E-03 0.  1.
         11    1    4    4    0    0 -0.10661077550E-01 -0.10292671709E-01 -0.40782732035E-02  0.15378267092E-01  0.51100000000E-03 0. -1.
</event>
<event>
 7    1  0.1123470E+005  0.1043930E+01  0.7957747E-01            NaN
         13   -1    0    0    0    0  0.00000000000E+00  0.00000000000E+00  0.74505805969E-08  0.10566000000E+00  0.10566000000E+00 0. -1.
     999900   -1    0    0    0    0 -0.00000000000E+00 -0.00000000000E+00 -0.74505805969E-08  0.93827000000E+00  0.93827000000E+00 0. -1.
     999903    2    1    2    0    0  0.35336550211E-01  0.85740708594E-01  0.17874670871E-01  0.96545017140E-01  0.20032363436E-01 0.  0.
         14    1    1    2    0    0 -0.62242147775E-01 -0.51311377163E-02  0.76681971800E-02  0.62922291614E-01  0.00000000000E+00 0. -1.
     999901    1    1    2    0    0  0.26905597564E-01 -0.80609570878E-01 -0.25542868051E-01  0.88446269125E+00  0.88000000000E+00 0. -1.
        -11    1    3    3    0    0  0.27103836475E-01  0.59761059290E-01  0.34665483338E-02  0.65713622921E-01  0.51100000000E-03 0. -1.
         11    1    3    3    0    0  0.82327137358E-02  0.25979649304E-01  0.14408122537E-01  0.30831394219E-01  0.51100000000E-03 0.  1.
</event>
<event>
 8    1  0.1123470E+005  0.1043930E+01  0.7957747E-01            NaN
         13   -1    0    0    0    0  0.00000000000E+00  0.00000000000E+00  0.74505805969E-08  0.10566000000E+00  0.10566000000E+00 0. -1.
     999900   -1    0    0    0    0 -0.00000000000E+00 -0.00000000000E+00 -0.74505805969E-08  0.93827000000E+00  0.93827000000E+00 0.  1.
     999902    2    1    2    0    0  0.69623123770E-02  0.21247955618E-01 -0.67659618801E-02  0.10205691856E+01  0.10203017862E+01 0.  0.
     999903    2    3    3    0    0 -0.52631212039E-01 -0.91300134791E-01 -0.71739158695E-01  0.12903120144E+00  0.19919461868E-01 0.  0.
         14    1    1    2    0    0 -0.69623123770E-02 -0.21247955618E-01  0.67659618801E-02  0.23360814450E-01  0.00000000000E+00 0. -1.
     999901    1    3    3    0    0  0.59593524416E-01  0.11254809041E+00  0.64973196815E-01  0.89153798411E+00  0.88000000000E+00 0. -1.
        -11    1    4    4    0    0 -0.14772537560E-01 -0.45262376237E-01 -0.33322328439E-01  0.58116686607E-01  0.51100000000E-03 0.  1.
         11    1    4    4    0    0 -0.37858674480E-01 -0.46037758554E-01 -0.38416830257E-01  0.70914514833E-01  0.51100000000E-03 0. -1.
</event>
<event>
 8    1  0.1123470E+005  0.1043930E+01  0.7957747E-01            NaN
         13   -1    0    0    0    0  0.00000000000E+00  0.00000000000E+00  0.74505805969E-08  0.10566000000E+00  0.10566000000E+00 0. -1.
     999900   -1    0    0    0    0 -0.00000000000E+00 -0.00000000000E+00 -0.74505805969E-08  0.93827000000E+00  0.93827000000E+00 0. -1.
     999902    2    1    2    0    0  0.22570360667E-01  0.43001591870E-02  0.38636700284E-02  0.10206310623E+01  0.10203650939E+01 0.  0.
     999903    2    3    3    0    0  0.56095162631E-01  0.54703142629E-01  0.10527909886E+00  0.13274060610E+00  0.19931853071E-01 0.  0.
         14    1    1    2    0    0 -0.22570360667E-01 -0.43001591870E-02 -0.38636700284E-02  0.23298937653E-01  0.00000000000E+00 0. -1.
     999901    1    3    3    0    0 -0.33524801964E-01 -0.50402983442E-01 -0.10141542883E+00  0.88789045625E+00  0.88000000000E+00 0. -1.
        -11    1    4    4    0    0  0.39891681412E-01  0.44109230668E-01  0.65344564104E-01  0.88358042390E-01  0.51100000000E-03 0. -1.
         11    1    4    4    0    0  0.16203481219E-01  0.10593911960E-01  0.39934534759E-01  0.44382563712E-01  0.51100000000E-03 0.  1.
</event>
<event>
 8    1  0.1123470E+005  0.1043930E+01  0.7957747E-01            NaN
         13   -1    0    0    0    0  0.00000000000E+00  0.00000000000E+00  0.74505805969E-08  0.10566000000E+00  0.10566000000E+00 0. -1.
     999900   -1    0    0    0    0 -0.00000000000E+00 -0.00000000000E+00 -0.74505805969E-08  0.93827000000E+00  0.93827000000E+00 0. -1.
     999902    2    1    2    0    0  0.12370530924E-01 -0.85852355909E-02 -0.17651710999E-01  0.10207282930E+01  0.10204645653E+01 0.  0.
     999903    2    3    3    0    0 -0.96618637339E-01 -0.20339092319E-02  0.82080272852E-01  0.12838977694E+00  0.20185781230E-01 0.  0.
         14    1    1    2    0    0 -0.12370530924E-01  0.85852355909E-02  0.17651710999E-01  0.23201706978E-01  0.00000000000E+00 0. -1.
     999901    1    3    3    0    0  0.10898916826E+00 -0.65513263589E-02 -0.99731983851E-01  0.89233851608E+00  0.88000000000E+00 0. -1.
        -11    1    4    4    0    0 -0.19907586586E-01 -0.13200133522E-02  0.28589035337E-01  0.34866151228E-01  0.51100000000E-03 0. -1.
         11    1    4    4    0    0 -0.76711050753E-01 -0.71389587975E-03  0.53491237515E-01  0.93523625715E-01  0.51100000000E-03 0.  1.
</event>
<event>
 8    1  0.1123470E+005  0.1043930E+01  0.7957747E-01            NaN
         13   -1    0    0    0    0  0.00000000000E+00  0.00000000000E+00  0.74505805969E-08  0.10566000000E+00  0.10566000000E+00 0.  1.
     999900   -1    0    0    0    0 -0.00000000000E+00 -0.00000000000E+00 -0.74505805969E-08  0.93827000000E+00  0.93827000000E+00 0. -1.
     999902    2    1    2    0    0  0.20655295874E-01 -0.10236957271E-01  0.22633127068E-02  0.10207662541E+01  0.10205033985E+01 0.  0.
     999903    2    3    3    0    0 -0.10421802366E+00 -0.72667384945E-01  0.16153078193E-01  0.12965243988E+00  0.20171463529E-01 0.  0.
         14    1    1    2    0    0 -0.20655295874E-01  0.10236957271E-01 -0.22633127068E-02  0.23163745946E-01  0.00000000000E+00 0. -1.
     999901    1    3    3    0    0  0.12487331953E+00  0.62430427674E-01 -0.13889765486E-01  0.89111381418E+00  0.88000000000E+00 0.  1.
        -11    1    4    4    0    0 -0.95037506273E-01 -0.58299105750E-01  0.12367552974E-01  0.11217901237E+00  0.51100000000E-03 0. -1.
         11    1    4    4    0    0 -0.91805173867E-02 -0.14368279196E-01  0.37855252190E-02  0.17473427503E-01  0.51100000000E-03 0.  1.
</event>
<event>
 8    1  0.1123470E+005  0.1043930E+01  0.7957747E-01            NaN
         13   -1    0    0    0    0  0.00000000000E+00  0.00000000000E+00  0.74505805969E-08  0.10566000000E+00  0.10566000000E+00 0.  1.
     999900   -1    0    0    0    0 -0.00000000000E+00 -0.00000000000E+00 -0.74505805969E-08  0.93827000000E+00  0.93827000000E+00 0.  1.
     999902    2    1    2    0    0  0.21939933279E-01 -0.15169791196E-02  0.95107614460E-02  0.10199692721E+01  0.10196877951E+01 0.  0.
     999903    2    3    3    0    0 -0.88580383648E-01 -0.72480450013E-01 -0.53484212750E-01  0.12799454072E+00  0.20546080882E-01 0.  0.
         14    1    1    2    0    0 -0.21939933279E-01  0.15169791196E-02 -0.95107614460E-02  0.23960727894E-01  0.00000000000E+00 0. -1.
     999901    1    3    3    0    0  0.11052031693E+00  0.70963470893E-01  0.62994974196E-01  0.89197473138E+00  0.88000000000E+00 0.  1.
        -11    1    4    4    0    0 -0.52656439470E-01 -0.38335872106E-01 -0.19840094917E-01  0.68089868520E-01  0.51100000000E-03 0.  1.
         11    1    4    4    0    0 -0.35923944179E-01 -0.34144577907E-01 -0.33644117833E-01  0.59904672202E-01  0.51100000000E-03 0. -1.
</event>
<event>
 8    1  0.1123470E+005  0.1043930E+01  0.7957747E-01            NaN
         13   -1    0    0    0    0  0.00000000000E+00  0.00000000000E+00  0.74505805969E-08  0.10566000000E+00  0.10566000000E+00 0.  1.
     999900   -1    0    0    0    0 -0.00000000000E+00 -0.00000000000E+00 -0.74505805969E-08  0.93827000000E+00  0.93827000000E+00 0.  1.
     999902    2    1    2    0    0  0.10251516702E-01 -0.15213109837E-01 -0.14787856819E-01  0.10203670415E+01  0.10200949398E+01 0.  0.
     999903    2    3    3    0    0  0.38629100415E-03  0.91111864416E-01 -0.91525839654E-01  0.13059682347E+00  0.19417258224E-01 0.  0.
         14    1    1    2    0    0 -0.10251516702E-01  0.15213109837E-01  0.14787856819E-01  0.23562958535E-01  0.00000000000E+00 0.  1.
     999901    1    3    3    0    0  0.98652256979E-02 -0.10632497425E+00  0.76737982835E-01  0.88977021800E+00  0.88000000000E+00 0. -1.
        -11    1    4    4    0    0  0.89132611217E-02  0.60782261902E-01 -0.64625023384E-01  0.89166049336E-01  0.51100000000E-03 0. -1.
         11    1    4    4    0    0 -0.85269701176E-02  0.30329602514E-01 -0.26900816270E-01  0.41430774130E-01  0.51100000000E-03 0.  1.
</event>
<event>
 8    1  0.1123470E+005  0.1043930E+01  0.7957747E-01            NaN
         13   -1    0    0    0    0  0.00000000000E+00  0.00000000000E+00  0.74505805969E-08  0.10566000000E+00  0.10566000000E+00 0.  1.
     999900   -1    0    0    0    0 -0.00000000000E+00 -0.00000000000E+00 -0.74505805969E-08  0.93827000000E+00  0.93827000000E+00 0. -1.
     999902    2    1    2    0    0  0.10239932179E-01 -0.44403332610E-02 -0.22013907459E-01  0.10192483288E+01  0.10189494447E+01 0.  0.
     999903    2    3    3    0    0  0.12026568545E+00 -0.22569620341E-01 -0.46468906064E-01  0.13187445926E+00  0.16071431622E-01 0.  0.
         14    1    1    2    0    0 -0.10239932179E-01  0.44403332610E-02  0.22013907459E-01  0.24681671178E-01  0.00000000000E+00 0.  1.
     999901    1    3    3    0    0 -0.11002575327E+00  0.18129287080E-01  0.24454998605E-01  0.88737386957E+00  0.88000000000E+00 0. -1.
        -11    1    4    4    0    0  0.73568764750E-01 -0.16064711384E-01 -0.36490944897E-01  0.83679676619E-01  0.51100000000E-03 0.  1.
         11    1    4    4    0    0  0.46696920699E-01 -0.65049089573E-02 -0.99779611672E-02  0.48194782637E-01  0.51100000000E-03 0. -1.
</event>
<event>
 8    1  0.1123470E+005  0.1043930E+01  0.7957747E-01            NaN
         13   -1    0    0    0    0  0.00000000000E+00  0.00000000000E+00  0.74505805969E-08  0.10566000000E+00  0.10566000000E+00 0. -1.
     999900   -1    0    0    0    0 -0.00000000000E+00 -0.00000000000E+00 -0.74505805969E-08  0.93827000000E+00  0.93827000000E+00 0.  1.
     999902    2    1    2    0    0 -0.22771411689E-01 -0.30346615271E-02 -0.39178744377E-02  0.10206255777E+01  0.10203594826E+01 0.  0.
     999903    2    3    3    0    0  0.34020896604E-01 -0.12227498121E+00  0.21878974286E-01  0.13039577725E+00  0.20390605038E-01 0.  0.
         14    1    1    2    0    0  0.22771411689E-01  0.30346615271E-02  0.39178744377E-02  0.23304422349E-01  0.00000000000E+00 0. -1.
     999901    1    3    3    0    0 -0.56792308294E-01  0.11924031968E+00 -0.25796848724E-01  0.89022980040E+00  0.88000000000E+00 0. -1.
        -11    1    4    4    0    0  0.23475145412E-01 -0.48342858619E-01  0.11953450339E-01  0.55056884470E-01  0.51100000000E-03 0. -1.
         11    1    4    4    0    0  0.10545751192E-01 -0.73932122588E-01  0.99255239476E-02  0.75338892779E-01  0.51100000000E-03 0.  1.
</event>
<event>
 8    1  0.1123470E+005  0.1043930E+01  0.7957747E-01            NaN
         13   -1    0    0    0    0  0.00000000000E+00  0.00000000000E+00  0.74505805969E-08  0.10566000000E+00  0.10566000000E+00 0. -1.
     999900   -1    0    0    0    0 -0.00000000000E+00 -0.00000000000E+00 -0.74505805969E-08  0.93827000000E+00  0.93827000000E+00 0.  1.
     999902    2    1    2    0    0 -0.10304062246E-01 -0.19510353076E-01 -0.70768980168E-02  0.10207586802E+01  0.10204956507E+01 0.  0.
     999903    2    3    3    0    0 -0.14967716342E-01  0.29750973397E-01 -0.12552347023E+00  0.13144545167E+00  0.20312858881E-01 0.  0.
         14    1    1    2    0    0  0.10304062246E-01  0.19510353076E-01  0.70768980168E-02  0.23171319804E-01  0.00000000000E+00 0. -1.
     999901    1    3    3    0    0  0.46636540954E-02 -0.49261326473E-01  0.11844657222E+00  0.88931322852E+00  0.88000000000E+00 0. -1.
        -11    1    4    4    0    0 -0.34928594498E-02  0.92008118974E-02 -0.75713146252E-01  0.76351795284E-01  0.51100000000E-03 0.  1.
         11    1    4    4    0    0 -0.11474856892E-01  0.20550161500E-01 -0.49810323980E-01  0.55093656390E-01  0.51100000000E-03 0. -1.
</event>
<event>
 8    1  0.1123470E+005  0.1043930E+01  0.7957747E-01            NaN
         13   -1    0    0    0    0  0.00000000000E+00  0.00000000000E+00  0.74505805969E-08  0.10566000000E+00  0.10566000000E+00 0. -1.
     999900   -1    0    0    0    0 -0.00000000000E+00 -0.00000000000E+00 -0.74505805969E-08  0.93827000000E+00  0.93827000000E+00 0. -1.
     999902    2    1    2    0    0 -0.14240046775E-03 -0.47697161044E-02  0.24715582272E-01  0.10187579823E+01  0.10184469529E+01 0.  0.
     999903    2    3    3    0    0  0.92384009373E-01 -0.86671855989E-01  0.21264391389E-01  0.13011800581E+00  0.20777518797E-01 0.  0.
         14    1    1    2    0    0  0.14240046775E-03  0.47697161044E-02 -0.24715582272E-01  0.25172017731E-01  0.00000000000E+00 0.  1.
     999901    1    3    3    0    0 -0.92526409841E-01  0.81902139885E-01  0.34511908828E-02  0.88863997646E+00  0.88000000000E+00 0.  1.
        -11    1    4    4    0    0  0.76102305592E-01 -0.71343857213E-01  0.25418902840E-01  0.10736800557E+00  0.51100000000E-03 0.  1.
         11    1    4    4    0    0  0.16281703781E-01 -0.15327998776E-01 -0.41545114506E-02  0.22750000239E-01  0.51100000000E-03 0. -1.
</event>
<event>
 8    1  0.1123470E+005  0.1043930E+01  0.7957747E-01            NaN
         13   -1    0    0    0    0  0.00000000000E+00  0.00000000000E+00  0.74505805969E-08  0.10566000000E+00  0.10566000000E+00 0.  1.
     999900   -1    0    0    0    0 -0.00000000000E+00 -0.00000000000E+00 -0.74505805969E-08  0.93827000000E+00  0.93827000000E+00 0.  1.
     999902    2    1    2    0    0  0.18463965771E-01 -0.75756863974E-02 -0.13075049439E-01  0.10200707047E+01  0.10197916339E+01 0.  0.
     999903    2    3    3    0    0  0.17284885702E-01 -0.12544151494E+00  0.28206922327E-01  0.13125241898E+00  0.19930531231E-01 0.  0.
         14    1    1    2    0    0 -0.18463965771E-01  0.75756863974E-02  0.13075049439E-01  0.23859295342E-01  0.00000000000E+00 0.  1.
     999901    1    3    3    0    0  0.11790800690E-02  0.11786582855E+00 -0.41281971765E-01  0.88881828568E+00  0.88000000000E+00 0.  1.
        -11    1    4    4    0    0  0.20493722533E-01 -0.10649977014E+00  0.19674024394E-01  0.11022487043E+00  0.51100000000E-03 0.  1.
         11    1    4    4    0    0 -0.32088368309E-02 -0.18941744799E-01  0.85328979330E-02  0.21027548549E-01  0.51100000000E-03 0. -1.
</event>
<event>
 8    1  0.1123470E+005  0.1043930E+01  0.7957747E-01            NaN
         13   -1    0    0    0    0  0.00000000000E+00  0.00000000000E+00  0.74505805969E-08  0.10566000000E+00  0.10566000000E+00 0. -1.
     999900   -1    0    0    0    0 -0.00000000000E+00 -0.00000000000E+00 -0.74505805969E-08  0.93827000000E+00  0.93827000000E+00 0.  1.
     999902    2    1    2    0    0  0.21205465742E-01  0.10482613119E-01 -0.88445288512E-02  0.10186756411E+01  0.10183625479E+01 0.  0.
     999903    2    3    3    0    0  0.31949080825E-02 -0.62903227181E-01  0.10909443079E+00  0.12759794526E+00  0.20312985408E-01 0.  0.
         14    1    1    2    0    0 -0.21205465742E-01 -0.10482613119E-01  0.88445288512E-02  0.25254358945E-01  0.00000000000E+00 0.  1.
     999901    1    3    3    0    0  0.18010557660E-01  0.73385840300E-01 -0.11793895965E+00  0.89107769580E+00  0.88000000000E+00 0.  1.
        -11    1    4    4    0    0 -0.38594309283E-02 -0.46915796984E-01  0.90891307039E-01  0.10235955270E+00  0.51100000000E-03 0.  1.
         11    1    4    4    0    0  0.70543390108E-02 -0.15987430197E-01  0.18203123756E-01  0.25238392553E-01  0.51100000000E-03 0. -1.
</event>
<event>
 8    1  0.1123470E+005  0.1043930E+01  0.7957747E-01            NaN
         13   -1    0    0    0    0  0.00000000000E+00  0.00000000000E+00  0.74505805969E-08  0.10566000000E+00  0.10566000000E+00 0.  1.
     999900   -1    0    0    0    0 -0.00000000000E+00 -0.00000000000E+00 -0.74505805969E-08  0.93827000000E+00  0.93827000000E+00 0. -1.
     999902    2    1    2    0    0 -0.10249702211E-02  0.21498215891E-01  0.98218811809E-02  0.10202721641E+01  0.10199978410E+01 0.  0.
     999903    2    3    3    0    0 -0.32333340020E-02 -0.10364151914E+00  0.74212834403E-01  0.12908698410E+00  0.20096908637E-01 0.  0.
         14    1    1    2    0    0  0.10249702211E-02 -0.21498215891E-01 -0.98218811809E-02  0.23657835919E-01  0.00000000000E+00 0. -1.
     999901    1    3    3    0    0  0.22083637809E-02  0.12513973503E+00 -0.64390953222E-01  0.89118517998E+00  0.88000000000E+00 0. -1.
        -11    1    4    4    0    0 -0.71892636573E-02 -0.17628452033E-01  0.18356503255E-01  0.26451279095E-01  0.51100000000E-03 0. -1.
         11    1    4    4    0    0  0.39559296553E-02 -0.86013067105E-01  0.55856331148E-01  0.10263570501E+00  0.51100000000E-03 0.  1.
</event>
<event>
 8    1  0.1123470E+005  0.1043930E+01  0.7957747E-01            NaN
         13   -1    0    0    0    0  0.00000000000E+00  0.00000000000E+00  0.74505805969E-08  0.10566000000E+00  0.10566000000E+00 0. -1.
     999900   -1    0    0    0    0 -0.00000000000E+00 -0.00000000000E+00 -0.74505805969E-08  0.93827000000E+00  0.93827000000E+00 0.  1.
     999902    2    1    2    0    0 -0.15813040084E-01 -0.16192307237E-01 -0.82943224999E-02  0.10198252528E+01  0.10195403413E+01 0.  0.
     999903    2    3    3    0    0  0.95594433633E-01 -0.40203404924E-01 -0.75853191450E-01  0.12990820120E+00  0.19178753252E-01 0.  0.
         14    1    1    2    0    0  0.15813040084E-01  0.16192307237E-01  0.82943224999E-02  0.24104747169E-01  0.00000000000E+00 0.  1.
     999901    1    3    3    0    0 -0.11140747372E+00  0.24011097687E-01  0.67558868951E-01  0.88991705163E+00  0.88000000000E+00 0.  1.
        -11    1    4    4    0    0  0.30741524098E-01 -0.22905792609E-01 -0.27361674557E-01  0.47102430876E-01  0.51100000000E-03 0. -1.
         11    1    4    4    0    0  0.64852909535E-01 -0.17297612314E-01 -0.48491516894E-01  0.82805770322E-01  0.51100000000E-03 0.  1.
</event>
<event>
 8    1  0.1123470E+005  0.1043930E+01  0.7957747E-01            NaN
         13   -1    0    0    0    0  0.00000000000E+00  0.00000000000E+00  0.74505805969E-08  0.10566000000E+00  0.10566000000E+00 0.  1.
     999900   -1    0    0    0    0 -0.00000000000E+00 -0.00000000000E+00 -0.74505805969E-08  0.93827000000E+00  0.93827000000E+00 0.  1.
     999902    2    1    2    0    0 -0.81214206738E-02  0.21837060200E-01  0.40372722358E-02  0.10202844034E+01  0.10200103674E+01 0.  0.
     999903    2    3    3    0    0 -0.10664044868E+00  0.21491881342E-01 -0.70449528185E-01  0.13165939729E+00  0.23172712711E-01 0.  0.
         14    1    1    2    0    0  0.81214206738E-02 -0.21837060200E-01 -0.40372722358E-02  0.23645596610E-01  0.00000000000E+00 0. -1.
     999901    1    3    3    0    0  0.98519028010E-01  0.34517885788E-03  0.74486800421E-01  0.88862500610E+00  0.88000000000E+00 0. -1.
        -11    1    4    4    0    0 -0.20128904149E-01  0.48483259815E-02 -0.25200348126E-01  0.32618977815E-01  0.51100000000E-03 0. -1.
         11    1    4    4    0    0 -0.86511544535E-01  0.16643555360E-01 -0.45249180060E-01  0.99040419475E-01  0.51100000000E-03 0.  1.
</event>
<event>
 8    1  0.1123470E+005  0.1043930E+01  0.7957747E-01            NaN
         13   -1    0    0    0    0  0.00000000000E+00  0.00000000000E+00  0.74505805969E-08  0.10566000000E+00  0.10566000000E+00 0. -1.
     999900   -1    0    0    0    0 -0.00000000000E+00 -0.00000000000E+00 -0.74505805969E-08  0.93827000000E+00  0.93827000000E+00 0.  1.
     999902    2    1    2    0    0  0.16767846332E-01 -0.16015577569E-01 -0.78115765744E-03  0.10207293620E+01  0.10204656588E+01 0.  0.
     999903    2    3    3    0    0 -0.43586578576E-01  0.85085241900E-01  0.84352386789E-01  0.12881470652E+00  0.18401500955E-01 0.  0.
         14    1    1    2    0    0 -0.16767846332E-01  0.16015577569E-01  0.78115765744E-03  0.23200637982E-01  0.00000000000E+00 0.  1.
     999901    1    3    3    0    0  0.60354424908E-01 -0.10110081947E+00 -0.85133544447E-01  0.89191465550E+00  0.88000000000E+00 0. -1.
        -11    1    4    4    0    0 -0.91543027697E-02  0.75431017497E-02  0.59003272666E-02  0.13258002340E-01  0.51100000000E-03 0.  1.
         11    1    4    4    0    0 -0.34432275806E-01  0.77542140150E-01  0.78452059523E-01  0.11555670418E+00  0.51100000000E-03 0. -1.
</event>
<event>
 8    1  0.1123470E+005  0.1043930E+01  0.7957747E-01            NaN
         13   -1    0    0    0    0  0.00000000000E+00  0.00000000000E+00  0.74505805969E-08  0.10566000000E+00  0.10566000000E+00 0. -1.
     999900   -1    0    0    0    0 -0.00000000000E+00 -0.00000000000E+00 -0.74505805969E-08  0.93827000000E+00  0.93827000000E+00 0.  1.
     999902    2    1    2    0    0  0.23216515864E-01 -0.82195132653E-02 -0.28614989500E-04  0.10193014023E+01  0.10190038179E+01 0.  0.
     999903    2    3    3    0    0  0.92868270083E-01 -0.56755075211E-01 -0.72377633787E-01  0.13226056434E+00  0.20215856561E-01 0.  0.
         14    1    1    2    0    0 -0.23216515864E-01  0.82195132653E-02  0.28614989500E-04  0.24628597727E-01  0.00000000000E+00 0.  1.
     999901    1    3    3    0    0 -0.69651754219E-01  0.48535561946E-01  0.72349018798E-01  0.88704083793E+00  0.88000000000E+00 0. -1.
        -11    1    4    4    0    0  0.36347243421E-01 -0.33971029002E-01 -0.33028858298E-01  0.59718669755E-01  0.51100000000E-03 0. -1.
         11    1    4    4    0    0  0.56521026662E-01 -0.22784046209E-01 -0.39348775490E-01  0.72541894586E-01  0.51100000000E-03 0.  1.
</event>
<event>
 8    1  0.1123470E+005  0.1043930E+01  0.7957747E-01            NaN
         13   -1    0    0    0    0  0.00000000000E+00  0.00000000000E+00  0.74505805969E-08  0.10566000000E+00  0.10566000000E+00 0.  1.
     999900   -1    0    0    0    0 -0.00000000000E+00 -0.00000000000E+00 -0.74505805969E-08  0.93827000000E+00  0.93827000000E+00 0. -1.
     999902    2    1    2    0    0  0.10119432073E-01  0.10082967578E-01 -0.17953417768E-01  0.10209867145E+01  0.10207288949E+01 0.  0.
     999903    2    3    3    0    0  0.11648936868E+00 -0.37273181159E-01  0.43353399441E-01  0.13120264289E+00  0.19379195246E-01 0.  0.
         14    1    1    2    0    0 -0.10119432073E-01 -0.10082967578E-01  0.17953417768E-01  0.22943285515E-01  0.00000000000E+00 0.  1.
     999901    1    3    3    0    0 -0.10636993660E+00  0.47356148737E-01 -0.61306817209E-01  0.88978407160E+00  0.88000000000E+00 0. -1.
        -11    1    4    4    0    0  0.78951237087E-01 -0.24466674292E-01  0.19531691355E-01  0.84933291922E-01  0.51100000000E-03 0.  1.
         11    1    4    4    0    0  0.37538131590E-01 -0.12806506867E-01  0.23821708086E-01  0.46269350964E-01  0.51100000000E-03 0. -1.
</event>
<event>
 8    1  0.1123470E+005  0.1043930E+01  0.7957747E-01            NaN
         13   -1    0    0    0    0  0.00000000000E+00  0.00000000000E+00  0.74505805969E-08  0.10566000000E+00  0.10566000000E+00 0. -1.
     999900   -1    0    0    0    0 -0.00000000000E+00 -0.00000000000E+00 -0.74505805969E-08  0.93827000000E+00  0.93827000000E+00 0.  1.
     999902    2    1    2    0    0  0.34094913451E-01  0.16599883804E-01  0.37669588493E-02  0.10058221367E+01  0.10050999758E+01 0.  0.
     999903    2    3    3    0    0 -0.35193027315E-01  0.43397602996E-01 -0.10042885345E+00  0.11656643457E+00  0.19490457817E-01 0.  0.
         14    1    1    2    0    0 -0.34094913451E-01 -0.16599883804E-01 -0.37669588493E-02  0.38107863290E-01  0.00000000000E+00 0. -1.
     999901    1    3    3    0    0  0.69287940766E-01 -0.26797719192E-01  0.10419581230E+00  0.88925570214E+00  0.88000000000E+00 0. -1.
        -11    1    4    4    0    0 -0.14293086562E-01  0.31345122119E-01 -0.50799549590E-01  0.61381303046E-01  0.51100000000E-03 0.  1.
         11    1    4    4    0    0 -0.20899940753E-01  0.12052480877E-01 -0.49629303859E-01  0.55185131524E-01  0.51100000000E-03 0. -1.
</event>
<event>
 8    1  0.1123470E+005  0.1043930E+01  0.7957747E-01            NaN
         13   -1    0    0    0    0  0.00000000000E+00  0.00000000000E+00  0.74505805969E-08  0.10566000000E+00  0.10566000000E+00 0.  1.
     999900   -1    0    0    0    0 -0.00000000000E+00 -0.00000000000E+00 -0.74505805969E-08  0.93827000000E+00  0.93827000000E+00 0. -1.
     999902    2    1    2    0    0 -0.11437908934E-01  0.12885726836E-01  0.12954459152E-01  0.10223734296E+01  0.10221461460E+01 0.  0.
     999903    2    3    3    0    0  0.91232819315E-01  0.26666333970E-01 -0.87137527100E-01  0.13066182300E+00  0.21096034549E-01 0.  0.
         14    1    1    2    0    0  0.11437908934E-01 -0.12885726836E-01 -0.12954459152E-01  0.21556570432E-01  0.00000000000E+00 0.  1.
     999901    1    3    3    0    0 -0.10267072825E+00 -0.13780607134E-01  0.10009198625E+00  0.89171160657E+00  0.88000000000E+00 0.  1.
        -11    1    4    4    0    0  0.45144233239E-02  0.12559525046E-03 -0.12191864274E-01  0.13011474459E-01  0.51100000000E-03 0. -1.
         11    1    4    4    0    0  0.86718395991E-01  0.26540738720E-01 -0.74945662825E-01  0.11765034854E+00  0.51100000000E-03 0.  1.
</event>
<event>
 8    1  0.1123470E+005  0.1043930E+01  0.7957747E-01            NaN
         13   -1    0    0    0    0  0.00000000000E+00  0.00000000000E+00  0.74505805969E-08  0.10566000000E+00  0.10566000000E+00 0. -1.
     999900   -1    0    0    0    0 -0.00000000000E+00 -0.00000000000E+00 -0.74505805969E-08  0.93827000000E+00  0.93827000000E+00 0. -1.
     999902    2    1    2    0    0  0.24042084573E-01  0.35635806407E-02  0.10215163525E-02  0.10196037912E+01  0.10193135566E+01 0.  0.
     999903    2    3    3    0    0  0.10439481794E+00 -0.36023860428E-01 -0.69927306920E-01  0.13221579110E+00  0.19879402159E-01 0.  0.
         14    1    1    2    0    0 -0.24042084573E-01 -0.35635806407E-02 -0.10215163525E-02  0.24326208772E-01  0.00000000000E+00 0.  1.
     999901    1    3    3    0    0 -0.80352733366E-01  0.39587441069E-01  0.70948823272E-01  0.88738800013E+00  0.88000000000E+00 0.  1.
        -11    1    4    4    0    0  0.10685518982E-01 -0.91135999308E-02 -0.13899102097E-01  0.19765732461E-01  0.51100000000E-03 0. -1.
         11    1    4    4    0    0  0.93709298956E-01 -0.26910260497E-01 -0.56028204823E-01  0.11245005864E+00  0.51100000000E-03 0.  1.
</event>
<event>
 8    1  0.1123470E+005  0.1043930E+01  0.7957747E-01            NaN
         13   -1    0    0    0    0  0.00000000000E+00  0.00000000000E+00  0.74505805969E-08  0.10566000000E+00  0.10566000000E+00 0. -1.
     999900   -1    0    0    0    0 -0.00000000000E+00 -0.00000000000E+00 -0.74505805969E-08  0.93827000000E+00  0.93827000000E+00 0. -1.
     999902    2    1    2    0    0 -0.68489185442E-02 -0.87338169526E-02  0.21251888450E-01  0.10199543873E+01  0.10196725563E+01 0.  0.
     999903    2    3    3    0    0 -0.12850618345E+00 -0.75969529354E-02  0.16890421502E-01  0.13157338512E+00  0.21324081555E-01 0.  0.
         14    1    1    2    0    0  0.68489185442E-02  0.87338169526E-02 -0.21251888450E-01  0.23975612744E-01  0.00000000000E+00 0.  1.
     999901    1    3    3    0    0  0.12165726491E+00 -0.11368640172E-02  0.43614669482E-02  0.88838100214E+00  0.88000000000E+00 0.  1.
        -11    1    4    4    0    0 -0.84435265059E-01  0.29491179048E-02  0.45766072902E-02  0.84612160694E-01  0.51100000000E-03 0. -1.
         11    1    4    4    0    0 -0.44070918392E-01 -0.10546070840E-01  0.12313814211E-01  0.46961224425E-01  0.51100000000E-03 0.  1.
</event>
<event>
 8    1  0.1123470E+005  0.1043930E+01  0.7957747E-01            NaN
         13   -1    0    0    0    0  0.00000000000E+00  0.00000000000E+00  0.74505805969E-08  0.10566000000E+00  0.10566000000E+00 0. -1.
     999900   -1    0    0    0    0 -0.00000000000E+00 -0.00000000000E+00 -0.74505805969E-08  0.93827000000E+00  0.93827000000E+00 0. -1.
     999902    2    1    2    0    0  0.96874012550E-02 -0.92367454216E-02 -0.18887683778E-01  0.10207803173E+01  0.10205177845E+01 0.  0.
     999903    2    3    3    0    0 -0.99542928661E-01  0.75366609152E-02  0.78450830887E-01  0.12854301786E+00  0.20079309487E-01 0.  0.
         14    1    1    2    0    0 -0.96874012550E-02  0.92367454216E-02  0.18887683778E-01  0.23149682667E-01  0.00000000000E+00 0. -1.
     999901    1    3    3    0    0  0.10923032992E+00 -0.16773406337E-01 -0.97338514666E-01  0.89223729947E+00  0.88000000000E+00 0. -1.
        -11    1    4    4    0    0 -0.93653008972E-01  0.60407249263E-02  0.66168088182E-01  0.11482967152E+00  0.51100000000E-03 0.  1.
         11    1    4    4    0    0 -0.58899196889E-02  0.14959359889E-02  0.12282742705E-01  0.13713346338E-01  0.51100000000E-03 0. -1.
</event>
<event>
 8    1  0.1123470E+005  0.1043930E+01  0.7957747E-01            NaN
         13   -1    0    0    0    0  0.00000000000E+00  0.00000000000E+00  0.74505805969E-08  0.10566000000E+00  0.10566000000E+00 0.  1.
     999900   -1    0    0    0    0 -0.00000000000E+00 -0.00000000000E+00 -0.74505805969E-08  0.93827000000E+00  0.93827000000E+00 0. -1.
     999902    2    1    2    0    0 -0.20346484789E-01  0.56679037623E-02  0.11514677103E-01  0.10198739745E+01  0.10195902272E+01 0.  0.
     999903    2    3    3    0    0 -0.82187189419E-01 -0.72668995497E-01  0.71069098046E-01  0.13223233979E+00  0.19976435565E-01 0.  0.
         14    1    1    2    0    0  0.20346484789E-01 -0.56679037623E-02 -0.11514677103E-01  0.24056025547E-01  0.00000000000E+00 0. -1.
     999901    1    3    3    0    0  0.61840704630E-01  0.78336899259E-01 -0.59554420943E-01  0.88764163466E+00  0.88000000000E+00 0.  1.
        -11    1    4    4    0    0 -0.18347288963E-02 -0.83072573659E-02  0.45694839099E-02  0.96704735804E-02  0.51100000000E-03 0.  1.
         11    1    4    4    0    0 -0.80352460523E-01 -0.64361738131E-01  0.66499614136E-01  0.12256186621E+00  0.51100000000E-03 0. -1.
</event>
<event>
 8    1  0.1123470E+005  0.1043930E+01  0.7957747E-01            NaN
         13   -1    0    0    0    0  0.00000000000E+00  0.00000000000E+00  0.74505805969E-08  0.10566000000E+00  0.10566000000E+00 0.  1.
     999900   -1    0    0    0    0 -0.00000000000E+00 -0.00000000000E+00 -0.74505805969E-08  0.93827000000E+00  0.93827000000E+00 0. -1.
     999902    2    1    2    0    0 -0.14153210770E-01  0.32788760021E-02  0.14691252418E-01  0.10232685068E+01  0.10230598906E+01 0.  0.
     999903    2    3    3    0    0 -0.26680823948E-01  0.11260070487E+00 -0.62163910259E-01  0.13309160339E+00  0.21406495536E-01 0.  0.
         14    1    1    2    0    0  0.14153210770E-01 -0.32788760021E-02 -0.14691252418E-01  0.20661493182E-01  0.00000000000E+00 0. -1.
     999901    1    3    3    0    0  0.12527613178E-01 -0.10932182887E+00  0.76855162677E-01  0.89017690342E+00  0.88000000000E+00 0.  1.
        -11    1    4    4    0    0 -0.29625092106E-01  0.87146338637E-01 -0.48019133233E-01  0.10381824838E+00  0.51100000000E-03 0. -1.
         11    1    4    4    0    0  0.29442681586E-02  0.25454366235E-01 -0.14144777027E-01  0.29273355010E-01  0.51100000000E-03 0.  1.
</event>
<event>
 8    1  0.1123470E+005  0.1043930E+01  0.7957747E-01            NaN
         13   -1    0    0    0    0  0.00000000000E+00  0.00000000000E+00  0.74505805969E-08  0.10566000000E+00  0.10566000000E+00 0. -1.
     999900   -1    0    0    0    0 -0.00000000000E+00 -0.00000000000E+00 -0.74505805969E-08  0.93827000000E+00  0.93827000000E+00 0.  1.
     999902    2    1    2    0    0  0.15444181980E-01  0.17539997764E-01 -0.33066256241E-02  0.10203268635E+01  0.10200538223E+01 0.  0.
     999903    2    3    3    0    0  0.64799935311E-01  0.76045279280E-01  0.84808343576E-01  0.13262020806E+00  0.20340804533E-01 0.  0.
         14    1    1    2    0    0 -0.15444181980E-01 -0.17539997764E-01  0.33066256241E-02  0.23603136478E-01  0.00000000000E+00 0. -1.
     999901    1    3    3    0    0 -0.49355753331E-01 -0.58505281516E-01 -0.88114969200E-01  0.88770665546E+00  0.88000000000E+00 0.  1.
        -11    1    4    4    0    0  0.18767838195E-01  0.33822498893E-01  0.40700114804E-01  0.56151167823E-01  0.51100000000E-03 0. -1.
         11    1    4    4    0    0  0.46032097116E-01  0.42222780387E-01  0.44108228772E-01  0.76469040238E-01  0.51100000000E-03 0.  1.
</event>
<event>
 8    1  0.1123470E+005  0.1043930E+01  0.7957747E-01            NaN
         13   -1    0    0    0    0  0.00000000000E+00  0.00000000000E+00  0.74505805969E-08  0.10566000000E+00  0.10566000000E+00 0.  1.
     999900   -1    0    0    0    0 -0.00000000000E+00 -0.00000000000E+00 -0.74505805969E-08  0.93827000000E+00  0.93827000000E+00 0. -1.
     999902    2    1    2    0    0 -0.13084400296E-01  0.13241894724E-01 -0.13415532204E-01  0.10209838497E+01  0.10207259650E+01 0.  0.
     999903    2    3    3    0    0 -0.65495204177E-01 -0.78389410749E-01  0.77678713122E-01  0.13000610029E+00  0.20810625935E-01 0.  0.
         14    1    1    2    0    0  0.13084400296E-01 -0.13241894724E-01  0.13415532204E-01  0.22946150250E-01  0.00000000000E+00 0. -1.
     999901    1    3    3    0    0  0.52410803881E-01  0.91631305473E-01 -0.91094245326E-01  0.89097774946E+00  0.88000000000E+00 0. -1.
        -11    1    4    4    0    0 -0.25954975747E-01 -0.23162203080E-01  0.16147705473E-01  0.38355676641E-01  0.51100000000E-03 0.  1.
         11    1    4    4    0    0 -0.39540228430E-01 -0.55227207670E-01  0.61531007649E-01  0.91650423647E-01  0.51100000000E-03 0. -1.
</event>
<event>
 8    1  0.1123470E+005  0.1043930E+01  0.7957747E-01            NaN
         13   -1    0    0    0    0  0.00000000000E+00  0.00000000000E+00  0.74505805969E-08  0.10566000000E+00  0.10566000000E+00 0. -1.
     999900   -1    0    0    0    0 -0.00000000000E+00 -0.00000000000E+00 -0.74505805969E-08  0.93827000000E+00  0.93827000000E+00 0. -1.
     999902    2    1    2    0    0 -0.17427949685E-01 -0.13528135037E-01 -0.14235897573E-01  0.10176734837E+01  0.10173347113E+01 0.  0.
     999903    2    3    3    0    0  0.33500333483E-01 -0.10194048232E+00  0.66807070845E-01  0.12807897164E+00  0.20661654878E-01 0.  0.
         14    1    1    2    0    0  0.17427949685E-01  0.13528135037E-01  0.14235897573E-01  0.26256516287E-01  0.00000000000E+00 0. -1.
     999901    1    3    3    0    0 -0.50928283168E-01  0.88412347285E-01 -0.81042968418E-01  0.88959451207E+00  0.88000000000E+00 0. -1.
        -11    1    4    4    0    0  0.81312926184E-02 -0.19291072354E-01  0.42609917520E-02  0.21370085725E-01  0.51100000000E-03 0.  1.
         11    1    4    4    0    0  0.25369040864E-01 -0.82649409968E-01  0.62546079093E-01  0.10670888592E+00  0.51100000000E-03 0. -1.
</event>
<event>
 8    1  0.1123470E+005  0.1043930E+01  0.7957747E-01            NaN
         13   -1    0    0    0    0  0.00000000000E+00  0.00000000000E+00  0.74505805969E-08  0.10566000000E+00  0.10566000000E+00 0.  1.
     999900   -1    0    0    0    0 -0.00000000000E+00 -0.00000000000E+00 -0.74505805969E-08  0.93827000000E+00  0.93827000000E+00 0. -1.
     999902    2    1    2    0    0 -0.17880467997E-01 -0.11873047295E-01 -0.22776677931E-01  0.10126337151E+01  0.10121499808E+01 0.  0.
     999903    2    3    3    0    0 -0.80626504440E-01 -0.93191053235E-01  0.15351039420E-01  0.12583982365E+00  0.20366668421E-01 0.  0.
         14    1    1    2    0    0  0.17880467997E-01  0.11873047295E-01  0.22776677931E-01  0.31296284850E-01  0.00000000000E+00 0.  1.
     999901    1    3    3    0    0  0.62746036443E-01  0.81318005940E-01 -0.38127717351E-01  0.88679389150E+00  0.88000000000E+00 0. -1.
        -11    1    4    4    0    0 -0.63501160111E-01 -0.63390636581E-01  0.17421081288E-01  0.91403092595E-01  0.51100000000E-03 0. -1.
         11    1    4    4    0    0 -0.17125344329E-01 -0.29800416653E-01 -0.20700418680E-02  0.34436731050E-01  0.51100000000E-03 0.  1.
</event>
<event>
 8    1  0.1123470E+005  0.1043930E+01  0.7957747E-01            NaN
         13   -1    0    0    0    0  0.00000000000E+00  0.00000000000E+00  0.74505805969E-08  0.10566000000E+00  0.10566000000E+00 0. -1.
     999900   -1    0    0    0    0 -0.00000000000E+00 -0.00000000000E+00 -0.74505805969E-08  0.93827000000E+00  0.93827000000E+00 0. -1.
     999902    2    1    2    0    0 -0.15558922735E-01 -0.14241306432E-01  0.46886362116E-02  0.10223226356E+01  0.10220942682E+01 0.  0.
     999903    2    3    3    0    0 -0.13179602607E+00  0.99686732182E-02  0.11115488308E-01  0.13432573713E+00  0.21219864360E-01 0.  0.
         14    1    1    2    0    0  0.15558922735E-01  0.14241306432E-01 -0.46886362116E-02  0.21607364372E-01  0.00000000000E+00 0.  1.
     999901    1    3    3    0    0  0.11623710333E+00 -0.24209979650E-01 -0.64268520966E-02  0.88799689849E+00  0.88000000000E+00 0.  1.
        -11    1    4    4    0    0 -0.42695836881E-01 -0.21454752323E-02  0.11982313524E-01  0.44400163393E-01  0.51100000000E-03 0. -1.
         11    1    4    4    0    0 -0.89100189187E-01  0.12114148451E-01 -0.86682521595E-03  0.89925573742E-01  0.51100000000E-03 0.  1.
</event>
<event>
 8    1  0.1123470E+005  0.1043930E+01  0.7957747E-01            NaN
         13   -1    0    0    0    0  0.00000000000E+00  0.00000000000E+00  0.74505805969E-08  0.10566000000E+00  0.10566000000E+00 0.  1.
     999900   -1    0    0    0    0 -0.00000000000E+00 -0.00000000000E+00 -0.74505805969E-08  0.93827000000E+00  0.93827000000E+00 0. -1.
     999902    2    1    2    0    0 -0.18199756844E-01  0.73651878553E-02  0.54022104558E-02  0.10235667729E+01  0.10233641959E+01 0.  0.
     999903    2    3    3    0    0 -0.10719135658E+00  0.22372467612E-01 -0.76883441823E-01  0.13513239046E+00  0.18952179150E-01 0.  0.
         14    1    1    2    0    0  0.18199756844E-01 -0.73651878553E-02 -0.54022104558E-02  0.20363227130E-01  0.00000000000E+00 0.  1.
     999901    1    3    3    0    0  0.88991599732E-01 -0.15007279757E-01  0.82285652279E-01  0.88843438241E+00  0.88000000000E+00 0.  1.
        -11    1    4    4    0    0 -0.78305629297E-01  0.13750545646E-01 -0.65116886742E-01  0.10276827889E+00  0.51100000000E-03 0.  1.
         11    1    4    4    0    0 -0.28885727279E-01  0.86219219658E-02 -0.11766555081E-01  0.32364111579E-01  0.51100000000E-03 0. -1.
</event>
<event>
 8    1  0.1123470E+005  0.1043930E+01  0.7957747E-01            NaN
         13   -1    0    0    0    0  0.00000000000E+00  0.00000000000E+00  0.74505805969E-08  0.10566000000E+00  0.10566000000E+00 0. -1.
     999900   -1    0    0    0    0 -0.00000000000E+00 -0.00000000000E+00 -0.74505805969E-08  0.93827000000E+00  0.93827000000E+00 0. -1.
     999902    2    1    2    0    0 -0.93234145532E-02  0.21279140809E-01 -0.32939164517E-02  0.10204656062E+01  0.10201958026E+01 0.  0.
     999903    2    3    3    0    0 -0.11112582374E+00  0.33299143937E-01 -0.63112237323E-01  0.13249801526E+00  0.10713909512E-01 0.  0.
         14    1    1    2    0    0  0.93234145532E-02 -0.21279140809E-01  0.32939164517E-02  0.23464393836E-01  0.00000000000E+00 0.  1.
     999901    1    3    3    0    0  0.10180240919E+00 -0.12020003128E-01  0.59818320872E-01  0.88796759091E+00  0.88000000000E+00 0. -1.
        -11    1    4    4    0    0 -0.64782200832E-01  0.15402947210E-01 -0.32013904384E-01  0.73885962958E-01  0.51100000000E-03 0. -1.
         11    1    4    4    0    0 -0.46343622912E-01  0.17896196727E-01 -0.31098332939E-01  0.58612052297E-01  0.51100000000E-03 0.  1.
</event>
<event>
 8    1  0.1123470E+005  0.1043930E+01  0.7957747E-01            NaN
         13   -1    0    0    0    0  0.00000000000E+00  0.00000000000E+00  0.74505805969E-08  0.10566000000E+00  0.10566000000E+00 0. -1.
     999900   -1    0    0    0    0 -0.00000000000E+00 -0.00000000000E+00 -0.74505805969E-08  0.93827000000E+00  0.93827000000E+00 0.  1.
     999902    2    1    2    0    0  0.13181222809E-01 -0.15826399533E-01  0.11740364861E-01  0.10202222856E+01  0.10199467909E+01 0.  0.
     999903    2    3    3    0    0  0.18715675592E-01 -0.63991364775E-01 -0.11027838666E+00  0.13048127281E+00  0.20466282311E-01 0.  0.
         14    1    1    2    0    0 -0.13181222809E-01  0.15826399533E-01 -0.11740364861E-01  0.23707714440E-01  0.00000000000E+00 0. -1.
     999901    1    3    3    0    0 -0.55344527830E-02  0.48164965242E-01  0.12201875152E+00  0.88974101275E+00  0.88000000000E+00 0. -1.
        -11    1    4    4    0    0  0.70271436815E-02 -0.73221086608E-02 -0.78582532912E-02  0.12845516313E-01  0.51100000000E-03 0.  1.
         11    1    4    4    0    0  0.11688531910E-01 -0.56669256114E-01 -0.10242013337E+00  0.11763575650E+00  0.51100000000E-03 0. -1.
</event>
<event>
 8    1  0.1123470E+005  0.1043930E+01  0.7957747E-01            NaN
         13   -1    0    0    0    0  0.00000000000E+00  0.00000000000E+00  0.74505805969E-08  0.10566000000E+00  0.10566000000E+00 0.  1.
     999900   -1    0    0    0    0 -0.00000000000E+00 -0.00000000000E+00 -0.74505805969E-08  0.93827000000E+00  0.93827000000E+00 0.  1.
     999902    2    1    2    0    0  0.21057081030E-01 -0.11500315400E-01 -0.27551565680E-02  0.10197794554E+01  0.10194934472E+01 0.  0.
     999903    2    3    3    0    0  0.20107054727E-01 -0.86369407185E-01 -0.95301648448E-01  0.13176417593E+00  0.20381994836E-01 0.  0.
         14    1    1    2    0    0 -0.21057081030E-01  0.11500315400E-01  0.27551565680E-02  0.24150544580E-01  0.00000000000E+00 0.  1.
     999901    1    3    3    0    0  0.95002630249E-03  0.74869091785E-01  0.92546491880E-01  0.88801527949E+00  0.88000000000E+00 0. -1.
        -11    1    4    4    0    0  0.19060145758E-03 -0.45028821842E-01 -0.44651281236E-01  0.63416316216E-01  0.51100000000E-03 0. -1.
         11    1    4    4    0    0  0.19916453270E-01 -0.41340585343E-01 -0.50650367211E-01  0.68347859710E-01  0.51100000000E-03 0.  1.
</event>
<event>
 8    1  0.1123470E+005  0.1043930E+01  0.7957747E-01            NaN
         13   -1    0    0    0    0  0.00000000000E+00  0.00000000000E+00  0.74505805969E-08  0.10566000000E+00  0.10566000000E+00 0. -1.
     999900   -1    0    0    0    0 -0.00000000000E+00 -0.00000000000E+00 -0.74505805969E-08  0.93827000000E+00  0.93827000000E+00 0. -1.
     999902    2    1    2    0    0 -0.20320396666E-01  0.75506571399E-03 -0.84778424884E-02  0.10218990568E+01  0.10216615486E+01 0.  0.
     999903    2    3    3    0    0 -0.15291324101E-01  0.25819161633E-01 -0.12850734404E+00  0.13338311338E+00  0.19402674081E-01 0.  0.
         14    1    1    2    0    0  0.20320396666E-01 -0.75506571399E-03  0.84778424884E-02  0.22030943197E-01  0.00000000000E+00 0. -1.
     999901    1    3    3    0    0 -0.50290725653E-02 -0.25064095919E-01  0.12002950155E+00  0.88851594342E+00  0.88000000000E+00 0.  1.
        -11    1    4    4    0    0 -0.11374269457E-01  0.38399252253E-02 -0.28809429804E-01  0.31214794538E-01  0.51100000000E-03 0. -1.
         11    1    4    4    0    0 -0.39170546432E-02  0.21979236408E-01 -0.99697914239E-01  0.10216831884E+00  0.51100000000E-03 0.  1.
</event>
<event>
 8    1  0.1123470E+005  0.1043930E+01  0.7957747E-01            NaN
         13   -1    0    0    0    0  0.00000000000E+00  0.00000000000E+00  0.74505805969E-08  0.10566000000E+00  0.10566000000E+00 0.  1.
     999900   -1    0    0    0    0 -0.00000000000E+00 -0.00000000000E+00 -0.74505805969E-08  0.93827000000E+00  0.93827000000E+00 0.  1.
     999902    2    1    2    0    0  0.97444234275E-02  0.22457845121E-02 -0.21560601793E-01  0.10201632820E+01  0.10198863981E+01 0.  0.
     999903    2    3    3    0    0 -0.36098742338E-01  0.10947495140E+00 -0.60283331159E-01  0.13162564076E+00  0.20083453598E-01 0.  0.
         14    1    1    2    0    0 -0.97444234275E-02 -0.22457845121E-02  0.21560601793E-01  0.23766718025E-01  0.00000000000E+00 0.  1.
     999901    1    3    3    0    0  0.45843165765E-01 -0.10722916689E+00  0.38722729367E-01  0.88853764121E+00  0.88000000000E+00 0.  1.
        -11    1    4    4    0    0 -0.30279512721E-01  0.69458366979E-01 -0.31877274880E-01  0.82205446344E-01  0.51100000000E-03 0.  1.
         11    1    4    4    0    0 -0.58192296172E-02  0.40016584422E-01 -0.28406056280E-01  0.49420194420E-01  0.51100000000E-03 0. -1.
</event>
<event>
 8    1  0.1123470E+005  0.1043930E+01  0.7957747E-01            NaN
         13   -1    0    0    0    0  0.00000000000E+00  0.00000000000E+00  0.74505805969E-08  0.10566000000E+00  0.10566000000E+00 0.  1.
     999900   -1    0    0    0    0 -0.00000000000E+00 -0.00000000000E+00 -0.74505805969E-08  0.93827000000E+00  0.93827000000E+00 0. -1.
     999902    2    1    2    0    0  0.18454412442E-01  0.16451883039E-01 -0.22170373265E-02  0.10191077308E+01  0.10188053896E+01 0.  0.
     999903    2    3    3    0    0 -0.11776414653E+00 -0.42028174067E-01 -0.36807543210E-02  0.12670784545E+00  0.20163544383E-01 0.  0.
         14    1    1    2    0    0 -0.18454412442E-01 -0.16451883039E-01  0.22170373265E-02  0.24822269208E-01  0.00000000000E+00 0. -1.
     999901    1    3    3    0    0  0.13621855898E+00  0.58480057107E-01  0.14637169945E-02  0.89239988534E+00  0.88000000000E+00 0.  1.
        -11    1    4    4    0    0 -0.54140445346E-01 -0.30009819628E-01 -0.18406082659E-02  0.61930816692E-01  0.51100000000E-03 0. -1.
         11    1    4    4    0    0 -0.63623701189E-01 -0.12018354440E-01 -0.18401460551E-02  0.64777028760E-01  0.51100000000E-03 0.  1.
</event>
<event>
 8    1  0.1123470E+005  0.1043930E+01  0.7957747E-01            NaN
         13   -1    0    0    0    0  0.00000000000E+00  0.00000000000E+00  0.74505805969E-08  0.10566000000E+00  0.10566000000E+00 0.  1.
     999900   -1    0    0    0    0 -0.00000000000E+00 -0.00000000000E+00 -0.74505805969E-08  0.93827000000E+00  0.93827000000E+00 0. -1.
     999902    2    1    2    0    0 -0.82929925046E-03 -0.63853092017E-02  0.23018398163E-01  0.10200279799E+01  0.10197478969E+01 0.  0.
     999903    2    3    3    0    0  0.21252243256E-01  0.46520507526E-01  0.12080090239E+00  0.13275798824E+00  0.20396322245E-01 0.  0.
         14    1    1    2    0    0  0.82929925046E-03  0.63853092017E-02 -0.23018398163E-01  0.23902020099E-01  0.00000000000E+00 0. -1.
     999901    1    3    3    0    0 -0.22081542507E-01 -0.52905816728E-01 -0.97782504223E-01  0.88726999166E+00  0.88000000000E+00 0. -1.
        -11    1    4    4    0    0 -0.38278019681E-02  0.52090877261E-02  0.18778802290E-01  0.19866836670E-01  0.51100000000E-03 0. -1.
         11    1    4    4    0    0  0.25080045225E-01  0.41311419800E-01  0.10202210010E+00  0.11289115157E+00  0.51100000000E-03 0.  1.
</event>
<event>
 8    1  0.1123470E+005  0.1043930E+01  0.7957747E-01            NaN
         13   -1    0    0    0    0  0.00000000000E+00  0.00000000000E+00  0.74505805969E-08  0.10566000000E+00  0.10566000000E+00 0. -1.
     999900   -1    0    0    0    0 -0.00000000000E+00 -0.00000000000E+00 -0.74505805969E-08  0.93827000000E+00  0.93827000000E+00 0. -1.
     999902    2    1    2    0    0 -0.18470476241E-02  0.17492257030E-01  0.16109903179E-01  0.10200779640E+01  0.10197990650E+01 0.  0.
     999903    2    3    3    0    0 -0.34733539660E-01  0.12633793059E+00 -0.72205020781E-03  0.13260277186E+00  0.20378475501E-01 0.  0.
         14    1    1    2    0    0  0.18470476241E-02 -0.17492257030E-01 -0.16109903179E-01  0.23852036001E-01  0.00000000000E+00 0.  1.
     999901    1    3    3    0    0  0.32886492036E-01 -0.10884567356E+00  0.16831953387E-01  0.88747519214E+00  0.88000000000E+00 0. -1.
        -11    1    4    4    0    0 -0.12128654560E-01  0.40893060804E-01  0.92741917261E-02  0.43653389748E-01  0.51100000000E-03 0.  1.
         11    1    4    4    0    0 -0.22604885100E-01  0.85444869790E-01 -0.99962419339E-02  0.88949382109E-01  0.51100000000E-03 0. -1.
</event>
<event>
 8    1  0.1123470E+005  0.1043930E+01  0.7957747E-01            NaN
         13   -1    0    0    0    0  0.00000000000E+00  0.00000000000E+00  0.74505805969E-08  0.10566000000E+00  0.10566000000E+00 0.  1.
     999900   -1    0    0    0    0 -0.00000000000E+00 -0.00000000000E+00 -0.74505805969E-08  0.93827000000E+00  0.93827000000E+00 0.  1.
     999902    2    1    2    0    0 -0.32897182027E-02 -0.15213181432E-01 -0.15788444917E-01  0.10217593408E+01  0.10215187773E+01 0.  0.
     999903    2    3    3    0    0  0.87699987321E-02 -0.16338957698E-02 -0.13217511847E+00  0.13391042826E+00  0.19548871064E-01 0.  0.
         14    1    1    2    0    0  0.32897182027E-02  0.15213181432E-01  0.15788444917E-01  0.22170659171E-01  0.00000000000E+00 0.  1.
     999901    1    3    3    0    0 -0.12059716935E-01 -0.13579285662E-01  0.11638667356E+00  0.88784891257E+00  0.88000000000E+00 0. -1.
        -11    1    4    4    0    0 -0.18311036631E-02 -0.10206642562E-02 -0.10002355068E+00  0.10004682158E+00  0.51100000000E-03 0.  1.
         11    1    4    4    0    0  0.10601102395E-01 -0.61323151366E-03 -0.32151567792E-01  0.33863606680E-01  0.51100000000E-03 0. -1.
</event>
<event>
 8    1  0.1123470E+005  0.1043930E+01  0.7957747E-01            NaN
         13   -1    0    0    0    0  0.00000000000E+00  0.00000000000E+00  0.74505805969E-08  0.10566000000E+00  0.10566000000E+00 0. -1.
     999900   -1    0    0    0    0 -0.00000000000E+00 -0.00000000000E+00 -0.74505805969E-08  0.93827000000E+00  0.93827000000E+00 0. -1.
     999902    2    1    2    0    0  0.10858963653E-01  0.17813417261E-01 -0.10990636394E-01  0.10203497325E+01  0.10200772263E+01 0.  0.
     999903    2    3    3    0    0  0.50242518925E-01  0.94480878888E-01 -0.77303685067E-01  0.13365565646E+00  0.20905204968E-01 0.  0.
         14    1    1    2    0    0 -0.10858963653E-01 -0.17813417261E-01  0.10990636394E-01  0.23580267481E-01  0.00000000000E+00 0. -1.
     999901    1    3    3    0    0 -0.39383555272E-01 -0.76667461626E-01  0.66313048673E-01  0.88669407606E+00  0.88000000000E+00 0.  1.
        -11    1    4    4    0    0  0.26550337554E-01  0.29630104281E-01 -0.24415948041E-01  0.46682578589E-01  0.51100000000E-03 0.  1.
         11    1    4    4    0    0  0.23692181371E-01  0.64850774607E-01 -0.52887737026E-01  0.86973077868E-01  0.51100000000E-03 0. -1.
</event>
<event>
 8    1  0.1123470E+005  0.1043930E+01  0.7957747E-01            NaN
         13   -1    0    0    0    0  0.00000000000E+00  0.00000000000E+00  0.74505805969E-08  0.10566000000E+00  0.10566000000E+00 0. -1.
     999900   -1    0    0    0    0 -0.00000000000E+00 -0.00000000000E+00 -0.74505805969E-08  0.93827000000E+00  0.93827000000E+00 0. -1.
     999902    2    1    2    0    0  0.18222695204E-01 -0.12873453130E-01  0.73389196014E-02  0.10204427235E+01  0.10201723873E+01 0.  0.
     999903    2    3    3    0    0 -0.10163736404E+00  0.46900778234E-01  0.60334915341E-01  0.12873202597E+00  0.20044843076E-01 0.  0.
         14    1    1    2    0    0 -0.18222695204E-01  0.12873453130E-01 -0.73389196014E-02  0.23487276489E-01  0.00000000000E+00 0.  1.
     999901    1    3    3    0    0  0.11986005924E+00 -0.59774231364E-01 -0.52995995740E-01  0.89171069754E+00  0.88000000000E+00 0.  1.
        -11    1    4    4    0    0 -0.18433271217E-01  0.20803949049E-02  0.15250261615E-01  0.24019682160E-01  0.51100000000E-03 0.  1.
         11    1    4    4    0    0 -0.83204092824E-01  0.44820383330E-01  0.45084653726E-01  0.10471234381E+00  0.51100000000E-03 0. -1.
</event>
<event>
 8    1  0.1123470E+005  0.1043930E+01  0.7957747E-01            NaN
         13   -1    0    0    0    0  0.00000000000E+00  0.00000000000E+00  0.74505805969E-08  0.10566000000E+00  0.10566000000E+00 0. -1.
     999900   -1    0    0    0    0 -0.00000000000E+00 -0.00000000000E+00 -0.74505805969E-08  0.93827000000E+00  0.93827000000E+00 0.  1.
     999902    2    1    2    0    0 -0.91724476748E-03 -0.20970953613E-01 -0.11369236915E-01  0.10200578032E+01  0.10197784269E+01 0.  0.
     999903    2    3    3    0    0  0.99357354856E-01  0.23573549051E-01  0.76590223549E-01  0.12889223228E+00  0.17875934139E-01 0.  0.
         14    1    1    2    0    0  0.91724476748E-03  0.20970953613E-01  0.11369236915E-01  0.23872196829E-01  0.00000000000E+00 0. -1.
     999901    1    3    3    0    0 -0.10027459962E+00 -0.44544502664E-01 -0.87959460464E-01  0.89116557089E+00  0.88000000000E+00 0.  1.
        -11    1    4    4    0    0  0.41237711453E-01  0.14924744042E-01  0.23799066068E-01  0.49899433837E-01  0.51100000000E-03 0. -1.
         11    1    4    4    0    0  0.58119643403E-01  0.86488050083E-02  0.52791157481E-01  0.78992798448E-01  0.51100000000E-03 0.  1.
</event>
<event>
 8    1  0.1123470E+005  0.1043930E+01  0.7957747E-01            NaN
         13   -1    0    0    0    0  0.00000000000E+00  0.00000000000E+00  0.74505805969E-08  0.10566000000E+00  0.10566000000E+00 0. -1.
     999900   -1    0    0    0    0 -0.00000000000E+00 -0.00000000000E+00 -0.74505805969E-08  0.93827000000E+00  0.93827000000E+00 0. -1.
     999902    2    1    2    0    0 -0.21383210279E-01 -0.94948235311E-02 -0.20355940061E-02  0.10204451751E+01  0.10201748960E+01 0.  0.
     999903    2    3    3    0    0 -0.62476457552E-01 -0.11553240905E+00  0.67791554832E-02  0.13308373563E+00  0.20353831374E-01 0.  0.
         14    1    1    2    0    0  0.21383210279E-01  0.94948235311E-02  0.20355940061E-02  0.23484824859E-01  0.00000000000E+00 0.  1.
     999901    1    3    3    0    0  0.41093247273E-01  0.10603758552E+00 -0.88147494894E-02  0.88736143951E+00  0.88000000000E+00 0. -1.
        -11    1    4    4    0    0 -0.53019712352E-01 -0.80515440585E-01  0.14303079263E-02  0.96416455921E-01  0.51100000000E-03 0. -1.
         11    1    4    4    0    0 -0.94567451998E-02 -0.35016968467E-01  0.53488475569E-02  0.36667279713E-01  0.51100000000E-03 0.  1.
</event>
<event>
 8    1  0.1123470E+005  0.1043930E+01  0.7957747E-01            NaN
         13   -1    0    0    0    0  0.00000000000E+00  0.00000000000E+00  0.74505805969E-08  0.10566000000E+00  0.10566000000E+00 0.  1.
     999900   -1    0    0    0    0 -0.00000000000E+00 -0.00000000000E+00 -0.74505805969E-08  0.93827000000E+00  0.93827000000E+00 0. -1.
     999902    2    1    2    0    0  0.91707412791E-04  0.23511013654E-02  0.24109908056E-01  0.10197055546E+01  0.10194177722E+01 0.  0.
     999903    2    3    3    0    0 -0.18600829469E-02 -0.80493298943E-01  0.10328434007E+00  0.13227353196E+00  0.18601109331E-01 0.  0.
         14    1    1    2    0    0 -0.91707412791E-04 -0.23511013654E-02 -0.24109908056E-01  0.24224445388E-01  0.00000000000E+00 0. -1.
     999901    1    3    3    0    0  0.19517903597E-02  0.82844400308E-01 -0.79174432019E-01  0.88743202265E+00  0.88000000000E+00 0.  1.
        -11    1    4    4    0    0  0.32227251465E-02 -0.24104552646E-01  0.44126830880E-01  0.50387039406E-01  0.51100000000E-03 0.  1.
         11    1    4    4    0    0 -0.50828080934E-02 -0.56388746297E-01  0.59157509195E-01  0.81886492551E-01  0.51100000000E-03 0. -1.
</event>
<event>
 8    1  0.1123470E+005  0.1043930E+01  0.7957747E-01            NaN
         13   -1    0    0    0    0  0.00000000000E+00  0.00000000000E+00  0.74505805969E-08  0.10566000000E+00  0.10566000000E+00 0.  1.
     999900   -1    0    0    0    0 -0.00000000000E+00 -0.00000000000E+00 -0.74505805969E-08  0.93827000000E+00  0.93827000000E+00 0. -1.
     999902    2    1    2    0    0 -0.20445871627E-01  0.54440040219E-02  0.56271566161E-02  0.10220362626E+01  0.10218017353E+01 0.  0.
     999903    2    3    3    0    0 -0.89783521840E-01  0.66146623338E-01 -0.71147477019E-01  0.13389952644E+00  0.20752424451E-01 0.  0.
         14    1    1    2    0    0  0.20445871627E-01 -0.54440040219E-02 -0.56271566161E-02  0.21893737414E-01  0.00000000000E+00 0. -1.
     999901    1    3    3    0    0  0.69337650213E-01 -0.60702619316E-01  0.76774633635E-01  0.88813673615E+00  0.88000000000E+00 0. -1.
        -11    1    4    4    0    0 -0.33988626393E-01  0.37463431163E-01 -0.28851862738E-01  0.58235955415E-01  0.51100000000E-03 0. -1.
         11    1    4    4    0    0 -0.55794895447E-01  0.28683192175E-01 -0.42295614281E-01  0.75663571022E-01  0.51100000000E-03 0.  1.
</event>
<event>
 8    1  0.1123470E+005  0.1043930E+01  0.7957747E-01            NaN
         13   -1    0    0    0    0  0.00000000000E+00  0.00000000000E+00  0.74505805969E-08  0.10566000000E+00  0.10566000000E+00 0. -1.
     999900   -1    0    0    0    0 -0.00000000000E+00 -0.00000000000E+00 -0.74505805969E-08  0.93827000000E+00  0.93827000000E+00 0.  1.
     999902    2    1    2    0    0 -0.16038970137E-01  0.13820893486E-01 -0.10259189048E-01  0.10204030661E+01  0.10201318055E+01 0.  0.
     999903    2    3    3    0    0  0.43630823804E-01  0.69749874721E-01  0.98294140676E-01  0.12996926133E+00  0.21484342889E-01 0.  0.
         14    1    1    2    0    0  0.16038970137E-01 -0.13820893486E-01  0.10259189048E-01  0.23526933921E-01  0.00000000000E+00 0. -1.
     999901    1    3    3    0    0 -0.59669793941E-01 -0.55928981235E-01 -0.10855332972E+00  0.89043380475E+00  0.88000000000E+00 0.  1.
        -11    1    4    4    0    0  0.17223149910E-01  0.47388200309E-01  0.58328643117E-01  0.77102335570E-01  0.51100000000E-03 0. -1.
         11    1    4    4    0    0  0.26407673894E-01  0.22361674411E-01  0.39965497558E-01  0.52866925757E-01  0.51100000000E-03 0.  1.
</event>
<event>
 8    1  0.1123470E+005  0.1043930E+01  0.7957747E-01            NaN
         13   -1    0    0    0    0  0.00000000000E+00  0.00000000000E+00  0.74505805969E-08  0.10566000000E+00  0.10566000000E+00 0. -1.
     999900   -1    0    0    0    0 -0.00000000000E+00 -0.00000000000E+00 -0.74505805969E-08  0.93827000000E+00  0.93827000000E+00 0. -1.
     999902    2    1    2    0    0  0.62532376503E-02  0.18582083646E-01  0.10030171652E-01  0.10219072582E+01  0.10216699287E+01 0.  0.
     999903    2    3    3    0    0 -0.89226212742E-01 -0.37996870383E-01  0.86795232789E-01  0.13162057509E+00  0.19633750343E-01 0.  0.
         14    1    1    2    0    0 -0.62532376503E-02 -0.18582083646E-01 -0.10030171652E-01  0.22022741816E-01  0.00000000000E+00 0. -1.
     999901    1    3    3    0    0  0.95479450392E-01  0.56578954029E-01 -0.76765061137E-01  0.89028668310E+00  0.88000000000E+00 0. -1.
        -11    1    4    4    0    0 -0.80452123985E-01 -0.37818103838E-01  0.71946708979E-01  0.11436495654E+00  0.51100000000E-03 0.  1.
         11    1    4    4    0    0 -0.87740887571E-02 -0.17876654509E-03  0.14848523809E-01  0.17255618543E-01  0.51100000000E-03 0. -1.
</event>
<event>
 8    1  0.1123470E+005  0.1043930E+01  0.7957747E-01            NaN
         13   -1    0    0    0    0  0.00000000000E+00  0.00000000000E+00  0.74505805969E-08  0.10566000000E+00  0.10566000000E+00 0.  1.
     999900   -1    0    0    0    0 -0.00000000000E+00 -0.00000000000E+00 -0.74505805969E-08  0.93827000000E+00  0.93827000000E+00 0.  1.
     999902    2    1    2    0    0  0.22636357280E-02 -0.21548661590E-01  0.32236866720E-02  0.10220242697E+01  0.10217894827E+01 0.  0.
     999903    2    3    3    0    0 -0.35759911103E-01 -0.11778871969E+00  0.52807155964E-01  0.13457485747E+00  0.12993952927E-01 0.  0.
         14    1    1    2    0    0 -0.22636357280E-02  0.21548661590E-01 -0.32236866720E-02  0.21905730273E-01  0.00000000000E+00 0. -1.
     999901    1    3    3    0    0  0.38023546831E-01  0.96240058100E-01 -0.49583469292E-01  0.88744941226E+00  0.88000000000E+00 0.  1.
        -11    1    4    4    0    0 -0.24209621903E-01 -0.86440585490E-01  0.44261741933E-01  0.10008717966E+00  0.51100000000E-03 0.  1.
         11    1    4    4    0    0 -0.11550289200E-01 -0.31348134199E-01  0.85454140312E-02  0.34487677805E-01  0.51100000000E-03 0. -1.
</event>
<event>
 8    1  0.1123470E+005  0.1043930E+01  0.7957747E-01            NaN
         13   -1    0    0    0    0  0.00000000000E+00  0.00000000000E+00  0.74505805969E-08  0.10566000000E+00  0.10566000000E+00 0. -1.
     999900   -1    0    0    0    0 -0.00000000000E+00 -0.00000000000E+00 -0.74505805969E-08  0.93827000000E+00  0.93827000000E+00 0.  1.
     999902    2    1    2    0    0 -0.15660341179E-01 -0.44349209636E-02  0.17555580206E-01  0.10199902171E+01  0.10197092378E+01 0.  0.
     999903    2    3    3    0    0  0.84957430599E-01 -0.63964460190E-01 -0.68668250176E-01  0.12808088819E+00  0.19497901326E-01 0.  0.
         14    1    1    2    0    0  0.15660341179E-01  0.44349209636E-02 -0.17555580206E-01  0.23939782918E-01  0.00000000000E+00 0.  1.
     999901    1    3    3    0    0 -0.10061777178E+00  0.59529539226E-01  0.86223830382E-01  0.89190932889E+00  0.88000000000E+00 0.  1.
        -11    1    4    4    0    0  0.57409283787E-01 -0.34743652121E-01 -0.50580872420E-01  0.84033523093E-01  0.51100000000E-03 0. -1.
         11    1    4    4    0    0  0.27548146812E-01 -0.29220808069E-01 -0.18087377756E-01  0.44047365098E-01  0.51100000000E-03 0.  1.
</event>
<event>
 8    1  0.1123470E+005  0.1043930E+01  0.7957747E-01            NaN
         13   -1    0    0    0    0  0.00000000000E+00  0.00000000000E+00  0.74505805969E-08  0.10566000000E+00  0.10566000000E+00 0. -1.
     999900   -1    0    0    0    0 -0.00000000000E+00 -0.00000000000E+00 -0.74505805969E-08  0.93827000000E+00  0.93827000000E+00 0. -1.
     999902    2    1    2    0    0  0.11780205861E-01 -0.10183157105E-01  0.16694637399E-01  0.10211006142E+01  0.10208453768E+01 0.  0.
     999903    2    3    3    0    0  0.61716292500E-01  0.89384463382E-01 -0.68535547223E-01  0.12999371366E+00  0.20068913853E-01 0.  0.
         14    1    1    2    0    0 -0.11780205861E-01  0.10183157105E-01 -0.16694637399E-01  0.22829385814E-01  0.00000000000E+00 0.  1.
     999901    1    3    3    0    0 -0.49936086639E-01 -0.99567620487E-01  0.85230184622E-01  0.89110690053E+00  0.88000000000E+00 0.  1.
        -11    1    4    4    0    0  0.27010525904E-01  0.56174902549E-01 -0.41272927017E-01  0.74758971445E-01  0.51100000000E-03 0.  1.
         11    1    4    4    0    0  0.34705766597E-01  0.33209560833E-01 -0.27262620206E-01  0.55234742213E-01  0.51100000000E-03 0. -1.
</event>
<event>
 8    1  0.1123470E+005  0.1043930E+01  0.7957747E-01            NaN
         13   -1    0    0    0    0  0.00000000000E+00  0.00000000000E+00  0.74505805969E-08  0.10566000000E+00  0.10566000000E+00 0.  1.
     999900   -1    0    0    0    0 -0.00000000000E+00 -0.00000000000E+00 -0.74505805969E-08  0.93827000000E+00  0.93827000000E+00 0. -1.
     999902    2    1    2    0    0  0.16413642779E-01  0.14605006798E-01 -0.66882758038E-02  0.10209637873E+01  0.10207054463E+01 0.  0.
     999903    2    3    3    0    0 -0.96915095674E-02  0.67239043565E-01 -0.11242450684E+00  0.13268907114E+00  0.18764475056E-01 0.  0.
         14    1    1    2    0    0 -0.16413642779E-01 -0.14605006798E-01  0.66882758038E-02  0.22966212706E-01  0.00000000000E+00 0.  1.
     999901    1    3    3    0    0  0.26105152346E-01 -0.52634036767E-01  0.10573623104E+00  0.88827471615E+00  0.88000000000E+00 0.  1.
        -11    1    4    4    0    0 -0.30872885988E-02  0.33163590947E-01 -0.72482520923E-01  0.79770496274E-01  0.51100000000E-03 0.  1.
         11    1    4    4    0    0 -0.66042209686E-02  0.34075452618E-01 -0.39941985918E-01  0.52918574865E-01  0.51100000000E-03 0. -1.
</event>
<event>
 8    1  0.1123470E+005  0.1043930E+01  0.7957747E-01            NaN
         13   -1    0    0    0    0  0.00000000000E+00  0.00000000000E+00  0.74505805969E-08  0.10566000000E+00  0.10566000000E+00 0.  1.
     999900   -1    0    0    0    0 -0.00000000000E+00 -0.00000000000E+00 -0.74505805969E-08  0.93827000000E+00  0.93827000000E+00 0. -1.
     999902    2    1    2    0    0  0.61669170624E-02 -0.13401317708E-01  0.18703544047E-01  0.10201088174E+01  0.10198306480E+01 0.  0.
     999903    2    3    3    0    0  0.39664935236E-01  0.69005196291E-01  0.10289028456E+00  0.13162676462E+00  0.20103987281E-01 0.  0.
         14    1    1    2    0    0 -0.61669170624E-02  0.13401317708E-01 -0.18703544047E-01  0.23821182639E-01  0.00000000000E+00 0. -1.
     999901    1    3    3    0    0 -0.33498018173E-01 -0.82406513999E-01 -0.84186740511E-01  0.88848205274E+00  0.88000000000E+00 0. -1.
        -11    1    4    4    0    0  0.17506752098E-01  0.35196756323E-01  0.35125095438E-01  0.52719365277E-01  0.51100000000E-03 0. -1.
         11    1    4    4    0    0  0.22158183137E-01  0.33808439968E-01  0.67765189121E-01  0.78907399340E-01  0.51100000000E-03 0.  1.
</event>
<event>
 8    1  0.1123470E+005  0.1043930E+01  0.7957747E-01            NaN
         13   -1    0    0    0    0  0.00000000000E+00  0.00000000000E+00  0.74505805969E-08  0.10566000000E+00  0.10566000000E+00 0. -1.
     999900   -1    0    0    0    0 -0.00000000000E+00 -0.00000000000E+00 -0.74505805969E-08  0.93827000000E+00  0.93827000000E+00 0. -1.
     999902    2    1    2    0    0 -0.21736753583E-01 -0.34897751522E-02  0.88693260227E-02  0.10201954275E+01  0.10199193009E+01 0.  0.
     999903    2    3    3    0    0 -0.74846294250E-01 -0.96534512647E-01 -0.45764434670E-01  0.13201594436E+00  0.20321077491E-01 0.  0.
         14    1    1    2    0    0  0.21736753583E-01  0.34897751522E-02 -0.88693260227E-02  0.23734572485E-01  0.00000000000E+00 0.  1.
     999901    1    3    3    0    0  0.53109540667E-01  0.93044737494E-01  0.54633760693E-01  0.88817948315E+00  0.88000000000E+00 0.  1.
        -11    1    4    4    0    0 -0.45794444052E-01 -0.43813777518E-01 -0.19260325703E-01  0.66241976674E-01  0.51100000000E-03 0. -1.
         11    1    4    4    0    0 -0.29051850198E-01 -0.52720735128E-01 -0.26504108967E-01  0.65773967689E-01  0.51100000000E-03 0.  1.
</event>
<event>
 8    1  0.1123470E+005  0.1043930E+01  0.7957747E-01            NaN
         13   -1    0    0    0    0  0.00000000000E+00  0.00000000000E+00  0.74505805969E-08  0.10566000000E+00  0.10566000000E+00 0. -1.
     999900   -1    0    0    0    0 -0.00000000000E+00 -0.00000000000E+00 -0.74505805969E-08  0.93827000000E+00  0.93827000000E+00 0. -1.
     999902    2    1    2    0    0  0.63894182080E-02  0.17771383359E-01 -0.10733479442E-01  0.10222077922E+01  0.10219769646E+01 0.  0.
     999903    2    3    3    0    0  0.10134778007E+00  0.21413786825E-01  0.79981771860E-01  0.13245523422E+00  0.20429940031E-01 0.  0.
         14    1    1    2    0    0 -0.63894182080E-02 -0.17771383359E-01  0.10733479442E-01  0.21722207817E-01  0.00000000000E+00 0.  1.
     999901    1    3    3    0    0 -0.94958361863E-01 -0.36424034656E-02 -0.90715251302E-01  0.88975255797E+00  0.88000000000E+00 0. -1.
        -11    1    4    4    0    0  0.48928742284E-01  0.92924824695E-02  0.51229811547E-01  0.71450169797E-01  0.51100000000E-03 0.  1.
         11    1    4    4    0    0  0.52419037787E-01  0.12121304355E-01  0.28751960313E-01  0.61005064418E-01  0.51100000000E-03 0. -1.
</event>
<event>
 8    1  0.1123470E+005  0.1043930E+01  0.7957747E-01            NaN
         13   -1    0    0    0    0  0.00000000000E+00  0.00000000000E+00  0.74505805969E-08  0.10566000000E+00  0.10566000000E+00 0.  1.
     999900   -1    0    0    0    0 -0.00000000000E+00 -0.00000000000E+00 -0.74505805969E-08  0.93827000000E+00  0.93827000000E+00 0.  1.
     999902    2    1    2    0    0 -0.22591771389E-01  0.64520596043E-02  0.27578910835E-02  0.10202736442E+01  0.10199993558E+01 0.  0.
     999903    2    3    3    0    0 -0.15553365907E-01  0.11336338878E+00 -0.61516887803E-01  0.13144811649E+00  0.20027849070E-01 0.  0.
         14    1    1    2    0    0  0.22591771389E-01 -0.64520596043E-02 -0.27578910835E-02  0.23656355824E-01  0.00000000000E+00 0. -1.
     999901    1    3    3    0    0 -0.70384054820E-02 -0.10691132917E+00  0.64274778887E-01  0.88882552768E+00  0.88000000000E+00 0. -1.
        -11    1    4    4    0    0 -0.31548159001E-03  0.69408812974E-01 -0.40857074700E-01  0.80543432514E-01  0.51100000000E-03 0.  1.
         11    1    4    4    0    0 -0.15237884317E-01  0.43954575805E-01 -0.20659813103E-01  0.50904683980E-01  0.51100000000E-03 0. -1.
</event>
<event>
 8    1  0.1123470E+005  0.1043930E+01  0.7957747E-01            NaN
         13   -1    0    0    0    0  0.00000000000E+00  0.00000000000E+00  0.74505805969E-08  0.10566000000E+00  0.10566000000E+00 0.  1.
     999900   -1    0    0    0    0 -0.00000000000E+00 -0.00000000000E+00 -0.74505805969E-08  0.93827000000E+00  0.93827000000E+00 0. -1.
     999902    2    1    2    0    0 -0.94844945545E-02  0.14553051405E-01  0.16648691026E-01  0.10198691219E+01  0.10195852588E+01 0.  0.
     999903    2    3    3    0    0 -0.10716618136E-01 -0.30073455017E-01 -0.12212894449E+00  0.12787569405E+00  0.20431726439E-01 0.  0.
         14    1    1    2    0    0  0.94844945545E-02 -0.14553051405E-01 -0.16648691026E-01  0.24060878102E-01  0.00000000000E+00 0. -1.
     999901    1    3    3    0    0  0.12321235814E-02  0.44626506422E-01  0.13877763552E+00  0.89199342785E+00  0.88000000000E+00 0.  1.
        -11    1    4    4    0    0 -0.10962263220E-01 -0.17128555460E-01 -0.41560350693E-01  0.46271832661E-01  0.51100000000E-03 0.  1.
         11    1    4    4    0    0  0.24564508378E-03 -0.12944899557E-01 -0.80568593798E-01  0.81603861389E-01  0.51100000000E-03 0. -1.
</event>
<event>
 8    1  0.1123470E+005  0.1043930E+01  0.7957747E-01            NaN
         13   -1    0    0    0    0  0.00000000000E+00  0.00000000000E+00  0.74505805969E-08  0.10566000000E+00  0.10566000000E+00 0.  1.
     999900   -1    0    0    0    0 -0.00000000000E+00 -0.00000000000E+00 -0.74505805969E-08  0.93827000000E+00  0.93827000000E+00 0. -1.
     999902    2    1    2    0    0 -0.51210816427E-02  0.17351420069E-01  0.15117741866E-01  0.10203536692E+01  0.10200812550E+01 0.  0.
     999903    2    3    3    0    0  0.66201130241E-01  0.89245001743E-01 -0.66120209510E-01  0.13082843079E+00  0.19923258177E-01 0.  0.
         14    1    1    2    0    0  0.51210816427E-02 -0.17351420069E-01 -0.15117741866E-01  0.23576330815E-01  0.00000000000E+00 0. -1.
     999901    1    3    3    0    0 -0.71322211884E-01 -0.71893581675E-01  0.81237951376E-01  0.88952523839E+00  0.88000000000E+00 0.  1.
        -11    1    4    4    0    0  0.29418764438E-01  0.49516892370E-01 -0.43360931250E-01  0.72095893163E-01  0.51100000000E-03 0. -1.
         11    1    4    4    0    0  0.36782365803E-01  0.39728109373E-01 -0.22759278260E-01  0.58732537629E-01  0.51100000000E-03 0.  1.
</event>
<event>
 8    1  0.1123470E+005  0.1043930E+01  0.7957747E-01            NaN
         13   -1    0    0    0    0  0.00000000000E+00  0.00000000000E+00  0.74505805969E-08  0.10566000000E+00  0.10566000000E+00 0.  1.
     999900   -1    0    0    0    0 -0.00000000000E+00 -0.00000000000E+00 -0.74505805969E-08  0.93827000000E+00  0.93827000000E+00 0. -1.
     999902    2    1    2    0    0 -0.70516478061E-02  0.22012705148E-01  0.43542486312E-02  0.10204088519E+01  0.10201377263E+01 0.  0.
     999903    2    3    3    0    0 -0.85725043133E-01  0.79586870843E-01  0.60947094306E-01  0.13321832119E+00  0.18700795819E-01 0.  0.
         14    1    1    2    0    0  0.70516478061E-02 -0.22012705148E-01 -0.43542486312E-02  0.23521148055E-01  0.00000000000E+00 0. -1.
     999901    1    3    3    0    0  0.78673395327E-01 -0.57574165696E-01 -0.56592845675E-01  0.88719053076E+00  0.88000000000E+00 0. -1.
        -11    1    4    4    0    0 -0.52568037873E-01  0.44720635342E-01  0.45560975331E-01  0.82700649485E-01  0.51100000000E-03 0.  1.
         11    1    4    4    0    0 -0.33157005260E-01  0.34866235501E-01  0.15386118975E-01  0.50517671700E-01  0.51100000000E-03 0. -1.
</event>
<event>
 8    1  0.1123470E+005  0.1043930E+01  0.7957747E-01            NaN
         13   -1    0    0    0    0  0.00000000000E+00  0.00000000000E+00  0.74505805969E-08  0.10566000000E+00  0.10566000000E+00 0. -1.
     999900   -1    0    0    0    0 -0.00000000000E+00 -0.00000000000E+00 -0.74505805969E-08  0.93827000000E+00  0.93827000000E+00 0. -1.
     999902    2    1    2    0    0  0.26037318406E-01  0.64423296650E-02 -0.45557202470E-02  0.10167233804E+01  0.10163593027E+01 0.  0.
     999903    2    3    3    0    0  0.98077740877E-02  0.35194131810E-01 -0.12124997186E+00  0.12840608768E+00  0.21254372045E-01 0.  0.
         14    1    1    2    0    0 -0.26037318406E-01 -0.64423296650E-02  0.45557202470E-02  0.27206619567E-01  0.00000000000E+00 0.  1.
     999901    1    3    3    0    0  0.16229544318E-01 -0.28751802145E-01  0.11669425162E+00  0.88831729275E+00  0.88000000000E+00 0.  1.
        -11    1    4    4    0    0  0.97545686007E-02  0.21766738187E-01 -0.10309352718E+00  0.10581814101E+00  0.51100000000E-03 0. -1.
         11    1    4    4    0    0  0.53205487071E-04  0.13427393624E-01 -0.18156444688E-01  0.22587946676E-01  0.51100000000E-03 0.  1.
</event>
<event>
 8    1  0.1123470E+005  0.1043930E+01  0.7957747E-01            NaN
         13   -1    0    0    0    0  0.00000000000E+00  0.00000000000E+00  0.74505805969E-08  0.10566000000E+00  0.10566000000E+00 0.  1.
     999900   -1    0    0    0    0 -0.00000000000E+00 -0.00000000000E+00 -0.74505805969E-08  0.93827000000E+00  0.93827000000E+00 0. -1.
     999902    2    1    2    0    0 -0.22666205513E-01 -0.63893911178E-02 -0.10495608173E-01  0.10181474675E+01  0.10178209698E+01 0.  0.
     999903    2    3    3    0    0 -0.48003632411E-01  0.11627481565E+00 -0.18199368163E-01  0.12924486274E+00  0.23427250483E-01 0.  0.
         14    1    1    2    0    0  0.22666205513E-01  0.63893911178E-02  0.10495608173E-01  0.25782532501E-01  0.00000000000E+00 0. -1.
     999901    1    3    3    0    0  0.25337426898E-01 -0.12266420677E+00  0.77037599899E-02  0.88890260476E+00  0.88000000000E+00 0.  1.
        -11    1    4    4    0    0 -0.15149970255E-01  0.64816238872E-01 -0.48028648166E-02  0.66738257782E-01  0.51100000000E-03 0. -1.
         11    1    4    4    0    0 -0.32853662156E-01  0.51458576777E-01 -0.13396503346E-01  0.62506604962E-01  0.51100000000E-03 0.  1.
</event>
<event>
 8    1  0.1123470E+005  0.1043930E+01  0.7957747E-01            NaN
         13   -1    0    0    0    0  0.00000000000E+00  0.00000000000E+00  0.74505805969E-08  0.10566000000E+00  0.10566000000E+00 0.  1.
     999900   -1    0    0    0    0 -0.00000000000E+00 -0.00000000000E+00 -0.74505805969E-08  0.93827000000E+00  0.93827000000E+00 0. -1.
     999902    2    1    2    0    0  0.13181838894E-01  0.10436469193E-01  0.16990629126E-01  0.10200268152E+01  0.10197467046E+01 0.  0.
     999903    2    3    3    0    0  0.73108758045E-01  0.94251677634E-01 -0.51682991570E-01  0.13135798431E+00  0.18855216368E-01 0.  0.
         14    1    1    2    0    0 -0.13181838894E-01 -0.10436469193E-01 -0.16990629126E-01  0.23903184808E-01  0.00000000000E+00 0. -1.
     999901    1    3    3    0    0 -0.59926919151E-01 -0.83815208440E-01  0.68673620696E-01  0.88866883088E+00  0.88000000000E+00 0.  1.
        -11    1    4    4    0    0  0.54076408094E-01  0.60988630968E-01 -0.27433363729E-01  0.86004195166E-01  0.51100000000E-03 0.  1.
         11    1    4    4    0    0  0.19032349952E-01  0.33263046666E-01 -0.24249627841E-01  0.45353789143E-01  0.51100000000E-03 0. -1.
</event>
<event>
 8    1  0.1123470E+005  0.1043930E+01  0.7957747E-01            NaN
         13   -1    0    0    0    0  0.00000000000E+00  0.00000000000E+00  0.74505805969E-08  0.10566000000E+00  0.10566000000E+00 0. -1.
     999900   -1    0    0    0    0 -0.00000000000E+00 -0.00000000000E+00 -0.74505805969E-08  0.93827000000E+00  0.93827000000E+00 0.  1.
     999902    2    1    2    0    0  0.92197795283E-02 -0.15963052557E-01 -0.15244914382E-01  0.10200086540E+01  0.10197281125E+01 0.  0.
     999903    2    3    3    0    0  0.23834039120E-01 -0.49533243482E-01  0.11559878539E+00  0.12958144859E+00  0.20166035916E-01 0.  0.
         14    1    1    2    0    0 -0.92197795283E-02  0.15963052557E-01  0.15244914382E-01  0.23921346033E-01  0.00000000000E+00 0.  1.
     999901    1    3    3    0    0 -0.14614259592E-01  0.33570190925E-01 -0.13084369977E+00  0.89042720538E+00  0.88000000000E+00 0.  1.
        -11    1    4    4    0    0  0.13599738574E-01 -0.45090776940E-01  0.98121618973E-01  0.10884045335E+00  0.51100000000E-03 0.  1.
         11    1    4    4    0    0  0.10234300546E-01 -0.44424665416E-02  0.17477166418E-01  0.20740995243E-01  0.51100000000E-03 0. -1.
</event>
<event>
 8    1  0.1123470E+005  0.1043930E+01  0.7957747E-01            NaN
         13   -1    0    0    0    0  0.00000000000E+00  0.00000000000E+00  0.74505805969E-08  0.10566000000E+00  0.10566000000E+00 0. -1.
     999900   -1    0    0    0    0 -0.00000000000E+00 -0.00000000000E+00 -0.74505805969E-08  0.93827000000E+00  0.93827000000E+00 0. -1.
     999902    2    1    2    0    0  0.19627799057E-01  0.16902616141E-01  0.16314610880E-01  0.10133176584E+01  0.10128551532E+01 0.  0.
     999903    2    3    3    0    0  0.91330238634E-01 -0.82426100210E-01  0.50324006605E-03  0.12469094649E+00  0.20305280105E-01 0.  0.
         14    1    1    2    0    0 -0.19627799057E-01 -0.16902616141E-01 -0.16314610880E-01  0.30612341570E-01  0.00000000000E+00 0.  1.
     999901    1    3    3    0    0 -0.71702439577E-01  0.99328716351E-01  0.15811370814E-01  0.88862671194E+00  0.88000000000E+00 0. -1.
        -11    1    4    4    0    0  0.17492652091E-01 -0.27736789118E-01  0.71875115738E-03  0.32803964272E-01  0.51100000000E-03 0. -1.
         11    1    4    4    0    0  0.73837586543E-01 -0.54689311092E-01 -0.21551109133E-03  0.91886982214E-01  0.51100000000E-03 0.  1.
</event>
<event>
 8    1  0.1123470E+005  0.1043930E+01  0.7957747E-01            NaN
         13   -1    0    0    0    0  0.00000000000E+00  0.00000000000E+00  0.74505805969E-08  0.10566000000E+00  0.10566000000E+00 0.  1.
     999900   -1    0    0    0    0 -0.00000000000E+00 -0.00000000000E+00 -0.74505805969E-08  0.93827000000E+00  0.93827000000E+00 0. -1.
     999902    2    1    2    0    0 -0.72693434026E-02  0.14367517156E-01 -0.17519835959E-01  0.10201347577E+01  0.10198572010E+01 0.  0.
     999903    2    3    3    0    0 -0.80656564485E-01  0.97164693690E-01  0.32239396549E-01  0.13181215986E+00  0.19713135298E-01 0.  0.
         14    1    1    2    0    0  0.72693434026E-02 -0.14367517156E-01  0.17519835959E-01  0.23795242272E-01  0.00000000000E+00 0. -1.
     999901    1    3    3    0    0  0.73387221083E-01 -0.82797176534E-01 -0.49759232508E-01  0.88832259787E+00  0.88000000000E+00 0. -1.
        -11    1    4    4    0    0 -0.34528199647E-02  0.13514817487E-01  0.42016476746E-02  0.14576941435E-01  0.51100000000E-03 0. -1.
         11    1    4    4    0    0 -0.77203744521E-01  0.83649876203E-01  0.28037748874E-01  0.11723521843E+00  0.51100000000E-03 0.  1.
</event>
<event>
 8    1  0.1123470E+005  0.1043930E+01  0.7957747E-01            NaN
         13   -1    0    0    0    0  0.00000000000E+00  0.00000000000E+00  0.74505805969E-08  0.10566000000E+00  0.10566000000E+00 0. -1.
     999900   -1    0    0    0    0 -0.00000000000E+00 -0.00000000000E+00 -0.74505805969E-08  0.93827000000E+00  0.93827000000E+00 0. -1.
     999902    2    1    2    0    0 -0.92526955064E-02  0.11242877054E-01  0.16510647501E-01  0.10219160013E+01  0.10216788622E+01 0.  0.
     999903    2    3    3    0    0 -0.11810183282E+00 -0.41936207265E-01  0.40966158927E-01  0.13327984304E+00  0.19457697380E-01 0.  0.
         14    1    1    2    0    0  0.92526955064E-02 -0.11242877054E-01 -0.16510647501E-01  0.22013998716E-01  0.00000000000E+00 0.  1.
     999901    1    3    3    0    0  0.10884913732E+00  0.53179084319E-01 -0.24455511426E-01  0.88863615825E+00  0.88000000000E+00 0. -1.
        -11    1    4    4    0    0 -0.93492820937E-01 -0.25016816531E-01  0.34255767294E-01  0.10266677841E+00  0.51100000000E-03 0. -1.
         11    1    4    4    0    0 -0.24609011884E-01 -0.16919390734E-01  0.67103916327E-02  0.30613064623E-01  0.51100000000E-03 0.  1.
</event>
<event>
 8    1  0.1123470E+005  0.1043930E+01  0.7957747E-01            NaN
         13   -1    0    0    0    0  0.00000000000E+00  0.00000000000E+00  0.74505805969E-08  0.10566000000E+00  0.10566000000E+00 0. -1.
     999900   -1    0    0    0    0 -0.00000000000E+00 -0.00000000000E+00 -0.74505805969E-08  0.93827000000E+00  0.93827000000E+00 0. -1.
     999902    2    1    2    0    0  0.97145276376E-02 -0.20259235634E-01  0.22763603826E-02  0.10213470309E+01  0.10210973348E+01 0.  0.
     999903    2    3    3    0    0  0.12708973788E+00 -0.27764256428E-01  0.21426693721E-01  0.13331549962E+00  0.19780389939E-01 0.  0.
         14    1    1    2    0    0 -0.97145276376E-02  0.20259235634E-01 -0.22763603826E-02  0.22582969076E-01  0.00000000000E+00 0.  1.
     999901    1    3    3    0    0 -0.11737521024E+00  0.75050207943E-02 -0.19150333338E-01  0.88803153130E+00  0.88000000000E+00 0. -1.
        -11    1    4    4    0    0  0.10642206642E+00 -0.22850369148E-01  0.25213396988E-01  0.11173080193E+00  0.51100000000E-03 0. -1.
         11    1    4    4    0    0  0.20667671462E-01 -0.49138872796E-02 -0.37867032678E-02  0.21584697693E-01  0.51100000000E-03 0.  1.
</event>
<event>
 8    1  0.1123470E+005  0.1043930E+01  0.7957747E-01            NaN
         13   -1    0    0    0    0  0.00000000000E+00  0.00000000000E+00  0.74505805969E-08  0.10566000000E+00  0.10566000000E+00 0. -1.
     999900   -1    0    0    0    0 -0.00000000000E+00 -0.00000000000E+00 -0.74505805969E-08  0.93827000000E+00  0.93827000000E+00 0. -1.
     999902    2    1    2    0    0  0.20758056982E-01 -0.10051391963E-01  0.17064179233E-02  0.10208034077E+01  0.10205414043E+01 0.  0.
     999903    2    3    3    0    0 -0.42597356104E-01  0.46235642978E-02 -0.12127907635E+00  0.12987428900E+00  0.17966760716E-01 0.  0.
         14    1    1    2    0    0 -0.20758056982E-01  0.10051391963E-01 -0.17064179233E-02  0.23126592317E-01  0.00000000000E+00 0. -1.
     999901    1    3    3    0    0  0.63355413086E-01 -0.14674956261E-01  0.12298549427E+00  0.89092911868E+00  0.88000000000E+00 0.  1.
        -11    1    4    4    0    0 -0.13242795687E-01  0.34611580897E-02 -0.18762393909E-01  0.23230148496E-01  0.51100000000E-03 0.  1.
         11    1    4    4    0    0 -0.29354560416E-01  0.11624062081E-02 -0.10251668244E+00  0.10664414051E+00  0.51100000000E-03 0. -1.
</event>
<event>
 8    1  0.1123470E+005  0.1043930E+01  0.7957747E-01            NaN
         13   -1    0    0    0    0  0.00000000000E+00  0.00000000000E+00  0.74505805969E-08  0.10566000000E+00  0.10566000000E+00 0. -1.
     999900   -1    0    0    0    0 -0.00000000000E+00 -0.00000000000E+00 -0.74505805969E-08  0.93827000000E+00  0.93827000000E+00 0. -1.
     999902    2    1    2    0    0  0.25381568735E-03 -0.66414688837E-02 -0.22751690490E-01  0.10202274062E+01  0.10199520319E+01 0.  0.
     999903    2    3    3    0    0 -0.95218169621E-01 -0.55630389597E-01  0.64996695947E-01  0.12937691728E+00  0.18777011717E-01 0.  0.
         14    1    1    2    0    0 -0.25381568735E-03  0.66414688837E-02  0.22751690490E-01  0.23702593772E-01  0.00000000000E+00 0. -1.
     999901    1    3    3    0    0  0.95471985308E-01  0.48988920714E-01 -0.87748386437E-01  0.89085048895E+00  0.88000000000E+00 0. -1.
        -11    1    4    4    0    0 -0.25804268203E-01 -0.59048860091E-02  0.15561574779E-01  0.30710774443E-01  0.51100000000E-03 0.  1.
         11    1    4    4    0    0 -0.69413901418E-01 -0.49725503588E-01  0.49435121167E-01  0.98666142840E-01  0.51100000000E-03 0. -1.
</event>
<event>
 8    1  0.1123470E+005  0.1043930E+01  0.7957747E-01            NaN
         13   -1    0    0    0    0  0.00000000000E+00  0.00000000000E+00  0.74505805969E-08  0.10566000000E+00  0.10566000000E+00 0.  1.
     999900   -1    0    0    0    0 -0.00000000000E+00 -0.00000000000E+00 -0.74505805969E-08  0.93827000000E+00  0.93827000000E+00 0. -1.
     999902    2    1    2    0    0 -0.22865310930E-01 -0.60673535526E-02  0.78454435055E-02  0.10190063926E+01  0.10187015470E+01 0.  0.
     999903    2    3    3    0    0  0.75947293167E-01 -0.98056155474E-01 -0.24601934932E-01  0.12811992238E+00  0.20650867869E-01 0.  0.
         14    1    1    2    0    0  0.22865310930E-01  0.60673535526E-02 -0.78454435055E-02  0.24923607421E-01  0.00000000000E+00 0. -1.
     999901    1    3    3    0    0 -0.98812604097E-01  0.91988801922E-01  0.32447378437E-01  0.89088647019E+00  0.88000000000E+00 0.  1.
        -11    1    4    4    0    0  0.57421884557E-01 -0.80444274634E-01 -0.26951262018E-01  0.10244601404E+00  0.51100000000E-03 0. -1.
         11    1    4    4    0    0  0.18525408610E-01 -0.17611880840E-01  0.23493270868E-02  0.25673908344E-01  0.51100000000E-03 0.  1.
</event>
<event>
 8    1  0.1123470E+005  0.1043930E+01  0.7957747E-01            NaN
         13   -1    0    0    0    0  0.00000000000E+00  0.00000000000E+00  0.74505805969E-08  0.10566000000E+00  0.10566000000E+00 0.  1.
     999900   -1    0    0    0    0 -0.00000000000E+00 -0.00000000000E+00 -0.74505805969E-08  0.93827000000E+00  0.93827000000E+00 0. -1.
     999902    2    1    2    0    0  0.13092726195E-01  0.66421333902E-02  0.19013317062E-01  0.10199082673E+01  0.10196253381E+01 0.  0.
     999903    2    3    3    0    0  0.89111310689E-01 -0.90185453364E-01  0.27163261335E-01  0.13130215192E+00  0.20692284553E-01 0.  0.
         14    1    1    2    0    0 -0.13092726195E-01 -0.66421333902E-02 -0.19013317062E-01  0.24021732679E-01  0.00000000000E+00 0.  1.
     999901    1    3    3    0    0 -0.76018584494E-01  0.96827586754E-01 -0.81499442733E-02  0.88860611541E+00  0.88000000000E+00 0. -1.
        -11    1    4    4    0    0  0.23249903063E-01 -0.30782899527E-01  0.16533344493E-01  0.41973295044E-01  0.51100000000E-03 0. -1.
         11    1    4    4    0    0  0.65861407626E-01 -0.59402553837E-01  0.10629916842E-01  0.89328856871E-01  0.51100000000E-03 0.  1.
</event>
<event>
 8    1  0.1123470E+005  0.1043930E+01  0.7957747E-01            NaN
         13   -1    0    0    0    0  0.00000000000E+00  0.00000000000E+00  0.74505805969E-08  0.10566000000E+00  0.10566000000E+00 0.  1.
     999900   -1    0    0    0    0 -0.00000000000E+00 -0.00000000000E+00 -0.74505805969E-08  0.93827000000E+00  0.93827000000E+00 0. -1.
     999902    2    1    2    0    0 -0.15843049778E-01  0.14820001953E-01  0.86511092020E-02  0.10205745643E+01  0.10203072895E+01 0.  0.
     999903    2    3    3    0    0 -0.57868158661E-02  0.14754220230E-01  0.13031766679E+00  0.13214680510E+00  0.15129757706E-01 0.  0.
         14    1    1    2    0    0  0.15843049778E-01 -0.14820001953E-01 -0.86511092020E-02  0.23355435654E-01  0.00000000000E+00 0. -1.
     999901    1    3    3    0    0 -0.10056233912E-01  0.65781722859E-04 -0.12166655759E+00  0.88842775925E+00  0.88000000000E+00 0. -1.
        -11    1    4    4    0    0  0.47474297411E-02  0.29666536888E-02  0.47571253460E-01  0.47902237944E-01  0.51100000000E-03 0.  1.
         11    1    4    4    0    0 -0.10534245607E-01  0.11787566541E-01  0.82746413327E-01  0.84244567154E-01  0.51100000000E-03 0. -1.
</event>
<event>
 8    1  0.1123470E+005  0.1043930E+01  0.7957747E-01            NaN
         13   -1    0    0    0    0  0.00000000000E+00  0.00000000000E+00  0.74505805969E-08  0.10566000000E+00  0.10566000000E+00 0. -1.
     999900   -1    0    0    0    0 -0.00000000000E+00 -0.00000000000E+00 -0.74505805969E-08  0.93827000000E+00  0.93827000000E+00 0.  1.
     999902    2    1    2    0    0 -0.13355683624E-01  0.13641692460E-02 -0.18534305597E-01  0.10210442899E+01  0.10207877773E+01 0.  0.
     999903    2    3    3    0    0 -0.49347801151E-01  0.38165175435E-01 -0.11702423297E+00  0.13405499325E+00  0.19603163508E-01 0.  0.
         14    1    1    2    0    0  0.13355683624E-01 -0.13641692460E-02  0.18534305597E-01  0.22885710099E-01  0.00000000000E+00 0. -1.
     999901    1    3    3    0    0  0.35992117527E-01 -0.36801006189E-01  0.98489927369E-01  0.88698929665E+00  0.88000000000E+00 0. -1.
        -11    1    4    4    0    0 -0.21975714161E-01  0.75265581082E-02 -0.31185288068E-01  0.38889129622E-01  0.51100000000E-03 0.  1.
         11    1    4    4    0    0 -0.27372086989E-01  0.30638617327E-01 -0.85838944898E-01  0.95165863628E-01  0.51100000000E-03 0. -1.
</event>
<event>
 8    1  0.1123470E+005  0.1043930E+01  0.7957747E-01            NaN
         13   -1    0    0    0    0  0.00000000000E+00  0.00000000000E+00  0.74505805969E-08  0.10566000000E+00  0.10566000000E+00 0. -1.
     999900   -1    0    0    0    0 -0.00000000000E+00 -0.00000000000E+00 -0.74505805969E-08  0.93827000000E+00  0.93827000000E+00 0. -1.
     999902    2    1    2    0    0  0.14703456449E-01 -0.16518565156E-02 -0.21934721911E-01  0.10174714988E+01  0.10171274249E+01 0.  0.
     999903    2    3    3    0    0 -0.12384613503E+00  0.12527169357E-01  0.40650291868E-02  0.12613933784E+00  0.19995323306E-01 0.  0.
         14    1    1    2    0    0 -0.14703456449E-01  0.16518565156E-02  0.21934721911E-01  0.26458501220E-01  0.00000000000E+00 0. -1.
     999901    1    3    3    0    0  0.13854959148E+00 -0.14179025872E-01 -0.25999751098E-01  0.89133216094E+00  0.88000000000E+00 0. -1.
        -11    1    4    4    0    0 -0.64219745682E-01  0.15704719309E-01  0.60726874539E-02  0.66392413707E-01  0.51100000000E-03 0.  1.
         11    1    4    4    0    0 -0.59626389348E-01 -0.31775499519E-02 -0.20076582671E-02  0.59746924130E-01  0.51100000000E-03 0. -1.
</event>
<event>
 8    1  0.1123470E+005  0.1043930E+01  0.7957747E-01            NaN
         13   -1    0    0    0    0  0.00000000000E+00  0.00000000000E+00  0.74505805969E-08  0.10566000000E+00  0.10566000000E+00 0. -1.
     999900   -1    0    0    0    0 -0.00000000000E+00 -0.00000000000E+00 -0.74505805969E-08  0.93827000000E+00  0.93827000000E+00 0.  1.
     999902    2    1    2    0    0 -0.11052897718E-01 -0.13633247626E-01 -0.17412619200E-01  0.10192069076E+01  0.10189070072E+01 0.  0.
     999903    2    3    3    0    0  0.99393325177E-01 -0.27946045007E-02 -0.81416699434E-01  0.12993059139E+00  0.19142537170E-01 0.  0.
         14    1    1    2    0    0  0.11052897718E-01  0.13633247626E-01  0.17412619200E-01  0.24723092367E-01  0.00000000000E+00 0. -1.
     999901    1    3    3    0    0 -0.11044622289E+00 -0.10838643126E-01  0.64004080234E-01  0.88927631624E+00  0.88000000000E+00 0.  1.
        -11    1    4    4    0    0  0.85203678029E-01 -0.43279247478E-02 -0.77150844281E-01  0.11502569964E+00  0.51100000000E-03 0.  1.
         11    1    4    4    0    0  0.14189647148E-01  0.15333202472E-02 -0.42658551525E-02  0.14904891759E-01  0.51100000000E-03 0. -1.
</event>
<event>
 8    1  0.1123470E+005  0.1043930E+01  0.7957747E-01            NaN
         13   -1    0    0    0    0  0.00000000000E+00  0.00000000000E+00  0.74505805969E-08  0.10566000000E+00  0.10566000000E+00 0. -1.
     999900   -1    0    0    0    0 -0.00000000000E+00 -0.00000000000E+00 -0.74505805969E-08  0.93827000000E+00  0.93827000000E+00 0.  1.
     999902    2    1    2    0    0 -0.14185216402E-01 -0.81223817385E-02 -0.17053618935E-01  0.10203075664E+01  0.10200340733E+01 0.  0.
     999903    2    3    3    0    0  0.11676035832E+00  0.12789625354E-01 -0.51172777786E-01  0.12971890010E+00  0.20292463220E-01 0.  0.
         14    1    1    2    0    0  0.14185216402E-01  0.81223817385E-02  0.17053618935E-01  0.23622433580E-01  0.00000000000E+00 0. -1.
     999901    1    3    3    0    0 -0.13094557473E+00 -0.20912007092E-01  0.34119158852E-01  0.89058866632E+00  0.88000000000E+00 0.  1.
        -11    1    4    4    0    0  0.76377443956E-01  0.16606496494E-01 -0.39079649437E-01  0.87388613630E-01  0.51100000000E-03 0.  1.
         11    1    4    4    0    0  0.40382914368E-01 -0.38168711405E-02 -0.12093128349E-01  0.42330286468E-01  0.51100000000E-03 0. -1.
</event>
<event>
 8    1  0.1123470E+005  0.1043930E+01  0.7957747E-01            NaN
         13   -1    0    0    0    0  0.00000000000E+00  0.00000000000E+00  0.74505805969E-08  0.10566000000E+00  0.10566000000E+00 0.  1.
     999900   -1    0    0    0    0 -0.00000000000E+00 -0.00000000000E+00 -0.74505805969E-08  0.93827000000E+00  0.93827000000E+00 0.  1.
     999902    2    1    2    0    0  0.17667025710E-01  0.15298668731E-01  0.22849581933E-02  0.10204482178E+01  0.10201780095E+01 0.  0.
     999903    2    3    3    0    0  0.12027603841E+00  0.31672341697E-01  0.43635008700E-01  0.13337069392E+00  0.20353509994E-01 0.  0.
         14    1    1    2    0    0 -0.17667025710E-01 -0.15298668731E-01 -0.22849581933E-02  0.23481782222E-01  0.00000000000E+00 0. -1.
     999901    1    3    3    0    0 -0.10260901270E+00 -0.16373672966E-01 -0.41350050506E-01  0.88707752386E+00  0.88000000000E+00 0.  1.
        -11    1    4    4    0    0  0.76647976717E-01  0.16867293681E-01  0.17540058609E-01  0.80419728351E-01  0.51100000000E-03 0. -1.
         11    1    4    4    0    0  0.43628061692E-01  0.14805048016E-01  0.26094950090E-01  0.52950965571E-01  0.51100000000E-03 0.  1.
</event>
<event>
 8    1  0.1123470E+005  0.1043930E+01  0.7957747E-01            NaN
         13   -1    0    0    0    0  0.00000000000E+00  0.00000000000E+00  0.74505805969E-08  0.10566000000E+00  0.10566000000E+00 0.  1.
     999900   -1    0    0    0    0 -0.00000000000E+00 -0.00000000000E+00 -0.74505805969E-08  0.93827000000E+00  0.93827000000E+00 0. -1.
     999902    2    1    2    0    0  0.18396231531E-01 -0.72706383248E-02 -0.12977369305E-01  0.10202721127E+01  0.10199977884E+01 0.  0.
     999903    2    3    3    0    0  0.57142113404E-01  0.11637080325E+00  0.45241670504E-02  0.13061220399E+00  0.15221523222E-01 0.  0.
         14    1    1    2    0    0 -0.18396231531E-01  0.72706383248E-02  0.12977369305E-01  0.23657887274E-01  0.00000000000E+00 0. -1.
     999901    1    3    3    0    0 -0.38745881874E-01 -0.12364144158E+00 -0.17501536355E-01  0.88965990874E+00  0.88000000000E+00 0. -1.
        -11    1    4    4    0    0  0.18885456678E-01  0.55462148768E-01  0.29771154165E-02  0.58667152284E-01  0.51100000000E-03 0.  1.
         11    1    4    4    0    0  0.38256656726E-01  0.60908654487E-01  0.15470516339E-02  0.71945051706E-01  0.51100000000E-03 0. -1.
</event>
<event>
 8    1  0.1123470E+005  0.1043930E+01  0.7957747E-01            NaN
         13   -1    0    0    0    0  0.00000000000E+00  0.00000000000E+00  0.74505805969E-08  0.10566000000E+00  0.10566000000E+00 0.  1.
     999900   -1    0    0    0    0 -0.00000000000E+00 -0.00000000000E+00 -0.74505805969E-08  0.93827000000E+00  0.93827000000E+00 0.  1.
     999902    2    1    2    0    0  0.29096027758E-01 -0.96388552129E-02 -0.69693081522E-02  0.10124966162E+01  0.10120085673E+01 0.  0.
     999903    2    3    3    0    0  0.21897903867E-02  0.87891800669E-01 -0.84387265177E-01  0.12332300294E+00  0.18910016474E-01 0.  0.
         14    1    1    2    0    0 -0.29096027758E-01  0.96388552129E-02  0.69693081522E-02  0.31433383802E-01  0.00000000000E+00 0.  1.
     999901    1    3    3    0    0  0.26906237372E-01 -0.97530655881E-01  0.77417957025E-01  0.88917361326E+00  0.88000000000E+00 0. -1.
        -11    1    4    4    0    0  0.56307398029E-02  0.71650372185E-02 -0.83969460184E-02  0.12402129354E-01  0.51100000000E-03 0. -1.
         11    1    4    4    0    0 -0.34409494162E-02  0.80726763450E-01 -0.75990319159E-01  0.11092087359E+00  0.51100000000E-03 0.  1.
</event>
<event>
 8    1  0.1123470E+005  0.1043930E+01  0.7957747E-01            NaN
         13   -1    0    0    0    0  0.00000000000E+00  0.00000000000E+00  0.74505805969E-08  0.10566000000E+00  0.10566000000E+00 0.  1.
     999900   -1    0    0    0    0 -0.00000000000E+00 -0.00000000000E+00 -0.74505805969E-08  0.93827000000E+00  0.93827000000E+00 0. -1.
     999902    2    1    2    0    0  0.11974800443E-01  0.15859847225E-01 -0.23195612349E-01  0.10133854910E+01  0.10129250645E+01 0.  0.
     999903    2    3    3    0    0  0.11133255845E+00 -0.45988408812E-01  0.23226300256E-01  0.12442420676E+00  0.20785809765E-01 0.  0.
         14    1    1    2    0    0 -0.11974800443E-01 -0.15859847225E-01  0.23195612349E-01  0.30544509030E-01  0.00000000000E+00 0.  1.
     999901    1    3    3    0    0 -0.99357758011E-01  0.61848256037E-01 -0.46421912605E-01  0.88896128421E+00  0.88000000000E+00 0.  1.
        -11    1    4    4    0    0  0.82879377343E-01 -0.38075430056E-01  0.25765296160E-01  0.94777851684E-01  0.51100000000E-03 0.  1.
         11    1    4    4    0    0  0.28453181111E-01 -0.79129787555E-02 -0.25389959038E-02  0.29646355077E-01  0.51100000000E-03 0. -1.
</event>
<event>
 8    1  0.1207787E+005  0.1043930E+01  0.7957747E-01            NaN
         13   -1    0    0    0    0  0.00000000000E+00  0.00000000000E+00  0.74505805969E-08  0.10566000000E+00  0.10566000000E+00 0.  1.
     999900   -1    0    0    0    0 -0.00000000000E+00 -0.00000000000E+00 -0.74505805969E-08  0.93827000000E+00  0.93827000000E+00 0. -1.
     999902    2    1    2    0    0 -0.32718417460E-02 -0.36594031067E-01 -0.77068025571E-02  0.10063903827E+01  0.10056900017E+01 0.  0.
     999903    2    3    3    0    0 -0.13851609415E-01 -0.11539090408E+00  0.30558043966E-01  0.12197810492E+00  0.20926925305E-01 0.  0.
         14    1    1    2    0    0  0.32718417460E-02  0.36594031067E-01  0.77068025571E-02  0.37539617257E-01  0.00000000000E+00 0.  1.
     999901    1    3    3    0    0  0.10579767669E-01  0.78796873009E-01 -0.38264846524E-01  0.88441227782E+00  0.88000000000E+00 0. -1.
        -11    1    4    4    0    0 -0.99587949922E-03 -0.61793858787E-01  0.24666513725E-01  0.66544502254E-01  0.51100000000E-03 0. -1.
         11    1    4    4    0    0 -0.12855729916E-01 -0.53597045289E-01  0.58915302410E-02  0.55433602669E-01  0.51100000000E-03 0.  1.
</event>
<event>
 8    1  0.1123470E+005  0.1043930E+01  0.7957747E-01            NaN
         13   -1    0    0    0    0  0.00000000000E+00  0.00000000000E+00  0.74505805969E-08  0.10566000000E+00  0.10566000000E+00 0.  1.
     999900   -1    0    0    0    0 -0.00000000000E+00 -0.00000000000E+00 -0.74505805969E-08  0.93827000000E+00  0.93827000000E+00 0. -1.
     999902    2    1    2    0    0  0.10630897628E-01  0.22508629718E-01  0.24608682193E-02  0.10189157987E+01  0.10186087053E+01 0.  0.
     999903    2    3    3    0    0  0.44000588334E-01  0.12251505860E+00  0.14956248444E-01  0.13253497949E+00  0.19895729772E-01 0.  0.
         14    1    1    2    0    0 -0.10630897628E-01 -0.22508629718E-01 -0.24608682193E-02  0.25014201338E-01  0.00000000000E+00 0. -1.
     999901    1    3    3    0    0 -0.33369690706E-01 -0.10000642888E+00 -0.12495380225E-01  0.88638081918E+00  0.88000000000E+00 0.  1.
        -11    1    4    4    0    0  0.18665855591E-01  0.63371124409E-01  0.16790167710E-01  0.68165126175E-01  0.51100000000E-03 0.  1.
         11    1    4    4    0    0  0.25334732743E-01  0.59143934189E-01 -0.18339192658E-02  0.64369853312E-01  0.51100000000E-03 0. -1.
</event>
<event>
 8    1  0.1123470E+005  0.1043930E+01  0.7957747E-01            NaN
         13   -1    0    0    0    0  0.00000000000E+00  0.00000000000E+00  0.74505805969E-08  0.10566000000E+00  0.10566000000E+00 0.  1.
     999900   -1    0    0    0    0 -0.00000000000E+00 -0.00000000000E+00 -0.74505805969E-08  0.93827000000E+00  0.93827000000E+00 0. -1.
     999902    2    1    2    0    0  0.75978576507E-02 -0.18868852747E-01  0.12284432558E-01  0.10201672491E+01  0.10198904588E+01 0.  0.
     999903    2    3    3    0    0  0.67669443367E-01 -0.50303324272E-01  0.10119298716E+00  0.13309258910E+00  0.19079796235E-01 0.  0.
         14    1    1    2    0    0 -0.75978576507E-02  0.18868852747E-01 -0.12284432558E-01  0.23762750854E-01  0.00000000000E+00 0. -1.
     999901    1    3    3    0    0 -0.60071585716E-01  0.31434471525E-01 -0.88908554606E-01  0.88707466004E+00  0.88000000000E+00 0. -1.
        -11    1    4    4    0    0  0.28323516112E-01 -0.97909438248E-02  0.35387244613E-01  0.46374587311E-01  0.51100000000E-03 0.  1.
         11    1    4    4    0    0  0.39345927254E-01 -0.40512380447E-01  0.65805742550E-01  0.86718001791E-01  0.51100000000E-03 0. -1.
</event>
<event>
 8    1  0.1123470E+005  0.1043930E+01  0.7957747E-01            NaN
         13   -1    0    0    0    0  0.00000000000E+00  0.00000000000E+00  0.74505805969E-08  0.10566000000E+00  0.10566000000E+00 0.  1.
     999900   -1    0    0    0    0 -0.00000000000E+00 -0.00000000000E+00 -0.74505805969E-08  0.93827000000E+00  0.93827000000E+00 0.  1.
     999902    2    1    2    0    0 -0.70478128118E-03 -0.22673537344E-01 -0.84747881410E-02  0.10197141365E+01  0.10194265604E+01 0.  0.
     999903    2    3    3    0    0  0.69803829714E-01 -0.92324616292E-01 -0.62291448279E-01  0.13251688110E+00  0.16854964632E-01 0.  0.
         14    1    1    2    0    0  0.70478128118E-03  0.22673537344E-01  0.84747881410E-02  0.24215863528E-01  0.00000000000E+00 0. -1.
     999901    1    3    3    0    0 -0.70508610995E-01  0.69651078948E-01  0.53816660138E-01  0.88719725537E+00  0.88000000000E+00 0. -1.
        -11    1    4    4    0    0  0.32657339133E-01 -0.29684872883E-01 -0.23677788721E-01  0.50085849069E-01  0.51100000000E-03 0. -1.
         11    1    4    4    0    0  0.37146490582E-01 -0.62639743410E-01 -0.38613659559E-01  0.82431032036E-01  0.51100000000E-03 0.  1.
</event>
<event>
 8    1  0.1123470E+005  0.1043930E+01  0.7957747E-01            NaN
         13   -1    0    0    0    0  0.00000000000E+00  0.00000000000E+00  0.74505805969E-08  0.10566000000E+00  0.10566000000E+00 0.  1.
     999900   -1    0    0    0    0 -0.00000000000E+00 -0.00000000000E+00 -0.74505805969E-08  0.93827000000E+00  0.93827000000E+00 0. -1.
     999902    2    1    2    0    0  0.21739197558E-01  0.21021372437E-01  0.28938058923E-02  0.10135513081E+01  0.10130959427E+01 0.  0.
     999903    2    3    3    0    0 -0.91331213553E-01 -0.49543174343E-01 -0.59223215329E-01  0.12135021111E+00  0.20556454200E-01 0.  0.
         14    1    1    2    0    0 -0.21739197558E-01 -0.21021372437E-01 -0.28938058923E-02  0.30378691909E-01  0.00000000000E+00 0.  1.
     999901    1    3    3    0    0  0.11307041111E+00  0.70564546779E-01  0.62117021221E-01  0.89220109698E+00  0.88000000000E+00 0.  1.
        -11    1    4    4    0    0 -0.58859558444E-01 -0.26881103522E-01 -0.46753761996E-01  0.79832429053E-01  0.51100000000E-03 0. -1.
         11    1    4    4    0    0 -0.32471655109E-01 -0.22662070820E-01 -0.12469453333E-01  0.41517782056E-01  0.51100000000E-03 0.  1.
</event>
<event>
 8    1  0.1123470E+005  0.1043930E+01  0.7957747E-01            NaN
         13   -1    0    0    0    0  0.00000000000E+00  0.00000000000E+00  0.74505805969E-08  0.10566000000E+00  0.10566000000E+00 0.  1.
     999900   -1    0    0    0    0 -0.00000000000E+00 -0.00000000000E+00 -0.74505805969E-08  0.93827000000E+00  0.93827000000E+00 0. -1.
     999902    2    1    2    0    0  0.11720587558E-01  0.19733411169E-01  0.83924753653E-02  0.10194920514E+01  0.10191991118E+01 0.  0.
     999903    2    3    3    0    0 -0.56248508556E-01 -0.64156248147E-01 -0.92228703011E-01  0.12720179901E+00  0.19855606811E-01 0.  0.
         14    1    1    2    0    0 -0.11720587558E-01 -0.19733411169E-01 -0.83924753653E-02  0.24437948601E-01  0.00000000000E+00 0. -1.
     999901    1    3    3    0    0  0.67969096114E-01  0.83889659316E-01  0.10062117838E+00  0.89229025239E+00  0.88000000000E+00 0.  1.
        -11    1    4    4    0    0 -0.18896757767E-01 -0.12035063168E-01 -0.15718152669E-01  0.27372461415E-01  0.51100000000E-03 0.  1.
         11    1    4    4    0    0 -0.37351750789E-01 -0.52121184979E-01 -0.76510550342E-01  0.99829337597E-01  0.51100000000E-03 0. -1.
</event>
<event>
 8    1  0.1123470E+005  0.1043930E+01  0.7957747E-01            NaN
         13   -1    0    0    0    0  0.00000000000E+00  0.00000000000E+00  0.74505805969E-08  0.10566000000E+00  0.10566000000E+00 0. -1.
     999900   -1    0    0    0    0 -0.00000000000E+00 -0.00000000000E+00 -0.74505805969E-08  0.93827000000E+00  0.93827000000E+00 0.  1.
     999902    2    1    2    0    0 -0.18285184895E-01  0.15671595557E-01 -0.50180682420E-03  0.10198426858E+01  0.10195581911E+01 0.  0.
     999903    2    3    3    0    0  0.40056887105E-01  0.55712874160E-01 -0.10907872965E+00  0.13035066814E+00  0.19612467214E-01 0.  0.
         14    1    1    2    0    0  0.18285184895E-01 -0.15671595557E-01  0.50180682420E-03  0.24087314172E-01  0.00000000000E+00 0. -1.
     999901    1    3    3    0    0 -0.58342072000E-01 -0.40041278603E-01  0.10857692283E+00  0.88949201769E+00  0.88000000000E+00 0. -1.
        -11    1    4    4    0    0  0.23775504457E-01  0.23878720687E-01 -0.67963091639E-01  0.75859810571E-01  0.51100000000E-03 0.  1.
         11    1    4    4    0    0  0.16281382648E-01  0.31834153473E-01 -0.41115638015E-01  0.54490857570E-01  0.51100000000E-03 0. -1.
</event>
<event>
 8    1  0.1123470E+005  0.1043930E+01  0.7957747E-01            NaN
         13   -1    0    0    0    0  0.00000000000E+00  0.00000000000E+00  0.74505805969E-08  0.10566000000E+00  0.10566000000E+00 0.  1.
     999900   -1    0    0    0    0 -0.00000000000E+00 -0.00000000000E+00 -0.74505805969E-08  0.93827000000E+00  0.93827000000E+00 0. -1.
     999902    2    1    2    0    0  0.12308829767E-01 -0.94678757700E-02  0.19393345651E-01  0.10190854872E+01  0.10187825972E+01 0.  0.
     999903    2    3    3    0    0 -0.19225151763E-01 -0.83881441521E-01  0.98058782313E-01  0.13188763907E+00  0.19316362471E-01 0.  0.
         14    1    1    2    0    0 -0.12308829767E-01  0.94678757700E-02 -0.19393345651E-01  0.24844512822E-01  0.00000000000E+00 0. -1.
     999901    1    3    3    0    0  0.31533981530E-01  0.74413565751E-01 -0.78665436662E-01  0.88719784811E+00  0.88000000000E+00 0. -1.
        -11    1    4    4    0    0 -0.12264055692E-01 -0.20809647158E-01  0.34091650811E-01  0.41784569555E-01  0.51100000000E-03 0. -1.
         11    1    4    4    0    0 -0.69610960708E-02 -0.63071794363E-01  0.63967131502E-01  0.90103069517E-01  0.51100000000E-03 0.  1.
</event>
<event>
 8    1  0.1123470E+005  0.1043930E+01  0.7957747E-01            NaN
         13   -1    0    0    0    0  0.00000000000E+00  0.00000000000E+00  0.74505805969E-08  0.10566000000E+00  0.10566000000E+00 0.  1.
     999900   -1    0    0    0    0 -0.00000000000E+00 -0.00000000000E+00 -0.74505805969E-08  0.93827000000E+00  0.93827000000E+00 0.  1.
     999902    2    1    2    0    0 -0.11164033503E-01 -0.58059031246E-02  0.22118054266E-01  0.10184829475E+01  0.10181649974E+01 0.  0.
     999903    2    3    3    0    0  0.50483681654E-01 -0.71915395475E-01  0.94816136710E-01  0.13087046623E+00  0.20409628372E-01 0.  0.
         14    1    1    2    0    0  0.11164033503E-01  0.58059031246E-02 -0.22118054266E-01  0.25447052475E-01  0.00000000000E+00 0. -1.
     999901    1    3    3    0    0 -0.61647715157E-01  0.66109492350E-01 -0.72698082444E-01  0.88761248130E+00  0.88000000000E+00 0. -1.
        -11    1    4    4    0    0  0.79011480122E-02 -0.21170631651E-01  0.14922820226E-01  0.27084598370E-01  0.51100000000E-03 0. -1.
         11    1    4    4    0    0  0.42582533642E-01 -0.50744763824E-01  0.79893316485E-01  0.10378586786E+00  0.51100000000E-03 0.  1.
</event>
<event>
 8    1  0.1123470E+005  0.1043930E+01  0.7957747E-01            NaN
         13   -1    0    0    0    0  0.00000000000E+00  0.00000000000E+00  0.74505805969E-08  0.10566000000E+00  0.10566000000E+00 0. -1.
     999900   -1    0    0    0    0 -0.00000000000E+00 -0.00000000000E+00 -0.74505805969E-08  0.93827000000E+00  0.93827000000E+00 0. -1.
     999902    2    1    2    0    0 -0.73017021845E-03  0.22968505894E-01  0.52472265832E-02  0.10203584324E+01  0.10200861296E+01 0.  0.
     999903    2    3    3    0    0 -0.17467119771E-01 -0.44312383857E-01 -0.11825099854E+00  0.12903433019E+00  0.19946730947E-01 0.  0.
         14    1    1    2    0    0  0.73017021845E-03 -0.22968505894E-01 -0.52472265832E-02  0.23571567584E-01  0.00000000000E+00 0. -1.
     999901    1    3    3    0    0  0.16736949552E-01  0.67280889751E-01  0.12349822512E+00  0.89132410223E+00  0.88000000000E+00 0.  1.
        -11    1    4    4    0    0 -0.40844343699E-02  0.10483791057E-02 -0.77699613826E-02  0.88552314345E-02  0.51100000000E-03 0.  1.
         11    1    4    4    0    0 -0.13382685401E-01 -0.45360762963E-01 -0.11048103716E+00  0.12017909875E+00  0.51100000000E-03 0. -1.
</event>
<event>
 8    1  0.1123470E+005  0.1043930E+01  0.7957747E-01            NaN
         13   -1    0    0    0    0  0.00000000000E+00  0.00000000000E+00  0.74505805969E-08  0.10566000000E+00  0.10566000000E+00 0. -1.
     999900   -1    0    0    0    0 -0.00000000000E+00 -0.00000000000E+00 -0.74505805969E-08  0.93827000000E+00  0.93827000000E+00 0.  1.
     999902    2    1    2    0    0  0.26764114666E-02 -0.19905856621E-01  0.11117255342E-01  0.10209735266E+01  0.10207154071E+01 0.  0.
     999903    2    3    3    0    0  0.14666624159E-01  0.41752847955E-01 -0.11971937525E+00  0.12908576179E+00  0.19287169581E-01 0.  0.
         14    1    1    2    0    0 -0.26764114666E-02  0.19905856621E-01 -0.11117255342E-01  0.22956473433E-01  0.00000000000E+00 0.  1.
     999901    1    3    3    0    0 -0.11990212693E-01 -0.61658704575E-01  0.13083663059E+00  0.89188776477E+00  0.88000000000E+00 0. -1.
        -11    1    4    4    0    0  0.13518956723E-01  0.10971447591E-01 -0.46067209374E-01  0.49250215772E-01  0.51100000000E-03 0.  1.
         11    1    4    4    0    0  0.11476674359E-02  0.30781400364E-01 -0.73652165877E-01  0.79835546020E-01  0.51100000000E-03 0. -1.
</event>
<event>
 8    1  0.1123470E+005  0.1043930E+01  0.7957747E-01            NaN
         13   -1    0    0    0    0  0.00000000000E+00  0.00000000000E+00  0.74505805969E-08  0.10566000000E+00  0.10566000000E+00 0. -1.
     999900   -1    0    0    0    0 -0.00000000000E+00 -0.00000000000E+00 -0.74505805969E-08  0.93827000000E+00  0.93827000000E+00 0.  1.
     999902    2    1    2    0    0 -0.44360250928E-02 -0.11752855303E-01  0.25642489050E-01  0.10153757504E+01  0.10149741717E+01 0.  0.
     999903    2    3    3    0    0 -0.69971838880E-01 -0.27974796238E-01 -0.97190260242E-01  0.12428317464E+00  0.17936369498E-01 0.  0.
         14    1    1    2    0    0  0.44360250928E-02  0.11752855303E-01 -0.25642489050E-01  0.28554249615E-01  0.00000000000E+00 0.  1.
     999901    1    3    3    0    0  0.65535813787E-01  0.16221940934E-01  0.12283274929E+00  0.89109257575E+00  0.88000000000E+00 0. -1.
        -11    1    4    4    0    0 -0.25293320544E-01 -0.56726074024E-02 -0.45777913795E-01  0.52609971025E-01  0.51100000000E-03 0. -1.
         11    1    4    4    0    0 -0.44678518335E-01 -0.22302188835E-01 -0.51412346447E-01  0.71673203610E-01  0.51100000000E-03 0.  1.
</event>
<event>
 8    1  0.1123470E+005  0.1043930E+01  0.7957747E-01            NaN
         13   -1    0    0    0    0  0.00000000000E+00  0.00000000000E+00  0.74505805969E-08  0.10566000000E+00  0.10566000000E+00 0. -1.
     999900   -1    0    0    0    0 -0.00000000000E+00 -0.00000000000E+00 -0.74505805969E-08  0.93827000000E+00  0.93827000000E+00 0.  1.
     999902    2    1    2    0    0 -0.19347211248E-01  0.19066671778E-02 -0.14315369570E-01  0.10197870969E+01  0.10195012718E+01 0.  0.
     999903    2    3    3    0    0  0.99394177611E-01  0.44489360637E-01 -0.66158936099E-01  0.12928130885E+00  0.21866555271E-01 0.  0.
         14    1    1    2    0    0  0.19347211248E-01 -0.19066671778E-02  0.14315369570E-01  0.24142903071E-01  0.00000000000E+00 0. -1.
     999901    1    3    3    0    0 -0.11874138886E+00 -0.42582693460E-01  0.51843566530E-01  0.89050578808E+00  0.88000000000E+00 0.  1.
        -11    1    4    4    0    0  0.65142741015E-01  0.22454753217E-01 -0.51378169900E-01  0.85952138497E-01  0.51100000000E-03 0. -1.
         11    1    4    4    0    0  0.34251436596E-01  0.22034607421E-01 -0.14780766199E-01  0.43329170353E-01  0.51100000000E-03 0.  1.
</event>
<event>
 8    1  0.1123470E+005  0.1043930E+01  0.7957747E-01            NaN
         13   -1    0    0    0    0  0.00000000000E+00  0.00000000000E+00  0.74505805969E-08  0.10566000000E+00  0.10566000000E+00 0.  1.
     999900   -1    0    0    0    0 -0.00000000000E+00 -0.00000000000E+00 -0.74505805969E-08  0.93827000000E+00  0.93827000000E+00 0.  1.
     999902    2    1    2    0    0  0.19362254530E-01 -0.13151513574E-01  0.62262743849E-02  0.10197096428E+01  0.10194219587E+01 0.  0.
     999903    2    3    3    0    0  0.10620309124E+00  0.73335093969E-01 -0.10701725319E-01  0.13105457959E+00  0.20090876328E-01 0.  0.
         14    1    1    2    0    0 -0.19362254530E-01  0.13151513574E-01 -0.62262743849E-02  0.24220357191E-01  0.00000000000E+00 0.  1.
     999901    1    3    3    0    0 -0.86840836708E-01 -0.86486607543E-01  0.16927999704E-01  0.88865506322E+00  0.88000000000E+00 0.  1.
        -11    1    4    4    0    0  0.81525698942E-01  0.47406463609E-01 -0.25660354543E-02  0.94343298855E-01  0.51100000000E-03 0. -1.
         11    1    4    4    0    0  0.24677392296E-01  0.25928630360E-01 -0.81356898649E-02  0.36711280738E-01  0.51100000000E-03 0.  1.
</event>
<event>
 8    1  0.1123470E+005  0.1043930E+01  0.7957747E-01            NaN
         13   -1    0    0    0    0  0.00000000000E+00  0.00000000000E+00  0.74505805969E-08  0.10566000000E+00  0.10566000000E+00 0.  1.
     999900   -1    0    0    0    0 -0.00000000000E+00 -0.00000000000E+00 -0.74505805969E-08  0.93827000000E+00  0.93827000000E+00 0.  1.
     999902    2    1    2    0    0  0.12309369589E-01  0.19257737328E-01 -0.31093855127E-02  0.10208638060E+01  0.10206031849E+01 0.  0.
     999903    2    3    3    0    0 -0.91004871634E-01 -0.28135586721E-02  0.90138475918E-01  0.12965331561E+00  0.19880508911E-01 0.  0.
         14    1    1    2    0    0 -0.12309369589E-01 -0.19257737328E-01  0.31093855127E-02  0.23066193984E-01  0.00000000000E+00 0.  1.
     999901    1    3    3    0    0  0.10331424122E+00  0.22071296000E-01 -0.93247861430E-01  0.89121049041E+00  0.88000000000E+00 0.  1.
        -11    1    4    4    0    0 -0.59284916024E-01  0.29539507490E-02  0.46555885836E-01  0.75439636266E-01  0.51100000000E-03 0.  1.
         11    1    4    4    0    0 -0.31719955610E-01 -0.57675094211E-02  0.43582590082E-01  0.54213679344E-01  0.51100000000E-03 0. -1.
</event>
<event>
 8    1  0.1123470E+005  0.1043930E+01  0.7957747E-01            NaN
         13   -1    0    0    0    0  0.00000000000E+00  0.00000000000E+00  0.74505805969E-08  0.10566000000E+00  0.10566000000E+00 0.  1.
     999900   -1    0    0    0    0 -0.00000000000E+00 -0.00000000000E+00 -0.74505805969E-08  0.93827000000E+00  0.93827000000E+00 0.  1.
     999902    2    1    2    0    0  0.22810349568E-01 -0.75948526276E-02  0.34712129717E-02  0.10196391961E+01  0.10193498159E+01 0.  0.
     999903    2    3    3    0    0  0.48217766408E-01 -0.11510386323E+00  0.37906690476E-01  0.13206411405E+00  0.20740316022E-01 0.  0.
         14    1    1    2    0    0 -0.22810349568E-01  0.75948526276E-02 -0.34712129717E-02  0.24290803885E-01  0.00000000000E+00 0.  1.
     999901    1    3    3    0    0 -0.25407416840E-01  0.10750901060E+00 -0.34435477504E-01  0.88757508206E+00  0.88000000000E+00 0.  1.
        -11    1    4    4    0    0  0.25748611075E-01 -0.77994093325E-01  0.16881523019E-01  0.83852945722E-01  0.51100000000E-03 0. -1.
         11    1    4    4    0    0  0.22469155333E-01 -0.37109769907E-01  0.21025167457E-01  0.48211168328E-01  0.51100000000E-03 0.  1.
</event>
<event>
 8    1  0.1123470E+005  0.1043930E+01  0.7957747E-01            NaN
         13   -1    0    0    0    0  0.00000000000E+00  0.00000000000E+00  0.74505805969E-08  0.10566000000E+00  0.10566000000E+00 0. -1.
     999900   -1    0    0    0    0 -0.00000000000E+00 -0.00000000000E+00 -0.74505805969E-08  0.93827000000E+00  0.93827000000E+00 0.  1.
     999902    2    1    2    0    0  0.17780387561E-01  0.16689251273E-01  0.86732857760E-02  0.10180475894E+01  0.10177185245E+01 0.  0.
     999903    2    3    3    0    0 -0.11031127382E+00  0.15961818960E-01 -0.52993331805E-01  0.12663815793E+00  0.28382618491E-01 0.  0.
         14    1    1    2    0    0 -0.17780387561E-01 -0.16689251273E-01 -0.86732857760E-02  0.25882410553E-01  0.00000000000E+00 0. -1.
     999901    1    3    3    0    0  0.12809166138E+00  0.72743231368E-03  0.61666617581E-01  0.89140943152E+00  0.88000000000E+00 0. -1.
        -11    1    4    4    0    0 -0.10539352426E+00  0.19568167989E-01 -0.44259270089E-01  0.11597349811E+00  0.51100000000E-03 0.  1.
         11    1    4    4    0    0 -0.49177495620E-02 -0.36063490292E-02 -0.87340617160E-02  0.10664659823E-01  0.51100000000E-03 0. -1.
</event>
<event>
 8    1  0.1123470E+005  0.1043930E+01  0.7957747E-01            NaN
         13   -1    0    0    0    0  0.00000000000E+00  0.00000000000E+00  0.74505805969E-08  0.10566000000E+00  0.10566000000E+00 0.  1.
     999900   -1    0    0    0    0 -0.00000000000E+00 -0.00000000000E+00 -0.74505805969E-08  0.93827000000E+00  0.93827000000E+00 0.  1.
     999902    2    1    2    0    0  0.52294541524E-02  0.15693460405E-01 -0.16374699024E-01  0.10206542045E+01  0.10203887702E+01 0.  0.
     999903    2    3    3    0    0 -0.78125015211E-01  0.10406716550E+00 -0.12144583314E-01  0.13229854753E+00  0.20540736023E-01 0.  0.
         14    1    1    2    0    0 -0.52294541524E-02 -0.15693460405E-01  0.16374699024E-01  0.23275795547E-01  0.00000000000E+00 0.  1.
     999901    1    3    3    0    0  0.83354469363E-01 -0.88373705097E-01 -0.42301157096E-02  0.88835565693E+00  0.88000000000E+00 0.  1.
        -11    1    4    4    0    0 -0.71599771623E-01  0.87736429647E-01 -0.51396097812E-02  0.11336174440E+00  0.51100000000E-03 0.  1.
         11    1    4    4    0    0 -0.65252435874E-02  0.16330735854E-01 -0.70049735331E-02  0.18936803126E-01  0.51100000000E-03 0. -1.
</event>
<event>
 8    1  0.1123470E+005  0.1043930E+01  0.7957747E-01            NaN
         13   -1    0    0    0    0  0.00000000000E+00  0.00000000000E+00  0.74505805969E-08  0.10566000000E+00  0.10566000000E+00 0. -1.
     999900   -1    0    0    0    0 -0.00000000000E+00 -0.00000000000E+00 -0.74505805969E-08  0.93827000000E+00  0.93827000000E+00 0.  1.
     999902    2    1    2    0    0  0.25246066849E-02 -0.82104662652E-02 -0.22276998372E-01  0.10200542790E+01  0.10197748193E+01 0.  0.
     999903    2    3    3    0    0  0.40411557033E-01  0.11190037442E+00 -0.51106390763E-01  0.13062009433E+00  0.17174345052E-01 0.  0.
         14    1    1    2    0    0 -0.25246066849E-02  0.82104662652E-02  0.22276998372E-01  0.23875720967E-01  0.00000000000E+00 0. -1.
     999901    1    3    3    0    0 -0.37886950348E-01 -0.12011084069E+00  0.28829392391E-01  0.88943418471E+00  0.88000000000E+00 0. -1.
        -11    1    4    4    0    0  0.53028119283E-02  0.15056857370E-01 -0.82905543972E-03  0.15993036676E-01  0.51100000000E-03 0. -1.
         11    1    4    4    0    0  0.35108745105E-01  0.96843517052E-01 -0.50277335323E-01  0.11462705765E+00  0.51100000000E-03 0.  1.
</event>
<event>
 8    1  0.1123470E+005  0.1043930E+01  0.7957747E-01            NaN
         13   -1    0    0    0    0  0.00000000000E+00  0.00000000000E+00  0.74505805969E-08  0.10566000000E+00  0.10566000000E+00 0. -1.
     999900   -1    0    0    0    0 -0.00000000000E+00 -0.00000000000E+00 -0.74505805969E-08  0.93827000000E+00  0.93827000000E+00 0. -1.
     999902    2    1    2    0    0 -0.15827897635E-01  0.16116868114E-01  0.31913243386E-02  0.10211164003E+01  0.10208615198E+01 0.  0.
     999903    2    3    3    0    0 -0.63241777282E-01 -0.11124089279E+00 -0.16977486306E-01  0.13045661328E+00  0.18884763278E-01 0.  0.
         14    1    1    2    0    0  0.15827897635E-01 -0.16116868114E-01 -0.31913243386E-02  0.22813599724E-01  0.00000000000E+00 0. -1.
     999901    1    3    3    0    0  0.47413879647E-01  0.12735776091E+00  0.20168810644E-01  0.89065978699E+00  0.88000000000E+00 0.  1.
        -11    1    4    4    0    0 -0.52565770589E-01 -0.10351350278E+00 -0.16456003954E-01  0.11725726708E+00  0.51100000000E-03 0.  1.
         11    1    4    4    0    0 -0.10676006693E-01 -0.77273900127E-02 -0.52148235171E-03  0.13199346202E-01  0.51100000000E-03 0. -1.
</event>
<event>
 8    1  0.1123470E+005  0.1043930E+01  0.7957747E-01            NaN
         13   -1    0    0    0    0  0.00000000000E+00  0.00000000000E+00  0.74505805969E-08  0.10566000000E+00  0.10566000000E+00 0.  1.
     999900   -1    0    0    0    0 -0.00000000000E+00 -0.00000000000E+00 -0.74505805969E-08  0.93827000000E+00  0.93827000000E+00 0. -1.
     999902    2    1    2    0    0  0.32506628071E-02  0.12429805346E-01 -0.20602338765E-01  0.10196499005E+01  0.10193607783E+01 0.  0.
     999903    2    3    3    0    0 -0.12240552902E+00  0.30699750854E-01  0.21585509439E-01  0.12953581567E+00  0.19697844734E-01 0.  0.
         14    1    1    2    0    0 -0.32506628071E-02 -0.12429805346E-01  0.20602338765E-01  0.24280099510E-01  0.00000000000E+00 0.  1.
     999901    1    3    3    0    0  0.12565619183E+00 -0.18269945508E-01 -0.42187848204E-01  0.89011408482E+00  0.88000000000E+00 0.  1.
        -11    1    4    4    0    0 -0.10430982145E+00  0.24157830558E-01  0.11178473165E-01  0.10765388526E+00  0.51100000000E-03 0. -1.
         11    1    4    4    0    0 -0.18095707572E-01  0.65419202959E-02  0.10407036274E-01  0.21881930415E-01  0.51100000000E-03 0.  1.
</event>
<event>
 8    1  0.1123470E+005  0.1043930E+01  0.7957747E-01            NaN
         13   -1    0    0    0    0  0.00000000000E+00  0.00000000000E+00  0.74505805969E-08  0.10566000000E+00  0.10566000000E+00 0. -1.
     999900   -1    0    0    0    0 -0.00000000000E+00 -0.00000000000E+00 -0.74505805969E-08  0.93827000000E+00  0.93827000000E+00 0. -1.
     999902    2    1    2    0    0  0.22676771069E-01  0.31000681203E-02 -0.13296692255E-02  0.10210037184E+01  0.10207462851E+01 0.  0.
     999903    2    3    3    0    0  0.30725646401E-01  0.12676160311E+00  0.92175580855E-02  0.13225842099E+00  0.19868497119E-01 0.  0.
         14    1    1    2    0    0 -0.22676771069E-01 -0.31000681203E-02  0.13296692255E-02  0.22926281616E-01  0.00000000000E+00 0. -1.
     999901    1    3    3    0    0 -0.80488753321E-02 -0.12366153499E+00 -0.10547227311E-01  0.88874529739E+00  0.88000000000E+00 0.  1.
        -11    1    4    4    0    0  0.57927575303E-02  0.26693508832E-01  0.10097525119E-01  0.29125943558E-01  0.51100000000E-03 0.  1.
         11    1    4    4    0    0  0.24932888871E-01  0.10006809427E+00 -0.87996703365E-03  0.10313247744E+00  0.51100000000E-03 0. -1.
</event>
<event>
 8    1  0.1123470E+005  0.1043930E+01  0.7957747E-01            NaN
         13   -1    0    0    0    0  0.00000000000E+00  0.00000000000E+00  0.74505805969E-08  0.10566000000E+00  0.10566000000E+00 0.  1.
     999900   -1    0    0    0    0 -0.00000000000E+00 -0.00000000000E+00 -0.74505805969E-08  0.93827000000E+00  0.93827000000E+00 0. -1.
     999902    2    1    2    0    0  0.19713783999E-01 -0.13789206362E-01 -0.44567453148E-02  0.10194629186E+01  0.10191692717E+01 0.  0.
     999903    2    3    3    0    0  0.98721482172E-01  0.59372196905E-01 -0.59559760266E-01  0.13118866507E+00  0.19801817878E-01 0.  0.
         14    1    1    2    0    0 -0.19713783999E-01  0.13789206362E-01  0.44567453148E-02  0.24467081364E-01  0.00000000000E+00 0.  1.
     999901    1    3    3    0    0 -0.79007698173E-01 -0.73161403267E-01  0.55103014951E-01  0.88827425357E+00  0.88000000000E+00 0.  1.
        -11    1    4    4    0    0  0.61415344895E-01  0.41070230043E-01 -0.28021736753E-01  0.79019537052E-01  0.51100000000E-03 0.  1.
         11    1    4    4    0    0  0.37306137278E-01  0.18301966862E-01 -0.31538023513E-01  0.52169128014E-01  0.51100000000E-03 0. -1.
</event>
<event>
 8    1  0.1123470E+005  0.1043930E+01  0.7957747E-01            NaN
         13   -1    0    0    0    0  0.00000000000E+00  0.00000000000E+00  0.74505805969E-08  0.10566000000E+00  0.10566000000E+00 0.  1.
     999900   -1    0    0    0    0 -0.00000000000E+00 -0.00000000000E+00 -0.74505805969E-08  0.93827000000E+00  0.93827000000E+00 0. -1.
     999902    2    1    2    0    0  0.16399603475E-01 -0.63111730894E-02 -0.16698269775E-01  0.10196893294E+01  0.10194011567E+01 0.  0.
     999903    2    3    3    0    0 -0.35654090338E-01 -0.10038733081E+00 -0.74533902341E-01  0.13126101436E+00  0.18036655674E-01 0.  0.
         14    1    1    2    0    0 -0.16399603475E-01  0.63111730894E-02  0.16698269775E-01  0.24240670646E-01  0.00000000000E+00 0.  1.
     999901    1    3    3    0    0  0.52053693813E-01  0.94076157718E-01  0.57835632566E-01  0.88842831500E+00  0.88000000000E+00 0.  1.
        -11    1    4    4    0    0 -0.17122035438E-01 -0.72926015161E-01 -0.52110585951E-01  0.91253175693E-01  0.51100000000E-03 0. -1.
         11    1    4    4    0    0 -0.18532054900E-01 -0.27461315647E-01 -0.22423316389E-01  0.40007838667E-01  0.51100000000E-03 0.  1.
</event>
<event>
 8    1  0.1123470E+005  0.1043930E+01  0.7957747E-01            NaN
         13   -1    0    0    0    0  0.00000000000E+00  0.00000000000E+00  0.74505805969E-08  0.10566000000E+00  0.10566000000E+00 0.  1.
     999900   -1    0    0    0    0 -0.00000000000E+00 -0.00000000000E+00 -0.74505805969E-08  0.93827000000E+00  0.93827000000E+00 0.  1.
     999902    2    1    2    0    0 -0.14554988537E-01  0.18500014514E-01  0.16018704326E-02  0.10203362674E+01  0.10200634463E+01 0.  0.
     999903    2    3    3    0    0  0.20693838282E-03 -0.80624191283E-01 -0.98688165610E-01  0.12898806722E+00  0.19956563091E-01 0.  0.
         14    1    1    2    0    0  0.14554988537E-01 -0.18500014514E-01 -0.16018704326E-02  0.23593732584E-01  0.00000000000E+00 0.  1.
     999901    1    3    3    0    0 -0.14761926920E-01  0.99124205797E-01  0.10029003604E+00  0.89134820019E+00  0.88000000000E+00 0. -1.
        -11    1    4    4    0    0 -0.34265153126E-02 -0.36549969473E-01 -0.59404007783E-01  0.69833649034E-01  0.51100000000E-03 0.  1.
         11    1    4    4    0    0  0.36334536954E-02 -0.44074221810E-01 -0.39284157827E-01  0.59154418187E-01  0.51100000000E-03 0. -1.
</event>
<event>
 8    1  0.1123470E+005  0.1043930E+01  0.7957747E-01            NaN
         13   -1    0    0    0    0  0.00000000000E+00  0.00000000000E+00  0.74505805969E-08  0.10566000000E+00  0.10566000000E+00 0.  1.
     999900   -1    0    0    0    0 -0.00000000000E+00 -0.00000000000E+00 -0.74505805969E-08  0.93827000000E+00  0.93827000000E+00 0.  1.
     999902    2    1    2    0    0 -0.73256181689E-02 -0.20485056409E-01 -0.10540014324E-01  0.10197557550E+01  0.10194691784E+01 0.  0.
     999903    2    3    3    0    0 -0.49194801411E-01  0.12657831707E-01 -0.11969824862E+00  0.13140503620E+00  0.18954250898E-01 0.  0.
         14    1    1    2    0    0  0.73256181689E-02  0.20485056409E-01  0.10540014324E-01  0.24174244965E-01  0.00000000000E+00 0. -1.
     999901    1    3    3    0    0  0.41869183242E-01 -0.33142888117E-01  0.10915823430E+00  0.88835071883E+00  0.88000000000E+00 0. -1.
        -11    1    4    4    0    0 -0.62316474843E-02 -0.47574555835E-02 -0.17313221935E-01  0.19012511375E-01  0.51100000000E-03 0.  1.
         11    1    4    4    0    0 -0.42963153927E-01  0.17415287291E-01 -0.10238502668E+00  0.11239252483E+00  0.51100000000E-03 0. -1.
</event>
<event>
 8    1  0.1123470E+005  0.1043930E+01  0.7957747E-01            NaN
         13   -1    0    0    0    0  0.00000000000E+00  0.00000000000E+00  0.74505805969E-08  0.10566000000E+00  0.10566000000E+00 0. -1.
     999900   -1    0    0    0    0 -0.00000000000E+00 -0.00000000000E+00 -0.74505805969E-08  0.93827000000E+00  0.93827000000E+00 0.  1.
     999902    2    1    2    0    0 -0.11984718550E-01 -0.14815094181E-01 -0.13859366616E-01  0.10203672638E+01  0.10200951674E+01 0.  0.
     999903    2    3    3    0    0 -0.52605748519E-01  0.11043453602E+00  0.36007877500E-01  0.12917464715E+00  0.20648745741E-01 0.  0.
         14    1    1    2    0    0  0.11984718550E-01  0.14815094181E-01  0.13859366616E-01  0.23562736202E-01  0.00000000000E+00 0. -1.
     999901    1    3    3    0    0  0.40621029969E-01 -0.12524963020E+00 -0.49867244116E-01  0.89119261665E+00  0.88000000000E+00 0.  1.
        -11    1    4    4    0    0 -0.39109981344E-01  0.76683901582E-01  0.34655698464E-01  0.92797036373E-01  0.51100000000E-03 0. -1.
         11    1    4    4    0    0 -0.13495767175E-01  0.33750634434E-01  0.13521790357E-02  0.36377610772E-01  0.51100000000E-03 0.  1.
</event>
<event>
 8    1  0.1123470E+005  0.1043930E+01  0.7957747E-01            NaN
         13   -1    0    0    0    0  0.00000000000E+00  0.00000000000E+00  0.74505805969E-08  0.10566000000E+00  0.10566000000E+00 0.  1.
     999900   -1    0    0    0    0 -0.00000000000E+00 -0.00000000000E+00 -0.74505805969E-08  0.93827000000E+00  0.93827000000E+00 0. -1.
     999902    2    1    2    0    0  0.29623035443E-02 -0.22176772846E-01  0.63296103318E-02  0.10206781514E+01  0.10204132694E+01 0.  0.
     999903    2    3    3    0    0  0.27106687316E-02 -0.47322152892E-01 -0.12077567021E+00  0.13119059905E+00  0.19428764366E-01 0.  0.
         14    1    1    2    0    0 -0.29623035443E-02  0.22176772846E-01 -0.63296103318E-02  0.23251848595E-01  0.00000000000E+00 0.  1.
     999901    1    3    3    0    0  0.25163481269E-03  0.25145380046E-01  0.12710528054E+00  0.88948755236E+00  0.88000000000E+00 0.  1.
        -11    1    4    4    0    0  0.28675149012E-02 -0.22244751416E-01 -0.33018299677E-01  0.39918928365E-01  0.51100000000E-03 0. -1.
         11    1    4    4    0    0 -0.15684616962E-03 -0.25077401476E-01 -0.87757370531E-01  0.91271670682E-01  0.51100000000E-03 0.  1.
</event>
<event>
 7    1  0.1123470E+005  0.1043930E+01  0.7957747E-01            NaN
         13   -1    0    0    0    0  0.00000000000E+00  0.00000000000E+00  0.74505805969E-08  0.10566000000E+00  0.10566000000E+00 0.  1.
     999900   -1    0    0    0    0 -0.00000000000E+00 -0.00000000000E+00 -0.74505805969E-08  0.93827000000E+00  0.93827000000E+00 0.  1.
     999903    2    1    2    0    0 -0.10452443093E+00 -0.47809480389E-02 -0.12144948901E-01  0.10713944391E+00  0.19574129126E-01 0.  0.
         14    1    1    2    0    0  0.43790804238E-01 -0.25028369115E-01 -0.18334574146E-01  0.53667591762E-01  0.00000000000E+00 0. -1.
     999901    1    1    2    0    0  0.60733626696E-01  0.29809317154E-01  0.30479523048E-01  0.88312296433E+00  0.88000000000E+00 0. -1.
        -11    1    3    3    0    0 -0.49363194825E-01  0.25750835835E-02 -0.14255882528E-01  0.51447520508E-01  0.51100000000E-03 0. -1.
         11    1    3    3    0    0 -0.55161236109E-01 -0.73560316224E-02  0.21109336262E-02  0.55691923401E-01  0.51100000000E-03 0.  1.
</event>
<event>
 8    1  0.1123470E+005  0.1043930E+01  0.7957747E-01            NaN
         13   -1    0    0    0    0  0.00000000000E+00  0.00000000000E+00  0.74505805969E-08  0.10566000000E+00  0.10566000000E+00 0. -1.
     999900   -1    0    0    0    0 -0.00000000000E+00 -0.00000000000E+00 -0.74505805969E-08  0.93827000000E+00  0.93827000000E+00 0.  1.
     999902    2    1    2    0    0  0.21721504486E-01  0.33765388977E-02 -0.18008017855E-01  0.10155132184E+01  0.10151155516E+01 0.  0.
     999903    2    3    3    0    0  0.60205446917E-01 -0.20411007173E-01  0.10707176720E+00  0.12551781735E+00  0.15781447659E-01 0.  0.
         14    1    1    2    0    0 -0.21721504486E-01 -0.33765388977E-02  0.18008017855E-01  0.28416781646E-01  0.00000000000E+00 0. -1.
     999901    1    3    3    0    0 -0.38483942431E-01  0.23787546071E-01 -0.12507978505E+00  0.88999540100E+00  0.88000000000E+00 0.  1.
        -11    1    4    4    0    0  0.20414023468E-01 -0.11954154016E-01  0.28536948151E-01  0.37070914247E-01  0.51100000000E-03 0.  1.
         11    1    4    4    0    0  0.39791423449E-01 -0.84568531568E-02  0.78534819046E-01  0.88446903106E-01  0.51100000000E-03 0. -1.
</event>
<event>
 8    1  0.1123470E+005  0.1043930E+01  0.7957747E-01            NaN
         13   -1    0    0    0    0  0.00000000000E+00  0.00000000000E+00  0.74505805969E-08  0.10566000000E+00  0.10566000000E+00 0.  1.
     999900   -1    0    0    0    0 -0.00000000000E+00 -0.00000000000E+00 -0.74505805969E-08  0.93827000000E+00  0.93827000000E+00 0. -1.
     999902    2    1    2    0    0 -0.67779220027E-02  0.19434173348E-01 -0.48800109256E-02  0.10227771792E+01  0.10225584172E+01 0.  0.
     999903    2    3    3    0    0  0.28994254609E-01 -0.29459338690E-01 -0.12479679974E+00  0.13258042547E+00  0.17169990002E-01 0.  0.
         14    1    1    2    0    0  0.67779220027E-02 -0.19434173348E-01  0.48800109256E-02  0.21152820782E-01  0.00000000000E+00 0.  1.
     999901    1    3    3    0    0 -0.35772176612E-01  0.48893512038E-01  0.11991678882E+00  0.89019675375E+00  0.88000000000E+00 0.  1.
        -11    1    4    4    0    0  0.22517536011E-01 -0.24765092739E-01 -0.74851776565E-01  0.81996334200E-01  0.51100000000E-03 0. -1.
         11    1    4    4    0    0  0.64767185983E-02 -0.46942459511E-02 -0.49945023176E-01  0.50584091273E-01  0.51100000000E-03 0.  1.
</event>
<event>
 8    1  0.1123470E+005  0.1043930E+01  0.7957747E-01            NaN
         13   -1    0    0    0    0  0.00000000000E+00  0.00000000000E+00  0.74505805969E-08  0.10566000000E+00  0.10566000000E+00 0. -1.
     999900   -1    0    0    0    0 -0.00000000000E+00 -0.00000000000E+00 -0.74505805969E-08  0.93827000000E+00  0.93827000000E+00 0. -1.
     999902    2    1    2    0    0 -0.19050491407E-01 -0.61252279105E-02 -0.13494257675E-01  0.10197942458E+01  0.10195085920E+01 0.  0.
     999903    2    3    3    0    0 -0.46200839669E-01  0.11988565694E+00 -0.93877218661E-02  0.13039402761E+00  0.20183775367E-01 0.  0.
         14    1    1    2    0    0  0.19050491407E-01  0.61252279105E-02  0.13494257675E-01  0.24135754184E-01  0.00000000000E+00 0. -1.
     999901    1    3    3    0    0  0.27150348262E-01 -0.12601088485E+00 -0.41065358090E-02  0.88940021821E+00  0.88000000000E+00 0. -1.
        -11    1    4    4    0    0 -0.21556984862E-01  0.43872531999E-01  0.52092167079E-02  0.49161974330E-01  0.51100000000E-03 0. -1.
         11    1    4    4    0    0 -0.24643854807E-01  0.76013124941E-01 -0.14596938574E-01  0.81232053278E-01  0.51100000000E-03 0.  1.
</event>
<event>
 8    1  0.1123470E+005  0.1043930E+01  0.7957747E-01            NaN
         13   -1    0    0    0    0  0.00000000000E+00  0.00000000000E+00  0.74505805969E-08  0.10566000000E+00  0.10566000000E+00 0. -1.
     999900   -1    0    0    0    0 -0.00000000000E+00 -0.00000000000E+00 -0.74505805969E-08  0.93827000000E+00  0.93827000000E+00 0.  1.
     999902    2    1    2    0    0 -0.14877160038E-01  0.16414563502E-01 -0.67315203280E-02  0.10207765737E+01  0.10205139549E+01 0.  0.
     999903    2    3    3    0    0 -0.67849210763E-01  0.11192815782E+00 -0.20071526681E-01  0.13392436464E+00  0.20036001299E-01 0.  0.
         14    1    1    2    0    0  0.14877160038E-01 -0.16414563502E-01  0.67315203280E-02  0.23153426349E-01  0.00000000000E+00 0. -1.
     999901    1    3    3    0    0  0.52972050725E-01 -0.95513594313E-01  0.13340006353E-01  0.88685220901E+00  0.88000000000E+00 0.  1.
        -11    1    4    4    0    0  0.90604932682E-04  0.27191123412E-02 -0.31566096418E-02  0.41984624101E-02  0.51100000000E-03 0. -1.
         11    1    4    4    0    0 -0.67939815696E-01  0.10920904547E+00 -0.16914917039E-01  0.12972590223E+00  0.51100000000E-03 0.  1.
</event>
<event>
 8    1  0.1123470E+005  0.1043930E+01  0.7957747E-01            NaN
         13   -1    0    0    0    0  0.00000000000E+00  0.00000000000E+00  0.74505805969E-08  0.10566000000E+00  0.10566000000E+00 0.  1.
     999900   -1    0    0    0    0 -0.00000000000E+00 -0.00000000000E+00 -0.74505805969E-08  0.93827000000E+00  0.93827000000E+00 0.  1.
     999902    2    1    2    0    0  0.22219118702E-01  0.57140524637E-02 -0.19655525022E-02  0.10209038621E+01  0.10206441557E+01 0.  0.
     999903    2    3    3    0    0 -0.16950980681E-01 -0.74585290205E-01 -0.10395276894E+00  0.13051985871E+00  0.19466743078E-01 0.  0.
         14    1    1    2    0    0 -0.22219118702E-01 -0.57140524637E-02  0.19655525022E-02  0.23026137932E-01  0.00000000000E+00 0.  1.
     999901    1    3    3    0    0  0.39170099383E-01  0.80299342669E-01  0.10198721644E+00  0.89038400336E+00  0.88000000000E+00 0. -1.
        -11    1    4    4    0    0 -0.30908400240E-02 -0.32534421619E-01 -0.58833110439E-01  0.67302584550E-01  0.51100000000E-03 0.  1.
         11    1    4    4    0    0 -0.13860140657E-01 -0.42050868586E-01 -0.45119658502E-01  0.63217274160E-01  0.51100000000E-03 0. -1.
</event>
<event>
 8    1  0.1123470E+005  0.1043930E+01  0.7957747E-01            NaN
         13   -1    0    0    0    0  0.00000000000E+00  0.00000000000E+00  0.74505805969E-08  0.10566000000E+00  0.10566000000E+00 0.  1.
     999900   -1    0    0    0    0 -0.00000000000E+00 -0.00000000000E+00 -0.74505805969E-08  0.93827000000E+00  0.93827000000E+00 0.  1.
     999902    2    1    2    0    0  0.82697901783E-02 -0.21201365647E-01  0.19516051684E-01  0.10139506136E+01  0.10135073178E+01 0.  0.
     999903    2    3    3    0    0 -0.48294691161E-01 -0.41259331881E-01 -0.10366525569E+00  0.12334660675E+00  0.20813228887E-01 0.  0.
         14    1    1    2    0    0 -0.82697901783E-02  0.21201365647E-01 -0.19516051684E-01  0.29979386388E-01  0.00000000000E+00 0. -1.
     999901    1    3    3    0    0  0.56564481340E-01  0.20057966234E-01  0.12318130737E+00  0.89060400687E+00  0.88000000000E+00 0. -1.
        -11    1    4    4    0    0 -0.77245813323E-02 -0.65666971070E-02 -0.53542688111E-02  0.11476932654E-01  0.51100000000E-03 0.  1.
         11    1    4    4    0    0 -0.40570109829E-01 -0.34692634774E-01 -0.98310986880E-01  0.11186967409E+00  0.51100000000E-03 0. -1.
</event>
<event>
 8    1  0.1123470E+005  0.1043930E+01  0.7957747E-01            NaN
         13   -1    0    0    0    0  0.00000000000E+00  0.00000000000E+00  0.74505805969E-08  0.10566000000E+00  0.10566000000E+00 0. -1.
     999900   -1    0    0    0    0 -0.00000000000E+00 -0.00000000000E+00 -0.74505805969E-08  0.93827000000E+00  0.93827000000E+00 0.  1.
     999902    2    1    2    0    0 -0.93076940230E-02  0.11919592380E-01  0.21710337793E-01  0.10174715681E+01  0.10171274961E+01 0.  0.
     999903    2    3    3    0    0  0.98111762753E-01  0.24747411763E-01 -0.72127039761E-01  0.12589490508E+00  0.20220407553E-01 0.  0.
         14    1    1    2    0    0  0.93076940230E-02 -0.11919592380E-01 -0.21710337793E-01  0.26458431882E-01  0.00000000000E+00 0.  1.
     999901    1    3    3    0    0 -0.10741945678E+00 -0.12827819383E-01  0.93837377554E-01  0.89157666304E+00  0.88000000000E+00 0. -1.
        -11    1    4    4    0    0  0.45961335572E-01  0.94183522003E-02 -0.21496373560E-01  0.51609155418E-01  0.51100000000E-03 0. -1.
         11    1    4    4    0    0  0.52150427181E-01  0.15329059563E-01 -0.50630666201E-01  0.74285749664E-01  0.51100000000E-03 0.  1.
</event>
<event>
 8    1  0.1123470E+005  0.1043930E+01  0.7957747E-01            NaN
         13   -1    0    0    0    0  0.00000000000E+00  0.00000000000E+00  0.74505805969E-08  0.10566000000E+00  0.10566000000E+00 0. -1.
     999900   -1    0    0    0    0 -0.00000000000E+00 -0.00000000000E+00 -0.74505805969E-08  0.93827000000E+00  0.93827000000E+00 0.  1.
     999902    2    1    2    0    0 -0.10279409896E-01 -0.20107506109E-02 -0.21071045615E-01  0.10203992042E+01  0.10201278536E+01 0.  0.
     999903    2    3    3    0    0 -0.95452355000E-02 -0.12814273334E+00 -0.18890892465E-01  0.13140282115E+00  0.19954046168E-01 0.  0.
         14    1    1    2    0    0  0.10279409896E-01  0.20107506109E-02  0.21071045615E-01  0.23530795761E-01  0.00000000000E+00 0. -1.
     999901    1    3    3    0    0 -0.73417439603E-03  0.12613198273E+00 -0.21801531497E-02  0.88899638309E+00  0.88000000000E+00 0.  1.
        -11    1    4    4    0    0 -0.13031613828E-01 -0.60664562475E-01 -0.37921945949E-02  0.62166341055E-01  0.51100000000E-03 0.  1.
         11    1    4    4    0    0  0.34863783280E-02 -0.67478170867E-01 -0.15098697870E-01  0.69236480094E-01  0.51100000000E-03 0. -1.
</event>
<event>
 8    1  0.1123470E+005  0.1043930E+01  0.7957747E-01            NaN
         13   -1    0    0    0    0  0.00000000000E+00  0.00000000000E+00  0.74505805969E-08  0.10566000000E+00  0.10566000000E+00 0.  1.
     999900   -1    0    0    0    0 -0.00000000000E+00 -0.00000000000E+00 -0.74505805969E-08  0.93827000000E+00  0.93827000000E+00 0. -1.
     999902    2    1    2    0    0 -0.44950045005E-02  0.23059520939E-01 -0.52061828330E-02  0.10198665233E+01  0.10195825981E+01 0.  0.
     999903    2    3    3    0    0  0.10135477468E-01  0.10449558401E+00 -0.78989587914E-01  0.13291112744E+00  0.20098701898E-01 0.  0.
         14    1    1    2    0    0  0.44950045005E-02 -0.23059520939E-01  0.52061828330E-02  0.24063476704E-01  0.00000000000E+00 0.  1.
     999901    1    3    3    0    0 -0.14630481968E-01 -0.81436063070E-01  0.73783405081E-01  0.88695539586E+00  0.88000000000E+00 0.  1.
        -11    1    4    4    0    0  0.13368827199E-01  0.56235455443E-01 -0.50608987092E-01  0.76828918286E-01  0.51100000000E-03 0. -1.
         11    1    4    4    0    0 -0.32333497311E-02  0.48260128566E-01 -0.28380600822E-01  0.56082209155E-01  0.51100000000E-03 0.  1.
</event>
<event>
 8    1  0.1123470E+005  0.1043930E+01  0.7957747E-01            NaN
         13   -1    0    0    0    0  0.00000000000E+00  0.00000000000E+00  0.74505805969E-08  0.10566000000E+00  0.10566000000E+00 0.  1.
     999900   -1    0    0    0    0 -0.00000000000E+00 -0.00000000000E+00 -0.74505805969E-08  0.93827000000E+00  0.93827000000E+00 0. -1.
     999902    2    1    2    0    0 -0.28345871081E-02  0.15076726929E-02  0.18698237194E-01  0.10249581252E+01  0.10247825263E+01 0.  0.
     999903    2    3    3    0    0 -0.55281527852E-01 -0.78565355802E-01  0.94996336211E-01  0.13648540672E+00  0.19375239359E-01 0.  0.
         14    1    1    2    0    0  0.28345871081E-02 -0.15076726929E-02 -0.18698237194E-01  0.18971874847E-01  0.00000000000E+00 0. -1.
     999901    1    3    3    0    0  0.52446940744E-01  0.80073028495E-01 -0.76298099017E-01  0.88847271843E+00  0.88000000000E+00 0. -1.
        -11    1    4    4    0    0 -0.42370825738E-01 -0.55809160295E-01  0.56890089319E-01  0.90259030741E-01  0.51100000000E-03 0.  1.
         11    1    4    4    0    0 -0.12910702114E-01 -0.22756195507E-01  0.38106246892E-01  0.46226375980E-01  0.51100000000E-03 0. -1.
</event>
<event>
 8    1  0.1123470E+005  0.1043930E+01  0.7957747E-01            NaN
         13   -1    0    0    0    0  0.00000000000E+00  0.00000000000E+00  0.74505805969E-08  0.10566000000E+00  0.10566000000E+00 0.  1.
     999900   -1    0    0    0    0 -0.00000000000E+00 -0.00000000000E+00 -0.74505805969E-08  0.93827000000E+00  0.93827000000E+00 0. -1.
     999902    2    1    2    0    0 -0.20416723160E-01  0.10569731208E-01 -0.55687034351E-02  0.10202747202E+01  0.10200004571E+01 0.  0.
     999903    2    3    3    0    0  0.56730236392E-01  0.10880479978E+00 -0.41062304446E-01  0.13074586867E+00  0.18750070733E-01 0.  0.
         14    1    1    2    0    0  0.20416723160E-01 -0.10569731208E-01  0.55687034351E-02  0.23655279757E-01  0.00000000000E+00 0. -1.
     999901    1    3    3    0    0 -0.77146959553E-01 -0.98235068569E-01  0.35493601011E-01  0.88952885157E+00  0.88000000000E+00 0. -1.
        -11    1    4    4    0    0  0.46964682877E-01  0.71385066590E-01 -0.27802301128E-01  0.89859547288E-01  0.51100000000E-03 0.  1.
         11    1    4    4    0    0  0.97655535155E-02  0.37419733188E-01 -0.13260003318E-01  0.40886321384E-01  0.51100000000E-03 0. -1.
</event>
<event>
 8    1  0.1123470E+005  0.1043930E+01  0.7957747E-01            NaN
         13   -1    0    0    0    0  0.00000000000E+00  0.00000000000E+00  0.74505805969E-08  0.10566000000E+00  0.10566000000E+00 0.  1.
     999900   -1    0    0    0    0 -0.00000000000E+00 -0.00000000000E+00 -0.74505805969E-08  0.93827000000E+00  0.93827000000E+00 0. -1.
     999902    2    1    2    0    0 -0.70312331833E-03  0.22544695744E-01 -0.55355247642E-02  0.10207050194E+01  0.10204407562E+01 0.  0.
     999903    2    3    3    0    0 -0.24920910147E-02 -0.11800723333E+00  0.45609760171E-01  0.12808310318E+00  0.19827089109E-01 0.  0.
         14    1    1    2    0    0  0.70312331833E-03 -0.22544695744E-01  0.55355247642E-02  0.23224980582E-01  0.00000000000E+00 0.  1.
     999901    1    3    3    0    0  0.17889676964E-02  0.14055192907E+00 -0.51145284935E-01  0.89262191623E+00  0.88000000000E+00 0. -1.
        -11    1    4    4    0    0 -0.19968925540E-02 -0.53970067361E-01  0.31437169313E-01  0.62492499440E-01  0.51100000000E-03 0.  1.
         11    1    4    4    0    0 -0.49519846077E-03 -0.64037165969E-01  0.14172590858E-01  0.65590603744E-01  0.51100000000E-03 0. -1.
</event>
<event>
 8    1  0.1123470E+005  0.1043930E+01  0.7957747E-01            NaN
         13   -1    0    0    0    0  0.00000000000E+00  0.00000000000E+00  0.74505805969E-08  0.10566000000E+00  0.10566000000E+00 0.  1.
     999900   -1    0    0    0    0 -0.00000000000E+00 -0.00000000000E+00 -0.74505805969E-08  0.93827000000E+00  0.93827000000E+00 0.  1.
     999902    2    1    2    0    0  0.21537001113E-01  0.10798079149E-01 -0.10650242118E-01  0.10175886146E+01  0.10172476197E+01 0.  0.
     999903    2    3    3    0    0 -0.16762737208E-01 -0.94774656298E-01 -0.81361920359E-01  0.12763770924E+00  0.20208856971E-01 0.  0.
         14    1    1    2    0    0 -0.21537001113E-01 -0.10798079149E-01  0.10650242118E-01  0.26341385450E-01  0.00000000000E+00 0. -1.
     999901    1    3    3    0    0  0.38299738321E-01  0.10557273545E+00  0.70711678241E-01  0.88995090531E+00  0.88000000000E+00 0. -1.
        -11    1    4    4    0    0 -0.55897463700E-02 -0.52334586759E-01 -0.32057334834E-01  0.61628630306E-01  0.51100000000E-03 0. -1.
         11    1    4    4    0    0 -0.11172990838E-01 -0.42440069538E-01 -0.49304585525E-01  0.66009078932E-01  0.51100000000E-03 0.  1.
</event>
<event>
 8    1  0.1123470E+005  0.1043930E+01  0.7957747E-01            NaN
         13   -1    0    0    0    0  0.00000000000E+00  0.00000000000E+00  0.74505805969E-08  0.10566000000E+00  0.10566000000E+00 0. -1.
     999900   -1    0    0    0    0 -0.00000000000E+00 -0.00000000000E+00 -0.74505805969E-08  0.93827000000E+00  0.93827000000E+00 0.  1.
     999902    2    1    2    0    0 -0.16096977891E-01  0.54739998107E-02 -0.17583244349E-01  0.10194708943E+01  0.10191774411E+01 0.  0.
     999903    2    3    3    0    0 -0.12730220083E+00 -0.16813604112E-01  0.20904295866E-01  0.13135793431E+00  0.18148545440E-01 0.  0.
         14    1    1    2    0    0  0.16096977891E-01 -0.54739998107E-02  0.17583244349E-01  0.24459105728E-01  0.00000000000E+00 0. -1.
     999901    1    3    3    0    0  0.11120522294E+00  0.22287603922E-01 -0.38487540215E-01  0.88811295996E+00  0.88000000000E+00 0.  1.
        -11    1    4    4    0    0 -0.82875485108E-01 -0.88708470635E-02  0.22020060953E-01  0.86210104772E-01  0.51100000000E-03 0.  1.
         11    1    4    4    0    0 -0.44426715722E-01 -0.79427570483E-02 -0.11157650868E-02  0.45147829539E-01  0.51100000000E-03 0. -1.
</event>
<event>
 8    1  0.1123470E+005  0.1043930E+01  0.7957747E-01            NaN
         13   -1    0    0    0    0  0.00000000000E+00  0.00000000000E+00  0.74505805969E-08  0.10566000000E+00  0.10566000000E+00 0. -1.
     999900   -1    0    0    0    0 -0.00000000000E+00 -0.00000000000E+00 -0.74505805969E-08  0.93827000000E+00  0.93827000000E+00 0. -1.
     999902    2    1    2    0    0 -0.24256283078E-01  0.42394391184E-02  0.64430997425E-03  0.10192975976E+01  0.10189999201E+01 0.  0.
     999903    2    3    3    0    0 -0.45368530766E-01 -0.18496617588E-01  0.11956614918E+00  0.13075662549E+00  0.20020055756E-01 0.  0.
         14    1    1    2    0    0  0.24256283078E-01 -0.42394391184E-02 -0.64430997425E-03  0.24632402403E-01  0.00000000000E+00 0. -1.
     999901    1    3    3    0    0  0.21112247688E-01  0.22736056706E-01 -0.11892183921E+00  0.88854097211E+00  0.88000000000E+00 0. -1.
        -11    1    4    4    0    0  0.20620012143E-03 -0.49846563008E-02  0.74746700334E-02  0.90011738143E-02  0.51100000000E-03 0. -1.
         11    1    4    4    0    0 -0.45574730888E-01 -0.13511961287E-01  0.11209147915E+00  0.12175545167E+00  0.51100000000E-03 0.  1.
</event>
<event>
 8    1  0.1123470E+005  0.1043930E+01  0.7957747E-01            NaN
         13   -1    0    0    0    0  0.00000000000E+00  0.00000000000E+00  0.74505805969E-08  0.10566000000E+00  0.10566000000E+00 0. -1.
     999900   -1    0    0    0    0 -0.00000000000E+00 -0.00000000000E+00 -0.74505805969E-08  0.93827000000E+00  0.93827000000E+00 0. -1.
     999902    2    1    2    0    0 -0.13177183856E-01 -0.77365576304E-02 -0.18294396232E-01  0.10200935273E+01  0.10198149964E+01 0.  0.
     999903    2    3    3    0    0  0.74147471603E-01  0.10148038571E+00 -0.20973822436E-01  0.12904857022E+00  0.20433208759E-01 0.  0.
         14    1    1    2    0    0  0.13177183856E-01  0.77365576304E-02  0.18294396232E-01  0.23836472722E-01  0.00000000000E+00 0.  1.
     999901    1    3    3    0    0 -0.87324655459E-01 -0.10921694334E+00  0.26794262034E-02  0.89104495705E+00  0.88000000000E+00 0.  1.
        -11    1    4    4    0    0  0.10595981351E-01  0.66807913334E-02  0.18052214587E-02  0.12666007230E-01  0.51100000000E-03 0. -1.
         11    1    4    4    0    0  0.63551490252E-01  0.94799594378E-01 -0.22779043894E-01  0.11638256300E+00  0.51100000000E-03 0.  1.
</event>
<event>
 8    1  0.1123470E+005  0.1043930E+01  0.7957747E-01            NaN
         13   -1    0    0    0    0  0.00000000000E+00  0.00000000000E+00  0.74505805969E-08  0.10566000000E+00  0.10566000000E+00 0. -1.
     999900   -1    0    0    0    0 -0.00000000000E+00 -0.00000000000E+00 -0.74505805969E-08  0.93827000000E+00  0.93827000000E+00 0. -1.
     999902    2    1    2    0    0 -0.18837524383E-01  0.11022010601E-01 -0.91621448762E-02  0.10202597245E+01  0.10199851095E+01 0.  0.
     999903    2    3    3    0    0  0.11768227741E-01 -0.30762743965E-01  0.12260222089E+00  0.12894354837E+00  0.22589743213E-01 0.  0.
         14    1    1    2    0    0  0.18837524383E-01 -0.11022010601E-01  0.91621448762E-02  0.23670275480E-01  0.00000000000E+00 0. -1.
     999901    1    3    3    0    0 -0.30605752123E-01  0.41784754566E-01 -0.13176436577E+00  0.89131617615E+00  0.88000000000E+00 0. -1.
        -11    1    4    4    0    0 -0.10176894233E-02  0.33187441325E-02  0.12160568486E-01  0.12656630724E-01  0.51100000000E-03 0. -1.
         11    1    4    4    0    0  0.12785917164E-01 -0.34081488097E-01  0.11044165241E+00  0.11628691765E+00  0.51100000000E-03 0.  1.
</event>
<event>
 8    1  0.1123470E+005  0.1043930E+01  0.7957747E-01            NaN
         13   -1    0    0    0    0  0.00000000000E+00  0.00000000000E+00  0.74505805969E-08  0.10566000000E+00  0.10566000000E+00 0.  1.
     999900   -1    0    0    0    0 -0.00000000000E+00 -0.00000000000E+00 -0.74505805969E-08  0.93827000000E+00  0.93827000000E+00 0. -1.
     999902    2    1    2    0    0 -0.10585174963E-01 -0.16782777344E-01  0.13125085056E-01  0.10201397625E+01  0.10198623238E+01 0.  0.
     999903    2    3    3    0    0  0.34957408213E-01 -0.93709464610E-01  0.84729808234E-01  0.13271704556E+00  0.20765106113E-01 0.  0.
         14    1    1    2    0    0  0.10585174963E-01  0.16782777344E-01 -0.13125085056E-01  0.23790237538E-01  0.00000000000E+00 0.  1.
     999901    1    3    3    0    0 -0.45542583177E-01  0.76926687266E-01 -0.71604723178E-01  0.88742271690E+00  0.88000000000E+00 0.  1.
        -11    1    4    4    0    0  0.95972640362E-03 -0.20599604557E-01  0.24780396701E-01  0.32242735063E-01  0.51100000000E-03 0. -1.
         11    1    4    4    0    0  0.33997681810E-01 -0.73109860052E-01  0.59949411533E-01  0.10047431050E+00  0.51100000000E-03 0.  1.
</event>
<event>
 8    1  0.1123470E+005  0.1043930E+01  0.7957747E-01            NaN
         13   -1    0    0    0    0  0.00000000000E+00  0.00000000000E+00  0.74505805969E-08  0.10566000000E+00  0.10566000000E+00 0. -1.
     999900   -1    0    0    0    0 -0.00000000000E+00 -0.00000000000E+00 -0.74505805969E-08  0.93827000000E+00  0.93827000000E+00 0. -1.
     999902    2    1    2    0    0 -0.23630619797E-02 -0.13257476783E-01  0.18897725988E-01  0.10207250695E+01  0.10204612676E+01 0.  0.
     999903    2    3    3    0    0  0.97635275725E-01 -0.32975352300E-01 -0.75419453546E-01  0.12983551824E+00  0.23433883572E-01 0.  0.
         14    1    1    2    0    0  0.23630619797E-02  0.13257476783E-01 -0.18897725988E-01  0.23204930513E-01  0.00000000000E+00 0.  1.
     999901    1    3    3    0    0 -0.99998337705E-01  0.19717875517E-01  0.94317179534E-01  0.89088955124E+00  0.88000000000E+00 0. -1.
        -11    1    4    4    0    0  0.56313677559E-01 -0.29522298485E-01 -0.38630457046E-01  0.74400065327E-01  0.51100000000E-03 0.  1.
         11    1    4    4    0    0  0.41321598166E-01 -0.34530538154E-02 -0.36788996500E-01  0.55435452917E-01  0.51100000000E-03 0. -1.
</event>
<event>
 8    1  0.1123470E+005  0.1043930E+01  0.7957747E-01            NaN
         13   -1    0    0    0    0  0.00000000000E+00  0.00000000000E+00  0.74505805969E-08  0.10566000000E+00  0.10566000000E+00 0.  1.
     999900   -1    0    0    0    0 -0.00000000000E+00 -0.00000000000E+00 -0.74505805969E-08  0.93827000000E+00  0.93827000000E+00 0.  1.
     999902    2    1    2    0    0  0.67750670609E-02  0.20051868404E-01  0.97223053442E-02  0.10206383238E+01  0.10203725230E+01 0.  0.
     999903    2    3    3    0    0  0.10479597296E+00  0.73859070051E-01 -0.27433939763E-01  0.13278478884E+00  0.21019536603E-01 0.  0.
         14    1    1    2    0    0 -0.67750670609E-02 -0.20051868404E-01 -0.97223053442E-02  0.23291676225E-01  0.00000000000E+00 0.  1.
     999901    1    3    3    0    0 -0.98020905901E-01 -0.53807201647E-01  0.37156245108E-01  0.88785353493E+00  0.88000000000E+00 0. -1.
        -11    1    4    4    0    0  0.87349035012E-01  0.65343875924E-01 -0.16016084101E-01  0.11025630190E+00  0.51100000000E-03 0. -1.
         11    1    4    4    0    0  0.17446937950E-01  0.85151941268E-02 -0.11417855662E-01  0.22528486939E-01  0.51100000000E-03 0.  1.
</event>
<event>
 8    1  0.1123470E+005  0.1043930E+01  0.7957747E-01            NaN
         13   -1    0    0    0    0  0.00000000000E+00  0.00000000000E+00  0.74505805969E-08  0.10566000000E+00  0.10566000000E+00 0.  1.
     999900   -1    0    0    0    0 -0.00000000000E+00 -0.00000000000E+00 -0.74505805969E-08  0.93827000000E+00  0.93827000000E+00 0.  1.
     999902    2    1    2    0    0 -0.17642004821E-01  0.14951617651E-01  0.29644665596E-02  0.10206152136E+01  0.10203488790E+01 0.  0.
     999903    2    3    3    0    0  0.24348620580E-01 -0.12148991245E+00  0.28566718198E-01  0.12874359778E+00  0.20154464281E-01 0.  0.
         14    1    1    2    0    0  0.17642004821E-01 -0.14951617651E-01 -0.29644665596E-02  0.23314786434E-01  0.00000000000E+00 0.  1.
     999901    1    3    3    0    0 -0.41990625401E-01  0.13644153010E+00 -0.25602251639E-01  0.89187161579E+00  0.88000000000E+00 0. -1.
        -11    1    4    4    0    0  0.17693999712E-01 -0.11317219136E+00  0.23487392557E-01  0.11693135274E+00  0.51100000000E-03 0. -1.
         11    1    4    4    0    0  0.66546208680E-02 -0.83177210860E-02  0.50793256417E-02  0.11812245042E-01  0.51100000000E-03 0.  1.
</event>
<event>
 8    1  0.1123470E+005  0.1043930E+01  0.7957747E-01            NaN
         13   -1    0    0    0    0  0.00000000000E+00  0.00000000000E+00  0.74505805969E-08  0.10566000000E+00  0.10566000000E+00 0.  1.
     999900   -1    0    0    0    0 -0.00000000000E+00 -0.00000000000E+00 -0.74505805969E-08  0.93827000000E+00  0.93827000000E+00 0.  1.
     999902    2    1    2    0    0  0.25133369234E-02 -0.97718971064E-02  0.24890849716E-01  0.10170718311E+01  0.10167171428E+01 0.  0.
     999903    2    3    3    0    0  0.10351931827E+00 -0.42882875571E-01 -0.56261102387E-01  0.12696836271E+00  0.20011576997E-01 0.  0.
         14    1    1    2    0    0 -0.25133369234E-02  0.97718971064E-02 -0.24890849716E-01  0.26858168871E-01  0.00000000000E+00 0. -1.
     999901    1    3    3    0    0 -0.10100598135E+00  0.33110978464E-01  0.81151952103E-01  0.89010346842E+00  0.88000000000E+00 0.  1.
        -11    1    4    4    0    0  0.48072893932E-01 -0.25827612726E-01 -0.36617244056E-01  0.65720258622E-01  0.51100000000E-03 0. -1.
         11    1    4    4    0    0  0.55446424342E-01 -0.17055262845E-01 -0.19643858331E-01  0.61248104087E-01  0.51100000000E-03 0.  1.
</event>
<event>
 8    1  0.1123470E+005  0.1043930E+01  0.7957747E-01            NaN
         13   -1    0    0    0    0  0.00000000000E+00  0.00000000000E+00  0.74505805969E-08  0.10566000000E+00  0.10566000000E+00 0. -1.
     999900   -1    0    0    0    0 -0.00000000000E+00 -0.00000000000E+00 -0.74505805969E-08  0.93827000000E+00  0.93827000000E+00 0.  1.
     999902    2    1    2    0    0 -0.13942464228E-01 -0.51834119516E-02 -0.18557566775E-01  0.10201467422E+01  0.10198694682E+01 0.  0.
     999903    2    3    3    0    0  0.64248470564E-01 -0.12820355162E-02  0.10847168934E+00  0.12758555383E+00  0.19556496970E-01 0.  0.
         14    1    1    2    0    0  0.13942464228E-01  0.51834119516E-02  0.18557566775E-01  0.23783257826E-01  0.00000000000E+00 0. -1.
     999901    1    3    3    0    0 -0.78190934792E-01 -0.39013764354E-02 -0.12702925612E+00  0.89256118834E+00  0.88000000000E+00 0.  1.
        -11    1    4    4    0    0  0.48031143704E-01 -0.78392997938E-02  0.69305609797E-01  0.84687508271E-01  0.51100000000E-03 0.  1.
         11    1    4    4    0    0  0.16217326860E-01  0.65572642776E-02  0.39166079544E-01  0.42898045563E-01  0.51100000000E-03 0. -1.
</event>
<event>
 8    1  0.1123470E+005  0.1043930E+01  0.7957747E-01            NaN
         13   -1    0    0    0    0  0.00000000000E+00  0.00000000000E+00  0.74505805969E-08  0.10566000000E+00  0.10566000000E+00 0.  1.
     999900   -1    0    0    0    0 -0.00000000000E+00 -0.00000000000E+00 -0.74505805969E-08  0.93827000000E+00  0.93827000000E+00 0. -1.
     999902    2    1    2    0    0 -0.15711041684E-01 -0.23143694428E-01 -0.39397036705E-02  0.10156813064E+01  0.10152883963E+01 0.  0.
     999903    2    3    3    0    0  0.11374314353E+00  0.17643921010E-01 -0.42960338934E-01  0.12442117292E+00  0.19652656314E-01 0.  0.
         14    1    1    2    0    0  0.15711041684E-01  0.23143694428E-01  0.39397036705E-02  0.28248693555E-01  0.00000000000E+00 0.  1.
     999901    1    3    3    0    0 -0.12945418521E+00 -0.40787615438E-01  0.39020635263E-01  0.89126013353E+00  0.88000000000E+00 0.  1.
        -11    1    4    4    0    0  0.26946196446E-01  0.25275114849E-02 -0.19141556037E-01  0.33153372464E-01  0.51100000000E-03 0. -1.
         11    1    4    4    0    0  0.86796947081E-01  0.15116409525E-01 -0.23818782897E-01  0.91267800452E-01  0.51100000000E-03 0.  1.
</event>
<event>
 8    1  0.1123470E+005  0.1043930E+01  0.7957747E-01            NaN
         13   -1    0    0    0    0  0.00000000000E+00  0.00000000000E+00  0.74505805969E-08  0.10566000000E+00  0.10566000000E+00 0.  1.
     999900   -1    0    0    0    0 -0.00000000000E+00 -0.00000000000E+00 -0.74505805969E-08  0.93827000000E+00  0.93827000000E+00 0. -1.
     999902    2    1    2    0    0  0.15691853743E-01  0.14234588452E-01  0.10747332972E-01  0.10201736756E+01  0.10198970367E+01 0.  0.
     999903    2    3    3    0    0 -0.76675835947E-01 -0.29409779067E-01  0.98780279924E-01  0.12990044752E+00  0.19299317112E-01 0.  0.
         14    1    1    2    0    0 -0.15691853743E-01 -0.14234588452E-01 -0.10747332972E-01  0.23756324385E-01  0.00000000000E+00 0. -1.
     999901    1    3    3    0    0  0.92367689690E-01  0.43644367518E-01 -0.88032946952E-01  0.89027322810E+00  0.88000000000E+00 0. -1.
        -11    1    4    4    0    0 -0.20558638148E-01 -0.17370898326E-01  0.29602669800E-01  0.40012309249E-01  0.51100000000E-03 0. -1.
         11    1    4    4    0    0 -0.56117197799E-01 -0.12038880741E-01  0.69177610123E-01  0.89888138270E-01  0.51100000000E-03 0.  1.
</event>
<event>
 8    1  0.1123470E+005  0.1043930E+01  0.7957747E-01            NaN
         13   -1    0    0    0    0  0.00000000000E+00  0.00000000000E+00  0.74505805969E-08  0.10566000000E+00  0.10566000000E+00 0. -1.
     999900   -1    0    0    0    0 -0.00000000000E+00 -0.00000000000E+00 -0.74505805969E-08  0.93827000000E+00  0.93827000000E+00 0.  1.
     999902    2    1    2    0    0 -0.24759087545E-01  0.91484707455E-02 -0.20600030504E-02  0.10174545294E+01  0.10171100082E+01 0.  0.
     999903    2    3    3    0    0  0.11833566509E-01 -0.11919874121E+00 -0.34697511897E-01  0.12679340630E+00  0.22897103483E-01 0.  0.
         14    1    1    2    0    0  0.24759087545E-01 -0.91484707455E-02  0.20600030504E-02  0.26475470640E-01  0.00000000000E+00 0. -1.
     999901    1    3    3    0    0 -0.36592654054E-01  0.12834721195E+00  0.32637508847E-01  0.89066112306E+00  0.88000000000E+00 0.  1.
        -11    1    4    4    0    0  0.38233483481E-02 -0.80362110869E-01 -0.33407847824E-01  0.87115051932E-01  0.51100000000E-03 0. -1.
         11    1    4    4    0    0  0.80102181611E-02 -0.38836630337E-01 -0.12896640731E-02  0.39678354368E-01  0.51100000000E-03 0.  1.
</event>
<event>
 8    1  0.1123470E+005  0.1043930E+01  0.7957747E-01            NaN
         13   -1    0    0    0    0  0.00000000000E+00  0.00000000000E+00  0.74505805969E-08  0.10566000000E+00  0.10566000000E+00 0.  1.
     999900   -1    0    0    0    0 -0.00000000000E+00 -0.00000000000E+00 -0.74505805969E-08  0.93827000000E+00  0.93827000000E+00 0.  1.
     999902    2    1    2    0    0  0.17787330043E-01  0.59714321316E-02 -0.18197846554E-01  0.10177917382E+01  0.10174560499E+01 0.  0.
     999903    2    3    3    0    0 -0.82057166157E-02 -0.28719038067E-01  0.12064035657E+00  0.12585277511E+00  0.19816872513E-01 0.  0.
         14    1    1    2    0    0 -0.17787330043E-01 -0.59714321316E-02  0.18197846554E-01  0.26138261820E-01  0.00000000000E+00 0.  1.
     999901    1    3    3    0    0  0.25993046658E-01  0.34690470198E-01 -0.13883820313E+00  0.89193896307E+00  0.88000000000E+00 0.  1.
        -11    1    4    4    0    0 -0.13591714303E-01 -0.18881652271E-01  0.63730130846E-01  0.67845723438E-01  0.51100000000E-03 0. -1.
         11    1    4    4    0    0  0.53859976877E-02 -0.98373857960E-02  0.56910225726E-01  0.58007051671E-01  0.51100000000E-03 0.  1.
</event>
<event>
 8    1  0.1123470E+005  0.1043930E+01  0.7957747E-01            NaN
         13   -1    0    0    0    0  0.00000000000E+00  0.00000000000E+00  0.74505805969E-08  0.10566000000E+00  0.10566000000E+00 0.  1.
     999900   -1    0    0    0    0 -0.00000000000E+00 -0.00000000000E+00 -0.74505805969E-08  0.93827000000E+00  0.93827000000E+00 0. -1.
     999902    2    1    2    0    0 -0.45069457738E-02  0.21072059276E-01  0.90662036394E-02  0.10205517988E+01  0.10202839966E+01 0.  0.
     999903    2    3    3    0    0 -0.80521396210E-01  0.23935788632E-01 -0.98231982722E-01  0.13077694054E+00  0.19911517320E-01 0.  0.
         14    1    1    2    0    0  0.45069457738E-02 -0.21072059276E-01 -0.90662036394E-02  0.23378201187E-01  0.00000000000E+00 0. -1.
     999901    1    3    3    0    0  0.76014450436E-01 -0.28637293568E-02  0.10729818636E+00  0.88977485827E+00  0.88000000000E+00 0.  1.
        -11    1    4    4    0    0 -0.15272439609E-01 -0.45300950082E-03 -0.96211510890E-02  0.18063230567E-01  0.51100000000E-03 0. -1.
         11    1    4    4    0    0 -0.65248956601E-01  0.24388798133E-01 -0.88610831633E-01  0.11271370997E+00  0.51100000000E-03 0.  1.
</event>
<event>
 8    1  0.1123470E+005  0.1043930E+01  0.7957747E-01            NaN
         13   -1    0    0    0    0  0.00000000000E+00  0.00000000000E+00  0.74505805969E-08  0.10566000000E+00  0.10566000000E+00 0.  1.
     999900   -1    0    0    0    0 -0.00000000000E+00 -0.00000000000E+00 -0.74505805969E-08  0.93827000000E+00  0.93827000000E+00 0. -1.
     999902    2    1    2    0    0 -0.52973539280E-02  0.14456940546E-02  0.23356754841E-01  0.10199364595E+01  0.10196542019E+01 0.  0.
     999903    2    3    3    0    0  0.10489673440E+00  0.85015436036E-02 -0.70315631338E-01  0.12810293351E+00  0.19760375261E-01 0.  0.
         14    1    1    2    0    0  0.52973539280E-02 -0.14456940546E-02 -0.23356754841E-01  0.23993540519E-01  0.00000000000E+00 0. -1.
     999901    1    3    3    0    0 -0.11019408833E+00 -0.70558495489E-02  0.93672386179E-01  0.89183352597E+00  0.88000000000E+00 0.  1.
        -11    1    4    4    0    0  0.18851512196E-01 -0.11617737248E-03 -0.22244493594E-01  0.29162846663E-01  0.51100000000E-03 0. -1.
         11    1    4    4    0    0  0.86045222209E-01  0.86177209760E-02 -0.48071137743E-01  0.98940086845E-01  0.51100000000E-03 0.  1.
</event>
<event>
 8    1  0.1200150E+005  0.1043930E+01  0.7957747E-01            NaN
         13   -1    0    0    0    0  0.00000000000E+00  0.00000000000E+00  0.74505805969E-08  0.10566000000E+00  0.10566000000E+00 0. -1.
     999900   -1    0    0    0    0 -0.00000000000E+00 -0.00000000000E+00 -0.74505805969E-08  0.93827000000E+00  0.93827000000E+00 0.  1.
     999902    2    1    2    0    0 -0.23100064006E-01 -0.48710332513E-02  0.22185335730E-02  0.10202179395E+01  0.10199423426E+01 0.  0.
     999903    2    3    3    0    0 -0.13077875607E+00  0.79099040291E-02 -0.14859770410E-01  0.13339793434E+00  0.20212532928E-01 0.  0.
         14    1    1    2    0    0  0.23100064006E-01  0.48710332513E-02 -0.22185335730E-02  0.23712060501E-01  0.00000000000E+00 0.  1.
     999901    1    3    3    0    0  0.10767869207E+00 -0.12780937280E-01  0.17078303983E-01  0.88682000516E+00  0.88000000000E+00 0. -1.
        -11    1    4    4    0    0 -0.56729785753E-01  0.12732286847E-01 -0.27458101827E-02  0.58208077743E-01  0.51100000000E-03 0. -1.
         11    1    4    4    0    0 -0.74048970321E-01 -0.48223828183E-02 -0.12113960227E-01  0.75189856597E-01  0.51100000000E-03 0.  1.
</event>
<event>
 8    1  0.1123470E+005  0.1043930E+01  0.7957747E-01            NaN
         13   -1    0    0    0    0  0.00000000000E+00  0.00000000000E+00  0.74505805969E-08  0.10566000000E+00  0.10566000000E+00 0.  1.
     999900   -1    0    0    0    0 -0.00000000000E+00 -0.00000000000E+00 -0.74505805969E-08  0.93827000000E+00  0.93827000000E+00 0.  1.
     999902    2    1    2    0    0  0.23790469719E-03  0.13067223547E-01  0.19064364059E-01  0.10208159587E+01  0.10205542428E+01 0.  0.
     999903    2    3    3    0    0 -0.19481685066E-01  0.12231158263E+00  0.45631480982E-01  0.13344399386E+00  0.19631814543E-01 0.  0.
         14    1    1    2    0    0 -0.23790469719E-03 -0.13067223547E-01 -0.19064364059E-01  0.23114041335E-01  0.00000000000E+00 0.  1.
     999901    1    3    3    0    0  0.19719589763E-01 -0.10924435909E+00 -0.26567116923E-01  0.88737196480E+00  0.88000000000E+00 0.  1.
        -11    1    4    4    0    0 -0.16208754992E-02  0.63933505291E-01  0.18071279013E-01  0.66460157857E-01  0.51100000000E-03 0.  1.
         11    1    4    4    0    0 -0.17860809567E-01  0.58378077343E-01  0.27560201968E-01  0.66983836007E-01  0.51100000000E-03 0. -1.
</event>
<event>
 8    1  0.1123470E+005  0.1043930E+01  0.7957747E-01            NaN
         13   -1    0    0    0    0  0.00000000000E+00  0.00000000000E+00  0.74505805969E-08  0.10566000000E+00  0.10566000000E+00 0. -1.
     999900   -1    0    0    0    0 -0.00000000000E+00 -0.00000000000E+00 -0.74505805969E-08  0.93827000000E+00  0.93827000000E+00 0. -1.
     999902    2    1    2    0    0 -0.14326477660E-01 -0.20158443641E-01  0.84841725192E-02  0.10177844077E+01  0.10174485287E+01 0.  0.
     999903    2    3    3    0    0 -0.12762021136E-01 -0.68568773182E-01 -0.10668759409E+00  0.12895903491E+00  0.19586835195E-01 0.  0.
         14    1    1    2    0    0  0.14326477660E-01  0.20158443641E-01 -0.84841725192E-02  0.26145592277E-01  0.00000000000E+00 0.  1.
     999901    1    3    3    0    0 -0.15644565243E-02  0.48410329541E-01  0.11517176661E+00  0.88882537281E+00  0.88000000000E+00 0.  1.
        -11    1    4    4    0    0  0.23539805920E-03 -0.10920157002E-01 -0.31384915236E-01  0.33235211246E-01  0.51100000000E-03 0.  1.
         11    1    4    4    0    0 -0.12997419195E-01 -0.57648616180E-01 -0.75302678855E-01  0.95723823665E-01  0.51100000000E-03 0. -1.
</event>
<event>
 8    1  0.1123470E+005  0.1043930E+01  0.7957747E-01            NaN
         13   -1    0    0    0    0  0.00000000000E+00  0.00000000000E+00  0.74505805969E-08  0.10566000000E+00  0.10566000000E+00 0. -1.
     999900   -1    0    0    0    0 -0.00000000000E+00 -0.00000000000E+00 -0.74505805969E-08  0.93827000000E+00  0.93827000000E+00 0. -1.
     999902    2    1    2    0    0 -0.32016007838E-02 -0.19486902607E-01  0.10224351164E-01  0.10216920375E+01  0.10214499951E+01 0.  0.
     999903    2    3    3    0    0  0.46920170387E-01  0.11893290921E+00  0.73096530853E-02  0.12945847404E+00  0.18961175861E-01 0.  0.
         14    1    1    2    0    0  0.32016007838E-02  0.19486902607E-01 -0.10224351164E-01  0.22237962531E-01  0.00000000000E+00 0.  1.
     999901    1    3    3    0    0 -0.50121771171E-01 -0.13841981182E+00  0.29146980782E-02  0.89223356343E+00  0.88000000000E+00 0.  1.
        -11    1    4    4    0    0  0.12644332607E-01  0.16135364619E-01 -0.24771112965E-02  0.20654935000E-01  0.51100000000E-03 0. -1.
         11    1    4    4    0    0  0.34275837780E-01  0.10279754459E+00  0.97867643818E-02  0.10880353904E+00  0.51100000000E-03 0.  1.
</event>
<event>
 8    1  0.1123470E+005  0.1043930E+01  0.7957747E-01            NaN
         13   -1    0    0    0    0  0.00000000000E+00  0.00000000000E+00  0.74505805969E-08  0.10566000000E+00  0.10566000000E+00 0. -1.
     999900   -1    0    0    0    0 -0.00000000000E+00 -0.00000000000E+00 -0.74505805969E-08  0.93827000000E+00  0.93827000000E+00 0.  1.
     999902    2    1    2    0    0  0.32901596916E-02  0.23578768776E-01 -0.97242715883E-03  0.10201029334E+01  0.10198246249E+01 0.  0.
     999903    2    3    3    0    0  0.40517937910E-01 -0.28610157714E-01 -0.11852070067E+00  0.12997530878E+00  0.19651462728E-01 0.  0.
         14    1    1    2    0    0 -0.32901596916E-02 -0.23578768776E-01  0.97242715883E-03  0.23827066592E-01  0.00000000000E+00 0.  1.
     999901    1    3    3    0    0 -0.37227778218E-01  0.52188926490E-01  0.11754827351E+00  0.89012762463E+00  0.88000000000E+00 0. -1.
        -11    1    4    4    0    0  0.19603107181E-01 -0.12474042525E-01 -0.32266123060E-01  0.39764901187E-01  0.51100000000E-03 0. -1.
         11    1    4    4    0    0  0.20914830729E-01 -0.16136115189E-01 -0.86254577614E-01  0.90210407593E-01  0.51100000000E-03 0.  1.
</event>
<event>
 8    1  0.1123470E+005  0.1043930E+01  0.7957747E-01            NaN
         13   -1    0    0    0    0  0.00000000000E+00  0.00000000000E+00  0.74505805969E-08  0.10566000000E+00  0.10566000000E+00 0. -1.
     999900   -1    0    0    0    0 -0.00000000000E+00 -0.00000000000E+00 -0.74505805969E-08  0.93827000000E+00  0.93827000000E+00 0.  1.
     999902    2    1    2    0    0 -0.10605359506E-01 -0.12299983675E-01 -0.13643379910E-01  0.10227190343E+01  0.10224990553E+01 0.  0.
     999903    2    3    3    0    0  0.64659141541E-01 -0.11463698372E+00  0.12466476248E-02  0.13347254455E+00  0.22156791223E-01 0.  0.
         14    1    1    2    0    0  0.10605359506E-01  0.12299983675E-01  0.13643379910E-01  0.21210965655E-01  0.00000000000E+00 0. -1.
     999901    1    3    3    0    0 -0.75264501047E-01  0.10233700004E+00 -0.14890027535E-01  0.88924648980E+00  0.88000000000E+00 0. -1.
        -11    1    4    4    0    0  0.25059610856E-01 -0.63758615616E-01 -0.50309373327E-02  0.68692915304E-01  0.51100000000E-03 0. -1.
         11    1    4    4    0    0  0.39599530686E-01 -0.50878368101E-01  0.62775849574E-02  0.64779629245E-01  0.51100000000E-03 0.  1.
</event>
<event>
 8    1  0.1123470E+005  0.1043930E+01  0.7957747E-01            NaN
         13   -1    0    0    0    0  0.00000000000E+00  0.00000000000E+00  0.74505805969E-08  0.10566000000E+00  0.10566000000E+00 0. -1.
     999900   -1    0    0    0    0 -0.00000000000E+00 -0.00000000000E+00 -0.74505805969E-08  0.93827000000E+00  0.93827000000E+00 0.  1.
     999902    2    1    2    0    0 -0.19369691676E-01 -0.54538591914E-02  0.12696778246E-01  0.10201363514E+01  0.10198588323E+01 0.  0.
     999903    2    3    3    0    0  0.52502516129E-01  0.11187588698E-01  0.11762099668E+00  0.13083795173E+00  0.20054785287E-01 0.  0.
         14    1    1    2    0    0  0.19369691676E-01  0.54538591914E-02 -0.12696778246E-01  0.23793648597E-01  0.00000000000E+00 0. -1.
     999901    1    3    3    0    0 -0.71872207805E-01 -0.16641447890E-01 -0.10492421843E+00  0.88929839967E+00  0.88000000000E+00 0.  1.
        -11    1    4    4    0    0  0.94713307430E-02 -0.51438019936E-02  0.16247618011E-01  0.19504128204E-01  0.51100000000E-03 0. -1.
         11    1    4    4    0    0  0.43031185386E-01  0.16331390692E-01  0.10137337867E+00  0.11133382353E+00  0.51100000000E-03 0.  1.
</event>
<event>
 8    1  0.1123470E+005  0.1043930E+01  0.7957747E-01            NaN
         13   -1    0    0    0    0  0.00000000000E+00  0.00000000000E+00  0.74505805969E-08  0.10566000000E+00  0.10566000000E+00 0. -1.
     999900   -1    0    0    0    0 -0.00000000000E+00 -0.00000000000E+00 -0.74505805969E-08  0.93827000000E+00  0.93827000000E+00 0.  1.
     999902    2    1    2    0    0  0.82390395293E-02 -0.21380894723E-01  0.65376893240E-02  0.10201021631E+01  0.10198238364E+01 0.  0.
     999903    2    3    3    0    0  0.10198414793E+00 -0.80761341521E-01  0.21153370602E-01  0.13301265182E+00  0.17937105226E-01 0.  0.
         14    1    1    2    0    0 -0.82390395293E-02  0.21380894723E-01 -0.65376893240E-02  0.23827836939E-01  0.00000000000E+00 0. -1.
     999901    1    3    3    0    0 -0.93745108399E-01  0.59380446798E-01 -0.14615681278E-01  0.88708951124E+00  0.88000000000E+00 0. -1.
        -11    1    4    4    0    0  0.44861763074E-01 -0.24397514475E-01  0.83422326301E-02  0.51746212083E-01  0.51100000000E-03 0.  1.
         11    1    4    4    0    0  0.57122384855E-01 -0.56363827046E-01  0.12811137972E-01  0.81266439739E-01  0.51100000000E-03 0. -1.
</event>
<event>
 8    1  0.1123470E+005  0.1043930E+01  0.7957747E-01            NaN
         13   -1    0    0    0    0  0.00000000000E+00  0.00000000000E+00  0.74505805969E-08  0.10566000000E+00  0.10566000000E+00 0.  1.
     999900   -1    0    0    0    0 -0.00000000000E+00 -0.00000000000E+00 -0.74505805969E-08  0.93827000000E+00  0.93827000000E+00 0. -1.
     999902    2    1    2    0    0 -0.92389017346E-03  0.31022224398E-02  0.26929968888E-01  0.10168061990E+01  0.10164443643E+01 0.  0.
     999903    2    3    3    0    0  0.41689901913E-01 -0.63933264127E-02 -0.11532322194E+00  0.12431414242E+00  0.19381381360E-01 0.  0.
         14    1    1    2    0    0  0.92389017346E-03 -0.31022224398E-02 -0.26929968888E-01  0.27123801014E-01  0.00000000000E+00 0. -1.
     999901    1    3    3    0    0 -0.42613792087E-01  0.94955488525E-02  0.14225319083E+00  0.89249205656E+00  0.88000000000E+00 0.  1.
        -11    1    4    4    0    0  0.91806966593E-02 -0.61712170209E-02 -0.13697988632E-01  0.17614344275E-01  0.51100000000E-03 0.  1.
         11    1    4    4    0    0  0.32509205254E-01 -0.22210939180E-03 -0.10162523331E+00  0.10669979815E+00  0.51100000000E-03 0. -1.
</event>
<event>
 8    1  0.1123470E+005  0.1043930E+01  0.7957747E-01            NaN
         13   -1    0    0    0    0  0.00000000000E+00  0.00000000000E+00  0.74505805969E-08  0.10566000000E+00  0.10566000000E+00 0.  1.
     999900   -1    0    0    0    0 -0.00000000000E+00 -0.00000000000E+00 -0.74505805969E-08  0.93827000000E+00  0.93827000000E+00 0. -1.
     999902    2    1    2    0    0 -0.19403318866E-01 -0.24958827053E-02 -0.13066309018E-01  0.10204045532E+01  0.10201333274E+01 0.  0.
     999903    2    3    3    0    0  0.72772001293E-02  0.12724243831E+00  0.15164911675E-01  0.13004457894E+00  0.20928980325E-01 0.  0.
         14    1    1    2    0    0  0.19403318866E-01  0.24958827053E-02  0.13066309018E-01  0.23525446751E-01  0.00000000000E+00 0.  1.
     999901    1    3    3    0    0 -0.26680518995E-01 -0.12973832101E+00 -0.28231220693E-01  0.89035997431E+00  0.88000000000E+00 0. -1.
        -11    1    4    4    0    0 -0.48172886919E-03  0.73009160273E-01  0.17947622748E-01  0.75186088007E-01  0.51100000000E-03 0.  1.
         11    1    4    4    0    0  0.77589289985E-02  0.54233278032E-01 -0.27827110728E-02  0.54858490931E-01  0.51100000000E-03 0. -1.
</event>
<event>
 8    1  0.1123470E+005  0.1043930E+01  0.7957747E-01            NaN
         13   -1    0    0    0    0  0.00000000000E+00  0.00000000000E+00  0.74505805969E-08  0.10566000000E+00  0.10566000000E+00 0.  1.
     999900   -1    0    0    0    0 -0.00000000000E+00 -0.00000000000E+00 -0.74505805969E-08  0.93827000000E+00  0.93827000000E+00 0. -1.
     999902    2    1    2    0    0 -0.77144708700E-02 -0.23898089939E-02 -0.22760075769E-01  0.10197795280E+01  0.10194935215E+01 0.  0.
     999903    2    3    3    0    0  0.52597670681E-01 -0.86506201119E-01 -0.81915640770E-01  0.13174095751E+00  0.19891452682E-01 0.  0.
         14    1    1    2    0    0  0.77144708700E-02  0.23898089939E-02  0.22760075769E-01  0.24150471980E-01  0.00000000000E+00 0.  1.
     999901    1    3    3    0    0 -0.60312141551E-01  0.84116392125E-01  0.59155565000E-01  0.88803857051E+00  0.88000000000E+00 0.  1.
        -11    1    4    4    0    0  0.16255910627E-01 -0.44559781420E-01 -0.42237761082E-01  0.63514709578E-01  0.51100000000E-03 0. -1.
         11    1    4    4    0    0  0.36341760054E-01 -0.41946419699E-01 -0.39677879688E-01  0.68226247933E-01  0.51100000000E-03 0.  1.
</event>
<event>
 8    1  0.1123470E+005  0.1043930E+01  0.7957747E-01            NaN
         13   -1    0    0    0    0  0.00000000000E+00  0.00000000000E+00  0.74505805969E-08  0.10566000000E+00  0.10566000000E+00 0. -1.
     999900   -1    0    0    0    0 -0.00000000000E+00 -0.00000000000E+00 -0.74505805969E-08  0.93827000000E+00  0.93827000000E+00 0. -1.
     999902    2    1    2    0    0 -0.19540439250E-01  0.59397140006E-02 -0.10591013693E-01  0.10209239456E+01  0.10206646972E+01 0.  0.
     999903    2    3    3    0    0  0.30567350673E-01  0.12611462137E+00 -0.16879014144E-02  0.13129926946E+00  0.19934605585E-01 0.  0.
         14    1    1    2    0    0  0.19540439250E-01 -0.59397140006E-02  0.10591013693E-01  0.23006054411E-01  0.00000000000E+00 0. -1.
     999901    1    3    3    0    0 -0.50107789923E-01 -0.12017490737E+00 -0.89031122790E-02  0.88962467613E+00  0.88000000000E+00 0.  1.
        -11    1    4    4    0    0  0.38847933345E-02  0.41358579744E-01 -0.76454763463E-02  0.42241427145E-01  0.51100000000E-03 0.  1.
         11    1    4    4    0    0  0.26682557338E-01  0.84756041622E-01  0.59575749318E-02  0.89057842314E-01  0.51100000000E-03 0. -1.
</event>
<event>
 8    1  0.1123470E+005  0.1043930E+01  0.7957747E-01            NaN
         13   -1    0    0    0    0  0.00000000000E+00  0.00000000000E+00  0.74505805969E-08  0.10566000000E+00  0.10566000000E+00 0.  1.
     999900   -1    0    0    0    0 -0.00000000000E+00 -0.00000000000E+00 -0.74505805969E-08  0.93827000000E+00  0.93827000000E+00 0. -1.
     999902    2    1    2    0    0  0.11932145430E-02 -0.22856803771E-01  0.57333636634E-02  0.10203349010E+01  0.10200620478E+01 0.  0.
     999903    2    3    3    0    0  0.15720288557E-02 -0.13019739316E+00  0.13391011777E-01  0.13377932729E+00  0.27636149425E-01 0.  0.
         14    1    1    2    0    0 -0.11932145430E-02  0.22856803771E-01 -0.57333636634E-02  0.23595099035E-01  0.00000000000E+00 0.  1.
     999901    1    3    3    0    0 -0.37881431268E-03  0.10734058939E+00 -0.76576481134E-02  0.88655557367E+00  0.88000000000E+00 0.  1.
        -11    1    4    4    0    0 -0.23107181958E-02 -0.95642105777E-01 -0.21331383892E-02  0.95695157748E-01  0.51100000000E-03 0. -1.
         11    1    4    4    0    0  0.38827470515E-02 -0.34555287381E-01  0.15524150166E-01  0.38084169547E-01  0.51100000000E-03 0.  1.
</event>
<event>
 8    1  0.1123470E+005  0.1043930E+01  0.7957747E-01            NaN
         13   -1    0    0    0    0  0.00000000000E+00  0.00000000000E+00  0.74505805969E-08  0.10566000000E+00  0.10566000000E+00 0.  1.
     999900   -1    0    0    0    0 -0.00000000000E+00 -0.00000000000E+00 -0.74505805969E-08  0.93827000000E+00  0.93827000000E+00 0. -1.
     999902    2    1    2    0    0 -0.36603087725E-02  0.10897777899E-01 -0.20987314603E-01  0.10200003782E+01  0.10197196403E+01 0.  0.
     999903    2    3    3    0    0 -0.15859456506E-01 -0.78940823936E-01  0.96939616747E-01  0.12751701440E+00  0.19496759287E-01 0.  0.
         14    1    1    2    0    0  0.36603087725E-02 -0.10897777899E-01  0.20987314603E-01  0.23929621762E-01  0.00000000000E+00 0.  1.
     999901    1    3    3    0    0  0.12199147733E-01  0.89838601835E-01 -0.11792693135E+00  0.89248336384E+00  0.88000000000E+00 0. -1.
        -11    1    4    4    0    0 -0.41815215421E-02 -0.61270360549E-01  0.76204717183E-01  0.97872172992E-01  0.51100000000E-03 0. -1.
         11    1    4    4    0    0 -0.11677934964E-01 -0.17670463387E-01  0.20734899564E-01  0.29644841411E-01  0.51100000000E-03 0.  1.
</event>
<event>
 8    1  0.1123470E+005  0.1043930E+01  0.7957747E-01            NaN
         13   -1    0    0    0    0  0.00000000000E+00  0.00000000000E+00  0.74505805969E-08  0.10566000000E+00  0.10566000000E+00 0. -1.
     999900   -1    0    0    0    0 -0.00000000000E+00 -0.00000000000E+00 -0.74505805969E-08  0.93827000000E+00  0.93827000000E+00 0.  1.
     999902    2    1    2    0    0  0.11405848363E-01  0.19333191855E-01 -0.10082330524E-02  0.10214604157E+01  0.10212132484E+01 0.  0.
     999903    2    3    3    0    0  0.86588267762E-02 -0.67250510920E-01 -0.10985553482E+00  0.13053279867E+00  0.19312340504E-01 0.  0.
         14    1    1    2    0    0 -0.11405848363E-01 -0.19333191855E-01  0.10082330524E-02  0.22469584288E-01  0.00000000000E+00 0. -1.
     999901    1    3    3    0    0  0.27470215867E-02  0.86583702775E-01  0.10884730177E+00  0.89092761705E+00  0.88000000000E+00 0. -1.
        -11    1    4    4    0    0 -0.37185051670E-02 -0.65144374531E-02 -0.61467718182E-02  0.97112872882E-02  0.51100000000E-03 0.  1.
         11    1    4    4    0    0  0.12377331943E-01 -0.60736073467E-01 -0.10370876301E+00  0.12082151138E+00  0.51100000000E-03 0. -1.
</event>
<event>
 8    1  0.1123470E+005  0.1043930E+01  0.7957747E-01            NaN
         13   -1    0    0    0    0  0.00000000000E+00  0.00000000000E+00  0.74505805969E-08  0.10566000000E+00  0.10566000000E+00 0.  1.
     999900   -1    0    0    0    0 -0.00000000000E+00 -0.00000000000E+00 -0.74505805969E-08  0.93827000000E+00  0.93827000000E+00 0.  1.
     999902    2    1    2    0    0 -0.28956981876E-02 -0.23479739275E-01  0.69704996824E-02  0.10192668475E+01  0.10189684173E+01 0.  0.
     999903    2    3    3    0    0  0.12254461229E-01  0.25394541046E-01  0.12516083119E+00  0.12989224868E+00  0.20290590583E-01 0.  0.
         14    1    1    2    0    0  0.28956981876E-02  0.23479739275E-01 -0.69704996824E-02  0.24663152480E-01  0.00000000000E+00 0. -1.
     999901    1    3    3    0    0 -0.15150159416E-01 -0.48874280321E-01 -0.11819033151E+00  0.88937459884E+00  0.88000000000E+00 0.  1.
        -11    1    4    4    0    0  0.15370312751E-02  0.11400858915E-01  0.88108787921E-01  0.88858098557E-01  0.51100000000E-03 0.  1.
         11    1    4    4    0    0  0.10717429954E-01  0.13993682131E-01  0.37052043271E-01  0.41034150119E-01  0.51100000000E-03 0. -1.
</event>
<event>
 8    1  0.1123470E+005  0.1043930E+01  0.7957747E-01            NaN
         13   -1    0    0    0    0  0.00000000000E+00  0.00000000000E+00  0.74505805969E-08  0.10566000000E+00  0.10566000000E+00 0. -1.
     999900   -1    0    0    0    0 -0.00000000000E+00 -0.00000000000E+00 -0.74505805969E-08  0.93827000000E+00  0.93827000000E+00 0. -1.
     999902    2    1    2    0    0  0.22086983608E-01 -0.17899367841E-01 -0.17331618824E-01  0.10106342461E+01  0.10100856262E+01 0.  0.
     999903    2    3    3    0    0  0.93028297374E-01 -0.52494809467E-01  0.59022205060E-01  0.12380877233E+00  0.20857187778E-01 0.  0.
         14    1    1    2    0    0 -0.22086983608E-01  0.17899367841E-01  0.17331618824E-01  0.33295753860E-01  0.00000000000E+00 0. -1.
     999901    1    3    3    0    0 -0.70941313766E-01  0.34595441626E-01 -0.76353823885E-01  0.88682547381E+00  0.88000000000E+00 0. -1.
        -11    1    4    4    0    0  0.43028737719E-01 -0.31950838981E-01  0.20295935903E-01  0.57310684139E-01  0.51100000000E-03 0.  1.
         11    1    4    4    0    0  0.49999559655E-01 -0.20543970485E-01  0.38726269157E-01  0.66498088189E-01  0.51100000000E-03 0. -1.
</event>
<event>
 8    1  0.1123470E+005  0.1043930E+01  0.7957747E-01            NaN
         13   -1    0    0    0    0  0.00000000000E+00  0.00000000000E+00  0.74505805969E-08  0.10566000000E+00  0.10566000000E+00 0.  1.
     999900   -1    0    0    0    0 -0.00000000000E+00 -0.00000000000E+00 -0.74505805969E-08  0.93827000000E+00  0.93827000000E+00 0.  1.
     999902    2    1    2    0    0 -0.21045859518E-01  0.10086963387E-02  0.10684182474E-01  0.10203059143E+01  0.10200323825E+01 0.  0.
     999903    2    3    3    0    0  0.46640834145E-01  0.76056346363E-01 -0.90177864199E-01  0.12879775911E+00  0.22290812628E-01 0.  0.
         14    1    1    2    0    0  0.21045859518E-01 -0.10086963387E-02 -0.10684182474E-01  0.23624085724E-01  0.00000000000E+00 0.  1.
     999901    1    3    3    0    0 -0.67686693663E-01 -0.75047650024E-01  0.10086204667E+00  0.89150815517E+00  0.88000000000E+00 0. -1.
        -11    1    4    4    0    0  0.16745108472E-01  0.27053395015E-01 -0.17942688581E-01  0.36530617762E-01  0.51100000000E-03 0. -1.
         11    1    4    4    0    0  0.29895725674E-01  0.49002951348E-01 -0.72235175618E-01  0.92267141345E-01  0.51100000000E-03 0.  1.
</event>
<event>
 8    1  0.1123470E+005  0.1043930E+01  0.7957747E-01            NaN
         13   -1    0    0    0    0  0.00000000000E+00  0.00000000000E+00  0.74505805969E-08  0.10566000000E+00  0.10566000000E+00 0.  1.
     999900   -1    0    0    0    0 -0.00000000000E+00 -0.00000000000E+00 -0.74505805969E-08  0.93827000000E+00  0.93827000000E+00 0.  1.
     999902    2    1    2    0    0 -0.24676442251E-02  0.18227785548E-01 -0.16491520008E-01  0.10192255132E+01  0.10189260695E+01 0.  0.
     999903    2    3    3    0    0 -0.87859055945E-01 -0.82583789371E-01 -0.41394519740E-01  0.12901496161E+00  0.19800456468E-01 0.  0.
         14    1    1    2    0    0  0.24676442251E-02 -0.18227785548E-01  0.16491520008E-01  0.24704486762E-01  0.00000000000E+00 0.  1.
     999901    1    3    3    0    0  0.85391411720E-01  0.10081157492E+00  0.24902999732E-01  0.89021055163E+00  0.88000000000E+00 0. -1.
        -11    1    4    4    0    0 -0.73868420405E-02 -0.15912720670E-01 -0.81462219738E-02  0.19349474615E-01  0.51100000000E-03 0.  1.
         11    1    4    4    0    0 -0.80472213905E-01 -0.66671068701E-01 -0.33248297766E-01  0.10966548699E+00  0.51100000000E-03 0. -1.
</event>
<event>
 8    1  0.1123470E+005  0.1043930E+01  0.7957747E-01            NaN
         13   -1    0    0    0    0  0.00000000000E+00  0.00000000000E+00  0.74505805969E-08  0.10566000000E+00  0.10566000000E+00 0.  1.
     999900   -1    0    0    0    0 -0.00000000000E+00 -0.00000000000E+00 -0.74505805969E-08  0.93827000000E+00  0.93827000000E+00 0. -1.
     999902    2    1    2    0    0 -0.54689660210E-02  0.12840008344E-01  0.15708523543E-01  0.10229173106E+01  0.10227014673E+01 0.  0.
     999903    2    3    3    0    0 -0.74019126750E-01  0.27509775576E-01 -0.10418325748E+00  0.13202541719E+00  0.18464581415E-01 0.  0.
         14    1    1    2    0    0  0.54689660210E-02 -0.12840008344E-01 -0.15708523543E-01  0.21012689392E-01  0.00000000000E+00 0. -1.
     999901    1    3    3    0    0  0.68550160729E-01 -0.14669767232E-01  0.11989178102E+00  0.89089189342E+00  0.88000000000E+00 0.  1.
        -11    1    4    4    0    0 -0.39830654221E-01  0.24356434686E-01 -0.62698111856E-01  0.78173085379E-01  0.51100000000E-03 0. -1.
         11    1    4    4    0    0 -0.34188472529E-01  0.31533408903E-02 -0.41485145625E-01  0.53852331808E-01  0.51100000000E-03 0.  1.
</event>
<event>
 8    1  0.1123470E+005  0.1043930E+01  0.7957747E-01            NaN
         13   -1    0    0    0    0  0.00000000000E+00  0.00000000000E+00  0.74505805969E-08  0.10566000000E+00  0.10566000000E+00 0.  1.
     999900   -1    0    0    0    0 -0.00000000000E+00 -0.00000000000E+00 -0.74505805969E-08  0.93827000000E+00  0.93827000000E+00 0. -1.
     999902    2    1    2    0    0 -0.30738310359E-02  0.11207673974E-01  0.20329023511E-01  0.10205135615E+01  0.10202448724E+01 0.  0.
     999903    2    3    3    0    0 -0.10235512176E+00 -0.78049572456E-01  0.39834294539E-02  0.13029403290E+00  0.19808094000E-01 0.  0.
         14    1    1    2    0    0  0.30738310359E-02 -0.11207673974E-01 -0.20329023511E-01  0.23416438458E-01  0.00000000000E+00 0.  1.
     999901    1    3    3    0    0  0.99281290727E-01  0.89257246430E-01  0.16345594057E-01  0.89021952864E+00  0.88000000000E+00 0. -1.
        -11    1    4    4    0    0 -0.44098917991E-01 -0.22283974435E-01 -0.17594878082E-02  0.49443371679E-01  0.51100000000E-03 0. -1.
         11    1    4    4    0    0 -0.58256203771E-01 -0.55765598021E-01  0.57429172621E-02  0.80850661223E-01  0.51100000000E-03 0.  1.
</event>
<event>
 8    1  0.1123470E+005  0.1043930E+01  0.7957747E-01            NaN
         13   -1    0    0    0    0  0.00000000000E+00  0.00000000000E+00  0.74505805969E-08  0.10566000000E+00  0.10566000000E+00 0.  1.
     999900   -1    0    0    0    0 -0.00000000000E+00 -0.00000000000E+00 -0.74505805969E-08  0.93827000000E+00  0.93827000000E+00 0. -1.
     999902    2    1    2    0    0 -0.16542908880E-01  0.11740862060E-01  0.10421012809E-01  0.10211240099E+01  0.10208693013E+01 0.  0.
     999903    2    3    3    0    0  0.29904518139E-01 -0.12419821594E+00 -0.36748500461E-02  0.12936423858E+00  0.20053045981E-01 0.  0.
         14    1    1    2    0    0  0.16542908880E-01 -0.11740862060E-01 -0.10421012809E-01  0.22805990092E-01  0.00000000000E+00 0. -1.
     999901    1    3    3    0    0 -0.46447427019E-01  0.13593907800E+00  0.14095862855E-01  0.89175977133E+00  0.88000000000E+00 0. -1.
        -11    1    4    4    0    0  0.18901569339E-01 -0.69634252628E-01 -0.11785062075E-01  0.73111881877E-01  0.51100000000E-03 0.  1.
         11    1    4    4    0    0  0.11002948800E-01 -0.54563963313E-01  0.81102120290E-02  0.56252356705E-01  0.51100000000E-03 0. -1.
</event>
<event>
 8    1  0.1123470E+005  0.1043930E+01  0.7957747E-01            NaN
         13   -1    0    0    0    0  0.00000000000E+00  0.00000000000E+00  0.74505805969E-08  0.10566000000E+00  0.10566000000E+00 0.  1.
     999900   -1    0    0    0    0 -0.00000000000E+00 -0.00000000000E+00 -0.74505805969E-08  0.93827000000E+00  0.93827000000E+00 0.  1.
     999902    2    1    2    0    0  0.22698019918E-01  0.16281287475E-01 -0.12174849350E-01  0.10134585808E+01  0.10130003888E+01 0.  0.
     999903    2    3    3    0    0  0.18077473406E-02 -0.76016324134E-01  0.93314992290E-01  0.12212062063E+00  0.20591471796E-01 0.  0.
         14    1    1    2    0    0 -0.22698019918E-01 -0.16281287475E-01  0.12174849350E-01  0.30471419178E-01  0.00000000000E+00 0.  1.
     999901    1    3    3    0    0  0.20890272577E-01  0.92297611609E-01 -0.10548984164E+00  0.89133796020E+00  0.88000000000E+00 0.  1.
        -11    1    4    4    0    0  0.79052803123E-02 -0.44097167727E-01  0.65417099881E-01  0.79288786951E-01  0.51100000000E-03 0.  1.
         11    1    4    4    0    0 -0.60975329717E-02 -0.31919156407E-01  0.27897892409E-01  0.42831833675E-01  0.51100000000E-03 0. -1.
</event>
<event>
 8    1  0.1123470E+005  0.1043930E+01  0.7957747E-01            NaN
         13   -1    0    0    0    0  0.00000000000E+00  0.00000000000E+00  0.74505805969E-08  0.10566000000E+00  0.10566000000E+00 0. -1.
     999900   -1    0    0    0    0 -0.00000000000E+00 -0.00000000000E+00 -0.74505805969E-08  0.93827000000E+00  0.93827000000E+00 0. -1.
     999902    2    1    2    0    0 -0.53677495117E-02 -0.18428465080E-01  0.14131791244E-01  0.10200945519E+01  0.10198160453E+01 0.  0.
     999903    2    3    3    0    0  0.10283050748E+00 -0.69258678332E-01  0.39556075600E-01  0.13164817336E+00  0.19891722890E-01 0.  0.
         14    1    1    2    0    0  0.53677495117E-02  0.18428465080E-01 -0.14131791244E-01  0.23835448051E-01  0.00000000000E+00 0.  1.
     999901    1    3    3    0    0 -0.10819825699E+00  0.50830213252E-01 -0.25424284356E-01  0.88844637859E+00  0.88000000000E+00 0. -1.
        -11    1    4    4    0    0  0.30375070911E-01 -0.31478540060E-01  0.16338401150E-01  0.46698478458E-01  0.51100000000E-03 0. -1.
         11    1    4    4    0    0  0.72455436566E-01 -0.37780138272E-01  0.23217674449E-01  0.84949694900E-01  0.51100000000E-03 0.  1.
</event>
<event>
 8    1  0.1123470E+005  0.1043930E+01  0.7957747E-01            NaN
         13   -1    0    0    0    0  0.00000000000E+00  0.00000000000E+00  0.74505805969E-08  0.10566000000E+00  0.10566000000E+00 0.  1.
     999900   -1    0    0    0    0 -0.00000000000E+00 -0.00000000000E+00 -0.74505805969E-08  0.93827000000E+00  0.93827000000E+00 0.  1.
     999902    2    1    2    0    0  0.25711917231E-01  0.11565146549E-02 -0.18033435241E-01  0.10125031802E+01  0.10120153383E+01 0.  0.
     999903    2    3    3    0    0 -0.26227354827E-01  0.11673633743E+00  0.18741888749E-01  0.12266678636E+00  0.19509881208E-01 0.  0.
         14    1    1    2    0    0 -0.25711917231E-01 -0.11565146549E-02  0.18033435241E-01  0.31426819763E-01  0.00000000000E+00 0.  1.
     999901    1    3    3    0    0  0.51939272058E-01 -0.11557982277E+00 -0.36775323991E-01  0.88983639388E+00  0.88000000000E+00 0. -1.
        -11    1    4    4    0    0 -0.75159087879E-02  0.22071070085E-01  0.11208747904E-01  0.25875049182E-01  0.51100000000E-03 0.  1.
         11    1    4    4    0    0 -0.18711446039E-01  0.94665267342E-01  0.75331408457E-02  0.96791737177E-01  0.51100000000E-03 0. -1.
</event>
<event>
 8    1  0.1123470E+005  0.1043930E+01  0.7957747E-01            NaN
         13   -1    0    0    0    0  0.00000000000E+00  0.00000000000E+00  0.74505805969E-08  0.10566000000E+00  0.10566000000E+00 0. -1.
     999900   -1    0    0    0    0 -0.00000000000E+00 -0.00000000000E+00 -0.74505805969E-08  0.93827000000E+00  0.93827000000E+00 0.  1.
     999902    2    1    2    0    0  0.21255952007E-01 -0.43988826534E-02  0.93994785202E-02  0.10202759124E+01  0.10200016772E+01 0.  0.
     999903    2    3    3    0    0  0.73073419535E-02 -0.86073762968E-01  0.97952774266E-01  0.13195894419E+00  0.18876627033E-01 0.  0.
         14    1    1    2    0    0 -0.21255952007E-01  0.43988826534E-02 -0.93994785202E-02  0.23654087612E-01  0.00000000000E+00 0.  1.
     999901    1    3    3    0    0  0.13948610053E-01  0.81674880314E-01 -0.88553295746E-01  0.88831696820E+00  0.88000000000E+00 0.  1.
        -11    1    4    4    0    0  0.11096762707E-02 -0.39533446167E-01  0.31354209552E-01  0.50472490773E-01  0.51100000000E-03 0.  1.
         11    1    4    4    0    0  0.61976656827E-02 -0.46540316801E-01  0.66598564714E-01  0.81486453419E-01  0.51100000000E-03 0. -1.
</event>
<event>
 8    1  0.1123470E+005  0.1043930E+01  0.7957747E-01            NaN
         13   -1    0    0    0    0  0.00000000000E+00  0.00000000000E+00  0.74505805969E-08  0.10566000000E+00  0.10566000000E+00 0.  1.
     999900   -1    0    0    0    0 -0.00000000000E+00 -0.00000000000E+00 -0.74505805969E-08  0.93827000000E+00  0.93827000000E+00 0. -1.
     999902    2    1    2    0    0  0.20039412021E-01 -0.31924871084E-01 -0.12351216151E-02  0.10062165945E+01  0.10055095893E+01 0.  0.
     999903    2    3    3    0    0  0.11681425151E+00 -0.23913969337E-01 -0.19909738264E-02  0.12087478740E+00  0.19730762003E-01 0.  0.
         14    1    1    2    0    0 -0.20039412021E-01  0.31924871084E-01  0.12351216151E-02  0.37713405485E-01  0.00000000000E+00 0. -1.
     999901    1    3    3    0    0 -0.96774839485E-01 -0.80109017475E-02  0.75585221133E-03  0.88534180711E+00  0.88000000000E+00 0. -1.
        -11    1    4    4    0    0  0.10640122214E+00 -0.26963531375E-01 -0.39516859493E-02  0.10983682916E+00  0.51100000000E-03 0.  1.
         11    1    4    4    0    0  0.10413029368E-01  0.30495620383E-02  0.19607121229E-02  0.11037958247E-01  0.51100000000E-03 0. -1.
</event>
<event>
 8    1  0.1123470E+005  0.1043930E+01  0.7957747E-01            NaN
         13   -1    0    0    0    0  0.00000000000E+00  0.00000000000E+00  0.74505805969E-08  0.10566000000E+00  0.10566000000E+00 0.  1.
     999900   -1    0    0    0    0 -0.00000000000E+00 -0.00000000000E+00 -0.74505805969E-08  0.93827000000E+00  0.93827000000E+00 0. -1.
     999902    2    1    2    0    0 -0.24371242396E-01 -0.43798794390E-02 -0.57824174524E-02  0.10185021186E+01  0.10181846534E+01 0.  0.
     999903    2    3    3    0    0 -0.66529205365E-01 -0.62814108425E-01 -0.92299320177E-01  0.13132850122E+00  0.18874939561E-01 0.  0.
         14    1    1    2    0    0  0.24371242396E-01  0.43798794390E-02  0.57824174524E-02  0.25427881379E-01  0.00000000000E+00 0. -1.
     999901    1    3    3    0    0  0.42157962969E-01  0.58434228986E-01  0.86516902724E-01  0.88717361740E+00  0.88000000000E+00 0.  1.
        -11    1    4    4    0    0 -0.20721471051E-01 -0.98890152173E-02 -0.17406548739E-01  0.28817026989E-01  0.51100000000E-03 0. -1.
         11    1    4    4    0    0 -0.45807734314E-01 -0.52925093208E-01 -0.74892771438E-01  0.10251147423E+00  0.51100000000E-03 0.  1.
</event>
<event>
 8    1  0.1123470E+005  0.1043930E+01  0.7957747E-01            NaN
         13   -1    0    0    0    0  0.00000000000E+00  0.00000000000E+00  0.74505805969E-08  0.10566000000E+00  0.10566000000E+00 0.  1.
     999900   -1    0    0    0    0 -0.00000000000E+00 -0.00000000000E+00 -0.74505805969E-08  0.93827000000E+00  0.93827000000E+00 0. -1.
     999902    2    1    2    0    0 -0.21390217079E-01 -0.85674243819E-02  0.54657369511E-02  0.10202484370E+01  0.10199735569E+01 0.  0.
     999903    2    3    3    0    0 -0.63648534157E-01  0.84498597358E-01 -0.74095984718E-01  0.13076706149E+00  0.20461196543E-01 0.  0.
         14    1    1    2    0    0  0.21390217079E-01  0.85674243819E-02 -0.54657369511E-02  0.23681563032E-01  0.00000000000E+00 0. -1.
     999901    1    3    3    0    0  0.42258317078E-01 -0.93066021740E-01  0.79561721669E-01  0.88948137548E+00  0.88000000000E+00 0. -1.
        -11    1    4    4    0    0 -0.28712496848E-01  0.22152756193E-01 -0.24047908937E-01  0.43516837287E-01  0.51100000000E-03 0.  1.
         11    1    4    4    0    0 -0.34936037309E-01  0.62345841165E-01 -0.50048075781E-01  0.87250224205E-01  0.51100000000E-03 0. -1.
</event>
<event>
 8    1  0.1123470E+005  0.1043930E+01  0.7957747E-01            NaN
         13   -1    0    0    0    0  0.00000000000E+00  0.00000000000E+00  0.74505805969E-08  0.10566000000E+00  0.10566000000E+00 0. -1.
     999900   -1    0    0    0    0 -0.00000000000E+00 -0.00000000000E+00 -0.74505805969E-08  0.93827000000E+00  0.93827000000E+00 0. -1.
     999902    2    1    2    0    0 -0.23145527177E-01  0.77781767293E-03 -0.64884470636E-02  0.10198796284E+01  0.10195960161E+01 0.  0.
     999903    2    3    3    0    0  0.76694557565E-01 -0.92027081427E-02 -0.10171019474E+00  0.12907390623E+00  0.18664526748E-01 0.  0.
         14    1    1    2    0    0  0.23145527177E-01 -0.77781767293E-03  0.64884470636E-02  0.24050371597E-01  0.00000000000E+00 0.  1.
     999901    1    3    3    0    0 -0.99840084742E-01  0.99805258157E-02  0.95221747680E-01  0.89080572217E+00  0.88000000000E+00 0.  1.
        -11    1    4    4    0    0  0.25210083513E-01  0.55797188766E-02 -0.30485687329E-01  0.39953971347E-01  0.51100000000E-03 0.  1.
         11    1    4    4    0    0  0.51484474052E-01 -0.14782427019E-01 -0.71224507414E-01  0.89119934888E-01  0.51100000000E-03 0. -1.
</event>
<event>
 8    1  0.1123470E+005  0.1043930E+01  0.7957747E-01            NaN
         13   -1    0    0    0    0  0.00000000000E+00  0.00000000000E+00  0.74505805969E-08  0.10566000000E+00  0.10566000000E+00 0. -1.
     999900   -1    0    0    0    0 -0.00000000000E+00 -0.00000000000E+00 -0.74505805969E-08  0.93827000000E+00  0.93827000000E+00 0. -1.
     999902    2    1    2    0    0 -0.15798885342E-01 -0.23608002458E-01  0.10471065121E-01  0.10136548326E+01  0.10132026124E+01 0.  0.
     999903    2    3    3    0    0  0.62218001503E-01  0.42440010206E-01  0.96044226263E-01  0.12361452982E+00  0.19591437093E-01 0.  0.
         14    1    1    2    0    0  0.15798885342E-01  0.23608002458E-01 -0.10471065121E-01  0.30275167429E-01  0.00000000000E+00 0.  1.
     999901    1    3    3    0    0 -0.78016886845E-01 -0.66048012663E-01 -0.85573161141E-01  0.89004030275E+00  0.88000000000E+00 0. -1.
        -11    1    4    4    0    0  0.30635114879E-01  0.14389647081E-01  0.30086043730E-01  0.45288004539E-01  0.51100000000E-03 0. -1.
         11    1    4    4    0    0  0.31582886624E-01  0.28050363124E-01  0.65958182532E-01  0.78326525283E-01  0.51100000000E-03 0.  1.
</event>
<event>
 8    1  0.1123470E+005  0.1043930E+01  0.7957747E-01            NaN
         13   -1    0    0    0    0  0.00000000000E+00  0.00000000000E+00  0.74505805969E-08  0.10566000000E+00  0.10566000000E+00 0.  1.
     999900   -1    0    0    0    0 -0.00000000000E+00 -0.00000000000E+00 -0.74505805969E-08  0.93827000000E+00  0.93827000000E+00 0. -1.
     999902    2    1    2    0    0  0.11526686438E-01  0.21846510693E-02 -0.19340357624E-01  0.10213095085E+01  0.10210589726E+01 0.  0.
     999903    2    3    3    0    0 -0.11930994630E+00 -0.34527948612E-01 -0.35512511303E-01  0.13073240464E+00  0.20069395726E-01 0.  0.
         14    1    1    2    0    0 -0.11526686438E-01 -0.21846510693E-02  0.19340357624E-01  0.22620491453E-01  0.00000000000E+00 0.  1.
     999901    1    3    3    0    0  0.13083663273E+00  0.36712599682E-01  0.16172153679E-01  0.89057710390E+00  0.88000000000E+00 0.  1.
        -11    1    4    4    0    0 -0.10422395080E+00 -0.35109025859E-01 -0.26446297383E-01  0.11311473548E+00  0.51100000000E-03 0.  1.
         11    1    4    4    0    0 -0.15085995494E-01  0.58107724669E-03 -0.90662139195E-02  0.17617669160E-01  0.51100000000E-03 0. -1.
</event>
<event>
 8    1  0.1123470E+005  0.1043930E+01  0.7957747E-01            NaN
         13   -1    0    0    0    0  0.00000000000E+00  0.00000000000E+00  0.74505805969E-08  0.10566000000E+00  0.10566000000E+00 0. -1.
     999900   -1    0    0    0    0 -0.00000000000E+00 -0.00000000000E+00 -0.74505805969E-08  0.93827000000E+00  0.93827000000E+00 0. -1.
     999902    2    1    2    0    0  0.19471350119E-02  0.18095418206E-01 -0.14013368619E-01  0.10209602374E+01  0.10207018156E+01 0.  0.
     999903    2    3    3    0    0  0.61630214859E-02 -0.12681845408E+00 -0.10517029495E-01  0.12909139698E+00  0.20810519850E-01 0.  0.
         14    1    1    2    0    0 -0.19471350119E-02 -0.18095418206E-01  0.14013368619E-01  0.22969762621E-01  0.00000000000E+00 0.  1.
     999901    1    3    3    0    0 -0.42158864740E-02  0.14491387229E+00 -0.34963391234E-02  0.89186884039E+00  0.88000000000E+00 0. -1.
        -11    1    4    4    0    0  0.10357878298E-02 -0.91779719194E-01 -0.16251402212E-01  0.93214585267E-01  0.51100000000E-03 0. -1.
         11    1    4    4    0    0  0.51272336561E-02 -0.35038734888E-01  0.57343727167E-02  0.35876811717E-01  0.51100000000E-03 0.  1.
</event>
<event>
 8    1  0.1123470E+005  0.1043930E+01  0.7957747E-01            NaN
         13   -1    0    0    0    0  0.00000000000E+00  0.00000000000E+00  0.74505805969E-08  0.10566000000E+00  0.10566000000E+00 0. -1.
     999900   -1    0    0    0    0 -0.00000000000E+00 -0.00000000000E+00 -0.74505805969E-08  0.93827000000E+00  0.93827000000E+00 0. -1.
     999902    2    1    2    0    0  0.21954256831E-01  0.14251590479E-01  0.29038863317E-03  0.10177540272E+01  0.10174173570E+01 0.  0.
     999903    2    3    3    0    0 -0.11826987145E+00 -0.29081190842E-01 -0.21863942424E-01  0.12532400171E+00  0.19864422310E-01 0.  0.
         14    1    1    2    0    0 -0.21954256831E-01 -0.14251590479E-01 -0.29038863317E-03  0.26175972756E-01  0.00000000000E+00 0. -1.
     999901    1    3    3    0    0  0.14022412828E+00  0.43332781320E-01  0.22154331058E-01  0.89243002553E+00  0.88000000000E+00 0.  1.
        -11    1    4    4    0    0 -0.46114000076E-01 -0.15340435974E-02 -0.93383226146E-02  0.47077804569E-01  0.51100000000E-03 0. -1.
         11    1    4    4    0    0 -0.72155871370E-01 -0.27547147244E-01 -0.12525619810E-01  0.78246197142E-01  0.51100000000E-03 0.  1.
</event>
<event>
 8    1  0.1123470E+005  0.1043930E+01  0.7957747E-01            NaN
         13   -1    0    0    0    0  0.00000000000E+00  0.00000000000E+00  0.74505805969E-08  0.10566000000E+00  0.10566000000E+00 0. -1.
     999900   -1    0    0    0    0 -0.00000000000E+00 -0.00000000000E+00 -0.74505805969E-08  0.93827000000E+00  0.93827000000E+00 0. -1.
     999902    2    1    2    0    0  0.20260860280E-01 -0.11679966752E-01  0.15890235259E-02  0.10204896698E+01  0.10202204258E+01 0.  0.
     999903    2    3    3    0    0 -0.70723329807E-02  0.12263282941E+00  0.32869702235E-01  0.12933002559E+00  0.23601047635E-01 0.  0.
         14    1    1    2    0    0 -0.20260860280E-01  0.11679966752E-01 -0.15890235259E-02  0.23440330168E-01  0.00000000000E+00 0. -1.
     999901    1    3    3    0    0  0.27333193261E-01 -0.13431279617E+00 -0.31280678710E-01  0.89115964424E+00  0.88000000000E+00 0. -1.
        -11    1    4    4    0    0  0.11159368037E-02  0.10514494539E+00  0.23000711338E-01  0.10763827711E+00  0.51100000000E-03 0.  1.
         11    1    4    4    0    0 -0.81882697843E-02  0.17487884024E-01  0.98689908973E-02  0.21691748478E-01  0.51100000000E-03 0. -1.
</event>
<event>
 8    1  0.1123470E+005  0.1043930E+01  0.7957747E-01            NaN
         13   -1    0    0    0    0  0.00000000000E+00  0.00000000000E+00  0.74505805969E-08  0.10566000000E+00  0.10566000000E+00 0.  1.
     999900   -1    0    0    0    0 -0.00000000000E+00 -0.00000000000E+00 -0.74505805969E-08  0.93827000000E+00  0.93827000000E+00 0.  1.
     999902    2    1    2    0    0 -0.18170656070E-01 -0.12487279689E-01  0.12840541530E-01  0.10184156040E+01  0.10180959474E+01 0.  0.
     999903    2    3    3    0    0  0.96684494841E-01 -0.75436712280E-01  0.32564971649E-01  0.12850359156E+00  0.20349608431E-01 0.  0.
         14    1    1    2    0    0  0.18170656070E-01  0.12487279689E-01 -0.12840541530E-01  0.25514395992E-01  0.00000000000E+00 0. -1.
     999901    1    3    3    0    0 -0.11485515091E+00  0.62949432591E-01 -0.19724430119E-01  0.88991201245E+00  0.88000000000E+00 0. -1.
        -11    1    4    4    0    0  0.30753240329E-01 -0.14851990678E-01  0.14762773568E-01  0.37209461462E-01  0.51100000000E-03 0. -1.
         11    1    4    4    0    0  0.65931254512E-01 -0.60584721602E-01  0.17802198082E-01  0.91294130099E-01  0.51100000000E-03 0.  1.
</event>
<event>
 8    1  0.1123470E+005  0.1043930E+01  0.7957747E-01            NaN
         13   -1    0    0    0    0  0.00000000000E+00  0.00000000000E+00  0.74505805969E-08  0.10566000000E+00  0.10566000000E+00 0. -1.
     999900   -1    0    0    0    0 -0.00000000000E+00 -0.00000000000E+00 -0.74505805969E-08  0.93827000000E+00  0.93827000000E+00 0. -1.
     999902    2    1    2    0    0 -0.23598937867E-01  0.12985852931E-02 -0.14513824713E-01  0.10161946922E+01  0.10158161276E+01 0.  0.
     999903    2    3    3    0    0  0.75155255677E-01 -0.93550624469E-01 -0.30206818885E-01  0.12546744245E+00  0.20726683630E-01 0.  0.
         14    1    1    2    0    0  0.23598937867E-01 -0.12985852931E-02  0.14513824713E-01  0.27735307822E-01  0.00000000000E+00 0. -1.
     999901    1    3    3    0    0 -0.98754193544E-01  0.94849209762E-01  0.15692994172E-01  0.89072724972E+00  0.88000000000E+00 0. -1.
        -11    1    4    4    0    0  0.48288665435E-01 -0.43861887145E-01 -0.17984296317E-01  0.67670941980E-01  0.51100000000E-03 0. -1.
         11    1    4    4    0    0  0.26866590242E-01 -0.49688737324E-01 -0.12222522568E-01  0.57796500474E-01  0.51100000000E-03 0.  1.
</event>
<event>
 8    1  0.1123470E+005  0.1043930E+01  0.7957747E-01            NaN
         13   -1    0    0    0    0  0.00000000000E+00  0.00000000000E+00  0.74505805969E-08  0.10566000000E+00  0.10566000000E+00 0.  1.
     999900   -1    0    0    0    0 -0.00000000000E+00 -0.00000000000E+00 -0.74505805969E-08  0.93827000000E+00  0.93827000000E+00 0.  1.
     999902    2    1    2    0    0 -0.14224616810E-01 -0.98550845194E-02 -0.80410711822E-02  0.10248480389E+01  0.10246703770E+01 0.  0.
     999903    2    3    3    0    0  0.82778368545E-01 -0.85809531777E-01  0.57493042114E-01  0.13385231654E+00  0.19886143652E-01 0.  0.
         14    1    1    2    0    0  0.14224616810E-01  0.98550845194E-02  0.80410711822E-02  0.19081961116E-01  0.00000000000E+00 0.  1.
     999901    1    3    3    0    0 -0.97002985355E-01  0.75954447258E-01 -0.65534113297E-01  0.89099572234E+00  0.88000000000E+00 0.  1.
        -11    1    4    4    0    0  0.67808939679E-01 -0.57830184297E-01  0.41369870737E-01  0.98255329840E-01  0.51100000000E-03 0.  1.
         11    1    4    4    0    0  0.14969428866E-01 -0.27979347480E-01  0.16123171377E-01  0.35596986702E-01  0.51100000000E-03 0. -1.
</event>
<event>
 8    1  0.1123470E+005  0.1043930E+01  0.7957747E-01            NaN
         13   -1    0    0    0    0  0.00000000000E+00  0.00000000000E+00  0.74505805969E-08  0.10566000000E+00  0.10566000000E+00 0.  1.
     999900   -1    0    0    0    0 -0.00000000000E+00 -0.00000000000E+00 -0.74505805969E-08  0.93827000000E+00  0.93827000000E+00 0. -1.
     999902    2    1    2    0    0  0.12866057330E-01 -0.16188735756E-01  0.11899821183E-01  0.10200717448E+01  0.10197926986E+01 0.  0.
     999903    2    3    3    0    0  0.10870186395E+00  0.61804163904E-01  0.34047045307E-01  0.13116348533E+00  0.20219017971E-01 0.  0.
         14    1    1    2    0    0 -0.12866057330E-01  0.16188735756E-01 -0.11899821183E-01  0.23858255192E-01  0.00000000000E+00 0.  1.
     999901    1    3    3    0    0 -0.95835806622E-01 -0.77992899661E-01 -0.22147224124E-01  0.88890825948E+00  0.88000000000E+00 0.  1.
        -11    1    4    4    0    0  0.63269154161E-01  0.31420188074E-01  0.28675423302E-01  0.76241426466E-01  0.51100000000E-03 0. -1.
         11    1    4    4    0    0  0.45432709791E-01  0.30383975830E-01  0.53716220044E-02  0.54922058867E-01  0.51100000000E-03 0.  1.
</event>
<event>
 8    1  0.1123470E+005  0.1043930E+01  0.7957747E-01            NaN
         13   -1    0    0    0    0  0.00000000000E+00  0.00000000000E+00  0.74505805969E-08  0.10566000000E+00  0.10566000000E+00 0.  1.
     999900   -1    0    0    0    0 -0.00000000000E+00 -0.00000000000E+00 -0.74505805969E-08  0.93827000000E+00  0.93827000000E+00 0.  1.
     999902    2    1    2    0    0 -0.20363672662E-02  0.19490361882E-01  0.11798869605E-01  0.10210556842E+01  0.10207994298E+01 0.  0.
     999903    2    3    3    0    0 -0.33243535455E-01 -0.86741082703E-01 -0.86793118083E-01  0.12865477253E+00  0.19744798572E-01 0.  0.
         14    1    1    2    0    0  0.20363672662E-02 -0.19490361882E-01 -0.11798869605E-01  0.22874315769E-01  0.00000000000E+00 0. -1.
     999901    1    3    3    0    0  0.31207168189E-01  0.10623144458E+00  0.98591987689E-01  0.89240091170E+00  0.88000000000E+00 0. -1.
        -11    1    4    4    0    0 -0.31255446155E-01 -0.62262965443E-01 -0.56819566281E-01  0.89901635211E-01  0.51100000000E-03 0.  1.
         11    1    4    4    0    0 -0.19880893002E-02 -0.24478117260E-01 -0.29973551802E-01  0.38753137322E-01  0.51100000000E-03 0. -1.
</event>
<event>
 8    1  0.1123470E+005  0.1043930E+01  0.7957747E-01            NaN
         13   -1    0    0    0    0  0.00000000000E+00  0.00000000000E+00  0.74505805969E-08  0.10566000000E+00  0.10566000000E+00 0.  1.
     999900   -1    0    0    0    0 -0.00000000000E+00 -0.00000000000E+00 -0.74505805969E-08  0.93827000000E+00  0.93827000000E+00 0.  1.
     999902    2    1    2    0    0 -0.15114267303E-01 -0.19635718765E-01  0.56297295188E-03  0.10191445312E+01  0.10188430968E+01 0.  0.
     999903    2    3    3    0    0  0.35887510428E-01  0.78519362554E-01  0.91778957938E-01  0.12754150444E+00  0.19754861030E-01 0.  0.
         14    1    1    2    0    0  0.15114267303E-01  0.19635718765E-01 -0.56297295188E-03  0.24785468849E-01  0.00000000000E+00 0.  1.
     999901    1    3    3    0    0 -0.51001777732E-01 -0.98155081319E-01 -0.91215984986E-01  0.89160302671E+00  0.88000000000E+00 0.  1.
        -11    1    4    4    0    0  0.29115302347E-01  0.69972855657E-01  0.87642079116E-01  0.11586758180E+00  0.51100000000E-03 0.  1.
         11    1    4    4    0    0  0.67722080813E-02  0.85465068969E-02  0.41368788227E-02  0.11673922641E-01  0.51100000000E-03 0. -1.
</event>
<event>
 8    1  0.1123470E+005  0.1043930E+01  0.7957747E-01            NaN
         13   -1    0    0    0    0  0.00000000000E+00  0.00000000000E+00  0.74505805969E-08  0.10566000000E+00  0.10566000000E+00 0.  1.
     999900   -1    0    0    0    0 -0.00000000000E+00 -0.00000000000E+00 -0.74505805969E-08  0.93827000000E+00  0.93827000000E+00 0.  1.
     999902    2    1    2    0    0  0.14235904265E-01  0.17921715735E-01  0.68950276035E-02  0.10200262289E+01  0.10197461044E+01 0.  0.
     999903    2    3    3    0    0 -0.37266894781E-01  0.10603050702E+00  0.61891766236E-01  0.13242252307E+00  0.32769559420E-01 0.  0.
         14    1    1    2    0    0 -0.14235904265E-01 -0.17921715735E-01 -0.68950276035E-02  0.23903771058E-01  0.00000000000E+00 0.  1.
     999901    1    3    3    0    0  0.51502799046E-01 -0.88108791282E-01 -0.54996738632E-01  0.88760370587E+00  0.88000000000E+00 0.  1.
        -11    1    4    4    0    0  0.53107883249E-02  0.24179282549E-01  0.14582839096E-01  0.28736083490E-01  0.51100000000E-03 0. -1.
         11    1    4    4    0    0 -0.42577683106E-01  0.81851224468E-01  0.47308927140E-01  0.10368643958E+00  0.51100000000E-03 0.  1.
</event>
<event>
 8    1  0.1123470E+005  0.1043930E+01  0.7957747E-01            NaN
         13   -1    0    0    0    0  0.00000000000E+00  0.00000000000E+00  0.74505805969E-08  0.10566000000E+00  0.10566000000E+00 0. -1.
     999900   -1    0    0    0    0 -0.00000000000E+00 -0.00000000000E+00 -0.74505805969E-08  0.93827000000E+00  0.93827000000E+00 0.  1.
     999902    2    1    2    0    0  0.22229062592E-01  0.65320125525E-02  0.62038113599E-02  0.10199448861E+01  0.10196628291E+01 0.  0.
     999903    2    3    3    0    0  0.12367732867E+00  0.67790947449E-02  0.44095463391E-01  0.13330652184E+00  0.22004116028E-01 0.  0.
         14    1    1    2    0    0 -0.22229062592E-01 -0.65320125525E-02 -0.62038113599E-02  0.23985113865E-01  0.00000000000E+00 0.  1.
     999901    1    3    3    0    0 -0.10144826608E+00 -0.24708219241E-03 -0.37891652031E-01  0.88663836429E+00  0.88000000000E+00 0.  1.
        -11    1    4    4    0    0  0.81676797772E-01 -0.26420988287E-02  0.20654871469E-01  0.84290953351E-01  0.51100000000E-03 0.  1.
         11    1    4    4    0    0  0.42000530897E-01  0.94211935736E-02  0.23440591922E-01  0.49015568493E-01  0.51100000000E-03 0. -1.
</event>
<event>
 8    1  0.1123470E+005  0.1043930E+01  0.7957747E-01            NaN
         13   -1    0    0    0    0  0.00000000000E+00  0.00000000000E+00  0.74505805969E-08  0.10566000000E+00  0.10566000000E+00 0.  1.
     999900   -1    0    0    0    0 -0.00000000000E+00 -0.00000000000E+00 -0.74505805969E-08  0.93827000000E+00  0.93827000000E+00 0.  1.
     999902    2    1    2    0    0 -0.15915871673E-01 -0.10261738535E-01 -0.14243668099E-01  0.10202340018E+01  0.10199587826E+01 0.  0.
     999903    2    3    3    0    0  0.46857638659E-01 -0.19295575415E-01 -0.12011930554E+00  0.13162172731E+00  0.18101768035E-01 0.  0.
         14    1    1    2    0    0  0.15915871673E-01  0.10261738535E-01  0.14243668099E-01  0.23695998181E-01  0.00000000000E+00 0.  1.
     999901    1    3    3    0    0 -0.62773510332E-01  0.90338368795E-02  0.10587563744E+00  0.88861227451E+00  0.88000000000E+00 0. -1.
        -11    1    4    4    0    0  0.73399479202E-02  0.21919298233E-03 -0.35020151390E-01  0.35785402127E-01  0.51100000000E-03 0. -1.
         11    1    4    4    0    0  0.39517690738E-01 -0.19514768397E-01 -0.85099154146E-01  0.95836325182E-01  0.51100000000E-03 0.  1.
</event>
<event>
 8    1  0.1123470E+005  0.1043930E+01  0.7957747E-01            NaN
         13   -1    0    0    0    0  0.00000000000E+00  0.00000000000E+00  0.74505805969E-08  0.10566000000E+00  0.10566000000E+00 0.  1.
     999900   -1    0    0    0    0 -0.00000000000E+00 -0.00000000000E+00 -0.74505805969E-08  0.93827000000E+00  0.93827000000E+00 0. -1.
     999902    2    1    2    0    0 -0.11026045260E-01 -0.83424643163E-02 -0.20313296403E-01  0.10193576498E+01  0.10190614396E+01 0.  0.
     999903    2    3    3    0    0 -0.17531505972E-01  0.23274130108E-02 -0.12971501690E+00  0.13249525698E+00  0.20401886159E-01 0.  0.
         14    1    1    2    0    0  0.11026045260E-01  0.83424643163E-02  0.20313296403E-01  0.24572350228E-01  0.00000000000E+00 0.  1.
     999901    1    3    3    0    0  0.65054607118E-02 -0.10669877327E-01  0.10940172050E+00  0.88686239279E+00  0.88000000000E+00 0.  1.
        -11    1    4    4    0    0 -0.11565875063E-01 -0.80903865245E-02 -0.53220068442E-01  0.55062334005E-01  0.51100000000E-03 0.  1.
         11    1    4    4    0    0 -0.59656309090E-02  0.10417799535E-01 -0.76494948461E-01  0.77432922975E-01  0.51100000000E-03 0. -1.
</event>
<event>
 8    1  0.1123470E+005  0.1043930E+01  0.7957747E-01            NaN
         13   -1    0    0    0    0  0.00000000000E+00  0.00000000000E+00  0.74505805969E-08  0.10566000000E+00  0.10566000000E+00 0. -1.
     999900   -1    0    0    0    0 -0.00000000000E+00 -0.00000000000E+00 -0.74505805969E-08  0.93827000000E+00  0.93827000000E+00 0.  1.
     999902    2    1    2    0    0  0.13097698763E-01 -0.83500316775E-02 -0.20473274746E-01  0.10182312117E+01  0.10179068586E+01 0.  0.
     999903    2    3    3    0    0  0.24716670248E-01 -0.77564456843E-01  0.96470234941E-01  0.12772493905E+00  0.19493462295E-01 0.  0.
         14    1    1    2    0    0 -0.13097698763E-01  0.83500316775E-02  0.20473274746E-01  0.25698788312E-01  0.00000000000E+00 0. -1.
     999901    1    3    3    0    0 -0.11618971485E-01  0.69214425165E-01 -0.11694350969E+00  0.89050627264E+00  0.88000000000E+00 0.  1.
        -11    1    4    4    0    0  0.25521599297E-01 -0.68545753520E-01  0.76765304413E-01  0.10603322799E+00  0.51100000000E-03 0. -1.
         11    1    4    4    0    0 -0.80492904939E-03 -0.90187033231E-02  0.19704930528E-01  0.21691711055E-01  0.51100000000E-03 0.  1.
</event>
<event>
 8    1  0.1123470E+005  0.1043930E+01  0.7957747E-01            NaN
         13   -1    0    0    0    0  0.00000000000E+00  0.00000000000E+00  0.74505805969E-08  0.10566000000E+00  0.10566000000E+00 0. -1.
     999900   -1    0    0    0    0 -0.00000000000E+00 -0.00000000000E+00 -0.74505805969E-08  0.93827000000E+00  0.93827000000E+00 0.  1.
     999902    2    1    2    0    0  0.12233143159E-01  0.17497517021E-01  0.11579788210E-01  0.10196420526E+01  0.10193527412E+01 0.  0.
     999903    2    3    3    0    0 -0.12200040454E+00  0.33645653325E-01  0.18084900219E-01  0.12929283791E+00  0.19324741242E-01 0.  0.
         14    1    1    2    0    0 -0.12233143159E-01 -0.17497517021E-01 -0.11579788210E-01  0.24287947391E-01  0.00000000000E+00 0.  1.
     999901    1    3    3    0    0  0.13423354770E+00 -0.16148136304E-01 -0.65051120088E-02  0.89034921470E+00  0.88000000000E+00 0.  1.
        -11    1    4    4    0    0 -0.34254060499E-01  0.11325052839E-01  0.13861146044E-01  0.38652166474E-01  0.51100000000E-03 0.  1.
         11    1    4    4    0    0 -0.87746344038E-01  0.22320600486E-01  0.42237541753E-02  0.90640671436E-01  0.51100000000E-03 0. -1.
</event>
<event>
 8    1  0.1123470E+005  0.1043930E+01  0.7957747E-01            NaN
         13   -1    0    0    0    0  0.00000000000E+00  0.00000000000E+00  0.74505805969E-08  0.10566000000E+00  0.10566000000E+00 0.  1.
     999900   -1    0    0    0    0 -0.00000000000E+00 -0.00000000000E+00 -0.74505805969E-08  0.93827000000E+00  0.93827000000E+00 0. -1.
     999902    2    1    2    0    0  0.12621919387E-01  0.13531277074E-01  0.15356098362E-01  0.10198838347E+01  0.10196003228E+01 0.  0.
     999903    2    3    3    0    0 -0.10487259824E-02  0.10746410874E+00 -0.71837405963E-01  0.13049473504E+00  0.17850167626E-01 0.  0.
         14    1    1    2    0    0 -0.12621919387E-01 -0.13531277074E-01 -0.15356098362E-01  0.24046165291E-01  0.00000000000E+00 0. -1.
     999901    1    3    3    0    0  0.13670645370E-01 -0.93932831669E-01  0.87193504325E-01  0.88938909967E+00  0.88000000000E+00 0.  1.
        -11    1    4    4    0    0 -0.76735196490E-02  0.59287444051E-01 -0.33215233028E-01  0.68391496197E-01  0.51100000000E-03 0.  1.
         11    1    4    4    0    0  0.66247936666E-02  0.48176664691E-01 -0.38622172935E-01  0.62103238845E-01  0.51100000000E-03 0. -1.
</event>
<event>
 8    1  0.1123470E+005  0.1043930E+01  0.7957747E-01            NaN
         13   -1    0    0    0    0  0.00000000000E+00  0.00000000000E+00  0.74505805969E-08  0.10566000000E+00  0.10566000000E+00 0. -1.
     999900   -1    0    0    0    0 -0.00000000000E+00 -0.00000000000E+00 -0.74505805969E-08  0.93827000000E+00  0.93827000000E+00 0. -1.
     999902    2    1    2    0    0 -0.11718426942E-03 -0.21803728692E-01 -0.86454959229E-02  0.10204744907E+01  0.10202048938E+01 0.  0.
     999903    2    3    3    0    0  0.16885921835E-01 -0.11922902249E+00 -0.54816287634E-01  0.13373183609E+00  0.19459815878E-01 0.  0.
         14    1    1    2    0    0  0.11718426942E-03  0.21803728692E-01  0.86454959229E-02  0.23455509306E-01  0.00000000000E+00 0. -1.
     999901    1    3    3    0    0 -0.17003106104E-01  0.97425293797E-01  0.46170791711E-01  0.88674265460E+00  0.88000000000E+00 0.  1.
        -11    1    4    4    0    0  0.86043656143E-02 -0.16597747249E-01 -0.11981713190E-01  0.22211323539E-01  0.51100000000E-03 0. -1.
         11    1    4    4    0    0  0.82815562207E-02 -0.10263127524E+00 -0.42834574444E-01  0.11152051255E+00  0.51100000000E-03 0.  1.
</event>
<event>
 8    1  0.1123470E+005  0.1043930E+01  0.7957747E-01            NaN
         13   -1    0    0    0    0  0.00000000000E+00  0.00000000000E+00  0.74505805969E-08  0.10566000000E+00  0.10566000000E+00 0. -1.
     999900   -1    0    0    0    0 -0.00000000000E+00 -0.00000000000E+00 -0.74505805969E-08  0.93827000000E+00  0.93827000000E+00 0.  1.
     999902    2    1    2    0    0  0.21345707547E-01  0.88542796934E-02 -0.82527954611E-02  0.10193913339E+01  0.10190959452E+01 0.  0.
     999903    2    3    3    0    0 -0.11789073770E+00 -0.43874801886E-01 -0.43771832373E-02  0.12687681634E+00  0.15979440426E-01 0.  0.
         14    1    1    2    0    0 -0.21345707547E-01 -0.88542796934E-02  0.82527954611E-02  0.24538666070E-01  0.00000000000E+00 0. -1.
     999901    1    3    3    0    0  0.13923644525E+00  0.52729081580E-01 -0.38756122238E-02  0.89251451758E+00  0.88000000000E+00 0. -1.
        -11    1    4    4    0    0 -0.71341656555E-01 -0.30356931319E-01 -0.95821637257E-02  0.78123327002E-01  0.51100000000E-03 0. -1.
         11    1    4    4    0    0 -0.46549081146E-01 -0.13517870567E-01  0.52049804884E-02  0.48753489343E-01  0.51100000000E-03 0.  1.
</event>
<event>
 8    1  0.1123470E+005  0.1043930E+01  0.7957747E-01            NaN
         13   -1    0    0    0    0  0.00000000000E+00  0.00000000000E+00  0.74505805969E-08  0.10566000000E+00  0.10566000000E+00 0.  1.
     999900   -1    0    0    0    0 -0.00000000000E+00 -0.00000000000E+00 -0.74505805969E-08  0.93827000000E+00  0.93827000000E+00 0.  1.
     999902    2    1    2    0    0 -0.22641290391E-01 -0.69208616701E-02  0.64788243401E-02  0.10193840936E+01  0.10190885284E+01 0.  0.
     999903    2    3    3    0    0  0.91743692951E-01 -0.34649980695E-02  0.87549144329E-01  0.12827901326E+00  0.19019494248E-01 0.  0.
         14    1    1    2    0    0  0.22641290391E-01  0.69208616701E-02 -0.64788243401E-02  0.24545906413E-01  0.00000000000E+00 0. -1.
     999901    1    3    3    0    0 -0.11438498334E+00 -0.34558636006E-02 -0.81070319989E-01  0.89110508033E+00  0.88000000000E+00 0.  1.
        -11    1    4    4    0    0  0.43496759138E-01 -0.43135533834E-02  0.54146119224E-01  0.69589066284E-01  0.51100000000E-03 0.  1.
         11    1    4    4    0    0  0.48246933812E-01  0.84855531390E-03  0.33403025106E-01  0.58689946972E-01  0.51100000000E-03 0. -1.
</event>
<event>
 8    1  0.1123470E+005  0.1043930E+01  0.7957747E-01            NaN
         13   -1    0    0    0    0  0.00000000000E+00  0.00000000000E+00  0.74505805969E-08  0.10566000000E+00  0.10566000000E+00 0. -1.
     999900   -1    0    0    0    0 -0.00000000000E+00 -0.00000000000E+00 -0.74505805969E-08  0.93827000000E+00  0.93827000000E+00 0. -1.
     999902    2    1    2    0    0  0.42517125994E-02 -0.79071759848E-02  0.19709612409E-01  0.10222719919E+01  0.10220425413E+01 0.  0.
     999903    2    3    3    0    0  0.86185749829E-01  0.79891959118E-01 -0.52005530319E-01  0.13122489089E+00  0.26545963914E-01 0.  0.
         14    1    1    2    0    0 -0.42517125994E-02  0.79071759848E-02 -0.19709612409E-01  0.21658008066E-01  0.00000000000E+00 0.  1.
     999901    1    3    3    0    0 -0.81934037230E-01 -0.87799135103E-01  0.71715142728E-01  0.89104710104E+00  0.88000000000E+00 0.  1.
        -11    1    4    4    0    0  0.21540636709E-01  0.31696874618E-01 -0.72656121314E-02  0.39009500522E-01  0.51100000000E-03 0. -1.
         11    1    4    4    0    0  0.64645113120E-01  0.48195084500E-01 -0.44739918188E-01  0.92215390368E-01  0.51100000000E-03 0.  1.
</event>
<event>
 8    1  0.1123470E+005  0.1043930E+01  0.7957747E-01            NaN
         13   -1    0    0    0    0  0.00000000000E+00  0.00000000000E+00  0.74505805969E-08  0.10566000000E+00  0.10566000000E+00 0. -1.
     999900   -1    0    0    0    0 -0.00000000000E+00 -0.00000000000E+00 -0.74505805969E-08  0.93827000000E+00  0.93827000000E+00 0.  1.
     999902    2    1    2    0    0  0.41047628838E-02  0.38132856642E-02 -0.23169372321E-01  0.10200928433E+01  0.10198142963E+01 0.  0.
     999903    2    3    3    0    0 -0.12522459303E-01 -0.42897256923E-01 -0.12363023248E+00  0.13299041193E+00  0.20125323482E-01 0.  0.
         14    1    1    2    0    0 -0.41047628838E-02 -0.38132856642E-02  0.23169372321E-01  0.23837156702E-01  0.00000000000E+00 0. -1.
     999901    1    3    3    0    0  0.16627222187E-01  0.46710542587E-01  0.10046086016E+00  0.88710243136E+00  0.88000000000E+00 0. -1.
        -11    1    4    4    0    0  0.22626070836E-02 -0.25659540658E-01 -0.55879382533E-01  0.61532901206E-01  0.51100000000E-03 0.  1.
         11    1    4    4    0    0 -0.14785066387E-01 -0.17237716265E-01 -0.67750849947E-01  0.71457510729E-01  0.51100000000E-03 0. -1.
</event>
<event>
 8    1  0.1123470E+005  0.1043930E+01  0.7957747E-01            NaN
         13   -1    0    0    0    0  0.00000000000E+00  0.00000000000E+00  0.74505805969E-08  0.10566000000E+00  0.10566000000E+00 0. -1.
     999900   -1    0    0    0    0 -0.00000000000E+00 -0.00000000000E+00 -0.74505805969E-08  0.93827000000E+00  0.93827000000E+00 0.  1.
     999902    2    1    2    0    0 -0.39388536691E-02 -0.87516616782E-02 -0.21612936148E-01  0.10202820580E+01  0.10200079670E+01 0.  0.
     999903    2    3    3    0    0  0.10627074341E+00  0.42842944362E-01  0.54860178999E-01  0.12862276436E+00  0.20129269354E-01 0.  0.
         14    1    1    2    0    0  0.39388536691E-02  0.87516616782E-02  0.21612936148E-01  0.23647941968E-01  0.00000000000E+00 0. -1.
     999901    1    3    3    0    0 -0.11020959708E+00 -0.51594606041E-01 -0.76473115147E-01  0.89165929368E+00  0.88000000000E+00 0.  1.
        -11    1    4    4    0    0  0.17985748150E-01  0.13014186893E-01  0.17296014337E-01  0.28147281040E-01  0.51100000000E-03 0. -1.
         11    1    4    4    0    0  0.88284995257E-01  0.29828757469E-01  0.37564164662E-01  0.10047548332E+00  0.51100000000E-03 0.  1.
</event>
<event>
 8    1  0.1123470E+005  0.1043930E+01  0.7957747E-01            NaN
         13   -1    0    0    0    0  0.00000000000E+00  0.00000000000E+00  0.74505805969E-08  0.10566000000E+00  0.10566000000E+00 0. -1.
     999900   -1    0    0    0    0 -0.00000000000E+00 -0.00000000000E+00 -0.74505805969E-08  0.93827000000E+00  0.93827000000E+00 0. -1.
     999902    2    1    2    0    0  0.15754751480E-01 -0.14494292662E-01 -0.12144793201E-01  0.10193171433E+01  0.10190199438E+01 0.  0.
     999903    2    3    3    0    0 -0.11941490101E-02  0.98335301745E-01  0.78243909800E-01  0.12735980112E+00  0.20667654920E-01 0.  0.
         14    1    1    2    0    0 -0.15754751480E-01  0.14494292662E-01  0.12144793201E-01  0.24612856719E-01  0.00000000000E+00 0. -1.
     999901    1    3    3    0    0  0.16948900490E-01 -0.11282959441E+00 -0.90388703001E-01  0.89195734216E+00  0.88000000000E+00 0. -1.
        -11    1    4    4    0    0  0.48531076724E-02  0.53227975169E-01  0.31144636527E-01  0.61862908920E-01  0.51100000000E-03 0. -1.
         11    1    4    4    0    0 -0.60472566826E-02  0.45107326575E-01  0.47099273274E-01  0.65496892201E-01  0.51100000000E-03 0.  1.
</event>
<event>
 8    1  0.1123470E+005  0.1043930E+01  0.7957747E-01            NaN
         13   -1    0    0    0    0  0.00000000000E+00  0.00000000000E+00  0.74505805969E-08  0.10566000000E+00  0.10566000000E+00 0.  1.
     999900   -1    0    0    0    0 -0.00000000000E+00 -0.00000000000E+00 -0.74505805969E-08  0.93827000000E+00  0.93827000000E+00 0.  1.
     999902    2    1    2    0    0  0.16974902154E-02  0.12414053351E-01 -0.11028012081E-01  0.10272384679E+01  0.10271028491E+01 0.  0.
     999903    2    3    3    0    0  0.12266866765E+00  0.55310617758E-01 -0.21101529755E-01  0.13787036819E+00  0.21356437165E-01 0.  0.
         14    1    1    2    0    0 -0.16974902154E-02 -0.12414053351E-01  0.11028012081E-01  0.16691532107E-01  0.00000000000E+00 0.  1.
     999901    1    3    3    0    0 -0.12097117743E+00 -0.42896564408E-01  0.10073517674E-01  0.88936809970E+00  0.88000000000E+00 0. -1.
        -11    1    4    4    0    0  0.49141915498E-01  0.16243582683E-01  0.83580619497E-03  0.51766219972E-01  0.51100000000E-03 0.  1.
         11    1    4    4    0    0  0.73526752149E-01  0.39067035075E-01 -0.21937335950E-01  0.86104148220E-01  0.51100000000E-03 0. -1.
</event>
<event>
 8    1  0.1123470E+005  0.1043930E+01  0.7957747E-01            NaN
         13   -1    0    0    0    0  0.00000000000E+00  0.00000000000E+00  0.74505805969E-08  0.10566000000E+00  0.10566000000E+00 0.  1.
     999900   -1    0    0    0    0 -0.00000000000E+00 -0.00000000000E+00 -0.74505805969E-08  0.93827000000E+00  0.93827000000E+00 0. -1.
     999902    2    1    2    0    0  0.15090698456E-01 -0.87664670646E-02  0.15497564620E-01  0.10205900207E+01  0.10203231036E+01 0.  0.
     999903    2    3    3    0    0  0.12950194715E-01 -0.98025561258E-01 -0.83090633250E-01  0.13059485194E+00  0.19345382302E-01 0.  0.
         14    1    1    2    0    0 -0.15090698456E-01  0.87664670646E-02 -0.15497564620E-01  0.23339979302E-01  0.00000000000E+00 0. -1.
     999901    1    3    3    0    0  0.21405037410E-02  0.89259094193E-01  0.98588197870E-01  0.88999516876E+00  0.88000000000E+00 0.  1.
        -11    1    4    4    0    0  0.68745712491E-03 -0.71696513137E-01 -0.58847019688E-01  0.92758263462E-01  0.51100000000E-03 0. -1.
         11    1    4    4    0    0  0.12262737590E-01 -0.26329048120E-01 -0.24243613562E-01  0.37836588478E-01  0.51100000000E-03 0.  1.
</event>
<event>
 8    1  0.1123470E+005  0.1043930E+01  0.7957747E-01            NaN
         13   -1    0    0    0    0  0.00000000000E+00  0.00000000000E+00  0.74505805969E-08  0.10566000000E+00  0.10566000000E+00 0.  1.
     999900   -1    0    0    0    0 -0.00000000000E+00 -0.00000000000E+00 -0.74505805969E-08  0.93827000000E+00  0.93827000000E+00 0. -1.
     999902    2    1    2    0    0 -0.16617195982E-01 -0.15333798468E-01  0.60591410981E-02  0.10205212459E+01  0.10202527351E+01 0.  0.
     999903    2    3    3    0    0 -0.45097404520E-01  0.47715897753E-01 -0.11074811362E+00  0.13011104760E+00  0.18792478425E-01 0.  0.
         14    1    1    2    0    0  0.16617195982E-01  0.15333798468E-01 -0.60591410981E-02  0.23408754102E-01  0.00000000000E+00 0.  1.
     999901    1    3    3    0    0  0.28480208537E-01 -0.63049696221E-01  0.11680725472E+00  0.89041019829E+00  0.88000000000E+00 0.  1.
        -11    1    4    4    0    0 -0.40553283547E-01  0.40342389677E-01 -0.81278941505E-01  0.99391169952E-01  0.51100000000E-03 0.  1.
         11    1    4    4    0    0 -0.45441209723E-02  0.73735080751E-02 -0.29469172115E-01  0.30719877651E-01  0.51100000000E-03 0. -1.
</event>
<event>
 8    1  0.1123470E+005  0.1043930E+01  0.7957747E-01            NaN
         13   -1    0    0    0    0  0.00000000000E+00  0.00000000000E+00  0.74505805969E-08  0.10566000000E+00  0.10566000000E+00 0. -1.
     999900   -1    0    0    0    0 -0.00000000000E+00 -0.00000000000E+00 -0.74505805969E-08  0.93827000000E+00  0.93827000000E+00 0. -1.
     999902    2    1    2    0    0 -0.89250829076E-02  0.20559542440E-01 -0.86848576790E-02  0.10198929735E+01  0.10196096796E+01 0.  0.
     999903    2    3    3    0    0  0.10748620454E+00 -0.51361504489E-01  0.42080127163E-01  0.12787206089E+00  0.19729129368E-01 0.  0.
         14    1    1    2    0    0  0.89250829076E-02 -0.20559542440E-01  0.86848576790E-02  0.24037026504E-01  0.00000000000E+00 0. -1.
     999901    1    3    3    0    0 -0.11641128744E+00  0.71921046929E-01 -0.50764984842E-01  0.89202091260E+00  0.88000000000E+00 0. -1.
        -11    1    4    4    0    0  0.78092628730E-01 -0.46358600577E-01  0.29287265025E-01  0.95423181267E-01  0.51100000000E-03 0. -1.
         11    1    4    4    0    0  0.29393575807E-01 -0.50029039122E-02  0.12792862138E-01  0.32448879625E-01  0.51100000000E-03 0.  1.
</event>
<event>
 8    1  0.1123470E+005  0.1043930E+01  0.7957747E-01            NaN
         13   -1    0    0    0    0  0.00000000000E+00  0.00000000000E+00  0.74505805969E-08  0.10566000000E+00  0.10566000000E+00 0.  1.
     999900   -1    0    0    0    0 -0.00000000000E+00 -0.00000000000E+00 -0.74505805969E-08  0.93827000000E+00  0.93827000000E+00 0.  1.
     999902    2    1    2    0    0 -0.15205423470E-01  0.13656463340E-01  0.11715815550E-01  0.10203723213E+01  0.10201003430E+01 0.  0.
     999903    2    3    3    0    0  0.12028681134E+00 -0.35298365307E-01  0.20299143322E-01  0.12861652819E+00  0.20378040395E-01 0.  0.
         14    1    1    2    0    0  0.15205423470E-01 -0.13656463340E-01 -0.11715815550E-01  0.23557678745E-01  0.00000000000E+00 0. -1.
     999901    1    3    3    0    0 -0.13549223481E+00  0.48954828647E-01 -0.85833277718E-02  0.89175579306E+00  0.88000000000E+00 0.  1.
        -11    1    4    4    0    0  0.69212298884E-01 -0.16615059360E-01  0.19141155446E-02  0.71206231986E-01  0.51100000000E-03 0.  1.
         11    1    4    4    0    0  0.51074512453E-01 -0.18683305947E-01  0.18385027777E-01  0.57410296208E-01  0.51100000000E-03 0. -1.
</event>
<event>
 8    1  0.1123470E+005  0.1043930E+01  0.7957747E-01            NaN
         13   -1    0    0    0    0  0.00000000000E+00  0.00000000000E+00  0.74505805969E-08  0.10566000000E+00  0.10566000000E+00 0. -1.
     999900   -1    0    0    0    0 -0.00000000000E+00 -0.00000000000E+00 -0.74505805969E-08  0.93827000000E+00  0.93827000000E+00 0. -1.
     999902    2    1    2    0    0  0.15842343444E-01  0.80729075231E-02 -0.15347672197E-01  0.10204416471E+01  0.10201712858E+01 0.  0.
     999903    2    3    3    0    0  0.53507762821E-02  0.12054936789E+00  0.46248299252E-01  0.13108508707E+00  0.21991224675E-01 0.  0.
         14    1    1    2    0    0 -0.15842343444E-01 -0.80729075231E-02  0.15347672197E-01  0.23488352934E-01  0.00000000000E+00 0.  1.
     999901    1    3    3    0    0  0.10491567162E-01 -0.11247646036E+00 -0.61595971449E-01  0.88935656000E+00  0.88000000000E+00 0. -1.
        -11    1    4    4    0    0  0.13755260432E-01  0.68374991749E-01  0.24287684709E-01  0.73854583039E-01  0.51100000000E-03 0.  1.
         11    1    4    4    0    0 -0.84044841496E-02  0.52174376137E-01  0.21960614543E-01  0.57230504027E-01  0.51100000000E-03 0. -1.
</event>
<event>
 8    1  0.1123470E+005  0.1043930E+01  0.7957747E-01            NaN
         13   -1    0    0    0    0  0.00000000000E+00  0.00000000000E+00  0.74505805969E-08  0.10566000000E+00  0.10566000000E+00 0.  1.
     999900   -1    0    0    0    0 -0.00000000000E+00 -0.00000000000E+00 -0.74505805969E-08  0.93827000000E+00  0.93827000000E+00 0. -1.
     999902    2    1    2    0    0  0.75251260501E-02 -0.20091185315E-01  0.24526577631E-01  0.10113441709E+01  0.10108190717E+01 0.  0.
     999903    2    3    3    0    0 -0.57477957244E-01  0.89639782496E-01  0.56396398822E-01  0.12157904926E+00  0.16183486795E-01 0.  0.
         14    1    1    2    0    0 -0.75251260501E-02  0.20091185315E-01 -0.24526577631E-01  0.32585829125E-01  0.00000000000E+00 0. -1.
     999901    1    3    3    0    0  0.65003083294E-01 -0.10973096781E+00 -0.31869821190E-01  0.88976512161E+00  0.88000000000E+00 0. -1.
        -11    1    4    4    0    0 -0.50887157579E-01  0.84091100099E-01  0.55562511391E-01  0.11290823582E+00  0.51100000000E-03 0.  1.
         11    1    4    4    0    0 -0.65907996651E-02  0.55486823971E-02  0.83388743095E-03  0.86708134461E-02  0.51100000000E-03 0. -1.
</event>
<event>
 8    1  0.1123470E+005  0.1043930E+01  0.7957747E-01            NaN
         13   -1    0    0    0    0  0.00000000000E+00  0.00000000000E+00  0.74505805969E-08  0.10566000000E+00  0.10566000000E+00 0. -1.
     999900   -1    0    0    0    0 -0.00000000000E+00 -0.00000000000E+00 -0.74505805969E-08  0.93827000000E+00  0.93827000000E+00 0.  1.
     999902    2    1    2    0    0  0.21768344945E-01 -0.26311864668E-02 -0.10594047804E-01  0.10195780425E+01  0.10192871857E+01 0.  0.
     999903    2    3    3    0    0 -0.68574190939E-01 -0.19933546494E-01 -0.10630668591E+00  0.12962183318E+00  0.20023541877E-01 0.  0.
         14    1    1    2    0    0 -0.21768344945E-01  0.26311864668E-02  0.10594047804E-01  0.24351957473E-01  0.00000000000E+00 0. -1.
     999901    1    3    3    0    0  0.90342535884E-01  0.17302360027E-01  0.95712638110E-01  0.88995620934E+00  0.88000000000E+00 0. -1.
        -11    1    4    4    0    0 -0.34485574385E-01 -0.17549815355E-01 -0.44309149373E-01  0.58828672421E-01  0.51100000000E-03 0. -1.
         11    1    4    4    0    0 -0.34088616554E-01 -0.23837311387E-02 -0.61997536541E-01  0.70793160764E-01  0.51100000000E-03 0.  1.
</event>
<event>
 8    1  0.1123470E+005  0.1043930E+01  0.7957747E-01            NaN
         13   -1    0    0    0    0  0.00000000000E+00  0.00000000000E+00  0.74505805969E-08  0.10566000000E+00  0.10566000000E+00 0. -1.
     999900   -1    0    0    0    0 -0.00000000000E+00 -0.00000000000E+00 -0.74505805969E-08  0.93827000000E+00  0.93827000000E+00 0.  1.
     999902    2    1    2    0    0 -0.12609298940E-01 -0.15311763717E-01  0.13633474350E-01  0.10198610127E+01  0.10195769559E+01 0.  0.
     999903    2    3    3    0    0 -0.88201920094E-01  0.79815107136E-01 -0.46621471971E-01  0.12947119665E+00  0.20957077034E-01 0.  0.
         14    1    1    2    0    0  0.12609298940E-01  0.15311763717E-01 -0.13633474350E-01  0.24068987322E-01  0.00000000000E+00 0.  1.
     999901    1    3    3    0    0  0.75592621154E-01 -0.95126870853E-01  0.60254946320E-01  0.89038981603E+00  0.88000000000E+00 0.  1.
        -11    1    4    4    0    0 -0.19177262059E-01  0.30195128742E-01 -0.13532131055E-01  0.38247782572E-01  0.51100000000E-03 0. -1.
         11    1    4    4    0    0 -0.69024658035E-01  0.49619978394E-01 -0.33089340916E-01  0.91223414077E-01  0.51100000000E-03 0.  1.
</event>
<event>
 8    1  0.1123470E+005  0.1043930E+01  0.7957747E-01            NaN
         13   -1    0    0    0    0  0.00000000000E+00  0.00000000000E+00  0.74505805969E-08  0.10566000000E+00  0.10566000000E+00 0. -1.
     999900   -1    0    0    0    0 -0.00000000000E+00 -0.00000000000E+00 -0.74505805969E-08  0.93827000000E+00  0.93827000000E+00 0.  1.
     999902    2    1    2    0    0 -0.46386642138E-02  0.12737952541E-01 -0.29181052242E-01  0.10117538217E+01  0.10112420528E+01 0.  0.
     999903    2    3    3    0    0  0.68898494047E-01  0.76292831948E-02 -0.10283796672E+00  0.12560532782E+00  0.19895791850E-01 0.  0.
         14    1    1    2    0    0  0.46386642138E-02 -0.12737952541E-01  0.29181052242E-01  0.32176178309E-01  0.00000000000E+00 0. -1.
     999901    1    3    3    0    0 -0.73537158261E-01  0.51086693461E-02  0.73656914474E-01  0.88614849388E+00  0.88000000000E+00 0. -1.
        -11    1    4    4    0    0  0.59962559194E-01  0.11298539893E-01 -0.78581324572E-01  0.99490960400E-01  0.51100000000E-03 0.  1.
         11    1    4    4    0    0  0.89359348528E-02 -0.36692566979E-02 -0.24256642144E-01  0.26114367416E-01  0.51100000000E-03 0. -1.
</event>
<event>
 8    1  0.1123470E+005  0.1043930E+01  0.7957747E-01            NaN
         13   -1    0    0    0    0  0.00000000000E+00  0.00000000000E+00  0.74505805969E-08  0.10566000000E+00  0.10566000000E+00 0.  1.
     999900   -1    0    0    0    0 -0.00000000000E+00 -0.00000000000E+00 -0.74505805969E-08  0.93827000000E+00  0.93827000000E+00 0.  1.
     999902    2    1    2    0    0 -0.93257844384E-02  0.15527136592E-01  0.19156270481E-01  0.10175666746E+01  0.10172251041E+01 0.  0.
     999903    2    3    3    0    0  0.42340105141E-01 -0.64674117011E-01  0.10109768398E+00  0.12862573144E+00  0.18665775287E-01 0.  0.
         14    1    1    2    0    0  0.93257844384E-02 -0.15527136592E-01 -0.19156270481E-01  0.26363325376E-01  0.00000000000E+00 0. -1.
     999901    1    3    3    0    0 -0.51665889579E-01  0.80201253603E-01 -0.81941413501E-01  0.88894094319E+00  0.88000000000E+00 0.  1.
        -11    1    4    4    0    0  0.10621893116E-01 -0.14643011239E-01  0.37927726838E-01  0.42023992857E-01  0.51100000000E-03 0. -1.
         11    1    4    4    0    0  0.31718212024E-01 -0.50031105772E-01  0.63169957143E-01  0.86601738581E-01  0.51100000000E-03 0.  1.
</event>
<event>
 8    1  0.1123470E+005  0.1043930E+01  0.7957747E-01            NaN
         13   -1    0    0    0    0  0.00000000000E+00  0.00000000000E+00  0.74505805969E-08  0.10566000000E+00  0.10566000000E+00 0.  1.
     999900   -1    0    0    0    0 -0.00000000000E+00 -0.00000000000E+00 -0.74505805969E-08  0.93827000000E+00  0.93827000000E+00 0.  1.
     999902    2    1    2    0    0 -0.48517422662E-02 -0.13204816346E-01 -0.19098404525E-01  0.10202096367E+01  0.10199338446E+01 0.  0.
     999903    2    3    3    0    0 -0.97449796000E-02  0.99398294345E-01 -0.82038488200E-01  0.13079136706E+00  0.20027046842E-01 0.  0.
         14    1    1    2    0    0  0.48517422662E-02  0.13204816346E-01  0.19098404525E-01  0.23720363259E-01  0.00000000000E+00 0.  1.
     999901    1    3    3    0    0  0.48932373339E-02 -0.11260311069E+00  0.62940083675E-01  0.88941826968E+00  0.88000000000E+00 0. -1.
        -11    1    4    4    0    0 -0.88260823645E-02  0.48025145363E-01 -0.28299833133E-01  0.56439844024E-01  0.51100000000E-03 0.  1.
         11    1    4    4    0    0 -0.91889723549E-03  0.51373148981E-01 -0.53738655067E-01  0.74351523036E-01  0.51100000000E-03 0. -1.
</event>
<event>
 8    1  0.1123470E+005  0.1043930E+01  0.7957747E-01            NaN
         13   -1    0    0    0    0  0.00000000000E+00  0.00000000000E+00  0.74505805969E-08  0.10566000000E+00  0.10566000000E+00 0. -1.
     999900   -1    0    0    0    0 -0.00000000000E+00 -0.00000000000E+00 -0.74505805969E-08  0.93827000000E+00  0.93827000000E+00 0.  1.
     999902    2    1    2    0    0 -0.61635397245E-02  0.21955937464E-01  0.51477379261E-02  0.10205515566E+01  0.10202837488E+01 0.  0.
     999903    2    3    3    0    0 -0.49280789881E-01 -0.14435760959E-01 -0.11797988400E+00  0.13018990855E+00  0.19828560521E-01 0.  0.
         14    1    1    2    0    0  0.61635397245E-02 -0.21955937464E-01 -0.51477379261E-02  0.23378443439E-01  0.00000000000E+00 0.  1.
     999901    1    3    3    0    0  0.43117250156E-01  0.36391698423E-01  0.12312762193E+00  0.89036164802E+00  0.88000000000E+00 0. -1.
        -11    1    4    4    0    0 -0.15001908564E-01 -0.11577358367E-01 -0.58303048476E-01  0.61307414477E-01  0.51100000000E-03 0. -1.
         11    1    4    4    0    0 -0.34278881316E-01 -0.28584025921E-02 -0.59676835526E-01  0.68882494068E-01  0.51100000000E-03 0.  1.
</event>
<event>
 8    1  0.1123470E+005  0.1043930E+01  0.7957747E-01            NaN
         13   -1    0    0    0    0  0.00000000000E+00  0.00000000000E+00  0.74505805969E-08  0.10566000000E+00  0.10566000000E+00 0.  1.
     999900   -1    0    0    0    0 -0.00000000000E+00 -0.00000000000E+00 -0.74505805969E-08  0.93827000000E+00  0.93827000000E+00 0. -1.
     999902    2    1    2    0    0  0.18419381866E-01 -0.80050380996E-02  0.93515674088E-02  0.10217758565E+01  0.10215356552E+01 0.  0.
     999903    2    3    3    0    0  0.83787104325E-01 -0.70155730681E-01 -0.73039896793E-01  0.13333677520E+00  0.22400082550E-01 0.  0.
         14    1    1    2    0    0 -0.18419381866E-01  0.80050380996E-02 -0.93515674088E-02  0.22154143547E-01  0.00000000000E+00 0.  1.
     999901    1    3    3    0    0 -0.65367722459E-01  0.62150692581E-01  0.82391464202E-01  0.88843908125E+00  0.88000000000E+00 0.  1.
        -11    1    4    4    0    0  0.64239121958E-01 -0.64865567208E-01 -0.59538923370E-01  0.10899243605E+00  0.51100000000E-03 0.  1.
         11    1    4    4    0    0  0.19547982367E-01 -0.52901634733E-02 -0.13500973423E-01  0.24344339148E-01  0.51100000000E-03 0. -1.
</event>
<event>
 8    1  0.1123470E+005  0.1043930E+01  0.7957747E-01            NaN
         13   -1    0    0    0    0  0.00000000000E+00  0.00000000000E+00  0.74505805969E-08  0.10566000000E+00  0.10566000000E+00 0.  1.
     999900   -1    0    0    0    0 -0.00000000000E+00 -0.00000000000E+00 -0.74505805969E-08  0.93827000000E+00  0.93827000000E+00 0.  1.
     999902    2    1    2    0    0 -0.38421985422E-02  0.19489280842E-01  0.13448435569E-01  0.10199413573E+01  0.10196592163E+01 0.  0.
     999903    2    3    3    0    0 -0.12607137050E-01 -0.12575078320E+00  0.13592315656E-02  0.12791128542E+00  0.19678669881E-01 0.  0.
         14    1    1    2    0    0  0.38421985422E-02 -0.19489280842E-01 -0.13448435569E-01  0.23988642659E-01  0.00000000000E+00 0.  1.
     999901    1    3    3    0    0  0.87649385082E-02  0.14524006404E+00  0.12089204003E-01  0.89203007192E+00  0.88000000000E+00 0.  1.
        -11    1    4    4    0    0 -0.31772006330E-02 -0.96211944471E-01  0.64626559351E-02  0.96482433145E-01  0.51100000000E-03 0.  1.
         11    1    4    4    0    0 -0.94299364173E-02 -0.29538838730E-01 -0.51034243695E-02  0.31428852280E-01  0.51100000000E-03 0. -1.
</event>
<event>
 8    1  0.1123470E+005  0.1043930E+01  0.7957747E-01            NaN
         13   -1    0    0    0    0  0.00000000000E+00  0.00000000000E+00  0.74505805969E-08  0.10566000000E+00  0.10566000000E+00 0.  1.
     999900   -1    0    0    0    0 -0.00000000000E+00 -0.00000000000E+00 -0.74505805969E-08  0.93827000000E+00  0.93827000000E+00 0.  1.
     999902    2    1    2    0    0 -0.18799665119E-01 -0.59572270821E-02 -0.10246078339E-01  0.10217061820E+01  0.10214644508E+01 0.  0.
     999903    2    3    3    0    0  0.10693286563E+00  0.44049651996E-01  0.54110108506E-01  0.12904102868E+00  0.18672805068E-01 0.  0.
         14    1    1    2    0    0  0.18799665119E-01  0.59572270821E-02  0.10246078339E-01  0.22223817953E-01  0.00000000000E+00 0.  1.
     999901    1    3    3    0    0 -0.12573253075E+00 -0.50006879078E-01 -0.64356186845E-01  0.89266515336E+00  0.88000000000E+00 0.  1.
        -11    1    4    4    0    0  0.75282587192E-01  0.39344158913E-01  0.35893843325E-01  0.92217459759E-01  0.51100000000E-03 0. -1.
         11    1    4    4    0    0  0.31650278436E-01  0.47054930827E-02  0.18216265181E-01  0.36823568925E-01  0.51100000000E-03 0.  1.
</event>
<event>
 8    1  0.1123470E+005  0.1043930E+01  0.7957747E-01            NaN
         13   -1    0    0    0    0  0.00000000000E+00  0.00000000000E+00  0.74505805969E-08  0.10566000000E+00  0.10566000000E+00 0.  1.
     999900   -1    0    0    0    0 -0.00000000000E+00 -0.00000000000E+00 -0.74505805969E-08  0.93827000000E+00  0.93827000000E+00 0. -1.
     999902    2    1    2    0    0 -0.21709722322E-01 -0.70062496400E-02  0.42834133179E-02  0.10207190714E+01  0.10204551315E+01 0.  0.
     999903    2    3    3    0    0 -0.30362261284E-01 -0.69175502090E-01 -0.10577944848E+00  0.13164443114E+00  0.20829006969E-01 0.  0.
         14    1    1    2    0    0  0.21709722322E-01  0.70062496400E-02 -0.42834133179E-02  0.23210928610E-01  0.00000000000E+00 0. -1.
     999901    1    3    3    0    0  0.86525389625E-02  0.62169252450E-01  0.11006286180E+00  0.88907464025E+00  0.88000000000E+00 0. -1.
        -11    1    4    4    0    0 -0.23307998739E-01 -0.34293189141E-01 -0.68716700654E-01  0.80259153350E-01  0.51100000000E-03 0.  1.
         11    1    4    4    0    0 -0.70542625448E-02 -0.34882312949E-01 -0.37062747824E-01  0.51385277794E-01  0.51100000000E-03 0. -1.
</event>
<event>
 8    1  0.1123470E+005  0.1043930E+01  0.7957747E-01            NaN
         13   -1    0    0    0    0  0.00000000000E+00  0.00000000000E+00  0.74505805969E-08  0.10566000000E+00  0.10566000000E+00 0.  1.
     999900   -1    0    0    0    0 -0.00000000000E+00 -0.00000000000E+00 -0.74505805969E-08  0.93827000000E+00  0.93827000000E+00 0. -1.
     999902    2    1    2    0    0  0.18486798496E-01 -0.15780764267E-01 -0.40361070122E-02  0.10192909172E+01  0.10189930763E+01 0.  0.
     999903    2    3    3    0    0  0.96867099414E-01  0.76579752452E-01  0.35952775002E-01  0.13009293742E+00  0.19592776804E-01 0.  0.
         14    1    1    2    0    0 -0.18486798496E-01  0.15780764267E-01  0.40361070122E-02  0.24639082761E-01  0.00000000000E+00 0.  1.
     999901    1    3    3    0    0 -0.78380300918E-01 -0.92360516719E-01 -0.39988882014E-01  0.88919797981E+00  0.88000000000E+00 0.  1.
        -11    1    4    4    0    0  0.51870553439E-01  0.28644274442E-01  0.18269215242E-01  0.62008661644E-01  0.51100000000E-03 0.  1.
         11    1    4    4    0    0  0.44996545976E-01  0.47935478010E-01  0.17683559760E-01  0.68084275780E-01  0.51100000000E-03 0. -1.
</event>
<event>
 8    1  0.1123470E+005  0.1043930E+01  0.7957747E-01            NaN
         13   -1    0    0    0    0  0.00000000000E+00  0.00000000000E+00  0.74505805969E-08  0.10566000000E+00  0.10566000000E+00 0.  1.
     999900   -1    0    0    0    0 -0.00000000000E+00 -0.00000000000E+00 -0.74505805969E-08  0.93827000000E+00  0.93827000000E+00 0. -1.
     999902    2    1    2    0    0  0.94518898811E-02 -0.14265043979E-01  0.20933951011E-01  0.10168918786E+01  0.10165323570E+01 0.  0.
     999903    2    3    3    0    0 -0.47095626909E-01  0.10441033137E+00 -0.45313641629E-01  0.12466421156E+00  0.19191773111E-01 0.  0.
         14    1    1    2    0    0 -0.94518898811E-02  0.14265043979E-01 -0.20933951011E-01  0.27038121365E-01  0.00000000000E+00 0. -1.
     999901    1    3    3    0    0  0.56547516790E-01 -0.11867537535E+00  0.66247592639E-01  0.89222766708E+00  0.88000000000E+00 0. -1.
        -11    1    4    4    0    0 -0.10058246289E-01  0.28622333085E-01 -0.35900999533E-02  0.30554152063E-01  0.51100000000E-03 0. -1.
         11    1    4    4    0    0 -0.37037380620E-01  0.75787998283E-01 -0.41723541675E-01  0.94110059494E-01  0.51100000000E-03 0.  1.
</event>
<event>
 8    1  0.1123470E+005  0.1043930E+01  0.7957747E-01            NaN
         13   -1    0    0    0    0  0.00000000000E+00  0.00000000000E+00  0.74505805969E-08  0.10566000000E+00  0.10566000000E+00 0.  1.
     999900   -1    0    0    0    0 -0.00000000000E+00 -0.00000000000E+00 -0.74505805969E-08  0.93827000000E+00  0.93827000000E+00 0.  1.
     999902    2    1    2    0    0 -0.17056860440E-01 -0.10027349331E-01  0.13344019285E-01  0.10200648146E+01  0.10197856044E+01 0.  0.
     999903    2    3    3    0    0 -0.82685221932E-01  0.92037570990E-01 -0.36343846200E-01  0.13034957154E+00  0.19036156219E-01 0.  0.
         14    1    1    2    0    0  0.17056860440E-01  0.10027349331E-01 -0.13344019285E-01  0.23865185383E-01  0.00000000000E+00 0. -1.
     999901    1    3    3    0    0  0.65628361492E-01 -0.10206492032E+00  0.49687865486E-01  0.88971524308E+00  0.88000000000E+00 0. -1.
        -11    1    4    4    0    0 -0.57543826100E-01  0.57633511684E-01 -0.15482273826E-01  0.82902807642E-01  0.51100000000E-03 0.  1.
         11    1    4    4    0    0 -0.25141395832E-01  0.34404059306E-01 -0.20861572374E-01  0.47446763895E-01  0.51100000000E-03 0. -1.
</event>
<event>
 8    1  0.1123470E+005  0.1043930E+01  0.7957747E-01            NaN
         13   -1    0    0    0    0  0.00000000000E+00  0.00000000000E+00  0.74505805969E-08  0.10566000000E+00  0.10566000000E+00 0. -1.
     999900   -1    0    0    0    0 -0.00000000000E+00 -0.00000000000E+00 -0.74505805969E-08  0.93827000000E+00  0.93827000000E+00 0. -1.
     999902    2    1    2    0    0  0.11261513747E-01  0.50606731436E-02 -0.20503116480E-01  0.10199965529E+01  0.10197157241E+01 0.  0.
     999903    2    3    3    0    0  0.70564080967E-01 -0.49957848315E-01 -0.98821210099E-01  0.13282263761E+00  0.20028613684E-01 0.  0.
         14    1    1    2    0    0 -0.11261513747E-01 -0.50606731436E-02  0.20503116480E-01  0.23933447097E-01  0.00000000000E+00 0. -1.
     999901    1    3    3    0    0 -0.59302567220E-01  0.55018521459E-01  0.78318093618E-01  0.88717391529E+00  0.88000000000E+00 0.  1.
        -11    1    4    4    0    0  0.36469654200E-01 -0.18810537479E-01 -0.58842098916E-01  0.71739289957E-01  0.51100000000E-03 0. -1.
         11    1    4    4    0    0  0.34094426767E-01 -0.31147310836E-01 -0.39979111183E-01  0.61083347656E-01  0.51100000000E-03 0.  1.
</event>
<event>
 8    1  0.1123470E+005  0.1043930E+01  0.7957747E-01            NaN
         13   -1    0    0    0    0  0.00000000000E+00  0.00000000000E+00  0.74505805969E-08  0.10566000000E+00  0.10566000000E+00 0.  1.
     999900   -1    0    0    0    0 -0.00000000000E+00 -0.00000000000E+00 -0.74505805969E-08  0.93827000000E+00  0.93827000000E+00 0. -1.
     999902    2    1    2    0    0 -0.16142583593E-01 -0.14410623493E-01  0.10320405750E-01  0.10199558504E+01  0.10196740542E+01 0.  0.
     999903    2    3    3    0    0 -0.38083765748E-01 -0.22772497872E-01  0.12324837806E+00  0.13242891370E+00  0.19449797347E-01 0.  0.
         14    1    1    2    0    0  0.16142583593E-01  0.14410623493E-01 -0.10320405750E-01  0.23974149607E-01  0.00000000000E+00 0. -1.
     999901    1    3    3    0    0  0.21941182154E-01  0.83618743792E-02 -0.11292797231E+00  0.88752693669E+00  0.88000000000E+00 0. -1.
        -11    1    4    4    0    0 -0.11815595734E-01 -0.43646438459E-03  0.51243218694E-01  0.52592084830E-01  0.51100000000E-03 0.  1.
         11    1    4    4    0    0 -0.26268170013E-01 -0.22336033488E-01  0.72005159369E-01  0.79836828874E-01  0.51100000000E-03 0. -1.
</event>
<event>
 8    1  0.1123470E+005  0.1043930E+01  0.7957747E-01            NaN
         13   -1    0    0    0    0  0.00000000000E+00  0.00000000000E+00  0.74505805969E-08  0.10566000000E+00  0.10566000000E+00 0.  1.
     999900   -1    0    0    0    0 -0.00000000000E+00 -0.00000000000E+00 -0.74505805969E-08  0.93827000000E+00  0.93827000000E+00 0.  1.
     999902    2    1    2    0    0  0.11327553726E-01 -0.19751906471E-01  0.51897851155E-02  0.10205765173E+01  0.10203092877E+01 0.  0.
     999903    2    3    3    0    0 -0.20799414068E-01  0.64990024037E-01 -0.10735441881E+00  0.12879205085E+00  0.20151979384E-01 0.  0.
         14    1    1    2    0    0 -0.11327553726E-01  0.19751906471E-01 -0.51897851155E-02  0.23353482657E-01  0.00000000000E+00 0.  1.
     999901    1    3    3    0    0  0.32126967794E-01 -0.84741930507E-01  0.11254420393E+00  0.89178446650E+00  0.88000000000E+00 0. -1.
        -11    1    4    4    0    0 -0.11254197229E-01  0.42408558765E-01 -0.50655621479E-01  0.67017877617E-01  0.51100000000E-03 0.  1.
         11    1    4    4    0    0 -0.95452168385E-02  0.22581465271E-01 -0.56698797333E-01  0.61774173230E-01  0.51100000000E-03 0. -1.
</event>
<event>
 8    1  0.1123470E+005  0.1043930E+01  0.7957747E-01            NaN
         13   -1    0    0    0    0  0.00000000000E+00  0.00000000000E+00  0.74505805969E-08  0.10566000000E+00  0.10566000000E+00 0. -1.
     999900   -1    0    0    0    0 -0.00000000000E+00 -0.00000000000E+00 -0.74505805969E-08  0.93827000000E+00  0.93827000000E+00 0. -1.
     999902    2    1    2    0    0 -0.12151837622E-02  0.21005560135E-01 -0.71060915262E-02  0.10217217411E+01  0.10214803519E+01 0.  0.
     999903    2    3    3    0    0  0.36719387928E-01  0.97520420623E-01 -0.82253336323E-01  0.13439955380E+00  0.20954303568E-01 0.  0.
         14    1    1    2    0    0  0.12151837622E-02 -0.21005560135E-01  0.71060915262E-02  0.22208258935E-01  0.00000000000E+00 0.  1.
     999901    1    3    3    0    0 -0.37934571690E-01 -0.76514860488E-01  0.75147244797E-01  0.88732218726E+00  0.88000000000E+00 0.  1.
        -11    1    4    4    0    0  0.26794350781E-01  0.42378851677E-01 -0.42022967651E-01  0.65422436782E-01  0.51100000000E-03 0.  1.
         11    1    4    4    0    0  0.99250371475E-02  0.55141568946E-01 -0.40230368672E-01  0.68977117022E-01  0.51100000000E-03 0. -1.
</event>
<event>
 8    1  0.1123470E+005  0.1043930E+01  0.7957747E-01            NaN
         13   -1    0    0    0    0  0.00000000000E+00  0.00000000000E+00  0.74505805969E-08  0.10566000000E+00  0.10566000000E+00 0. -1.
     999900   -1    0    0    0    0 -0.00000000000E+00 -0.00000000000E+00 -0.74505805969E-08  0.93827000000E+00  0.93827000000E+00 0.  1.
     999902    2    1    2    0    0  0.46614510024E-02 -0.11594464412E-02  0.22105610934E-01  0.10213085174E+01  0.10210579593E+01 0.  0.
     999903    2    3    3    0    0  0.49920992110E-01  0.40203030999E-03 -0.11741771188E+00  0.12916636397E+00  0.20118733448E-01 0.  0.
         14    1    1    2    0    0 -0.46614510024E-02  0.11594464412E-02 -0.22105610934E-01  0.22621482627E-01  0.00000000000E+00 0.  1.
     999901    1    3    3    0    0 -0.45259541107E-01 -0.15614767512E-02  0.13952332282E+00  0.89214215340E+00  0.88000000000E+00 0. -1.
        -11    1    4    4    0    0  0.10273604825E-01  0.67773808243E-02 -0.16817248948E-01  0.20846122664E-01  0.51100000000E-03 0.  1.
         11    1    4    4    0    0  0.39647387285E-01 -0.63753505143E-02 -0.10060046294E+00  0.10832024131E+00  0.51100000000E-03 0. -1.
</event>
<event>
 8    1  0.1123470E+005  0.1043930E+01  0.7957747E-01            NaN
         13   -1    0    0    0    0  0.00000000000E+00  0.00000000000E+00  0.74505805969E-08  0.10566000000E+00  0.10566000000E+00 0. -1.
     999900   -1    0    0    0    0 -0.00000000000E+00 -0.00000000000E+00 -0.74505805969E-08  0.93827000000E+00  0.93827000000E+00 0.  1.
     999902    2    1    2    0    0 -0.52091224717E-03 -0.23158546749E-01 -0.15761489261E-02  0.10207120353E+01  0.10204479336E+01 0.  0.
     999903    2    3    3    0    0  0.87855132288E-02  0.10495611394E+00  0.70725352640E-01  0.12845227330E+00  0.20123118896E-01 0.  0.
         14    1    1    2    0    0  0.52091224717E-03  0.23158546749E-01  0.15761489261E-02  0.23217964651E-01  0.00000000000E+00 0.  1.
     999901    1    3    3    0    0 -0.93064254759E-02 -0.12811466069E+00 -0.72301501566E-01  0.89225976205E+00  0.88000000000E+00 0.  1.
        -11    1    4    4    0    0 -0.13879627073E-02  0.50327918423E-02  0.94139783262E-02  0.10776805794E-01  0.51100000000E-03 0. -1.
         11    1    4    4    0    0  0.10173475936E-01  0.99923322099E-01  0.61311374313E-01  0.11767546751E+00  0.51100000000E-03 0.  1.
</event>
<event>
 8    1  0.1123470E+005  0.1043930E+01  0.7957747E-01            NaN
         13   -1    0    0    0    0  0.00000000000E+00  0.00000000000E+00  0.74505805969E-08  0.10566000000E+00  0.10566000000E+00 0.  1.
     999900   -1    0    0    0    0 -0.00000000000E+00 -0.00000000000E+00 -0.74505805969E-08  0.93827000000E+00  0.93827000000E+00 0. -1.
     999902    2    1    2    0    0 -0.70783650251E-02 -0.63954314210E-02 -0.22089128946E-01  0.10198689441E+01  0.10195850767E+01 0.  0.
     999903    2    3    3    0    0 -0.47101350960E-01 -0.93351473493E-01  0.73354632318E-01  0.12954725827E+00  0.21646135382E-01 0.  0.
         14    1    1    2    0    0  0.70783650251E-02  0.63954314210E-02  0.22089128946E-01  0.24061055922E-01  0.00000000000E+00 0.  1.
     999901    1    3    3    0    0  0.40022985935E-01  0.86956042072E-01 -0.95443761265E-01  0.89032168581E+00  0.88000000000E+00 0. -1.
        -11    1    4    4    0    0 -0.17311224088E-01 -0.15844695390E-01  0.20081303483E-01  0.30890981241E-01  0.51100000000E-03 0.  1.
         11    1    4    4    0    0 -0.29790126872E-01 -0.77506778103E-01  0.53273328835E-01  0.98656277029E-01  0.51100000000E-03 0. -1.
</event>
<event>
 8    1  0.1123470E+005  0.1043930E+01  0.7957747E-01            NaN
         13   -1    0    0    0    0  0.00000000000E+00  0.00000000000E+00  0.74505805969E-08  0.10566000000E+00  0.10566000000E+00 0. -1.
     999900   -1    0    0    0    0 -0.00000000000E+00 -0.00000000000E+00 -0.74505805969E-08  0.93827000000E+00  0.93827000000E+00 0.  1.
     999902    2    1    2    0    0 -0.14043660370E-01  0.39004250034E-02 -0.16822026850E-01  0.10216720060E+01  0.10214295225E+01 0.  0.
     999903    2    3    3    0    0  0.79133219177E-02  0.41254909235E-01 -0.12561950456E+00  0.13391395461E+00  0.19700231288E-01 0.  0.
         14    1    1    2    0    0  0.14043660370E-01 -0.39004250034E-02  0.16822026850E-01  0.22257994050E-01  0.00000000000E+00 0. -1.
     999901    1    3    3    0    0 -0.21956982287E-01 -0.37354484232E-01  0.10879747771E+00  0.88775805134E+00  0.88000000000E+00 0. -1.
        -11    1    4    4    0    0  0.99085886175E-02  0.20229340861E-01 -0.41943710310E-01  0.47612417662E-01  0.51100000000E-03 0. -1.
         11    1    4    4    0    0 -0.19952666998E-02  0.21025568374E-01 -0.83675794253E-01  0.86301536948E-01  0.51100000000E-03 0.  1.
</event>
<event>
 8    1  0.1123470E+005  0.1043930E+01  0.7957747E-01            NaN
         13   -1    0    0    0    0  0.00000000000E+00  0.00000000000E+00  0.74505805969E-08  0.10566000000E+00  0.10566000000E+00 0.  1.
     999900   -1    0    0    0    0 -0.00000000000E+00 -0.00000000000E+00 -0.74505805969E-08  0.93827000000E+00  0.93827000000E+00 0. -1.
     999902    2    1    2    0    0 -0.44575259695E-02 -0.15497349319E-01  0.16209874571E-01  0.10210652366E+01  0.10208091986E+01 0.  0.
     999903    2    3    3    0    0 -0.12214062087E-01 -0.94418872744E-01  0.92600736241E-01  0.13420316472E+00  0.19273977953E-01 0.  0.
         14    1    1    2    0    0  0.44575259695E-02  0.15497349319E-01 -0.16209874571E-01  0.22864763443E-01  0.00000000000E+00 0. -1.
     999901    1    3    3    0    0  0.77565361179E-02  0.78921523425E-01 -0.76390861670E-01  0.88686207183E+00  0.88000000000E+00 0. -1.
        -11    1    4    4    0    0 -0.14709823400E-01 -0.71834689424E-01  0.61622655986E-01  0.95782119212E-01  0.51100000000E-03 0. -1.
         11    1    4    4    0    0  0.24957613122E-02 -0.22584183320E-01  0.30978080256E-01  0.38421045510E-01  0.51100000000E-03 0.  1.
</event>
<event>
 8    1  0.1123470E+005  0.1043930E+01  0.7957747E-01            NaN
         13   -1    0    0    0    0  0.00000000000E+00  0.00000000000E+00  0.74505805969E-08  0.10566000000E+00  0.10566000000E+00 0. -1.
     999900   -1    0    0    0    0 -0.00000000000E+00 -0.00000000000E+00 -0.74505805969E-08  0.93827000000E+00  0.93827000000E+00 0.  1.
     999902    2    1    2    0    0 -0.29381653958E-02  0.18328185515E-01  0.98928354075E-02  0.10228961370E+01  0.10226798540E+01 0.  0.
     999903    2    3    3    0    0  0.10367869024E+00  0.48441674015E-01  0.66835120387E-01  0.13412372524E+00  0.20648819929E-01 0.  0.
         14    1    1    2    0    0  0.29381653958E-02 -0.18328185515E-01 -0.98928354075E-02  0.21033862997E-01  0.00000000000E+00 0.  1.
     999901    1    3    3    0    0 -0.10661685563E+00 -0.30113488500E-01 -0.56942284980E-01  0.88877241176E+00  0.88000000000E+00 0. -1.
        -11    1    4    4    0    0  0.21082581204E-01  0.56298224353E-02  0.21478151560E-01  0.30622577395E-01  0.51100000000E-03 0. -1.
         11    1    4    4    0    0  0.82596109032E-01  0.42811851580E-01  0.45356968828E-01  0.10350114784E+00  0.51100000000E-03 0.  1.
</event>
<event>
 8    1  0.1123470E+005  0.1043930E+01  0.7957747E-01            NaN
         13   -1    0    0    0    0  0.00000000000E+00  0.00000000000E+00  0.74505805969E-08  0.10566000000E+00  0.10566000000E+00 0. -1.
     999900   -1    0    0    0    0 -0.00000000000E+00 -0.00000000000E+00 -0.74505805969E-08  0.93827000000E+00  0.93827000000E+00 0.  1.
     999902    2    1    2    0    0 -0.41889617259E-02  0.82435697360E-02 -0.20558122824E-01  0.10213880334E+01  0.10211392533E+01 0.  0.
     999903    2    3    3    0    0 -0.90537903746E-01 -0.61655052466E-01 -0.74701004225E-01  0.13275233262E+00  0.66696531672E-02 0.  0.
         14    1    1    2    0    0  0.41889617259E-02 -0.82435697360E-02  0.20558122824E-01  0.22541966560E-01  0.00000000000E+00 0. -1.
     999901    1    3    3    0    0  0.86348942020E-01  0.69898622202E-01  0.54142881401E-01  0.88863570082E+00  0.88000000000E+00 0. -1.
        -11    1    4    4    0    0 -0.13317526363E-01 -0.64088858427E-02 -0.10387670041E-01  0.18071943339E-01  0.51100000000E-03 0.  1.
         11    1    4    4    0    0 -0.77220377383E-01 -0.55246166624E-01 -0.64313334183E-01  0.11468038928E+00  0.51100000000E-03 0. -1.
</event>
<event>
 8    1  0.1123470E+005  0.1043930E+01  0.7957747E-01            NaN
         13   -1    0    0    0    0  0.00000000000E+00  0.00000000000E+00  0.74505805969E-08  0.10566000000E+00  0.10566000000E+00 0.  1.
     999900   -1    0    0    0    0 -0.00000000000E+00 -0.00000000000E+00 -0.74505805969E-08  0.93827000000E+00  0.93827000000E+00 0.  1.
     999902    2    1    2    0    0  0.69748459291E-02 -0.22315334078E-01 -0.10010667621E-04  0.10205500361E+01  0.10202821931E+01 0.  0.
     999903    2    3    3    0    0 -0.11983600932E+00 -0.26091715437E-01 -0.39708719327E-01  0.13056619271E+00  0.20719593263E-01 0.  0.
         14    1    1    2    0    0 -0.69748459291E-02  0.22315334078E-01  0.10010667621E-04  0.23379963879E-01  0.00000000000E+00 0. -1.
     999901    1    3    3    0    0  0.12681085524E+00  0.37763813584E-02  0.39698708659E-01  0.88998384341E+00  0.88000000000E+00 0.  1.
        -11    1    4    4    0    0 -0.96611435884E-01 -0.14221478462E-01 -0.36630304188E-01  0.10429794005E+00  0.51100000000E-03 0.  1.
         11    1    4    4    0    0 -0.23224573432E-01 -0.11870236975E-01 -0.30784151394E-02  0.26268252658E-01  0.51100000000E-03 0. -1.
</event>
<event>
 8    1  0.1123470E+005  0.1043930E+01  0.7957747E-01            NaN
         13   -1    0    0    0    0  0.00000000000E+00  0.00000000000E+00  0.74505805969E-08  0.10566000000E+00  0.10566000000E+00 0.  1.
     999900   -1    0    0    0    0 -0.00000000000E+00 -0.00000000000E+00 -0.74505805969E-08  0.93827000000E+00  0.93827000000E+00 0. -1.
     999902    2    1    2    0    0 -0.18414070445E-02 -0.16338944723E-01  0.15761516970E-01  0.10211533165E+01  0.10208992695E+01 0.  0.
     999903    2    3    3    0    0 -0.10703993568E+00  0.59189560147E-01  0.43212912453E-01  0.13125171261E+00  0.19967583735E-01 0.  0.
         14    1    1    2    0    0  0.18414070445E-02  0.16338944723E-01 -0.15761516970E-01  0.22776683511E-01  0.00000000000E+00 0.  1.
     999901    1    3    3    0    0  0.10519852863E+00 -0.75528504870E-01 -0.27451395483E-01  0.88990160388E+00  0.88000000000E+00 0.  1.
        -11    1    4    4    0    0 -0.70643872471E-01  0.49398002563E-01  0.28579000210E-01  0.90817067498E-01  0.51100000000E-03 0. -1.
         11    1    4    4    0    0 -0.36396063205E-01  0.97915575845E-02  0.14633912243E-01  0.40434645111E-01  0.51100000000E-03 0.  1.
</event>
<event>
 8    1  0.1123470E+005  0.1043930E+01  0.7957747E-01            NaN
         13   -1    0    0    0    0  0.00000000000E+00  0.00000000000E+00  0.74505805969E-08  0.10566000000E+00  0.10566000000E+00 0. -1.
     999900   -1    0    0    0    0 -0.00000000000E+00 -0.00000000000E+00 -0.74505805969E-08  0.93827000000E+00  0.93827000000E+00 0.  1.
     999902    2    1    2    0    0  0.93389703678E-02  0.12319995999E-01  0.20940784296E-01  0.10179008795E+01  0.10175680249E+01 0.  0.
     999903    2    3    3    0    0  0.29848923182E-01 -0.85067307394E-01 -0.85818037114E-01  0.12587936012E+00  0.18800872515E-01 0.  0.
         14    1    1    2    0    0 -0.93389703678E-02 -0.12319995999E-01 -0.20940784296E-01  0.26029120536E-01  0.00000000000E+00 0.  1.
     999901    1    3    3    0    0 -0.20509952814E-01  0.97387303393E-01  0.10675882141E+00  0.89202151935E+00  0.88000000000E+00 0. -1.
        -11    1    4    4    0    0  0.15473561214E-01 -0.49957301860E-01 -0.61857300012E-01  0.81004628211E-01  0.51100000000E-03 0.  1.
         11    1    4    4    0    0  0.14375361968E-01 -0.35110005534E-01 -0.23960737102E-01  0.44874731907E-01  0.51100000000E-03 0. -1.
</event>
<event>
 8    1  0.1123470E+005  0.1043930E+01  0.7957747E-01            NaN
         13   -1    0    0    0    0  0.00000000000E+00  0.00000000000E+00  0.74505805969E-08  0.10566000000E+00  0.10566000000E+00 0. -1.
     999900   -1    0    0    0    0 -0.00000000000E+00 -0.00000000000E+00 -0.74505805969E-08  0.93827000000E+00  0.93827000000E+00 0.  1.
     999902    2    1    2    0    0  0.12345395877E-01 -0.87052076993E-02 -0.18130333472E-01  0.10203313044E+01  0.10200583671E+01 0.  0.
     999903    2    3    3    0    0 -0.88233211621E-01  0.30211850842E-01 -0.90254435976E-01  0.13081880880E+00  0.16426866968E-01 0.  0.
         14    1    1    2    0    0 -0.12345395877E-01  0.87052076993E-02  0.18130333472E-01  0.23598695563E-01  0.00000000000E+00 0. -1.
     999901    1    3    3    0    0  0.10057860750E+00 -0.38917058542E-01  0.72124102503E-01  0.88951249564E+00  0.88000000000E+00 0.  1.
        -11    1    4    4    0    0 -0.52412473076E-01  0.24083271316E-01 -0.62791411391E-01  0.85264844788E-01  0.51100000000E-03 0. -1.
         11    1    4    4    0    0 -0.35820738545E-01  0.61285795264E-02 -0.27463024585E-01  0.45553964013E-01  0.51100000000E-03 0.  1.
</event>
<event>
 8    1  0.1123470E+005  0.1043930E+01  0.7957747E-01            NaN
         13   -1    0    0    0    0  0.00000000000E+00  0.00000000000E+00  0.74505805969E-08  0.10566000000E+00  0.10566000000E+00 0. -1.
     999900   -1    0    0    0    0 -0.00000000000E+00 -0.00000000000E+00 -0.74505805969E-08  0.93827000000E+00  0.93827000000E+00 0. -1.
     999902    2    1    2    0    0  0.64287713150E-02 -0.21549425920E-01 -0.87629050881E-02  0.10197950593E+01  0.10195094250E+01 0.  0.
     999903    2    3    3    0    0  0.99668289482E-02 -0.94567127499E-01  0.88220140934E-01  0.13145401339E+00  0.21332723378E-01 0.  0.
         14    1    1    2    0    0 -0.64287713150E-02  0.21549425920E-01  0.87629050881E-02  0.24134940723E-01  0.00000000000E+00 0.  1.
     999901    1    3    3    0    0 -0.35380576332E-02  0.73017701579E-01 -0.96983046022E-01  0.88834104589E+00  0.88000000000E+00 0.  1.
        -11    1    4    4    0    0  0.97860600253E-02 -0.58616297519E-01  0.41432407140E-01  0.72446827316E-01  0.51100000000E-03 0.  1.
         11    1    4    4    0    0  0.18076892294E-03 -0.35950829980E-01  0.46787733793E-01  0.59007186072E-01  0.51100000000E-03 0. -1.
</event>
<event>
 8    1  0.1123470E+005  0.1043930E+01  0.7957747E-01            NaN
         13   -1    0    0    0    0  0.00000000000E+00  0.00000000000E+00  0.74505805969E-08  0.10566000000E+00  0.10566000000E+00 0. -1.
     999900   -1    0    0    0    0 -0.00000000000E+00 -0.00000000000E+00 -0.74505805969E-08  0.93827000000E+00  0.93827000000E+00 0.  1.
     999902    2    1    2    0    0 -0.23390391235E-01  0.95988452475E-02  0.47968002475E-02  0.10181956353E+01  0.10178703720E+01 0.  0.
     999903    2    3    3    0    0  0.11469797049E+00 -0.46730341852E-01 -0.50686770991E-02  0.12559342796E+00  0.20215547866E-01 0.  0.
         14    1    1    2    0    0  0.23390391235E-01 -0.95988452475E-02 -0.47968002475E-02  0.25734364668E-01  0.00000000000E+00 0.  1.
     999901    1    3    3    0    0 -0.13808836172E+00  0.56329187099E-01  0.98654773467E-02  0.89260220737E+00  0.88000000000E+00 0.  1.
        -11    1    4    4    0    0  0.81231193415E-01 -0.23106044234E-01 -0.53487683466E-02  0.84624266659E-01  0.51100000000E-03 0.  1.
         11    1    4    4    0    0  0.33466777073E-01 -0.23624297617E-01  0.28009124745E-03  0.40969161301E-01  0.51100000000E-03 0. -1.
</event>
<event>
 8    1  0.1123470E+005  0.1043930E+01  0.7957747E-01            NaN
         13   -1    0    0    0    0  0.00000000000E+00  0.00000000000E+00  0.74505805969E-08  0.10566000000E+00  0.10566000000E+00 0.  1.
     999900   -1    0    0    0    0 -0.00000000000E+00 -0.00000000000E+00 -0.74505805969E-08  0.93827000000E+00  0.93827000000E+00 0. -1.
     999902    2    1    2    0    0  0.81175347462E-02 -0.63576603902E-02 -0.21682594144E-01  0.10199206455E+01  0.10196380112E+01 0.  0.
     999903    2    3    3    0    0 -0.10139465617E+00  0.75961971180E-01  0.79508123757E-02  0.12882717087E+00  0.21957394467E-01 0.  0.
         14    1    1    2    0    0 -0.81175347462E-02  0.63576603902E-02  0.21682594144E-01  0.24009354527E-01  0.00000000000E+00 0.  1.
     999901    1    3    3    0    0  0.10951219091E+00 -0.82319631570E-01 -0.29633406520E-01  0.89109347460E+00  0.88000000000E+00 0. -1.
        -11    1    4    4    0    0 -0.58437473061E-01  0.32149149385E-01  0.99315854061E-02  0.67434439077E-01  0.51100000000E-03 0. -1.
         11    1    4    4    0    0 -0.42957183106E-01  0.43812821794E-01 -0.19807730303E-02  0.61392731791E-01  0.51100000000E-03 0.  1.
</event>
<event>
 8    1  0.1123470E+005  0.1043930E+01  0.7957747E-01            NaN
         13   -1    0    0    0    0  0.00000000000E+00  0.00000000000E+00  0.74505805969E-08  0.10566000000E+00  0.10566000000E+00 0. -1.
     999900   -1    0    0    0    0 -0.00000000000E+00 -0.00000000000E+00 -0.74505805969E-08  0.93827000000E+00  0.93827000000E+00 0. -1.
     999902    2    1    2    0    0 -0.50408015923E-02  0.11340365338E-01  0.19854139252E-01  0.10205163200E+01  0.10202476949E+01 0.  0.
     999903    2    3    3    0    0 -0.11005791154E+00  0.63212359745E-02 -0.65616624512E-01  0.13014615173E+00  0.21903823460E-01 0.  0.
         14    1    1    2    0    0  0.50408015923E-02 -0.11340365338E-01 -0.19854139252E-01  0.23413680021E-01  0.00000000000E+00 0.  1.
     999901    1    3    3    0    0  0.10501710995E+00  0.50191293631E-02  0.85470763764E-01  0.89037016824E+00  0.88000000000E+00 0.  1.
        -11    1    4    4    0    0 -0.36491487385E-01  0.88860293802E-02 -0.13341938956E-01  0.39860489533E-01  0.51100000000E-03 0.  1.
         11    1    4    4    0    0 -0.73566424155E-01 -0.25647934056E-02 -0.52274685556E-01  0.90285662201E-01  0.51100000000E-03 0. -1.
</event>
<event>
 8    1  0.1123470E+005  0.1043930E+01  0.7957747E-01            NaN
         13   -1    0    0    0    0  0.00000000000E+00  0.00000000000E+00  0.74505805969E-08  0.10566000000E+00  0.10566000000E+00 0.  1.
     999900   -1    0    0    0    0 -0.00000000000E+00 -0.00000000000E+00 -0.74505805969E-08  0.93827000000E+00  0.93827000000E+00 0.  1.
     999902    2    1    2    0    0 -0.19078210327E-02  0.13864199457E-01  0.18920907963E-01  0.10203958426E+01  0.10201244135E+01 0.  0.
     999903    2    3    3    0    0  0.12379117837E+00 -0.20596590911E-01 -0.26004551020E-01  0.12966239120E+00  0.19688159361E-01 0.  0.
         14    1    1    2    0    0  0.19078210327E-02 -0.13864199457E-01 -0.18920907963E-01  0.23534157427E-01  0.00000000000E+00 0. -1.
     999901    1    3    3    0    0 -0.12569899940E+00  0.34460790367E-01  0.44925458983E-01  0.89073345137E+00  0.88000000000E+00 0. -1.
        -11    1    4    4    0    0  0.97709116677E-02  0.92585057503E-03 -0.70368175809E-02  0.12087424737E-01  0.51100000000E-03 0.  1.
         11    1    4    4    0    0  0.11402026670E+00 -0.21522441486E-01 -0.18967733439E-01  0.11757496647E+00  0.51100000000E-03 0. -1.
</event>
<event>
 8    1  0.1123470E+005  0.1043930E+01  0.7957747E-01            NaN
         13   -1    0    0    0    0  0.00000000000E+00  0.00000000000E+00  0.74505805969E-08  0.10566000000E+00  0.10566000000E+00 0.  1.
     999900   -1    0    0    0    0 -0.00000000000E+00 -0.00000000000E+00 -0.74505805969E-08  0.93827000000E+00  0.93827000000E+00 0.  1.
     999902    2    1    2    0    0  0.21442849974E-01  0.69020395080E-02 -0.15788510219E-02  0.10213484426E+01  0.10210987780E+01 0.  0.
     999903    2    3    3    0    0  0.12853600828E+00 -0.23044653853E-01 -0.22652863640E-01  0.13409996386E+00  0.20422697716E-01 0.  0.
         14    1    1    2    0    0 -0.21442849974E-01 -0.69020395080E-02  0.15788510219E-02  0.22581557407E-01  0.00000000000E+00 0. -1.
     999901    1    3    3    0    0 -0.10709315830E+00  0.29946693361E-01  0.21074012618E-01  0.88724847873E+00  0.88000000000E+00 0.  1.
        -11    1    4    4    0    0  0.24872815471E-01 -0.51947205159E-02 -0.12781826794E-01  0.28447816927E-01  0.51100000000E-03 0. -1.
         11    1    4    4    0    0  0.10366319281E+00 -0.17849933337E-01 -0.98710368458E-02  0.10565214694E+00  0.51100000000E-03 0.  1.
</event>
<event>
 8    1  0.1123470E+005  0.1043930E+01  0.7957747E-01            NaN
         13   -1    0    0    0    0  0.00000000000E+00  0.00000000000E+00  0.74505805969E-08  0.10566000000E+00  0.10566000000E+00 0. -1.
     999900   -1    0    0    0    0 -0.00000000000E+00 -0.00000000000E+00 -0.74505805969E-08  0.93827000000E+00  0.93827000000E+00 0.  1.
     999902    2    1    2    0    0  0.97795996899E-02  0.14598852369E-02 -0.21493721604E-01  0.10202709234E+01  0.10199965712E+01 0.  0.
     999903    2    3    3    0    0 -0.76653398457E-01 -0.10071743512E+00 -0.23147671800E-01  0.13015092956E+00  0.19588377281E-01 0.  0.
         14    1    1    2    0    0 -0.97795996899E-02 -0.14598852369E-02  0.21493721604E-01  0.23659076554E-01  0.00000000000E+00 0. -1.
     999901    1    3    3    0    0  0.86432998147E-01  0.10217732035E+00  0.16539501967E-02  0.89011999389E+00  0.88000000000E+00 0. -1.
        -11    1    4    4    0    0 -0.41298848226E-01 -0.56519356576E-01 -0.22557548786E-01  0.73546833112E-01  0.51100000000E-03 0. -1.
         11    1    4    4    0    0 -0.35354550231E-01 -0.44198078540E-01 -0.59012301424E-03  0.56604096449E-01  0.51100000000E-03 0.  1.
</event>
<event>
 8    1  0.1123470E+005  0.1043930E+01  0.7957747E-01            NaN
         13   -1    0    0    0    0  0.00000000000E+00  0.00000000000E+00  0.74505805969E-08  0.10566000000E+00  0.10566000000E+00 0. -1.
     999900   -1    0    0    0    0 -0.00000000000E+00 -0.00000000000E+00 -0.74505805969E-08  0.93827000000E+00  0.93827000000E+00 0.  1.
     999902    2    1    2    0    0 -0.55623907408E-03  0.18187458707E-01  0.12403642681E-01  0.10219085693E+01  0.10216712684E+01 0.  0.
     999903    2    3    3    0    0  0.69339288285E-02 -0.10889262416E+00  0.69315594540E-01  0.13092909689E+00  0.20786866094E-01 0.  0.
         14    1    1    2    0    0  0.55623907408E-03 -0.18187458707E-01 -0.12403642681E-01  0.22021430650E-01  0.00000000000E+00 0.  1.
     999901    1    3    3    0    0 -0.74901679025E-02  0.12708008286E+00 -0.56911951859E-01  0.89097947246E+00  0.88000000000E+00 0.  1.
        -11    1    4    4    0    0  0.13148618980E-01 -0.46396979888E-01  0.31911005821E-01  0.57828533937E-01  0.51100000000E-03 0.  1.
         11    1    4    4    0    0 -0.62146901511E-02 -0.62495644268E-01  0.37404588719E-01  0.73100562955E-01  0.51100000000E-03 0. -1.
</event>
<event>
 8    1  0.1123470E+005  0.1043930E+01  0.7957747E-01            NaN
         13   -1    0    0    0    0  0.00000000000E+00  0.00000000000E+00  0.74505805969E-08  0.10566000000E+00  0.10566000000E+00 0. -1.
     999900   -1    0    0    0    0 -0.00000000000E+00 -0.00000000000E+00 -0.74505805969E-08  0.93827000000E+00  0.93827000000E+00 0. -1.
     999902    2    1    2    0    0  0.13535917463E-01 -0.89876759236E-02  0.14159388354E-01  0.10223780243E+01  0.10221508386E+01 0.  0.
     999903    2    3    3    0    0 -0.62598014974E-01 -0.11007252435E+00  0.35635246331E-01  0.13306607970E+00  0.20055889131E-01 0.  0.
         14    1    1    2    0    0 -0.13535917463E-01  0.89876759236E-02 -0.14159388354E-01  0.21551975748E-01  0.00000000000E+00 0.  1.
     999901    1    3    3    0    0  0.76133932437E-01  0.10108484843E+00 -0.21475857977E-01  0.88931194455E+00  0.88000000000E+00 0. -1.
        -11    1    4    4    0    0 -0.46116816774E-01 -0.64746694064E-01  0.27728013702E-01  0.84190255056E-01  0.51100000000E-03 0. -1.
         11    1    4    4    0    0 -0.16481198200E-01 -0.45325830290E-01  0.79072326292E-02  0.48875824642E-01  0.51100000000E-03 0.  1.
</event>
<event>
 8    1  0.1123470E+005  0.1043930E+01  0.7957747E-01            NaN
         13   -1    0    0    0    0  0.00000000000E+00  0.00000000000E+00  0.74505805969E-08  0.10566000000E+00  0.10566000000E+00 0. -1.
     999900   -1    0    0    0    0 -0.00000000000E+00 -0.00000000000E+00 -0.74505805969E-08  0.93827000000E+00  0.93827000000E+00 0.  1.
     999902    2    1    2    0    0 -0.61416350467E-02 -0.21866490774E-01 -0.80603532723E-02  0.10198295354E+01  0.10195447263E+01 0.  0.
     999903    2    3    3    0    0 -0.88420658114E-01 -0.65374951757E-01  0.69259304213E-01  0.13154965086E+00  0.20404958296E-01 0.  0.
         14    1    1    2    0    0  0.61416350467E-02  0.21866490774E-01  0.80603532723E-02  0.24100464616E-01  0.00000000000E+00 0. -1.
     999901    1    3    3    0    0  0.82279023068E-01  0.43508460983E-01 -0.77319657485E-01  0.88827988452E+00  0.88000000000E+00 0.  1.
        -11    1    4    4    0    0 -0.13882765103E-01 -0.18111324236E-01  0.83198676832E-02  0.24294702134E-01  0.51100000000E-03 0.  1.
         11    1    4    4    0    0 -0.74537893012E-01 -0.47263627521E-01  0.60939436530E-01  0.10725494873E+00  0.51100000000E-03 0. -1.
</event>
<event>
 8    1  0.1123470E+005  0.1043930E+01  0.7957747E-01            NaN
         13   -1    0    0    0    0  0.00000000000E+00  0.00000000000E+00  0.74505805969E-08  0.10566000000E+00  0.10566000000E+00 0. -1.
     999900   -1    0    0    0    0 -0.00000000000E+00 -0.00000000000E+00 -0.74505805969E-08  0.93827000000E+00  0.93827000000E+00 0. -1.
     999902    2    1    2    0    0  0.22934189637E-01  0.47099561158E-02 -0.10417609475E-01  0.10183040887E+01  0.10179815960E+01 0.  0.
     999903    2    3    3    0    0 -0.57050994060E-01 -0.70494578228E-01 -0.88239407373E-01  0.12807401520E+00  0.19810574792E-01 0.  0.
         14    1    1    2    0    0 -0.22934189637E-01 -0.47099561158E-02  0.10417609475E-01  0.25625911264E-01  0.00000000000E+00 0. -1.
     999901    1    3    3    0    0  0.79985183697E-01  0.75204534344E-01  0.77821797898E-01  0.89023007353E+00  0.88000000000E+00 0.  1.
        -11    1    4    4    0    0 -0.27462385212E-02 -0.21192655859E-02 -0.10830277253E-01  0.11383722546E-01  0.51100000000E-03 0.  1.
         11    1    4    4    0    0 -0.54304755538E-01 -0.68375312642E-01 -0.77409130120E-01  0.11669029266E+00  0.51100000000E-03 0. -1.
</event>
<event>
 8    1  0.1123470E+005  0.1043930E+01  0.7957747E-01            NaN
         13   -1    0    0    0    0  0.00000000000E+00  0.00000000000E+00  0.74505805969E-08  0.10566000000E+00  0.10566000000E+00 0.  1.
     999900   -1    0    0    0    0 -0.00000000000E+00 -0.00000000000E+00 -0.74505805969E-08  0.93827000000E+00  0.93827000000E+00 0. -1.
     999902    2    1    2    0    0 -0.17002402450E-01 -0.14412464741E-01 -0.55848704344E-02  0.10209519320E+01  0.10206933212E+01 0.  0.
     999903    2    3    3    0    0  0.64036960619E-01 -0.11143465843E+00  0.20740500652E-01  0.13152868657E+00  0.18740640327E-01 0.  0.
         14    1    1    2    0    0  0.17002402450E-01  0.14412464741E-01  0.55848704344E-02  0.22978067951E-01  0.00000000000E+00 0.  1.
     999901    1    3    3    0    0 -0.81039363070E-01  0.97022193685E-01 -0.26325371087E-01  0.88942324548E+00  0.88000000000E+00 0.  1.
        -11    1    4    4    0    0  0.33926485182E-02 -0.18845646042E-01  0.18400893320E-02  0.19243583046E-01  0.51100000000E-03 0. -1.
         11    1    4    4    0    0  0.60644312101E-01 -0.92589012384E-01  0.18900411321E-01  0.11228510352E+00  0.51100000000E-03 0.  1.
</event>
<event>
 8    1  0.1123470E+005  0.1043930E+01  0.7957747E-01            NaN
         13   -1    0    0    0    0  0.00000000000E+00  0.00000000000E+00  0.74505805969E-08  0.10566000000E+00  0.10566000000E+00 0.  1.
     999900   -1    0    0    0    0 -0.00000000000E+00 -0.00000000000E+00 -0.74505805969E-08  0.93827000000E+00  0.93827000000E+00 0.  1.
     999902    2    1    2    0    0  0.20537273254E-01 -0.79920673247E-02 -0.95300435818E-02  0.10199201174E+01  0.10196374706E+01 0.  0.
     999903    2    3    3    0    0 -0.10581102056E+00  0.69989692972E-02  0.67637555825E-01  0.12742728215E+00  0.20442985011E-01 0.  0.
         14    1    1    2    0    0 -0.20537273254E-01  0.79920673247E-02  0.95300435818E-02  0.24009882622E-01  0.00000000000E+00 0.  1.
     999901    1    3    3    0    0  0.12634829381E+00 -0.14991036622E-01 -0.77167599407E-01  0.89249283522E+00  0.88000000000E+00 0.  1.
        -11    1    4    4    0    0 -0.78839005098E-01  0.25408433953E-02  0.39597006977E-01  0.88262272193E-01  0.51100000000E-03 0. -1.
         11    1    4    4    0    0 -0.26972015461E-01  0.44581259019E-02  0.28040548848E-01  0.39165009961E-01  0.51100000000E-03 0.  1.
</event>
<event>
 8    1  0.1123470E+005  0.1043930E+01  0.7957747E-01            NaN
         13   -1    0    0    0    0  0.00000000000E+00  0.00000000000E+00  0.74505805969E-08  0.10566000000E+00  0.10566000000E+00 0.  1.
     999900   -1    0    0    0    0 -0.00000000000E+00 -0.00000000000E+00 -0.74505805969E-08  0.93827000000E+00  0.93827000000E+00 0.  1.
     999902    2    1    2    0    0 -0.64077219882E-02  0.20196859021E-01  0.10500062863E-01  0.10202820966E+01  0.10200080065E+01 0.  0.
     999903    2    3    3    0    0  0.58994486743E-01  0.11607267959E+00 -0.14868363869E-01  0.13229945096E+00  0.18134499329E-01 0.  0.
         14    1    1    2    0    0  0.64077219882E-02 -0.20196859021E-01 -0.10500062863E-01  0.23647903406E-01  0.00000000000E+00 0. -1.
     999901    1    3    3    0    0 -0.65402208731E-01 -0.95875820570E-01  0.25368426732E-01  0.88798264564E+00  0.88000000000E+00 0. -1.
        -11    1    4    4    0    0  0.10803397460E-01  0.39734068430E-01 -0.42449164435E-02  0.41397947139E-01  0.51100000000E-03 0. -1.
         11    1    4    4    0    0  0.48191089283E-01  0.76338611161E-01 -0.10623447426E-01  0.90901503818E-01  0.51100000000E-03 0.  1.
</event>
<event>
 8    1  0.1123470E+005  0.1043930E+01  0.7957747E-01            NaN
         13   -1    0    0    0    0  0.00000000000E+00  0.00000000000E+00  0.74505805969E-08  0.10566000000E+00  0.10566000000E+00 0. -1.
     999900   -1    0    0    0    0 -0.00000000000E+00 -0.00000000000E+00 -0.74505805969E-08  0.93827000000E+00  0.93827000000E+00 0.  1.
     999902    2    1    2    0    0  0.12020485193E-01  0.40242413659E-02 -0.22180305288E-01  0.10183829351E+01  0.10180624489E+01 0.  0.
     999903    2    3    3    0    0 -0.47785708903E-01 -0.11666686264E+00  0.43252889150E-02  0.12773953284E+00  0.20100977926E-01 0.  0.
         14    1    1    2    0    0 -0.12020485193E-01 -0.40242413659E-02  0.22180305288E-01  0.25547064910E-01  0.00000000000E+00 0. -1.
     999901    1    3    3    0    0  0.59806194096E-01  0.12069110401E+00 -0.26505594203E-01  0.89064340224E+00  0.88000000000E+00 0. -1.
        -11    1    4    4    0    0 -0.35403306543E-01 -0.97247610980E-01 -0.30895325473E-02  0.10353887332E+00  0.51100000000E-03 0. -1.
         11    1    4    4    0    0 -0.12382402360E-01 -0.19419251660E-01  0.74148214624E-02  0.24200659527E-01  0.51100000000E-03 0.  1.
</event>
<event>
 8    1  0.1123470E+005  0.1043930E+01  0.7957747E-01            NaN
         13   -1    0    0    0    0  0.00000000000E+00  0.00000000000E+00  0.74505805969E-08  0.10566000000E+00  0.10566000000E+00 0.  1.
     999900   -1    0    0    0    0 -0.00000000000E+00 -0.00000000000E+00 -0.74505805969E-08  0.93827000000E+00  0.93827000000E+00 0. -1.
     999902    2    1    2    0    0  0.10646898475E-01 -0.25622450479E-01  0.86774740516E-02  0.10148582788E+01  0.10144417978E+01 0.  0.
     999903    2    3    3    0    0  0.77970225776E-01 -0.88801515804E-01  0.48182668902E-01  0.12914687825E+00  0.19806091581E-01 0.  0.
         14    1    1    2    0    0 -0.10646898475E-01  0.25622450479E-01 -0.86774740516E-02  0.29071721167E-01  0.00000000000E+00 0.  1.
     999901    1    3    3    0    0 -0.67323327300E-01  0.63179065325E-01 -0.39505194851E-01  0.88571140058E+00  0.88000000000E+00 0. -1.
        -11    1    4    4    0    0  0.93380827910E-02 -0.21268819559E-01  0.58176322110E-02  0.23951376603E-01  0.51100000000E-03 0.  1.
         11    1    4    4    0    0  0.68632142985E-01 -0.67532696245E-01  0.42365036691E-01  0.10519550165E+00  0.51100000000E-03 0. -1.
</event>
<event>
 8    1  0.1123470E+005  0.1043930E+01  0.7957747E-01            NaN
         13   -1    0    0    0    0  0.00000000000E+00  0.00000000000E+00  0.74505805969E-08  0.10566000000E+00  0.10566000000E+00 0.  1.
     999900   -1    0    0    0    0 -0.00000000000E+00 -0.00000000000E+00 -0.74505805969E-08  0.93827000000E+00  0.93827000000E+00 0.  1.
     999902    2    1    2    0    0  0.12402536504E-01 -0.78511601634E-02 -0.18090468942E-01  0.10206334618E+01  0.10203675488E+01 0.  0.
     999903    2    3    3    0    0 -0.30490996359E-01  0.18620516347E-01 -0.12605292858E+00  0.13260390284E+00  0.20445775978E-01 0.  0.
         14    1    1    2    0    0 -0.12402536504E-01  0.78511601634E-02  0.18090468942E-01  0.23296538244E-01  0.00000000000E+00 0.  1.
     999901    1    3    3    0    0  0.42893532863E-01 -0.26471676510E-01  0.10796245964E+00  0.88802955892E+00  0.88000000000E+00 0. -1.
        -11    1    4    4    0    0 -0.32219981304E-01  0.20779253522E-01 -0.11809326591E+00  0.12416193115E+00  0.51100000000E-03 0.  1.
         11    1    4    4    0    0  0.17289849449E-02 -0.21587371754E-02 -0.79596626754E-02  0.84419716914E-02  0.51100000000E-03 0. -1.
</event>
<event>
 8    1  0.1123470E+005  0.1043930E+01  0.7957747E-01            NaN
         13   -1    0    0    0    0  0.00000000000E+00  0.00000000000E+00  0.74505805969E-08  0.10566000000E+00  0.10566000000E+00 0. -1.
     999900   -1    0    0    0    0 -0.00000000000E+00 -0.00000000000E+00 -0.74505805969E-08  0.93827000000E+00  0.93827000000E+00 0. -1.
     999902    2    1    2    0    0  0.32348997001E-01 -0.16603682461E-02  0.13771511518E-02  0.10115091583E+01  0.10109894492E+01 0.  0.
     999903    2    3    3    0    0  0.27839075995E-01 -0.66912490777E-01  0.98332017196E-01  0.12377134515E+00  0.19946546093E-01 0.  0.
         14    1    1    2    0    0 -0.32348997001E-01  0.16603682461E-02 -0.13771511518E-02  0.32420841676E-01  0.00000000000E+00 0. -1.
     999901    1    3    3    0    0  0.45099210059E-02  0.65252122531E-01 -0.96954866045E-01  0.88773781317E+00  0.88000000000E+00 0. -1.
        -11    1    4    4    0    0  0.12119734704E-01 -0.41455080152E-01  0.43478928882E-01  0.61286948181E-01  0.51100000000E-03 0.  1.
         11    1    4    4    0    0  0.15719341291E-01 -0.25457410625E-01  0.54853088315E-01  0.62484396973E-01  0.51100000000E-03 0. -1.
</event>
<event>
 8    1  0.1123470E+005  0.1043930E+01  0.7957747E-01            NaN
         13   -1    0    0    0    0  0.00000000000E+00  0.00000000000E+00  0.74505805969E-08  0.10566000000E+00  0.10566000000E+00 0.  1.
     999900   -1    0    0    0    0 -0.00000000000E+00 -0.00000000000E+00 -0.74505805969E-08  0.93827000000E+00  0.93827000000E+00 0.  1.
     999902    2    1    2    0    0  0.98079672418E-03 -0.20837159138E-01 -0.11275001816E-01  0.10202176650E+01  0.10199420617E+01 0.  0.
     999903    2    3    3    0    0  0.11169591300E+00 -0.14818673019E-01  0.61991146336E-01  0.13023902057E+00  0.20584708066E-01 0.  0.
         14    1    1    2    0    0 -0.98079672418E-03  0.20837159138E-01  0.11275001816E-01  0.23712334957E-01  0.00000000000E+00 0.  1.
     999901    1    3    3    0    0 -0.11071511627E+00 -0.60184861188E-02 -0.73266148152E-01  0.88997864447E+00  0.88000000000E+00 0.  1.
        -11    1    4    4    0    0  0.48211132806E-01  0.89626883105E-03  0.34502729485E-01  0.59294317495E-01  0.51100000000E-03 0.  1.
         11    1    4    4    0    0  0.63484780189E-01 -0.15714941850E-01  0.27488416851E-01  0.70944703079E-01  0.51100000000E-03 0. -1.
</event>
<event>
 8    1  0.1123470E+005  0.1043930E+01  0.7957747E-01            NaN
         13   -1    0    0    0    0  0.00000000000E+00  0.00000000000E+00  0.74505805969E-08  0.10566000000E+00  0.10566000000E+00 0. -1.
     999900   -1    0    0    0    0 -0.00000000000E+00 -0.00000000000E+00 -0.74505805969E-08  0.93827000000E+00  0.93827000000E+00 0.  1.
     999902    2    1    2    0    0 -0.18855686969E-01  0.98473393157E-02 -0.90692621057E-02  0.10208051532E+01  0.10205431898E+01 0.  0.
     999903    2    3    3    0    0  0.12515321801E+00 -0.14122372949E-01 -0.17460295637E-01  0.12873815953E+00  0.20146523252E-01 0.  0.
         14    1    1    2    0    0  0.18855686969E-01 -0.98473393157E-02  0.90692621057E-02  0.23124846763E-01  0.00000000000E+00 0.  1.
     999901    1    3    3    0    0 -0.14400890498E+00  0.23969712265E-01  0.83910335316E-02  0.89206699371E+00  0.88000000000E+00 0. -1.
        -11    1    4    4    0    0  0.26743068318E-01 -0.54900659478E-02 -0.11918888938E-01  0.29793515430E-01  0.51100000000E-03 0.  1.
         11    1    4    4    0    0  0.98410149693E-01 -0.86323070011E-02 -0.55414066989E-02  0.98944644099E-01  0.51100000000E-03 0. -1.
</event>
<event>
 8    1  0.1123470E+005  0.1043930E+01  0.7957747E-01            NaN
         13   -1    0    0    0    0  0.00000000000E+00  0.00000000000E+00  0.74505805969E-08  0.10566000000E+00  0.10566000000E+00 0. -1.
     999900   -1    0    0    0    0 -0.00000000000E+00 -0.00000000000E+00 -0.74505805969E-08  0.93827000000E+00  0.93827000000E+00 0.  1.
     999902    2    1    2    0    0 -0.17534019220E-01  0.12929846476E-01 -0.95672943637E-02  0.10201359696E+01  0.10198584415E+01 0.  0.
     999903    2    3    3    0    0  0.81793556939E-01 -0.57547855355E-01 -0.79110988507E-01  0.12903025242E+00  0.19705733298E-01 0.  0.
         14    1    1    2    0    0  0.17534019220E-01 -0.12929846476E-01  0.95672943637E-02  0.23794030372E-01  0.00000000000E+00 0.  1.
     999901    1    3    3    0    0 -0.99327576159E-01  0.70477701832E-01  0.69543694143E-01  0.89110571721E+00  0.88000000000E+00 0. -1.
        -11    1    4    4    0    0  0.24560460139E-01 -0.83304707859E-02 -0.14812595409E-01  0.29871174223E-01  0.51100000000E-03 0.  1.
         11    1    4    4    0    0  0.57233096800E-01 -0.49217384570E-01 -0.64298393098E-01  0.99159078199E-01  0.51100000000E-03 0. -1.
</event>
<event>
 8    1  0.1123470E+005  0.1043930E+01  0.7957747E-01            NaN
         13   -1    0    0    0    0  0.00000000000E+00  0.00000000000E+00  0.74505805969E-08  0.10566000000E+00  0.10566000000E+00 0. -1.
     999900   -1    0    0    0    0 -0.00000000000E+00 -0.00000000000E+00 -0.74505805969E-08  0.93827000000E+00  0.93827000000E+00 0. -1.
     999902    2    1    2    0    0 -0.34685247144E-02  0.12964423209E-01  0.21640490192E-01  0.10184659518E+01  0.10181475715E+01 0.  0.
     999903    2    3    3    0    0 -0.88608657018E-01 -0.75605086088E-01 -0.47263329225E-01  0.12726387799E+00  0.19865779893E-01 0.  0.
         14    1    1    2    0    0  0.34685247144E-02 -0.12964423209E-01 -0.21640490192E-01  0.25464048158E-01  0.00000000000E+00 0.  1.
     999901    1    3    3    0    0  0.85140132304E-01  0.88569509298E-01  0.68903819418E-01  0.89120207385E+00  0.88000000000E+00 0.  1.
        -11    1    4    4    0    0 -0.22080062945E-01 -0.18762742537E-01 -0.21369593825E-01  0.36006809750E-01  0.51100000000E-03 0.  1.
         11    1    4    4    0    0 -0.66528594073E-01 -0.56842343552E-01 -0.25893735400E-01  0.91257068240E-01  0.51100000000E-03 0. -1.
</event>
<event>
 8    1  0.1123470E+005  0.1043930E+01  0.7957747E-01            NaN
         13   -1    0    0    0    0  0.00000000000E+00  0.00000000000E+00  0.74505805969E-08  0.10566000000E+00  0.10566000000E+00 0. -1.
     999900   -1    0    0    0    0 -0.00000000000E+00 -0.00000000000E+00 -0.74505805969E-08  0.93827000000E+00  0.93827000000E+00 0. -1.
     999902    2    1    2    0    0  0.12008824271E-01  0.14560941766E-01 -0.14677466281E-01  0.10200205688E+01  0.10197403100E+01 0.  0.
     999903    2    3    3    0    0  0.19149929263E-01  0.10653479181E+00 -0.75185806716E-01  0.13313193780E+00  0.18836816988E-01 0.  0.
         14    1    1    2    0    0 -0.12008824271E-01 -0.14560941766E-01  0.14677466281E-01  0.23909431234E-01  0.00000000000E+00 0. -1.
     999901    1    3    3    0    0 -0.71411049917E-02 -0.91973850044E-01  0.60508340435E-01  0.88688863096E+00  0.88000000000E+00 0.  1.
        -11    1    4    4    0    0  0.11626109129E-01  0.42527829320E-01 -0.40851213737E-01  0.60107116591E-01  0.51100000000E-03 0.  1.
         11    1    4    4    0    0  0.75238201337E-02  0.64006962491E-01 -0.34334592980E-01  0.73024821210E-01  0.51100000000E-03 0. -1.
</event>
<event>
 8    1  0.1123470E+005  0.1043930E+01  0.7957747E-01            NaN
         13   -1    0    0    0    0  0.00000000000E+00  0.00000000000E+00  0.74505805969E-08  0.10566000000E+00  0.10566000000E+00 0. -1.
     999900   -1    0    0    0    0 -0.00000000000E+00 -0.00000000000E+00 -0.74505805969E-08  0.93827000000E+00  0.93827000000E+00 0.  1.
     999902    2    1    2    0    0  0.23886004834E-01 -0.33444565990E-02  0.58522245963E-03  0.10198038917E+01  0.10195184689E+01 0.  0.
     999903    2    3    3    0    0 -0.89503234704E-01  0.54789752150E-01 -0.70006041625E-01  0.12782864964E+00  0.20653615687E-01 0.  0.
         14    1    1    2    0    0 -0.23886004834E-01  0.33444565990E-02 -0.58522245963E-03  0.24126108310E-01  0.00000000000E+00 0.  1.
     999901    1    3    3    0    0  0.11338923954E+00 -0.58134208749E-01  0.70591264084E-01  0.89197524205E+00  0.88000000000E+00 0. -1.
        -11    1    4    4    0    0 -0.61016641815E-02  0.90202329915E-02 -0.12816196360E-01  0.16825900247E-01  0.51100000000E-03 0. -1.
         11    1    4    4    0    0 -0.83401570523E-01  0.45769519159E-01 -0.57189845265E-01  0.11100274939E+00  0.51100000000E-03 0.  1.
</event>
<event>
 8    1  0.1123470E+005  0.1043930E+01  0.7957747E-01            NaN
         13   -1    0    0    0    0  0.00000000000E+00  0.00000000000E+00  0.74505805969E-08  0.10566000000E+00  0.10566000000E+00 0. -1.
     999900   -1    0    0    0    0 -0.00000000000E+00 -0.00000000000E+00 -0.74505805969E-08  0.93827000000E+00  0.93827000000E+00 0. -1.
     999902    2    1    2    0    0  0.10341600010E-01 -0.49097160313E-02 -0.21219570255E-01  0.10198193351E+01  0.10195342819E+01 0.  0.
     999903    2    3    3    0    0  0.81444481911E-01 -0.10008934308E-01 -0.10298981728E+00  0.13315818493E+00  0.19769100890E-01 0.  0.
         14    1    1    2    0    0 -0.10341600010E-01  0.49097160313E-02  0.21219570255E-01  0.24110664945E-01  0.00000000000E+00 0. -1.
     999901    1    3    3    0    0 -0.71102881901E-01  0.50992182770E-02  0.81770247028E-01  0.88666115012E+00  0.88000000000E+00 0.  1.
        -11    1    4    4    0    0  0.17495062345E-01 -0.10165746708E-01 -0.20852925745E-01  0.29060716538E-01  0.51100000000E-03 0.  1.
         11    1    4    4    0    0  0.63949419566E-01  0.15681239984E-03 -0.82136891539E-01  0.10409746839E+00  0.51100000000E-03 0. -1.
</event>
<event>
 8    1  0.1123470E+005  0.1043930E+01  0.7957747E-01            NaN
         13   -1    0    0    0    0  0.00000000000E+00  0.00000000000E+00  0.74505805969E-08  0.10566000000E+00  0.10566000000E+00 0.  1.
     999900   -1    0    0    0    0 -0.00000000000E+00 -0.00000000000E+00 -0.74505805969E-08  0.93827000000E+00  0.93827000000E+00 0. -1.
     999902    2    1    2    0    0  0.10449224667E-01  0.15892448401E-01 -0.18380007807E-02  0.10248215082E+01  0.10246433473E+01 0.  0.
     999903    2    3    3    0    0  0.10596067160E+00  0.27781922492E-01  0.78035048311E-01  0.13597759610E+00  0.20023454579E-01 0.  0.
         14    1    1    2    0    0 -0.10449224667E-01 -0.15892448401E-01  0.18380007807E-02  0.19108491808E-01  0.00000000000E+00 0.  1.
     999901    1    3    3    0    0 -0.95511446933E-01 -0.11889474091E-01 -0.79873049091E-01  0.88884391209E+00  0.88000000000E+00 0. -1.
        -11    1    4    4    0    0  0.45894183082E-01  0.13859087698E-01  0.46209339906E-01  0.66587645762E-01  0.51100000000E-03 0.  1.
         11    1    4    4    0    0  0.60066488518E-01  0.13922834794E-01  0.31825708405E-01  0.69389950339E-01  0.51100000000E-03 0. -1.
</event>
<event>
 8    1  0.1123470E+005  0.1043930E+01  0.7957747E-01            NaN
         13   -1    0    0    0    0  0.00000000000E+00  0.00000000000E+00  0.74505805969E-08  0.10566000000E+00  0.10566000000E+00 0.  1.
     999900   -1    0    0    0    0 -0.00000000000E+00 -0.00000000000E+00 -0.74505805969E-08  0.93827000000E+00  0.93827000000E+00 0. -1.
     999902    2    1    2    0    0 -0.15356146711E-01  0.36654760131E-02 -0.31152242234E-01  0.10090056653E+01  0.10084010727E+01 0.  0.
     999903    2    3    3    0    0  0.78912377689E-02  0.11871883533E+00 -0.22749434777E-02  0.12074240775E+00  0.20423519892E-01 0.  0.
         14    1    1    2    0    0  0.15356146711E-01 -0.36654760131E-02  0.31152242234E-01  0.34924334674E-01  0.00000000000E+00 0.  1.
     999901    1    3    3    0    0 -0.23247384480E-01 -0.11505335932E+00 -0.28877298757E-01  0.88826325758E+00  0.88000000000E+00 0.  1.
        -11    1    4    4    0    0  0.13459737493E-01  0.73074028471E-01 -0.63515328888E-02  0.74576009959E-01  0.51100000000E-03 0. -1.
         11    1    4    4    0    0 -0.55684997242E-02  0.45644806863E-01  0.40765894111E-02  0.46166397791E-01  0.51100000000E-03 0.  1.
</event>
<event>
 8    1  0.1123470E+005  0.1043930E+01  0.7957747E-01            NaN
         13   -1    0    0    0    0  0.00000000000E+00  0.00000000000E+00  0.74505805969E-08  0.10566000000E+00  0.10566000000E+00 0. -1.
     999900   -1    0    0    0    0 -0.00000000000E+00 -0.00000000000E+00 -0.74505805969E-08  0.93827000000E+00  0.93827000000E+00 0. -1.
     999902    2    1    2    0    0  0.13538070656E-01  0.13420059751E-01  0.12595671913E-01  0.10210820611E+01  0.10208264040E+01 0.  0.
     999903    2    3    3    0    0  0.29689546568E-01 -0.40245084584E-01  0.12124851478E+00  0.13263045401E+00  0.19710377636E-01 0.  0.
         14    1    1    2    0    0 -0.13538070656E-01 -0.13420059751E-01 -0.12595671913E-01  0.22847938895E-01  0.00000000000E+00 0.  1.
     999901    1    3    3    0    0 -0.16151475911E-01  0.53665144335E-01 -0.10865284286E+00  0.88845160710E+00  0.88000000000E+00 0. -1.
        -11    1    4    4    0    0  0.16065303129E-01 -0.17865512261E-01  0.81910119447E-01  0.85362751138E-01  0.51100000000E-03 0. -1.
         11    1    4    4    0    0  0.13624243438E-01 -0.22379572323E-01  0.39338395328E-01  0.47267702870E-01  0.51100000000E-03 0.  1.
</event>
<event>
 8    1  0.1123470E+005  0.1043930E+01  0.7957747E-01            NaN
         13   -1    0    0    0    0  0.00000000000E+00  0.00000000000E+00  0.74505805969E-08  0.10566000000E+00  0.10566000000E+00 0. -1.
     999900   -1    0    0    0    0 -0.00000000000E+00 -0.00000000000E+00 -0.74505805969E-08  0.93827000000E+00  0.93827000000E+00 0. -1.
     999902    2    1    2    0    0  0.22032240746E-01  0.78491645277E-02  0.33325840024E-02  0.10203051163E+01  0.10200315657E+01 0.  0.
     999903    2    3    3    0    0  0.54462664853E-01  0.87077497340E-02 -0.11750753360E+00  0.13145484562E+00  0.20744859977E-01 0.  0.
         14    1    1    2    0    0 -0.22032240746E-01 -0.78491645277E-02 -0.33325840024E-02  0.23624883750E-01  0.00000000000E+00 0. -1.
     999901    1    3    3    0    0 -0.32430424107E-01 -0.85858520628E-03  0.12084011760E+00  0.88885027063E+00  0.88000000000E+00 0.  1.
        -11    1    4    4    0    0  0.40615062978E-01  0.23076669199E-03 -0.66508649595E-01  0.77931368434E-01  0.51100000000E-03 0.  1.
         11    1    4    4    0    0  0.13847601875E-01  0.84769830420E-02 -0.50998884007E-01  0.53523477186E-01  0.51100000000E-03 0. -1.
</event>
<event>
 8    1  0.1123470E+005  0.1043930E+01  0.7957747E-01            NaN
         13   -1    0    0    0    0  0.00000000000E+00  0.00000000000E+00  0.74505805969E-08  0.10566000000E+00  0.10566000000E+00 0.  1.
     999900   -1    0    0    0    0 -0.00000000000E+00 -0.00000000000E+00 -0.74505805969E-08  0.93827000000E+00  0.93827000000E+00 0. -1.
     999902    2    1    2    0    0  0.13619751176E-01  0.17959197224E-01  0.62903981078E-02  0.10205291561E+01  0.10202608289E+01 0.  0.
     999903    2    3    3    0    0 -0.81204017291E-01  0.41196017755E-01  0.92011188822E-01  0.13099020200E+00  0.20029224860E-01 0.  0.
         14    1    1    2    0    0 -0.13619751176E-01 -0.17959197224E-01 -0.62903981078E-02  0.23400843903E-01  0.00000000000E+00 0. -1.
     999901    1    3    3    0    0  0.94823768467E-01 -0.23236820531E-01 -0.85720790715E-01  0.88953895410E+00  0.88000000000E+00 0. -1.
        -11    1    4    4    0    0 -0.51459349995E-01  0.16335266656E-01  0.46990740506E-01  0.71577206239E-01  0.51100000000E-03 0. -1.
         11    1    4    4    0    0 -0.29744667296E-01  0.24860751099E-01  0.45020448316E-01  0.59412995761E-01  0.51100000000E-03 0.  1.
</event>
<event>
 8    1  0.1123470E+005  0.1043930E+01  0.7957747E-01            NaN
         13   -1    0    0    0    0  0.00000000000E+00  0.00000000000E+00  0.74505805969E-08  0.10566000000E+00  0.10566000000E+00 0.  1.
     999900   -1    0    0    0    0 -0.00000000000E+00 -0.00000000000E+00 -0.74505805969E-08  0.93827000000E+00  0.93827000000E+00 0. -1.
     999902    2    1    2    0    0 -0.11549325741E-01 -0.24348892451E-02 -0.20866881706E-01  0.10199562151E+01  0.10196744276E+01 0.  0.
     999903    2    3    3    0    0  0.85450285083E-01 -0.76985648539E-01 -0.58360011970E-01  0.13070232838E+00  0.21181745575E-01 0.  0.
         14    1    1    2    0    0  0.11549325741E-01  0.24348892451E-02  0.20866881706E-01  0.23973784908E-01  0.00000000000E+00 0. -1.
     999901    1    3    3    0    0 -0.96999610825E-01  0.74550759294E-01  0.37493130264E-01  0.88925388671E+00  0.88000000000E+00 0. -1.
        -11    1    4    4    0    0  0.58883197443E-01 -0.48925120738E-01 -0.27855605789E-01  0.81468363646E-01  0.51100000000E-03 0.  1.
         11    1    4    4    0    0  0.26567087640E-01 -0.28060527801E-01 -0.30504406181E-01  0.49233964736E-01  0.51100000000E-03 0. -1.
</event>
<event>
 8    1  0.1123470E+005  0.1043930E+01  0.7957747E-01            NaN
         13   -1    0    0    0    0  0.00000000000E+00  0.00000000000E+00  0.74505805969E-08  0.10566000000E+00  0.10566000000E+00 0. -1.
     999900   -1    0    0    0    0 -0.00000000000E+00 -0.00000000000E+00 -0.74505805969E-08  0.93827000000E+00  0.93827000000E+00 0.  1.
     999902    2    1    2    0    0 -0.39228022317E-02  0.13324873352E-02 -0.26906810032E-01  0.10167061074E+01  0.10163415610E+01 0.  0.
     999903    2    3    3    0    0 -0.88103359999E-01 -0.84599155232E-01 -0.33713613389E-01  0.12849614011E+00  0.21340833772E-01 0.  0.
         14    1    1    2    0    0  0.39228022317E-02 -0.13324873352E-02  0.26906810032E-01  0.27223892557E-01  0.00000000000E+00 0. -1.
     999901    1    3    3    0    0  0.84180557767E-01  0.85931642568E-01  0.68068033572E-02  0.88820996733E+00  0.88000000000E+00 0. -1.
        -11    1    4    4    0    0 -0.61110949221E-01 -0.67669103294E-01 -0.17897955724E-01  0.92920684433E-01  0.51100000000E-03 0. -1.
         11    1    4    4    0    0 -0.26992410778E-01 -0.16930051938E-01 -0.15815657665E-01  0.35575455677E-01  0.51100000000E-03 0.  1.
</event>
<event>
 8    1  0.1123470E+005  0.1043930E+01  0.7957747E-01            NaN
         13   -1    0    0    0    0  0.00000000000E+00  0.00000000000E+00  0.74505805969E-08  0.10566000000E+00  0.10566000000E+00 0. -1.
     999900   -1    0    0    0    0 -0.00000000000E+00 -0.00000000000E+00 -0.74505805969E-08  0.93827000000E+00  0.93827000000E+00 0. -1.
     999902    2    1    2    0    0  0.90711605762E-02  0.12482484395E-02  0.14889540565E-01  0.10264502261E+01  0.10263013807E+01 0.  0.
     999903    2    3    3    0    0 -0.45558027039E-01  0.68990510135E-01 -0.10355115870E+00  0.13426103010E+00  0.21632323496E-01 0.  0.
         14    1    1    2    0    0 -0.90711605762E-02 -0.12482484395E-02 -0.14889540565E-01  0.17479773929E-01  0.00000000000E+00 0.  1.
     999901    1    3    3    0    0  0.54629187616E-01 -0.67742261696E-01  0.11844069927E+00  0.89218919597E+00  0.88000000000E+00 0.  1.
        -11    1    4    4    0    0 -0.32693926978E-02  0.16559091506E-01 -0.30711553294E-01  0.35047868221E-01  0.51100000000E-03 0.  1.
         11    1    4    4    0    0 -0.42288634342E-01  0.52431418629E-01 -0.72839605406E-01  0.99213161882E-01  0.51100000000E-03 0. -1.
</event>
<event>
 8    1  0.1123470E+005  0.1043930E+01  0.7957747E-01            NaN
         13   -1    0    0    0    0  0.00000000000E+00  0.00000000000E+00  0.74505805969E-08  0.10566000000E+00  0.10566000000E+00 0. -1.
     999900   -1    0    0    0    0 -0.00000000000E+00 -0.00000000000E+00 -0.74505805969E-08  0.93827000000E+00  0.93827000000E+00 0. -1.
     999902    2    1    2    0    0 -0.19530673533E-01  0.13001708957E-01  0.96078012055E-03  0.10204477782E+01  0.10201775596E+01 0.  0.
     999903    2    3    3    0    0  0.10147005700E+00  0.77714228416E-01  0.11311900898E-01  0.12975364846E+00  0.19297057344E-01 0.  0.
         14    1    1    2    0    0  0.19530673533E-01 -0.13001708957E-01 -0.96078012055E-03  0.23482221847E-01  0.00000000000E+00 0. -1.
     999901    1    3    3    0    0 -0.12100073053E+00 -0.64712519459E-01 -0.10351120777E-01  0.89069412969E+00  0.88000000000E+00 0. -1.
        -11    1    4    4    0    0  0.61927793422E-01  0.38915508884E-01  0.13189501845E-01  0.74321548085E-01  0.51100000000E-03 0. -1.
         11    1    4    4    0    0  0.39542263575E-01  0.38798719533E-01 -0.18776009471E-02  0.55432100378E-01  0.51100000000E-03 0.  1.
</event>
<event>
 8    1  0.1123470E+005  0.1043930E+01  0.7957747E-01            NaN
         13   -1    0    0    0    0  0.00000000000E+00  0.00000000000E+00  0.74505805969E-08  0.10566000000E+00  0.10566000000E+00 0.  1.
     999900   -1    0    0    0    0 -0.00000000000E+00 -0.00000000000E+00 -0.74505805969E-08  0.93827000000E+00  0.93827000000E+00 0. -1.
     999902    2    1    2    0    0  0.39000798867E-02 -0.16975147940E-01 -0.14113944433E-01  0.10215119337E+01  0.10212659110E+01 0.  0.
     999903    2    3    3    0    0  0.10493971355E+00  0.69334151311E-01  0.29733897766E-01  0.13045585464E+00  0.17749853974E-01 0.  0.
         14    1    1    2    0    0 -0.39000798867E-02  0.16975147940E-01  0.14113944433E-01  0.22418066334E-01  0.00000000000E+00 0.  1.
     999901    1    3    3    0    0 -0.10103963366E+00 -0.86309299250E-01 -0.43847842198E-01  0.89105607903E+00  0.88000000000E+00 0. -1.
        -11    1    4    4    0    0  0.50734886129E-01  0.22985010731E-01  0.13174113077E-01  0.57237730259E-01  0.51100000000E-03 0. -1.
         11    1    4    4    0    0  0.54204827417E-01  0.46349140579E-01  0.16559784689E-01  0.73218124380E-01  0.51100000000E-03 0.  1.
</event>
<event>
 8    1  0.1123470E+005  0.1043930E+01  0.7957747E-01            NaN
         13   -1    0    0    0    0  0.00000000000E+00  0.00000000000E+00  0.74505805969E-08  0.10566000000E+00  0.10566000000E+00 0. -1.
     999900   -1    0    0    0    0 -0.00000000000E+00 -0.00000000000E+00 -0.74505805969E-08  0.93827000000E+00  0.93827000000E+00 0.  1.
     999902    2    1    2    0    0  0.10001384438E-01  0.14976850237E-01  0.15497109595E-01  0.10201709146E+01  0.10198942106E+01 0.  0.
     999903    2    3    3    0    0 -0.96442625237E-01  0.77795697621E-01 -0.34321952541E-01  0.13013806478E+00  0.20113899379E-01 0.  0.
         14    1    1    2    0    0 -0.10001384438E-01 -0.14976850237E-01 -0.15497109595E-01  0.23759085410E-01  0.00000000000E+00 0.  1.
     999901    1    3    3    0    0  0.10644400968E+00 -0.62818847384E-01  0.49819062137E-01  0.89003284981E+00  0.88000000000E+00 0. -1.
        -11    1    4    4    0    0 -0.81910383455E-01  0.57440047499E-01 -0.22869895662E-01  0.10262535370E+00  0.51100000000E-03 0.  1.
         11    1    4    4    0    0 -0.14532241782E-01  0.20355650122E-01 -0.11452056880E-01  0.27512711078E-01  0.51100000000E-03 0. -1.
</event>
<event>
 8    1  0.1123470E+005  0.1043930E+01  0.7957747E-01            NaN
         13   -1    0    0    0    0  0.00000000000E+00  0.00000000000E+00  0.74505805969E-08  0.10566000000E+00  0.10566000000E+00 0.  1.
     999900   -1    0    0    0    0 -0.00000000000E+00 -0.00000000000E+00 -0.74505805969E-08  0.93827000000E+00  0.93827000000E+00 0.  1.
     999902    2    1    2    0    0  0.11034762727E-01 -0.18505796096E-01 -0.95052338992E-02  0.10203804788E+01  0.10201086910E+01 0.  0.
     999903    2    3    3    0    0 -0.30078233055E-01 -0.88063059153E-01 -0.92430299780E-01  0.13279664736E+00  0.20779478872E-01 0.  0.
         14    1    1    2    0    0 -0.11034762727E-01  0.18505796096E-01  0.95052338992E-02  0.23549521207E-01  0.00000000000E+00 0.  1.
     999901    1    3    3    0    0  0.41112995782E-01  0.69557263057E-01  0.82925065881E-01  0.88758383143E+00  0.88000000000E+00 0. -1.
        -11    1    4    4    0    0 -0.20888412819E-01 -0.40718101174E-01 -0.33898177707E-01  0.56952937819E-01  0.51100000000E-03 0. -1.
         11    1    4    4    0    0 -0.91898202359E-02 -0.47344957979E-01 -0.58532122073E-01  0.75843709544E-01  0.51100000000E-03 0.  1.
</event>
<event>
 8    1  0.1123470E+005  0.1043930E+01  0.7957747E-01            NaN
         13   -1    0    0    0    0  0.00000000000E+00  0.00000000000E+00  0.74505805969E-08  0.10566000000E+00  0.10566000000E+00 0. -1.
     999900   -1    0    0    0    0 -0.00000000000E+00 -0.00000000000E+00 -0.74505805969E-08  0.93827000000E+00  0.93827000000E+00 0.  1.
     999902    2    1    2    0    0 -0.11537418962E-02  0.23689790722E-01  0.85024306166E-03  0.10201968962E+01  0.10199208041E+01 0.  0.
     999903    2    3    3    0    0 -0.35164271154E-01 -0.84297619869E-01 -0.88453886571E-01  0.12846082280E+00  0.18316065756E-01 0.  0.
         14    1    1    2    0    0  0.11537418962E-02 -0.23689790722E-01 -0.85024306166E-03  0.23733103844E-01  0.00000000000E+00 0. -1.
     999901    1    3    3    0    0  0.34010529258E-01  0.10798741059E+00  0.89304129632E-01  0.89173607335E+00  0.88000000000E+00 0. -1.
        -11    1    4    4    0    0 -0.32945621637E-01 -0.67196657639E-01 -0.63645996567E-01  0.98243975810E-01  0.51100000000E-03 0. -1.
         11    1    4    4    0    0 -0.22186495177E-02 -0.17100962230E-01 -0.24807890004E-01  0.30216846995E-01  0.51100000000E-03 0.  1.
</event>
<event>
 8    1  0.1123470E+005  0.1043930E+01  0.7957747E-01            NaN
         13   -1    0    0    0    0  0.00000000000E+00  0.00000000000E+00  0.74505805969E-08  0.10566000000E+00  0.10566000000E+00 0.  1.
     999900   -1    0    0    0    0 -0.00000000000E+00 -0.00000000000E+00 -0.74505805969E-08  0.93827000000E+00  0.93827000000E+00 0. -1.
     999902    2    1    2    0    0 -0.11633404869E-01 -0.19944914353E-01  0.46407928411E-02  0.10203785101E+01  0.10201066764E+01 0.  0.
     999903    2    3    3    0    0 -0.51813603583E-01  0.28356347725E-01 -0.11406513885E+00  0.13018832903E+00  0.21199366558E-01 0.  0.
         14    1    1    2    0    0  0.11633404869E-01  0.19944914353E-01 -0.46407928411E-02  0.23551489880E-01  0.00000000000E+00 0. -1.
     999901    1    3    3    0    0  0.40180198714E-01 -0.48301262078E-01  0.11870593169E+00  0.89019018109E+00  0.88000000000E+00 0.  1.
        -11    1    4    4    0    0 -0.27085794021E-01  0.62997566466E-02 -0.67761664828E-01  0.73247740667E-01  0.51100000000E-03 0. -1.
         11    1    4    4    0    0 -0.24727809562E-01  0.22056591078E-01 -0.46303474022E-01  0.56940588364E-01  0.51100000000E-03 0.  1.
</event>
<event>
 8    1  0.1123470E+005  0.1043930E+01  0.7957747E-01            NaN
         13   -1    0    0    0    0  0.00000000000E+00  0.00000000000E+00  0.74505805969E-08  0.10566000000E+00  0.10566000000E+00 0. -1.
     999900   -1    0    0    0    0 -0.00000000000E+00 -0.00000000000E+00 -0.74505805969E-08  0.93827000000E+00  0.93827000000E+00 0. -1.
     999902    2    1    2    0    0 -0.22232488338E-02 -0.10032326403E-01  0.17995201261E-01  0.10232076045E+01  0.10229977440E+01 0.  0.
     999903    2    3    3    0    0  0.63841565265E-01  0.67089410958E-01  0.94909861266E-01  0.13403485018E+00  0.19512170011E-01 0.  0.
         14    1    1    2    0    0  0.22232488338E-02  0.10032326403E-01 -0.17995201261E-01  0.20722395539E-01  0.00000000000E+00 0. -1.
     999901    1    3    3    0    0 -0.66064814099E-01 -0.77121737361E-01 -0.76914660005E-01  0.88917275428E+00  0.88000000000E+00 0. -1.
        -11    1    4    4    0    0  0.23746359122E-01  0.13727320682E-01  0.33852314622E-01  0.43572574298E-01  0.51100000000E-03 0. -1.
         11    1    4    4    0    0  0.40095206143E-01  0.53362090276E-01  0.61057546644E-01  0.90462275880E-01  0.51100000000E-03 0.  1.
</event>
<event>
 8    1  0.1123470E+005  0.1043930E+01  0.7957747E-01            NaN
         13   -1    0    0    0    0  0.00000000000E+00  0.00000000000E+00  0.74505805969E-08  0.10566000000E+00  0.10566000000E+00 0. -1.
     999900   -1    0    0    0    0 -0.00000000000E+00 -0.00000000000E+00 -0.74505805969E-08  0.93827000000E+00  0.93827000000E+00 0. -1.
     999902    2    1    2    0    0  0.12244399737E-01  0.10881904877E-01 -0.16894410053E-01  0.10203978460E+01  0.10201264637E+01 0.  0.
     999903    2    3    3    0    0 -0.10736329257E+00  0.55329283450E-01  0.41593288384E-01  0.12927362329E+00  0.19835872581E-01 0.  0.
         14    1    1    2    0    0 -0.12244399737E-01 -0.10881904877E-01  0.16894410053E-01  0.23532153954E-01  0.00000000000E+00 0. -1.
     999901    1    3    3    0    0  0.11960769230E+00 -0.44447378573E-01 -0.58487698437E-01  0.89112422276E+00  0.88000000000E+00 0. -1.
        -11    1    4    4    0    0 -0.53930248023E-01  0.34948519425E-01  0.29985270171E-01  0.70917192627E-01  0.51100000000E-03 0. -1.
         11    1    4    4    0    0 -0.53433044545E-01  0.20380764025E-01  0.11608018213E-01  0.58356430660E-01  0.51100000000E-03 0.  1.
</event>
<event>
 8    1  0.1123470E+005  0.1043930E+01  0.7957747E-01            NaN
         13   -1    0    0    0    0  0.00000000000E+00  0.00000000000E+00  0.74505805969E-08  0.10566000000E+00  0.10566000000E+00 0.  1.
     999900   -1    0    0    0    0 -0.00000000000E+00 -0.00000000000E+00 -0.74505805969E-08  0.93827000000E+00  0.93827000000E+00 0. -1.
     999902    2    1    2    0    0  0.84781170008E-02  0.18753816626E-01  0.10879802125E-01  0.10206500902E+01  0.10203845610E+01 0.  0.
     999903    2    3    3    0    0 -0.59924173246E-01 -0.10307429350E+00 -0.42742380388E-01  0.12801561844E+00  0.18597606362E-01 0.  0.
         14    1    1    2    0    0 -0.84781170008E-02 -0.18753816626E-01 -0.10879802125E-01  0.23279909798E-01  0.00000000000E+00 0. -1.
     999901    1    3    3    0    0  0.68402290247E-01  0.12182811013E+00  0.53622182513E-01  0.89263447177E+00  0.88000000000E+00 0. -1.
        -11    1    4    4    0    0 -0.28575740492E-01 -0.62512724504E-01 -0.31097143974E-01  0.75443403648E-01  0.51100000000E-03 0. -1.
         11    1    4    4    0    0 -0.31348432754E-01 -0.40561568995E-01 -0.11645236414E-01  0.52572214788E-01  0.51100000000E-03 0.  1.
</event>
<event>
 8    1  0.1123470E+005  0.1043930E+01  0.7957747E-01            NaN
         13   -1    0    0    0    0  0.00000000000E+00  0.00000000000E+00  0.74505805969E-08  0.10566000000E+00  0.10566000000E+00 0. -1.
     999900   -1    0    0    0    0 -0.00000000000E+00 -0.00000000000E+00 -0.74505805969E-08  0.93827000000E+00  0.93827000000E+00 0. -1.
     999902    2    1    2    0    0 -0.32220950880E-02 -0.13769326648E-01  0.22648605358E-01  0.10172291465E+01  0.10168786559E+01 0.  0.
     999903    2    3    3    0    0 -0.56705951781E-01 -0.75041505608E-01 -0.83309191097E-01  0.12714945486E+00  0.19487688881E-01 0.  0.
         14    1    1    2    0    0  0.32220950880E-02  0.13769326648E-01 -0.22648605358E-01  0.26700853502E-01  0.00000000000E+00 0.  1.
     999901    1    3    3    0    0  0.53483856693E-01  0.61272178960E-01  0.10595779645E+00  0.89007969164E+00  0.88000000000E+00 0.  1.
        -11    1    4    4    0    0 -0.20866249388E-01 -0.34088348383E-01 -0.47132041001E-01  0.61798918025E-01  0.51100000000E-03 0. -1.
         11    1    4    4    0    0 -0.35839702393E-01 -0.40953157224E-01 -0.36177150095E-01  0.65350536833E-01  0.51100000000E-03 0.  1.
</event>
<event>
 8    1  0.1123470E+005  0.1043930E+01  0.7957747E-01            NaN
         13   -1    0    0    0    0  0.00000000000E+00  0.00000000000E+00  0.74505805969E-08  0.10566000000E+00  0.10566000000E+00 0.  1.
     999900   -1    0    0    0    0 -0.00000000000E+00 -0.00000000000E+00 -0.74505805969E-08  0.93827000000E+00  0.93827000000E+00 0.  1.
     999902    2    1    2    0    0 -0.20749848013E-01 -0.38127961186E-02 -0.10545496579E-01  0.10203439638E+01  0.10200713227E+01 0.  0.
     999903    2    3    3    0    0  0.26532263269E-01 -0.12610270760E+00 -0.45826408319E-02  0.13061030916E+00  0.20789382000E-01 0.  0.
         14    1    1    2    0    0  0.20749848013E-01  0.38127961186E-02  0.10545496579E-01  0.23586036227E-01  0.00000000000E+00 0.  1.
     999901    1    3    3    0    0 -0.47282111282E-01  0.12228991148E+00 -0.59628557471E-02  0.88973365461E+00  0.88000000000E+00 0.  1.
        -11    1    4    4    0    0  0.54111355397E-02 -0.66258842327E-01 -0.85167836890E-02  0.67024706637E-01  0.51100000000E-03 0.  1.
         11    1    4    4    0    0  0.21121127729E-01 -0.59843865274E-01  0.39341428571E-02  0.63585602525E-01  0.51100000000E-03 0. -1.
</event>
<event>
 8    1  0.1123470E+005  0.1043930E+01  0.7957747E-01            NaN
         13   -1    0    0    0    0  0.00000000000E+00  0.00000000000E+00  0.74505805969E-08  0.10566000000E+00  0.10566000000E+00 0.  1.
     999900   -1    0    0    0    0 -0.00000000000E+00 -0.00000000000E+00 -0.74505805969E-08  0.93827000000E+00  0.93827000000E+00 0.  1.
     999902    2    1    2    0    0  0.11848085971E-01  0.20115817878E-01 -0.40024299498E-03  0.10205808359E+01  0.10203137062E+01 0.  0.
     999903    2    3    3    0    0  0.16557227917E-01 -0.11238050760E+00  0.57278868146E-01  0.12878246622E+00  0.20013360203E-01 0.  0.
         14    1    1    2    0    0 -0.11848085971E-01 -0.20115817878E-01  0.40024299498E-03  0.23349164108E-01  0.00000000000E+00 0.  1.
     999901    1    3    3    0    0 -0.47091419456E-02  0.13249632547E+00 -0.57679111141E-01  0.89179836967E+00  0.88000000000E+00 0.  1.
        -11    1    4    4    0    0  0.10448711120E-01 -0.78499870232E-01  0.49794741005E-01  0.93547755416E-01  0.51100000000E-03 0. -1.
         11    1    4    4    0    0  0.61085167965E-02 -0.33880637364E-01  0.74841271412E-02  0.35234710808E-01  0.51100000000E-03 0.  1.
</event>
<event>
 8    1  0.1123470E+005  0.1043930E+01  0.7957747E-01            NaN
         13   -1    0    0    0    0  0.00000000000E+00  0.00000000000E+00  0.74505805969E-08  0.10566000000E+00  0.10566000000E+00 0. -1.
     999900   -1    0    0    0    0 -0.00000000000E+00 -0.00000000000E+00 -0.74505805969E-08  0.93827000000E+00  0.93827000000E+00 0. -1.
     999902    2    1    2    0    0  0.11659092757E-01 -0.51339864671E-02  0.18532472813E-01  0.10214412293E+01  0.10211936349E+01 0.  0.
     999903    2    3    3    0    0 -0.12221792121E+00  0.13785587363E-01  0.40847729816E-01  0.13083526934E+00  0.17946252781E-01 0.  0.
         14    1    1    2    0    0 -0.11659092757E-01  0.51339864671E-02 -0.18532472813E-01  0.22488770743E-01  0.00000000000E+00 0. -1.
     999901    1    3    3    0    0  0.13387701397E+00 -0.18919573830E-01 -0.22315257002E-01  0.89060595992E+00  0.88000000000E+00 0. -1.
        -11    1    4    4    0    0 -0.42537777257E-01 -0.34985924246E-02  0.16217166514E-01  0.45661365000E-01  0.51100000000E-03 0.  1.
         11    1    4    4    0    0 -0.79680143952E-01  0.17284179788E-01  0.24630563302E-01  0.85173904341E-01  0.51100000000E-03 0. -1.
</event>
<event>
 8    1  0.1123470E+005  0.1043930E+01  0.7957747E-01            NaN
         13   -1    0    0    0    0  0.00000000000E+00  0.00000000000E+00  0.74505805969E-08  0.10566000000E+00  0.10566000000E+00 0.  1.
     999900   -1    0    0    0    0 -0.00000000000E+00 -0.00000000000E+00 -0.74505805969E-08  0.93827000000E+00  0.93827000000E+00 0. -1.
     999902    2    1    2    0    0  0.10054605206E-01 -0.14722930221E-01 -0.14283044685E-01  0.10210856325E+01  0.10208300563E+01 0.  0.
     999903    2    3    3    0    0 -0.12826159376E+00 -0.35074459789E-02 -0.10060702730E-01  0.13020124824E+00  0.19692858937E-01 0.  0.
         14    1    1    2    0    0 -0.10054605206E-01  0.14722930221E-01  0.14283044685E-01  0.22844367481E-01  0.00000000000E+00 0.  1.
     999901    1    3    3    0    0  0.13831619896E+00 -0.11215484242E-01 -0.42223419546E-02  0.89088438428E+00  0.88000000000E+00 0. -1.
        -11    1    4    4    0    0 -0.59036411654E-01  0.71579735630E-02 -0.23370100908E-03  0.59471423589E-01  0.51100000000E-03 0. -1.
         11    1    4    4    0    0 -0.69225182103E-01 -0.10665419542E-01 -0.98270017210E-02  0.70729824650E-01  0.51100000000E-03 0.  1.
</event>
<event>
 8    1  0.1123470E+005  0.1043930E+01  0.7957747E-01            NaN
         13   -1    0    0    0    0  0.00000000000E+00  0.00000000000E+00  0.74505805969E-08  0.10566000000E+00  0.10566000000E+00 0.  1.
     999900   -1    0    0    0    0 -0.00000000000E+00 -0.00000000000E+00 -0.74505805969E-08  0.93827000000E+00  0.93827000000E+00 0.  1.
     999902    2    1    2    0    0 -0.79542412281E-02 -0.12102629496E-01 -0.18419228381E-01  0.10204990041E+01  0.10202299769E+01 0.  0.
     999903    2    3    3    0    0  0.31809771455E-01  0.11140677456E+00  0.51367356213E-01  0.12825132718E+00  0.19658755367E-01 0.  0.
         14    1    1    2    0    0  0.79542412281E-02  0.12102629496E-01  0.18419228381E-01  0.23430995890E-01  0.00000000000E+00 0.  1.
     999901    1    3    3    0    0 -0.39764012683E-01 -0.12350940405E+00 -0.69786584594E-01  0.89224767693E+00  0.88000000000E+00 0. -1.
        -11    1    4    4    0    0  0.10837889534E-01  0.69094518942E-01  0.25804078235E-01  0.74549473318E-01  0.51100000000E-03 0.  1.
         11    1    4    4    0    0  0.20971881922E-01  0.42312255614E-01  0.25563277978E-01  0.53701853864E-01  0.51100000000E-03 0. -1.
</event>
<event>
 8    1  0.1123470E+005  0.1043930E+01  0.7957747E-01            NaN
         13   -1    0    0    0    0  0.00000000000E+00  0.00000000000E+00  0.74505805969E-08  0.10566000000E+00  0.10566000000E+00 0.  1.
     999900   -1    0    0    0    0 -0.00000000000E+00 -0.00000000000E+00 -0.74505805969E-08  0.93827000000E+00  0.93827000000E+00 0.  1.
     999902    2    1    2    0    0  0.19294859079E-01  0.14284702813E-01 -0.49902186407E-02  0.10194096696E+01  0.10191147275E+01 0.  0.
     999903    2    3    3    0    0 -0.89581790735E-01 -0.76427493835E-01  0.42145059116E-01  0.12682658556E+00  0.21040859070E-01 0.  0.
         14    1    1    2    0    0 -0.19294859079E-01 -0.14284702813E-01  0.49902186407E-02  0.24520330410E-01  0.00000000000E+00 0.  1.
     999901    1    3    3    0    0  0.10887664981E+00  0.90712196648E-01 -0.47135277757E-01  0.89258308403E+00  0.88000000000E+00 0. -1.
        -11    1    4    4    0    0 -0.12372862330E-01 -0.15795949072E-01  0.14737612029E-01  0.24900965014E-01  0.51100000000E-03 0.  1.
         11    1    4    4    0    0 -0.77208928405E-01 -0.60631544763E-01  0.27407447087E-01  0.10192562054E+00  0.51100000000E-03 0. -1.
</event>
<event>
 8    1  0.1123470E+005  0.1043930E+01  0.7957747E-01            NaN
         13   -1    0    0    0    0  0.00000000000E+00  0.00000000000E+00  0.74505805969E-08  0.10566000000E+00  0.10566000000E+00 0. -1.
     999900   -1    0    0    0    0 -0.00000000000E+00 -0.00000000000E+00 -0.74505805969E-08  0.93827000000E+00  0.93827000000E+00 0. -1.
     999902    2    1    2    0    0  0.21062657206E-01  0.59677787509E-02 -0.12002692839E-01  0.10189637318E+01  0.10186578288E+01 0.  0.
     999903    2    3    3    0    0 -0.55697991597E-01 -0.29756507761E-01 -0.11099944504E+00  0.12937462509E+00  0.20717161864E-01 0.  0.
         14    1    1    2    0    0 -0.21062657206E-01 -0.59677787509E-02  0.12002692839E-01  0.24966268186E-01  0.00000000000E+00 0. -1.
     999901    1    3    3    0    0  0.76760648803E-01  0.35724286512E-01  0.98996752204E-01  0.88958910672E+00  0.88000000000E+00 0.  1.
        -11    1    4    4    0    0 -0.34469631787E-01 -0.68122983702E-02 -0.61417704009E-01  0.70759864410E-01  0.51100000000E-03 0.  1.
         11    1    4    4    0    0 -0.21228359811E-01 -0.22944209391E-01 -0.49581741034E-01  0.58614760682E-01  0.51100000000E-03 0. -1.
</event>
<event>
 8    1  0.1123470E+005  0.1043930E+01  0.7957747E-01            NaN
         13   -1    0    0    0    0  0.00000000000E+00  0.00000000000E+00  0.74505805969E-08  0.10566000000E+00  0.10566000000E+00 0. -1.
     999900   -1    0    0    0    0 -0.00000000000E+00 -0.00000000000E+00 -0.74505805969E-08  0.93827000000E+00  0.93827000000E+00 0. -1.
     999902    2    1    2    0    0  0.36357952153E-02  0.22468691678E-01 -0.78445658513E-02  0.10198551516E+01  0.10195709548E+01 0.  0.
     999903    2    3    3    0    0 -0.72275828628E-01 -0.96668178961E-01  0.36226076733E-01  0.12749962260E+00  0.19372477916E-01 0.  0.
         14    1    1    2    0    0 -0.36357952153E-02 -0.22468691678E-01  0.78445658513E-02  0.24074848410E-01  0.00000000000E+00 0. -1.
     999901    1    3    3    0    0  0.75911623843E-01  0.11913687064E+00 -0.44070642584E-01  0.89235552899E+00  0.88000000000E+00 0. -1.
        -11    1    4    4    0    0 -0.29532008476E-01 -0.39358630084E-01  0.24770914484E-01  0.55091747223E-01  0.51100000000E-03 0. -1.
         11    1    4    4    0    0 -0.42743820152E-01 -0.57309548877E-01  0.11455162248E-01  0.72407875378E-01  0.51100000000E-03 0.  1.
</event>
<event>
 8    1  0.1123470E+005  0.1043930E+01  0.7957747E-01            NaN
         13   -1    0    0    0    0  0.00000000000E+00  0.00000000000E+00  0.74505805969E-08  0.10566000000E+00  0.10566000000E+00 0.  1.
     999900   -1    0    0    0    0 -0.00000000000E+00 -0.00000000000E+00 -0.74505805969E-08  0.93827000000E+00  0.93827000000E+00 0. -1.
     999902    2    1    2    0    0  0.85112653280E-02 -0.99670132846E-02 -0.19587222871E-01  0.10203621768E+01  0.10200899615E+01 0.  0.
     999903    2    3    3    0    0  0.18533966883E-01 -0.45306476187E-01  0.11764587674E+00  0.12896874187E+00  0.19904757039E-01 0.  0.
         14    1    1    2    0    0 -0.85112653280E-02  0.99670132846E-02  0.19587222871E-01  0.23567823215E-01  0.00000000000E+00 0. -1.
     999901    1    3    3    0    0 -0.10022701555E-01  0.35339462902E-01 -0.13723309961E+00  0.89139343492E+00  0.88000000000E+00 0. -1.
        -11    1    4    4    0    0  0.16659121144E-01 -0.15736230302E-01  0.58049393276E-01  0.62411124346E-01  0.51100000000E-03 0. -1.
         11    1    4    4    0    0  0.18748457386E-02 -0.29570245885E-01  0.59596483461E-01  0.66557617522E-01  0.51100000000E-03 0.  1.
</event>
<event>
 8    1  0.1123470E+005  0.1043930E+01  0.7957747E-01            NaN
         13   -1    0    0    0    0  0.00000000000E+00  0.00000000000E+00  0.74505805969E-08  0.10566000000E+00  0.10566000000E+00 0. -1.
     999900   -1    0    0    0    0 -0.00000000000E+00 -0.00000000000E+00 -0.74505805969E-08  0.93827000000E+00  0.93827000000E+00 0.  1.
     999902    2    1    2    0    0 -0.86499317571E-02  0.15120654261E-01 -0.14738339001E-01  0.10211117148E+01  0.10208567284E+01 0.  0.
     999903    2    3    3    0    0  0.40523328682E-01  0.10083259732E+00  0.71170345120E-01  0.13142365216E+00  0.19940047004E-01 0.  0.
         14    1    1    2    0    0  0.86499317571E-02 -0.15120654261E-01  0.14738339001E-01  0.22818285238E-01  0.00000000000E+00 0. -1.
     999901    1    3    3    0    0 -0.49173260439E-01 -0.85711943054E-01 -0.85908684120E-01  0.88968806260E+00  0.88000000000E+00 0.  1.
        -11    1    4    4    0    0  0.30900184879E-01  0.52530093851E-01  0.34658889459E-01  0.70112280844E-01  0.51100000000E-03 0. -1.
         11    1    4    4    0    0  0.96231438028E-02  0.48302503464E-01  0.36511455661E-01  0.61311371319E-01  0.51100000000E-03 0.  1.
</event>
<event>
 8    1  0.1123470E+005  0.1043930E+01  0.7957747E-01            NaN
         13   -1    0    0    0    0  0.00000000000E+00  0.00000000000E+00  0.74505805969E-08  0.10566000000E+00  0.10566000000E+00 0.  1.
     999900   -1    0    0    0    0 -0.00000000000E+00 -0.00000000000E+00 -0.74505805969E-08  0.93827000000E+00  0.93827000000E+00 0.  1.
     999902    2    1    2    0    0 -0.30502813813E-02 -0.23587380023E-01  0.34750263347E-02  0.10198936833E+01  0.10196104063E+01 0.  0.
     999903    2    3    3    0    0  0.23854083442E-01 -0.11261573196E+00  0.63498118928E-01  0.13295926410E+00  0.19870440924E-01 0.  0.
         14    1    1    2    0    0  0.30502813813E-02  0.23587380023E-01 -0.34750263347E-02  0.24036316708E-01  0.00000000000E+00 0.  1.
     999901    1    3    3    0    0 -0.26904364823E-01  0.89028351936E-01 -0.60023092593E-01  0.88693441919E+00  0.88000000000E+00 0. -1.
        -11    1    4    4    0    0  0.13749802914E-01 -0.92393611060E-01  0.44712258292E-01  0.10356197955E+00  0.51100000000E-03 0.  1.
         11    1    4    4    0    0  0.10104280528E-01 -0.20222120899E-01  0.18785860636E-01  0.29397284559E-01  0.51100000000E-03 0. -1.
</event>
<event>
 8    1  0.1123470E+005  0.1043930E+01  0.7957747E-01            NaN
         13   -1    0    0    0    0  0.00000000000E+00  0.00000000000E+00  0.74505805969E-08  0.10566000000E+00  0.10566000000E+00 0. -1.
     999900   -1    0    0    0    0 -0.00000000000E+00 -0.00000000000E+00 -0.74505805969E-08  0.93827000000E+00  0.93827000000E+00 0. -1.
     999902    2    1    2    0    0  0.83599372475E-02 -0.14362695173E-01 -0.18107965054E-01  0.10193520839E+01  0.10190557379E+01 0.  0.
     999903    2    3    3    0    0 -0.10020431840E+00 -0.30154906801E-02  0.76203492770E-01  0.12760682442E+00  0.20652620124E-01 0.  0.
         14    1    1    2    0    0 -0.83599372475E-02  0.14362695173E-01  0.18107965054E-01  0.24577916140E-01  0.00000000000E+00 0. -1.
     999901    1    3    3    0    0  0.10856425565E+00 -0.11347204492E-01 -0.94311457824E-01  0.89174525944E+00  0.88000000000E+00 0.  1.
        -11    1    4    4    0    0 -0.39068185657E-01 -0.38892455675E-02  0.42207204028E-01  0.57646843405E-01  0.51100000000E-03 0.  1.
         11    1    4    4    0    0 -0.61136132745E-01  0.87375488730E-03  0.33996288742E-01  0.69959981016E-01  0.51100000000E-03 0. -1.
</event>
<event>
 8    1  0.1123470E+005  0.1043930E+01  0.7957747E-01            NaN
         13   -1    0    0    0    0  0.00000000000E+00  0.00000000000E+00  0.74505805969E-08  0.10566000000E+00  0.10566000000E+00 0.  1.
     999900   -1    0    0    0    0 -0.00000000000E+00 -0.00000000000E+00 -0.74505805969E-08  0.93827000000E+00  0.93827000000E+00 0.  1.
     999902    2    1    2    0    0  0.16265297066E-01  0.33460174065E-02 -0.14182822757E-01  0.10220917725E+01  0.10218584457E+01 0.  0.
     999903    2    3    3    0    0 -0.83481957663E-01 -0.98061582265E-01 -0.16285928278E-02  0.13058146697E+00  0.21530351339E-01 0.  0.
         14    1    1    2    0    0 -0.16265297066E-01 -0.33460174065E-02  0.14182822757E-01  0.21838227549E-01  0.00000000000E+00 0.  1.
     999901    1    3    3    0    0  0.99747254729E-01  0.10140759967E+00 -0.12554229929E-01  0.89151030549E+00  0.88000000000E+00 0.  1.
        -11    1    4    4    0    0 -0.50997788968E-01 -0.67177602141E-01  0.80376071064E-02  0.84725845868E-01  0.51100000000E-03 0.  1.
         11    1    4    4    0    0 -0.32484168695E-01 -0.30883980124E-01 -0.96661999343E-02  0.45855621098E-01  0.51100000000E-03 0. -1.
</event>
<event>
 8    1  0.1123470E+005  0.1043930E+01  0.7957747E-01            NaN
         13   -1    0    0    0    0  0.00000000000E+00  0.00000000000E+00  0.74505805969E-08  0.10566000000E+00  0.10566000000E+00 0. -1.
     999900   -1    0    0    0    0 -0.00000000000E+00 -0.00000000000E+00 -0.74505805969E-08  0.93827000000E+00  0.93827000000E+00 0.  1.
     999902    2    1    2    0    0 -0.11991051691E-01 -0.58379680268E-03  0.22017131521E-01  0.10188525157E+01  0.10185438471E+01 0.  0.
     999903    2    3    3    0    0 -0.25047486525E-02 -0.12790688156E+00  0.14169045584E-01  0.12960409690E+00  0.15166277145E-01 0.  0.
         14    1    1    2    0    0  0.11991051691E-01  0.58379680268E-03 -0.22017131521E-01  0.25077484319E-01  0.00000000000E+00 0.  1.
     999901    1    3    3    0    0 -0.94863030386E-02  0.12732308476E+00  0.78480859369E-02  0.88924841878E+00  0.88000000000E+00 0. -1.
        -11    1    4    4    0    0 -0.35027176181E-02 -0.72038658016E-01  0.15223504298E-01  0.73714676175E-01  0.51100000000E-03 0. -1.
         11    1    4    4    0    0  0.99796896561E-03 -0.55868223547E-01 -0.10544587134E-02  0.55889420721E-01  0.51100000000E-03 0.  1.
</event>
<event>
 8    1  0.1123470E+005  0.1043930E+01  0.7957747E-01            NaN
         13   -1    0    0    0    0  0.00000000000E+00  0.00000000000E+00  0.74505805969E-08  0.10566000000E+00  0.10566000000E+00 0.  1.
     999900   -1    0    0    0    0 -0.00000000000E+00 -0.00000000000E+00 -0.74505805969E-08  0.93827000000E+00  0.93827000000E+00 0. -1.
     999902    2    1    2    0    0  0.89034339730E-02 -0.21744475457E-01  0.15273847713E-02  0.10203837423E+01  0.10201120307E+01 0.  0.
     999903    2    3    3    0    0  0.21895979601E-01 -0.10958575444E+00  0.69858230634E-01  0.13327946370E+00  0.19868859037E-01 0.  0.
         14    1    1    2    0    0 -0.89034339730E-02  0.21744475457E-01 -0.15273847713E-02  0.23546257742E-01  0.00000000000E+00 0.  1.
     999901    1    3    3    0    0 -0.12992545628E-01  0.87841278980E-01 -0.68330845863E-01  0.88710427856E+00  0.88000000000E+00 0. -1.
        -11    1    4    4    0    0  0.22088181615E-01 -0.88233037802E-01  0.48527858435E-01  0.10309302058E+00  0.51100000000E-03 0. -1.
         11    1    4    4    0    0 -0.19220201471E-03 -0.21352716634E-01  0.21330372199E-01  0.30186443124E-01  0.51100000000E-03 0.  1.
</event>
<event>
 8    1  0.1123470E+005  0.1043930E+01  0.7957747E-01            NaN
         13   -1    0    0    0    0  0.00000000000E+00  0.00000000000E+00  0.74505805969E-08  0.10566000000E+00  0.10566000000E+00 0.  1.
     999900   -1    0    0    0    0 -0.00000000000E+00 -0.00000000000E+00 -0.74505805969E-08  0.93827000000E+00  0.93827000000E+00 0. -1.
     999902    2    1    2    0    0 -0.34821406902E-02 -0.23609628382E-01 -0.72746562907E-03  0.10200538809E+01  0.10197744118E+01 0.  0.
     999903    2    3    3    0    0 -0.57657172204E-01 -0.11741007651E+00 -0.16870001854E-01  0.13326527049E+00  0.19119617781E-01 0.  0.
         14    1    1    2    0    0  0.34821406902E-02  0.23609628382E-01  0.72746562907E-03  0.23876119080E-01  0.00000000000E+00 0.  1.
     999901    1    3    3    0    0  0.54175031514E-01  0.93800448128E-01  0.16142536225E-01  0.88678861043E+00  0.88000000000E+00 0. -1.
        -11    1    4    4    0    0 -0.72927176568E-02 -0.12951823905E-01 -0.81783510725E-02  0.16972920213E-01  0.51100000000E-03 0. -1.
         11    1    4    4    0    0 -0.50364454548E-01 -0.10445825260E+00 -0.86916507814E-02  0.11629235028E+00  0.51100000000E-03 0.  1.
</event>
<event>
 8    1  0.1123470E+005  0.1043930E+01  0.7957747E-01            NaN
         13   -1    0    0    0    0  0.00000000000E+00  0.00000000000E+00  0.74505805969E-08  0.10566000000E+00  0.10566000000E+00 0. -1.
     999900   -1    0    0    0    0 -0.00000000000E+00 -0.00000000000E+00 -0.74505805969E-08  0.93827000000E+00  0.93827000000E+00 0.  1.
     999902    2    1    2    0    0  0.65649518617E-03  0.10515227829E-01  0.20603552694E-01  0.10207889675E+01  0.10205266330E+01 0.  0.
     999903    2    3    3    0    0 -0.34776352022E-01 -0.85224555837E-01  0.92446712686E-01  0.13197907078E+00  0.19986516976E-01 0.  0.
         14    1    1    2    0    0 -0.65649518617E-03 -0.10515227829E-01 -0.20603552694E-01  0.23141032515E-01  0.00000000000E+00 0.  1.
     999901    1    3    3    0    0  0.35432847208E-01  0.95739783666E-01 -0.71843159991E-01  0.88880989670E+00  0.88000000000E+00 0.  1.
        -11    1    4    4    0    0 -0.20106729681E-01 -0.39755526086E-01  0.31635954076E-01  0.54643180216E-01  0.51100000000E-03 0.  1.
         11    1    4    4    0    0 -0.14669622341E-01 -0.45469029751E-01  0.60810758609E-01  0.77335890567E-01  0.51100000000E-03 0. -1.
</event>
<event>
 8    1  0.1123470E+005  0.1043930E+01  0.7957747E-01            NaN
         13   -1    0    0    0    0  0.00000000000E+00  0.00000000000E+00  0.74505805969E-08  0.10566000000E+00  0.10566000000E+00 0. -1.
     999900   -1    0    0    0    0 -0.00000000000E+00 -0.00000000000E+00 -0.74505805969E-08  0.93827000000E+00  0.93827000000E+00 0.  1.
     999902    2    1    2    0    0 -0.18080274558E-01 -0.39976545745E-02  0.18074672041E-01  0.10180539234E+01  0.10177250216E+01 0.  0.
     999903    2    3    3    0    0  0.10675684171E+00 -0.39884401173E-01  0.54065337180E-01  0.12779132611E+00  0.20488378048E-01 0.  0.
         14    1    1    2    0    0  0.18080274558E-01  0.39976545745E-02 -0.18074672041E-01  0.25876076588E-01  0.00000000000E+00 0.  1.
     999901    1    3    3    0    0 -0.12483711627E+00  0.35886746599E-01 -0.35990665140E-01  0.89026259730E+00  0.88000000000E+00 0. -1.
        -11    1    4    4    0    0  0.38397645063E-01 -0.24055279877E-01  0.25793104814E-01  0.52140013553E-01  0.51100000000E-03 0. -1.
         11    1    4    4    0    0  0.68359196649E-01 -0.15829121296E-01  0.28272232366E-01  0.75651312556E-01  0.51100000000E-03 0.  1.
</event>
<event>
 8    1  0.1123470E+005  0.1043930E+01  0.7957747E-01            NaN
         13   -1    0    0    0    0  0.00000000000E+00  0.00000000000E+00  0.74505805969E-08  0.10566000000E+00  0.10566000000E+00 0.  1.
     999900   -1    0    0    0    0 -0.00000000000E+00 -0.00000000000E+00 -0.74505805969E-08  0.93827000000E+00  0.93827000000E+00 0.  1.
     999902    2    1    2    0    0  0.12277790054E-01 -0.57322450036E-02  0.20799469195E-01  0.10191062074E+01  0.10188038286E+01 0.  0.
     999903    2    3    3    0    0 -0.10920107610E+00 -0.13802558577E-01  0.65484758754E-01  0.12960127766E+00  0.19820491845E-01 0.  0.
         14    1    1    2    0    0 -0.12277790054E-01  0.57322450036E-02 -0.20799469195E-01  0.24823792623E-01  0.00000000000E+00 0. -1.
     999901    1    3    3    0    0  0.12147886616E+00  0.80703135736E-02 -0.44685289558E-01  0.88950492971E+00  0.88000000000E+00 0.  1.
        -11    1    4    4    0    0 -0.86489430933E-01 -0.16811473177E-01  0.58033571686E-01  0.10550452055E+00  0.51100000000E-03 0.  1.
         11    1    4    4    0    0 -0.22711645171E-01  0.30089145996E-02  0.74511870680E-02  0.24096757109E-01  0.51100000000E-03 0. -1.
</event>
<event>
 8    1  0.1123470E+005  0.1043930E+01  0.7957747E-01            NaN
         13   -1    0    0    0    0  0.00000000000E+00  0.00000000000E+00  0.74505805969E-08  0.10566000000E+00  0.10566000000E+00 0. -1.
     999900   -1    0    0    0    0 -0.00000000000E+00 -0.00000000000E+00 -0.74505805969E-08  0.93827000000E+00  0.93827000000E+00 0. -1.
     999902    2    1    2    0    0  0.71371818456E-02 -0.22815214581E-01  0.60457305860E-03  0.10200168469E+01  0.10197364999E+01 0.  0.
     999903    2    3    3    0    0  0.18218947457E-01  0.75028116578E-01  0.10114042269E+00  0.12883584397E+00  0.20202506428E-01 0.  0.
         14    1    1    2    0    0 -0.71371818456E-02  0.22815214581E-01 -0.60457305860E-03  0.23913153068E-01  0.00000000000E+00 0. -1.
     999901    1    3    3    0    0 -0.11081765612E-01 -0.97843331159E-01 -0.10053584963E+00  0.89118100296E+00  0.88000000000E+00 0. -1.
        -11    1    4    4    0    0  0.22256509459E-01  0.59026451477E-01  0.83810264734E-01  0.10489945559E+00  0.51100000000E-03 0.  1.
         11    1    4    4    0    0 -0.40375620016E-02  0.16001665101E-01  0.17330157954E-01  0.23936388380E-01  0.51100000000E-03 0. -1.
</event>
<event>
 8    1  0.1123470E+005  0.1043930E+01  0.7957747E-01            NaN
         13   -1    0    0    0    0  0.00000000000E+00  0.00000000000E+00  0.74505805969E-08  0.10566000000E+00  0.10566000000E+00 0. -1.
     999900   -1    0    0    0    0 -0.00000000000E+00 -0.00000000000E+00 -0.74505805969E-08  0.93827000000E+00  0.93827000000E+00 0. -1.
     999902    2    1    2    0    0  0.11030426946E-01 -0.28190568924E-02 -0.19970164308E-01  0.10209425064E+01  0.10206836809E+01 0.  0.
     999903    2    3    3    0    0 -0.11220264646E-02 -0.12301370188E+00 -0.44640873680E-01  0.13234637838E+00  0.19726288887E-01 0.  0.
         14    1    1    2    0    0 -0.11030426946E-01  0.28190568924E-02  0.19970164308E-01  0.22987493619E-01  0.00000000000E+00 0. -1.
     999901    1    3    3    0    0  0.12152453410E-01  0.12019464498E+00  0.24670709372E-01  0.88859612801E+00  0.88000000000E+00 0.  1.
        -11    1    4    4    0    0 -0.42794000523E-02 -0.77248931546E-01 -0.18519673848E-01  0.79554698983E-01  0.51100000000E-03 0. -1.
         11    1    4    4    0    0  0.31573735878E-02 -0.45764770331E-01 -0.26121199832E-01  0.52791679392E-01  0.51100000000E-03 0.  1.
</event>
<event>
 8    1  0.1123470E+005  0.1043930E+01  0.7957747E-01            NaN
         13   -1    0    0    0    0  0.00000000000E+00  0.00000000000E+00  0.74505805969E-08  0.10566000000E+00  0.10566000000E+00 0. -1.
     999900   -1    0    0    0    0 -0.00000000000E+00 -0.00000000000E+00 -0.74505805969E-08  0.93827000000E+00  0.93827000000E+00 0.  1.
     999902    2    1    2    0    0 -0.10240717007E-01  0.76721599952E-02  0.20110673960E-01  0.10200936091E+01  0.10198150802E+01 0.  0.
     999903    2    3    3    0    0  0.20610301221E-01 -0.39036994836E-01  0.12311703607E+00  0.13231895239E+00  0.20045675535E-01 0.  0.
         14    1    1    2    0    0  0.10240717007E-01 -0.76721599952E-02 -0.20110673960E-01  0.23836390896E-01  0.00000000000E+00 0.  1.
     999901    1    3    3    0    0 -0.30851018228E-01  0.46709154832E-01 -0.10300636211E+00  0.88777465672E+00  0.88000000000E+00 0.  1.
        -11    1    4    4    0    0  0.19217983526E-01 -0.15023344622E-01  0.59910658607E-01  0.64688329010E-01  0.51100000000E-03 0.  1.
         11    1    4    4    0    0  0.13923176946E-02 -0.24013650215E-01  0.63206377466E-01  0.67630623378E-01  0.51100000000E-03 0. -1.
</event>
<event>
 8    1  0.1123470E+005  0.1043930E+01  0.7957747E-01            NaN
         13   -1    0    0    0    0  0.00000000000E+00  0.00000000000E+00  0.74505805969E-08  0.10566000000E+00  0.10566000000E+00 0. -1.
     999900   -1    0    0    0    0 -0.00000000000E+00 -0.00000000000E+00 -0.74505805969E-08  0.93827000000E+00  0.93827000000E+00 0. -1.
     999902    2    1    2    0    0 -0.92915333977E-03 -0.21332799430E-01 -0.10489202338E-01  0.10201397704E+01  0.10198623320E+01 0.  0.
     999903    2    3    3    0    0 -0.48937201456E-01 -0.11876223933E+00 -0.30149486370E-01  0.13324417611E+00  0.18593003061E-01 0.  0.
         14    1    1    2    0    0  0.92915333977E-03  0.21332799430E-01  0.10489202338E-01  0.23790229573E-01  0.00000000000E+00 0.  1.
     999901    1    3    3    0    0  0.48008048116E-01  0.97429439900E-01  0.19660284032E-01  0.88689559431E+00  0.88000000000E+00 0. -1.
        -11    1    4    4    0    0 -0.45148054983E-01 -0.96855045957E-01 -0.19657643570E-01  0.10865510051E+00  0.51100000000E-03 0. -1.
         11    1    4    4    0    0 -0.37891464726E-02 -0.21907193373E-01 -0.10491842801E-01  0.24589075599E-01  0.51100000000E-03 0.  1.
</event>
<event>
 8    1  0.1123470E+005  0.1043930E+01  0.7957747E-01            NaN
         13   -1    0    0    0    0  0.00000000000E+00  0.00000000000E+00  0.74505805969E-08  0.10566000000E+00  0.10566000000E+00 0.  1.
     999900   -1    0    0    0    0 -0.00000000000E+00 -0.00000000000E+00 -0.74505805969E-08  0.93827000000E+00  0.93827000000E+00 0. -1.
     999902    2    1    2    0    0 -0.99632229954E-03  0.15450601564E-01 -0.17329827983E-01  0.10206913106E+01  0.10204267317E+01 0.  0.
     999903    2    3    3    0    0 -0.77477918534E-01 -0.10164113874E+00 -0.90126835897E-02  0.12960821398E+00  0.19578348232E-01 0.  0.
         14    1    1    2    0    0  0.99632229954E-03 -0.15450601564E-01  0.17329827983E-01  0.23238689393E-01  0.00000000000E+00 0.  1.
     999901    1    3    3    0    0  0.76481596234E-01  0.11709174031E+00 -0.83171443934E-02  0.89108309663E+00  0.88000000000E+00 0. -1.
        -11    1    4    4    0    0 -0.44810062369E-02 -0.16200508715E-01  0.53370292001E-03  0.16825036682E-01  0.51100000000E-03 0.  1.
         11    1    4    4    0    0 -0.72996912297E-01 -0.85440630026E-01 -0.95463865097E-02  0.11278317729E+00  0.51100000000E-03 0. -1.
</event>
<event>
 8    1  0.1123470E+005  0.1043930E+01  0.7957747E-01            NaN
         13   -1    0    0    0    0  0.00000000000E+00  0.00000000000E+00  0.74505805969E-08  0.10566000000E+00  0.10566000000E+00 0. -1.
     999900   -1    0    0    0    0 -0.00000000000E+00 -0.00000000000E+00 -0.74505805969E-08  0.93827000000E+00  0.93827000000E+00 0. -1.
     999902    2    1    2    0    0 -0.12355523605E-01  0.19663660772E-01  0.32608854645E-02  0.10204789469E+01  0.10202094536E+01 0.  0.
     999903    2    3    3    0    0  0.42965956943E-01  0.11106340408E+00  0.54668064659E-01  0.13252789116E+00  0.19846698940E-01 0.  0.
         14    1    1    2    0    0  0.12355523605E-01 -0.19663660772E-01 -0.32608854645E-02  0.23451053122E-01  0.00000000000E+00 0. -1.
     999901    1    3    3    0    0 -0.55321480548E-01 -0.91399743307E-01 -0.51407179194E-01  0.88795105572E+00  0.88000000000E+00 0.  1.
        -11    1    4    4    0    0  0.30171096171E-01  0.92780632504E-01  0.38142602579E-01  0.10475523884E+00  0.51100000000E-03 0. -1.
         11    1    4    4    0    0  0.12794860772E-01  0.18282771575E-01  0.16525462079E-01  0.27772652314E-01  0.51100000000E-03 0.  1.
</event>
<event>
 8    1  0.1123470E+005  0.1043930E+01  0.7957747E-01            NaN
         13   -1    0    0    0    0  0.00000000000E+00  0.00000000000E+00  0.74505805969E-08  0.10566000000E+00  0.10566000000E+00 0. -1.
     999900   -1    0    0    0    0 -0.00000000000E+00 -0.00000000000E+00 -0.74505805969E-08  0.93827000000E+00  0.93827000000E+00 0. -1.
     999902    2    1    2    0    0 -0.19893459211E-01 -0.13282943047E-01 -0.49437886780E-02  0.10195040437E+01  0.10192113950E+01 0.  0.
     999903    2    3    3    0    0  0.55480113840E-01  0.58763315663E-01 -0.98133558293E-01  0.12846186058E+00  0.18468461270E-01 0.  0.
         14    1    1    2    0    0  0.19893459211E-01  0.13282943047E-01  0.49437886780E-02  0.24425956314E-01  0.00000000000E+00 0.  1.
     999901    1    3    3    0    0 -0.75373573051E-01 -0.72046258710E-01  0.93189769615E-01  0.89104218310E+00  0.88000000000E+00 0.  1.
        -11    1    4    4    0    0  0.21396972967E-01  0.20795504418E-01 -0.23169166409E-01  0.37780350041E-01  0.51100000000E-03 0. -1.
         11    1    4    4    0    0  0.34083140873E-01  0.37967811245E-01 -0.74964391885E-01  0.90681510542E-01  0.51100000000E-03 0.  1.
</event>
<event>
 8    1  0.1123470E+005  0.1043930E+01  0.7957747E-01            NaN
         13   -1    0    0    0    0  0.00000000000E+00  0.00000000000E+00  0.74505805969E-08  0.10566000000E+00  0.10566000000E+00 0. -1.
     999900   -1    0    0    0    0 -0.00000000000E+00 -0.00000000000E+00 -0.74505805969E-08  0.93827000000E+00  0.93827000000E+00 0.  1.
     999902    2    1    2    0    0 -0.85201047950E-02 -0.18447569179E-01 -0.12831831514E-01  0.10198975034E+01  0.10196143175E+01 0.  0.
     999903    2    3    3    0    0 -0.64002334335E-01  0.10646747601E+00 -0.29609057549E-01  0.12918794261E+00  0.19524496897E-01 0.  0.
         14    1    1    2    0    0  0.85201047950E-02  0.18447569179E-01  0.12831831514E-01  0.24032496632E-01  0.00000000000E+00 0. -1.
     999901    1    3    3    0    0  0.55482229540E-01 -0.12491504519E+00  0.16777226035E-01  0.89070956076E+00  0.88000000000E+00 0.  1.
        -11    1    4    4    0    0 -0.56016911952E-01  0.95680102881E-01 -0.19973025397E-01  0.11265770891E+00  0.51100000000E-03 0. -1.
         11    1    4    4    0    0 -0.79854223829E-02  0.10787373129E-01 -0.96360321521E-02  0.16530233704E-01  0.51100000000E-03 0.  1.
</event>
<event>
 8    1  0.1123470E+005  0.1043930E+01  0.7957747E-01            NaN
         13   -1    0    0    0    0  0.00000000000E+00  0.00000000000E+00  0.74505805969E-08  0.10566000000E+00  0.10566000000E+00 0. -1.
     999900   -1    0    0    0    0 -0.00000000000E+00 -0.00000000000E+00 -0.74505805969E-08  0.93827000000E+00  0.93827000000E+00 0.  1.
     999902    2    1    2    0    0  0.74323616996E-02  0.21459596055E-01 -0.22878996352E-03  0.10212186238E+01  0.10209660479E+01 0.  0.
     999903    2    3    3    0    0  0.10019888735E+00 -0.10161094551E-01  0.84287922621E-01  0.13175329506E+00  0.10555187837E-01 0.  0.
         14    1    1    2    0    0 -0.74323616996E-02 -0.21459596055E-01  0.22878996352E-03  0.22711376183E-01  0.00000000000E+00 0.  1.
     999901    1    3    3    0    0 -0.92766525652E-01  0.31620690606E-01 -0.84516712585E-01  0.88946532876E+00  0.88000000000E+00 0.  1.
        -11    1    4    4    0    0  0.60808700652E-01 -0.10158006825E-02  0.50055507382E-01  0.78768933383E-01  0.51100000000E-03 0.  1.
         11    1    4    4    0    0  0.39390186700E-01 -0.91452938688E-02  0.34232415239E-01  0.52984361677E-01  0.51100000000E-03 0. -1.
</event>
<event>
 8    1  0.1123470E+005  0.1043930E+01  0.7957747E-01            NaN
         13   -1    0    0    0    0  0.00000000000E+00  0.00000000000E+00  0.74505805969E-08  0.10566000000E+00  0.10566000000E+00 0.  1.
     999900   -1    0    0    0    0 -0.00000000000E+00 -0.00000000000E+00 -0.74505805969E-08  0.93827000000E+00  0.93827000000E+00 0.  1.
     999902    2    1    2    0    0 -0.15840079416E-01  0.21302505850E-02 -0.18111182815E-01  0.10197750621E+01  0.10194889485E+01 0.  0.
     999903    2    3    3    0    0  0.11011261090E+00 -0.82731848939E-02 -0.64356241378E-01  0.12954423969E+00  0.21136498461E-01 0.  0.
         14    1    1    2    0    0  0.15840079416E-01 -0.21302505850E-02  0.18111182815E-01  0.24154937930E-01  0.00000000000E+00 0.  1.
     999901    1    3    3    0    0 -0.12595269031E+00  0.10403435479E-01  0.46245058562E-01  0.89023082238E+00  0.88000000000E+00 0.  1.
        -11    1    4    4    0    0  0.39081720106E-01  0.68081217685E-02 -0.25829025527E-01  0.47340585644E-01  0.51100000000E-03 0. -1.
         11    1    4    4    0    0  0.71030890789E-01 -0.15081306662E-01 -0.38527215851E-01  0.82203654050E-01  0.51100000000E-03 0.  1.
</event>
<event>
 8    1  0.1123470E+005  0.1043930E+01  0.7957747E-01            NaN
         13   -1    0    0    0    0  0.00000000000E+00  0.00000000000E+00  0.74505805969E-08  0.10566000000E+00  0.10566000000E+00 0.  1.
     999900   -1    0    0    0    0 -0.00000000000E+00 -0.00000000000E+00 -0.74505805969E-08  0.93827000000E+00  0.93827000000E+00 0.  1.
     999902    2    1    2    0    0  0.22857258545E-02  0.14169629803E-01 -0.19867548382E-01  0.10194203605E+01  0.10191256787E+01 0.  0.
     999903    2    3    3    0    0  0.98207858997E-01 -0.80242442114E-01  0.85201779704E-02  0.12873491770E+00  0.20407168267E-01 0.  0.
         14    1    1    2    0    0 -0.22857258545E-02 -0.14169629803E-01  0.19867548382E-01  0.24509639536E-01  0.00000000000E+00 0.  1.
     999901    1    3    3    0    0 -0.95922133142E-01  0.94412071917E-01 -0.28387726353E-01  0.89068544277E+00  0.88000000000E+00 0.  1.
        -11    1    4    4    0    0  0.54654641905E-01 -0.55099183246E-01 -0.65313300511E-03  0.77612741092E-01  0.51100000000E-03 0. -1.
         11    1    4    4    0    0  0.43553217092E-01 -0.25143258867E-01  0.91733109755E-02  0.51122176605E-01  0.51100000000E-03 0.  1.
</event>
<event>
 8    1  0.1123470E+005  0.1043930E+01  0.7957747E-01            NaN
         13   -1    0    0    0    0  0.00000000000E+00  0.00000000000E+00  0.74505805969E-08  0.10566000000E+00  0.10566000000E+00 0.  1.
     999900   -1    0    0    0    0 -0.00000000000E+00 -0.00000000000E+00 -0.74505805969E-08  0.93827000000E+00  0.93827000000E+00 0.  1.
     999902    2    1    2    0    0  0.33132833433E-03 -0.15986179633E-01  0.17032961806E-01  0.10205678617E+01  0.10203004317E+01 0.  0.
     999903    2    3    3    0    0 -0.36429513425E-02 -0.49034058139E-01  0.12247493953E+00  0.13364849230E+00  0.21076022601E-01 0.  0.
         14    1    1    2    0    0 -0.33132833433E-03  0.15986179633E-01 -0.17032961806E-01  0.23362138292E-01  0.00000000000E+00 0. -1.
     999901    1    3    3    0    0  0.39742796768E-02  0.33047878507E-01 -0.10544197772E+00  0.88691936941E+00  0.88000000000E+00 0.  1.
        -11    1    4    4    0    0  0.46559980850E-02 -0.91880200214E-02  0.11514812606E-01  0.15458009589E-01  0.51100000000E-03 0.  1.
         11    1    4    4    0    0 -0.82989494274E-02 -0.39846038118E-01  0.11096012692E+00  0.11819048271E+00  0.51100000000E-03 0. -1.
</event>
<event>
 8    1  0.1123470E+005  0.1043930E+01  0.7957747E-01            NaN
         13   -1    0    0    0    0  0.00000000000E+00  0.00000000000E+00  0.74505805969E-08  0.10566000000E+00  0.10566000000E+00 0. -1.
     999900   -1    0    0    0    0 -0.00000000000E+00 -0.00000000000E+00 -0.74505805969E-08  0.93827000000E+00  0.93827000000E+00 0.  1.
     999902    2    1    2    0    0 -0.93531409092E-02 -0.20855076796E-02 -0.20500475812E-01  0.10213003713E+01  0.10210496307E+01 0.  0.
     999903    2    3    3    0    0  0.11367956405E+00 -0.46801802478E-01 -0.41664117073E-01  0.13136526510E+00  0.20186189008E-01 0.  0.
         14    1    1    2    0    0  0.93531409092E-02  0.20855076796E-02  0.20500475812E-01  0.22629628712E-01  0.00000000000E+00 0.  1.
     999901    1    3    3    0    0 -0.12303270496E+00  0.44716294798E-01  0.21163641261E-01  0.88993510619E+00  0.88000000000E+00 0.  1.
        -11    1    4    4    0    0  0.37675537587E-01 -0.10750277869E-01 -0.46424089162E-02  0.39456655817E-01  0.51100000000E-03 0. -1.
         11    1    4    4    0    0  0.76004026461E-01 -0.36051524609E-01 -0.37021708157E-01  0.91908609285E-01  0.51100000000E-03 0.  1.
</event>
<event>
 8    1  0.1123470E+005  0.1043930E+01  0.7957747E-01            NaN
         13   -1    0    0    0    0  0.00000000000E+00  0.00000000000E+00  0.74505805969E-08  0.10566000000E+00  0.10566000000E+00 0. -1.
     999900   -1    0    0    0    0 -0.00000000000E+00 -0.00000000000E+00 -0.74505805969E-08  0.93827000000E+00  0.93827000000E+00 0. -1.
     999902    2    1    2    0    0 -0.41766935209E-03 -0.12596539222E-01 -0.18714995112E-01  0.10213667934E+01  0.10211175390E+01 0.  0.
     999903    2    3    3    0    0 -0.43245620967E-03  0.11209181398E+00 -0.65313460081E-01  0.13135634262E+00  0.20588319469E-01 0.  0.
         14    1    1    2    0    0  0.41766935209E-03  0.12596539222E-01  0.18714995112E-01  0.22563206556E-01  0.00000000000E+00 0. -1.
     999901    1    3    3    0    0  0.14786857573E-04 -0.12468835320E+00  0.46598464969E-01  0.89001045083E+00  0.88000000000E+00 0.  1.
        -11    1    4    4    0    0 -0.92751479143E-02  0.30227616629E-01 -0.18549972744E-01  0.36661966473E-01  0.51100000000E-03 0.  1.
         11    1    4    4    0    0  0.88426917046E-02  0.81864197350E-01 -0.46763487338E-01  0.94694376144E-01  0.51100000000E-03 0. -1.
</event>
<event>
 8    1  0.1123470E+005  0.1043930E+01  0.7957747E-01            NaN
         13   -1    0    0    0    0  0.00000000000E+00  0.00000000000E+00  0.74505805969E-08  0.10566000000E+00  0.10566000000E+00 0.  1.
     999900   -1    0    0    0    0 -0.00000000000E+00 -0.00000000000E+00 -0.74505805969E-08  0.93827000000E+00  0.93827000000E+00 0.  1.
     999902    2    1    2    0    0 -0.22311348243E-01  0.83943695177E-02  0.57815493043E-03  0.10200847497E+01  0.10198060112E+01 0.  0.
     999903    2    3    3    0    0 -0.10301031226E-01 -0.11169676975E+00 -0.61621110127E-01  0.12967199257E+00  0.20865877065E-01 0.  0.
         14    1    1    2    0    0  0.22311348243E-01 -0.83943695177E-02 -0.57815493043E-03  0.23845250327E-01  0.00000000000E+00 0.  1.
     999901    1    3    3    0    0 -0.12010317017E-01  0.12009113927E+00  0.62199265058E-01  0.89041275711E+00  0.88000000000E+00 0. -1.
        -11    1    4    4    0    0 -0.64667976946E-02 -0.44116595211E-01 -0.35946388575E-01  0.57275626736E-01  0.51100000000E-03 0. -1.
         11    1    4    4    0    0 -0.38342335314E-02 -0.67580174540E-01 -0.25674721553E-01  0.72396365830E-01  0.51100000000E-03 0.  1.
</event>
<event>
 8    1  0.1123470E+005  0.1043930E+01  0.7957747E-01            NaN
         13   -1    0    0    0    0  0.00000000000E+00  0.00000000000E+00  0.74505805969E-08  0.10566000000E+00  0.10566000000E+00 0.  1.
     999900   -1    0    0    0    0 -0.00000000000E+00 -0.00000000000E+00 -0.74505805969E-08  0.93827000000E+00  0.93827000000E+00 0.  1.
     999902    2    1    2    0    0  0.18431320679E-01 -0.14351735634E-01 -0.50279379787E-02  0.10200351039E+01  0.10197551898E+01 0.  0.
     999903    2    3    3    0    0  0.13087449417E+00  0.67531413346E-02 -0.26627306574E-02  0.13262624816E+00  0.20221113329E-01 0.  0.
         14    1    1    2    0    0 -0.18431320679E-01  0.14351735634E-01  0.50279379787E-02  0.23894896066E-01  0.00000000000E+00 0.  1.
     999901    1    3    3    0    0 -0.11244317349E+00 -0.21104876969E-01 -0.23652073213E-02  0.88740885577E+00  0.88000000000E+00 0. -1.
        -11    1    4    4    0    0  0.38171214287E-01 -0.59612208250E-02 -0.54054145583E-02  0.39013553817E-01  0.51100000000E-03 0. -1.
         11    1    4    4    0    0  0.92703279885E-01  0.12714362160E-01  0.27426839009E-02  0.93612694345E-01  0.51100000000E-03 0.  1.
</event>
<event>
 8    1  0.1123470E+005  0.1043930E+01  0.7957747E-01            NaN
         13   -1    0    0    0    0  0.00000000000E+00  0.00000000000E+00  0.74505805969E-08  0.10566000000E+00  0.10566000000E+00 0.  1.
     999900   -1    0    0    0    0 -0.00000000000E+00 -0.00000000000E+00 -0.74505805969E-08  0.93827000000E+00  0.93827000000E+00 0.  1.
     999902    2    1    2    0    0  0.17739524504E-01 -0.14264935177E-01 -0.62002091955E-02  0.10203371685E+01  0.10200643684E+01 0.  0.
     999903    2    3    3    0    0 -0.57866797157E-01 -0.10498209729E+00  0.48285886858E-01  0.13077848349E+00  0.20041903845E-01 0.  0.
         14    1    1    2    0    0 -0.17739524504E-01  0.14264935177E-01  0.62002091955E-02  0.23592831524E-01  0.00000000000E+00 0.  1.
     999901    1    3    3    0    0  0.75606321662E-01  0.90717162108E-01 -0.54486096053E-01  0.88955868499E+00  0.88000000000E+00 0.  1.
        -11    1    4    4    0    0 -0.36799679666E-01 -0.58911608894E-01  0.18008535732E-01  0.71759059123E-01  0.51100000000E-03 0. -1.
         11    1    4    4    0    0 -0.21067117491E-01 -0.46070488392E-01  0.30277351126E-01  0.59019424364E-01  0.51100000000E-03 0.  1.
</event>
<event>
 8    1  0.1123470E+005  0.1043930E+01  0.7957747E-01            NaN
         13   -1    0    0    0    0  0.00000000000E+00  0.00000000000E+00  0.74505805969E-08  0.10566000000E+00  0.10566000000E+00 0. -1.
     999900   -1    0    0    0    0 -0.00000000000E+00 -0.00000000000E+00 -0.74505805969E-08  0.93827000000E+00  0.93827000000E+00 0. -1.
     999902    2    1    2    0    0  0.29663874399E-02  0.96983471793E-02 -0.15864389880E-01  0.10251008668E+01  0.10249279247E+01 0.  0.
     999903    2    3    3    0    0 -0.96411752743E-01 -0.85855590662E-01  0.25244328310E-01  0.13341903084E+00  0.22292446358E-01 0.  0.
         14    1    1    2    0    0 -0.29663874399E-02 -0.96983471793E-02  0.15864389880E-01  0.18829133244E-01  0.00000000000E+00 0. -1.
     999901    1    3    3    0    0  0.99378140183E-01  0.95553937841E-01 -0.41108718190E-01  0.89168183591E+00  0.88000000000E+00 0.  1.
        -11    1    4    4    0    0 -0.37321539302E-01 -0.26169251699E-01  0.18372342544E-01  0.49148053084E-01  0.51100000000E-03 0.  1.
         11    1    4    4    0    0 -0.59090213442E-01 -0.59686338963E-01  0.68719857655E-02  0.84270977760E-01  0.51100000000E-03 0. -1.
</event>
<event>
 8    1  0.1123470E+005  0.1043930E+01  0.7957747E-01            NaN
         13   -1    0    0    0    0  0.00000000000E+00  0.00000000000E+00  0.74505805969E-08  0.10566000000E+00  0.10566000000E+00 0.  1.
     999900   -1    0    0    0    0 -0.00000000000E+00 -0.00000000000E+00 -0.74505805969E-08  0.93827000000E+00  0.93827000000E+00 0.  1.
     999902    2    1    2    0    0 -0.22135530177E-01 -0.55587207157E-02  0.58928875680E-02  0.10203586785E+01  0.10200863815E+01 0.  0.
     999903    2    3    3    0    0 -0.50182382433E-01 -0.11930575900E+00 -0.17924271223E-01  0.13227519614E+00  0.20574556559E-01 0.  0.
         14    1    1    2    0    0  0.22135530177E-01  0.55587207157E-02 -0.58928875680E-02  0.23571321475E-01  0.00000000000E+00 0.  1.
     999901    1    3    3    0    0  0.28046852257E-01  0.11374703828E+00  0.23817158791E-01  0.88808348239E+00  0.88000000000E+00 0. -1.
        -11    1    4    4    0    0 -0.13947115685E-01 -0.44438230266E-01  0.24381315619E-02  0.46642083483E-01  0.51100000000E-03 0.  1.
         11    1    4    4    0    0 -0.36235266749E-01 -0.74867528730E-01 -0.20362402785E-01  0.85633112653E-01  0.51100000000E-03 0. -1.
</event>
<event>
 8    1  0.1123470E+005  0.1043930E+01  0.7957747E-01            NaN
         13   -1    0    0    0    0  0.00000000000E+00  0.00000000000E+00  0.74505805969E-08  0.10566000000E+00  0.10566000000E+00 0.  1.
     999900   -1    0    0    0    0 -0.00000000000E+00 -0.00000000000E+00 -0.74505805969E-08  0.93827000000E+00  0.93827000000E+00 0.  1.
     999902    2    1    2    0    0  0.10597337896E-01 -0.16398967529E-01 -0.14470317331E-01  0.10196273296E+01  0.10193376631E+01 0.  0.
     999903    2    3    3    0    0 -0.10807109084E+00 -0.53363087541E-01 -0.45644636244E-01  0.13034650761E+00  0.19488443740E-01 0.  0.
         14    1    1    2    0    0 -0.10597337896E-01  0.16398967529E-01  0.14470317331E-01  0.24302670433E-01  0.00000000000E+00 0. -1.
     999901    1    3    3    0    0  0.11866842874E+00  0.36964120012E-01  0.31174318913E-01  0.88928082196E+00  0.88000000000E+00 0.  1.
        -11    1    4    4    0    0 -0.80192618675E-01 -0.36984768454E-01 -0.42042842409E-01  0.97808951055E-01  0.51100000000E-03 0.  1.
         11    1    4    4    0    0 -0.27878472168E-01 -0.16378319087E-01 -0.36017938350E-02  0.32537556551E-01  0.51100000000E-03 0. -1.
</event>
<event>
 8    1  0.1123470E+005  0.1043930E+01  0.7957747E-01            NaN
         13   -1    0    0    0    0  0.00000000000E+00  0.00000000000E+00  0.74505805969E-08  0.10566000000E+00  0.10566000000E+00 0.  1.
     999900   -1    0    0    0    0 -0.00000000000E+00 -0.00000000000E+00 -0.74505805969E-08  0.93827000000E+00  0.93827000000E+00 0.  1.
     999902    2    1    2    0    0 -0.18575496824E-01  0.29898577065E-02  0.44686002567E-02  0.10245920394E+01  0.10244095326E+01 0.  0.
     999903    2    3    3    0    0  0.95122277235E-01  0.86949854121E-01 -0.25313980378E-01  0.13281658173E+00  0.19771748056E-01 0.  0.
         14    1    1    2    0    0  0.18575496824E-01 -0.29898577065E-02 -0.44686002567E-02  0.19337960586E-01  0.00000000000E+00 0. -1.
     999901    1    3    3    0    0 -0.11369777406E+00 -0.83959996414E-01  0.29782580634E-01  0.89177545769E+00  0.88000000000E+00 0. -1.
        -11    1    4    4    0    0  0.68755253738E-01  0.70443247915E-01 -0.25570187584E-01  0.10170364648E+00  0.51100000000E-03 0.  1.
         11    1    4    4    0    0  0.26367023497E-01  0.16506606205E-01  0.25620720651E-03  0.31112935247E-01  0.51100000000E-03 0. -1.
</event>
<event>
 8    1  0.1123470E+005  0.1043930E+01  0.7957747E-01            NaN
         13   -1    0    0    0    0  0.00000000000E+00  0.00000000000E+00  0.74505805969E-08  0.10566000000E+00  0.10566000000E+00 0. -1.
     999900   -1    0    0    0    0 -0.00000000000E+00 -0.00000000000E+00 -0.74505805969E-08  0.93827000000E+00  0.93827000000E+00 0.  1.
     999902    2    1    2    0    0  0.16839852380E-01  0.13382981936E-01 -0.10264317937E-01  0.10200963881E+01  0.10198179249E+01 0.  0.
     999903    2    3    3    0    0 -0.64655811301E-01  0.90913355204E-02 -0.11127401920E+00  0.13056678141E+00  0.20068650693E-01 0.  0.
         14    1    1    2    0    0 -0.16839852380E-01 -0.13382981936E-01  0.10264317937E-01  0.23833611904E-01  0.00000000000E+00 0. -1.
     999901    1    3    3    0    0  0.81495663681E-01  0.42916464154E-02  0.10100970127E+00  0.88952960669E+00  0.88000000000E+00 0. -1.
        -11    1    4    4    0    0 -0.44554568172E-01  0.15290543178E-01 -0.72734146224E-01  0.86656952425E-01  0.51100000000E-03 0.  1.
         11    1    4    4    0    0 -0.20101243129E-01 -0.61992076576E-02 -0.38539872979E-01  0.43909828982E-01  0.51100000000E-03 0. -1.
</event>
<event>
 8    1  0.1123470E+005  0.1043930E+01  0.7957747E-01            NaN
         13   -1    0    0    0    0  0.00000000000E+00  0.00000000000E+00  0.74505805969E-08  0.10566000000E+00  0.10566000000E+00 0. -1.
     999900   -1    0    0    0    0 -0.00000000000E+00 -0.00000000000E+00 -0.74505805969E-08  0.93827000000E+00  0.93827000000E+00 0. -1.
     999902    2    1    2    0    0  0.21780579233E-01  0.53493811145E-02  0.80106528810E-02  0.10201144574E+01  0.10198364213E+01 0.  0.
     999903    2    3    3    0    0  0.23020871687E-01  0.12801614804E+00  0.27373310925E-02  0.13158956638E+00  0.19754146573E-01 0.  0.
         14    1    1    2    0    0 -0.21780579233E-01 -0.53493811145E-02 -0.80106528810E-02  0.23815542606E-01  0.00000000000E+00 0.  1.
     999901    1    3    3    0    0 -0.12402924538E-02 -0.12266676692E+00  0.52733217885E-02  0.88852489102E+00  0.88000000000E+00 0.  1.
        -11    1    4    4    0    0  0.21244977358E-01  0.85811952612E-01 -0.53975383664E-02  0.88568814012E-01  0.51100000000E-03 0. -1.
         11    1    4    4    0    0  0.17758943293E-02  0.42204195424E-01  0.81348694589E-02  0.43020752366E-01  0.51100000000E-03 0.  1.
</event>
<event>
 8    1  0.1123470E+005  0.1043930E+01  0.7957747E-01            NaN
         13   -1    0    0    0    0  0.00000000000E+00  0.00000000000E+00  0.74505805969E-08  0.10566000000E+00  0.10566000000E+00 0.  1.
     999900   -1    0    0    0    0 -0.00000000000E+00 -0.00000000000E+00 -0.74505805969E-08  0.93827000000E+00  0.93827000000E+00 0. -1.
     999902    2    1    2    0    0  0.11816969031E-01 -0.17544463116E-01 -0.10103285151E-01  0.10204880437E+01  0.10202187619E+01 0.  0.
     999903    2    3    3    0    0 -0.10265861464E-01  0.76555258084E-01 -0.10312352617E+00  0.13032223099E+00  0.19578733040E-01 0.  0.
         14    1    1    2    0    0 -0.11816969031E-01  0.17544463116E-01  0.10103285151E-01  0.23441956274E-01  0.00000000000E+00 0. -1.
     999901    1    3    3    0    0  0.22082830496E-01 -0.94099721199E-01  0.93020241019E-01  0.89016581274E+00  0.88000000000E+00 0.  1.
        -11    1    4    4    0    0 -0.11343567900E-01  0.52951937601E-01 -0.83888484318E-01  0.99850504008E-01  0.51100000000E-03 0. -1.
         11    1    4    4    0    0  0.10777064353E-02  0.23603320482E-01 -0.19235041852E-01  0.30471726978E-01  0.51100000000E-03 0.  1.
</event>
<event>
 8    1  0.1123470E+005  0.1043930E+01  0.7957747E-01            NaN
         13   -1    0    0    0    0  0.00000000000E+00  0.00000000000E+00  0.74505805969E-08  0.10566000000E+00  0.10566000000E+00 0. -1.
     999900   -1    0    0    0    0 -0.00000000000E+00 -0.00000000000E+00 -0.74505805969E-08  0.93827000000E+00  0.93827000000E+00 0. -1.
     999902    2    1    2    0    0  0.69074830158E-03 -0.20626748840E-01 -0.29456926274E-02  0.10230825300E+01  0.10228701023E+01 0.  0.
     999903    2    3    3    0    0 -0.49728679531E-01  0.11463147574E+00  0.32244990945E-01  0.13062788675E+00  0.20262984905E-01 0.  0.
         14    1    1    2    0    0 -0.69074830158E-03  0.20626748840E-01  0.29456926274E-02  0.20847470014E-01  0.00000000000E+00 0. -1.
     999901    1    3    3    0    0  0.50419427833E-01 -0.13525822458E+00 -0.35190683573E-01  0.89245464323E+00  0.88000000000E+00 0.  1.
        -11    1    4    4    0    0 -0.31113035672E-01  0.61455506647E-01  0.27199150354E-01  0.74059808175E-01  0.51100000000E-03 0.  1.
         11    1    4    4    0    0 -0.18615643859E-01  0.53175969096E-01  0.50458405914E-02  0.56568078577E-01  0.51100000000E-03 0. -1.
</event>
<event>
 8    1  0.1123470E+005  0.1043930E+01  0.7957747E-01            NaN
         13   -1    0    0    0    0  0.00000000000E+00  0.00000000000E+00  0.74505805969E-08  0.10566000000E+00  0.10566000000E+00 0. -1.
     999900   -1    0    0    0    0 -0.00000000000E+00 -0.00000000000E+00 -0.74505805969E-08  0.93827000000E+00  0.93827000000E+00 0.  1.
     999902    2    1    2    0    0  0.68574347006E-02 -0.21919294895E-01  0.71973840626E-02  0.10198617172E+01  0.10195776773E+01 0.  0.
     999903    2    3    3    0    0  0.34954325705E-01  0.73366226213E-01 -0.96908676304E-01  0.12817408265E+00  0.20806150186E-01 0.  0.
         14    1    1    2    0    0 -0.68574347006E-02  0.21919294895E-01 -0.71973840626E-02  0.24068282795E-01  0.00000000000E+00 0.  1.
     999901    1    3    3    0    0 -0.28096891004E-01 -0.95285521108E-01  0.10410606037E+00  0.89168763456E+00  0.88000000000E+00 0.  1.
        -11    1    4    4    0    0  0.17494596668E-02  0.21700498575E-01 -0.32995510176E-01  0.39533998790E-01  0.51100000000E-03 0.  1.
         11    1    4    4    0    0  0.33204866038E-01  0.51665727638E-01 -0.63913166127E-01  0.88640083858E-01  0.51100000000E-03 0. -1.
</event>
<event>
 8    1  0.1123470E+005  0.1043930E+01  0.7957747E-01            NaN
         13   -1    0    0    0    0  0.00000000000E+00  0.00000000000E+00  0.74505805969E-08  0.10566000000E+00  0.10566000000E+00 0.  1.
     999900   -1    0    0    0    0 -0.00000000000E+00 -0.00000000000E+00 -0.74505805969E-08  0.93827000000E+00  0.93827000000E+00 0.  1.
     999902    2    1    2    0    0  0.83282274522E-02  0.20964438297E-01  0.55723190876E-02  0.10206938690E+01  0.10204293490E+01 0.  0.
     999903    2    3    3    0    0 -0.12539621458E+00  0.36743976323E-02 -0.22129239006E-01  0.12999271357E+00  0.25897693594E-01 0.  0.
         14    1    1    2    0    0 -0.83282274522E-02 -0.20964438297E-01 -0.55723190876E-02  0.23236131038E-01  0.00000000000E+00 0.  1.
     999901    1    3    3    0    0  0.13372444203E+00  0.17290040665E-01  0.27701558093E-01  0.89070115540E+00  0.88000000000E+00 0.  1.
        -11    1    4    4    0    0 -0.17454649909E-01  0.40419731799E-02 -0.12011081879E-01  0.21576134026E-01  0.51100000000E-03 0.  1.
         11    1    4    4    0    0 -0.10794156467E+00 -0.36757554768E-03 -0.10118157127E-01  0.10841657954E+00  0.51100000000E-03 0. -1.
</event>
<event>
 8    1  0.1123470E+005  0.1043930E+01  0.7957747E-01            NaN
         13   -1    0    0    0    0  0.00000000000E+00  0.00000000000E+00  0.74505805969E-08  0.10566000000E+00  0.10566000000E+00 0. -1.
     999900   -1    0    0    0    0 -0.00000000000E+00 -0.00000000000E+00 -0.74505805969E-08  0.93827000000E+00  0.93827000000E+00 0. -1.
     999902    2    1    2    0    0  0.15260488968E-01  0.59669720114E-02  0.17005545876E-01  0.10203148382E+01  0.10200415154E+01 0.  0.
     999903    2    3    3    0    0 -0.97518121823E-01 -0.66327498721E-01  0.49640344083E-01  0.12957888648E+00  0.20430440278E-01 0.  0.
         14    1    1    2    0    0 -0.15260488968E-01 -0.59669720114E-02 -0.17005545876E-01  0.23615161847E-01  0.00000000000E+00 0.  1.
     999901    1    3    3    0    0  0.11277861079E+00  0.72294470733E-01 -0.32634798207E-01  0.89073595167E+00  0.88000000000E+00 0. -1.
        -11    1    4    4    0    0 -0.89697038089E-01 -0.54915678503E-01  0.39209321780E-01  0.11224492159E+00  0.51100000000E-03 0. -1.
         11    1    4    4    0    0 -0.78210837334E-02 -0.11411820218E-01  0.10431022303E-01  0.17333964888E-01  0.51100000000E-03 0.  1.
</event>
<event>
 8    1  0.1123470E+005  0.1043930E+01  0.7957747E-01            NaN
         13   -1    0    0    0    0  0.00000000000E+00  0.00000000000E+00  0.74505805969E-08  0.10566000000E+00  0.10566000000E+00 0. -1.
     999900   -1    0    0    0    0 -0.00000000000E+00 -0.00000000000E+00 -0.74505805969E-08  0.93827000000E+00  0.93827000000E+00 0.  1.
     999902    2    1    2    0    0 -0.25836391151E-01  0.38475041392E-02  0.25012094316E-02  0.10176892217E+01  0.10173508606E+01 0.  0.
     999903    2    3    3    0    0  0.40125150358E-01  0.11061587226E+00 -0.44850879217E-01  0.12752483821E+00  0.20126701290E-01 0.  0.
         14    1    1    2    0    0  0.25836391151E-01 -0.38475041392E-02 -0.25012094316E-02  0.26240778274E-01  0.00000000000E+00 0. -1.
     999901    1    3    3    0    0 -0.65961541508E-01 -0.10676836812E+00  0.47352088648E-01  0.89016438352E+00  0.88000000000E+00 0.  1.
        -11    1    4    4    0    0  0.69667619551E-03  0.45086784513E-02  0.20099107296E-02  0.50114270662E-02  0.51100000000E-03 0.  1.
         11    1    4    4    0    0  0.39428474162E-01  0.10610719381E+00 -0.46860789946E-01  0.12251341114E+00  0.51100000000E-03 0. -1.
</event>
<event>
 8    1  0.1123470E+005  0.1043930E+01  0.7957747E-01            NaN
         13   -1    0    0    0    0  0.00000000000E+00  0.00000000000E+00  0.74505805969E-08  0.10566000000E+00  0.10566000000E+00 0. -1.
     999900   -1    0    0    0    0 -0.00000000000E+00 -0.00000000000E+00 -0.74505805969E-08  0.93827000000E+00  0.93827000000E+00 0. -1.
     999902    2    1    2    0    0 -0.18497953607E-01  0.97946040985E-02  0.97479903881E-02  0.10208403514E+01  0.10205791939E+01 0.  0.
     999903    2    3    3    0    0 -0.83204691660E-01 -0.61037930376E-01  0.81165016029E-01  0.13274992724E+00  0.19650284882E-01 0.  0.
         14    1    1    2    0    0  0.18497953607E-01 -0.97946040985E-02 -0.97479903881E-02  0.23089648627E-01  0.00000000000E+00 0.  1.
     999901    1    3    3    0    0  0.64706738053E-01  0.70832534475E-01 -0.71417025641E-01  0.88809042414E+00  0.88000000000E+00 0. -1.
        -11    1    4    4    0    0 -0.54868338062E-01 -0.50672078524E-01  0.54227614022E-01  0.92298912817E-01  0.51100000000E-03 0. -1.
         11    1    4    4    0    0 -0.28336353598E-01 -0.10365851852E-01  0.26937402007E-01  0.40451014421E-01  0.51100000000E-03 0.  1.
</event>
<event>
 8    1  0.1123470E+005  0.1043930E+01  0.7957747E-01            NaN
         13   -1    0    0    0    0  0.00000000000E+00  0.00000000000E+00  0.74505805969E-08  0.10566000000E+00  0.10566000000E+00 0.  1.
     999900   -1    0    0    0    0 -0.00000000000E+00 -0.00000000000E+00 -0.74505805969E-08  0.93827000000E+00  0.93827000000E+00 0. -1.
     999902    2    1    2    0    0  0.18692668971E-01 -0.13375480338E-01 -0.43686771929E-03  0.10209406503E+01  0.10206817825E+01 0.  0.
     999903    2    3    3    0    0 -0.22863547146E-01 -0.74112132090E-01 -0.10454920865E+00  0.13175268392E+00  0.20319517254E-01 0.  0.
         14    1    1    2    0    0 -0.18692668971E-01  0.13375480338E-01  0.43686771929E-03  0.22989349728E-01  0.00000000000E+00 0. -1.
     999901    1    3    3    0    0  0.41556216117E-01  0.60736651751E-01  0.10411234093E+00  0.88918796635E+00  0.88000000000E+00 0.  1.
        -11    1    4    4    0    0 -0.10316398920E-01 -0.57281277747E-01 -0.67180287401E-01  0.88887710080E-01  0.51100000000E-03 0.  1.
         11    1    4    4    0    0 -0.12547148226E-01 -0.16830854342E-01 -0.37368921247E-01  0.42864973844E-01  0.51100000000E-03 0. -1.
</event>
<event>
 8    1  0.1129781E+005  0.1043930E+01  0.7957747E-01            NaN
         13   -1    0    0    0    0  0.00000000000E+00  0.00000000000E+00  0.74505805969E-08  0.10566000000E+00  0.10566000000E+00 0. -1.
     999900   -1    0    0    0    0 -0.00000000000E+00 -0.00000000000E+00 -0.74505805969E-08  0.93827000000E+00  0.93827000000E+00 0.  1.
     999902    2    1    2    0    0 -0.22023650563E-01  0.33992316994E-02 -0.82554166746E-02  0.10201655756E+01  0.10198887458E+01 0.  0.
     999903    2    3    3    0    0  0.12408656227E+00 -0.22531519925E-01 -0.11182633652E-02  0.12771303510E+00  0.20105335030E-01 0.  0.
         14    1    1    2    0    0  0.22023650563E-01 -0.33992316994E-02  0.82554166746E-02  0.23764424351E-01  0.00000000000E+00 0. -1.
     999901    1    3    3    0    0 -0.14611021283E+00  0.25930751625E-01 -0.71371533094E-02  0.89245254055E+00  0.88000000000E+00 0. -1.
        -11    1    4    4    0    0  0.57888125261E-01 -0.69958403630E-03 -0.30985863565E-02  0.57977468231E-01  0.51100000000E-03 0.  1.
         11    1    4    4    0    0  0.66198437005E-01 -0.21831935889E-01  0.19803229914E-02  0.69735566870E-01  0.51100000000E-03 0. -1.
</event>
<event>
 8    1  0.1123470E+005  0.1043930E+01  0.7957747E-01            NaN
         13   -1    0    0    0    0  0.00000000000E+00  0.00000000000E+00  0.74505805969E-08  0.10566000000E+00  0.10566000000E+00 0.  1.
     999900   -1    0    0    0    0 -0.00000000000E+00 -0.00000000000E+00 -0.74505805969E-08  0.93827000000E+00  0.93827000000E+00 0.  1.
     999902    2    1    2    0    0  0.13747134456E-02 -0.23449751155E-01  0.34658878318E-02  0.10201856734E+01  0.10199093171E+01 0.  0.
     999903    2    3    3    0    0  0.81962809555E-01  0.85240949489E-01  0.46847108844E-01  0.12878787222E+00  0.20192642345E-01 0.  0.
         14    1    1    2    0    0 -0.13747134456E-02  0.23449751155E-01 -0.34658878318E-02  0.23744326580E-01  0.00000000000E+00 0. -1.
     999901    1    3    3    0    0 -0.80588096109E-01 -0.10869070064E+00 -0.43381221013E-01  0.89139780120E+00  0.88000000000E+00 0.  1.
        -11    1    4    4    0    0  0.27186946611E-01  0.19554975822E-01  0.60840552591E-02  0.34041210243E-01  0.51100000000E-03 0.  1.
         11    1    4    4    0    0  0.54775862944E-01  0.65685973667E-01  0.40763053585E-01  0.94746661980E-01  0.51100000000E-03 0. -1.
</event>
<event>
 8    1  0.1123470E+005  0.1043930E+01  0.7957747E-01            NaN
         13   -1    0    0    0    0  0.00000000000E+00  0.00000000000E+00  0.74505805969E-08  0.10566000000E+00  0.10566000000E+00 0.  1.
     999900   -1    0    0    0    0 -0.00000000000E+00 -0.00000000000E+00 -0.74505805969E-08  0.93827000000E+00  0.93827000000E+00 0. -1.
     999902    2    1    2    0    0  0.25013775900E-01 -0.19234442626E-02  0.71510314234E-02  0.10178431092E+01  0.10175087562E+01 0.  0.
     999903    2    3    3    0    0  0.96748856044E-01 -0.85342547133E-01  0.52935767049E-02  0.13099017966E+00  0.22061589156E-01 0.  0.
         14    1    1    2    0    0 -0.25013775900E-01  0.19234442626E-02 -0.71510314234E-02  0.26086890827E-01  0.00000000000E+00 0.  1.
     999901    1    3    3    0    0 -0.71735080144E-01  0.83419102871E-01  0.18574547184E-02  0.88685292951E+00  0.88000000000E+00 0. -1.
        -11    1    4    4    0    0  0.65027987136E-01 -0.69786649388E-01  0.67411056126E-02  0.95626979298E-01  0.51100000000E-03 0. -1.
         11    1    4    4    0    0  0.31720868907E-01 -0.15555897745E-01 -0.14475289077E-02  0.35363200362E-01  0.51100000000E-03 0.  1.
</event>
<event>
 8    1  0.1123470E+005  0.1043930E+01  0.7957747E-01            NaN
         13   -1    0    0    0    0  0.00000000000E+00  0.00000000000E+00  0.74505805969E-08  0.10566000000E+00  0.10566000000E+00 0.  1.
     999900   -1    0    0    0    0 -0.00000000000E+00 -0.00000000000E+00 -0.74505805969E-08  0.93827000000E+00  0.93827000000E+00 0.  1.
     999902    2    1    2    0    0 -0.96622004235E-02 -0.16443272720E-01  0.15227659714E-01  0.10195246531E+01  0.10192325041E+01 0.  0.
     999903    2    3    3    0    0 -0.11480539944E+00 -0.96248873253E-02 -0.57973762892E-01  0.13022153781E+00  0.17993708011E-01 0.  0.
         14    1    1    2    0    0  0.96622004235E-02  0.16443272720E-01 -0.15227659714E-01  0.24405346856E-01  0.00000000000E+00 0. -1.
     999901    1    3    3    0    0  0.10514319902E+00 -0.68183853950E-02  0.73201422607E-01  0.88930311534E+00  0.88000000000E+00 0. -1.
        -11    1    4    4    0    0 -0.61236615534E-01 -0.27695372631E-02 -0.21120211858E-01  0.64837627105E-01  0.51100000000E-03 0. -1.
         11    1    4    4    0    0 -0.53568783906E-01 -0.68553500622E-02 -0.36853551034E-01  0.65383910700E-01  0.51100000000E-03 0.  1.
</event>
<event>
 8    1  0.1123470E+005  0.1043930E+01  0.7957747E-01            NaN
         13   -1    0    0    0    0  0.00000000000E+00  0.00000000000E+00  0.74505805969E-08  0.10566000000E+00  0.10566000000E+00 0. -1.
     999900   -1    0    0    0    0 -0.00000000000E+00 -0.00000000000E+00 -0.74505805969E-08  0.93827000000E+00  0.93827000000E+00 0.  1.
     999902    2    1    2    0    0  0.17994191120E-01 -0.16560958142E-01 -0.55377266393E-03  0.10194685423E+01  0.10191750320E+01 0.  0.
     999903    2    3    3    0    0  0.12009810727E+00 -0.52904472246E-01 -0.17790123860E-02  0.13281891481E+00  0.20377946230E-01 0.  0.
         14    1    1    2    0    0 -0.17994191120E-01  0.16560958142E-01  0.55377266393E-03  0.24461457700E-01  0.00000000000E+00 0.  1.
     999901    1    3    3    0    0 -0.10210391615E+00  0.36343514105E-01  0.12252397221E-02  0.88664962749E+00  0.88000000000E+00 0. -1.
        -11    1    4    4    0    0  0.99628999100E-01 -0.49798524551E-01  0.35334702306E-02  0.11143866942E+00  0.51100000000E-03 0.  1.
         11    1    4    4    0    0  0.20469108174E-01 -0.31059476947E-02 -0.53124826166E-02  0.21380245393E-01  0.51100000000E-03 0. -1.
</event>
<event>
 8    1  0.1123470E+005  0.1043930E+01  0.7957747E-01            NaN
         13   -1    0    0    0    0  0.00000000000E+00  0.00000000000E+00  0.74505805969E-08  0.10566000000E+00  0.10566000000E+00 0. -1.
     999900   -1    0    0    0    0 -0.00000000000E+00 -0.00000000000E+00 -0.74505805969E-08  0.93827000000E+00  0.93827000000E+00 0. -1.
     999902    2    1    2    0    0 -0.19377190538E-01 -0.12331427808E-01  0.54573826030E-02  0.10203223180E+01  0.10200491704E+01 0.  0.
     999903    2    3    3    0    0 -0.34030140116E-01  0.77066238929E-01 -0.96827585525E-01  0.12977817734E+00  0.19223380951E-01 0.  0.
         14    1    1    2    0    0  0.19377190538E-01  0.12331427808E-01 -0.54573826030E-02  0.23607682008E-01  0.00000000000E+00 0. -1.
     999901    1    3    3    0    0  0.14652949578E-01 -0.89397666738E-01  0.10228496813E+00  0.89054414065E+00  0.88000000000E+00 0.  1.
        -11    1    4    4    0    0 -0.19983791179E-01  0.58357735516E-01 -0.79679628387E-01  0.10076746253E+00  0.51100000000E-03 0.  1.
         11    1    4    4    0    0 -0.14046348936E-01  0.18708503413E-01 -0.17147957138E-01  0.29010714804E-01  0.51100000000E-03 0. -1.
</event>
<event>
 8    1  0.1123470E+005  0.1043930E+01  0.7957747E-01            NaN
         13   -1    0    0    0    0  0.00000000000E+00  0.00000000000E+00  0.74505805969E-08  0.10566000000E+00  0.10566000000E+00 0.  1.
     999900   -1    0    0    0    0 -0.00000000000E+00 -0.00000000000E+00 -0.74505805969E-08  0.93827000000E+00  0.93827000000E+00 0. -1.
     999902    2    1    2    0    0  0.15838785632E-01 -0.70721109038E-03 -0.19320262977E-01  0.10189372043E+01  0.10186306428E+01 0.  0.
     999903    2    3    3    0    0  0.16727491732E-01  0.75675374999E-01  0.99615326578E-01  0.12765679735E+00  0.19143491338E-01 0.  0.
         14    1    1    2    0    0 -0.15838785632E-01  0.70721109038E-03  0.19320262977E-01  0.24992795748E-01  0.00000000000E+00 0.  1.
     999901    1    3    3    0    0 -0.88870609955E-03 -0.76382586089E-01 -0.11893558955E+00  0.89128040690E+00  0.88000000000E+00 0. -1.
        -11    1    4    4    0    0 -0.93159848950E-03  0.31294708201E-01  0.48184571972E-01  0.57465126244E-01  0.51100000000E-03 0.  1.
         11    1    4    4    0    0  0.17659090221E-01  0.44380666798E-01  0.51430754606E-01  0.70191671110E-01  0.51100000000E-03 0. -1.
</event>
<event>
 8    1  0.1123470E+005  0.1043930E+01  0.7957747E-01            NaN
         13   -1    0    0    0    0  0.00000000000E+00  0.00000000000E+00  0.74505805969E-08  0.10566000000E+00  0.10566000000E+00 0. -1.
     999900   -1    0    0    0    0 -0.00000000000E+00 -0.00000000000E+00 -0.74505805969E-08  0.93827000000E+00  0.93827000000E+00 0. -1.
     999902    2    1    2    0    0  0.23546687210E-01 -0.34895801009E-02  0.76683239982E-03  0.10201137938E+01  0.10198357419E+01 0.  0.
     999903    2    3    3    0    0  0.12874419573E-01 -0.46090618757E-03  0.12861151745E+00  0.13080657257E+00  0.20086659595E-01 0.  0.
         14    1    1    2    0    0 -0.23546687210E-01  0.34895801009E-02 -0.76683239982E-03  0.23816206242E-01  0.00000000000E+00 0. -1.
     999901    1    3    3    0    0  0.10672267637E-01 -0.30286739134E-02 -0.12784468505E+00  0.88930722119E+00  0.88000000000E+00 0. -1.
        -11    1    4    4    0    0  0.51068547585E-02 -0.38839479963E-02  0.10010607807E-01  0.11901193521E-01  0.51100000000E-03 0.  1.
         11    1    4    4    0    0  0.77675648150E-02  0.34230418087E-02  0.11860090964E+00  0.11890537905E+00  0.51100000000E-03 0. -1.
</event>
<event>
 8    1  0.1123470E+005  0.1043930E+01  0.7957747E-01            NaN
         13   -1    0    0    0    0  0.00000000000E+00  0.00000000000E+00  0.74505805969E-08  0.10566000000E+00  0.10566000000E+00 0. -1.
     999900   -1    0    0    0    0 -0.00000000000E+00 -0.00000000000E+00 -0.74505805969E-08  0.93827000000E+00  0.93827000000E+00 0.  1.
     999902    2    1    2    0    0 -0.13420046687E-01 -0.14651105673E-01 -0.13783473836E-01  0.10197486704E+01  0.10194619238E+01 0.  0.
     999903    2    3    3    0    0 -0.10012724963E+00  0.66037792116E-01 -0.49265854323E-01  0.13110485165E+00  0.19362376362E-01 0.  0.
         14    1    1    2    0    0  0.13420046687E-01  0.14651105673E-01  0.13783473836E-01  0.24181329606E-01  0.00000000000E+00 0. -1.
     999901    1    3    3    0    0  0.86707202940E-01 -0.80688897790E-01  0.35482380488E-01  0.88864381874E+00  0.88000000000E+00 0. -1.
        -11    1    4    4    0    0 -0.75322195155E-01  0.47690111808E-01 -0.45277940626E-01  0.99990663942E-01  0.51100000000E-03 0.  1.
         11    1    4    4    0    0 -0.24805054472E-01  0.18347680308E-01 -0.39879136975E-02  0.31114187707E-01  0.51100000000E-03 0. -1.
</event>
<event>
 8    1  0.1123470E+005  0.1043930E+01  0.7957747E-01            NaN
         13   -1    0    0    0    0  0.00000000000E+00  0.00000000000E+00  0.74505805969E-08  0.10566000000E+00  0.10566000000E+00 0. -1.
     999900   -1    0    0    0    0 -0.00000000000E+00 -0.00000000000E+00 -0.74505805969E-08  0.93827000000E+00  0.93827000000E+00 0. -1.
     999902    2    1    2    0    0 -0.10941835031E-01 -0.18849146870E-01  0.87875530869E-02  0.10204303153E+01  0.10201596901E+01 0.  0.
     999903    2    3    3    0    0  0.93390398767E-01 -0.88867141686E-01 -0.14403138128E-01  0.13120281755E+00  0.19687394221E-01 0.  0.
         14    1    1    2    0    0  0.10941835031E-01  0.18849146870E-01 -0.87875530869E-02  0.23499684696E-01  0.00000000000E+00 0.  1.
     999901    1    3    3    0    0 -0.10433223380E+00  0.70017994817E-01  0.23190691215E-01  0.88922749776E+00  0.88000000000E+00 0.  1.
        -11    1    4    4    0    0  0.65610313430E-01 -0.73964853358E-01 -0.10281773565E-01  0.99405677651E-01  0.51100000000E-03 0.  1.
         11    1    4    4    0    0  0.27780085337E-01 -0.14902288328E-01 -0.41213645636E-02  0.31797139897E-01  0.51100000000E-03 0. -1.
</event>
<event>
 8    1  0.1123470E+005  0.1043930E+01  0.7957747E-01            NaN
         13   -1    0    0    0    0  0.00000000000E+00  0.00000000000E+00  0.74505805969E-08  0.10566000000E+00  0.10566000000E+00 0.  1.
     999900   -1    0    0    0    0 -0.00000000000E+00 -0.00000000000E+00 -0.74505805969E-08  0.93827000000E+00  0.93827000000E+00 0. -1.
     999902    2    1    2    0    0  0.36900602519E-02  0.65491318665E-04  0.21221559585E-01  0.10223899112E+01  0.10221629787E+01 0.  0.
     999903    2    3    3    0    0 -0.43342522521E-01 -0.10677832899E+00  0.64663114103E-01  0.13361838014E+00  0.19808265612E-01 0.  0.
         14    1    1    2    0    0 -0.36900602519E-02 -0.65491318665E-04 -0.21221559585E-01  0.21540088788E-01  0.00000000000E+00 0. -1.
     999901    1    3    3    0    0  0.47032582773E-01  0.10684382031E+00 -0.43441554517E-01  0.88877153107E+00  0.88000000000E+00 0. -1.
        -11    1    4    4    0    0 -0.36258990410E-01 -0.64001629517E-01  0.41372315244E-01  0.84396993761E-01  0.51100000000E-03 0.  1.
         11    1    4    4    0    0 -0.70835321113E-02 -0.42776699471E-01  0.23290798859E-01  0.49221386381E-01  0.51100000000E-03 0. -1.
</event>
<event>
 8    1  0.1123470E+005  0.1043930E+01  0.7957747E-01            NaN
         13   -1    0    0    0    0  0.00000000000E+00  0.00000000000E+00  0.74505805969E-08  0.10566000000E+00  0.10566000000E+00 0.  1.
     999900   -1    0    0    0    0 -0.00000000000E+00 -0.00000000000E+00 -0.74505805969E-08  0.93827000000E+00  0.93827000000E+00 0.  1.
     999902    2    1    2    0    0  0.17305137667E-02  0.39419709707E-02  0.23579772453E-01  0.10199604468E+01  0.10196787600E+01 0.  0.
     999903    2    3    3    0    0 -0.95781402373E-01  0.22721706394E-01 -0.79805241265E-01  0.12836092158E+00  0.20427840680E-01 0.  0.
         14    1    1    2    0    0 -0.17305137667E-02 -0.39419709707E-02 -0.23579772453E-01  0.23969553229E-01  0.00000000000E+00 0. -1.
     999901    1    3    3    0    0  0.97511916139E-01 -0.18779735424E-01  0.10338501372E+00  0.89159952519E+00  0.88000000000E+00 0. -1.
        -11    1    4    4    0    0 -0.25021195180E-01 -0.20869438248E-02 -0.25394981934E-01  0.35715287640E-01  0.51100000000E-03 0. -1.
         11    1    4    4    0    0 -0.70760207193E-01  0.24808650219E-01 -0.54410259331E-01  0.92645633945E-01  0.51100000000E-03 0.  1.
</event>
<event>
 8    1  0.1123470E+005  0.1043930E+01  0.7957747E-01            NaN
         13   -1    0    0    0    0  0.00000000000E+00  0.00000000000E+00  0.74505805969E-08  0.10566000000E+00  0.10566000000E+00 0. -1.
     999900   -1    0    0    0    0 -0.00000000000E+00 -0.00000000000E+00 -0.74505805969E-08  0.93827000000E+00  0.93827000000E+00 0.  1.
     999902    2    1    2    0    0  0.20747896696E-01  0.10492550513E-01  0.29991378982E-03  0.10206779295E+01  0.10204130424E+01 0.  0.
     999903    2    3    3    0    0 -0.25423870502E-01  0.89645035933E-01 -0.90421022417E-01  0.13128080994E+00  0.19392888023E-01 0.  0.
         14    1    1    2    0    0 -0.20747896696E-01 -0.10492550513E-01 -0.29991378982E-03  0.23252070485E-01  0.00000000000E+00 0. -1.
     999901    1    3    3    0    0  0.46171767197E-01 -0.79152485420E-01  0.90720936207E-01  0.88939711957E+00  0.88000000000E+00 0. -1.
        -11    1    4    4    0    0 -0.16302055891E-01  0.45325802517E-01 -0.34030539442E-01  0.58979014368E-01  0.51100000000E-03 0.  1.
         11    1    4    4    0    0 -0.91218146105E-02  0.44319233416E-01 -0.56390482975E-01  0.72301795576E-01  0.51100000000E-03 0. -1.
</event>
<event>
 8    1  0.1123470E+005  0.1043930E+01  0.7957747E-01            NaN
         13   -1    0    0    0    0  0.00000000000E+00  0.00000000000E+00  0.74505805969E-08  0.10566000000E+00  0.10566000000E+00 0.  1.
     999900   -1    0    0    0    0 -0.00000000000E+00 -0.00000000000E+00 -0.74505805969E-08  0.93827000000E+00  0.93827000000E+00 0. -1.
     999902    2    1    2    0    0 -0.61740682762E-02  0.21911635610E-01 -0.42477325542E-02  0.10207722340E+01  0.10205095157E+01 0.  0.
     999903    2    3    3    0    0  0.18599632142E-01  0.85075137890E-01 -0.98710975605E-01  0.13311989860E+00  0.19832430413E-01 0.  0.
         14    1    1    2    0    0  0.61740682762E-02 -0.21911635610E-01  0.42477325542E-02  0.23157765999E-01  0.00000000000E+00 0.  1.
     999901    1    3    3    0    0 -0.24773700419E-01 -0.63163502279E-01  0.94463243051E-01  0.88765233540E+00  0.88000000000E+00 0.  1.
        -11    1    4    4    0    0  0.19933303428E-01  0.50746801703E-01 -0.54071102538E-01  0.76788799439E-01  0.51100000000E-03 0.  1.
         11    1    4    4    0    0 -0.13336712852E-02  0.34328336187E-01 -0.44639873067E-01  0.56331099163E-01  0.51100000000E-03 0. -1.
</event>
<event>
 7    1  0.1123470E+005  0.1043930E+01  0.7957747E-01            NaN
         13   -1    0    0    0    0  0.00000000000E+00  0.00000000000E+00  0.74505805969E-08  0.10566000000E+00  0.10566000000E+00 0. -1.
     999900   -1    0    0    0    0 -0.00000000000E+00 -0.00000000000E+00 -0.74505805969E-08  0.93827000000E+00  0.93827000000E+00 0.  1.
     999902    2    1    2    0    0  0.20181046771E-01 -0.11576710762E-01 -0.59681661185E-02  0.10199109682E+01  0.10196281034E+01 0.  0.
         14    1    1    2    0    0 -0.20181046771E-01  0.11576710762E-01  0.59681661185E-02  0.24019031780E-01  0.00000000000E+00 0. -1.
     999901    1    3    3    0    0 -0.81864509844E-01 -0.84099997936E-01  0.10504611375E-01  0.88785412906E+00  0.88000000000E+00 0. -1.
        -11    1    3    3    0    0  0.40784890830E-01  0.89285670964E-02 -0.12822544122E-01  0.43678431625E-01  0.51100000000E-03 0. -1.
         11    1    3    3    0    0  0.61260665785E-01  0.63594720077E-01 -0.36502333708E-02  0.88378407537E-01  0.51100000000E-03 0.  1.
</event>
<event>
 8    1  0.1123470E+005  0.1043930E+01  0.7957747E-01            NaN
         13   -1    0    0    0    0  0.00000000000E+00  0.00000000000E+00  0.74505805969E-08  0.10566000000E+00  0.10566000000E+00 0.  1.
     999900   -1    0    0    0    0 -0.00000000000E+00 -0.00000000000E+00 -0.74505805969E-08  0.93827000000E+00  0.93827000000E+00 0. -1.
     999902    2    1    2    0    0  0.12084794828E-01  0.40432980924E-02 -0.18911125280E-01  0.10211260270E+01  0.10208713640E+01 0.  0.
     999903    2    3    3    0    0  0.19213066627E-01 -0.12502160951E+00  0.25772474443E-01  0.13056149440E+00  0.19558594227E-01 0.  0.
         14    1    1    2    0    0 -0.12084794828E-01 -0.40432980924E-02  0.18911125280E-01  0.22803973006E-01  0.00000000000E+00 0.  1.
     999901    1    3    3    0    0 -0.71282717989E-02  0.12906490760E+00 -0.44683599723E-01  0.89056453260E+00  0.88000000000E+00 0. -1.
        -11    1    4    4    0    0  0.94122921758E-03 -0.43409924450E-01  0.13871118156E-02  0.43445283443E-01  0.51100000000E-03 0.  1.
         11    1    4    4    0    0  0.18271837409E-01 -0.81611685056E-01  0.24385362628E-01  0.87116210956E-01  0.51100000000E-03 0. -1.
</event>
<event>
 8    1  0.1123470E+005  0.1043930E+01  0.7957747E-01            NaN
         13   -1    0    0    0    0  0.00000000000E+00  0.00000000000E+00  0.74505805969E-08  0.10566000000E+00  0.10566000000E+00 0.  1.
     999900   -1    0    0    0    0 -0.00000000000E+00 -0.00000000000E+00 -0.74505805969E-08  0.93827000000E+00  0.93827000000E+00 0. -1.
     999902    2    1    2    0    0 -0.49954372446E-02 -0.20458733856E-01 -0.10434390580E-01  0.10204270068E+01  0.10201563044E+01 0.  0.
     999903    2    3    3    0    0 -0.49714234672E-01  0.11326873525E+00 -0.30012857611E-01  0.12898653023E+00  0.20867243329E-01 0.  0.
         14    1    1    2    0    0  0.49954372446E-02  0.20458733856E-01  0.10434390580E-01  0.23502993236E-01  0.00000000000E+00 0. -1.
     999901    1    3    3    0    0  0.44718797428E-01 -0.13372746911E+00  0.19578467031E-01  0.89144047654E+00  0.88000000000E+00 0.  1.
        -11    1    4    4    0    0 -0.12786543021E-01  0.45495557758E-01 -0.19359349166E-01  0.51072370018E-01  0.51100000000E-03 0.  1.
         11    1    4    4    0    0 -0.36927691652E-01  0.67773177491E-01 -0.10653508446E-01  0.77914160210E-01  0.51100000000E-03 0. -1.
</event>
<event>
 8    1  0.1123470E+005  0.1043930E+01  0.7957747E-01            NaN
         13   -1    0    0    0    0  0.00000000000E+00  0.00000000000E+00  0.74505805969E-08  0.10566000000E+00  0.10566000000E+00 0. -1.
     999900   -1    0    0    0    0 -0.00000000000E+00 -0.00000000000E+00 -0.74505805969E-08  0.93827000000E+00  0.93827000000E+00 0.  1.
     999902    2    1    2    0    0  0.11465054019E-01 -0.41967922643E-02  0.20072695013E-01  0.10204358813E+01  0.10201653857E+01 0.  0.
     999903    2    3    3    0    0  0.12017660451E+00  0.46628984881E-01  0.21879632135E-01  0.13228908832E+00  0.20124762985E-01 0.  0.
         14    1    1    2    0    0 -0.11465054019E-01  0.41967922643E-02 -0.20072695013E-01  0.23494118712E-01  0.00000000000E+00 0.  1.
     999901    1    3    3    0    0 -0.10871155049E+00 -0.50825777145E-01 -0.18069371215E-02  0.88814679296E+00  0.88000000000E+00 0. -1.
        -11    1    4    4    0    0  0.30759111384E-01  0.16348800658E-01  0.14029338321E-01  0.37556486401E-01  0.51100000000E-03 0.  1.
         11    1    4    4    0    0  0.89417493123E-01  0.30280184223E-01  0.78502938140E-02  0.94732601922E-01  0.51100000000E-03 0. -1.
</event>
<event>
 8    1  0.1123470E+005  0.1043930E+01  0.7957747E-01            NaN
         13   -1    0    0    0    0  0.00000000000E+00  0.00000000000E+00  0.74505805969E-08  0.10566000000E+00  0.10566000000E+00 0. -1.
     999900   -1    0    0    0    0 -0.00000000000E+00 -0.00000000000E+00 -0.74505805969E-08  0.93827000000E+00  0.93827000000E+00 0.  1.
     999902    2    1    2    0    0  0.18486419201E-01 -0.15901859032E-01 -0.55138777272E-02  0.10189296067E+01  0.10186228565E+01 0.  0.
     999903    2    3    3    0    0  0.83303820634E-01 -0.84081666753E-01  0.54616612896E-01  0.13187523546E+00  0.19971231974E-01 0.  0.
         14    1    1    2    0    0 -0.18486419201E-01  0.15901859032E-01  0.55138777272E-02  0.25000393260E-01  0.00000000000E+00 0. -1.
     999901    1    3    3    0    0 -0.64817401433E-01  0.68179807721E-01 -0.60130490623E-01  0.88705437128E+00  0.88000000000E+00 0.  1.
        -11    1    4    4    0    0  0.39624108829E-01 -0.38185359945E-01  0.14599140315E-01  0.56934942993E-01  0.51100000000E-03 0.  1.
         11    1    4    4    0    0  0.43679711805E-01 -0.45896306808E-01  0.40017472581E-01  0.74940292465E-01  0.51100000000E-03 0. -1.
</event>
<event>
 8    1  0.1123470E+005  0.1043930E+01  0.7957747E-01            NaN
         13   -1    0    0    0    0  0.00000000000E+00  0.00000000000E+00  0.74505805969E-08  0.10566000000E+00  0.10566000000E+00 0.  1.
     999900   -1    0    0    0    0 -0.00000000000E+00 -0.00000000000E+00 -0.74505805969E-08  0.93827000000E+00  0.93827000000E+00 0. -1.
     999902    2    1    2    0    0 -0.22080038892E-01 -0.10365678983E-01  0.18981762429E-03  0.10195371435E+01  0.10192452970E+01 0.  0.
     999903    2    3    3    0    0  0.49723956002E-01 -0.11194619721E+00 -0.38503470677E-01  0.12994645900E+00  0.19978540543E-01 0.  0.
         14    1    1    2    0    0  0.22080038892E-01  0.10365678983E-01 -0.18981762429E-03  0.24392856515E-01  0.00000000000E+00 0.  1.
     999901    1    3    3    0    0 -0.71803994894E-01  0.10158051822E+00  0.38693288301E-01  0.88959068449E+00  0.88000000000E+00 0. -1.
        -11    1    4    4    0    0  0.15461335311E-01 -0.49454067715E-01 -0.80344332135E-02  0.52436351334E-01  0.51100000000E-03 0.  1.
         11    1    4    4    0    0  0.34262620691E-01 -0.62492129492E-01 -0.30469037463E-01  0.77510107664E-01  0.51100000000E-03 0. -1.
</event>
<event>
 8    1  0.1123470E+005  0.1043930E+01  0.7957747E-01            NaN
         13   -1    0    0    0    0  0.00000000000E+00  0.00000000000E+00  0.74505805969E-08  0.10566000000E+00  0.10566000000E+00 0.  1.
     999900   -1    0    0    0    0 -0.00000000000E+00 -0.00000000000E+00 -0.74505805969E-08  0.93827000000E+00  0.93827000000E+00 0.  1.
     999902    2    1    2    0    0 -0.56881779947E-02 -0.17508147080E-02 -0.21911315057E-01  0.10212247925E+01  0.10209723553E+01 0.  0.
     999903    2    3    3    0    0  0.93183124278E-01  0.34430953396E-01  0.80363007606E-01  0.12906746788E+00  0.18210246349E-01 0.  0.
         14    1    1    2    0    0  0.56881779947E-02  0.17508147080E-02  0.21911315057E-01  0.22705207521E-01  0.00000000000E+00 0.  1.
     999901    1    3    3    0    0 -0.98871302272E-01 -0.36181768104E-01 -0.10227432266E+00  0.89215732460E+00  0.88000000000E+00 0.  1.
        -11    1    4    4    0    0  0.79480892597E-01  0.22796447379E-01  0.69821355949E-01  0.10822279413E+00  0.51100000000E-03 0. -1.
         11    1    4    4    0    0  0.13702231681E-01  0.11634506017E-01  0.10541651657E-01  0.20844673755E-01  0.51100000000E-03 0.  1.
</event>
<event>
 8    1  0.1123470E+005  0.1043930E+01  0.7957747E-01            NaN
         13   -1    0    0    0    0  0.00000000000E+00  0.00000000000E+00  0.74505805969E-08  0.10566000000E+00  0.10566000000E+00 0.  1.
     999900   -1    0    0    0    0 -0.00000000000E+00 -0.00000000000E+00 -0.74505805969E-08  0.93827000000E+00  0.93827000000E+00 0.  1.
     999902    2    1    2    0    0 -0.14135680275E-01  0.11687096715E-01  0.16910115699E-01  0.10189829020E+01  0.10186774744E+01 0.  0.
     999903    2    3    3    0    0  0.12443514756E+00 -0.12673769424E-02 -0.18431075260E-01  0.12734469481E+00  0.19780155949E-01 0.  0.
         14    1    1    2    0    0  0.14135680275E-01 -0.11687096715E-01 -0.16910115699E-01  0.24947098016E-01  0.00000000000E+00 0. -1.
     999901    1    3    3    0    0 -0.13857082783E+00  0.12954473657E-01  0.35341190959E-01  0.89163820717E+00  0.88000000000E+00 0. -1.
        -11    1    4    4    0    0  0.58648831078E-01  0.34626709812E-02 -0.17775683615E-01  0.61383316350E-01  0.51100000000E-03 0.  1.
         11    1    4    4    0    0  0.65786316478E-01 -0.47300479235E-02 -0.65539164475E-03  0.65961378460E-01  0.51100000000E-03 0. -1.
</event>
<event>
 8    1  0.1123470E+005  0.1043930E+01  0.7957747E-01            NaN
         13   -1    0    0    0    0  0.00000000000E+00  0.00000000000E+00  0.74505805969E-08  0.10566000000E+00  0.10566000000E+00 0.  1.
     999900   -1    0    0    0    0 -0.00000000000E+00 -0.00000000000E+00 -0.74505805969E-08  0.93827000000E+00  0.93827000000E+00 0. -1.
     999902    2    1    2    0    0  0.19707345062E-01  0.45208548778E-02  0.12349473060E-01  0.10202376581E+01  0.10199625248E+01 0.  0.
     999903    2    3    3    0    0 -0.11679965903E+00  0.45503920198E-01 -0.17695531966E-01  0.12826429747E+00  0.20635674207E-01 0.  0.
         14    1    1    2    0    0 -0.19707345062E-01 -0.45208548778E-02 -0.12349473060E-01  0.23692341866E-01  0.00000000000E+00 0.  1.
     999901    1    3    3    0    0  0.13650700410E+00 -0.40983065320E-01  0.30045005026E-01  0.89197336067E+00  0.88000000000E+00 0.  1.
        -11    1    4    4    0    0 -0.96323486417E-01  0.42044482592E-01 -0.81885070150E-02  0.10541947315E+00  0.51100000000E-03 0. -1.
         11    1    4    4    0    0 -0.20476172617E-01  0.34594376060E-02 -0.95070249507E-02  0.22844824315E-01  0.51100000000E-03 0.  1.
</event>
<event>
 8    1  0.1123470E+005  0.1043930E+01  0.7957747E-01            NaN
         13   -1    0    0    0    0  0.00000000000E+00  0.00000000000E+00  0.74505805969E-08  0.10566000000E+00  0.10566000000E+00 0.  1.
     999900   -1    0    0    0    0 -0.00000000000E+00 -0.00000000000E+00 -0.74505805969E-08  0.93827000000E+00  0.93827000000E+00 0. -1.
     999902    2    1    2    0    0 -0.57564294502E-02 -0.22034717189E-01  0.36553216723E-03  0.10211528436E+01  0.10208987859E+01 0.  0.
     999903    2    3    3    0    0 -0.26765691269E-04  0.12248354184E+00  0.34260105211E-01  0.12870273385E+00  0.19708377757E-01 0.  0.
         14    1    1    2    0    0  0.57564294502E-02  0.22034717189E-01 -0.36553216723E-03  0.22777156438E-01  0.00000000000E+00 0. -1.
     999901    1    3    3    0    0 -0.57296637589E-02 -0.14451825903E+00 -0.33894573044E-01  0.89245010971E+00  0.88000000000E+00 0. -1.
        -11    1    4    4    0    0 -0.57292453465E-02  0.13258204549E-01  0.65778267924E-02  0.15878701660E-01  0.51100000000E-03 0.  1.
         11    1    4    4    0    0  0.57024796552E-02  0.10922533729E+00  0.27682278419E-01  0.11282403219E+00  0.51100000000E-03 0. -1.
</event>
<event>
 7    1  0.1123470E+005  0.1043930E+01  0.7957747E-01            NaN
         13   -1    0    0    0    0  0.00000000000E+00  0.00000000000E+00  0.74505805969E-08  0.10566000000E+00  0.10566000000E+00 0.  1.
     999900   -1    0    0    0    0 -0.00000000000E+00 -0.00000000000E+00 -0.74505805969E-08  0.93827000000E+00  0.93827000000E+00 0.  1.
     999902    2    1    2    0    0  0.45561988238E-02  0.92232726342E-02 -0.21517831294E-01  0.10200795331E+01  0.10198006713E+01 0.  0.
         14    1    1    2    0    0 -0.45561988238E-02 -0.92232726342E-02  0.21517831294E-01  0.23850466859E-01  0.00000000000E+00 0.  1.
     999901    1    3    3    0    0  0.51582556966E-01  0.10278917297E-01 -0.12642562513E+00  0.89058961088E+00  0.88000000000E+00 0.  1.
        -11    1    3    3    0    0 -0.11463923731E-01  0.21464252967E-01  0.11263958710E-01  0.26819276455E-01  0.51100000000E-03 0. -1.
         11    1    3    3    0    0 -0.35562434411E-01 -0.22519897630E-01  0.93643835130E-01  0.10267064580E+00  0.51100000000E-03 0.  1.
</event>
<event>
 8    1  0.1123470E+005  0.1043930E+01  0.7957747E-01            NaN
         13   -1    0    0    0    0  0.00000000000E+00  0.00000000000E+00  0.74505805969E-08  0.10566000000E+00  0.10566000000E+00 0. -1.
     999900   -1    0    0    0    0 -0.00000000000E+00 -0.00000000000E+00 -0.74505805969E-08  0.93827000000E+00  0.93827000000E+00 0.  1.
     999902    2    1    2    0    0 -0.65384756950E-02  0.68311778653E-02  0.20131146937E-01  0.10216886032E+01  0.10214464852E+01 0.  0.
     999903    2    3    3    0    0  0.12226565027E+00  0.27875130626E-02 -0.41213069372E-01  0.13018988363E+00  0.17153111862E-01 0.  0.
         14    1    1    2    0    0  0.65384756950E-02 -0.68311778653E-02 -0.20131146937E-01  0.22241396819E-01  0.00000000000E+00 0.  1.
     999901    1    3    3    0    0 -0.12880412597E+00  0.40436648027E-02  0.61344216310E-01  0.89149871955E+00  0.88000000000E+00 0. -1.
        -11    1    4    4    0    0  0.74417828462E-01  0.32770948959E-02 -0.16356921464E-01  0.76266391973E-01  0.51100000000E-03 0. -1.
         11    1    4    4    0    0  0.47847821810E-01 -0.48958183328E-03 -0.24856147909E-01  0.53923491654E-01  0.51100000000E-03 0.  1.
</event>
<event>
 8    1  0.1192049E+005  0.1043930E+01  0.7957747E-01            NaN
         13   -1    0    0    0    0  0.00000000000E+00  0.00000000000E+00  0.74505805969E-08  0.10566000000E+00  0.10566000000E+00 0. -1.
     999900   -1    0    0    0    0 -0.00000000000E+00 -0.00000000000E+00 -0.74505805969E-08  0.93827000000E+00  0.93827000000E+00 0. -1.
     999902    2    1    2    0    0  0.64749871423E-02 -0.97211581382E-02 -0.20929796148E-01  0.10199616304E+01  0.10196799717E+01 0.  0.
     999903    2    3    3    0    0  0.64486671656E-01 -0.10456076182E+00  0.40315029992E-01  0.13085486815E+00  0.20154680371E-01 0.  0.
         14    1    1    2    0    0 -0.64749871423E-02  0.97211581382E-02  0.20929796148E-01  0.23968369591E-01  0.00000000000E+00 0. -1.
     999901    1    3    3    0    0 -0.58011684514E-01  0.94839603685E-01 -0.61244826139E-01  0.88910676226E+00  0.88000000000E+00 0.  1.
        -11    1    4    4    0    0  0.42344046143E-01 -0.72422739440E-01  0.36974743082E-01  0.91681318592E-01  0.51100000000E-03 0.  1.
         11    1    4    4    0    0  0.22142625513E-01 -0.32138022383E-01  0.33402869099E-02  0.39173549558E-01  0.51100000000E-03 0. -1.
</event>
<event>
 8    1  0.1123470E+005  0.1043930E+01  0.7957747E-01            NaN
         13   -1    0    0    0    0  0.00000000000E+00  0.00000000000E+00  0.74505805969E-08  0.10566000000E+00  0.10566000000E+00 0. -1.
     999900   -1    0    0    0    0 -0.00000000000E+00 -0.00000000000E+00 -0.74505805969E-08  0.93827000000E+00  0.93827000000E+00 0.  1.
     999902    2    1    2    0    0 -0.18792404092E-01 -0.12700537400E-01  0.88517094857E-02  0.10195822925E+01  0.10192915384E+01 0.  0.
     999903    2    3    3    0    0  0.56152433860E-01 -0.15876320316E-02 -0.11325821038E+00  0.12792593604E+00  0.19544986317E-01 0.  0.
         14    1    1    2    0    0  0.18792404092E-01  0.12700537400E-01 -0.88517094857E-02  0.24347707543E-01  0.00000000000E+00 0. -1.
     999901    1    3    3    0    0 -0.74944837952E-01 -0.11112905369E-01  0.12210991987E+00  0.89165635641E+00  0.88000000000E+00 0. -1.
        -11    1    4    4    0    0  0.18473490665E-01 -0.65020234709E-02 -0.24463586892E-01  0.31341256694E-01  0.51100000000E-03 0. -1.
         11    1    4    4    0    0  0.37678943195E-01  0.49143914393E-02 -0.88794623489E-01  0.96584679350E-01  0.51100000000E-03 0.  1.
</event>
<event>
 8    1  0.1123470E+005  0.1043930E+01  0.7957747E-01            NaN
         13   -1    0    0    0    0  0.00000000000E+00  0.00000000000E+00  0.74505805969E-08  0.10566000000E+00  0.10566000000E+00 0. -1.
     999900   -1    0    0    0    0 -0.00000000000E+00 -0.00000000000E+00 -0.74505805969E-08  0.93827000000E+00  0.93827000000E+00 0.  1.
     999902    2    1    2    0    0  0.80415454822E-02  0.56424736837E-02  0.21535618840E-01  0.10202596210E+01  0.10199850035E+01 0.  0.
     999903    2    3    3    0    0  0.68431302951E-01  0.37965306924E-02  0.11293801344E+00  0.13346498409E+00  0.18990793328E-01 0.  0.
         14    1    1    2    0    0 -0.80415454822E-02 -0.56424736837E-02 -0.21535618840E-01  0.23670378996E-01  0.00000000000E+00 0. -1.
     999901    1    3    3    0    0 -0.60389757469E-01  0.18459429913E-02 -0.91402394598E-01  0.88679463691E+00  0.88000000000E+00 0.  1.
        -11    1    4    4    0    0  0.44788394233E-01  0.10588890274E-01  0.65915612051E-01  0.80394364779E-01  0.51100000000E-03 0.  1.
         11    1    4    4    0    0  0.23642908718E-01 -0.67923595818E-02  0.47022401387E-01  0.53070619315E-01  0.51100000000E-03 0. -1.
</event>
<event>
 8    1  0.1123470E+005  0.1043930E+01  0.7957747E-01            NaN
         13   -1    0    0    0    0  0.00000000000E+00  0.00000000000E+00  0.74505805969E-08  0.10566000000E+00  0.10566000000E+00 0. -1.
     999900   -1    0    0    0    0 -0.00000000000E+00 -0.00000000000E+00 -0.74505805969E-08  0.93827000000E+00  0.93827000000E+00 0.  1.
     999902    2    1    2    0    0  0.11281289491E-01 -0.95468524591E-02  0.18195220272E-01  0.10204890972E+01  0.10202198398E+01 0.  0.
     999903    2    3    3    0    0 -0.17220123581E-01  0.16203456237E-01 -0.12453361817E+00  0.12816240237E+00  0.18918104422E-01 0.  0.
         14    1    1    2    0    0 -0.11281289491E-01  0.95468524591E-02 -0.18195220272E-01  0.23440902824E-01  0.00000000000E+00 0. -1.
     999901    1    3    3    0    0  0.28501413071E-01 -0.25750308696E-01  0.14272883845E+00  0.89232669481E+00  0.88000000000E+00 0. -1.
        -11    1    4    4    0    0  0.36737837113E-02 -0.13472138295E-03 -0.13203264115E-01  0.13715033390E-01  0.51100000000E-03 0.  1.
         11    1    4    4    0    0 -0.20893907292E-01  0.16338177620E-01 -0.11133035406E+00  0.11444736898E+00  0.51100000000E-03 0. -1.
</event>
<event>
 8    1  0.1123470E+005  0.1043930E+01  0.7957747E-01            NaN
         13   -1    0    0    0    0  0.00000000000E+00  0.00000000000E+00  0.74505805969E-08  0.10566000000E+00  0.10566000000E+00 0. -1.
     999900   -1    0    0    0    0 -0.00000000000E+00 -0.00000000000E+00 -0.74505805969E-08  0.93827000000E+00  0.93827000000E+00 0. -1.
     999902    2    1    2    0    0  0.84370814193E-02  0.22166917306E-01 -0.29861508765E-02  0.10200244847E+01  0.10197443188E+01 0.  0.
     999903    2    3    3    0    0  0.67326823733E-01  0.63899876187E-01 -0.92512432156E-01  0.13254231773E+00  0.19819700193E-01 0.  0.
         14    1    1    2    0    0 -0.84370814193E-02 -0.22166917306E-01  0.29861508765E-02  0.23905515322E-01  0.00000000000E+00 0. -1.
     999901    1    3    3    0    0 -0.58889742314E-01 -0.41732958881E-01  0.89526281280E-01  0.88748216695E+00  0.88000000000E+00 0.  1.
        -11    1    4    4    0    0  0.35011840826E-01  0.30214854040E-01 -0.32571714607E-01  0.56568048544E-01  0.51100000000E-03 0. -1.
         11    1    4    4    0    0  0.32314982907E-01  0.33685022148E-01 -0.59940717550E-01  0.75974269188E-01  0.51100000000E-03 0.  1.
</event>
<event>
 8    1  0.1123470E+005  0.1043930E+01  0.7957747E-01            NaN
         13   -1    0    0    0    0  0.00000000000E+00  0.00000000000E+00  0.74505805969E-08  0.10566000000E+00  0.10566000000E+00 0. -1.
     999900   -1    0    0    0    0 -0.00000000000E+00 -0.00000000000E+00 -0.74505805969E-08  0.93827000000E+00  0.93827000000E+00 0. -1.
     999902    2    1    2    0    0  0.15010443289E-01  0.15550678372E-01  0.84124451005E-02  0.10207371943E+01  0.10204736711E+01 0.  0.
     999903    2    3    3    0    0  0.26588607074E-01  0.12901324993E+00  0.57415018851E-02  0.13337315230E+00  0.20101249432E-01 0.  0.
         14    1    1    2    0    0 -0.15010443289E-01 -0.15550678372E-01 -0.84124451005E-02  0.23192805741E-01  0.00000000000E+00 0. -1.
     999901    1    3    3    0    0 -0.11578163785E-01 -0.11346257155E+00  0.26709432154E-02  0.88736404196E+00  0.88000000000E+00 0.  1.
        -11    1    4    4    0    0  0.17009588277E-02  0.21428099563E-01 -0.60005439155E-02  0.22323179883E-01  0.51100000000E-03 0. -1.
         11    1    4    4    0    0  0.24887648247E-01  0.10758515036E+00  0.11742045801E-01  0.11104997242E+00  0.51100000000E-03 0.  1.
</event>
<event>
 8    1  0.1123470E+005  0.1043930E+01  0.7957747E-01            NaN
         13   -1    0    0    0    0  0.00000000000E+00  0.00000000000E+00  0.74505805969E-08  0.10566000000E+00  0.10566000000E+00 0.  1.
     999900   -1    0    0    0    0 -0.00000000000E+00 -0.00000000000E+00 -0.74505805969E-08  0.93827000000E+00  0.93827000000E+00 0.  1.
     999902    2    1    2    0    0 -0.22152385394E-01  0.48258190548E-02 -0.26369025035E-02  0.10211052336E+01  0.10208501007E+01 0.  0.
     999903    2    3    3    0    0  0.77120115826E-01 -0.98592160367E-01 -0.25244854840E-01  0.12921879041E+00  0.19805725144E-01 0.  0.
         14    1    1    2    0    0  0.22152385394E-01 -0.48258190548E-02  0.26369025035E-02  0.22824766439E-01  0.00000000000E+00 0.  1.
     999901    1    3    3    0    0 -0.99272501220E-01  0.10341797942E+00  0.22607952336E-01  0.89188644315E+00  0.88000000000E+00 0. -1.
        -11    1    4    4    0    0  0.65444420650E-01 -0.88281764698E-01 -0.15879090697E-01  0.11103625000E+00  0.51100000000E-03 0. -1.
         11    1    4    4    0    0  0.11675695176E-01 -0.10310395669E-01 -0.93657641428E-02  0.18182540408E-01  0.51100000000E-03 0.  1.
</event>
<event>
 8    1  0.1123470E+005  0.1043930E+01  0.7957747E-01            NaN
         13   -1    0    0    0    0  0.00000000000E+00  0.00000000000E+00  0.74505805969E-08  0.10566000000E+00  0.10566000000E+00 0. -1.
     999900   -1    0    0    0    0 -0.00000000000E+00 -0.00000000000E+00 -0.74505805969E-08  0.93827000000E+00  0.93827000000E+00 0. -1.
     999902    2    1    2    0    0  0.22693879939E-01 -0.22036419463E-02  0.76799253842E-02  0.10198707091E+01  0.10195868839E+01 0.  0.
     999903    2    3    3    0    0 -0.59924545693E-01 -0.61743149670E-01 -0.93191001213E-01  0.12827343395E+00  0.19140100364E-01 0.  0.
         14    1    1    2    0    0 -0.22693879939E-01  0.22036419463E-02 -0.76799253842E-02  0.24059290896E-01  0.00000000000E+00 0. -1.
     999901    1    3    3    0    0  0.82618425632E-01  0.59539507723E-01  0.10087092660E+00  0.89159727516E+00  0.88000000000E+00 0.  1.
        -11    1    4    4    0    0 -0.48144841875E-01 -0.50583745313E-01 -0.63278455484E-01  0.94239403322E-01  0.51100000000E-03 0. -1.
         11    1    4    4    0    0 -0.11779703819E-01 -0.11159404357E-01 -0.29912545729E-01  0.34034030626E-01  0.51100000000E-03 0.  1.
</event>
<event>
 8    1  0.1123470E+005  0.1043930E+01  0.7957747E-01            NaN
         13   -1    0    0    0    0  0.00000000000E+00  0.00000000000E+00  0.74505805969E-08  0.10566000000E+00  0.10566000000E+00 0. -1.
     999900   -1    0    0    0    0 -0.00000000000E+00 -0.00000000000E+00 -0.74505805969E-08  0.93827000000E+00  0.93827000000E+00 0. -1.
     999902    2    1    2    0    0 -0.15951374325E-01  0.16742702731E-01  0.66544924740E-02  0.10198666106E+01  0.10195826876E+01 0.  0.
     999903    2    3    3    0    0  0.86984619941E-01  0.49854935943E-01  0.80438598828E-01  0.13018333370E+00  0.20627492544E-01 0.  0.
         14    1    1    2    0    0  0.15951374325E-01 -0.16742702731E-01 -0.66544924740E-02  0.24063389364E-01  0.00000000000E+00 0. -1.
     999901    1    3    3    0    0 -0.10293599427E+00 -0.33112233212E-01 -0.73784106354E-01  0.88968327693E+00  0.88000000000E+00 0. -1.
        -11    1    4    4    0    0  0.28839446685E-01  0.28028646468E-01  0.33181732856E-01  0.52140264904E-01  0.51100000000E-03 0. -1.
         11    1    4    4    0    0  0.58145173256E-01  0.21826289475E-01  0.47256865971E-01  0.78043068800E-01  0.51100000000E-03 0.  1.
</event>
<event>
 8    1  0.1123470E+005  0.1043930E+01  0.7957747E-01            NaN
         13   -1    0    0    0    0  0.00000000000E+00  0.00000000000E+00  0.74505805969E-08  0.10566000000E+00  0.10566000000E+00 0. -1.
     999900   -1    0    0    0    0 -0.00000000000E+00 -0.00000000000E+00 -0.74505805969E-08  0.93827000000E+00  0.93827000000E+00 0. -1.
     999902    2    1    2    0    0  0.67214795751E-02  0.15966881544E-01 -0.15591705217E-01  0.10206229010E+01  0.10203567440E+01 0.  0.
     999903    2    3    3    0    0 -0.68189214589E-01  0.94789054143E-01 -0.59795978901E-01  0.13282868787E+00  0.20812675377E-01 0.  0.
         14    1    1    2    0    0 -0.67214795751E-02 -0.15966881544E-01  0.15591705217E-01  0.23307099037E-01  0.00000000000E+00 0. -1.
     999901    1    3    3    0    0  0.74910694164E-01 -0.78822172599E-01  0.44204273684E-01  0.88779421310E+00  0.88000000000E+00 0.  1.
        -11    1    4    4    0    0 -0.54482617822E-01  0.63895609863E-01 -0.49583673224E-01  0.97518236120E-01  0.51100000000E-03 0.  1.
         11    1    4    4    0    0 -0.13706596767E-01  0.30893444280E-01 -0.10212305677E-01  0.35310451748E-01  0.51100000000E-03 0. -1.
</event>
<event>
 8    1  0.1123470E+005  0.1043930E+01  0.7957747E-01            NaN
         13   -1    0    0    0    0  0.00000000000E+00  0.00000000000E+00  0.74505805969E-08  0.10566000000E+00  0.10566000000E+00 0. -1.
     999900   -1    0    0    0    0 -0.00000000000E+00 -0.00000000000E+00 -0.74505805969E-08  0.93827000000E+00  0.93827000000E+00 0. -1.
     999902    2    1    2    0    0 -0.95350394437E-02 -0.15666574896E-01 -0.14495120636E-01  0.10205533649E+01  0.10202855990E+01 0.  0.
     999903    2    3    3    0    0 -0.54438547256E-01  0.10864480444E+00 -0.42350596195E-01  0.13024691678E+00  0.20085750502E-01 0.  0.
         14    1    1    2    0    0  0.95350394437E-02  0.15666574896E-01  0.14495120636E-01  0.23376635096E-01  0.00000000000E+00 0. -1.
     999901    1    3    3    0    0  0.44903507812E-01 -0.12431137934E+00  0.27855475559E-01  0.89030644812E+00  0.88000000000E+00 0.  1.
        -11    1    4    4    0    0 -0.10137208494E-01  0.21424561447E-01 -0.15652226863E-03  0.23707814101E-01  0.51100000000E-03 0. -1.
         11    1    4    4    0    0 -0.44301338762E-01  0.87220242998E-01 -0.42194073926E-01  0.10653910268E+00  0.51100000000E-03 0.  1.
</event>
<event>
 8    1  0.1123470E+005  0.1043930E+01  0.7957747E-01            NaN
         13   -1    0    0    0    0  0.00000000000E+00  0.00000000000E+00  0.74505805969E-08  0.10566000000E+00  0.10566000000E+00 0.  1.
     999900   -1    0    0    0    0 -0.00000000000E+00 -0.00000000000E+00 -0.74505805969E-08  0.93827000000E+00  0.93827000000E+00 0. -1.
     999902    2    1    2    0    0 -0.20296614130E-01  0.73415588162E-02  0.10430234854E-01  0.10199583328E+01  0.10196765957E+01 0.  0.
     999903    2    3    3    0    0 -0.53145617730E-02 -0.79960833767E-01  0.10159159103E+00  0.13082585529E+00  0.19302164161E-01 0.  0.
         14    1    1    2    0    0  0.20296614130E-01 -0.73415588162E-02 -0.10430234854E-01  0.23971667236E-01  0.00000000000E+00 0.  1.
     999901    1    3    3    0    0 -0.14982052357E-01  0.87302392583E-01 -0.91161356172E-01  0.88913247748E+00  0.88000000000E+00 0. -1.
        -11    1    4    4    0    0  0.46367945696E-02 -0.34532964929E-01  0.33281404569E-01  0.48186497504E-01  0.51100000000E-03 0. -1.
         11    1    4    4    0    0 -0.99513563425E-02 -0.45427868838E-01  0.68310186456E-01  0.82639357784E-01  0.51100000000E-03 0.  1.
</event>
<event>
 8    1  0.1123470E+005  0.1043930E+01  0.7957747E-01            NaN
         13   -1    0    0    0    0  0.00000000000E+00  0.00000000000E+00  0.74505805969E-08  0.10566000000E+00  0.10566000000E+00 0. -1.
     999900   -1    0    0    0    0 -0.00000000000E+00 -0.00000000000E+00 -0.74505805969E-08  0.93827000000E+00  0.93827000000E+00 0. -1.
     999902    2    1    2    0    0 -0.16593375259E-01 -0.14641879602E-01 -0.12771765610E-02  0.10217634504E+01  0.10215229771E+01 0.  0.
     999903    2    3    3    0    0  0.11444840969E+00 -0.60519686691E-01  0.13738494328E-02  0.13087414723E+00  0.19107171248E-01 0.  0.
         14    1    1    2    0    0  0.16593375259E-01  0.14641879602E-01  0.12771765610E-02  0.22166549590E-01  0.00000000000E+00 0. -1.
     999901    1    3    3    0    0 -0.13104178495E+00  0.45877807088E-01 -0.26510259938E-02  0.89088930318E+00  0.88000000000E+00 0. -1.
        -11    1    4    4    0    0  0.91605300380E-01 -0.48155568538E-01  0.87659768569E-02  0.10386333959E+00  0.51100000000E-03 0. -1.
         11    1    4    4    0    0  0.22843109307E-01 -0.12364118153E-01 -0.73921274241E-02  0.27010807640E-01  0.51100000000E-03 0.  1.
</event>
<event>
 8    1  0.1123470E+005  0.1043930E+01  0.7957747E-01            NaN
         13   -1    0    0    0    0  0.00000000000E+00  0.00000000000E+00  0.74505805969E-08  0.10566000000E+00  0.10566000000E+00 0. -1.
     999900   -1    0    0    0    0 -0.00000000000E+00 -0.00000000000E+00 -0.74505805969E-08  0.93827000000E+00  0.93827000000E+00 0.  1.
     999902    2    1    2    0    0 -0.14958746669E-01 -0.17343981981E-01 -0.19965688676E-02  0.10209394780E+01  0.10206805836E+01 0.  0.
     999903    2    3    3    0    0  0.41693170450E-02  0.12668888580E+00 -0.12187689239E-01  0.12896682781E+00  0.20407006564E-01 0.  0.
         14    1    1    2    0    0  0.14958746669E-01  0.17343981981E-01  0.19965688676E-02  0.22990521963E-01  0.00000000000E+00 0.  1.
     999901    1    3    3    0    0 -0.19128063714E-01 -0.14403286778E+00  0.10191120372E-01  0.89197265023E+00  0.88000000000E+00 0.  1.
        -11    1    4    4    0    0  0.20358810860E-02  0.28476914612E-01  0.56934358321E-02  0.29116246499E-01  0.51100000000E-03 0. -1.
         11    1    4    4    0    0  0.21334359590E-02  0.98211971184E-01 -0.17881125071E-01  0.99850581309E-01  0.51100000000E-03 0.  1.
</event>
<event>
 8    1  0.1123470E+005  0.1043930E+01  0.7957747E-01            NaN
         13   -1    0    0    0    0  0.00000000000E+00  0.00000000000E+00  0.74505805969E-08  0.10566000000E+00  0.10566000000E+00 0.  1.
     999900   -1    0    0    0    0 -0.00000000000E+00 -0.00000000000E+00 -0.74505805969E-08  0.93827000000E+00  0.93827000000E+00 0. -1.
     999902    2    1    2    0    0 -0.81571821075E-02 -0.11010795305E-01  0.18709870536E-01  0.10207386980E+01  0.10204752094E+01 0.  0.
     999903    2    3    3    0    0  0.75784793098E-01 -0.10121086008E+00 -0.27310485028E-01  0.13096334432E+00  0.20458785378E-01 0.  0.
         14    1    1    2    0    0  0.81571821075E-02  0.11010795305E-01 -0.18709870536E-01  0.23191302004E-01  0.00000000000E+00 0. -1.
     999901    1    3    3    0    0 -0.83941975205E-01  0.90200064776E-01  0.46020355564E-01  0.88977535368E+00  0.88000000000E+00 0.  1.
        -11    1    4    4    0    0  0.49967864244E-01 -0.58337133686E-01 -0.25304399422E-01  0.80873867070E-01  0.51100000000E-03 0. -1.
         11    1    4    4    0    0  0.25816928854E-01 -0.42873726395E-01 -0.20060856059E-02  0.50089477247E-01  0.51100000000E-03 0.  1.
</event>
<event>
 8    1  0.1123470E+005  0.1043930E+01  0.7957747E-01            NaN
         13   -1    0    0    0    0  0.00000000000E+00  0.00000000000E+00  0.74505805969E-08  0.10566000000E+00  0.10566000000E+00 0.  1.
     999900   -1    0    0    0    0 -0.00000000000E+00 -0.00000000000E+00 -0.74505805969E-08  0.93827000000E+00  0.93827000000E+00 0.  1.
     999902    2    1    2    0    0 -0.17398003110E-01  0.34907958305E-02  0.15565591135E-01  0.10203256827E+01  0.10200526138E+01 0.  0.
     999903    2    3    3    0    0  0.30072703748E-01  0.11919732468E+00  0.40417637311E-01  0.13113554948E+00  0.21226804029E-01 0.  0.
         14    1    1    2    0    0  0.17398003110E-01 -0.34907958305E-02 -0.15565591135E-01  0.23604317298E-01  0.00000000000E+00 0. -1.
     999901    1    3    3    0    0 -0.47470706858E-01 -0.11570652885E+00 -0.24852046176E-01  0.88919013323E+00  0.88000000000E+00 0. -1.
        -11    1    4    4    0    0  0.12360362827E-01  0.41876701926E-01  0.25032950365E-01  0.50332359953E-01  0.51100000000E-03 0.  1.
         11    1    4    4    0    0  0.17712340921E-01  0.77320622751E-01  0.15384686946E-01  0.80803189523E-01  0.51100000000E-03 0. -1.
</event>
<event>
 8    1  0.1123470E+005  0.1043930E+01  0.7957747E-01            NaN
         13   -1    0    0    0    0  0.00000000000E+00  0.00000000000E+00  0.74505805969E-08  0.10566000000E+00  0.10566000000E+00 0.  1.
     999900   -1    0    0    0    0 -0.00000000000E+00 -0.00000000000E+00 -0.74505805969E-08  0.93827000000E+00  0.93827000000E+00 0. -1.
     999902    2    1    2    0    0  0.19002703384E-01  0.49816293177E-02  0.12911202409E-01  0.10204221606E+01  0.10201513453E+01 0.  0.
     999903    2    3    3    0    0 -0.40621380930E-01 -0.90425110120E-01 -0.80282244869E-01  0.12837816168E+00  0.14453941533E-01 0.  0.
         14    1    1    2    0    0 -0.19002703384E-01 -0.49816293177E-02 -0.12911202409E-01  0.23507839420E-01  0.00000000000E+00 0. -1.
     999901    1    3    3    0    0  0.59624084314E-01  0.95406739438E-01  0.93193447278E-01  0.89204399890E+00  0.88000000000E+00 0.  1.
        -11    1    4    4    0    0 -0.41487824800E-01 -0.85019632053E-01 -0.76964542250E-01  0.12195646488E+00  0.51100000000E-03 0.  1.
         11    1    4    4    0    0  0.86644386994E-03 -0.54054780672E-02 -0.33177026185E-02  0.64216967991E-02  0.51100000000E-03 0. -1.
</event>
<event>
 8    1  0.1123470E+005  0.1043930E+01  0.7957747E-01            NaN
         13   -1    0    0    0    0  0.00000000000E+00  0.00000000000E+00  0.74505805969E-08  0.10566000000E+00  0.10566000000E+00 0.  1.
     999900   -1    0    0    0    0 -0.00000000000E+00 -0.00000000000E+00 -0.74505805969E-08  0.93827000000E+00  0.93827000000E+00 0. -1.
     999902    2    1    2    0    0 -0.35452382427E-01  0.11767313211E-01  0.37689387932E-02  0.10063860793E+01  0.10056855347E+01 0.  0.
     999903    2    3    3    0    0 -0.28619251342E-01  0.35523844326E-01 -0.10800398851E+00  0.11897171629E+00  0.20208975208E-01 0.  0.
         14    1    1    2    0    0  0.35452382427E-01 -0.11767313211E-01 -0.37689387932E-02  0.37543920674E-01  0.00000000000E+00 0. -1.
     999901    1    3    3    0    0 -0.68331310849E-02 -0.23756531115E-01  0.11177292730E+00  0.88741436304E+00  0.88000000000E+00 0.  1.
        -11    1    4    4    0    0 -0.27913417922E-02 -0.25218338410E-02 -0.10550519978E-01  0.11212752906E-01  0.51100000000E-03 0. -1.
         11    1    4    4    0    0 -0.25827909550E-01  0.38045678167E-01 -0.97453468532E-01  0.10775896338E+00  0.51100000000E-03 0.  1.
</event>
<event>
 8    1  0.1123470E+005  0.1043930E+01  0.7957747E-01            NaN
         13   -1    0    0    0    0  0.00000000000E+00  0.00000000000E+00  0.74505805969E-08  0.10566000000E+00  0.10566000000E+00 0. -1.
     999900   -1    0    0    0    0 -0.00000000000E+00 -0.00000000000E+00 -0.74505805969E-08  0.93827000000E+00  0.93827000000E+00 0. -1.
     999902    2    1    2    0    0  0.16053876937E-02  0.22097102337E-01 -0.71232810835E-02  0.10206576917E+01  0.10203923379E+01 0.  0.
     999903    2    3    3    0    0  0.68574855688E-01  0.76459685838E-01 -0.82712356711E-01  0.13321535074E+00  0.18878594477E-01 0.  0.
         14    1    1    2    0    0 -0.16053876937E-02 -0.22097102337E-01  0.71232810835E-02  0.23272308325E-01  0.00000000000E+00 0.  1.
     999901    1    3    3    0    0 -0.66969467994E-01 -0.54362583500E-01  0.75589075628E-01  0.88744234093E+00  0.88000000000E+00 0.  1.
        -11    1    4    4    0    0  0.21544121159E-01  0.17054038922E-01 -0.13614510543E-01  0.30669291130E-01  0.51100000000E-03 0.  1.
         11    1    4    4    0    0  0.47030734529E-01  0.59405646915E-01 -0.69097846168E-01  0.10254605961E+00  0.51100000000E-03 0. -1.
</event>
<event>
 8    1  0.1123470E+005  0.1043930E+01  0.7957747E-01            NaN
         13   -1    0    0    0    0  0.00000000000E+00  0.00000000000E+00  0.74505805969E-08  0.10566000000E+00  0.10566000000E+00 0.  1.
     999900   -1    0    0    0    0 -0.00000000000E+00 -0.00000000000E+00 -0.74505805969E-08  0.93827000000E+00  0.93827000000E+00 0.  1.
     999902    2    1    2    0    0  0.17099214259E-01 -0.12427117965E-01  0.14019518114E-01  0.10185653932E+01  0.10182495259E+01 0.  0.
     999903    2    3    3    0    0  0.64895410323E-01 -0.59767176848E-03 -0.10960645277E+00  0.12856101523E+00  0.17395075629E-01 0.  0.
         14    1    1    2    0    0 -0.17099214259E-01  0.12427117965E-01 -0.14019518114E-01  0.25364606785E-01  0.00000000000E+00 0. -1.
     999901    1    3    3    0    0 -0.47796196064E-01 -0.11829446196E-01  0.12362597088E+00  0.89000437798E+00  0.88000000000E+00 0. -1.
        -11    1    4    4    0    0  0.41550115538E-01 -0.76096067125E-02 -0.77261772451E-01  0.88056577374E-01  0.51100000000E-03 0. -1.
         11    1    4    4    0    0  0.23345294785E-01  0.70119349440E-02 -0.32344680317E-01  0.40504437856E-01  0.51100000000E-03 0.  1.
</event>
<event>
 8    1  0.1123470E+005  0.1043930E+01  0.7957747E-01            NaN
         13   -1    0    0    0    0  0.00000000000E+00  0.00000000000E+00  0.74505805969E-08  0.10566000000E+00  0.10566000000E+00 0. -1.
     999900   -1    0    0    0    0 -0.00000000000E+00 -0.00000000000E+00 -0.74505805969E-08  0.93827000000E+00  0.93827000000E+00 0. -1.
     999902    2    1    2    0    0  0.59450832646E-02 -0.16653857782E-01 -0.14767656152E-01  0.10208913659E+01  0.10206313743E+01 0.  0.
     999903    2    3    3    0    0 -0.20345130455E-01 -0.13010650144E+00  0.26634695031E-02  0.13304761733E+00  0.18786919855E-01 0.  0.
         14    1    1    2    0    0 -0.59450832646E-02  0.16653857782E-01  0.14767656152E-01  0.23038634123E-01  0.00000000000E+00 0.  1.
     999901    1    3    3    0    0  0.26290213720E-01  0.11345264366E+00 -0.17431125656E-01  0.88784374855E+00  0.88000000000E+00 0. -1.
        -11    1    4    4    0    0 -0.10621121127E-04 -0.21548609700E-01 -0.56657251760E-02  0.22286862847E-01  0.51100000000E-03 0. -1.
         11    1    4    4    0    0 -0.20334509334E-01 -0.10855789174E+00  0.83291946791E-02  0.11076075448E+00  0.51100000000E-03 0.  1.
</event>
<event>
 8    1  0.1123470E+005  0.1043930E+01  0.7957747E-01            NaN
         13   -1    0    0    0    0  0.00000000000E+00  0.00000000000E+00  0.74505805969E-08  0.10566000000E+00  0.10566000000E+00 0. -1.
     999900   -1    0    0    0    0 -0.00000000000E+00 -0.00000000000E+00 -0.74505805969E-08  0.93827000000E+00  0.93827000000E+00 0.  1.
     999902    2    1    2    0    0  0.11956368927E-01  0.18865943201E-01  0.19372065393E-02  0.10215105589E+01  0.10212645057E+01 0.  0.
     999903    2    3    3    0    0 -0.96518888081E-01  0.88543118470E-02  0.85648684447E-01  0.13085084514E+00  0.19797775950E-01 0.  0.
         14    1    1    2    0    0 -0.11956368927E-01 -0.18865943201E-01 -0.19372065393E-02  0.22419441117E-01  0.00000000000E+00 0. -1.
     999901    1    3    3    0    0  0.10847525701E+00  0.10011631354E-01 -0.83711477907E-01  0.89065971374E+00  0.88000000000E+00 0.  1.
        -11    1    4    4    0    0 -0.27847515379E-01 -0.62591612919E-02  0.22655419187E-01  0.36444345959E-01  0.51100000000E-03 0. -1.
         11    1    4    4    0    0 -0.68671372703E-01  0.15113473139E-01  0.62993265259E-01  0.94406499184E-01  0.51100000000E-03 0.  1.
</event>
<event>
 8    1  0.1123470E+005  0.1043930E+01  0.7957747E-01            NaN
         13   -1    0    0    0    0  0.00000000000E+00  0.00000000000E+00  0.74505805969E-08  0.10566000000E+00  0.10566000000E+00 0. -1.
     999900   -1    0    0    0    0 -0.00000000000E+00 -0.00000000000E+00 -0.74505805969E-08  0.93827000000E+00  0.93827000000E+00 0. -1.
     999902    2    1    2    0    0 -0.30604516926E-02 -0.13056108820E-01 -0.16875267316E-01  0.10223753488E+01  0.10221481061E+01 0.  0.
     999903    2    3    3    0    0  0.47753914097E-01 -0.95052620354E-01 -0.80367800462E-01  0.13482995308E+00  0.20117056148E-01 0.  0.
         14    1    1    2    0    0  0.30604516926E-02  0.13056108820E-01  0.16875267316E-01  0.21554651217E-01  0.00000000000E+00 0. -1.
     999901    1    3    3    0    0 -0.50814365789E-01  0.81996511534E-01  0.63492533146E-01  0.88754539571E+00  0.88000000000E+00 0.  1.
        -11    1    4    4    0    0  0.25265028235E-01 -0.56686481772E-01 -0.34794737569E-01  0.71152046709E-01  0.51100000000E-03 0. -1.
         11    1    4    4    0    0  0.22488885862E-01 -0.38366138582E-01 -0.45573062893E-01  0.63677906368E-01  0.51100000000E-03 0.  1.
</event>
<event>
 8    1  0.1123470E+005  0.1043930E+01  0.7957747E-01            NaN
         13   -1    0    0    0    0  0.00000000000E+00  0.00000000000E+00  0.74505805969E-08  0.10566000000E+00  0.10566000000E+00 0. -1.
     999900   -1    0    0    0    0 -0.00000000000E+00 -0.00000000000E+00 -0.74505805969E-08  0.93827000000E+00  0.93827000000E+00 0. -1.
     999902    2    1    2    0    0 -0.41085378961E-02  0.21961784880E-01 -0.10536012470E-01  0.10192276188E+01  0.10189282267E+01 0.  0.
     999903    2    3    3    0    0  0.53296155094E-01  0.56184006938E-01 -0.10448045875E+00  0.13170746789E+00  0.20822297070E-01 0.  0.
         14    1    1    2    0    0  0.41085378961E-02 -0.21961784880E-01  0.10536012470E-01  0.24702381212E-01  0.00000000000E+00 0.  1.
     999901    1    3    3    0    0 -0.57404692990E-01 -0.34222222058E-01  0.93944446277E-01  0.88752015090E+00  0.88000000000E+00 0.  1.
        -11    1    4    4    0    0  0.14124625551E-01  0.61421409030E-02 -0.12174980664E-01  0.19639812040E-01  0.51100000000E-03 0.  1.
         11    1    4    4    0    0  0.39171529543E-01  0.50041866035E-01 -0.92305478083E-01  0.11206765585E+00  0.51100000000E-03 0. -1.
</event>
<event>
 8    1  0.1123470E+005  0.1043930E+01  0.7957747E-01            NaN
         13   -1    0    0    0    0  0.00000000000E+00  0.00000000000E+00  0.74505805969E-08  0.10566000000E+00  0.10566000000E+00 0. -1.
     999900   -1    0    0    0    0 -0.00000000000E+00 -0.00000000000E+00 -0.74505805969E-08  0.93827000000E+00  0.93827000000E+00 0. -1.
     999902    2    1    2    0    0  0.52812366451E-02 -0.16920418276E-01 -0.11633649332E-01  0.10227277876E+01  0.10225079920E+01 0.  0.
     999903    2    3    3    0    0  0.73478535547E-01 -0.80309485763E-01 -0.77938975003E-01  0.13533529173E+00  0.19810317374E-01 0.  0.
         14    1    1    2    0    0 -0.52812366451E-02  0.16920418276E-01  0.11633649332E-01  0.21202212430E-01  0.00000000000E+00 0.  1.
     999901    1    3    3    0    0 -0.68197298902E-01  0.63389067487E-01  0.66305325671E-01  0.88739249584E+00  0.88000000000E+00 0. -1.
        -11    1    4    4    0    0  0.22915622020E-01 -0.25399139507E-01 -0.36214138037E-01  0.49819342981E-01  0.51100000000E-03 0.  1.
         11    1    4    4    0    0  0.50562913527E-01 -0.54910346256E-01 -0.41724836966E-01  0.85515948753E-01  0.51100000000E-03 0. -1.
</event>
<event>
 8    1  0.1123470E+005  0.1043930E+01  0.7957747E-01            NaN
         13   -1    0    0    0    0  0.00000000000E+00  0.00000000000E+00  0.74505805969E-08  0.10566000000E+00  0.10566000000E+00 0.  1.
     999900   -1    0    0    0    0 -0.00000000000E+00 -0.00000000000E+00 -0.74505805969E-08  0.93827000000E+00  0.93827000000E+00 0. -1.
     999902    2    1    2    0    0 -0.13041618780E-01  0.19793486979E-01  0.43989872542E-02  0.10198215567E+01  0.10195365568E+01 0.  0.
     999903    2    3    3    0    0  0.72062140596E-02  0.11684726418E+00  0.59092847137E-01  0.13256689843E+00  0.19411473596E-01 0.  0.
         14    1    1    2    0    0  0.13041618780E-01 -0.19793486979E-01 -0.43989872542E-02  0.24108443252E-01  0.00000000000E+00 0. -1.
     999901    1    3    3    0    0 -0.20247832839E-01 -0.97053777206E-01 -0.54693859882E-01  0.88725465832E+00  0.88000000000E+00 0.  1.
        -11    1    4    4    0    0  0.33632089600E-02  0.22141003297E-01  0.34755958346E-02  0.22668835191E-01  0.51100000000E-03 0. -1.
         11    1    4    4    0    0  0.38430050996E-02  0.94706260888E-01  0.55617251302E-01  0.10989806324E+00  0.51100000000E-03 0.  1.
</event>
<event>
 8    1  0.1123470E+005  0.1043930E+01  0.7957747E-01            NaN
         13   -1    0    0    0    0  0.00000000000E+00  0.00000000000E+00  0.74505805969E-08  0.10566000000E+00  0.10566000000E+00 0.  1.
     999900   -1    0    0    0    0 -0.00000000000E+00 -0.00000000000E+00 -0.74505805969E-08  0.93827000000E+00  0.93827000000E+00 0. -1.
     999902    2    1    2    0    0 -0.63608979213E-04 -0.16534865042E-01  0.16485850605E-01  0.10205807157E+01  0.10203135832E+01 0.  0.
     999903    2    3    3    0    0  0.27791317315E-01 -0.12261219591E+00  0.40480343993E-01  0.13344823811E+00  0.19070031483E-01 0.  0.
         14    1    1    2    0    0  0.63608979213E-04  0.16534865042E-01 -0.16485850605E-01  0.23349284319E-01  0.00000000000E+00 0. -1.
     999901    1    3    3    0    0 -0.27854926294E-01  0.10607733087E+00 -0.23994493388E-01  0.88713247757E+00  0.88000000000E+00 0. -1.
        -11    1    4    4    0    0  0.71135664100E-02 -0.50181428581E-01  0.25131371226E-01  0.56574071289E-01  0.51100000000E-03 0.  1.
         11    1    4    4    0    0  0.20677750905E-01 -0.72430767332E-01  0.15348972767E-01  0.76874166823E-01  0.51100000000E-03 0. -1.
</event>
<event>
 7    1  0.1123470E+005  0.1043930E+01  0.7957747E-01            NaN
         13   -1    0    0    0    0  0.00000000000E+00  0.00000000000E+00  0.74505805969E-08  0.10566000000E+00  0.10566000000E+00 0.  1.
     999900   -1    0    0    0    0 -0.00000000000E+00 -0.00000000000E+00 -0.74505805969E-08  0.93827000000E+00  0.93827000000E+00 0.  1.
     999902    2    1    2    0    0 -0.70656363786E-02  0.20568964821E-01  0.55623035666E-02  0.10214812862E+01  0.10212345829E+01 0.  0.
         14    1    1    2    0    0  0.70656363786E-02 -0.20568964821E-01 -0.55623035666E-02  0.22448713820E-01  0.00000000000E+00 0.  1.
     999901    1    3    3    0    0  0.11531588177E+00  0.17822239920E-01 -0.45336542693E-01  0.88885926160E+00  0.88000000000E+00 0.  1.
        -11    1    3    3    0    0 -0.51628925320E-01  0.23816819550E-02  0.20185032795E-01  0.55487971747E-01  0.51100000000E-03 0. -1.
         11    1    3    3    0    0 -0.70752592828E-01  0.36504294567E-03  0.30713813464E-01  0.77134052835E-01  0.51100000000E-03 0.  1.
</event>
<event>
 8    1  0.1123470E+005  0.1043930E+01  0.7957747E-01            NaN
         13   -1    0    0    0    0  0.00000000000E+00  0.00000000000E+00  0.74505805969E-08  0.10566000000E+00  0.10566000000E+00 0.  1.
     999900   -1    0    0    0    0 -0.00000000000E+00 -0.00000000000E+00 -0.74505805969E-08  0.93827000000E+00  0.93827000000E+00 0. -1.
     999902    2    1    2    0    0 -0.17315694639E-01  0.31514377560E-02 -0.11344945895E-01  0.10229902617E+01  0.10227759300E+01 0.  0.
     999903    2    3    3    0    0 -0.64099479352E-01  0.98272942724E-01 -0.63781312443E-01  0.13507900731E+00  0.20296991743E-01 0.  0.
         14    1    1    2    0    0  0.17315694639E-01 -0.31514377560E-02  0.11344945895E-01  0.20939738253E-01  0.00000000000E+00 0.  1.
     999901    1    3    3    0    0  0.46783784712E-01 -0.95121504968E-01  0.52436366549E-01  0.88791125444E+00  0.88000000000E+00 0.  1.
        -11    1    4    4    0    0 -0.19229083976E-01  0.47206878435E-01 -0.30296659255E-01  0.59299205097E-01  0.51100000000E-03 0. -1.
         11    1    4    4    0    0 -0.44870395376E-01  0.51066064290E-01 -0.33484653188E-01  0.75779802212E-01  0.51100000000E-03 0.  1.
</event>
<event>
 8    1  0.1123470E+005  0.1043930E+01  0.7957747E-01            NaN
         13   -1    0    0    0    0  0.00000000000E+00  0.00000000000E+00  0.74505805969E-08  0.10566000000E+00  0.10566000000E+00 0. -1.
     999900   -1    0    0    0    0 -0.00000000000E+00 -0.00000000000E+00 -0.74505805969E-08  0.93827000000E+00  0.93827000000E+00 0. -1.
     999902    2    1    2    0    0  0.25996423868E-02  0.23585645432E-01 -0.30727111062E-02  0.10200033963E+01  0.10197227300E+01 0.  0.
     999903    2    3    3    0    0  0.98131671848E-01 -0.18201329592E-02 -0.84115009729E-01  0.13076795144E+00  0.19793543371E-01 0.  0.
         14    1    1    2    0    0 -0.25996423868E-02 -0.23585645432E-01  0.30727111062E-02  0.23926603698E-01  0.00000000000E+00 0.  1.
     999901    1    3    3    0    0 -0.95532029461E-01  0.25405778391E-01  0.81042298623E-01  0.88923544486E+00  0.88000000000E+00 0. -1.
        -11    1    4    4    0    0  0.84940198067E-02 -0.58294127294E-02 -0.10329706780E-01  0.14597752855E-01  0.51100000000E-03 0.  1.
         11    1    4    4    0    0  0.89637652041E-01  0.40092797702E-02 -0.73785302949E-01  0.11617019859E+00  0.51100000000E-03 0. -1.
</event>
<event>
 8    1  0.1123470E+005  0.1043930E+01  0.7957747E-01            NaN
         13   -1    0    0    0    0  0.00000000000E+00  0.00000000000E+00  0.74505805969E-08  0.10566000000E+00  0.10566000000E+00 0. -1.
     999900   -1    0    0    0    0 -0.00000000000E+00 -0.00000000000E+00 -0.74505805969E-08  0.93827000000E+00  0.93827000000E+00 0. -1.
     999902    2    1    2    0    0 -0.14075658623E-01  0.79655801065E-02 -0.16863489846E-01  0.10205643859E+01  0.10202968754E+01 0.  0.
     999903    2    3    3    0    0  0.94202356268E-01  0.68418385840E-01 -0.57243903015E-01  0.13095253347E+00  0.17791631248E-01 0.  0.
         14    1    1    2    0    0  0.14075658623E-01 -0.79655801065E-02  0.16863489846E-01  0.23365614092E-01  0.00000000000E+00 0. -1.
     999901    1    3    3    0    0 -0.10827801489E+00 -0.60452805733E-01  0.40380413169E-01  0.88961185244E+00  0.88000000000E+00 0.  1.
        -11    1    4    4    0    0  0.27059879439E-01  0.12037302146E-01 -0.94294742756E-02  0.31085524354E-01  0.51100000000E-03 0. -1.
         11    1    4    4    0    0  0.67142476829E-01  0.56381083694E-01 -0.47814428740E-01  0.99867009117E-01  0.51100000000E-03 0.  1.
</event>
<event>
 8    1  0.1123470E+005  0.1043930E+01  0.7957747E-01            NaN
         13   -1    0    0    0    0  0.00000000000E+00  0.00000000000E+00  0.74505805969E-08  0.10566000000E+00  0.10566000000E+00 0.  1.
     999900   -1    0    0    0    0 -0.00000000000E+00 -0.00000000000E+00 -0.74505805969E-08  0.93827000000E+00  0.93827000000E+00 0. -1.
     999902    2    1    2    0    0 -0.86986636801E-02  0.22892951447E-01 -0.22313094339E-02  0.10193386861E+01  0.10190420130E+01 0.  0.
     999903    2    3    3    0    0 -0.22789533425E-01 -0.45215680986E-01  0.11657633028E+00  0.12863525981E+00  0.19828480590E-01 0.  0.
         14    1    1    2    0    0  0.86986636801E-02 -0.22892951447E-01  0.22313094339E-02  0.24591313865E-01  0.00000000000E+00 0. -1.
     999901    1    3    3    0    0  0.14090869745E-01  0.68108632433E-01 -0.11880763972E+00  0.89070342633E+00  0.88000000000E+00 0. -1.
        -11    1    4    4    0    0 -0.23319559017E-01 -0.25175007932E-01  0.72799354944E-01  0.80483476928E-01  0.51100000000E-03 0. -1.
         11    1    4    4    0    0  0.53002559172E-03 -0.20040673054E-01  0.43776975337E-01  0.48151782877E-01  0.51100000000E-03 0.  1.
</event>
<event>
 8    1  0.1123470E+005  0.1043930E+01  0.7957747E-01            NaN
         13   -1    0    0    0    0  0.00000000000E+00  0.00000000000E+00  0.74505805969E-08  0.10566000000E+00  0.10566000000E+00 0.  1.
     999900   -1    0    0    0    0 -0.00000000000E+00 -0.00000000000E+00 -0.74505805969E-08  0.93827000000E+00  0.93827000000E+00 0. -1.
     999902    2    1    2    0    0  0.12358413674E-02 -0.10644301009E-01  0.13731768129E-01  0.10265119087E+01  0.10263641210E+01 0.  0.
     999903    2    3    3    0    0  0.73907478020E-01  0.72244072184E-01 -0.83430697569E-01  0.13432796248E+00  0.20044922920E-01 0.  0.
         14    1    1    2    0    0 -0.12358413674E-02  0.10644301009E-01 -0.13731768129E-01  0.17418091279E-01  0.00000000000E+00 0. -1.
     999901    1    3    3    0    0 -0.72671636652E-01 -0.82888373193E-01  0.97162465699E-01  0.89218394624E+00  0.88000000000E+00 0.  1.
        -11    1    4    4    0    0  0.51114848544E-02  0.14412644497E-01 -0.10117822128E-01  0.18343474164E-01  0.51100000000E-03 0.  1.
         11    1    4    4    0    0  0.68795993165E-01  0.57831427687E-01 -0.73312875442E-01  0.11598448832E+00  0.51100000000E-03 0. -1.
</event>
<event>
 8    1  0.1123470E+005  0.1043930E+01  0.7957747E-01            NaN
         13   -1    0    0    0    0  0.00000000000E+00  0.00000000000E+00  0.74505805969E-08  0.10566000000E+00  0.10566000000E+00 0. -1.
     999900   -1    0    0    0    0 -0.00000000000E+00 -0.00000000000E+00 -0.74505805969E-08  0.93827000000E+00  0.93827000000E+00 0.  1.
     999902    2    1    2    0    0 -0.48290635670E-02 -0.11101151727E-01 -0.19701010844E-01  0.10208067378E+01  0.10205448108E+01 0.  0.
     999903    2    3    3    0    0  0.93790115328E-01 -0.89721272153E-01  0.69658476959E-02  0.13141481797E+00  0.19360757701E-01 0.  0.
         14    1    1    2    0    0  0.48290635670E-02  0.11101151727E-01  0.19701010844E-01  0.23123262160E-01  0.00000000000E+00 0. -1.
     999901    1    3    3    0    0 -0.98619178895E-01  0.78620120425E-01 -0.26666858540E-01  0.88939191987E+00  0.88000000000E+00 0. -1.
        -11    1    4    4    0    0  0.44780066653E-01 -0.38432426706E-01 -0.59285698073E-02  0.59310326698E-01  0.51100000000E-03 0.  1.
         11    1    4    4    0    0  0.49010048675E-01 -0.51288845446E-01  0.12894417503E-01  0.72104491275E-01  0.51100000000E-03 0. -1.
</event>
<event>
 8    1  0.1123470E+005  0.1043930E+01  0.7957747E-01            NaN
         13   -1    0    0    0    0  0.00000000000E+00  0.00000000000E+00  0.74505805969E-08  0.10566000000E+00  0.10566000000E+00 0. -1.
     999900   -1    0    0    0    0 -0.00000000000E+00 -0.00000000000E+00 -0.74505805969E-08  0.93827000000E+00  0.93827000000E+00 0. -1.
     999902    2    1    2    0    0 -0.14159593606E-01  0.20854059718E-02 -0.19909901121E-01  0.10194096580E+01  0.10191147156E+01 0.  0.
     999903    2    3    3    0    0  0.10727726618E+00 -0.42004062941E-01 -0.53714401774E-01  0.12933464069E+00  0.23863343886E-01 0.  0.
         14    1    1    2    0    0  0.14159593606E-01 -0.20854059718E-02  0.19909901121E-01  0.24520342000E-01  0.00000000000E+00 0. -1.
     999901    1    3    3    0    0 -0.12143685978E+00  0.44089468913E-01  0.33804500653E-01  0.89007501731E+00  0.88000000000E+00 0.  1.
        -11    1    4    4    0    0  0.21648408354E-01 -0.17939973061E-01 -0.75273084871E-02  0.29110439910E-01  0.51100000000E-03 0. -1.
         11    1    4    4    0    0  0.85628857822E-01 -0.24064089880E-01 -0.46187093287E-01  0.10022420078E+00  0.51100000000E-03 0.  1.
</event>
<event>
 8    1  0.1123470E+005  0.1043930E+01  0.7957747E-01            NaN
         13   -1    0    0    0    0  0.00000000000E+00  0.00000000000E+00  0.74505805969E-08  0.10566000000E+00  0.10566000000E+00 0.  1.
     999900   -1    0    0    0    0 -0.00000000000E+00 -0.00000000000E+00 -0.74505805969E-08  0.93827000000E+00  0.93827000000E+00 0.  1.
     999902    2    1    2    0    0  0.16241473776E-01  0.54778305578E-02 -0.16945833901E-01  0.10198270254E+01  0.10195421562E+01 0.  0.
     999903    2    3    3    0    0 -0.10837463434E+00 -0.35406709578E-01  0.53102305610E-01  0.12735435810E+00  0.20014525084E-01 0.  0.
         14    1    1    2    0    0 -0.16241473776E-01 -0.54778305578E-02  0.16945833901E-01  0.24102974601E-01  0.00000000000E+00 0.  1.
     999901    1    3    3    0    0  0.12461610812E+00  0.40884540135E-01 -0.70048139511E-01  0.89247266730E+00  0.88000000000E+00 0. -1.
        -11    1    4    4    0    0 -0.10273492525E+00 -0.34146879907E-01  0.44662634694E-01  0.11711313476E+00  0.51100000000E-03 0. -1.
         11    1    4    4    0    0 -0.56397090926E-02 -0.12598296703E-02  0.84396709158E-02  0.10241223346E-01  0.51100000000E-03 0.  1.
</event>
<event>
 8    1  0.1123470E+005  0.1043930E+01  0.7957747E-01            NaN
         13   -1    0    0    0    0  0.00000000000E+00  0.00000000000E+00  0.74505805969E-08  0.10566000000E+00  0.10566000000E+00 0.  1.
     999900   -1    0    0    0    0 -0.00000000000E+00 -0.00000000000E+00 -0.74505805969E-08  0.93827000000E+00  0.93827000000E+00 0. -1.
     999902    2    1    2    0    0  0.94574391035E-02  0.20165428677E-01  0.26035331968E-02  0.10215053249E+01  0.10212591555E+01 0.  0.
     999903    2    3    3    0    0  0.12811972765E-01  0.12996774428E+00  0.24742501625E-01  0.13439882886E+00  0.19876936698E-01 0.  0.
         14    1    1    2    0    0 -0.94574391035E-02 -0.20165428677E-01 -0.26035331968E-02  0.22424675097E-01  0.00000000000E+00 0.  1.
     999901    1    3    3    0    0 -0.33545336617E-02 -0.10980231560E+00 -0.22138968428E-01  0.88710649605E+00  0.88000000000E+00 0. -1.
        -11    1    4    4    0    0  0.49406486360E-02  0.37714185153E-01 -0.17904713762E-02  0.38081973156E-01  0.51100000000E-03 0. -1.
         11    1    4    4    0    0  0.78713241292E-02  0.92253559123E-01  0.26532973001E-01  0.96316855699E-01  0.51100000000E-03 0.  1.
</event>
<event>
 8    1  0.1123470E+005  0.1043930E+01  0.7957747E-01            NaN
         13   -1    0    0    0    0  0.00000000000E+00  0.00000000000E+00  0.74505805969E-08  0.10566000000E+00  0.10566000000E+00 0.  1.
     999900   -1    0    0    0    0 -0.00000000000E+00 -0.00000000000E+00 -0.74505805969E-08  0.93827000000E+00  0.93827000000E+00 0. -1.
     999902    2    1    2    0    0  0.10438037436E-01  0.18833489174E-01 -0.88500309785E-02  0.10206496222E+01  0.10203840823E+01 0.  0.
     999903    2    3    3    0    0 -0.95356876704E-01 -0.45297654093E-01  0.70413933462E-01  0.12846794599E+00  0.20026974802E-01 0.  0.
         14    1    1    2    0    0 -0.10438037436E-01 -0.18833489174E-01  0.88500309785E-02  0.23280377752E-01  0.00000000000E+00 0.  1.
     999901    1    3    3    0    0  0.10579491414E+00  0.64131143266E-01 -0.79263964441E-01  0.89218167626E+00  0.88000000000E+00 0. -1.
        -11    1    4    4    0    0 -0.47740239691E-01 -0.12690943839E-01  0.27418129791E-01  0.56499606225E-01  0.51100000000E-03 0.  1.
         11    1    4    4    0    0 -0.47616637013E-01 -0.32606710254E-01  0.42995803671E-01  0.71968339763E-01  0.51100000000E-03 0. -1.
</event>
<event>
 8    1  0.1123470E+005  0.1043930E+01  0.7957747E-01            NaN
         13   -1    0    0    0    0  0.00000000000E+00  0.00000000000E+00  0.74505805969E-08  0.10566000000E+00  0.10566000000E+00 0. -1.
     999900   -1    0    0    0    0 -0.00000000000E+00 -0.00000000000E+00 -0.74505805969E-08  0.93827000000E+00  0.93827000000E+00 0. -1.
     999902    2    1    2    0    0 -0.35188692059E-02 -0.16957234120E-01 -0.11812603703E-01  0.10229665118E+01  0.10227516886E+01 0.  0.
     999903    2    3    3    0    0 -0.74321317733E-01  0.80994975478E-01  0.68513308162E-01  0.13108093947E+00  0.20107087699E-01 0.  0.
         14    1    1    2    0    0  0.35188692059E-02  0.16957234120E-01  0.11812603703E-01  0.20963488157E-01  0.00000000000E+00 0. -1.
     999901    1    3    3    0    0  0.70802448527E-01 -0.97952209598E-01 -0.80325911865E-01  0.89188557237E+00  0.88000000000E+00 0.  1.
        -11    1    4    4    0    0 -0.15811445972E-01  0.26964146432E-01  0.26790225559E-01  0.41170915984E-01  0.51100000000E-03 0.  1.
         11    1    4    4    0    0 -0.58509871761E-01  0.54030829046E-01  0.41723082604E-01  0.89910023489E-01  0.51100000000E-03 0. -1.
</event>
<event>
 8    1  0.1123470E+005  0.1043930E+01  0.7957747E-01            NaN
         13   -1    0    0    0    0  0.00000000000E+00  0.00000000000E+00  0.74505805969E-08  0.10566000000E+00  0.10566000000E+00 0. -1.
     999900   -1    0    0    0    0 -0.00000000000E+00 -0.00000000000E+00 -0.74505805969E-08  0.93827000000E+00  0.93827000000E+00 0.  1.
     999902    2    1    2    0    0 -0.12716527377E-01  0.18779868997E-01  0.42100870354E-02  0.10208623087E+01  0.10206016534E+01 0.  0.
     999903    2    3    3    0    0  0.58185374767E-01 -0.11012055823E+00 -0.22356354471E-01  0.12825479381E+00  0.20914357910E-01 0.  0.
         14    1    1    2    0    0  0.12716527377E-01 -0.18779868997E-01 -0.42100870354E-02  0.23067691279E-01  0.00000000000E+00 0. -1.
     999901    1    3    3    0    0 -0.70901902144E-01  0.12890042723E+00  0.26566441507E-01  0.89260751491E+00  0.88000000000E+00 0. -1.
        -11    1    4    4    0    0  0.40019107735E-01 -0.91246259087E-01 -0.22065709887E-01  0.10205177830E+00  0.51100000000E-03 0.  1.
         11    1    4    4    0    0  0.18166267032E-01 -0.18874299146E-01 -0.29064458469E-03  0.26203015502E-01  0.51100000000E-03 0. -1.
</event>
<event>
 8    1  0.1123470E+005  0.1043930E+01  0.7957747E-01            NaN
         13   -1    0    0    0    0  0.00000000000E+00  0.00000000000E+00  0.74505805969E-08  0.10566000000E+00  0.10566000000E+00 0. -1.
     999900   -1    0    0    0    0 -0.00000000000E+00 -0.00000000000E+00 -0.74505805969E-08  0.93827000000E+00  0.93827000000E+00 0.  1.
     999902    2    1    2    0    0 -0.22635798743E-03 -0.22656985450E-01 -0.70800853875E-02  0.10201914694E+01  0.10199152496E+01 0.  0.
     999903    2    3    3    0    0 -0.10430502776E+00  0.52782509051E-01 -0.53058914197E-01  0.12966491753E+00  0.18226639366E-01 0.  0.
         14    1    1    2    0    0  0.22635798743E-03  0.22656985450E-01  0.70800853875E-02  0.23738530635E-01  0.00000000000E+00 0.  1.
     999901    1    3    3    0    0  0.10407866978E+00 -0.75439494501E-01  0.45978828809E-01  0.89052655184E+00  0.88000000000E+00 0. -1.
        -11    1    4    4    0    0 -0.69567720119E-01  0.27606213463E-01 -0.39729555482E-01  0.84737650452E-01  0.51100000000E-03 0. -1.
         11    1    4    4    0    0 -0.34737307645E-01  0.25176295588E-01 -0.13329358715E-01  0.44927267073E-01  0.51100000000E-03 0.  1.
</event>
<event>
 8    1  0.1123470E+005  0.1043930E+01  0.7957747E-01            NaN
         13   -1    0    0    0    0  0.00000000000E+00  0.00000000000E+00  0.74505805969E-08  0.10566000000E+00  0.10566000000E+00 0.  1.
     999900   -1    0    0    0    0 -0.00000000000E+00 -0.00000000000E+00 -0.74505805969E-08  0.93827000000E+00  0.93827000000E+00 0. -1.
     999902    2    1    2    0    0  0.23342282468E-01 -0.50122322925E-02 -0.38456503933E-02  0.10197479064E+01  0.10194611415E+01 0.  0.
     999903    2    3    3    0    0 -0.86563165291E-01 -0.81678573924E-01  0.43714196914E-01  0.12833393162E+00  0.19851850508E-01 0.  0.
         14    1    1    2    0    0 -0.23342282468E-01  0.50122322925E-02  0.38456503933E-02  0.24182093589E-01  0.00000000000E+00 0.  1.
     999901    1    3    3    0    0  0.10990544776E+00  0.76666341631E-01 -0.47559847307E-01  0.89141397480E+00  0.88000000000E+00 0. -1.
        -11    1    4    4    0    0 -0.44773741349E-01 -0.41139463113E-01  0.32824510125E-01  0.69100310604E-01  0.51100000000E-03 0. -1.
         11    1    4    4    0    0 -0.41789423942E-01 -0.40539110811E-01  0.10889686789E-01  0.59233621011E-01  0.51100000000E-03 0.  1.
</event>
<event>
 8    1  0.1123470E+005  0.1043930E+01  0.7957747E-01            NaN
         13   -1    0    0    0    0  0.00000000000E+00  0.00000000000E+00  0.74505805969E-08  0.10566000000E+00  0.10566000000E+00 0.  1.
     999900   -1    0    0    0    0 -0.00000000000E+00 -0.00000000000E+00 -0.74505805969E-08  0.93827000000E+00  0.93827000000E+00 0.  1.
     999902    2    1    2    0    0  0.22618394678E-01  0.30043148504E-02  0.55503895310E-02  0.10204475702E+01  0.10201773468E+01 0.  0.
     999903    2    3    3    0    0  0.12906969992E+00 -0.23578113856E-01 -0.15185928090E-01  0.13339148360E+00  0.18648340269E-01 0.  0.
         14    1    1    2    0    0 -0.22618394678E-01 -0.30043148504E-02 -0.55503895310E-02  0.23482429804E-01  0.00000000000E+00 0. -1.
     999901    1    3    3    0    0 -0.10645130524E+00  0.26582428706E-01  0.20736317621E-01  0.88705608660E+00  0.88000000000E+00 0.  1.
        -11    1    4    4    0    0  0.62694782514E-01 -0.39679146367E-02 -0.15113534099E-02  0.62840475898E-01  0.51100000000E-03 0.  1.
         11    1    4    4    0    0  0.66374917403E-01 -0.19610199219E-01 -0.13674574680E-01  0.70551007699E-01  0.51100000000E-03 0. -1.
</event>
<event>
 8    1  0.1123470E+005  0.1043930E+01  0.7957747E-01            NaN
         13   -1    0    0    0    0  0.00000000000E+00  0.00000000000E+00  0.74505805969E-08  0.10566000000E+00  0.10566000000E+00 0.  1.
     999900   -1    0    0    0    0 -0.00000000000E+00 -0.00000000000E+00 -0.74505805969E-08  0.93827000000E+00  0.93827000000E+00 0. -1.
     999902    2    1    2    0    0 -0.92096039472E-02  0.20468657620E-03  0.21866953857E-01  0.10202019075E+01  0.10199259335E+01 0.  0.
     999903    2    3    3    0    0  0.16706174279E-02  0.12702325858E+00  0.25128959702E-01  0.13103827236E+00  0.20046571389E-01 0.  0.
         14    1    1    2    0    0  0.92096039472E-02 -0.20468657620E-03 -0.21866953857E-01  0.23728092474E-01  0.00000000000E+00 0. -1.
     999901    1    3    3    0    0 -0.10880221375E-01 -0.12681857200E+00 -0.32620058451E-02  0.88916363517E+00  0.88000000000E+00 0. -1.
        -11    1    4    4    0    0 -0.47452960315E-02  0.39390705593E-01  0.11628574179E-03  0.39678963758E-01  0.51100000000E-03 0. -1.
         11    1    4    4    0    0  0.64159134594E-02  0.87632552986E-01  0.25012673960E-01  0.91359308601E-01  0.51100000000E-03 0.  1.
</event>
<event>
 8    1  0.1123470E+005  0.1043930E+01  0.7957747E-01            NaN
         13   -1    0    0    0    0  0.00000000000E+00  0.00000000000E+00  0.74505805969E-08  0.10566000000E+00  0.10566000000E+00 0. -1.
     999900   -1    0    0    0    0 -0.00000000000E+00 -0.00000000000E+00 -0.74505805969E-08  0.93827000000E+00  0.93827000000E+00 0.  1.
     999902    2    1    2    0    0 -0.17419723173E-01 -0.16193996358E-01  0.86854585841E-03  0.10201298604E+01  0.10198521880E+01 0.  0.
     999903    2    3    3    0    0 -0.98998931637E-01 -0.27621107273E-01  0.81486837799E-01  0.13261363231E+00  0.19559056904E-01 0.  0.
         14    1    1    2    0    0  0.17419723173E-01  0.16193996358E-01 -0.86854585841E-03  0.23800139608E-01  0.00000000000E+00 0.  1.
     999901    1    3    3    0    0  0.81579208464E-01  0.11427110915E-01 -0.80618291941E-01  0.88751622808E+00  0.88000000000E+00 0. -1.
        -11    1    4    4    0    0 -0.54150618945E-01 -0.82760779881E-02  0.33914298824E-01  0.64429991346E-01  0.51100000000E-03 0.  1.
         11    1    4    4    0    0 -0.44848312692E-01 -0.19345029285E-01  0.47572538975E-01  0.68183640962E-01  0.51100000000E-03 0. -1.
</event>
<event>
 8    1  0.1123470E+005  0.1043930E+01  0.7957747E-01            NaN
         13   -1    0    0    0    0  0.00000000000E+00  0.00000000000E+00  0.74505805969E-08  0.10566000000E+00  0.10566000000E+00 0.  1.
     999900   -1    0    0    0    0 -0.00000000000E+00 -0.00000000000E+00 -0.74505805969E-08  0.93827000000E+00  0.93827000000E+00 0. -1.
     999902    2    1    2    0    0 -0.19222729503E-01 -0.47342027592E-03 -0.12563922616E-01  0.10209606812E+01  0.10207022695E+01 0.  0.
     999903    2    3    3    0    0  0.49169051972E-01  0.12972189784E-01  0.11648943249E+00  0.12882112444E+00  0.20957596248E-01 0.  0.
         14    1    1    2    0    0  0.19222729503E-01  0.47342027592E-03  0.12563922616E-01  0.22969318837E-01  0.00000000000E+00 0. -1.
     999901    1    3    3    0    0 -0.68391781476E-01 -0.13445610060E-01 -0.12905335511E+00  0.89213955672E+00  0.88000000000E+00 0. -1.
        -11    1    4    4    0    0  0.15299808607E-01 -0.39761833536E-02  0.48229998460E-01  0.50757147772E-01  0.51100000000E-03 0.  1.
         11    1    4    4    0    0  0.33869243366E-01  0.16948373138E-01  0.68259434031E-01  0.78063976670E-01  0.51100000000E-03 0. -1.
</event>
<event>
 8    1  0.1123470E+005  0.1043930E+01  0.7957747E-01            NaN
         13   -1    0    0    0    0  0.00000000000E+00  0.00000000000E+00  0.74505805969E-08  0.10566000000E+00  0.10566000000E+00 0. -1.
     999900   -1    0    0    0    0 -0.00000000000E+00 -0.00000000000E+00 -0.74505805969E-08  0.93827000000E+00  0.93827000000E+00 0.  1.
     999902    2    1    2    0    0 -0.19989700623E-01 -0.64488752243E-02 -0.10840193597E-01  0.10202934622E+01  0.10200196386E+01 0.  0.
     999903    2    3    3    0    0  0.88543416972E-01 -0.91651367492E-01  0.75865564509E-03  0.12946607396E+00  0.22824962143E-01 0.  0.
         14    1    1    2    0    0  0.19989700623E-01  0.64488752243E-02  0.10840193597E-01  0.23636537815E-01  0.00000000000E+00 0. -1.
     999901    1    3    3    0    0 -0.10853311759E+00  0.85202492268E-01 -0.11598849242E-01  0.89082738822E+00  0.88000000000E+00 0. -1.
        -11    1    4    4    0    0  0.10540521670E-01 -0.23584410780E-01  0.21786282353E-02  0.25929415167E-01  0.51100000000E-03 0.  1.
         11    1    4    4    0    0  0.78002895302E-01 -0.68066956712E-01 -0.14199725902E-02  0.10353665880E+00  0.51100000000E-03 0. -1.
</event>
<event>
 8    1  0.1123470E+005  0.1043930E+01  0.7957747E-01            NaN
         13   -1    0    0    0    0  0.00000000000E+00  0.00000000000E+00  0.74505805969E-08  0.10566000000E+00  0.10566000000E+00 0. -1.
     999900   -1    0    0    0    0 -0.00000000000E+00 -0.00000000000E+00 -0.74505805969E-08  0.93827000000E+00  0.93827000000E+00 0. -1.
     999902    2    1    2    0    0 -0.92184601932E-02 -0.17234392569E-01  0.15702889560E-01  0.10188584018E+01  0.10185498799E+01 0.  0.
     999903    2    3    3    0    0  0.56843024365E-01  0.10976811406E+00  0.22539467681E-01  0.12726404604E+00  0.20197562424E-01 0.  0.
         14    1    1    2    0    0  0.92184601932E-02  0.17234392569E-01 -0.15702889560E-01  0.25071598195E-01  0.00000000000E+00 0. -1.
     999901    1    3    3    0    0 -0.66061484559E-01 -0.12700250663E+00 -0.68365781211E-02  0.89159435577E+00  0.88000000000E+00 0.  1.
        -11    1    4    4    0    0  0.41209712125E-01  0.85707740246E-01  0.89815613626E-02  0.95524796138E-01  0.51100000000E-03 0.  1.
         11    1    4    4    0    0  0.15633312240E-01  0.24060373813E-01  0.13557906318E-01  0.31739249902E-01  0.51100000000E-03 0. -1.
</event>
<event>
 8    1  0.1123470E+005  0.1043930E+01  0.7957747E-01            NaN
         13   -1    0    0    0    0  0.00000000000E+00  0.00000000000E+00  0.74505805969E-08  0.10566000000E+00  0.10566000000E+00 0.  1.
     999900   -1    0    0    0    0 -0.00000000000E+00 -0.00000000000E+00 -0.74505805969E-08  0.93827000000E+00  0.93827000000E+00 0.  1.
     999902    2    1    2    0    0 -0.18450854386E-01 -0.75648745469E-02  0.83957753219E-02  0.10222932166E+01  0.10220642202E+01 0.  0.
     999903    2    3    3    0    0  0.14506261420E-01  0.67960993165E-01  0.11103597896E+00  0.13250372484E+00  0.19977994383E-01 0.  0.
         14    1    1    2    0    0  0.18450854386E-01  0.75648745469E-02 -0.83957753219E-02  0.21636783443E-01  0.00000000000E+00 0.  1.
     999901    1    3    3    0    0 -0.32957115806E-01 -0.75525867712E-01 -0.10264020364E+00  0.88978949172E+00  0.88000000000E+00 0.  1.
        -11    1    4    4    0    0  0.27932946115E-02  0.23601678086E-01  0.56091400008E-01  0.60920833704E-01  0.51100000000E-03 0. -1.
         11    1    4    4    0    0  0.11712966808E-01  0.44359315079E-01  0.54944578951E-01  0.71582891132E-01  0.51100000000E-03 0.  1.
</event>
<event>
 8    1  0.1123470E+005  0.1043930E+01  0.7957747E-01            NaN
         13   -1    0    0    0    0  0.00000000000E+00  0.00000000000E+00  0.74505805969E-08  0.10566000000E+00  0.10566000000E+00 0. -1.
     999900   -1    0    0    0    0 -0.00000000000E+00 -0.00000000000E+00 -0.74505805969E-08  0.93827000000E+00  0.93827000000E+00 0. -1.
     999902    2    1    2    0    0 -0.15845874079E-01 -0.13567439210E-01 -0.11688471199E-01  0.10200179217E+01  0.10197376001E+01 0.  0.
     999903    2    3    3    0    0  0.72500736355E-01 -0.94089873519E-01  0.48627208557E-01  0.12989042111E+00  0.19941289126E-01 0.  0.
         14    1    1    2    0    0  0.15845874079E-01  0.13567439210E-01  0.11688471199E-01  0.23912078350E-01  0.00000000000E+00 0.  1.
     999901    1    3    3    0    0 -0.88346610433E-01  0.80522434309E-01 -0.60315679757E-01  0.89012750055E+00  0.88000000000E+00 0.  1.
        -11    1    4    4    0    0  0.19874304408E-01 -0.21999024085E-01  0.34511318941E-02  0.29851573975E-01  0.51100000000E-03 0.  1.
         11    1    4    4    0    0  0.52626431946E-01 -0.72090849434E-01  0.45176076663E-01  0.10003884713E+00  0.51100000000E-03 0. -1.
</event>
<event>
 8    1  0.1123470E+005  0.1043930E+01  0.7957747E-01            NaN
         13   -1    0    0    0    0  0.00000000000E+00  0.00000000000E+00  0.74505805969E-08  0.10566000000E+00  0.10566000000E+00 0.  1.
     999900   -1    0    0    0    0 -0.00000000000E+00 -0.00000000000E+00 -0.74505805969E-08  0.93827000000E+00  0.93827000000E+00 0. -1.
     999902    2    1    2    0    0 -0.15815080817E-01  0.24710110836E-01  0.46265037568E-03  0.10145885548E+01  0.10141641954E+01 0.  0.
     999903    2    3    3    0    0 -0.11884625969E+00  0.29174218660E-01 -0.32487354183E-01  0.12795387535E+00  0.18471533714E-01 0.  0.
         14    1    1    2    0    0  0.15815080817E-01 -0.24710110836E-01 -0.46265037568E-03  0.29341445161E-01  0.00000000000E+00 0. -1.
     999901    1    3    3    0    0  0.10303117887E+00 -0.44641078239E-02  0.32950004559E-01  0.88663467949E+00  0.88000000000E+00 0.  1.
        -11    1    4    4    0    0 -0.58047907040E-01  0.21515814475E-01 -0.10188498377E-01  0.62741982790E-01  0.51100000000E-03 0.  1.
         11    1    4    4    0    0 -0.60798352649E-01  0.76584041857E-02 -0.22298855806E-01  0.65211892556E-01  0.51100000000E-03 0. -1.
</event>
<event>
 8    1  0.1123470E+005  0.1043930E+01  0.7957747E-01            NaN
         13   -1    0    0    0    0  0.00000000000E+00  0.00000000000E+00  0.74505805969E-08  0.10566000000E+00  0.10566000000E+00 0.  1.
     999900   -1    0    0    0    0 -0.00000000000E+00 -0.00000000000E+00 -0.74505805969E-08  0.93827000000E+00  0.93827000000E+00 0. -1.
     999902    2    1    2    0    0  0.39904922944E-02 -0.22311030078E-01 -0.18562111250E-03  0.10212641546E+01  0.10210126018E+01 0.  0.
     999903    2    3    3    0    0  0.61386540346E-01 -0.10724512169E+00  0.48977227047E-01  0.13395074218E+00  0.16559260191E-01 0.  0.
         14    1    1    2    0    0 -0.39904922944E-02  0.22311030078E-01  0.18562111250E-03  0.22665845387E-01  0.00000000000E+00 0.  1.
     999901    1    3    3    0    0 -0.57396048051E-01  0.84934091615E-01 -0.49162848160E-01  0.88731341244E+00  0.88000000000E+00 0. -1.
        -11    1    4    4    0    0  0.35327541503E-01 -0.52265639843E-01  0.17622500565E-01  0.65502259076E-01  0.51100000000E-03 0.  1.
         11    1    4    4    0    0  0.26058998843E-01 -0.54979481849E-01  0.31354726482E-01  0.68448483101E-01  0.51100000000E-03 0. -1.
</event>
<event>
 8    1  0.1123470E+005  0.1043930E+01  0.7957747E-01            NaN
         13   -1    0    0    0    0  0.00000000000E+00  0.00000000000E+00  0.74505805969E-08  0.10566000000E+00  0.10566000000E+00 0. -1.
     999900   -1    0    0    0    0 -0.00000000000E+00 -0.00000000000E+00 -0.74505805969E-08  0.93827000000E+00  0.93827000000E+00 0. -1.
     999902    2    1    2    0    0 -0.11839937585E-01 -0.37744934078E-02 -0.19782896481E-01  0.10205677673E+01  0.10203003351E+01 0.  0.
     999903    2    3    3    0    0 -0.11407045393E+00  0.60756498310E-01  0.15027454801E-01  0.13162058783E+00  0.19867918803E-01 0.  0.
         14    1    1    2    0    0  0.11839937585E-01  0.37744934078E-02  0.19782896481E-01  0.23362232678E-01  0.00000000000E+00 0. -1.
     999901    1    3    3    0    0  0.10223051634E+00 -0.64530991718E-01 -0.34810351282E-01  0.88894717949E+00  0.88000000000E+00 0.  1.
        -11    1    4    4    0    0 -0.79263175941E-01  0.48113728108E-01  0.18037685848E-01  0.94462697000E-01  0.51100000000E-03 0. -1.
         11    1    4    4    0    0 -0.34807277987E-01  0.12642770202E-01 -0.30102310471E-02  0.37157890834E-01  0.51100000000E-03 0.  1.
</event>
<event>
 8    1  0.1123470E+005  0.1043930E+01  0.7957747E-01            NaN
         13   -1    0    0    0    0  0.00000000000E+00  0.00000000000E+00  0.74505805969E-08  0.10566000000E+00  0.10566000000E+00 0. -1.
     999900   -1    0    0    0    0 -0.00000000000E+00 -0.00000000000E+00 -0.74505805969E-08  0.93827000000E+00  0.93827000000E+00 0.  1.
     999902    2    1    2    0    0  0.11126962229E-01 -0.78130149922E-02  0.20364171823E-01  0.10194442493E+01  0.10191501487E+01 0.  0.
     999903    2    3    3    0    0  0.72810620703E-01 -0.33502236521E-01 -0.98984011238E-01  0.12887768886E+00  0.19693599647E-01 0.  0.
         14    1    1    2    0    0 -0.11126962229E-01  0.78130149922E-02 -0.20364171823E-01  0.24485750668E-01  0.00000000000E+00 0.  1.
     999901    1    3    3    0    0 -0.61683658474E-01  0.25689221528E-01  0.11934818306E+00  0.89056656047E+00  0.88000000000E+00 0. -1.
        -11    1    4    4    0    0  0.51400552533E-01 -0.32329137980E-01 -0.67654843780E-01  0.90910004791E-01  0.51100000000E-03 0. -1.
         11    1    4    4    0    0  0.21410068170E-01 -0.11730985404E-02 -0.31329167457E-01  0.37967684072E-01  0.51100000000E-03 0.  1.
</event>
<event>
 8    1  0.1123470E+005  0.1043930E+01  0.7957747E-01            NaN
         13   -1    0    0    0    0  0.00000000000E+00  0.00000000000E+00  0.74505805969E-08  0.10566000000E+00  0.10566000000E+00 0.  1.
     999900   -1    0    0    0    0 -0.00000000000E+00 -0.00000000000E+00 -0.74505805969E-08  0.93827000000E+00  0.93827000000E+00 0.  1.
     999902    2    1    2    0    0  0.23357465695E-01  0.14730136766E-02 -0.62101245168E-02  0.10197162308E+01  0.10194287051E+01 0.  0.
     999903    2    3    3    0    0 -0.10911407893E+00 -0.45366637105E-01  0.42231139297E-01  0.12725378392E+00  0.21119716223E-01 0.  0.
         14    1    1    2    0    0 -0.23357465695E-01 -0.14730136766E-02  0.62101245168E-02  0.24213769213E-01  0.00000000000E+00 0. -1.
     999901    1    3    3    0    0  0.13247154463E+00  0.46839650782E-01 -0.48441263813E-01  0.89246244686E+00  0.88000000000E+00 0.  1.
        -11    1    4    4    0    0 -0.43611399149E-01 -0.26542967625E-01  0.10735675722E-01  0.52172781413E-01  0.51100000000E-03 0. -1.
         11    1    4    4    0    0 -0.65502679782E-01 -0.18823669480E-01  0.31495463574E-01  0.75081002511E-01  0.51100000000E-03 0.  1.
</event>
<event>
 8    1  0.1123470E+005  0.1043930E+01  0.7957747E-01            NaN
         13   -1    0    0    0    0  0.00000000000E+00  0.00000000000E+00  0.74505805969E-08  0.10566000000E+00  0.10566000000E+00 0. -1.
     999900   -1    0    0    0    0 -0.00000000000E+00 -0.00000000000E+00 -0.74505805969E-08  0.93827000000E+00  0.93827000000E+00 0. -1.
     999902    2    1    2    0    0  0.21437576463E-01 -0.95356957450E-02 -0.31798433338E-03  0.10204651264E+01  0.10201953117E+01 0.  0.
     999903    2    3    3    0    0  0.96761347545E-01  0.77777849202E-01 -0.39805048474E-01  0.13206400426E+00  0.21078594181E-01 0.  0.
         14    1    1    2    0    0 -0.21437576463E-01  0.95356957450E-02  0.31798433338E-03  0.23464873577E-01  0.00000000000E+00 0. -1.
     999901    1    3    3    0    0 -0.75323771082E-01 -0.87313544947E-01  0.39487064141E-01  0.88840112216E+00  0.88000000000E+00 0.  1.
        -11    1    4    4    0    0  0.19639901489E-01  0.27723949829E-01 -0.10539282740E-01  0.35576406877E-01  0.51100000000E-03 0. -1.
         11    1    4    4    0    0  0.77121446056E-01  0.50053899373E-01 -0.29265765734E-01  0.96487597386E-01  0.51100000000E-03 0.  1.
</event>
<event>
 8    1  0.1123470E+005  0.1043930E+01  0.7957747E-01            NaN
         13   -1    0    0    0    0  0.00000000000E+00  0.00000000000E+00  0.74505805969E-08  0.10566000000E+00  0.10566000000E+00 0.  1.
     999900   -1    0    0    0    0 -0.00000000000E+00 -0.00000000000E+00 -0.74505805969E-08  0.93827000000E+00  0.93827000000E+00 0. -1.
     999902    2    1    2    0    0  0.22606157342E-01  0.63106247361E-02 -0.48717066310E-03  0.10204544879E+01  0.10201844256E+01 0.  0.
     999903    2    3    3    0    0  0.96702527081E-01 -0.83472133253E-02  0.87093407174E-01  0.13288731755E+00  0.25548441788E-01 0.  0.
         14    1    1    2    0    0 -0.22606157342E-01 -0.63106247361E-02  0.48717066310E-03  0.23475512126E-01  0.00000000000E+00 0.  1.
     999901    1    3    3    0    0 -0.74096369739E-01  0.14657838061E-01 -0.87580577837E-01  0.88756717033E+00  0.88000000000E+00 0. -1.
        -11    1    4    4    0    0  0.58065902245E-01  0.56106918758E-02  0.41997459904E-01  0.71883076076E-01  0.51100000000E-03 0.  1.
         11    1    4    4    0    0  0.38636624836E-01 -0.13957905201E-01  0.45095947270E-01  0.61004241472E-01  0.51100000000E-03 0. -1.
</event>
<event>
 8    1  0.1123470E+005  0.1043930E+01  0.7957747E-01            NaN
         13   -1    0    0    0    0  0.00000000000E+00  0.00000000000E+00  0.74505805969E-08  0.10566000000E+00  0.10566000000E+00 0. -1.
     999900   -1    0    0    0    0 -0.00000000000E+00 -0.00000000000E+00 -0.74505805969E-08  0.93827000000E+00  0.93827000000E+00 0.  1.
     999902    2    1    2    0    0 -0.20000121107E-01  0.12827745648E-01 -0.40164533378E-02  0.10198325354E+01  0.10195477980E+01 0.  0.
     999903    2    3    3    0    0  0.47667739707E-01 -0.11682887365E+00  0.18684301667E-02  0.12774262392E+00  0.19836527108E-01 0.  0.
         14    1    1    2    0    0  0.20000121107E-01 -0.12827745648E-01  0.40164533378E-02  0.24097464599E-01  0.00000000000E+00 0. -1.
     999901    1    3    3    0    0 -0.67667860814E-01  0.12965661930E+00 -0.58848835045E-02  0.89208991148E+00  0.88000000000E+00 0. -1.
        -11    1    4    4    0    0  0.30147896708E-01 -0.91203594783E-01 -0.40215652275E-02  0.96142734958E-01  0.51100000000E-03 0.  1.
         11    1    4    4    0    0  0.17519842999E-01 -0.25625278865E-01  0.58899953942E-02  0.31599888961E-01  0.51100000000E-03 0. -1.
</event>
<event>
 8    1  0.1123470E+005  0.1043930E+01  0.7957747E-01            NaN
         13   -1    0    0    0    0  0.00000000000E+00  0.00000000000E+00  0.74505805969E-08  0.10566000000E+00  0.10566000000E+00 0.  1.
     999900   -1    0    0    0    0 -0.00000000000E+00 -0.00000000000E+00 -0.74505805969E-08  0.93827000000E+00  0.93827000000E+00 0.  1.
     999902    2    1    2    0    0 -0.27092033854E-02  0.39503253840E-02 -0.23211617675E-01  0.10202292817E+01  0.10199539515E+01 0.  0.
     999903    2    3    3    0    0 -0.77139517306E-01 -0.65537048481E-01 -0.81736305813E-01  0.13242665391E+00  0.24705973455E-01 0.  0.
         14    1    1    2    0    0  0.27092033854E-02 -0.39503253840E-02  0.23211617675E-01  0.23700718316E-01  0.00000000000E+00 0.  1.
     999901    1    3    3    0    0  0.74430313921E-01  0.69487373865E-01  0.58524688138E-01  0.88780262777E+00  0.88000000000E+00 0. -1.
        -11    1    4    4    0    0 -0.35960742244E-01 -0.31872329152E-01 -0.23295005494E-01  0.53403546233E-01  0.51100000000E-03 0.  1.
         11    1    4    4    0    0 -0.41178775063E-01 -0.33664719329E-01 -0.58441300319E-01  0.79023107679E-01  0.51100000000E-03 0. -1.
</event>
<event>
 8    1  0.1123470E+005  0.1043930E+01  0.7957747E-01            NaN
         13   -1    0    0    0    0  0.00000000000E+00  0.00000000000E+00  0.74505805969E-08  0.10566000000E+00  0.10566000000E+00 0.  1.
     999900   -1    0    0    0    0 -0.00000000000E+00 -0.00000000000E+00 -0.74505805969E-08  0.93827000000E+00  0.93827000000E+00 0.  1.
     999902    2    1    2    0    0  0.94915947744E-02 -0.87144156089E-03  0.21458370727E-01  0.10204499775E+01  0.10201798102E+01 0.  0.
     999903    2    3    3    0    0  0.29752292187E-01 -0.92465905436E-02 -0.12361111875E+00  0.12830324308E+00  0.14536683873E-01 0.  0.
         14    1    1    2    0    0 -0.94915947744E-02  0.87144156089E-03 -0.21458370727E-01  0.23480022488E-01  0.00000000000E+00 0. -1.
     999901    1    3    3    0    0 -0.20260697413E-01  0.83751489827E-02  0.14506948948E+00  0.89214673443E+00  0.88000000000E+00 0. -1.
        -11    1    4    4    0    0  0.17948482621E-01 -0.99568543254E-03 -0.89230457356E-01  0.91024584914E-01  0.51100000000E-03 0.  1.
         11    1    4    4    0    0  0.11803809567E-01 -0.82509051110E-02 -0.34380661399E-01  0.37278658166E-01  0.51100000000E-03 0. -1.
</event>
<event>
 8    1  0.1151360E+005  0.1043930E+01  0.7957747E-01            NaN
         13   -1    0    0    0    0  0.00000000000E+00  0.00000000000E+00  0.74505805969E-08  0.10566000000E+00  0.10566000000E+00 0. -1.
     999900   -1    0    0    0    0 -0.00000000000E+00 -0.00000000000E+00 -0.74505805969E-08  0.93827000000E+00  0.93827000000E+00 0.  1.
     999902    2    1    2    0    0 -0.11249812995E-01  0.30840131996E-02  0.23665411743E-01  0.10175458922E+01  0.10172037759E+01 0.  0.
     999903    2    3    3    0    0 -0.65131282696E-01  0.60395449872E-01  0.95137821967E-01  0.13115087929E+00  0.16113771061E-01 0.  0.
         14    1    1    2    0    0  0.11249812995E-01 -0.30840131996E-02 -0.23665411743E-01  0.26384107770E-01  0.00000000000E+00 0.  1.
     999901    1    3    3    0    0  0.53881469702E-01 -0.57311436672E-01 -0.71472410224E-01  0.88639501295E+00  0.88000000000E+00 0.  1.
        -11    1    4    4    0    0 -0.12668063671E-01  0.18757679626E-01  0.31231460341E-01  0.38574546247E-01  0.51100000000E-03 0. -1.
         11    1    4    4    0    0 -0.52463219026E-01  0.41637770246E-01  0.63906361626E-01  0.92576333038E-01  0.51100000000E-03 0.  1.
</event>
<event>
 8    1  0.1123470E+005  0.1043930E+01  0.7957747E-01            NaN
         13   -1    0    0    0    0  0.00000000000E+00  0.00000000000E+00  0.74505805969E-08  0.10566000000E+00  0.10566000000E+00 0. -1.
     999900   -1    0    0    0    0 -0.00000000000E+00 -0.00000000000E+00 -0.74505805969E-08  0.93827000000E+00  0.93827000000E+00 0. -1.
     999902    2    1    2    0    0  0.26780222609E-02  0.28226820337E-01  0.54504088781E-02  0.10150573114E+01  0.10146465953E+01 0.  0.
     999903    2    3    3    0    0 -0.86059854537E-01 -0.19181706157E-01  0.87168224550E-01  0.12556319644E+00  0.19838863763E-01 0.  0.
         14    1    1    2    0    0 -0.26780222609E-02 -0.28226820337E-01 -0.54504088781E-02  0.28872688591E-01  0.00000000000E+00 0. -1.
     999901    1    3    3    0    0  0.88737876797E-01  0.47408526494E-01 -0.81717815672E-01  0.88949411497E+00  0.88000000000E+00 0. -1.
        -11    1    4    4    0    0 -0.74257118991E-01 -0.13069298804E-01  0.64236991976E-01  0.99053412618E-01  0.51100000000E-03 0. -1.
         11    1    4    4    0    0 -0.11802735545E-01 -0.61124073528E-02  0.22931232574E-01  0.26509783824E-01  0.51100000000E-03 0.  1.
</event>
<event>
 8    1  0.1123470E+005  0.1043930E+01  0.7957747E-01            NaN
         13   -1    0    0    0    0  0.00000000000E+00  0.00000000000E+00  0.74505805969E-08  0.10566000000E+00  0.10566000000E+00 0. -1.
     999900   -1    0    0    0    0 -0.00000000000E+00 -0.00000000000E+00 -0.74505805969E-08  0.93827000000E+00  0.93827000000E+00 0. -1.
     999902    2    1    2    0    0 -0.17464395480E-01  0.32184764187E-02  0.15860377791E-01  0.10201200171E+01  0.10198421123E+01 0.  0.
     999903    2    3    3    0    0 -0.83623306869E-01 -0.49961730129E-01 -0.84221584107E-01  0.13038885830E+00  0.20468199965E-01 0.  0.
         14    1    1    2    0    0  0.17464395480E-01 -0.32184764187E-02 -0.15860377791E-01  0.23809982856E-01  0.00000000000E+00 0. -1.
     999901    1    3    3    0    0  0.66158911389E-01  0.53180206547E-01  0.10008196190E+00  0.88973115885E+00  0.88000000000E+00 0.  1.
        -11    1    4    4    0    0 -0.98534796634E-02 -0.11448872670E-01 -0.62700000226E-02  0.16362816634E-01  0.51100000000E-03 0.  1.
         11    1    4    4    0    0 -0.73769827205E-01 -0.38512857458E-01 -0.77951584084E-01  0.11402604166E+00  0.51100000000E-03 0. -1.
</event>
<event>
 8    1  0.1123470E+005  0.1043930E+01  0.7957747E-01            NaN
         13   -1    0    0    0    0  0.00000000000E+00  0.00000000000E+00  0.74505805969E-08  0.10566000000E+00  0.10566000000E+00 0. -1.
     999900   -1    0    0    0    0 -0.00000000000E+00 -0.00000000000E+00 -0.74505805969E-08  0.93827000000E+00  0.93827000000E+00 0.  1.
     999902    2    1    2    0    0 -0.43602172987E-02 -0.67026193525E-02 -0.22171172698E-01  0.10203610055E+01  0.10200887629E+01 0.  0.
     999903    2    3    3    0    0  0.10455833666E+00 -0.66659808951E-01 -0.38256221305E-01  0.13147583592E+00  0.21127732176E-01 0.  0.
         14    1    1    2    0    0  0.43602172987E-02  0.67026193525E-02  0.22171172698E-01  0.23568994461E-01  0.00000000000E+00 0. -1.
     999901    1    3    3    0    0 -0.10891855396E+00  0.59957189599E-01  0.16085048607E-01  0.88888516962E+00  0.88000000000E+00 0.  1.
        -11    1    4    4    0    0  0.56642527151E-01 -0.47353379253E-01 -0.26917314469E-01  0.78584485415E-01  0.51100000000E-03 0. -1.
         11    1    4    4    0    0  0.47915809512E-01 -0.19306429698E-01 -0.11338906836E-01  0.52891350504E-01  0.51100000000E-03 0.  1.
</event>
<event>
 8    1  0.1123470E+005  0.1043930E+01  0.7957747E-01            NaN
         13   -1    0    0    0    0  0.00000000000E+00  0.00000000000E+00  0.74505805969E-08  0.10566000000E+00  0.10566000000E+00 0. -1.
     999900   -1    0    0    0    0 -0.00000000000E+00 -0.00000000000E+00 -0.74505805969E-08  0.93827000000E+00  0.93827000000E+00 0.  1.
     999902    2    1    2    0    0  0.13916944530E-01 -0.16863345292E-01  0.88573074966E-02  0.10203396279E+01  0.10200668854E+01 0.  0.
     999903    2    3    3    0    0  0.14779212447E-01  0.11246201386E+00  0.59294710955E-01  0.12945819713E+00  0.19427618918E-01 0.  0.
         14    1    1    2    0    0 -0.13916944530E-01  0.16863345292E-01 -0.88573074966E-02  0.23590372095E-01  0.00000000000E+00 0.  1.
     999901    1    3    3    0    0 -0.86226791686E-03 -0.12932535915E+00 -0.50437403458E-01  0.89088143077E+00  0.88000000000E+00 0.  1.
        -11    1    4    4    0    0  0.58554828981E-02  0.88049291820E-01  0.39009523980E-01  0.96482996182E-01  0.51100000000E-03 0.  1.
         11    1    4    4    0    0  0.89237295485E-02  0.24412722037E-01  0.20285186974E-01  0.32975200953E-01  0.51100000000E-03 0. -1.
</event>
<event>
 8    1  0.1123470E+005  0.1043930E+01  0.7957747E-01            NaN
         13   -1    0    0    0    0  0.00000000000E+00  0.00000000000E+00  0.74505805969E-08  0.10566000000E+00  0.10566000000E+00 0. -1.
     999900   -1    0    0    0    0 -0.00000000000E+00 -0.00000000000E+00 -0.74505805969E-08  0.93827000000E+00  0.93827000000E+00 0. -1.
     999902    2    1    2    0    0 -0.63340420463E-02 -0.52271778438E-02 -0.22620658240E-01  0.10198647209E+01  0.10195807527E+01 0.  0.
     999903    2    3    3    0    0 -0.27225645363E-01 -0.39420561071E-01  0.11700056628E+00  0.12795680368E+00  0.19712805405E-01 0.  0.
         14    1    1    2    0    0  0.63340420463E-02  0.52271778438E-02  0.22620658240E-01  0.24065279056E-01  0.00000000000E+00 0. -1.
     999901    1    3    3    0    0  0.20891603317E-01  0.34193383228E-01 -0.13962122452E+00  0.89190791727E+00  0.88000000000E+00 0. -1.
        -11    1    4    4    0    0 -0.27393520884E-01 -0.39265473596E-01  0.99228710603E-01  0.11017613413E+00  0.51100000000E-03 0.  1.
         11    1    4    4    0    0  0.16787552131E-03 -0.15508747553E-03  0.17771855677E-01  0.17780669547E-01  0.51100000000E-03 0. -1.
</event>
<event>
 8    1  0.1123470E+005  0.1043930E+01  0.7957747E-01            NaN
         13   -1    0    0    0    0  0.00000000000E+00  0.00000000000E+00  0.74505805969E-08  0.10566000000E+00  0.10566000000E+00 0. -1.
     999900   -1    0    0    0    0 -0.00000000000E+00 -0.00000000000E+00 -0.74505805969E-08  0.93827000000E+00  0.93827000000E+00 0. -1.
     999902    2    1    2    0    0 -0.13023768516E-01  0.17123348832E-01 -0.98783512025E-02  0.10202570314E+01  0.10199823531E+01 0.  0.
     999903    2    3    3    0    0  0.56988726010E-01  0.11705071225E+00 -0.65739217856E-02  0.13183250075E+00  0.19697910419E-01 0.  0.
         14    1    1    2    0    0  0.13023768516E-01 -0.17123348832E-01  0.98783512025E-02  0.23672968637E-01  0.00000000000E+00 0. -1.
     999901    1    3    3    0    0 -0.70012494526E-01 -0.99927363417E-01 -0.33044294169E-02  0.88842453062E+00  0.88000000000E+00 0. -1.
        -11    1    4    4    0    0  0.33020327567E-01  0.57015782827E-01  0.53161006257E-02  0.66103430855E-01  0.51100000000E-03 0.  1.
         11    1    4    4    0    0  0.23968398443E-01  0.60034929423E-01 -0.11890022411E-01  0.65729069890E-01  0.51100000000E-03 0. -1.
</event>
<event>
 8    1  0.1123470E+005  0.1043930E+01  0.7957747E-01            NaN
         13   -1    0    0    0    0  0.00000000000E+00  0.00000000000E+00  0.74505805969E-08  0.10566000000E+00  0.10566000000E+00 0.  1.
     999900   -1    0    0    0    0 -0.00000000000E+00 -0.00000000000E+00 -0.74505805969E-08  0.93827000000E+00  0.93827000000E+00 0.  1.
     999902    2    1    2    0    0  0.10659409468E-01 -0.65701932698E-02 -0.26212073813E-01  0.10148806753E+01  0.10144648451E+01 0.  0.
     999903    2    3    3    0    0  0.77264363927E-01  0.37942663812E-02 -0.10135082350E+00  0.12911012170E+00  0.20328691840E-01 0.  0.
         14    1    1    2    0    0 -0.10659409468E-01  0.65701932698E-02  0.26212073813E-01  0.29049324663E-01  0.00000000000E+00 0.  1.
     999901    1    3    3    0    0 -0.66604954458E-01 -0.10364459651E-01  0.75138749684E-01  0.88577055363E+00  0.88000000000E+00 0.  1.
        -11    1    4    4    0    0  0.39991935221E-01 -0.41658050321E-02 -0.65039149169E-01  0.76466076530E-01  0.51100000000E-03 0.  1.
         11    1    4    4    0    0  0.37272428705E-01  0.79600714134E-02 -0.36311674329E-01  0.52644045172E-01  0.51100000000E-03 0. -1.
</event>
<event>
 8    1  0.1123470E+005  0.1043930E+01  0.7957747E-01            NaN
         13   -1    0    0    0    0  0.00000000000E+00  0.00000000000E+00  0.74505805969E-08  0.10566000000E+00  0.10566000000E+00 0.  1.
     999900   -1    0    0    0    0 -0.00000000000E+00 -0.00000000000E+00 -0.74505805969E-08  0.93827000000E+00  0.93827000000E+00 0. -1.
     999902    2    1    2    0    0  0.41889668227E-02 -0.21067040528E-01 -0.11842852313E-01  0.10194020406E+01  0.10191069128E+01 0.  0.
     999903    2    3    3    0    0 -0.11496451882E+00 -0.46166845902E-02 -0.57457187039E-01  0.13004899775E+00  0.19319914860E-01 0.  0.
         14    1    1    2    0    0 -0.41889668227E-02  0.21067040528E-01  0.11842852313E-01  0.24527959364E-01  0.00000000000E+00 0.  1.
     999901    1    3    3    0    0  0.11915348564E+00 -0.16450355938E-01  0.45614334726E-01  0.88935304288E+00  0.88000000000E+00 0. -1.
        -11    1    4    4    0    0 -0.38870285236E-01  0.67787429581E-02 -0.23653501377E-01  0.46006517786E-01  0.51100000000E-03 0.  1.
         11    1    4    4    0    0 -0.76094233584E-01 -0.11395427548E-01 -0.33803685662E-01  0.84042479968E-01  0.51100000000E-03 0. -1.
</event>
<event>
 8    1  0.1123470E+005  0.1043930E+01  0.7957747E-01            NaN
         13   -1    0    0    0    0  0.00000000000E+00  0.00000000000E+00  0.74505805969E-08  0.10566000000E+00  0.10566000000E+00 0.  1.
     999900   -1    0    0    0    0 -0.00000000000E+00 -0.00000000000E+00 -0.74505805969E-08  0.93827000000E+00  0.93827000000E+00 0. -1.
     999902    2    1    2    0    0  0.21674440969E-01  0.10376272204E-01  0.70498848876E-02  0.10188870510E+01  0.10185792426E+01 0.  0.
     999903    2    3    3    0    0 -0.54467313575E-01 -0.69397504312E-01  0.90975578249E-01  0.12804197796E+00  0.18316397841E-01 0.  0.
         14    1    1    2    0    0 -0.21674440969E-01 -0.10376272204E-01 -0.70498848876E-02  0.25042948970E-01  0.00000000000E+00 0. -1.
     999901    1    3    3    0    0  0.76141754544E-01  0.79773776516E-01 -0.83925693361E-01  0.89084507307E+00  0.88000000000E+00 0.  1.
        -11    1    4    4    0    0 -0.32507716176E-01 -0.29746341666E-01  0.52851806108E-01  0.68812578671E-01  0.51100000000E-03 0. -1.
         11    1    4    4    0    0 -0.21959597399E-01 -0.39651162646E-01  0.38123772141E-01  0.59229399291E-01  0.51100000000E-03 0.  1.
</event>
<event>
 8    1  0.1123470E+005  0.1043930E+01  0.7957747E-01            NaN
         13   -1    0    0    0    0  0.00000000000E+00  0.00000000000E+00  0.74505805969E-08  0.10566000000E+00  0.10566000000E+00 0. -1.
     999900   -1    0    0    0    0 -0.00000000000E+00 -0.00000000000E+00 -0.74505805969E-08  0.93827000000E+00  0.93827000000E+00 0. -1.
     999902    2    1    2    0    0 -0.17662729252E-01 -0.10913461876E-01  0.11253261449E-01  0.10203140827E+01  0.10200407423E+01 0.  0.
     999903    2    3    3    0    0 -0.89148046662E-01  0.85961012271E-01  0.40159447440E-01  0.13164632596E+00  0.19527008648E-01 0.  0.
         14    1    1    2    0    0  0.17662729252E-01  0.10913461876E-01 -0.11253261449E-01  0.23615917259E-01  0.00000000000E+00 0.  1.
     999901    1    3    3    0    0  0.71485317410E-01 -0.96874474147E-01 -0.28906185991E-01  0.88866775678E+00  0.88000000000E+00 0. -1.
        -11    1    4    4    0    0 -0.53627620101E-01  0.63350316548E-01  0.22616511582E-01  0.86028785657E-01  0.51100000000E-03 0.  1.
         11    1    4    4    0    0 -0.35520426561E-01  0.22610695724E-01  0.17542935858E-01  0.45617540307E-01  0.51100000000E-03 0. -1.
</event>
<event>
 8    1  0.1123470E+005  0.1043930E+01  0.7957747E-01            NaN
         13   -1    0    0    0    0  0.00000000000E+00  0.00000000000E+00  0.74505805969E-08  0.10566000000E+00  0.10566000000E+00 0.  1.
     999900   -1    0    0    0    0 -0.00000000000E+00 -0.00000000000E+00 -0.74505805969E-08  0.93827000000E+00  0.93827000000E+00 0. -1.
     999902    2    1    2    0    0 -0.49270773165E-02 -0.21967097091E-01  0.18911608979E-02  0.10213378347E+01  0.10210879328E+01 0.  0.
     999903    2    3    3    0    0  0.52757367939E-01  0.22500045260E-01  0.11609920166E+00  0.13097369648E+00  0.19633966385E-01 0.  0.
         14    1    1    2    0    0  0.49270773165E-02  0.21967097091E-01 -0.18911608979E-02  0.22592165346E-01  0.00000000000E+00 0. -1.
     999901    1    3    3    0    0 -0.57684445255E-01 -0.44467142351E-01 -0.11420804076E+00  0.89036413817E+00  0.88000000000E+00 0. -1.
        -11    1    4    4    0    0  0.24298277317E-01 -0.52671507022E-04  0.47228179899E-01  0.53114698083E-01  0.51100000000E-03 0. -1.
         11    1    4    4    0    0  0.28459090622E-01  0.22552716767E-01  0.68871021756E-01  0.77858998397E-01  0.51100000000E-03 0.  1.
</event>
<event>
 8    1  0.1123470E+005  0.1043930E+01  0.7957747E-01            NaN
         13   -1    0    0    0    0  0.00000000000E+00  0.00000000000E+00  0.74505805969E-08  0.10566000000E+00  0.10566000000E+00 0. -1.
     999900   -1    0    0    0    0 -0.00000000000E+00 -0.00000000000E+00 -0.74505805969E-08  0.93827000000E+00  0.93827000000E+00 0.  1.
     999902    2    1    2    0    0 -0.11921657870E-01 -0.17835147796E-01 -0.11523830664E-01  0.10195780576E+01  0.10192872012E+01 0.  0.
     999903    2    3    3    0    0 -0.14948152389E-01 -0.12878645011E+00 -0.19409164509E-01  0.13257099474E+00  0.19721967168E-01 0.  0.
         14    1    1    2    0    0  0.11921657870E-01  0.17835147796E-01  0.11523830664E-01  0.24351942354E-01  0.00000000000E+00 0.  1.
     999901    1    3    3    0    0  0.30264945190E-02  0.11095130231E+00  0.78853338455E-02  0.88700706290E+00  0.88000000000E+00 0.  1.
        -11    1    4    4    0    0 -0.13843622286E-01 -0.95615485715E-01 -0.22608608273E-01  0.99223874524E-01  0.51100000000E-03 0.  1.
         11    1    4    4    0    0 -0.11045301020E-02 -0.33170964390E-01  0.31994437637E-02  0.33347120217E-01  0.51100000000E-03 0. -1.
</event>
<event>
 8    1  0.1123470E+005  0.1043930E+01  0.7957747E-01            NaN
         13   -1    0    0    0    0  0.00000000000E+00  0.00000000000E+00  0.74505805969E-08  0.10566000000E+00  0.10566000000E+00 0.  1.
     999900   -1    0    0    0    0 -0.00000000000E+00 -0.00000000000E+00 -0.74505805969E-08  0.93827000000E+00  0.93827000000E+00 0. -1.
     999902    2    1    2    0    0 -0.95325109479E-02  0.29061075877E-02 -0.20229326754E-01  0.10213791710E+01  0.10211301930E+01 0.  0.
     999903    2    3    3    0    0  0.39034490075E-01 -0.10715196038E+00 -0.62537475039E-01  0.13218767797E+00  0.23609582716E-01 0.  0.
         14    1    1    2    0    0  0.95325109479E-02 -0.29061075877E-02  0.20229326754E-01  0.22550828969E-01  0.00000000000E+00 0.  1.
     999901    1    3    3    0    0 -0.48567001023E-01  0.11005806796E+00  0.42308148286E-01  0.88919149306E+00  0.88000000000E+00 0. -1.
        -11    1    4    4    0    0  0.23973941661E-01 -0.48739755141E-01 -0.18073888078E-01  0.57247184745E-01  0.51100000000E-03 0.  1.
         11    1    4    4    0    0  0.15060548414E-01 -0.58412205236E-01 -0.44463586961E-01  0.74940493230E-01  0.51100000000E-03 0. -1.
</event>
<event>
 8    1  0.1123470E+005  0.1043930E+01  0.7957747E-01            NaN
         13   -1    0    0    0    0  0.00000000000E+00  0.00000000000E+00  0.74505805969E-08  0.10566000000E+00  0.10566000000E+00 0. -1.
     999900   -1    0    0    0    0 -0.00000000000E+00 -0.00000000000E+00 -0.74505805969E-08  0.93827000000E+00  0.93827000000E+00 0. -1.
     999902    2    1    2    0    0 -0.19690801855E-01  0.48986080696E-02  0.12791678137E-01  0.10199435232E+01  0.10196614338E+01 0.  0.
     999903    2    3    3    0    0 -0.50918596088E-01 -0.43304413033E-01 -0.10898405187E+00  0.12970308671E+00  0.21849291163E-01 0.  0.
         14    1    1    2    0    0  0.19690801855E-01 -0.48986080696E-02 -0.12791678137E-01  0.23986476779E-01  0.00000000000E+00 0. -1.
     999901    1    3    3    0    0  0.31227794234E-01  0.48203021102E-01  0.12177573001E+00  0.89024043651E+00  0.88000000000E+00 0.  1.
        -11    1    4    4    0    0 -0.43627627282E-01 -0.24879321015E-01 -0.72783897755E-01  0.88431370960E-01  0.51100000000E-03 0.  1.
         11    1    4    4    0    0 -0.72909688066E-02 -0.18425092018E-01 -0.36200154118E-01  0.41271715752E-01  0.51100000000E-03 0. -1.
</event>
<event>
 8    1  0.1123470E+005  0.1043930E+01  0.7957747E-01            NaN
         13   -1    0    0    0    0  0.00000000000E+00  0.00000000000E+00  0.74505805969E-08  0.10566000000E+00  0.10566000000E+00 0. -1.
     999900   -1    0    0    0    0 -0.00000000000E+00 -0.00000000000E+00 -0.74505805969E-08  0.93827000000E+00  0.93827000000E+00 0.  1.
     999902    2    1    2    0    0 -0.56473842442E-02  0.19351313560E-01 -0.14945987493E-01  0.10188352032E+01  0.10185261030E+01 0.  0.
     999903    2    3    3    0    0  0.28719571190E-01  0.26467474013E-01 -0.12388243869E+00  0.13142386802E+00  0.20000837982E-01 0.  0.
         14    1    1    2    0    0  0.56473842442E-02 -0.19351313560E-01  0.14945987493E-01  0.25094796820E-01  0.00000000000E+00 0. -1.
     999901    1    3    3    0    0 -0.34366955434E-01 -0.71161604529E-02  0.10893645120E+00  0.88741133516E+00  0.88000000000E+00 0. -1.
        -11    1    4    4    0    0  0.16278312286E-01  0.85979291296E-02 -0.83865312931E-01  0.85863610862E-01  0.51100000000E-03 0. -1.
         11    1    4    4    0    0  0.12441258904E-01  0.17869544883E-01 -0.40017125760E-01  0.45560257161E-01  0.51100000000E-03 0.  1.
</event>
<event>
 8    1  0.1123470E+005  0.1043930E+01  0.7957747E-01            NaN
         13   -1    0    0    0    0  0.00000000000E+00  0.00000000000E+00  0.74505805969E-08  0.10566000000E+00  0.10566000000E+00 0.  1.
     999900   -1    0    0    0    0 -0.00000000000E+00 -0.00000000000E+00 -0.74505805969E-08  0.93827000000E+00  0.93827000000E+00 0.  1.
     999902    2    1    2    0    0 -0.89252099626E-03 -0.20899951948E-01  0.11173087079E-01  0.10202141306E+01  0.10199384442E+01 0.  0.
     999903    2    3    3    0    0 -0.88616957225E-01  0.59385942980E-02  0.94899531596E-01  0.13149257593E+00  0.19903377029E-01 0.  0.
         14    1    1    2    0    0  0.89252099626E-03  0.20899951948E-01 -0.11173087079E-01  0.23715869371E-01  0.00000000000E+00 0. -1.
     999901    1    3    3    0    0  0.87724436229E-01 -0.26838546246E-01 -0.83726444517E-01  0.88872155470E+00  0.88000000000E+00 0.  1.
        -11    1    4    4    0    0 -0.68001197203E-01  0.74598382043E-02  0.60341370940E-01  0.91220360529E-01  0.51100000000E-03 0. -1.
         11    1    4    4    0    0 -0.20615760023E-01 -0.15212439063E-02  0.34558160656E-01  0.40272215400E-01  0.51100000000E-03 0.  1.
</event>
<event>
 8    1  0.1123470E+005  0.1043930E+01  0.7957747E-01            NaN
         13   -1    0    0    0    0  0.00000000000E+00  0.00000000000E+00  0.74505805969E-08  0.10566000000E+00  0.10566000000E+00 0. -1.
     999900   -1    0    0    0    0 -0.00000000000E+00 -0.00000000000E+00 -0.74505805969E-08  0.93827000000E+00  0.93827000000E+00 0. -1.
     999902    2    1    2    0    0 -0.59333301942E-03 -0.85641332886E-02  0.26392987590E-01  0.10161759694E+01  0.10157968864E+01 0.  0.
     999903    2    3    3    0    0  0.49628419205E-01  0.10850183182E+00 -0.31929817132E-01  0.12509336144E+00  0.19829481912E-01 0.  0.
         14    1    1    2    0    0  0.59333301942E-03  0.85641332886E-02 -0.26392987590E-01  0.27754030644E-01  0.00000000000E+00 0.  1.
     999901    1    3    3    0    0 -0.50221752225E-01 -0.11706596511E+00  0.58322804722E-01  0.89108260792E+00  0.88000000000E+00 0.  1.
        -11    1    4    4    0    0  0.22489094839E-01  0.32493796470E-01 -0.16966535861E-01  0.43008495159E-01  0.51100000000E-03 0. -1.
         11    1    4    4    0    0  0.27139324367E-01  0.76008035349E-01 -0.14963281271E-01  0.82084866279E-01  0.51100000000E-03 0.  1.
</event>
<event>
 8    1  0.1123470E+005  0.1043930E+01  0.7957747E-01            NaN
         13   -1    0    0    0    0  0.00000000000E+00  0.00000000000E+00  0.74505805969E-08  0.10566000000E+00  0.10566000000E+00 0.  1.
     999900   -1    0    0    0    0 -0.00000000000E+00 -0.00000000000E+00 -0.74505805969E-08  0.93827000000E+00  0.93827000000E+00 0. -1.
     999902    2    1    2    0    0  0.48447649304E-02 -0.23342684933E-01 -0.12249990932E-01  0.10171267359E+01  0.10167735156E+01 0.  0.
     999903    2    3    3    0    0  0.80916049821E-01 -0.27663608732E-01  0.92664199387E-01  0.12762547224E+00  0.19721180246E-01 0.  0.
         14    1    1    2    0    0 -0.48447649304E-02  0.23342684933E-01  0.12249990932E-01  0.26803264073E-01  0.00000000000E+00 0. -1.
     999901    1    3    3    0    0 -0.76071284891E-01  0.43209237992E-02 -0.10491419032E+00  0.88950126369E+00  0.88000000000E+00 0. -1.
        -11    1    4    4    0    0  0.27008506218E-01 -0.18503603154E-01  0.29414278261E-01  0.44014811421E-01  0.51100000000E-03 0.  1.
         11    1    4    4    0    0  0.53907543603E-01 -0.91600055778E-02  0.63249921126E-01  0.83610660821E-01  0.51100000000E-03 0. -1.
</event>
<event>
 8    1  0.1123470E+005  0.1043930E+01  0.7957747E-01            NaN
         13   -1    0    0    0    0  0.00000000000E+00  0.00000000000E+00  0.74505805969E-08  0.10566000000E+00  0.10566000000E+00 0. -1.
     999900   -1    0    0    0    0 -0.00000000000E+00 -0.00000000000E+00 -0.74505805969E-08  0.93827000000E+00  0.93827000000E+00 0. -1.
     999902    2    1    2    0    0 -0.12554544481E-01  0.64602383034E-02  0.18096444760E-01  0.10209771662E+01  0.10207191295E+01 0.  0.
     999903    2    3    3    0    0 -0.51005657562E-01  0.93679965867E-01 -0.73971758596E-01  0.13105451618E+00  0.18054141694E-01 0.  0.
         14    1    1    2    0    0  0.12554544481E-01 -0.64602383034E-02 -0.18096444760E-01  0.22952833791E-01  0.00000000000E+00 0.  1.
     999901    1    3    3    0    0  0.38451113080E-01 -0.87219727563E-01  0.92068203356E-01  0.88992265003E+00  0.88000000000E+00 0. -1.
        -11    1    4    4    0    0 -0.22302405281E-01  0.38128539273E-01 -0.20162869630E-01  0.48559089995E-01  0.51100000000E-03 0. -1.
         11    1    4    4    0    0 -0.28703252281E-01  0.55551426593E-01 -0.53808888966E-01  0.82495426181E-01  0.51100000000E-03 0.  1.
</event>
<event>
 8    1  0.1123470E+005  0.1043930E+01  0.7957747E-01            NaN
         13   -1    0    0    0    0  0.00000000000E+00  0.00000000000E+00  0.74505805969E-08  0.10566000000E+00  0.10566000000E+00 0. -1.
     999900   -1    0    0    0    0 -0.00000000000E+00 -0.00000000000E+00 -0.74505805969E-08  0.93827000000E+00  0.93827000000E+00 0.  1.
     999902    2    1    2    0    0 -0.61325893131E-02 -0.23757191349E-01  0.60845634406E-02  0.10186508642E+01  0.10183371487E+01 0.  0.
     999903    2    3    3    0    0  0.62781583331E-01 -0.10576575520E+00  0.41954987241E-01  0.13142977847E+00  0.19637808828E-01 0.  0.
         14    1    1    2    0    0  0.61325893131E-02  0.23757191349E-01 -0.60845634406E-02  0.25279135759E-01  0.00000000000E+00 0.  1.
     999901    1    3    3    0    0 -0.68914172644E-01  0.82008563849E-01 -0.35870423801E-01  0.88722108577E+00  0.88000000000E+00 0.  1.
        -11    1    4    4    0    0  0.16337177094E-01 -0.14438150634E-01  0.40421465608E-02  0.22180252906E-01  0.51100000000E-03 0.  1.
         11    1    4    4    0    0  0.46444406236E-01 -0.91327604564E-01  0.37912840681E-01  0.10924952556E+00  0.51100000000E-03 0. -1.
</event>
<event>
 8    1  0.1123470E+005  0.1043930E+01  0.7957747E-01            NaN
         13   -1    0    0    0    0  0.00000000000E+00  0.00000000000E+00  0.74505805969E-08  0.10566000000E+00  0.10566000000E+00 0. -1.
     999900   -1    0    0    0    0 -0.00000000000E+00 -0.00000000000E+00 -0.74505805969E-08  0.93827000000E+00  0.93827000000E+00 0.  1.
     999902    2    1    2    0    0  0.97484121303E-02  0.13158361841E-01  0.20887380875E-01  0.10173883967E+01  0.10170421294E+01 0.  0.
     999903    2    3    3    0    0 -0.91854045843E-01 -0.34572019236E-01  0.80133291781E-01  0.12828135776E+00  0.20059213500E-01 0.  0.
         14    1    1    2    0    0 -0.97484121303E-02 -0.13158361841E-01 -0.20887380875E-01  0.26541603290E-01  0.00000000000E+00 0. -1.
     999901    1    3    3    0    0  0.10160245797E+00  0.47730381077E-01 -0.59245910907E-01  0.88910703895E+00  0.88000000000E+00 0.  1.
        -11    1    4    4    0    0 -0.35455796574E-01 -0.22577327891E-01  0.40007499223E-01  0.58031977052E-01  0.51100000000E-03 0.  1.
         11    1    4    4    0    0 -0.56398249269E-01 -0.11994691345E-01  0.40125792558E-01  0.70249380712E-01  0.51100000000E-03 0. -1.
</event>
<event>
 8    1  0.1123470E+005  0.1043930E+01  0.7957747E-01            NaN
         13   -1    0    0    0    0  0.00000000000E+00  0.00000000000E+00  0.74505805969E-08  0.10566000000E+00  0.10566000000E+00 0.  1.
     999900   -1    0    0    0    0 -0.00000000000E+00 -0.00000000000E+00 -0.74505805969E-08  0.93827000000E+00  0.93827000000E+00 0. -1.
     999902    2    1    2    0    0 -0.56632056734E-02  0.22245524674E-01 -0.70111040903E-02  0.10199281074E+01  0.10196456509E+01 0.  0.
     999903    2    3    3    0    0  0.12498351970E+00 -0.81567384791E-02 -0.26193308438E-01  0.12955693684E+00  0.20285410924E-01 0.  0.
         14    1    1    2    0    0  0.56632056734E-02 -0.22245524674E-01  0.70111040903E-02  0.24001892573E-01  0.00000000000E+00 0.  1.
     999901    1    3    3    0    0 -0.13064672537E+00  0.30402263153E-01  0.19182204348E-01  0.89037117059E+00  0.88000000000E+00 0. -1.
        -11    1    4    4    0    0  0.31073542216E-01 -0.80963738549E-02 -0.20401417868E-03  0.32115713261E-01  0.51100000000E-03 0. -1.
         11    1    4    4    0    0  0.93909977483E-01 -0.60364624255E-04 -0.25989294259E-01  0.97441223576E-01  0.51100000000E-03 0.  1.
</event>
<event>
 8    1  0.1123470E+005  0.1043930E+01  0.7957747E-01            NaN
         13   -1    0    0    0    0  0.00000000000E+00  0.00000000000E+00  0.74505805969E-08  0.10566000000E+00  0.10566000000E+00 0.  1.
     999900   -1    0    0    0    0 -0.00000000000E+00 -0.00000000000E+00 -0.74505805969E-08  0.93827000000E+00  0.93827000000E+00 0. -1.
     999902    2    1    2    0    0  0.97441044957E-02 -0.16786971323E-02  0.21899021916E-01  0.10199022503E+01  0.10196191776E+01 0.  0.
     999903    2    3    3    0    0 -0.62359528655E-01 -0.10237368839E+00  0.48521704061E-01  0.13083128438E+00  0.19833968783E-01 0.  0.
         14    1    1    2    0    0 -0.97441044957E-02  0.16786971323E-02 -0.21899021916E-01  0.24027749735E-01  0.00000000000E+00 0. -1.
     999901    1    3    3    0    0  0.72103633151E-01  0.10069499126E+00 -0.26622682146E-01  0.88907096589E+00  0.88000000000E+00 0. -1.
        -11    1    4    4    0    0 -0.13150214294E-01 -0.15297595351E-01  0.12919706230E-02  0.20220654504E-01  0.51100000000E-03 0. -1.
         11    1    4    4    0    0 -0.49209314361E-01 -0.87076093042E-01  0.47229733438E-01  0.11061062987E+00  0.51100000000E-03 0.  1.
</event>
<event>
 8    1  0.1123470E+005  0.1043930E+01  0.7957747E-01            NaN
         13   -1    0    0    0    0  0.00000000000E+00  0.00000000000E+00  0.74505805969E-08  0.10566000000E+00  0.10566000000E+00 0.  1.
     999900   -1    0    0    0    0 -0.00000000000E+00 -0.00000000000E+00 -0.74505805969E-08  0.93827000000E+00  0.93827000000E+00 0. -1.
     999902    2    1    2    0    0 -0.55700210430E-02 -0.21671547037E-01 -0.10435862958E-01  0.10192401575E+01  0.10189410731E+01 0.  0.
     999903    2    3    3    0    0  0.11986920363E+00  0.59507523087E-02  0.40908808630E-01  0.12843475465E+00  0.20443046422E-01 0.  0.
         14    1    1    2    0    0  0.55700210430E-02  0.21671547037E-01  0.10435862958E-01  0.24689842468E-01  0.00000000000E+00 0.  1.
     999901    1    3    3    0    0 -0.12543922467E+00 -0.27622299346E-01 -0.51344671588E-01  0.89080540288E+00  0.88000000000E+00 0.  1.
        -11    1    4    4    0    0  0.50742579748E-01  0.12220266304E-01  0.14545890408E-01  0.54184761297E-01  0.51100000000E-03 0. -1.
         11    1    4    4    0    0  0.69126623878E-01 -0.62695139949E-02  0.26362918222E-01  0.74249993351E-01  0.51100000000E-03 0.  1.
</event>
<event>
 8    1  0.1123470E+005  0.1043930E+01  0.7957747E-01            NaN
         13   -1    0    0    0    0  0.00000000000E+00  0.00000000000E+00  0.74505805969E-08  0.10566000000E+00  0.10566000000E+00 0. -1.
     999900   -1    0    0    0    0 -0.00000000000E+00 -0.00000000000E+00 -0.74505805969E-08  0.93827000000E+00  0.93827000000E+00 0. -1.
     999902    2    1    2    0    0  0.20579202150E-01  0.11302076157E-01  0.30542658510E-02  0.10202536610E+01  0.10199789036E+01 0.  0.
     999903    2    3    3    0    0  0.53709749750E-01 -0.76930795554E-01 -0.88708664875E-01  0.13047666185E+00  0.18757599550E-01 0.  0.
         14    1    1    2    0    0 -0.20579202150E-01 -0.11302076157E-01 -0.30542658510E-02  0.23676338958E-01  0.00000000000E+00 0.  1.
     999901    1    3    3    0    0 -0.33130547601E-01  0.88232871711E-01  0.91762930726E-01  0.88977699919E+00  0.88000000000E+00 0.  1.
        -11    1    4    4    0    0  0.29121098933E-01 -0.25996349357E-01 -0.33612462217E-01  0.51516087975E-01  0.51100000000E-03 0. -1.
         11    1    4    4    0    0  0.24588650817E-01 -0.50934446197E-01 -0.55096202658E-01  0.78960573875E-01  0.51100000000E-03 0.  1.
</event>
<event>
 8    1  0.1123470E+005  0.1043930E+01  0.7957747E-01            NaN
         13   -1    0    0    0    0  0.00000000000E+00  0.00000000000E+00  0.74505805969E-08  0.10566000000E+00  0.10566000000E+00 0. -1.
     999900   -1    0    0    0    0 -0.00000000000E+00 -0.00000000000E+00 -0.74505805969E-08  0.93827000000E+00  0.93827000000E+00 0.  1.
     999902    2    1    2    0    0 -0.11815644037E-01  0.76450970193E-02 -0.11866285801E-01  0.10255216950E+01  0.10253564655E+01 0.  0.
     999903    2    3    3    0    0 -0.35970760015E-03  0.11442417352E+00 -0.72424118515E-01  0.13692715266E+00  0.20267494095E-01 0.  0.
         14    1    1    2    0    0  0.11815644037E-01 -0.76450970193E-02  0.11866285801E-01  0.18408304951E-01  0.00000000000E+00 0. -1.
     999901    1    3    3    0    0 -0.11455936437E-01 -0.10677907650E+00  0.60557832714E-01  0.88859454239E+00  0.88000000000E+00 0.  1.
        -11    1    4    4    0    0  0.50501169270E-02  0.75692238802E-01 -0.38109187443E-01  0.84896348475E-01  0.51100000000E-03 0. -1.
         11    1    4    4    0    0 -0.54098245271E-02  0.38731934722E-01 -0.34314931073E-01  0.52030804186E-01  0.51100000000E-03 0.  1.
</event>
<event>
 8    1  0.1123470E+005  0.1043930E+01  0.7957747E-01            NaN
         13   -1    0    0    0    0  0.00000000000E+00  0.00000000000E+00  0.74505805969E-08  0.10566000000E+00  0.10566000000E+00 0.  1.
     999900   -1    0    0    0    0 -0.00000000000E+00 -0.00000000000E+00 -0.74505805969E-08  0.93827000000E+00  0.93827000000E+00 0. -1.
     999902    2    1    2    0    0 -0.84899889102E-02  0.18055984864E-01  0.58858855864E-02  0.10231275446E+01  0.10229160427E+01 0.  0.
     999903    2    3    3    0    0  0.45312168908E-01  0.94880120461E-01  0.81864808819E-01  0.13488804044E+00  0.20916658920E-01 0.  0.
         14    1    1    2    0    0  0.84899889102E-02 -0.18055984864E-01 -0.58858855864E-02  0.20802455390E-01  0.00000000000E+00 0. -1.
     999901    1    3    3    0    0 -0.53802157819E-01 -0.76824135597E-01 -0.75978923233E-01  0.88823950417E+00  0.88000000000E+00 0.  1.
        -11    1    4    4    0    0  0.30966458309E-01  0.77334594147E-01  0.72219662682E-01  0.11025199223E+00  0.51100000000E-03 0.  1.
         11    1    4    4    0    0  0.14345710599E-01  0.17545526314E-01  0.96451461367E-02  0.24636048206E-01  0.51100000000E-03 0. -1.
</event>
<event>
 8    1  0.1123470E+005  0.1043930E+01  0.7957747E-01            NaN
         13   -1    0    0    0    0  0.00000000000E+00  0.00000000000E+00  0.74505805969E-08  0.10566000000E+00  0.10566000000E+00 0. -1.
     999900   -1    0    0    0    0 -0.00000000000E+00 -0.00000000000E+00 -0.74505805969E-08  0.93827000000E+00  0.93827000000E+00 0. -1.
     999902    2    1    2    0    0  0.12355271449E-01  0.20086916052E-02 -0.21569963495E-01  0.10189910566E+01  0.10186858311E+01 0.  0.
     999903    2    3    3    0    0  0.21732008843E-01  0.12327729141E+00  0.26147878582E-01  0.12934450374E+00  0.19409232536E-01 0.  0.
         14    1    1    2    0    0 -0.12355271449E-01 -0.20086916052E-02  0.21569963495E-01  0.24938943437E-01  0.00000000000E+00 0. -1.
     999901    1    3    3    0    0 -0.93767373936E-02 -0.12126859980E+00 -0.47717842077E-01  0.88964655283E+00  0.88000000000E+00 0. -1.
        -11    1    4    4    0    0  0.36065182247E-02  0.43120897852E-01  0.58362655916E-03  0.43278407390E-01  0.51100000000E-03 0. -1.
         11    1    4    4    0    0  0.18125490618E-01  0.80156393555E-01  0.25564252023E-01  0.86066096347E-01  0.51100000000E-03 0.  1.
</event>
<event>
 8    1  0.1123470E+005  0.1043930E+01  0.7957747E-01            NaN
         13   -1    0    0    0    0  0.00000000000E+00  0.00000000000E+00  0.74505805969E-08  0.10566000000E+00  0.10566000000E+00 0.  1.
     999900   -1    0    0    0    0 -0.00000000000E+00 -0.00000000000E+00 -0.74505805969E-08  0.93827000000E+00  0.93827000000E+00 0.  1.
     999902    2    1    2    0    0  0.78395017140E-02  0.22561370160E-01  0.14765165492E-02  0.10199998242E+01  0.10197190731E+01 0.  0.
     999903    2    3    3    0    0 -0.10587210855E+00  0.72660429511E-01  0.17064225581E-01  0.13113356730E+00  0.20405472138E-01 0.  0.
         14    1    1    2    0    0 -0.78395017140E-02 -0.22561370160E-01 -0.14765165492E-02  0.23930175757E-01  0.00000000000E+00 0. -1.
     999901    1    3    3    0    0  0.11371161026E+00 -0.50099059351E-01 -0.15587709031E-01  0.88886625694E+00  0.88000000000E+00 0. -1.
        -11    1    4    4    0    0 -0.79129886547E-01  0.46061232020E-01  0.18385415556E-01  0.93388760921E-01  0.51100000000E-03 0. -1.
         11    1    4    4    0    0 -0.26742222003E-01  0.26599197491E-01 -0.13211899756E-02  0.37744806381E-01  0.51100000000E-03 0.  1.
</event>
<event>
 8    1  0.1123470E+005  0.1043930E+01  0.7957747E-01            NaN
         13   -1    0    0    0    0  0.00000000000E+00  0.00000000000E+00  0.74505805969E-08  0.10566000000E+00  0.10566000000E+00 0.  1.
     999900   -1    0    0    0    0 -0.00000000000E+00 -0.00000000000E+00 -0.74505805969E-08  0.93827000000E+00  0.93827000000E+00 0. -1.
     999902    2    1    2    0    0 -0.99272020506E-02  0.39823198196E-02 -0.20105084624E-01  0.10211567122E+01  0.10209027418E+01 0.  0.
     999903    2    3    3    0    0 -0.60895413967E-01  0.81692986451E-01  0.79269489883E-01  0.13070064227E+00  0.20420832145E-01 0.  0.
         14    1    1    2    0    0  0.99272020506E-02 -0.39823198196E-02  0.20105084624E-01  0.22773287849E-01  0.00000000000E+00 0.  1.
     999901    1    3    3    0    0  0.50968211917E-01 -0.77710666631E-01 -0.99374574506E-01  0.89045606988E+00  0.88000000000E+00 0. -1.
        -11    1    4    4    0    0 -0.16690298976E-01  0.12253241673E-01  0.94703258854E-02  0.22774024783E-01  0.51100000000E-03 0. -1.
         11    1    4    4    0    0 -0.44205114991E-01  0.69439744777E-01  0.69799163997E-01  0.10792661749E+00  0.51100000000E-03 0.  1.
</event>
<event>
 8    1  0.1123470E+005  0.1043930E+01  0.7957747E-01            NaN
         13   -1    0    0    0    0  0.00000000000E+00  0.00000000000E+00  0.74505805969E-08  0.10566000000E+00  0.10566000000E+00 0. -1.
     999900   -1    0    0    0    0 -0.00000000000E+00 -0.00000000000E+00 -0.74505805969E-08  0.93827000000E+00  0.93827000000E+00 0.  1.
     999902    2    1    2    0    0 -0.47252080578E-02  0.13564652927E-01  0.18422154141E-01  0.10205697097E+01  0.10203023224E+01 0.  0.
     999903    2    3    3    0    0 -0.62168768552E-01  0.91388335824E-01  0.72659267969E-01  0.13360975976E+00  0.18852452717E-01 0.  0.
         14    1    1    2    0    0  0.47252080578E-02 -0.13564652927E-01 -0.18422154141E-01  0.23360290311E-01  0.00000000000E+00 0.  1.
     999901    1    3    3    0    0  0.57443560494E-01 -0.77823682897E-01 -0.54237113828E-01  0.88695994993E+00  0.88000000000E+00 0. -1.
        -11    1    4    4    0    0 -0.26945192834E-01  0.41173520385E-01  0.43555192769E-01  0.65716193863E-01  0.51100000000E-03 0. -1.
         11    1    4    4    0    0 -0.35223575718E-01  0.50214815439E-01  0.29104075200E-01  0.67893565897E-01  0.51100000000E-03 0.  1.
</event>
<event>
 8    1  0.1123470E+005  0.1043930E+01  0.7957747E-01            NaN
         13   -1    0    0    0    0  0.00000000000E+00  0.00000000000E+00  0.74505805969E-08  0.10566000000E+00  0.10566000000E+00 0.  1.
     999900   -1    0    0    0    0 -0.00000000000E+00 -0.00000000000E+00 -0.74505805969E-08  0.93827000000E+00  0.93827000000E+00 0.  1.
     999902    2    1    2    0    0  0.19699359075E-02  0.99404027459E-02 -0.22649228720E-01  0.10191171038E+01  0.10188149938E+01 0.  0.
     999903    2    3    3    0    0  0.10835066495E+00 -0.21407028592E-01 -0.67551903913E-01  0.13102039109E+00  0.20123510879E-01 0.  0.
         14    1    1    2    0    0 -0.19699359075E-02 -0.99404027459E-02  0.22649228720E-01  0.24812896160E-01  0.00000000000E+00 0.  1.
     999901    1    3    3    0    0 -0.10638072904E+00  0.31347431338E-01  0.44902675193E-01  0.88809671275E+00  0.88000000000E+00 0. -1.
        -11    1    4    4    0    0  0.57690051849E-01 -0.19374993729E-02 -0.39292394419E-01  0.69828714483E-01  0.51100000000E-03 0. -1.
         11    1    4    4    0    0  0.50660613101E-01 -0.19469529219E-01 -0.28259509494E-01  0.61191676604E-01  0.51100000000E-03 0.  1.
</event>
<event>
 8    1  0.1123470E+005  0.1043930E+01  0.7957747E-01            NaN
         13   -1    0    0    0    0  0.00000000000E+00  0.00000000000E+00  0.74505805969E-08  0.10566000000E+00  0.10566000000E+00 0. -1.
     999900   -1    0    0    0    0 -0.00000000000E+00 -0.00000000000E+00 -0.74505805969E-08  0.93827000000E+00  0.93827000000E+00 0.  1.
     999902    2    1    2    0    0  0.15930082955E-01 -0.17443034402E-01 -0.64085990647E-02  0.10194535392E+01  0.10191596643E+01 0.  0.
     999903    2    3    3    0    0 -0.16293581968E-02  0.12563956640E+00  0.91895506957E-02  0.12758792885E+00  0.20156296624E-01 0.  0.
         14    1    1    2    0    0 -0.15930082955E-01  0.17443034402E-01  0.64085990647E-02  0.24476460816E-01  0.00000000000E+00 0.  1.
     999901    1    3    3    0    0  0.17559441151E-01 -0.14308260080E+00 -0.15598149760E-01  0.89186561034E+00  0.88000000000E+00 0. -1.
        -11    1    4    4    0    0 -0.15534226359E-02  0.50691257595E-01 -0.61346476259E-02  0.51087295299E-01  0.51100000000E-03 0.  1.
         11    1    4    4    0    0 -0.75935560889E-04  0.74948308800E-01  0.15324198322E-01  0.76500633549E-01  0.51100000000E-03 0. -1.
</event>
<event>
 8    1  0.1123470E+005  0.1043930E+01  0.7957747E-01            NaN
         13   -1    0    0    0    0  0.00000000000E+00  0.00000000000E+00  0.74505805969E-08  0.10566000000E+00  0.10566000000E+00 0. -1.
     999900   -1    0    0    0    0 -0.00000000000E+00 -0.00000000000E+00 -0.74505805969E-08  0.93827000000E+00  0.93827000000E+00 0.  1.
     999902    2    1    2    0    0 -0.13084937188E-01  0.80468466356E-03 -0.30541669022E-01  0.10106936247E+01  0.10101469924E+01 0.  0.
     999903    2    3    3    0    0 -0.90010151483E-01 -0.13934200311E-01 -0.82767777574E-01  0.12567255727E+00  0.25438107979E-01 0.  0.
         14    1    1    2    0    0  0.13084937188E-01 -0.80468466356E-03  0.30541669022E-01  0.33236375333E-01  0.00000000000E+00 0. -1.
     999901    1    3    3    0    0  0.76925214295E-01  0.14738884974E-01  0.52226108552E-01  0.88502106740E+00  0.88000000000E+00 0. -1.
        -11    1    4    4    0    0 -0.27788929922E-01 -0.14795083806E-01 -0.36012291444E-01  0.47835816991E-01  0.51100000000E-03 0.  1.
         11    1    4    4    0    0 -0.62221221560E-01  0.86088349543E-03 -0.46755486130E-01  0.77836740278E-01  0.51100000000E-03 0. -1.
</event>
<event>
 8    1  0.1123470E+005  0.1043930E+01  0.7957747E-01            NaN
         13   -1    0    0    0    0  0.00000000000E+00  0.00000000000E+00  0.74505805969E-08  0.10566000000E+00  0.10566000000E+00 0. -1.
     999900   -1    0    0    0    0 -0.00000000000E+00 -0.00000000000E+00 -0.74505805969E-08  0.93827000000E+00  0.93827000000E+00 0. -1.
     999902    2    1    2    0    0 -0.10334918373E-01 -0.21030472464E-01 -0.10830977494E-01  0.10181152487E+01  0.10177879240E+01 0.  0.
     999903    2    3    3    0    0  0.30713763831E-01 -0.75865170901E-01 -0.10053265981E+00  0.13090713883E+00  0.18193511568E-01 0.  0.
         14    1    1    2    0    0  0.10334918373E-01  0.21030472464E-01  0.10830977494E-01  0.25814751274E-01  0.00000000000E+00 0. -1.
     999901    1    3    3    0    0 -0.41048682205E-01  0.54834698436E-01  0.89701682313E-01  0.88720810990E+00  0.88000000000E+00 0.  1.
        -11    1    4    4    0    0  0.14018165494E-01 -0.19674260216E-01 -0.20409390876E-01  0.31628939846E-01  0.51100000000E-03 0.  1.
         11    1    4    4    0    0  0.16695598338E-01 -0.56190910685E-01 -0.80123268931E-01  0.99278198980E-01  0.51100000000E-03 0. -1.
</event>
<event>
 7    1  0.1123470E+005  0.1043930E+01  0.7957747E-01            NaN
         13   -1    0    0    0    0  0.00000000000E+00  0.00000000000E+00  0.74505805969E-08  0.10566000000E+00  0.10566000000E+00 0.  1.
     999900   -1    0    0    0    0 -0.00000000000E+00 -0.00000000000E+00 -0.74505805969E-08  0.93827000000E+00  0.93827000000E+00 0. -1.
     999903    2    1    2    0    0  0.55008205298E-01  0.42614106918E-01 -0.26523145017E-01  0.77097616388E-01  0.19967485387E-01 0.  0.
         14    1    1    2    0    0  0.45492576973E-01 -0.25985439935E-01  0.60843262713E-01  0.80291470692E-01  0.00000000000E+00 0.  1.
     999901    1    1    2    0    0 -0.10050078227E+00 -0.16628666983E-01 -0.34320117696E-01  0.88654091292E+00  0.88000000000E+00 0.  1.
        -11    1    3    3    0    0  0.32980028744E-01  0.15811913139E-01 -0.20344144025E-01  0.41855038050E-01  0.51100000000E-03 0. -1.
         11    1    3    3    0    0  0.22028176554E-01  0.26802193780E-01 -0.61790009917E-02  0.35242578339E-01  0.51100000000E-03 0.  1.
</event>
<event>
 8    1  0.1123470E+005  0.1043930E+01  0.7957747E-01            NaN
         13   -1    0    0    0    0  0.00000000000E+00  0.00000000000E+00  0.74505805969E-08  0.10566000000E+00  0.10566000000E+00 0.  1.
     999900   -1    0    0    0    0 -0.00000000000E+00 -0.00000000000E+00 -0.74505805969E-08  0.93827000000E+00  0.93827000000E+00 0. -1.
     999902    2    1    2    0    0  0.16790035800E-01  0.17219237671E-01 -0.14507646408E-02  0.10198361799E+01  0.10195515297E+01 0.  0.
     999903    2    3    3    0    0  0.34975930860E-01  0.12314533138E+00 -0.30393501951E-01  0.13282504912E+00  0.18183518210E-01 0.  0.
         14    1    1    2    0    0 -0.16790035800E-01 -0.17219237671E-01  0.14507646408E-02  0.24093820082E-01  0.00000000000E+00 0.  1.
     999901    1    3    3    0    0 -0.18185895060E-01 -0.10592609371E+00  0.28942737310E-01  0.88701113079E+00  0.88000000000E+00 0. -1.
        -11    1    4    4    0    0  0.23502194467E-02  0.10343332703E-01 -0.79682901356E-02  0.13276401303E-01  0.51100000000E-03 0.  1.
         11    1    4    4    0    0  0.32625711413E-01  0.11280199867E+00 -0.22425211815E-01  0.11954864782E+00  0.51100000000E-03 0. -1.
</event>
<event>
 8    1  0.1123470E+005  0.1043930E+01  0.7957747E-01            NaN
         13   -1    0    0    0    0  0.00000000000E+00  0.00000000000E+00  0.74505805969E-08  0.10566000000E+00  0.10566000000E+00 0.  1.
     999900   -1    0    0    0    0 -0.00000000000E+00 -0.00000000000E+00 -0.74505805969E-08  0.93827000000E+00  0.93827000000E+00 0. -1.
     999902    2    1    2    0    0 -0.49121737464E-02 -0.66651916199E-02 -0.22323331049E-01  0.10201206460E+01  0.10198427560E+01 0.  0.
     999903    2    3    3    0    0 -0.10907171355E+00  0.51200690255E-01 -0.49260486026E-01  0.13168197035E+00  0.19884578275E-01 0.  0.
         14    1    1    2    0    0  0.49121737464E-02  0.66651916199E-02  0.22323331049E-01  0.23809354031E-01  0.00000000000E+00 0.  1.
     999901    1    3    3    0    0  0.10415953980E+00 -0.57865881874E-01  0.26937154977E-01  0.88843867562E+00  0.88000000000E+00 0.  1.
        -11    1    4    4    0    0 -0.10133519857E+00  0.44197335676E-01 -0.39545768833E-01  0.11741531375E+00  0.51100000000E-03 0. -1.
         11    1    4    4    0    0 -0.77365149786E-02  0.70033545790E-02 -0.97147171930E-02  0.14266656599E-01  0.51100000000E-03 0.  1.
</event>
<event>
 8    1  0.1123470E+005  0.1043930E+01  0.7957747E-01            NaN
         13   -1    0    0    0    0  0.00000000000E+00  0.00000000000E+00  0.74505805969E-08  0.10566000000E+00  0.10566000000E+00 0. -1.
     999900   -1    0    0    0    0 -0.00000000000E+00 -0.00000000000E+00 -0.74505805969E-08  0.93827000000E+00  0.93827000000E+00 0.  1.
     999902    2    1    2    0    0  0.85945171910E-02 -0.20459349265E-01  0.87070999918E-02  0.10200917054E+01  0.10198131315E+01 0.  0.
     999903    2    3    3    0    0  0.18601488357E-01  0.34381683679E-01  0.12333424089E+00  0.13090833862E+00  0.19938470405E-01 0.  0.
         14    1    1    2    0    0 -0.85945171910E-02  0.20459349265E-01 -0.87070999918E-02  0.23838294578E-01  0.00000000000E+00 0.  1.
     999901    1    3    3    0    0 -0.10006971166E-01 -0.54841032944E-01 -0.11462714090E+00  0.88918336680E+00  0.88000000000E+00 0.  1.
        -11    1    4    4    0    0  0.18206008914E-01  0.24149519049E-01  0.65169834465E-01  0.71847244039E-01  0.51100000000E-03 0.  1.
         11    1    4    4    0    0  0.39547944256E-03  0.10232164630E-01  0.58164406428E-01  0.59061094581E-01  0.51100000000E-03 0. -1.
</event>
<event>
 8    1  0.1123470E+005  0.1043930E+01  0.7957747E-01            NaN
         13   -1    0    0    0    0  0.00000000000E+00  0.00000000000E+00  0.74505805969E-08  0.10566000000E+00  0.10566000000E+00 0. -1.
     999900   -1    0    0    0    0 -0.00000000000E+00 -0.00000000000E+00 -0.74505805969E-08  0.93827000000E+00  0.93827000000E+00 0.  1.
     999902    2    1    2    0    0  0.14519135985E-01 -0.23289580605E-02 -0.18273582896E-01  0.10204746555E+01  0.10202050624E+01 0.  0.
     999903    2    3    3    0    0 -0.86954555443E-01 -0.83874999434E-01 -0.45028926150E-01  0.13049571453E+00  0.20134971512E-01 0.  0.
         14    1    1    2    0    0 -0.14519135985E-01  0.23289580605E-02  0.18273582896E-01  0.23455344535E-01  0.00000000000E+00 0. -1.
     999901    1    3    3    0    0  0.10147369143E+00  0.81546041374E-01  0.26755343254E-01  0.88997894094E+00  0.88000000000E+00 0. -1.
        -11    1    4    4    0    0 -0.40688335253E-01 -0.39059998516E-01 -0.31750599563E-01  0.64727009845E-01  0.51100000000E-03 0.  1.
         11    1    4    4    0    0 -0.46266220190E-01 -0.44815000918E-01 -0.13278326587E-01  0.65768704685E-01  0.51100000000E-03 0. -1.
</event>
<event>
 8    1  0.1123470E+005  0.1043930E+01  0.7957747E-01            NaN
         13   -1    0    0    0    0  0.00000000000E+00  0.00000000000E+00  0.74505805969E-08  0.10566000000E+00  0.10566000000E+00 0. -1.
     999900   -1    0    0    0    0 -0.00000000000E+00 -0.00000000000E+00 -0.74505805969E-08  0.93827000000E+00  0.93827000000E+00 0. -1.
     999902    2    1    2    0    0  0.66703224962E-02 -0.10353821572E-02 -0.20969469912E-01  0.10219008401E+01  0.10216633707E+01 0.  0.
     999903    2    3    3    0    0 -0.45777226822E-01  0.71351123619E-01 -0.10151780264E+00  0.13371246729E+00  0.19662713960E-01 0.  0.
         14    1    1    2    0    0 -0.66703224962E-02  0.10353821572E-02  0.20969469912E-01  0.22029159921E-01  0.00000000000E+00 0. -1.
     999901    1    3    3    0    0  0.52447549318E-01 -0.72386505777E-01  0.80548332724E-01  0.88818837279E+00  0.88000000000E+00 0.  1.
        -11    1    4    4    0    0 -0.39606736489E-01  0.67090480915E-01 -0.98561071008E-01  0.12563587085E+00  0.51100000000E-03 0.  1.
         11    1    4    4    0    0 -0.61704903327E-02  0.42606427041E-02 -0.29567316284E-02  0.80765964441E-02  0.51100000000E-03 0. -1.
</event>
<event>
 8    1  0.1123470E+005  0.1043930E+01  0.7957747E-01            NaN
         13   -1    0    0    0    0  0.00000000000E+00  0.00000000000E+00  0.74505805969E-08  0.10566000000E+00  0.10566000000E+00 0. -1.
     999900   -1    0    0    0    0 -0.00000000000E+00 -0.00000000000E+00 -0.74505805969E-08  0.93827000000E+00  0.93827000000E+00 0.  1.
     999902    2    1    2    0    0  0.13651768214E-01  0.12077113915E-01 -0.14148041705E-01  0.10208563237E+01  0.10205955315E+01 0.  0.
     999903    2    3    3    0    0 -0.10036091598E+00 -0.76998632888E-03  0.78041915669E-01  0.12863273712E+00  0.19568702611E-01 0.  0.
         14    1    1    2    0    0 -0.13651768214E-01 -0.12077113915E-01  0.14148041705E-01  0.23073676343E-01  0.00000000000E+00 0. -1.
     999901    1    3    3    0    0  0.11401268419E+00  0.12847100244E-01 -0.92189957374E-01  0.89222358654E+00  0.88000000000E+00 0.  1.
        -11    1    4    4    0    0 -0.89194837141E-01 -0.66511951068E-03  0.60319276828E-01  0.10767932780E+00  0.51100000000E-03 0. -1.
         11    1    4    4    0    0 -0.11166078836E-01 -0.10486681821E-03  0.17722638841E-01  0.20953409319E-01  0.51100000000E-03 0.  1.
</event>
<event>
 7    1  0.1123470E+005  0.1043930E+01  0.7957747E-01            NaN
         13   -1    0    0    0    0  0.00000000000E+00  0.00000000000E+00  0.74505805969E-08  0.10566000000E+00  0.10566000000E+00 0. -1.
     999900   -1    0    0    0    0 -0.00000000000E+00 -0.00000000000E+00 -0.74505805969E-08  0.93827000000E+00  0.93827000000E+00 0. -1.
     999903    2    1    2    0    0  0.20448150461E-01 -0.29003300857E-01 -0.10083832648E+00  0.10879631731E+00  0.20222567976E-01 0.  0.
         14    1    1    2    0    0  0.28382722780E-01  0.29605919053E-01  0.30240726557E-01  0.50956755569E-01  0.00000000000E+00 0.  1.
     999901    1    1    2    0    0 -0.48830873242E-01 -0.60261819568E-03  0.70597599926E-01  0.88417692712E+00  0.88000000000E+00 0.  1.
        -11    1    3    3    0    0  0.23423843367E-01 -0.23393384458E-01 -0.92864010193E-01  0.98589616008E-01  0.51100000000E-03 0.  1.
         11    1    3    3    0    0 -0.29756929057E-02 -0.56099163998E-02 -0.79743162895E-02  0.10206701307E-01  0.51100000000E-03 0. -1.
</event>
<event>
 8    1  0.1123470E+005  0.1043930E+01  0.7957747E-01            NaN
         13   -1    0    0    0    0  0.00000000000E+00  0.00000000000E+00  0.74505805969E-08  0.10566000000E+00  0.10566000000E+00 0.  1.
     999900   -1    0    0    0    0 -0.00000000000E+00 -0.00000000000E+00 -0.74505805969E-08  0.93827000000E+00  0.93827000000E+00 0.  1.
     999902    2    1    2    0    0 -0.46226473361E-02  0.39745359753E-02  0.23264059718E-01  0.10198804204E+01  0.10195968270E+01 0.  0.
     999903    2    3    3    0    0 -0.30339194876E-01  0.19971523424E-01 -0.12007940737E+00  0.12776798691E+00  0.24212928569E-01 0.  0.
         14    1    1    2    0    0  0.46226473361E-02 -0.39745359753E-02 -0.23264059718E-01  0.24049579605E-01  0.00000000000E+00 0. -1.
     999901    1    3    3    0    0  0.25716547540E-01 -0.15996987449E-01  0.14334346709E+00  0.89211243349E+00  0.88000000000E+00 0. -1.
        -11    1    4    4    0    0 -0.70434266677E-02 -0.56039013632E-02 -0.27082493699E-01  0.28543583441E-01  0.51100000000E-03 0. -1.
         11    1    4    4    0    0 -0.23295768208E-01  0.25575424787E-01 -0.92996913674E-01  0.99224403467E-01  0.51100000000E-03 0.  1.
</event>
<event>
 8    1  0.1123470E+005  0.1043930E+01  0.7957747E-01            NaN
         13   -1    0    0    0    0  0.00000000000E+00  0.00000000000E+00  0.74505805969E-08  0.10566000000E+00  0.10566000000E+00 0.  1.
     999900   -1    0    0    0    0 -0.00000000000E+00 -0.00000000000E+00 -0.74505805969E-08  0.93827000000E+00  0.93827000000E+00 0. -1.
     999902    2    1    2    0    0  0.22814624620E-01 -0.68569230066E-02 -0.65925466491E-02  0.10192118657E+01  0.10189120870E+01 0.  0.
     999903    2    3    3    0    0 -0.45952080737E-01 -0.11922825674E+00  0.14375373215E-02  0.12936881292E+00  0.20180493412E-01 0.  0.
         14    1    1    2    0    0 -0.22814624620E-01  0.68569230066E-02  0.65925466491E-02  0.24718134253E-01  0.00000000000E+00 0.  1.
     999901    1    3    3    0    0  0.68766705357E-01  0.11237133373E+00 -0.80300839707E-02  0.88984305282E+00  0.88000000000E+00 0. -1.
        -11    1    4    4    0    0 -0.18440421265E-01 -0.70998902218E-01 -0.46832880195E-02  0.73505697468E-01  0.51100000000E-03 0. -1.
         11    1    4    4    0    0 -0.27511659472E-01 -0.48229354521E-01  0.61208253410E-02  0.55863115455E-01  0.51100000000E-03 0.  1.
</event>
<event>
 8    1  0.1123470E+005  0.1043930E+01  0.7957747E-01            NaN
         13   -1    0    0    0    0  0.00000000000E+00  0.00000000000E+00  0.74505805969E-08  0.10566000000E+00  0.10566000000E+00 0. -1.
     999900   -1    0    0    0    0 -0.00000000000E+00 -0.00000000000E+00 -0.74505805969E-08  0.93827000000E+00  0.93827000000E+00 0. -1.
     999902    2    1    2    0    0 -0.18759318464E-01 -0.56085994604E-03 -0.13786216159E-01  0.10206429575E+01  0.10203772637E+01 0.  0.
     999903    2    3    3    0    0 -0.10031264026E+00 -0.81203504021E-01  0.22142860437E-01  0.13247344726E+00  0.20056747017E-01 0.  0.
         14    1    1    2    0    0  0.18759318464E-01  0.56085994604E-03  0.13786216159E-01  0.23287042515E-01  0.00000000000E+00 0.  1.
     999901    1    3    3    0    0  0.81553321795E-01  0.80642644075E-01 -0.35929076597E-01  0.88816951022E+00  0.88000000000E+00 0.  1.
        -11    1    4    4    0    0 -0.58918319978E-01 -0.59547727567E-01  0.11495843665E-01  0.84555992277E-01  0.51100000000E-03 0.  1.
         11    1    4    4    0    0 -0.41394320281E-01 -0.21655776454E-01  0.10647016773E-01  0.47917454987E-01  0.51100000000E-03 0. -1.
</event>
<event>
 8    1  0.1123470E+005  0.1043930E+01  0.7957747E-01            NaN
         13   -1    0    0    0    0  0.00000000000E+00  0.00000000000E+00  0.74505805969E-08  0.10566000000E+00  0.10566000000E+00 0.  1.
     999900   -1    0    0    0    0 -0.00000000000E+00 -0.00000000000E+00 -0.74505805969E-08  0.93827000000E+00  0.93827000000E+00 0.  1.
     999902    2    1    2    0    0 -0.21513669979E-01  0.11657840456E-01 -0.67793225710E-02  0.10185390084E+01  0.10182224753E+01 0.  0.
     999903    2    3    3    0    0  0.30422144690E-01 -0.19605446467E-01 -0.12267384457E+00  0.12887263150E+00  0.15792485197E-01 0.  0.
         14    1    1    2    0    0  0.21513669979E-01 -0.11657840456E-01  0.67793225710E-02  0.25390991603E-01  0.00000000000E+00 0.  1.
     999901    1    3    3    0    0 -0.51935814669E-01  0.31263286924E-01  0.11589452200E+00  0.88966637690E+00  0.88000000000E+00 0. -1.
        -11    1    4    4    0    0  0.24225573540E-01 -0.11557752790E-01 -0.10595944818E+00  0.10930748302E+00  0.51100000000E-03 0. -1.
         11    1    4    4    0    0  0.61965711500E-02 -0.80476936769E-02 -0.16714396388E-01  0.19565148483E-01  0.51100000000E-03 0.  1.
</event>
<event>
 8    1  0.1123470E+005  0.1043930E+01  0.7957747E-01            NaN
         13   -1    0    0    0    0  0.00000000000E+00  0.00000000000E+00  0.74505805969E-08  0.10566000000E+00  0.10566000000E+00 0.  1.
     999900   -1    0    0    0    0 -0.00000000000E+00 -0.00000000000E+00 -0.74505805969E-08  0.93827000000E+00  0.93827000000E+00 0. -1.
     999902    2    1    2    0    0 -0.73240302180E-02 -0.22230666013E-01  0.11869871192E-02  0.10204938555E+01  0.10202247087E+01 0.  0.
     999903    2    3    3    0    0  0.41059552384E-01 -0.96011945698E-01 -0.79035769507E-01  0.13245087289E+00  0.19809096651E-01 0.  0.
         14    1    1    2    0    0  0.73240302180E-02  0.22230666013E-01 -0.11869871192E-02  0.23436144487E-01  0.00000000000E+00 0. -1.
     999901    1    3    3    0    0 -0.48383582602E-01  0.73781279686E-01  0.80222756626E-01  0.88804298262E+00  0.88000000000E+00 0.  1.
        -11    1    4    4    0    0  0.89256426282E-02 -0.27743531390E-01 -0.12009923316E-01  0.31525703948E-01  0.51100000000E-03 0. -1.
         11    1    4    4    0    0  0.32133909756E-01 -0.68268414308E-01 -0.67025846190E-01  0.10092516895E+00  0.51100000000E-03 0.  1.
</event>
<event>
 8    1  0.1123470E+005  0.1043930E+01  0.7957747E-01            NaN
         13   -1    0    0    0    0  0.00000000000E+00  0.00000000000E+00  0.74505805969E-08  0.10566000000E+00  0.10566000000E+00 0.  1.
     999900   -1    0    0    0    0 -0.00000000000E+00 -0.00000000000E+00 -0.74505805969E-08  0.93827000000E+00  0.93827000000E+00 0. -1.
     999902    2    1    2    0    0 -0.66155654325E-02 -0.18565259120E-01 -0.13563883303E-01  0.10200048358E+01  0.10197242037E+01 0.  0.
     999903    2    3    3    0    0 -0.19142227658E-01 -0.11048612695E+00  0.66004539936E-01  0.13155815918E+00  0.19425262561E-01 0.  0.
         14    1    1    2    0    0  0.66155654325E-02  0.18565259120E-01  0.13563883303E-01  0.23925164210E-01  0.00000000000E+00 0.  1.
     999901    1    3    3    0    0  0.12526662225E-01  0.91920867830E-01 -0.79568423240E-01  0.88844667661E+00  0.88000000000E+00 0. -1.
        -11    1    4    4    0    0 -0.10498351280E-01 -0.98222098223E-01  0.56815728583E-01  0.11395650089E+00  0.51100000000E-03 0. -1.
         11    1    4    4    0    0 -0.86438763782E-02 -0.12264028727E-01  0.91888113528E-02  0.17601658289E-01  0.51100000000E-03 0.  1.
</event>
<event>
 8    1  0.1123470E+005  0.1043930E+01  0.7957747E-01            NaN
         13   -1    0    0    0    0  0.00000000000E+00  0.00000000000E+00  0.74505805969E-08  0.10566000000E+00  0.10566000000E+00 0. -1.
     999900   -1    0    0    0    0 -0.00000000000E+00 -0.00000000000E+00 -0.74505805969E-08  0.93827000000E+00  0.93827000000E+00 0. -1.
     999902    2    1    2    0    0 -0.19829395887E-01  0.12359669044E-01 -0.32696853504E-02  0.10203364161E+01  0.10200635984E+01 0.  0.
     999903    2    3    3    0    0 -0.12627467859E+00  0.16247247833E-01 -0.33734154300E-01  0.13339008436E+00  0.21110516877E-01 0.  0.
         14    1    1    2    0    0  0.19829395887E-01 -0.12359669044E-01  0.32696853504E-02  0.23593583925E-01  0.00000000000E+00 0. -1.
     999901    1    3    3    0    0  0.10644528271E+00 -0.38875787885E-02  0.30464468950E-01  0.88694633172E+00  0.88000000000E+00 0. -1.
        -11    1    4    4    0    0 -0.34760067248E-01  0.71959528657E-02 -0.18965610981E-01  0.40249217802E-01  0.51100000000E-03 0. -1.
         11    1    4    4    0    0 -0.91514611344E-01  0.90512949670E-02 -0.14768543319E-01  0.93140866556E-01  0.51100000000E-03 0.  1.
</event>
<event>
 8    1  0.1123470E+005  0.1043930E+01  0.7957747E-01            NaN
         13   -1    0    0    0    0  0.00000000000E+00  0.00000000000E+00  0.74505805969E-08  0.10566000000E+00  0.10566000000E+00 0.  1.
     999900   -1    0    0    0    0 -0.00000000000E+00 -0.00000000000E+00 -0.74505805969E-08  0.93827000000E+00  0.93827000000E+00 0.  1.
     999902    2    1    2    0    0 -0.64333153188E-02  0.17738358103E-01  0.15570169878E-01  0.10194664131E+01  0.10191728511E+01 0.  0.
     999903    2    3    3    0    0 -0.92145226103E-01  0.49739235479E-01 -0.74110559096E-01  0.13018961651E+00  0.22186190231E-01 0.  0.
         14    1    1    2    0    0  0.64333153188E-02 -0.17738358103E-01 -0.15570169878E-01  0.24463586904E-01  0.00000000000E+00 0.  1.
     999901    1    3    3    0    0  0.85711910784E-01 -0.32000877377E-01  0.89680728974E-01  0.88927679659E+00  0.88000000000E+00 0. -1.
        -11    1    4    4    0    0 -0.49922834566E-01  0.20307771570E-01 -0.26434459840E-01  0.60031131801E-01  0.51100000000E-03 0.  1.
         11    1    4    4    0    0 -0.42222391537E-01  0.29431463909E-01 -0.47676099256E-01  0.70158484706E-01  0.51100000000E-03 0. -1.
</event>
<event>
 8    1  0.1123470E+005  0.1043930E+01  0.7957747E-01            NaN
         13   -1    0    0    0    0  0.00000000000E+00  0.00000000000E+00  0.74505805969E-08  0.10566000000E+00  0.10566000000E+00 0. -1.
     999900   -1    0    0    0    0 -0.00000000000E+00 -0.00000000000E+00 -0.74505805969E-08  0.93827000000E+00  0.93827000000E+00 0.  1.
     999902    2    1    2    0    0 -0.17004069536E-01  0.36588109445E-02  0.16608184695E-01  0.10198809444E+01  0.10195973635E+01 0.  0.
     999903    2    3    3    0    0  0.11950150041E+00 -0.34452721945E-01  0.25667973817E-01  0.12849531550E+00  0.19611286901E-01 0.  0.
         14    1    1    2    0    0  0.17004069536E-01 -0.36588109445E-02 -0.16608184695E-01  0.24049055640E-01  0.00000000000E+00 0.  1.
     999901    1    3    3    0    0 -0.13650556995E+00  0.38111532889E-01 -0.90597891225E-02  0.89138562886E+00  0.88000000000E+00 0.  1.
        -11    1    4    4    0    0  0.28087435893E-01 -0.68226960589E-02  0.14510115219E-01  0.32345908570E-01  0.51100000000E-03 0. -1.
         11    1    4    4    0    0  0.91414064521E-01 -0.27630025886E-01  0.11157858599E-01  0.96149406926E-01  0.51100000000E-03 0.  1.
</event>
<event>
 8    1  0.1123470E+005  0.1043930E+01  0.7957747E-01            NaN
         13   -1    0    0    0    0  0.00000000000E+00  0.00000000000E+00  0.74505805969E-08  0.10566000000E+00  0.10566000000E+00 0. -1.
     999900   -1    0    0    0    0 -0.00000000000E+00 -0.00000000000E+00 -0.74505805969E-08  0.93827000000E+00  0.93827000000E+00 0. -1.
     999902    2    1    2    0    0 -0.22302005404E-01 -0.94702699292E-02 -0.68131139555E-05  0.10197005653E+01  0.10194126630E+01 0.  0.
     999903    2    3    3    0    0  0.62382376168E-01 -0.11148973018E+00  0.69016802272E-02  0.12974149772E+00  0.21533746731E-01 0.  0.
         14    1    1    2    0    0  0.22302005404E-01  0.94702699292E-02  0.68131139555E-05  0.24229434661E-01  0.00000000000E+00 0. -1.
     999901    1    3    3    0    0 -0.84684381572E-01  0.10201946026E+00 -0.69084933411E-02  0.88995906762E+00  0.88000000000E+00 0.  1.
        -11    1    4    4    0    0  0.57679042376E-01 -0.85766824473E-01  0.41420198810E-02  0.10344195261E+00  0.51100000000E-03 0. -1.
         11    1    4    4    0    0  0.47033337919E-02 -0.25722905712E-01  0.27596603461E-02  0.26299545115E-01  0.51100000000E-03 0.  1.
</event>
<event>
 8    1  0.1123470E+005  0.1043930E+01  0.7957747E-01            NaN
         13   -1    0    0    0    0  0.00000000000E+00  0.00000000000E+00  0.74505805969E-08  0.10566000000E+00  0.10566000000E+00 0. -1.
     999900   -1    0    0    0    0 -0.00000000000E+00 -0.00000000000E+00 -0.74505805969E-08  0.93827000000E+00  0.93827000000E+00 0. -1.
     999902    2    1    2    0    0 -0.78342797487E-02 -0.42897568592E-02 -0.22746377931E-01  0.10194928221E+01  0.10191999013E+01 0.  0.
     999903    2    3    3    0    0 -0.93066594026E-01 -0.33123713535E-01  0.80486836508E-01  0.12890142255E+00  0.19464700396E-01 0.  0.
         14    1    1    2    0    0  0.78342797487E-02  0.42897568592E-02  0.22746377931E-01  0.24437177867E-01  0.00000000000E+00 0.  1.
     999901    1    3    3    0    0  0.85232314277E-01  0.28833956676E-01 -0.10323321444E+00  0.89059139959E+00  0.88000000000E+00 0. -1.
        -11    1    4    4    0    0 -0.18972983007E-01 -0.49019719685E-02  0.26567742222E-01  0.33016805739E-01  0.51100000000E-03 0.  1.
         11    1    4    4    0    0 -0.74093611019E-01 -0.28221741567E-01  0.53919094285E-01  0.95884616808E-01  0.51100000000E-03 0. -1.
</event>
<event>
 8    1  0.1123470E+005  0.1043930E+01  0.7957747E-01            NaN
         13   -1    0    0    0    0  0.00000000000E+00  0.00000000000E+00  0.74505805969E-08  0.10566000000E+00  0.10566000000E+00 0.  1.
     999900   -1    0    0    0    0 -0.00000000000E+00 -0.00000000000E+00 -0.74505805969E-08  0.93827000000E+00  0.93827000000E+00 0. -1.
     999902    2    1    2    0    0  0.22824899600E-02 -0.16023658744E-01 -0.16797288159E-01  0.10206036996E+01  0.10203370989E+01 0.  0.
     999903    2    3    3    0    0  0.73498843781E-01 -0.30989204522E-01 -0.10487955717E+00  0.13321752510E+00  0.19615724518E-01 0.  0.
         14    1    1    2    0    0 -0.22824899600E-02  0.16023658744E-01  0.16797288159E-01  0.23326300381E-01  0.00000000000E+00 0. -1.
     999901    1    3    3    0    0 -0.71216353821E-01  0.14965545779E-01  0.88082269009E-01  0.88738617452E+00  0.88000000000E+00 0. -1.
        -11    1    4    4    0    0  0.54466997155E-01 -0.13464989461E-01 -0.67886511401E-01  0.88072693109E-01  0.51100000000E-03 0.  1.
         11    1    4    4    0    0  0.19031846626E-01 -0.17524215061E-01 -0.36993045766E-01  0.45144831992E-01  0.51100000000E-03 0. -1.
</event>
<event>
 8    1  0.1123470E+005  0.1043930E+01  0.7957747E-01            NaN
         13   -1    0    0    0    0  0.00000000000E+00  0.00000000000E+00  0.74505805969E-08  0.10566000000E+00  0.10566000000E+00 0.  1.
     999900   -1    0    0    0    0 -0.00000000000E+00 -0.00000000000E+00 -0.74505805969E-08  0.93827000000E+00  0.93827000000E+00 0. -1.
     999902    2    1    2    0    0 -0.14541275646E-01 -0.41105602655E-02 -0.21005582237E-01  0.10180537582E+01  0.10177248522E+01 0.  0.
     999903    2    3    3    0    0  0.13136750832E-01  0.51602232237E-01  0.11158051864E+00  0.12595002965E+00  0.24038162018E-01 0.  0.
         14    1    1    2    0    0  0.14541275646E-01  0.41105602655E-02  0.21005582237E-01  0.25876241772E-01  0.00000000000E+00 0.  1.
     999901    1    3    3    0    0 -0.27678026479E-01 -0.55712792503E-01 -0.13258610088E+00  0.89210372858E+00  0.88000000000E+00 0. -1.
        -11    1    4    4    0    0  0.13399978801E-01  0.30595459049E-01  0.44423933616E-01  0.55582268263E-01  0.51100000000E-03 0.  1.
         11    1    4    4    0    0 -0.26322796903E-03  0.21006773188E-01  0.67156585029E-01  0.70367761386E-01  0.51100000000E-03 0. -1.
</event>
<event>
 8    1  0.1123470E+005  0.1043930E+01  0.7957747E-01            NaN
         13   -1    0    0    0    0  0.00000000000E+00  0.00000000000E+00  0.74505805969E-08  0.10566000000E+00  0.10566000000E+00 0.  1.
     999900   -1    0    0    0    0 -0.00000000000E+00 -0.00000000000E+00 -0.74505805969E-08  0.93827000000E+00  0.93827000000E+00 0.  1.
     999902    2    1    2    0    0  0.20709827272E-01 -0.12512961704E-01 -0.83737438040E-03  0.10197190035E+01  0.10194315444E+01 0.  0.
     999903    2    3    3    0    0 -0.10991666636E+00  0.43609590460E-01  0.42745198601E-01  0.12724353471E+00  0.19501158894E-01 0.  0.
         14    1    1    2    0    0 -0.20709827272E-01  0.12512961704E-01  0.83737438040E-03  0.24210996512E-01  0.00000000000E+00 0.  1.
     999901    1    3    3    0    0  0.13062649363E+00 -0.56122552164E-01 -0.43582572981E-01  0.89247546878E+00  0.88000000000E+00 0. -1.
        -11    1    4    4    0    0 -0.82069823972E-01  0.23099180391E-01  0.30425721307E-01  0.90526315398E-01  0.51100000000E-03 0. -1.
         11    1    4    4    0    0 -0.27846842390E-01  0.20510410070E-01  0.12319477294E-01  0.36717219314E-01  0.51100000000E-03 0.  1.
</event>
<event>
 8    1  0.1123470E+005  0.1043930E+01  0.7957747E-01            NaN
         13   -1    0    0    0    0  0.00000000000E+00  0.00000000000E+00  0.74505805969E-08  0.10566000000E+00  0.10566000000E+00 0.  1.
     999900   -1    0    0    0    0 -0.00000000000E+00 -0.00000000000E+00 -0.74505805969E-08  0.93827000000E+00  0.93827000000E+00 0.  1.
     999902    2    1    2    0    0  0.10642684971E-01 -0.19136713699E-01 -0.10624534517E-01  0.10195915266E+01  0.10193009957E+01 0.  0.
     999903    2    3    3    0    0 -0.39095614450E-01  0.10474931472E+00 -0.59534873054E-01  0.12818036013E+00  0.19619317227E-01 0.  0.
         14    1    1    2    0    0 -0.10642684971E-01  0.19136713699E-01  0.10624534517E-01  0.24338473418E-01  0.00000000000E+00 0.  1.
     999901    1    3    3    0    0  0.49738299421E-01 -0.12388602842E+00  0.48910338537E-01  0.89141116646E+00  0.88000000000E+00 0. -1.
        -11    1    4    4    0    0 -0.12140639056E-01  0.58146119356E-01 -0.35667000416E-01  0.69287533890E-01  0.51100000000E-03 0.  1.
         11    1    4    4    0    0 -0.26954975394E-01  0.46603195366E-01 -0.23867872638E-01  0.58892826236E-01  0.51100000000E-03 0. -1.
</event>
<event>
 8    1  0.1123470E+005  0.1043930E+01  0.7957747E-01            NaN
         13   -1    0    0    0    0  0.00000000000E+00  0.00000000000E+00  0.74505805969E-08  0.10566000000E+00  0.10566000000E+00 0. -1.
     999900   -1    0    0    0    0 -0.00000000000E+00 -0.00000000000E+00 -0.74505805969E-08  0.93827000000E+00  0.93827000000E+00 0.  1.
     999902    2    1    2    0    0 -0.12401098962E-01 -0.19543260391E-01 -0.52798900391E-02  0.10201896647E+01  0.10199134024E+01 0.  0.
     999903    2    3    3    0    0  0.11482018617E+00  0.20405852682E-01 -0.51327541170E-01  0.12895368403E+00  0.19861071644E-01 0.  0.
         14    1    1    2    0    0  0.12401098962E-01  0.19543260391E-01  0.52798900391E-02  0.23740335318E-01  0.00000000000E+00 0.  1.
     999901    1    3    3    0    0 -0.12722128514E+00 -0.39949113073E-01  0.46047651131E-01  0.89123598065E+00  0.88000000000E+00 0.  1.
        -11    1    4    4    0    0  0.51459157142E-01 -0.79470247130E-03 -0.23350040720E-01  0.56516917188E-01  0.51100000000E-03 0.  1.
         11    1    4    4    0    0  0.63361029031E-01  0.21200555153E-01 -0.27977500450E-01  0.72436766846E-01  0.51100000000E-03 0. -1.
</event>
<event>
 8    1  0.1123470E+005  0.1043930E+01  0.7957747E-01            NaN
         13   -1    0    0    0    0  0.00000000000E+00  0.00000000000E+00  0.74505805969E-08  0.10566000000E+00  0.10566000000E+00 0.  1.
     999900   -1    0    0    0    0 -0.00000000000E+00 -0.00000000000E+00 -0.74505805969E-08  0.93827000000E+00  0.93827000000E+00 0.  1.
     999902    2    1    2    0    0 -0.52690408174E-02  0.52270769402E-02  0.22428575052E-01  0.10203053073E+01  0.10200317613E+01 0.  0.
     999903    2    3    3    0    0  0.21525163834E-01 -0.65228212146E-01  0.11166060922E+00  0.13258675223E+00  0.19826822169E-01 0.  0.
         14    1    1    2    0    0  0.52690408174E-02 -0.52270769402E-02 -0.22428575052E-01  0.23624692661E-01  0.00000000000E+00 0. -1.
     999901    1    3    3    0    0 -0.26794204652E-01  0.70455289086E-01 -0.89232034169E-01  0.88771855511E+00  0.88000000000E+00 0.  1.
        -11    1    4    4    0    0  0.12637547335E-01 -0.36883529443E-01  0.80982119905E-01  0.89880293792E-01  0.51100000000E-03 0.  1.
         11    1    4    4    0    0  0.88876164993E-02 -0.28344682703E-01  0.30678489316E-01  0.42706458438E-01  0.51100000000E-03 0. -1.
</event>
<event>
 8    1  0.1123470E+005  0.1043930E+01  0.7957747E-01            NaN
         13   -1    0    0    0    0  0.00000000000E+00  0.00000000000E+00  0.74505805969E-08  0.10566000000E+00  0.10566000000E+00 0. -1.
     999900   -1    0    0    0    0 -0.00000000000E+00 -0.00000000000E+00 -0.74505805969E-08  0.93827000000E+00  0.93827000000E+00 0. -1.
     999902    2    1    2    0    0  0.13463152540E-01  0.12406770325E-01  0.13112032207E-01  0.10214109011E+01  0.10211626311E+01 0.  0.
     999903    2    3    3    0    0 -0.35506482378E-01 -0.83309035357E-01 -0.89533143026E-01  0.12894489470E+00  0.20236020012E-01 0.  0.
         14    1    1    2    0    0 -0.13463152540E-01 -0.12406770325E-01 -0.13112032207E-01  0.22519098889E-01  0.00000000000E+00 0.  1.
     999901    1    3    3    0    0  0.48969634918E-01  0.95715805681E-01  0.10264517523E+00  0.89246600641E+00  0.88000000000E+00 0.  1.
        -11    1    4    4    0    0 -0.67688793896E-02 -0.31080992699E-01 -0.42064628822E-01  0.52740306733E-01  0.51100000000E-03 0. -1.
         11    1    4    4    0    0 -0.28737602988E-01 -0.52228042658E-01 -0.47468514204E-01  0.76204587966E-01  0.51100000000E-03 0.  1.
</event>
<event>
 8    1  0.1123470E+005  0.1043930E+01  0.7957747E-01            NaN
         13   -1    0    0    0    0  0.00000000000E+00  0.00000000000E+00  0.74505805969E-08  0.10566000000E+00  0.10566000000E+00 0.  1.
     999900   -1    0    0    0    0 -0.00000000000E+00 -0.00000000000E+00 -0.74505805969E-08  0.93827000000E+00  0.93827000000E+00 0.  1.
     999902    2    1    2    0    0  0.10650345980E-01 -0.11612258576E-01  0.16531083454E-01  0.10210925059E+01  0.10208370851E+01 0.  0.
     999903    2    3    3    0    0 -0.23453666689E-02 -0.81044857023E-01  0.10469847861E+00  0.13387028801E+00  0.19639577201E-01 0.  0.
         14    1    1    2    0    0 -0.10650345980E-01  0.11612258576E-01 -0.16531083454E-01  0.22837494147E-01  0.00000000000E+00 0. -1.
     999901    1    3    3    0    0  0.12995712649E-01  0.69432598447E-01 -0.88167395156E-01  0.88722221785E+00  0.88000000000E+00 0. -1.
        -11    1    4    4    0    0  0.43073511011E-02 -0.24945230630E-01  0.21028850466E-01  0.32913393590E-01  0.51100000000E-03 0. -1.
         11    1    4    4    0    0 -0.66527177701E-02 -0.56099626392E-01  0.83669628144E-01  0.10095689442E+00  0.51100000000E-03 0.  1.
</event>
<event>
 8    1  0.1123470E+005  0.1043930E+01  0.7957747E-01            NaN
         13   -1    0    0    0    0  0.00000000000E+00  0.00000000000E+00  0.74505805969E-08  0.10566000000E+00  0.10566000000E+00 0.  1.
     999900   -1    0    0    0    0 -0.00000000000E+00 -0.00000000000E+00 -0.74505805969E-08  0.93827000000E+00  0.93827000000E+00 0.  1.
     999902    2    1    2    0    0 -0.24786238804E-01 -0.23521593329E-01 -0.71094114025E-02  0.10090277548E+01  0.10084239403E+01 0.  0.
     999903    2    3    3    0    0 -0.37063284598E-01  0.76710972459E-01  0.80574389792E-01  0.11892341147E+00  0.19806189532E-01 0.  0.
         14    1    1    2    0    0  0.24786238804E-01  0.23521593329E-01  0.71094114025E-02  0.34902245161E-01  0.00000000000E+00 0.  1.
     999901    1    3    3    0    0  0.12277045794E-01 -0.10023256579E+00 -0.87683801194E-01  0.89010434337E+00  0.88000000000E+00 0.  1.
        -11    1    4    4    0    0 -0.20461147874E-01  0.42935566666E-01  0.58095657773E-01  0.75083207379E-01  0.51100000000E-03 0. -1.
         11    1    4    4    0    0 -0.16602136724E-01  0.33775405794E-01  0.22478732019E-01  0.43840204088E-01  0.51100000000E-03 0.  1.
</event>
<event>
 8    1  0.1123470E+005  0.1043930E+01  0.7957747E-01            NaN
         13   -1    0    0    0    0  0.00000000000E+00  0.00000000000E+00  0.74505805969E-08  0.10566000000E+00  0.10566000000E+00 0. -1.
     999900   -1    0    0    0    0 -0.00000000000E+00 -0.00000000000E+00 -0.74505805969E-08  0.93827000000E+00  0.93827000000E+00 0. -1.
     999902    2    1    2    0    0  0.82587888660E-02 -0.20417987650E-01 -0.15499465596E-01  0.10169979513E+01  0.10166412827E+01 0.  0.
     999903    2    3    3    0    0 -0.99405971029E-01 -0.64834506153E-01 -0.45685811027E-01  0.12881117867E+00  0.20495515500E-01 0.  0.
         14    1    1    2    0    0 -0.82587888660E-02  0.20417987650E-01  0.15499465596E-01  0.26932048696E-01  0.00000000000E+00 0. -1.
     999901    1    3    3    0    0  0.10766475990E+00  0.44416518503E-01  0.30186345431E-01  0.88818677264E+00  0.88000000000E+00 0. -1.
        -11    1    4    4    0    0 -0.22584418015E-01 -0.64238860520E-02 -0.13439931585E-01  0.27059473962E-01  0.51100000000E-03 0.  1.
         11    1    4    4    0    0 -0.76821553014E-01 -0.58410620101E-01 -0.32245879442E-01  0.10175170470E+00  0.51100000000E-03 0. -1.
</event>
<event>
 8    1  0.1123470E+005  0.1043930E+01  0.7957747E-01            NaN
         13   -1    0    0    0    0  0.00000000000E+00  0.00000000000E+00  0.74505805969E-08  0.10566000000E+00  0.10566000000E+00 0. -1.
     999900   -1    0    0    0    0 -0.00000000000E+00 -0.00000000000E+00 -0.74505805969E-08  0.93827000000E+00  0.93827000000E+00 0.  1.
     999902    2    1    2    0    0  0.28005863237E-02  0.10102618184E-01 -0.27024553319E-01  0.10149432330E+01  0.10145292177E+01 0.  0.
     999903    2    3    3    0    0  0.88346655164E-01  0.50450518072E-01 -0.75875818053E-01  0.12852768206E+00  0.20293817718E-01 0.  0.
         14    1    1    2    0    0 -0.28005863237E-02 -0.10102618184E-01  0.27024553319E-01  0.28986766981E-01  0.00000000000E+00 0. -1.
     999901    1    3    3    0    0 -0.85546068840E-01 -0.40347899888E-01  0.48851264734E-01  0.88641555096E+00  0.88000000000E+00 0. -1.
        -11    1    4    4    0    0  0.86949993279E-01  0.52059204198E-01 -0.75315999066E-01  0.12626647579E+00  0.51100000000E-03 0. -1.
         11    1    4    4    0    0  0.13966618851E-02 -0.16086861261E-02 -0.55981898728E-03  0.22612062649E-02  0.51100000000E-03 0.  1.
</event>
<event>
 8    1  0.1123470E+005  0.1043930E+01  0.7957747E-01            NaN
         13   -1    0    0    0    0  0.00000000000E+00  0.00000000000E+00  0.74505805969E-08  0.10566000000E+00  0.10566000000E+00 0.  1.
     999900   -1    0    0    0    0 -0.00000000000E+00 -0.00000000000E+00 -0.74505805969E-08  0.93827000000E+00  0.93827000000E+00 0.  1.
     999902    2    1    2    0    0 -0.18916548263E-01  0.30259865726E-02 -0.16414168496E-01  0.10187026870E+01  0.10183902725E+01 0.  0.
     999903    2    3    3    0    0 -0.42682053259E-01 -0.76384978358E-01  0.91855974025E-01  0.12820096083E+00  0.18480903783E-01 0.  0.
         14    1    1    2    0    0  0.18916548263E-01 -0.30259865726E-02  0.16414168496E-01  0.25227312983E-01  0.00000000000E+00 0.  1.
     999901    1    3    3    0    0  0.23765504996E-01  0.79410964931E-01 -0.10827014252E+00  0.89050172619E+00  0.88000000000E+00 0.  1.
        -11    1    4    4    0    0 -0.31834968816E-01 -0.41238007910E-01  0.46775098737E-01  0.70015780499E-01  0.51100000000E-03 0.  1.
         11    1    4    4    0    0 -0.10847084443E-01 -0.35146970448E-01  0.45080875288E-01  0.58185180332E-01  0.51100000000E-03 0. -1.
</event>
<event>
 8    1  0.1123470E+005  0.1043930E+01  0.7957747E-01            NaN
         13   -1    0    0    0    0  0.00000000000E+00  0.00000000000E+00  0.74505805969E-08  0.10566000000E+00  0.10566000000E+00 0. -1.
     999900   -1    0    0    0    0 -0.00000000000E+00 -0.00000000000E+00 -0.74505805969E-08  0.93827000000E+00  0.93827000000E+00 0. -1.
     999902    2    1    2    0    0 -0.20996994320E-01  0.87891465260E-02  0.33419129887E-02  0.10209236694E+01  0.10206644147E+01 0.  0.
     999903    2    3    3    0    0  0.55665973303E-01  0.70476578377E-01 -0.92166679677E-01  0.13030341295E+00  0.20460544971E-01 0.  0.
         14    1    1    2    0    0  0.20996994320E-01 -0.87891465260E-02 -0.33419129887E-02  0.23006330640E-01  0.00000000000E+00 0.  1.
     999901    1    3    3    0    0 -0.76662967623E-01 -0.61687431851E-01  0.95508592665E-01  0.89062025641E+00  0.88000000000E+00 0. -1.
        -11    1    4    4    0    0  0.34494034516E-01  0.33063032684E-01 -0.59483056245E-01  0.76298739496E-01  0.51100000000E-03 0. -1.
         11    1    4    4    0    0  0.21171938787E-01  0.37413545693E-01 -0.32683623432E-01  0.54004673455E-01  0.51100000000E-03 0.  1.
</event>
<event>
 8    1  0.1123470E+005  0.1043930E+01  0.7957747E-01            NaN
         13   -1    0    0    0    0  0.00000000000E+00  0.00000000000E+00  0.74505805969E-08  0.10566000000E+00  0.10566000000E+00 0. -1.
     999900   -1    0    0    0    0 -0.00000000000E+00 -0.00000000000E+00 -0.74505805969E-08  0.93827000000E+00  0.93827000000E+00 0.  1.
     999902    2    1    2    0    0  0.68435856582E-02  0.91197268491E-02  0.19872314802E-01  0.10210190206E+01  0.10207619347E+01 0.  0.
     999903    2    3    3    0    0 -0.13622983613E-01  0.14307675917E-01  0.13101752339E+00  0.13377663393E+00  0.18447251244E-01 0.  0.
         14    1    1    2    0    0 -0.68435856582E-02 -0.91197268491E-02 -0.19872314802E-01  0.22910979421E-01  0.00000000000E+00 0.  1.
     999901    1    3    3    0    0  0.20466569271E-01 -0.51879490680E-02 -0.11114520859E+00  0.88724238665E+00  0.88000000000E+00 0.  1.
        -11    1    4    4    0    0 -0.90842738273E-02  0.17329332001E-01  0.75726108136E-01  0.78214668400E-01  0.51100000000E-03 0. -1.
         11    1    4    4    0    0 -0.45387097860E-02 -0.30216560843E-02  0.55291415252E-01  0.55561965530E-01  0.51100000000E-03 0.  1.
</event>
<event>
 8    1  0.1123470E+005  0.1043930E+01  0.7957747E-01            NaN
         13   -1    0    0    0    0  0.00000000000E+00  0.00000000000E+00  0.74505805969E-08  0.10566000000E+00  0.10566000000E+00 0.  1.
     999900   -1    0    0    0    0 -0.00000000000E+00 -0.00000000000E+00 -0.74505805969E-08  0.93827000000E+00  0.93827000000E+00 0.  1.
     999902    2    1    2    0    0  0.59697556346E-02  0.15963362458E-01 -0.16014011342E-01  0.10205437758E+01  0.10202757876E+01 0.  0.
     999903    2    3    3    0    0 -0.14122097878E-01 -0.11717426160E+00 -0.49957259964E-01  0.12965576171E+00  0.19637909551E-01 0.  0.
         14    1    1    2    0    0 -0.59697556346E-02 -0.15963362458E-01  0.16014011342E-01  0.23386224205E-01  0.00000000000E+00 0.  1.
     999901    1    3    3    0    0  0.20091853512E-01  0.13313762406E+00  0.33943248621E-01  0.89088801409E+00  0.88000000000E+00 0.  1.
        -11    1    4    4    0    0 -0.28357055850E-02 -0.12442167062E-02 -0.88000829025E-03  0.32595761945E-02  0.51100000000E-03 0.  1.
         11    1    4    4    0    0 -0.11286392293E-01 -0.11593004489E+00 -0.49077251673E-01  0.12639618551E+00  0.51100000000E-03 0. -1.
</event>
<event>
 8    1  0.1123470E+005  0.1043930E+01  0.7957747E-01            NaN
         13   -1    0    0    0    0  0.00000000000E+00  0.00000000000E+00  0.74505805969E-08  0.10566000000E+00  0.10566000000E+00 0. -1.
     999900   -1    0    0    0    0 -0.00000000000E+00 -0.00000000000E+00 -0.74505805969E-08  0.93827000000E+00  0.93827000000E+00 0. -1.
     999902    2    1    2    0    0 -0.27513193382E-01  0.16771529111E-03  0.87662042868E-02  0.10150535342E+01  0.10146427091E+01 0.  0.
     999903    2    3    3    0    0 -0.96361964405E-01 -0.18820660939E-02 -0.81383355263E-01  0.12777043511E+00  0.20319035837E-01 0.  0.
         14    1    1    2    0    0  0.27513193382E-01 -0.16771529111E-03 -0.87662042868E-02  0.28876465783E-01  0.00000000000E+00 0.  1.
     999901    1    3    3    0    0  0.68848771023E-01  0.20497813850E-02  0.90149559550E-01  0.88728309911E+00  0.88000000000E+00 0.  1.
        -11    1    4    4    0    0 -0.28539785673E-01 -0.81488838175E-02 -0.17923264297E-01  0.34676046456E-01  0.51100000000E-03 0. -1.
         11    1    4    4    0    0 -0.67822178732E-01  0.62668177236E-02 -0.63460090967E-01  0.93094388654E-01  0.51100000000E-03 0.  1.
</event>
<event>
 8    1  0.1123470E+005  0.1043930E+01  0.7957747E-01            NaN
         13   -1    0    0    0    0  0.00000000000E+00  0.00000000000E+00  0.74505805969E-08  0.10566000000E+00  0.10566000000E+00 0.  1.
     999900   -1    0    0    0    0 -0.00000000000E+00 -0.00000000000E+00 -0.74505805969E-08  0.93827000000E+00  0.93827000000E+00 0. -1.
     999902    2    1    2    0    0 -0.10579155291E-01  0.23995943049E-01  0.19641991693E-03  0.10177047757E+01  0.10173668208E+01 0.  0.
     999903    2    3    3    0    0 -0.21594846175E-01 -0.38153990570E-01 -0.11830926563E+00  0.12752077381E+00  0.18504081761E-01 0.  0.
         14    1    1    2    0    0  0.10579155291E-01 -0.23995943049E-01 -0.19641991693E-03  0.26225224313E-01  0.00000000000E+00 0.  1.
     999901    1    3    3    0    0  0.11015690884E-01  0.62149933619E-01  0.11850568554E+00  0.89018400188E+00  0.88000000000E+00 0.  1.
        -11    1    4    4    0    0 -0.12138888851E-01 -0.28898329730E-01 -0.59653790818E-01  0.67389182839E-01  0.51100000000E-03 0.  1.
         11    1    4    4    0    0 -0.94559573241E-02 -0.92556608397E-02 -0.58655474808E-01  0.60131590969E-01  0.51100000000E-03 0. -1.
</event>
<event>
 8    1  0.1123470E+005  0.1043930E+01  0.7957747E-01            NaN
         13   -1    0    0    0    0  0.00000000000E+00  0.00000000000E+00  0.74505805969E-08  0.10566000000E+00  0.10566000000E+00 0. -1.
     999900   -1    0    0    0    0 -0.00000000000E+00 -0.00000000000E+00 -0.74505805969E-08  0.93827000000E+00  0.93827000000E+00 0.  1.
     999902    2    1    2    0    0  0.14683392262E-01 -0.17970028102E-01  0.12381486927E-02  0.10206908750E+01  0.10204262861E+01 0.  0.
     999903    2    3    3    0    0  0.82861030467E-01 -0.85381473900E-01 -0.57391190071E-01  0.13354382252E+00  0.19602484006E-01 0.  0.
         14    1    1    2    0    0 -0.14683392262E-01  0.17970028102E-01 -0.12381486927E-02  0.23239124994E-01  0.00000000000E+00 0.  1.
     999901    1    3    3    0    0 -0.68177638205E-01  0.67411445797E-01  0.58629338764E-01  0.88714705249E+00  0.88000000000E+00 0.  1.
        -11    1    4    4    0    0  0.30152389444E-01 -0.18517188570E-01 -0.18645183906E-01  0.39999460816E-01  0.51100000000E-03 0.  1.
         11    1    4    4    0    0  0.52708641024E-01 -0.66864285329E-01 -0.38746006166E-01  0.93544361701E-01  0.51100000000E-03 0. -1.
</event>
<event>
 8    1  0.1123470E+005  0.1043930E+01  0.7957747E-01            NaN
         13   -1    0    0    0    0  0.00000000000E+00  0.00000000000E+00  0.74505805969E-08  0.10566000000E+00  0.10566000000E+00 0.  1.
     999900   -1    0    0    0    0 -0.00000000000E+00 -0.00000000000E+00 -0.74505805969E-08  0.93827000000E+00  0.93827000000E+00 0.  1.
     999902    2    1    2    0    0 -0.12168725423E-02 -0.69275569240E-02 -0.25097627056E-01  0.10178654128E+01  0.10175316387E+01 0.  0.
     999903    2    3    3    0    0 -0.56072122344E-01  0.81851045913E-01 -0.81750334766E-01  0.12989003696E+00  0.18564154861E-01 0.  0.
         14    1    1    2    0    0  0.12168725423E-02  0.69275569240E-02  0.25097627056E-01  0.26064587232E-01  0.00000000000E+00 0.  1.
     999901    1    3    3    0    0  0.54855249801E-01 -0.88778602837E-01  0.56652707710E-01  0.88797537581E+00  0.88000000000E+00 0. -1.
        -11    1    4    4    0    0 -0.12313278777E-01  0.32473968725E-01 -0.24133033692E-01  0.42294679514E-01  0.51100000000E-03 0.  1.
         11    1    4    4    0    0 -0.43758843567E-01  0.49377077188E-01 -0.57617301073E-01  0.87595357445E-01  0.51100000000E-03 0. -1.
</event>
<event>
 8    1  0.1123470E+005  0.1043930E+01  0.7957747E-01            NaN
         13   -1    0    0    0    0  0.00000000000E+00  0.00000000000E+00  0.74505805969E-08  0.10566000000E+00  0.10566000000E+00 0. -1.
     999900   -1    0    0    0    0 -0.00000000000E+00 -0.00000000000E+00 -0.74505805969E-08  0.93827000000E+00  0.93827000000E+00 0. -1.
     999902    2    1    2    0    0 -0.14729098782E-01  0.12428493504E-01 -0.13348948532E-01  0.10204862753E+01  0.10202169523E+01 0.  0.
     999903    2    3    3    0    0 -0.12405007252E+00  0.12396297714E-01  0.39004598047E-01  0.13217778710E+00  0.20187125698E-01 0.  0.
         14    1    1    2    0    0  0.14729098782E-01 -0.12428493504E-01  0.13348948532E-01  0.23443724717E-01  0.00000000000E+00 0. -1.
     999901    1    3    3    0    0  0.10932097374E+00  0.32195790216E-04 -0.52353546579E-01  0.88830848818E+00  0.88000000000E+00 0. -1.
        -11    1    4    4    0    0 -0.27224234038E-01 -0.44931272314E-03  0.16840443240E-01  0.32019095091E-01  0.51100000000E-03 0. -1.
         11    1    4    4    0    0 -0.96825838486E-01  0.12845610437E-01  0.22164154807E-01  0.10015869201E+00  0.51100000000E-03 0.  1.
</event>
<event>
 8    1  0.1190394E+005  0.1043930E+01  0.7957747E-01            NaN
         13   -1    0    0    0    0  0.00000000000E+00  0.00000000000E+00  0.74505805969E-08  0.10566000000E+00  0.10566000000E+00 0.  1.
     999900   -1    0    0    0    0 -0.00000000000E+00 -0.00000000000E+00 -0.74505805969E-08  0.93827000000E+00  0.93827000000E+00 0. -1.
     999902    2    1    2    0    0  0.14570682239E-01  0.17558855469E-01  0.12593131764E-01  0.10178684353E+01  0.10175347397E+01 0.  0.
     999903    2    3    3    0    0 -0.23702279390E-02 -0.19417995617E-01  0.12734831068E+00  0.12948617916E+00  0.12899683201E-01 0.  0.
         14    1    1    2    0    0 -0.14570682239E-01 -0.17558855469E-01 -0.12593131764E-01  0.26061564687E-01  0.00000000000E+00 0. -1.
     999901    1    3    3    0    0  0.16940910178E-01  0.36976851087E-01 -0.11475517892E+00  0.88838225615E+00  0.88000000000E+00 0. -1.
        -11    1    4    4    0    0  0.25996130028E-02 -0.87800433901E-02  0.86378066648E-01  0.86863563526E-01  0.51100000000E-03 0.  1.
         11    1    4    4    0    0 -0.49698409417E-02 -0.10637952227E-01  0.40970244033E-01  0.42622615637E-01  0.51100000000E-03 0. -1.
</event>
<event>
 8    1  0.1123470E+005  0.1043930E+01  0.7957747E-01            NaN
         13   -1    0    0    0    0  0.00000000000E+00  0.00000000000E+00  0.74505805969E-08  0.10566000000E+00  0.10566000000E+00 0.  1.
     999900   -1    0    0    0    0 -0.00000000000E+00 -0.00000000000E+00 -0.74505805969E-08  0.93827000000E+00  0.93827000000E+00 0.  1.
     999902    2    1    2    0    0 -0.16709512039E-01  0.14729263049E-02 -0.16578220346E-01  0.10203457957E+01  0.10200731974E+01 0.  0.
     999903    2    3    3    0    0  0.93817639625E-01  0.35995037347E-01 -0.80762247096E-01  0.13044264548E+00  0.19883434969E-01 0.  0.
         14    1    1    2    0    0  0.16709512039E-01 -0.14729263049E-02  0.16578220346E-01  0.23584204340E-01  0.00000000000E+00 0.  1.
     999901    1    3    3    0    0 -0.11052715166E+00 -0.34522111043E-01  0.64184026750E-01  0.88990315018E+00  0.88000000000E+00 0. -1.
        -11    1    4    4    0    0  0.72192385919E-01  0.19065820426E-01 -0.54534313888E-01  0.92463498773E-01  0.51100000000E-03 0. -1.
         11    1    4    4    0    0  0.21625253706E-01  0.16929216922E-01 -0.26227933208E-01  0.37979146710E-01  0.51100000000E-03 0.  1.
</event>
<event>
 8    1  0.1123470E+005  0.1043930E+01  0.7957747E-01            NaN
         13   -1    0    0    0    0  0.00000000000E+00  0.00000000000E+00  0.74505805969E-08  0.10566000000E+00  0.10566000000E+00 0.  1.
     999900   -1    0    0    0    0 -0.00000000000E+00 -0.00000000000E+00 -0.74505805969E-08  0.93827000000E+00  0.93827000000E+00 0. -1.
     999902    2    1    2    0    0 -0.15566016342E-01  0.14810690573E-01 -0.46467264057E-02  0.10219470637E+01  0.10217106007E+01 0.  0.
     999903    2    3    3    0    0 -0.40720989466E-01  0.98923823933E-01  0.78134346386E-01  0.13371258013E+00  0.18164693084E-01 0.  0.
         14    1    1    2    0    0  0.15566016342E-01 -0.14810690573E-01  0.46467264057E-02  0.21982936253E-01  0.00000000000E+00 0.  1.
     999901    1    3    3    0    0  0.25154973123E-01 -0.84113133359E-01 -0.82781072792E-01  0.88823448362E+00  0.88000000000E+00 0. -1.
        -11    1    4    4    0    0 -0.29186451634E-01  0.81211979157E-01  0.69773375301E-01  0.11097666214E+00  0.51100000000E-03 0. -1.
         11    1    4    4    0    0 -0.11534537831E-01  0.17711844775E-01  0.83609710857E-02  0.22735917989E-01  0.51100000000E-03 0.  1.
</event>
<event>
 8    1  0.1123470E+005  0.1043930E+01  0.7957747E-01            NaN
         13   -1    0    0    0    0  0.00000000000E+00  0.00000000000E+00  0.74505805969E-08  0.10566000000E+00  0.10566000000E+00 0. -1.
     999900   -1    0    0    0    0 -0.00000000000E+00 -0.00000000000E+00 -0.74505805969E-08  0.93827000000E+00  0.93827000000E+00 0.  1.
     999902    2    1    2    0    0 -0.13135132298E-01  0.83415963140E-02 -0.17439534908E-01  0.10205579802E+01  0.10202903213E+01 0.  0.
     999903    2    3    3    0    0  0.12142230156E+00 -0.26504199035E-01  0.26235388146E-01  0.12857847860E+00  0.19956995876E-01 0.  0.
         14    1    1    2    0    0  0.13135132298E-01 -0.83415963140E-02  0.17439534908E-01  0.23372019753E-01  0.00000000000E+00 0. -1.
     999901    1    3    3    0    0 -0.13455743386E+00  0.34845795349E-01 -0.43674923054E-01  0.89197950165E+00  0.88000000000E+00 0. -1.
        -11    1    4    4    0    0  0.84303154748E-01 -0.91571919482E-02  0.15313836657E-01  0.86172215818E-01  0.51100000000E-03 0. -1.
         11    1    4    4    0    0  0.37119146813E-01 -0.17347007087E-01  0.10921551488E-01  0.42406262779E-01  0.51100000000E-03 0.  1.
</event>
<event>
 8    1  0.1123470E+005  0.1043930E+01  0.7957747E-01            NaN
         13   -1    0    0    0    0  0.00000000000E+00  0.00000000000E+00  0.74505805969E-08  0.10566000000E+00  0.10566000000E+00 0.  1.
     999900   -1    0    0    0    0 -0.00000000000E+00 -0.00000000000E+00 -0.74505805969E-08  0.93827000000E+00  0.93827000000E+00 0.  1.
     999902    2    1    2    0    0 -0.13799020621E-01  0.26398951690E-02  0.16180492070E-01  0.10225012730E+01  0.10222767057E+01 0.  0.
     999903    2    3    3    0    0 -0.71275758548E-01  0.81136999388E-01 -0.74312775374E-01  0.13252689011E+00  0.19430429538E-01 0.  0.
         14    1    1    2    0    0  0.13799020621E-01 -0.26398951690E-02 -0.16180492070E-01  0.21428726986E-01  0.00000000000E+00 0. -1.
     999901    1    3    3    0    0  0.57476737927E-01 -0.78497104219E-01  0.90493267445E-01  0.88997438290E+00  0.88000000000E+00 0. -1.
        -11    1    4    4    0    0 -0.33387252721E-01  0.48596750334E-01 -0.48254489336E-01  0.76191270165E-01  0.51100000000E-03 0.  1.
         11    1    4    4    0    0 -0.37888505827E-01  0.32540249054E-01 -0.26058286039E-01  0.56335619945E-01  0.51100000000E-03 0. -1.
</event>
<event>
 8    1  0.1143612E+005  0.1043930E+01  0.7957747E-01            NaN
         13   -1    0    0    0    0  0.00000000000E+00  0.00000000000E+00  0.74505805969E-08  0.10566000000E+00  0.10566000000E+00 0.  1.
     999900   -1    0    0    0    0 -0.00000000000E+00 -0.00000000000E+00 -0.74505805969E-08  0.93827000000E+00  0.93827000000E+00 0.  1.
     999902    2    1    2    0    0 -0.96801185928E-02 -0.21701331118E-01 -0.97557279358E-02  0.10182429080E+01  0.10179188538E+01 0.  0.
     999903    2    3    3    0    0 -0.34509931477E-01 -0.10733099025E-01  0.12140791188E+00  0.12810768111E+00  0.19119678554E-01 0.  0.
         14    1    1    2    0    0  0.96801185928E-02  0.21701331118E-01  0.97557279358E-02  0.25687092008E-01  0.00000000000E+00 0.  1.
     999901    1    3    3    0    0  0.24829812884E-01 -0.10968232093E-01 -0.13116363981E+00  0.89013522688E+00  0.88000000000E+00 0.  1.
        -11    1    4    4    0    0 -0.25641575833E-01 -0.37818397488E-02  0.55683007252E-01  0.61421910918E-01  0.51100000000E-03 0. -1.
         11    1    4    4    0    0 -0.88683556442E-02 -0.69512592758E-02  0.65724904626E-01  0.66685770195E-01  0.51100000000E-03 0.  1.
</event>
<event>
 8    1  0.1123470E+005  0.1043930E+01  0.7957747E-01            NaN
         13   -1    0    0    0    0  0.00000000000E+00  0.00000000000E+00  0.74505805969E-08  0.10566000000E+00  0.10566000000E+00 0.  1.
     999900   -1    0    0    0    0 -0.00000000000E+00 -0.00000000000E+00 -0.74505805969E-08  0.93827000000E+00  0.93827000000E+00 0. -1.
     999902    2    1    2    0    0 -0.14227837262E-02  0.24000334557E-01  0.78285494087E-03  0.10198747878E+01  0.10195910600E+01 0.  0.
     999903    2    3    3    0    0  0.83585652060E-01 -0.93040462580E-01 -0.18662313052E-01  0.12785287276E+00  0.18841078430E-01 0.  0.
         14    1    1    2    0    0  0.14227837262E-02 -0.24000334557E-01 -0.78285494087E-03  0.24055212206E-01  0.00000000000E+00 0. -1.
     999901    1    3    3    0    0 -0.85008435786E-01  0.11704079714E+00  0.19445167993E-01  0.89202191504E+00  0.88000000000E+00 0.  1.
        -11    1    4    4    0    0  0.52590898229E-01 -0.54942464468E-01 -0.20263945756E-01  0.78710644750E-01  0.51100000000E-03 0.  1.
         11    1    4    4    0    0  0.30994753830E-01 -0.38097998112E-01  0.16016327041E-02  0.49142228006E-01  0.51100000000E-03 0. -1.
</event>
<event>
 8    1  0.1123470E+005  0.1043930E+01  0.7957747E-01            NaN
         13   -1    0    0    0    0  0.00000000000E+00  0.00000000000E+00  0.74505805969E-08  0.10566000000E+00  0.10566000000E+00 0.  1.
     999900   -1    0    0    0    0 -0.00000000000E+00 -0.00000000000E+00 -0.74505805969E-08  0.93827000000E+00  0.93827000000E+00 0. -1.
     999902    2    1    2    0    0  0.97102137581E-02 -0.16548080961E-01 -0.12365757842E-01  0.10211037169E+01  0.10208485497E+01 0.  0.
     999903    2    3    3    0    0 -0.63995748945E-01  0.91755319326E-01 -0.63316185057E-01  0.12994820772E+00  0.19055258882E-01 0.  0.
         14    1    1    2    0    0 -0.97102137581E-02  0.16548080961E-01  0.12365757842E-01  0.22826283134E-01  0.00000000000E+00 0.  1.
     999901    1    3    3    0    0  0.73705962703E-01 -0.10830340029E+00  0.50950427215E-01  0.89115550915E+00  0.88000000000E+00 0.  1.
        -11    1    4    4    0    0 -0.23384937631E-01  0.28588125854E-01 -0.11415704397E-01  0.38661552940E-01  0.51100000000E-03 0. -1.
         11    1    4    4    0    0 -0.40610811315E-01  0.63167193472E-01 -0.51900480659E-01  0.91286654778E-01  0.51100000000E-03 0.  1.
</event>
<event>
 8    1  0.1123470E+005  0.1043930E+01  0.7957747E-01            NaN
         13   -1    0    0    0    0  0.00000000000E+00  0.00000000000E+00  0.74505805969E-08  0.10566000000E+00  0.10566000000E+00 0.  1.
     999900   -1    0    0    0    0 -0.00000000000E+00 -0.00000000000E+00 -0.74505805969E-08  0.93827000000E+00  0.93827000000E+00 0. -1.
     999902    2    1    2    0    0  0.18923309825E-01  0.86725264979E-02  0.11119718930E-01  0.10203301585E+01  0.10200571944E+01 0.  0.
     999903    2    3    3    0    0 -0.72973833572E-01  0.19720646614E-01 -0.10160962450E+00  0.12832396411E+00  0.20698784628E-01 0.  0.
         14    1    1    2    0    0 -0.18923309825E-01 -0.86725264979E-02 -0.11119718930E-01  0.23599841518E-01  0.00000000000E+00 0. -1.
     999901    1    3    3    0    0  0.91897143397E-01 -0.11048120116E-01  0.11272934343E+00  0.89200619437E+00  0.88000000000E+00 0.  1.
        -11    1    4    4    0    0 -0.42284315291E-01  0.12269641995E-01 -0.41932991121E-01  0.60804147060E-01  0.51100000000E-03 0.  1.
         11    1    4    4    0    0 -0.30689518281E-01  0.74510046187E-02 -0.59676633381E-01  0.67519817053E-01  0.51100000000E-03 0. -1.
</event>
<event>
 7    1  0.1356232E+005  0.1043930E+01  0.7957747E-01            NaN
         13   -1    0    0    0    0  0.00000000000E+00  0.00000000000E+00  0.74505805969E-08  0.10566000000E+00  0.10566000000E+00 0.  1.
     999900   -1    0    0    0    0 -0.00000000000E+00 -0.00000000000E+00 -0.74505805969E-08  0.93827000000E+00  0.93827000000E+00 0. -1.
     999903    2    1    2    0    0  0.26893238059E-01 -0.71866922349E-01 -0.22751294757E-01  0.82643658542E-01  0.20597380973E-01 0.  0.
         14    1    1    2    0    0 -0.19661637076E-01 -0.64062909403E-01  0.22911148553E-01  0.70820597722E-01  0.00000000000E+00 0. -1.
     999901    1    1    2    0    0 -0.72316009829E-02  0.13592983175E+00 -0.15985379603E-03  0.89046574374E+00  0.88000000000E+00 0. -1.
        -11    1    3    3    0    0  0.20216821486E-01 -0.39573275820E-01 -0.37938647047E-02  0.44602898566E-01  0.51100000000E-03 0. -1.
         11    1    3    3    0    0  0.66764165732E-02 -0.32293646529E-01 -0.18957430052E-01  0.38040759977E-01  0.51100000000E-03 0.  1.
</event>
<event>
 8    1  0.1123470E+005  0.1043930E+01  0.7957747E-01            NaN
         13   -1    0    0    0    0  0.00000000000E+00  0.00000000000E+00  0.74505805969E-08  0.10566000000E+00  0.10566000000E+00 0.  1.
     999900   -1    0    0    0    0 -0.00000000000E+00 -0.00000000000E+00 -0.74505805969E-08  0.93827000000E+00  0.93827000000E+00 0.  1.
     999902    2    1    2    0    0 -0.50606857374E-02  0.12369554408E-01  0.16902368256E-01  0.10223822282E+01  0.10221551321E+01 0.  0.
     999903    2    3    3    0    0  0.23365258450E-01  0.18001031874E-01  0.12995258401E+00  0.13467726646E+00  0.19501783482E-01 0.  0.
         14    1    1    2    0    0  0.50606857374E-02 -0.12369554408E-01 -0.16902368256E-01  0.21547771788E-01  0.00000000000E+00 0. -1.
     999901    1    3    3    0    0 -0.28425944187E-01 -0.56314774662E-02 -0.11305021575E+00  0.88770496175E+00  0.88000000000E+00 0.  1.
        -11    1    4    4    0    0  0.12538004215E-03  0.79133156104E-02  0.15029073606E-01  0.16993247440E-01  0.51100000000E-03 0.  1.
         11    1    4    4    0    0  0.23239878408E-01  0.10087716263E-01  0.11492351040E+00  0.11768401902E+00  0.51100000000E-03 0. -1.
</event>
<event>
 8    1  0.1123470E+005  0.1043930E+01  0.7957747E-01            NaN
         13   -1    0    0    0    0  0.00000000000E+00  0.00000000000E+00  0.74505805969E-08  0.10566000000E+00  0.10566000000E+00 0.  1.
     999900   -1    0    0    0    0 -0.00000000000E+00 -0.00000000000E+00 -0.74505805969E-08  0.93827000000E+00  0.93827000000E+00 0. -1.
     999902    2    1    2    0    0 -0.13693018193E-01  0.19213984566E-01 -0.35677072966E-02  0.10200678022E+01  0.10197886627E+01 0.  0.
     999903    2    3    3    0    0 -0.97819445203E-01  0.62787876924E-01 -0.61527359849E-01  0.13308682089E+00  0.20384418972E-01 0.  0.
         14    1    1    2    0    0  0.13693018193E-01 -0.19213984566E-01  0.35677072966E-02  0.23862197834E-01  0.00000000000E+00 0.  1.
     999901    1    3    3    0    0  0.84126427010E-01 -0.43573892358E-01  0.57959652553E-01  0.88698098127E+00  0.88000000000E+00 0.  1.
        -11    1    4    4    0    0 -0.71378049549E-01  0.47150490879E-01 -0.34762317471E-01  0.92339994502E-01  0.51100000000E-03 0.  1.
         11    1    4    4    0    0 -0.26441395654E-01  0.15637386045E-01 -0.26765042378E-01  0.40746826391E-01  0.51100000000E-03 0. -1.
</event>
<event>
 8    1  0.1123470E+005  0.1043930E+01  0.7957747E-01            NaN
         13   -1    0    0    0    0  0.00000000000E+00  0.00000000000E+00  0.74505805969E-08  0.10566000000E+00  0.10566000000E+00 0.  1.
     999900   -1    0    0    0    0 -0.00000000000E+00 -0.00000000000E+00 -0.74505805969E-08  0.93827000000E+00  0.93827000000E+00 0. -1.
     999902    2    1    2    0    0  0.19606595527E-01  0.13258504553E-01  0.37624687722E-02  0.10199641346E+01  0.10196825355E+01 0.  0.
     999903    2    3    3    0    0  0.10407871699E+00  0.50571713793E-01 -0.61883771037E-01  0.13270022594E+00  0.19745158407E-01 0.  0.
         14    1    1    2    0    0 -0.19606595527E-01 -0.13258504553E-01 -0.37624687722E-02  0.23965865359E-01  0.00000000000E+00 0.  1.
     999901    1    3    3    0    0 -0.84472121459E-01 -0.37313209239E-01  0.65646239809E-01  0.88726390870E+00  0.88000000000E+00 0.  1.
        -11    1    4    4    0    0  0.45926500329E-01  0.32475044417E-01 -0.25556231101E-01  0.61783930042E-01  0.51100000000E-03 0.  1.
         11    1    4    4    0    0  0.58152216657E-01  0.18096669376E-01 -0.36327539936E-01  0.70916295895E-01  0.51100000000E-03 0. -1.
</event>
<event>
 8    1  0.1172383E+005  0.1043930E+01  0.7957747E-01            NaN
         13   -1    0    0    0    0  0.00000000000E+00  0.00000000000E+00  0.74505805969E-08  0.10566000000E+00  0.10566000000E+00 0.  1.
     999900   -1    0    0    0    0 -0.00000000000E+00 -0.00000000000E+00 -0.74505805969E-08  0.93827000000E+00  0.93827000000E+00 0.  1.
     999902    2    1    2    0    0  0.21628242939E-01  0.39856884192E-02 -0.15103159389E-01  0.10172509440E+01  0.10169010331E+01 0.  0.
     999903    2    3    3    0    0 -0.10291966438E+00 -0.63076384726E-01 -0.29144685648E-01  0.12584381630E+00  0.20400141550E-01 0.  0.
         14    1    1    2    0    0 -0.21628242939E-01 -0.39856884192E-02  0.15103159389E-01  0.26679055986E-01  0.00000000000E+00 0. -1.
     999901    1    3    3    0    0  0.12454790731E+00  0.67062073145E-01  0.14041526259E-01  0.89140712771E+00  0.88000000000E+00 0. -1.
        -11    1    4    4    0    0 -0.41588049343E-01 -0.22152127955E-01 -0.16520985963E-02  0.47151597766E-01  0.51100000000E-03 0. -1.
         11    1    4    4    0    0 -0.61331615033E-01 -0.40924256771E-01 -0.27492587052E-01  0.78692218539E-01  0.51100000000E-03 0.  1.
</event>
<event>
 8    1  0.1123470E+005  0.1043930E+01  0.7957747E-01            NaN
         13   -1    0    0    0    0  0.00000000000E+00  0.00000000000E+00  0.74505805969E-08  0.10566000000E+00  0.10566000000E+00 0. -1.
     999900   -1    0    0    0    0 -0.00000000000E+00 -0.00000000000E+00 -0.74505805969E-08  0.93827000000E+00  0.93827000000E+00 0. -1.
     999902    2    1    2    0    0 -0.22215519832E-01 -0.50463650583E-02 -0.86622829405E-02  0.10195572638E+01  0.10192659045E+01 0.  0.
     999903    2    3    3    0    0 -0.99691492731E-01  0.76031645206E-01  0.33809504939E-01  0.13142437802E+00  0.20250425139E-01 0.  0.
         14    1    1    2    0    0  0.22215519832E-01  0.50463650583E-02  0.86622829405E-02  0.24372736150E-01  0.00000000000E+00 0.  1.
     999901    1    3    3    0    0  0.77475972899E-01 -0.81078010264E-01 -0.42471787879E-01  0.88813288583E+00  0.88000000000E+00 0. -1.
        -11    1    4    4    0    0 -0.56999315030E-01  0.52730649411E-01  0.27501253214E-01  0.82377323036E-01  0.51100000000E-03 0.  1.
         11    1    4    4    0    0 -0.42692177701E-01  0.23300995794E-01  0.63082517248E-02  0.49047054985E-01  0.51100000000E-03 0. -1.
</event>
<event>
 8    1  0.1123470E+005  0.1043930E+01  0.7957747E-01            NaN
         13   -1    0    0    0    0  0.00000000000E+00  0.00000000000E+00  0.74505805969E-08  0.10566000000E+00  0.10566000000E+00 0. -1.
     999900   -1    0    0    0    0 -0.00000000000E+00 -0.00000000000E+00 -0.74505805969E-08  0.93827000000E+00  0.93827000000E+00 0. -1.
     999902    2    1    2    0    0  0.22157156294E-01  0.30679544780E-02  0.79684311555E-02  0.10201845201E+01  0.10199081367E+01 0.  0.
     999903    2    3    3    0    0  0.67977511753E-01  0.69947370990E-01  0.88033919441E-01  0.13283856518E+00  0.19558543276E-01 0.  0.
         14    1    1    2    0    0 -0.22157156294E-01 -0.30679544780E-02 -0.79684311555E-02  0.23745479881E-01  0.00000000000E+00 0.  1.
     999901    1    3    3    0    0 -0.45820355460E-01 -0.66879416512E-01 -0.80065488286E-01  0.88734595494E+00  0.88000000000E+00 0. -1.
        -11    1    4    4    0    0  0.66511307981E-01  0.66881276834E-01  0.88534251753E-01  0.12936550597E+00  0.51100000000E-03 0. -1.
         11    1    4    4    0    0  0.14662037727E-02  0.30660941559E-02 -0.50033231213E-03  0.34730592133E-02  0.51100000000E-03 0.  1.
</event>
<event>
 8    1  0.1123470E+005  0.1043930E+01  0.7957747E-01            NaN
         13   -1    0    0    0    0  0.00000000000E+00  0.00000000000E+00  0.74505805969E-08  0.10566000000E+00  0.10566000000E+00 0.  1.
     999900   -1    0    0    0    0 -0.00000000000E+00 -0.00000000000E+00 -0.74505805969E-08  0.93827000000E+00  0.93827000000E+00 0.  1.
     999902    2    1    2    0    0  0.13503899150E-02  0.47481559331E-02 -0.21509111111E-01  0.10218616879E+01  0.10216233645E+01 0.  0.
     999903    2    3    3    0    0  0.18643458611E-01  0.90569282723E-01  0.89597091518E-01  0.13056549455E+00  0.21664164830E-01 0.  0.
         14    1    1    2    0    0 -0.13503899150E-02 -0.47481559331E-02  0.21509111111E-01  0.22068312089E-01  0.00000000000E+00 0.  1.
     999901    1    3    3    0    0 -0.17293068696E-01 -0.85821126790E-01 -0.11110620263E+00  0.89129619336E+00  0.88000000000E+00 0.  1.
        -11    1    4    4    0    0  0.33323331404E-02  0.42499590084E-01  0.54089448027E-01  0.68871250245E-01  0.51100000000E-03 0. -1.
         11    1    4    4    0    0  0.15311125471E-01  0.48069692640E-01  0.35507643492E-01  0.61694244310E-01  0.51100000000E-03 0.  1.
</event>
<event>
 8    1  0.1123470E+005  0.1043930E+01  0.7957747E-01            NaN
         13   -1    0    0    0    0  0.00000000000E+00  0.00000000000E+00  0.74505805969E-08  0.10566000000E+00  0.10566000000E+00 0.  1.
     999900   -1    0    0    0    0 -0.00000000000E+00 -0.00000000000E+00 -0.74505805969E-08  0.93827000000E+00  0.93827000000E+00 0. -1.
     999902    2    1    2    0    0 -0.85763999385E-02  0.12223223728E-01 -0.17270849037E-01  0.10210992300E+01  0.10208439613E+01 0.  0.
     999903    2    3    3    0    0 -0.56664089266E-01 -0.11312588607E+00  0.23277009010E-01  0.12999376259E+00  0.18662102032E-01 0.  0.
         14    1    1    2    0    0  0.85763999385E-02 -0.12223223728E-01  0.17270849037E-01  0.22830770041E-01  0.00000000000E+00 0.  1.
     999901    1    3    3    0    0  0.48087689328E-01  0.12534910979E+00 -0.40547858046E-01  0.89110546737E+00  0.88000000000E+00 0. -1.
        -11    1    4    4    0    0 -0.28801842211E-01 -0.48541095350E-01  0.19007406524E-02  0.56477057188E-01  0.51100000000E-03 0.  1.
         11    1    4    4    0    0 -0.27862247055E-01 -0.64584790715E-01  0.21376268357E-01  0.73516705398E-01  0.51100000000E-03 0. -1.
</event>
<event>
 8    1  0.1123470E+005  0.1043930E+01  0.7957747E-01            NaN
         13   -1    0    0    0    0  0.00000000000E+00  0.00000000000E+00  0.74505805969E-08  0.10566000000E+00  0.10566000000E+00 0. -1.
     999900   -1    0    0    0    0 -0.00000000000E+00 -0.00000000000E+00 -0.74505805969E-08  0.93827000000E+00  0.93827000000E+00 0.  1.
     999902    2    1    2    0    0 -0.16181839474E-01  0.57182242537E-02  0.15847803368E-01  0.10205697156E+01  0.10203023284E+01 0.  0.
     999903    2    3    3    0    0 -0.13983708662E-01 -0.38629229485E-01 -0.12059027795E+00  0.12894934878E+00  0.19953895275E-01 0.  0.
         14    1    1    2    0    0  0.16181839474E-01 -0.57182242537E-02 -0.15847803368E-01  0.23360284437E-01  0.00000000000E+00 0.  1.
     999901    1    3    3    0    0 -0.21981308116E-02  0.44347453739E-01  0.13643808131E+00  0.89162036678E+00  0.88000000000E+00 0. -1.
        -11    1    4    4    0    0 -0.84727293732E-02 -0.13253482795E-01 -0.73552296210E-01  0.75217307503E-01  0.51100000000E-03 0.  1.
         11    1    4    4    0    0 -0.55109792893E-02 -0.25375746690E-01 -0.47037981736E-01  0.53732041275E-01  0.51100000000E-03 0. -1.
</event>
<event>
 8    1  0.1123470E+005  0.1043930E+01  0.7957747E-01            NaN
         13   -1    0    0    0    0  0.00000000000E+00  0.00000000000E+00  0.74505805969E-08  0.10566000000E+00  0.10566000000E+00 0.  1.
     999900   -1    0    0    0    0 -0.00000000000E+00 -0.00000000000E+00 -0.74505805969E-08  0.93827000000E+00  0.93827000000E+00 0. -1.
     999902    2    1    2    0    0  0.54350114763E-02 -0.14113736029E-01 -0.18175943092E-01  0.10202846664E+01  0.10200106365E+01 0.  0.
     999903    2    3    3    0    0 -0.45075794546E-01 -0.89337362405E-01 -0.85416871484E-01  0.13308047459E+00  0.20034450516E-01 0.  0.
         14    1    1    2    0    0 -0.54350114763E-02  0.14113736029E-01  0.18175943092E-01  0.23645333614E-01  0.00000000000E+00 0.  1.
     999901    1    3    3    0    0  0.50510806022E-01  0.75223626377E-01  0.67240928392E-01  0.88720419180E+00  0.88000000000E+00 0.  1.
        -11    1    4    4    0    0 -0.37160530519E-02 -0.67386320032E-02 -0.15207050974E-01  0.17050915867E-01  0.51100000000E-03 0. -1.
         11    1    4    4    0    0 -0.41359741494E-01 -0.82598730402E-01 -0.70209820509E-01  0.11602955872E+00  0.51100000000E-03 0.  1.
</event>
<event>
 8    1  0.1123470E+005  0.1043930E+01  0.7957747E-01            NaN
         13   -1    0    0    0    0  0.00000000000E+00  0.00000000000E+00  0.74505805969E-08  0.10566000000E+00  0.10566000000E+00 0.  1.
     999900   -1    0    0    0    0 -0.00000000000E+00 -0.00000000000E+00 -0.74505805969E-08  0.93827000000E+00  0.93827000000E+00 0.  1.
     999902    2    1    2    0    0 -0.72532171721E-02  0.16852939909E-01 -0.14259660485E-01  0.10206927743E+01  0.10204282291E+01 0.  0.
     999903    2    3    3    0    0  0.56164606020E-01 -0.13057626755E-01  0.11315799842E+00  0.12875571253E+00  0.21173953717E-01 0.  0.
         14    1    1    2    0    0  0.72532171721E-02 -0.16852939909E-01  0.14259660485E-01  0.23237225740E-01  0.00000000000E+00 0.  1.
     999901    1    3    3    0    0 -0.63417823192E-01  0.29910566664E-01 -0.12741765890E+00  0.89193706174E+00  0.88000000000E+00 0.  1.
        -11    1    4    4    0    0  0.51106391682E-01 -0.18009539548E-01  0.97056011400E-01  0.11115906286E+00  0.51100000000E-03 0.  1.
         11    1    4    4    0    0  0.50582143379E-02  0.49519127927E-02  0.16101987018E-01  0.17596649668E-01  0.51100000000E-03 0. -1.
</event>
<event>
 8    1  0.1123470E+005  0.1043930E+01  0.7957747E-01            NaN
         13   -1    0    0    0    0  0.00000000000E+00  0.00000000000E+00  0.74505805969E-08  0.10566000000E+00  0.10566000000E+00 0. -1.
     999900   -1    0    0    0    0 -0.00000000000E+00 -0.00000000000E+00 -0.74505805969E-08  0.93827000000E+00  0.93827000000E+00 0.  1.
     999902    2    1    2    0    0  0.20504149169E-01  0.14001765356E-01  0.60132578673E-03  0.10190939142E+01  0.10187912322E+01 0.  0.
     999903    2    3    3    0    0  0.10768200456E+00  0.71658684724E-01 -0.81653668984E-02  0.13286530162E+00  0.29259766831E-01 0.  0.
         14    1    1    2    0    0 -0.20504149169E-01 -0.14001765356E-01 -0.60132578673E-03  0.24836085822E-01  0.00000000000E+00 0.  1.
     999901    1    3    3    0    0 -0.87177855390E-01 -0.57656919368E-01  0.87666926851E-02  0.88622861256E+00  0.88000000000E+00 0. -1.
        -11    1    4    4    0    0  0.93910866944E-01  0.59616524977E-01 -0.17025986781E-01  0.11253233459E+00  0.51100000000E-03 0.  1.
         11    1    4    4    0    0  0.13771137615E-01  0.12042159747E-01  0.88606198827E-02  0.20332967031E-01  0.51100000000E-03 0. -1.
</event>
<event>
 8    1  0.1123470E+005  0.1043930E+01  0.7957747E-01            NaN
         13   -1    0    0    0    0  0.00000000000E+00  0.00000000000E+00  0.74505805969E-08  0.10566000000E+00  0.10566000000E+00 0. -1.
     999900   -1    0    0    0    0 -0.00000000000E+00 -0.00000000000E+00 -0.74505805969E-08  0.93827000000E+00  0.93827000000E+00 0.  1.
     999902    2    1    2    0    0  0.21657113100E-01  0.27500031658E-02 -0.23669046893E-01  0.10117303595E+01  0.10112178319E+01 0.  0.
     999903    2    3    3    0    0 -0.11495564584E+00  0.29408897710E-02  0.26501911368E-01  0.11977732972E+00  0.20513606827E-01 0.  0.
         14    1    1    2    0    0 -0.21657113100E-01 -0.27500031658E-02  0.23669046893E-01  0.32199640465E-01  0.00000000000E+00 0. -1.
     999901    1    3    3    0    0  0.13661275894E+00 -0.19088660526E-03 -0.50170958260E-01  0.89195302982E+00  0.88000000000E+00 0.  1.
        -11    1    4    4    0    0 -0.37267276184E-01  0.22197512993E-02 -0.10270697225E-02  0.37350945948E-01  0.51100000000E-03 0. -1.
         11    1    4    4    0    0 -0.77688369659E-01  0.72113847173E-03  0.27528981090E-01  0.82426383772E-01  0.51100000000E-03 0.  1.
</event>
<event>
 8    1  0.1123470E+005  0.1043930E+01  0.7957747E-01            NaN
         13   -1    0    0    0    0  0.00000000000E+00  0.00000000000E+00  0.74505805969E-08  0.10566000000E+00  0.10566000000E+00 0. -1.
     999900   -1    0    0    0    0 -0.00000000000E+00 -0.00000000000E+00 -0.74505805969E-08  0.93827000000E+00  0.93827000000E+00 0.  1.
     999902    2    1    2    0    0 -0.48848208306E-02  0.22905410434E-01  0.36078589887E-02  0.10202332503E+01  0.10199580133E+01 0.  0.
     999903    2    3    3    0    0  0.19042248303E-02  0.24835974138E-01  0.12757143513E+00  0.13151688019E+00  0.20044127070E-01 0.  0.
         14    1    1    2    0    0  0.48848208306E-02 -0.22905410434E-01 -0.36078589887E-02  0.23696749738E-01  0.00000000000E+00 0. -1.
     999901    1    3    3    0    0 -0.67890456609E-02 -0.19305637041E-02 -0.12396357615E+00  0.88871637007E+00  0.88000000000E+00 0.  1.
        -11    1    4    4    0    0  0.80112564211E-02  0.14988141216E-01  0.10239520502E+00  0.10379722413E+00  0.51100000000E-03 0.  1.
         11    1    4    4    0    0 -0.61070315908E-02  0.98478329222E-02  0.25176230119E-01  0.27719656060E-01  0.51100000000E-03 0. -1.
</event>
<event>
 8    1  0.1123470E+005  0.1043930E+01  0.7957747E-01            NaN
         13   -1    0    0    0    0  0.00000000000E+00  0.00000000000E+00  0.74505805969E-08  0.10566000000E+00  0.10566000000E+00 0.  1.
     999900   -1    0    0    0    0 -0.00000000000E+00 -0.00000000000E+00 -0.74505805969E-08  0.93827000000E+00  0.93827000000E+00 0.  1.
     999902    2    1    2    0    0  0.59940087759E-02  0.20165732053E-01  0.59495421988E-02  0.10220672019E+01  0.10218333441E+01 0.  0.
     999903    2    3    3    0    0  0.27438163059E-01  0.70813752062E-01  0.10901266669E+00  0.13434704250E+00  0.19948084032E-01 0.  0.
         14    1    1    2    0    0 -0.59940087759E-02 -0.20165732053E-01 -0.59495421988E-02  0.21862798147E-01  0.00000000000E+00 0. -1.
     999901    1    3    3    0    0 -0.21444154283E-01 -0.50648020009E-01 -0.10306312450E+00  0.88772015935E+00  0.88000000000E+00 0.  1.
        -11    1    4    4    0    0  0.92675656320E-02  0.25579811608E-01  0.23687202239E-01  0.36077128566E-01  0.51100000000E-03 0. -1.
         11    1    4    4    0    0  0.18170597427E-01  0.45233940454E-01  0.85325464455E-01  0.98269913938E-01  0.51100000000E-03 0.  1.
</event>
<event>
 8    1  0.1123470E+005  0.1043930E+01  0.7957747E-01            NaN
         13   -1    0    0    0    0  0.00000000000E+00  0.00000000000E+00  0.74505805969E-08  0.10566000000E+00  0.10566000000E+00 0.  1.
     999900   -1    0    0    0    0 -0.00000000000E+00 -0.00000000000E+00 -0.74505805969E-08  0.93827000000E+00  0.93827000000E+00 0. -1.
     999902    2    1    2    0    0  0.19935366084E-01  0.11542396713E-01  0.35500127583E-02  0.10206223117E+01  0.10203561412E+01 0.  0.
     999903    2    3    3    0    0 -0.10045858670E+00 -0.14923855048E-01 -0.76183195259E-01  0.12846058265E+00  0.19585529417E-01 0.  0.
         14    1    1    2    0    0 -0.19935366084E-01 -0.11542396713E-01 -0.35500127583E-02  0.23307688288E-01  0.00000000000E+00 0.  1.
     999901    1    3    3    0    0  0.12039395278E+00  0.26466251760E-01  0.79733208017E-01  0.89216172907E+00  0.88000000000E+00 0. -1.
        -11    1    4    4    0    0 -0.48059315405E-02  0.25744977772E-02 -0.80086453966E-02  0.97017801906E-02  0.51100000000E-03 0. -1.
         11    1    4    4    0    0 -0.95652655160E-01 -0.17498352825E-01 -0.68174549862E-01  0.11875880246E+00  0.51100000000E-03 0.  1.
</event>
<event>
 8    1  0.1123470E+005  0.1043930E+01  0.7957747E-01            NaN
         13   -1    0    0    0    0  0.00000000000E+00  0.00000000000E+00  0.74505805969E-08  0.10566000000E+00  0.10566000000E+00 0.  1.
     999900   -1    0    0    0    0 -0.00000000000E+00 -0.00000000000E+00 -0.74505805969E-08  0.93827000000E+00  0.93827000000E+00 0. -1.
     999902    2    1    2    0    0 -0.21362513703E-01 -0.19247462601E-02  0.91688097182E-02  0.10206034334E+01  0.10203368265E+01 0.  0.
     999903    2    3    3    0    0  0.59757264774E-01 -0.11324582419E+00  0.84827347628E-02  0.12988839949E+00  0.20087113838E-01 0.  0.
         14    1    1    2    0    0  0.21362513703E-01  0.19247462601E-02 -0.91688097182E-02  0.23326566646E-01  0.00000000000E+00 0. -1.
     999901    1    3    3    0    0 -0.81119778477E-01  0.11132107793E+00  0.68607495540E-03  0.89071503386E+00  0.88000000000E+00 0. -1.
        -11    1    4    4    0    0  0.30186203325E-01 -0.71299364878E-01  0.12400303070E-01  0.78414507206E-01  0.51100000000E-03 0. -1.
         11    1    4    4    0    0  0.29571061449E-01 -0.41946459316E-01 -0.39175683075E-02  0.51473892283E-01  0.51100000000E-03 0.  1.
</event>
<event>
 8    1  0.1123470E+005  0.1043930E+01  0.7957747E-01            NaN
         13   -1    0    0    0    0  0.00000000000E+00  0.00000000000E+00  0.74505805969E-08  0.10566000000E+00  0.10566000000E+00 0. -1.
     999900   -1    0    0    0    0 -0.00000000000E+00 -0.00000000000E+00 -0.74505805969E-08  0.93827000000E+00  0.93827000000E+00 0.  1.
     999902    2    1    2    0    0 -0.45361572313E-02  0.20758786554E-01 -0.71659610593E-02  0.10215055727E+01  0.10212594088E+01 0.  0.
     999903    2    3    3    0    0  0.33342297034E-01  0.12838138487E+00  0.12768333767E-02  0.13409998238E+00  0.19689749019E-01 0.  0.
         14    1    1    2    0    0  0.45361572313E-02 -0.20758786554E-01  0.71659610593E-02  0.22424427295E-01  0.00000000000E+00 0. -1.
     999901    1    3    3    0    0 -0.37878454266E-01 -0.10762259832E+00 -0.84427944360E-02  0.88740559033E+00  0.88000000000E+00 0.  1.
        -11    1    4    4    0    0  0.17510766946E-01  0.89288501660E-01 -0.64459450450E-02  0.91218829286E-01  0.51100000000E-03 0. -1.
         11    1    4    4    0    0  0.15831530088E-01  0.39092883213E-01  0.77227784217E-02  0.42881153091E-01  0.51100000000E-03 0.  1.
</event>
<event>
 8    1  0.1123470E+005  0.1043930E+01  0.7957747E-01            NaN
         13   -1    0    0    0    0  0.00000000000E+00  0.00000000000E+00  0.74505805969E-08  0.10566000000E+00  0.10566000000E+00 0.  1.
     999900   -1    0    0    0    0 -0.00000000000E+00 -0.00000000000E+00 -0.74505805969E-08  0.93827000000E+00  0.93827000000E+00 0.  1.
     999902    2    1    2    0    0 -0.21828946799E-01  0.85178406200E-02 -0.54605473562E-02  0.10198701973E+01  0.10195863599E+01 0.  0.
     999903    2    3    3    0    0  0.19766057136E-01  0.12305334213E+00  0.33795887239E-01  0.13060668570E+00  0.19573510963E-01 0.  0.
         14    1    1    2    0    0  0.21828946799E-01 -0.85178406200E-02  0.54605473562E-02  0.24059802672E-01  0.00000000000E+00 0. -1.
     999901    1    3    3    0    0 -0.41595003935E-01 -0.11453550151E+00 -0.39256434596E-01  0.88926351163E+00  0.88000000000E+00 0. -1.
        -11    1    4    4    0    0  0.16696184923E-01  0.62928298953E-01  0.25091416535E-01  0.69775165388E-01  0.51100000000E-03 0. -1.
         11    1    4    4    0    0  0.30698722132E-02  0.60125043174E-01  0.87044707046E-02  0.60831520311E-01  0.51100000000E-03 0.  1.
</event>
<event>
 8    1  0.1123470E+005  0.1043930E+01  0.7957747E-01            NaN
         13   -1    0    0    0    0  0.00000000000E+00  0.00000000000E+00  0.74505805969E-08  0.10566000000E+00  0.10566000000E+00 0. -1.
     999900   -1    0    0    0    0 -0.00000000000E+00 -0.00000000000E+00 -0.74505805969E-08  0.93827000000E+00  0.93827000000E+00 0. -1.
     999902    2    1    2    0    0  0.13927560802E-01 -0.11837189051E-01  0.14836823468E-01  0.10203879668E+01  0.10201163539E+01 0.  0.
     999903    2    3    3    0    0 -0.84558494732E-01 -0.82478489507E-01 -0.50580578637E-01  0.12967525617E+00  0.17448119202E-01 0.  0.
         14    1    1    2    0    0 -0.13927560802E-01  0.11837189051E-01 -0.14836823468E-01  0.23542033157E-01  0.00000000000E+00 0. -1.
     999901    1    3    3    0    0  0.98486055533E-01  0.70641300456E-01  0.65417402106E-01  0.89071271068E+00  0.88000000000E+00 0.  1.
        -11    1    4    4    0    0 -0.43591619591E-01 -0.44380663509E-01 -0.35936866534E-01  0.71844220988E-01  0.51100000000E-03 0.  1.
         11    1    4    4    0    0 -0.40966875140E-01 -0.38097825998E-01 -0.14643712103E-01  0.57831035177E-01  0.51100000000E-03 0. -1.
</event>
<event>
 8    1  0.1123470E+005  0.1043930E+01  0.7957747E-01            NaN
         13   -1    0    0    0    0  0.00000000000E+00  0.00000000000E+00  0.74505805969E-08  0.10566000000E+00  0.10566000000E+00 0. -1.
     999900   -1    0    0    0    0 -0.00000000000E+00 -0.00000000000E+00 -0.74505805969E-08  0.93827000000E+00  0.93827000000E+00 0. -1.
     999902    2    1    2    0    0  0.39317071895E-02  0.20893287570E-01 -0.26212387296E-02  0.10225090131E+01  0.10222846097E+01 0.  0.
     999903    2    3    3    0    0  0.50769621310E-03  0.96841913122E-01  0.90667750802E-01  0.13431829421E+00  0.21027344837E-01 0.  0.
         14    1    1    2    0    0 -0.39317071895E-02 -0.20893287570E-01  0.26212387296E-02  0.21420986891E-01  0.00000000000E+00 0.  1.
     999901    1    3    3    0    0  0.34240109764E-02 -0.75948625553E-01 -0.93288989531E-01  0.88819071890E+00  0.88000000000E+00 0. -1.
        -11    1    4    4    0    0 -0.47828460953E-02  0.15206237505E-01  0.73822797556E-02  0.17574539858E-01  0.51100000000E-03 0.  1.
         11    1    4    4    0    0  0.52905423084E-02  0.81635675618E-01  0.83285471046E-01  0.11674375435E+00  0.51100000000E-03 0. -1.
</event>
<event>
 8    1  0.1123470E+005  0.1043930E+01  0.7957747E-01            NaN
         13   -1    0    0    0    0  0.00000000000E+00  0.00000000000E+00  0.74505805969E-08  0.10566000000E+00  0.10566000000E+00 0. -1.
     999900   -1    0    0    0    0 -0.00000000000E+00 -0.00000000000E+00 -0.74505805969E-08  0.93827000000E+00  0.93827000000E+00 0.  1.
     999902    2    1    2    0    0  0.20918628080E-01  0.86882808723E-02 -0.66331480158E-02  0.10203275875E+01  0.10200545632E+01 0.  0.
     999903    2    3    3    0    0 -0.63565425312E-01 -0.28557383951E-01  0.10602552456E+00  0.12835406132E+00  0.19423329419E-01 0.  0.
         14    1    1    2    0    0 -0.20918628080E-01 -0.86882808723E-02  0.66331480158E-02  0.23602412543E-01  0.00000000000E+00 0. -1.
     999901    1    3    3    0    0  0.84484053392E-01  0.37245664823E-01 -0.11265867257E+00  0.89197352614E+00  0.88000000000E+00 0.  1.
        -11    1    4    4    0    0 -0.58575853123E-01 -0.27634925403E-01  0.85839048783E-01  0.10753335802E+00  0.51100000000E-03 0. -1.
         11    1    4    4    0    0 -0.49895721899E-02 -0.92245854795E-03  0.20186475776E-01  0.20820703294E-01  0.51100000000E-03 0.  1.
</event>
<event>
 8    1  0.1163053E+005  0.1043930E+01  0.7957747E-01            NaN
         13   -1    0    0    0    0  0.00000000000E+00  0.00000000000E+00  0.74505805969E-08  0.10566000000E+00  0.10566000000E+00 0.  1.
     999900   -1    0    0    0    0 -0.00000000000E+00 -0.00000000000E+00 -0.74505805969E-08  0.93827000000E+00  0.93827000000E+00 0. -1.
     999902    2    1    2    0    0  0.28957691272E-02  0.13483949251E-03 -0.23905767239E-01  0.10198491078E+01  0.10195647666E+01 0.  0.
     999903    2    3    3    0    0 -0.10191817243E+00  0.76109377626E-01 -0.19966451220E-01  0.13036970334E+00  0.20436465970E-01 0.  0.
         14    1    1    2    0    0 -0.28957691272E-02 -0.13483949251E-03  0.23905767239E-01  0.24080892172E-01  0.00000000000E+00 0.  1.
     999901    1    3    3    0    0  0.10481394156E+00 -0.75974538133E-01 -0.39393160188E-02  0.88947940448E+00  0.88000000000E+00 0.  1.
        -11    1    4    4    0    0 -0.51097989021E-01  0.50792627284E-01 -0.10748751059E-01  0.72847046877E-01  0.51100000000E-03 0. -1.
         11    1    4    4    0    0 -0.50820183411E-01  0.25316750342E-01 -0.92177001614E-02  0.57522656467E-01  0.51100000000E-03 0.  1.
</event>
<event>
 8    1  0.1123470E+005  0.1043930E+01  0.7957747E-01            NaN
         13   -1    0    0    0    0  0.00000000000E+00  0.00000000000E+00  0.74505805969E-08  0.10566000000E+00  0.10566000000E+00 0.  1.
     999900   -1    0    0    0    0 -0.00000000000E+00 -0.00000000000E+00 -0.74505805969E-08  0.93827000000E+00  0.93827000000E+00 0. -1.
     999902    2    1    2    0    0 -0.42804770591E-02  0.11956599754E-01  0.19144281432E-01  0.10209564005E+01  0.10206978914E+01 0.  0.
     999903    2    3    3    0    0  0.10882242918E+00 -0.38814657782E-02 -0.66838162151E-01  0.12942059511E+00  0.20614646471E-01 0.  0.
         14    1    1    2    0    0  0.42804770591E-02 -0.11956599754E-01 -0.19144281432E-01  0.22973599480E-01  0.00000000000E+00 0. -1.
     999901    1    3    3    0    0 -0.11310290624E+00  0.15838065532E-01  0.85982443583E-01  0.89153580541E+00  0.88000000000E+00 0.  1.
        -11    1    4    4    0    0  0.73900293923E-01 -0.79092680858E-02 -0.54486373226E-01  0.92156583877E-01  0.51100000000E-03 0.  1.
         11    1    4    4    0    0  0.34922135261E-01  0.40278023076E-02 -0.12351788925E-01  0.37264011234E-01  0.51100000000E-03 0. -1.
</event>
<event>
 8    1  0.1123470E+005  0.1043930E+01  0.7957747E-01            NaN
         13   -1    0    0    0    0  0.00000000000E+00  0.00000000000E+00  0.74505805969E-08  0.10566000000E+00  0.10566000000E+00 0.  1.
     999900   -1    0    0    0    0 -0.00000000000E+00 -0.00000000000E+00 -0.74505805969E-08  0.93827000000E+00  0.93827000000E+00 0.  1.
     999902    2    1    2    0    0  0.90454793028E-02  0.22865549947E-02  0.28768489639E-01  0.10136864052E+01  0.10132351421E+01 0.  0.
     999903    2    3    3    0    0 -0.10886411993E-02 -0.52699088961E-01 -0.10539746686E+00  0.12176341228E+00  0.30648383839E-01 0.  0.
         14    1    1    2    0    0 -0.90454793028E-02 -0.22865549947E-02 -0.28768489639E-01  0.30243594788E-01  0.00000000000E+00 0. -1.
     999901    1    3    3    0    0  0.10134120502E-01  0.54985643956E-01  0.13416595650E+00  0.89192299293E+00  0.88000000000E+00 0. -1.
        -11    1    4    4    0    0 -0.44375996847E-02 -0.39784145901E-01 -0.46444652568E-01  0.61317513233E-01  0.51100000000E-03 0.  1.
         11    1    4    4    0    0  0.33489584855E-02 -0.12914943060E-01 -0.58952814294E-01  0.60445899046E-01  0.51100000000E-03 0. -1.
</event>
<event>
 8    1  0.1123470E+005  0.1043930E+01  0.7957747E-01            NaN
         13   -1    0    0    0    0  0.00000000000E+00  0.00000000000E+00  0.74505805969E-08  0.10566000000E+00  0.10566000000E+00 0. -1.
     999900   -1    0    0    0    0 -0.00000000000E+00 -0.00000000000E+00 -0.74505805969E-08  0.93827000000E+00  0.93827000000E+00 0.  1.
     999902    2    1    2    0    0  0.11111635312E-01  0.20460903451E-01 -0.10970975525E-02  0.10206207608E+01  0.10203545544E+01 0.  0.
     999903    2    3    3    0    0 -0.68964341739E-01  0.11124666999E+00 -0.67896121145E-03  0.13233342421E+00  0.19487743805E-01 0.  0.
         14    1    1    2    0    0 -0.11111635312E-01 -0.20460903451E-01  0.10970975525E-02  0.23309239206E-01  0.00000000000E+00 0. -1.
     999901    1    3    3    0    0  0.80075977050E-01 -0.90785766538E-01 -0.41813634105E-03  0.88828733659E+00  0.88000000000E+00 0.  1.
        -11    1    4    4    0    0 -0.44359114452E-01  0.77400327912E-01  0.80845628043E-02  0.89577692941E-01  0.51100000000E-03 0.  1.
         11    1    4    4    0    0 -0.24605227287E-01  0.33846342076E-01 -0.87635240157E-02  0.42755731264E-01  0.51100000000E-03 0. -1.
</event>
<event>
 8    1  0.1123470E+005  0.1043930E+01  0.7957747E-01            NaN
         13   -1    0    0    0    0  0.00000000000E+00  0.00000000000E+00  0.74505805969E-08  0.10566000000E+00  0.10566000000E+00 0.  1.
     999900   -1    0    0    0    0 -0.00000000000E+00 -0.00000000000E+00 -0.74505805969E-08  0.93827000000E+00  0.93827000000E+00 0.  1.
     999902    2    1    2    0    0 -0.21058878589E-02  0.19042131317E-03 -0.22803622615E-01  0.10210285540E+01  0.10207716845E+01 0.  0.
     999903    2    3    3    0    0  0.49727703307E-02 -0.37241860708E-01 -0.12704911470E+00  0.13405707434E+00  0.20448398453E-01 0.  0.
         14    1    1    2    0    0  0.21058878589E-02 -0.19042131317E-03  0.22803622615E-01  0.22901445988E-01  0.00000000000E+00 0.  1.
     999901    1    3    3    0    0 -0.70786581897E-02  0.37432282021E-01  0.10424549209E+00  0.88697147968E+00  0.88000000000E+00 0. -1.
        -11    1    4    4    0    0 -0.13077379558E-02 -0.23174257286E-01 -0.45686524348E-01  0.51247204874E-01  0.51100000000E-03 0.  1.
         11    1    4    4    0    0  0.62805082865E-02 -0.14067603422E-01 -0.81362590353E-01  0.82809869462E-01  0.51100000000E-03 0. -1.
</event>
<event>
 8    1  0.1123470E+005  0.1043930E+01  0.7957747E-01            NaN
         13   -1    0    0    0    0  0.00000000000E+00  0.00000000000E+00  0.74505805969E-08  0.10566000000E+00  0.10566000000E+00 0.  1.
     999900   -1    0    0    0    0 -0.00000000000E+00 -0.00000000000E+00 -0.74505805969E-08  0.93827000000E+00  0.93827000000E+00 0. -1.
     999902    2    1    2    0    0 -0.59009137537E-02  0.36200566009E-02 -0.22114245720E-01  0.10207574849E+01  0.10204944280E+01 0.  0.
     999903    2    3    3    0    0  0.46109033375E-01 -0.11301332435E+00 -0.43907984950E-01  0.13127260743E+00  0.20162635729E-01 0.  0.
         14    1    1    2    0    0  0.59009137537E-02 -0.36200566009E-02  0.22114245720E-01  0.23172515113E-01  0.00000000000E+00 0.  1.
     999901    1    3    3    0    0 -0.52009947129E-01  0.11663338095E+00  0.21793739231E-01  0.88948487746E+00  0.88000000000E+00 0.  1.
        -11    1    4    4    0    0  0.37585074998E-01 -0.97288022028E-01 -0.29756375822E-01  0.10845874845E+00  0.51100000000E-03 0. -1.
         11    1    4    4    0    0  0.85239583772E-02 -0.15725302323E-01 -0.14151609128E-01  0.22813858978E-01  0.51100000000E-03 0.  1.
</event>
<event>
 8    1  0.1123470E+005  0.1043930E+01  0.7957747E-01            NaN
         13   -1    0    0    0    0  0.00000000000E+00  0.00000000000E+00  0.74505805969E-08  0.10566000000E+00  0.10566000000E+00 0.  1.
     999900   -1    0    0    0    0 -0.00000000000E+00 -0.00000000000E+00 -0.74505805969E-08  0.93827000000E+00  0.93827000000E+00 0. -1.
     999902    2    1    2    0    0  0.11549422678E-01  0.19700827969E-01  0.80934934412E-02  0.10197015782E+01  0.10194137002E+01 0.  0.
     999903    2    3    3    0    0 -0.39024230117E-01  0.25631868879E-01 -0.11883047246E+00  0.12913851770E+00  0.19395678155E-01 0.  0.
         14    1    1    2    0    0 -0.11549422678E-01 -0.19700827969E-01 -0.80934934412E-02  0.24228421800E-01  0.00000000000E+00 0. -1.
     999901    1    3    3    0    0  0.50573652795E-01 -0.59310409100E-02  0.12692396590E+00  0.89056306050E+00  0.88000000000E+00 0.  1.
        -11    1    4    4    0    0 -0.31229243934E-01  0.28217508306E-01 -0.94389184381E-01  0.10334927528E+00  0.51100000000E-03 0.  1.
         11    1    4    4    0    0 -0.77949861837E-02 -0.25856394270E-02 -0.24441288077E-01  0.25789242423E-01  0.51100000000E-03 0. -1.
</event>
<event>
 8    1  0.1123470E+005  0.1043930E+01  0.7957747E-01            NaN
         13   -1    0    0    0    0  0.00000000000E+00  0.00000000000E+00  0.74505805969E-08  0.10566000000E+00  0.10566000000E+00 0. -1.
     999900   -1    0    0    0    0 -0.00000000000E+00 -0.00000000000E+00 -0.74505805969E-08  0.93827000000E+00  0.93827000000E+00 0.  1.
     999902    2    1    2    0    0 -0.55300840178E-02 -0.24662849854E-01 -0.51116905736E-02  0.10181430387E+01  0.10178164274E+01 0.  0.
     999903    2    3    3    0    0 -0.94730106404E-01  0.50135495111E-01 -0.67594091948E-01  0.12828041623E+00  0.19988571539E-01 0.  0.
         14    1    1    2    0    0  0.55300840178E-02  0.24662849854E-01  0.51116905736E-02  0.25786961293E-01  0.00000000000E+00 0. -1.
     999901    1    3    3    0    0  0.89200022386E-01 -0.74798344966E-01  0.62482401374E-01  0.88986262248E+00  0.88000000000E+00 0. -1.
        -11    1    4    4    0    0 -0.74651881288E-02  0.24453445968E-03 -0.66522245942E-03  0.75161474720E-02  0.51100000000E-03 0. -1.
         11    1    4    4    0    0 -0.87264918275E-01  0.49890960652E-01 -0.66928869488E-01  0.12076426876E+00  0.51100000000E-03 0.  1.
</event>
<event>
 7    1  0.1123470E+005  0.1043930E+01  0.7957747E-01            NaN
         13   -1    0    0    0    0  0.00000000000E+00  0.00000000000E+00  0.74505805969E-08  0.10566000000E+00  0.10566000000E+00 0.  1.
     999900   -1    0    0    0    0 -0.00000000000E+00 -0.00000000000E+00 -0.74505805969E-08  0.93827000000E+00  0.93827000000E+00 0.  1.
     999903    2    1    2    0    0  0.97992712103E-01 -0.33535119088E-01 -0.88770036192E-02  0.10500003289E+00  0.14799657966E-01 0.  0.
         14    1    1    2    0    0  0.36731491117E-01 -0.28378125711E-01 -0.20069500343E-02  0.46460179800E-01  0.00000000000E+00 0. -1.
     999901    1    1    2    0    0 -0.13472420322E+00  0.61913244799E-01  0.10883953653E-01  0.89246978731E+00  0.88000000000E+00 0. -1.
        -11    1    3    3    0    0  0.83951917018E-01 -0.33973923542E-01 -0.76787706920E-02  0.90892114577E-01  0.51100000000E-03 0.  1.
         11    1    3    3    0    0  0.14040795085E-01  0.43880445415E-03 -0.11982329272E-02  0.14107918313E-01  0.51100000000E-03 0. -1.
</event>
<event>
 8    1  0.1123470E+005  0.1043930E+01  0.7957747E-01            NaN
         13   -1    0    0    0    0  0.00000000000E+00  0.00000000000E+00  0.74505805969E-08  0.10566000000E+00  0.10566000000E+00 0.  1.
     999900   -1    0    0    0    0 -0.00000000000E+00 -0.00000000000E+00 -0.74505805969E-08  0.93827000000E+00  0.93827000000E+00 0.  1.
     999902    2    1    2    0    0 -0.28057888966E-03 -0.19666959387E-01 -0.15635394107E-01  0.10188036480E+01  0.10184937602E+01 0.  0.
     999903    2    3    3    0    0 -0.73525348373E-03 -0.12260918733E+00  0.41225875795E-01  0.13098017847E+00  0.20559204794E-01 0.  0.
         14    1    1    2    0    0  0.28057888966E-03  0.19666959387E-01  0.15635394107E-01  0.25126352002E-01  0.00000000000E+00 0.  1.
     999901    1    3    3    0    0  0.45467459407E-03  0.10294222795E+00 -0.56861269902E-01  0.88782346952E+00  0.88000000000E+00 0.  1.
        -11    1    4    4    0    0 -0.46613948834E-02 -0.33989692831E-01  0.20193951112E-01  0.39813120996E-01  0.51100000000E-03 0. -1.
         11    1    4    4    0    0  0.39261413996E-02 -0.88619494502E-01  0.21031924683E-01  0.91167057477E-01  0.51100000000E-03 0.  1.
</event>
<event>
 8    1  0.1123470E+005  0.1043930E+01  0.7957747E-01            NaN
         13   -1    0    0    0    0  0.00000000000E+00  0.00000000000E+00  0.74505805969E-08  0.10566000000E+00  0.10566000000E+00 0.  1.
     999900   -1    0    0    0    0 -0.00000000000E+00 -0.00000000000E+00 -0.74505805969E-08  0.93827000000E+00  0.93827000000E+00 0.  1.
     999902    2    1    2    0    0  0.10203336961E-01 -0.21349954623E-01 -0.36933754554E-02  0.10199806854E+01  0.10196994797E+01 0.  0.
     999903    2    3    3    0    0 -0.52035316378E-01 -0.11009209984E+00  0.46291775336E-01  0.13192250397E+00  0.20800817087E-01 0.  0.
         14    1    1    2    0    0 -0.10203336961E-01  0.21349954623E-01  0.36933754554E-02  0.23949314600E-01  0.00000000000E+00 0.  1.
     999901    1    3    3    0    0  0.62238653340E-01  0.88742145219E-01 -0.49985150792E-01  0.88805818143E+00  0.88000000000E+00 0.  1.
        -11    1    4    4    0    0 -0.21845274111E-01 -0.64005664132E-01  0.18003911789E-01  0.69988163304E-01  0.51100000000E-03 0. -1.
         11    1    4    4    0    0 -0.30190042268E-01 -0.46086435710E-01  0.28287863547E-01  0.61934340665E-01  0.51100000000E-03 0.  1.
</event>
<event>
 8    1  0.1123470E+005  0.1043930E+01  0.7957747E-01            NaN
         13   -1    0    0    0    0  0.00000000000E+00  0.00000000000E+00  0.74505805969E-08  0.10566000000E+00  0.10566000000E+00 0.  1.
     999900   -1    0    0    0    0 -0.00000000000E+00 -0.00000000000E+00 -0.74505805969E-08  0.93827000000E+00  0.93827000000E+00 0.  1.
     999902    2    1    2    0    0 -0.16449865699E-01  0.10787348551E-01 -0.13120203843E-01  0.10202846047E+01  0.10200105734E+01 0.  0.
     999903    2    3    3    0    0  0.39235272125E-01  0.29483408715E-01  0.11726501810E+00  0.12874061624E+00  0.20356419949E-01 0.  0.
         14    1    1    2    0    0  0.16449865699E-01 -0.10787348551E-01  0.13120203843E-01  0.23645395306E-01  0.00000000000E+00 0. -1.
     999901    1    3    3    0    0 -0.55685137824E-01 -0.18696060164E-01 -0.13038522194E+00  0.89154398845E+00  0.88000000000E+00 0.  1.
        -11    1    4    4    0    0  0.29604925062E-01  0.11016958266E-01  0.60098778306E-01  0.67896606927E-01  0.51100000000E-03 0.  1.
         11    1    4    4    0    0  0.96303470628E-02  0.18466450449E-01  0.57166239793E-01  0.60844009318E-01  0.51100000000E-03 0. -1.
</event>
<event>
 8    1  0.1123470E+005  0.1043930E+01  0.7957747E-01            NaN
         13   -1    0    0    0    0  0.00000000000E+00  0.00000000000E+00  0.74505805969E-08  0.10566000000E+00  0.10566000000E+00 0. -1.
     999900   -1    0    0    0    0 -0.00000000000E+00 -0.00000000000E+00 -0.74505805969E-08  0.93827000000E+00  0.93827000000E+00 0. -1.
     999902    2    1    2    0    0  0.76878615624E-02 -0.22098906718E-01 -0.91388453264E-02  0.10188106173E+01  0.10185009035E+01 0.  0.
     999903    2    3    3    0    0 -0.49899993968E-01  0.52958767767E-01 -0.10439240930E+00  0.12862903073E+00  0.18788612177E-01 0.  0.
         14    1    1    2    0    0 -0.76878615624E-02  0.22098906718E-01  0.91388453264E-02  0.25119382704E-01  0.00000000000E+00 0. -1.
     999901    1    3    3    0    0  0.57587855530E-01 -0.75057674485E-01  0.95253563970E-01  0.89018158656E+00  0.88000000000E+00 0.  1.
        -11    1    4    4    0    0 -0.27481401559E-01  0.15969470168E-01 -0.40859835235E-01  0.51769089866E-01  0.51100000000E-03 0.  1.
         11    1    4    4    0    0 -0.22418592409E-01  0.36989297599E-01 -0.63532574061E-01  0.76859940868E-01  0.51100000000E-03 0. -1.
</event>
<event>
 8    1  0.1123470E+005  0.1043930E+01  0.7957747E-01            NaN
         13   -1    0    0    0    0  0.00000000000E+00  0.00000000000E+00  0.74505805969E-08  0.10566000000E+00  0.10566000000E+00 0. -1.
     999900   -1    0    0    0    0 -0.00000000000E+00 -0.00000000000E+00 -0.74505805969E-08  0.93827000000E+00  0.93827000000E+00 0.  1.
     999902    2    1    2    0    0 -0.22073930586E-01  0.48154282262E-03  0.98952046791E-02  0.10197348482E+01  0.10194477698E+01 0.  0.
     999903    2    3    3    0    0  0.21789909302E-01  0.91504118831E-01 -0.85647216277E-01  0.12881537934E+00  0.20252219327E-01 0.  0.
         14    1    1    2    0    0  0.22073930586E-01 -0.48154282262E-03 -0.98952046791E-02  0.24195151801E-01  0.00000000000E+00 0.  1.
     999901    1    3    3    0    0 -0.43863839888E-01 -0.91022576008E-01  0.95542420957E-01  0.89091946886E+00  0.88000000000E+00 0. -1.
        -11    1    4    4    0    0  0.17001224087E-01  0.60397037965E-01 -0.44114649176E-01  0.76702067823E-01  0.51100000000E-03 0.  1.
         11    1    4    4    0    0  0.47886852148E-02  0.31107080866E-01 -0.41532567102E-01  0.52113311516E-01  0.51100000000E-03 0. -1.
</event>
<event>
 8    1  0.1123470E+005  0.1043930E+01  0.7957747E-01            NaN
         13   -1    0    0    0    0  0.00000000000E+00  0.00000000000E+00  0.74505805969E-08  0.10566000000E+00  0.10566000000E+00 0. -1.
     999900   -1    0    0    0    0 -0.00000000000E+00 -0.00000000000E+00 -0.74505805969E-08  0.93827000000E+00  0.93827000000E+00 0.  1.
     999902    2    1    2    0    0  0.12713697992E-01  0.19807071216E-01 -0.49739450818E-03  0.10203884285E+01  0.10201168264E+01 0.  0.
     999903    2    3    3    0    0 -0.97707115992E-01 -0.73995170657E-01  0.30765435449E-01  0.12799334713E+00  0.20342543959E-01 0.  0.
         14    1    1    2    0    0 -0.12713697992E-01 -0.19807071216E-01  0.49739450818E-03  0.23541571487E-01  0.00000000000E+00 0.  1.
     999901    1    3    3    0    0  0.11042081398E+00  0.93802241873E-01 -0.31262829957E-01  0.89239508138E+00  0.88000000000E+00 0.  1.
        -11    1    4    4    0    0 -0.40187574851E-01 -0.31379671815E-01  0.25757494794E-02  0.51055074008E-01  0.51100000000E-03 0. -1.
         11    1    4    4    0    0 -0.57519541141E-01 -0.42615498842E-01  0.28189685969E-01  0.76938273120E-01  0.51100000000E-03 0.  1.
</event>
<event>
 8    1  0.1123470E+005  0.1043930E+01  0.7957747E-01            NaN
         13   -1    0    0    0    0  0.00000000000E+00  0.00000000000E+00  0.74505805969E-08  0.10566000000E+00  0.10566000000E+00 0.  1.
     999900   -1    0    0    0    0 -0.00000000000E+00 -0.00000000000E+00 -0.74505805969E-08  0.93827000000E+00  0.93827000000E+00 0.  1.
     999902    2    1    2    0    0  0.21019396447E-01 -0.35291533907E-02  0.10616754566E-01  0.10201185442E+01  0.10198406046E+01 0.  0.
     999903    2    3    3    0    0  0.10653059339E+00  0.72400703860E-01  0.25137066641E-01  0.13260046128E+00  0.18983702597E-01 0.  0.
         14    1    1    2    0    0 -0.21019396447E-01  0.35291533907E-02 -0.10616754566E-01  0.23811455817E-01  0.00000000000E+00 0. -1.
     999901    1    3    3    0    0 -0.85511196941E-01 -0.75929857251E-01 -0.14520312075E-01  0.88751808291E+00  0.88000000000E+00 0.  1.
        -11    1    4    4    0    0  0.47832440102E-01  0.43583412001E-01  0.10024071705E-01  0.65484343642E-01  0.51100000000E-03 0.  1.
         11    1    4    4    0    0  0.58698153285E-01  0.28817291859E-01  0.15112994937E-01  0.67116117633E-01  0.51100000000E-03 0. -1.
</event>
<event>
 8    1  0.1123470E+005  0.1043930E+01  0.7957747E-01            NaN
         13   -1    0    0    0    0  0.00000000000E+00  0.00000000000E+00  0.74505805969E-08  0.10566000000E+00  0.10566000000E+00 0. -1.
     999900   -1    0    0    0    0 -0.00000000000E+00 -0.00000000000E+00 -0.74505805969E-08  0.93827000000E+00  0.93827000000E+00 0. -1.
     999902    2    1    2    0    0 -0.16977190750E-02  0.19903414944E-01  0.12274912991E-01  0.10204842826E+01  0.10202149133E+01 0.  0.
     999903    2    3    3    0    0  0.98354218921E-02 -0.73755205883E-01 -0.10209988613E+00  0.12807936032E+00  0.21056349936E-01 0.  0.
         14    1    1    2    0    0  0.16977190750E-02 -0.19903414944E-01 -0.12274912991E-01  0.23445717422E-01  0.00000000000E+00 0.  1.
     999901    1    3    3    0    0 -0.11533140967E-01  0.93658620827E-01  0.11437479913E+00  0.89240492226E+00  0.88000000000E+00 0.  1.
        -11    1    4    4    0    0 -0.60683880098E-02 -0.32737602920E-01 -0.45898990101E-01  0.56705858527E-01  0.51100000000E-03 0.  1.
         11    1    4    4    0    0  0.15903809902E-01 -0.41017602963E-01 -0.56200896033E-01  0.71373501793E-01  0.51100000000E-03 0. -1.
</event>
<event>
 8    1  0.1123470E+005  0.1043930E+01  0.7957747E-01            NaN
         13   -1    0    0    0    0  0.00000000000E+00  0.00000000000E+00  0.74505805969E-08  0.10566000000E+00  0.10566000000E+00 0.  1.
     999900   -1    0    0    0    0 -0.00000000000E+00 -0.00000000000E+00 -0.74505805969E-08  0.93827000000E+00  0.93827000000E+00 0.  1.
     999902    2    1    2    0    0  0.41699621453E-03  0.19519377956E-02 -0.23572739830E-01  0.10202729078E+01  0.10199986022E+01 0.  0.
     999903    2    3    3    0    0 -0.33885771421E-01  0.22913646950E-01  0.11951835388E+00  0.12780938800E+00  0.19424778657E-01 0.  0.
         14    1    1    2    0    0 -0.41699621453E-03 -0.19519377956E-02  0.23572739830E-01  0.23657092174E-01  0.00000000000E+00 0.  1.
     999901    1    3    3    0    0  0.34302767635E-01 -0.20961709155E-01 -0.14309109371E+00  0.89246351982E+00  0.88000000000E+00 0.  1.
        -11    1    4    4    0    0 -0.34450627024E-01  0.15671367519E-01  0.96127031202E-01  0.10331071925E+00  0.51100000000E-03 0.  1.
         11    1    4    4    0    0  0.56485560347E-03  0.72422794311E-02  0.23391322678E-01  0.24498668756E-01  0.51100000000E-03 0. -1.
</event>
<event>
 8    1  0.1123470E+005  0.1043930E+01  0.7957747E-01            NaN
         13   -1    0    0    0    0  0.00000000000E+00  0.00000000000E+00  0.74505805969E-08  0.10566000000E+00  0.10566000000E+00 0. -1.
     999900   -1    0    0    0    0 -0.00000000000E+00 -0.00000000000E+00 -0.74505805969E-08  0.93827000000E+00  0.93827000000E+00 0. -1.
     999902    2    1    2    0    0 -0.10441180124E-01  0.14862959733E-01  0.15413412072E-01  0.10201077607E+01  0.10198295663E+01 0.  0.
     999903    2    3    3    0    0  0.75371640193E-01  0.72859951495E-01  0.77422411916E-01  0.13186646056E+00  0.20126521704E-01 0.  0.
         14    1    1    2    0    0  0.10441180124E-01 -0.14862959733E-01 -0.15413412072E-01  0.23822239318E-01  0.00000000000E+00 0.  1.
     999901    1    3    3    0    0 -0.85812820317E-01 -0.57996991762E-01 -0.62008999844E-01  0.88824130012E+00  0.88000000000E+00 0. -1.
        -11    1    4    4    0    0  0.18894038495E-01  0.28139682533E-01  0.32537051535E-01  0.46986671166E-01  0.51100000000E-03 0. -1.
         11    1    4    4    0    0  0.56477601698E-01  0.44720268962E-01  0.44885360381E-01  0.84879789392E-01  0.51100000000E-03 0.  1.
</event>
<event>
 8    1  0.1123470E+005  0.1043930E+01  0.7957747E-01            NaN
         13   -1    0    0    0    0  0.00000000000E+00  0.00000000000E+00  0.74505805969E-08  0.10566000000E+00  0.10566000000E+00 0.  1.
     999900   -1    0    0    0    0 -0.00000000000E+00 -0.00000000000E+00 -0.74505805969E-08  0.93827000000E+00  0.93827000000E+00 0.  1.
     999902    2    1    2    0    0 -0.49228493902E-03 -0.15674017003E-01 -0.10525254918E-01  0.10250435460E+01  0.10248695395E+01 0.  0.
     999903    2    3    3    0    0 -0.33974822499E-01  0.34171408542E-02  0.12744786565E+00  0.13345948680E+00  0.20062670398E-01 0.  0.
         14    1    1    2    0    0  0.49228493902E-03  0.15674017003E-01  0.10525254918E-01  0.18886453996E-01  0.00000000000E+00 0.  1.
     999901    1    3    3    0    0  0.33482537560E-01 -0.19091157857E-01 -0.13797312056E+00  0.89158405920E+00  0.88000000000E+00 0.  1.
        -11    1    4    4    0    0 -0.24147712982E-01 -0.69861017618E-02  0.86486369961E-01  0.90067035979E-01  0.51100000000E-03 0. -1.
         11    1    4    4    0    0 -0.98271095174E-02  0.10403242616E-01  0.40961495686E-01  0.43392450820E-01  0.51100000000E-03 0.  1.
</event>
<event>
 8    1  0.1123470E+005  0.1043930E+01  0.7957747E-01            NaN
         13   -1    0    0    0    0  0.00000000000E+00  0.00000000000E+00  0.74505805969E-08  0.10566000000E+00  0.10566000000E+00 0.  1.
     999900   -1    0    0    0    0 -0.00000000000E+00 -0.00000000000E+00 -0.74505805969E-08  0.93827000000E+00  0.93827000000E+00 0.  1.
     999902    2    1    2    0    0  0.69143377474E-02 -0.52125929161E-02 -0.21632165342E-01  0.10206291466E+01  0.10203631340E+01 0.  0.
     999903    2    3    3    0    0  0.49176355061E-01 -0.11586250718E+00 -0.36004028476E-01  0.13257732825E+00  0.20929009389E-01 0.  0.
         14    1    1    2    0    0 -0.69143377474E-02  0.52125929161E-02  0.21632165342E-01  0.23300853392E-01  0.00000000000E+00 0. -1.
     999901    1    3    3    0    0 -0.42262017314E-01  0.11064991426E+00  0.14371863134E-01  0.88805181835E+00  0.88000000000E+00 0. -1.
        -11    1    4    4    0    0  0.32911375159E-01 -0.72324418880E-01 -0.32868824994E-01  0.85991865654E-01  0.51100000000E-03 0. -1.
         11    1    4    4    0    0  0.16264979902E-01 -0.43538088296E-01 -0.31352034821E-02  0.46585462599E-01  0.51100000000E-03 0.  1.
</event>
<event>
 8    1  0.1123470E+005  0.1043930E+01  0.7957747E-01            NaN
         13   -1    0    0    0    0  0.00000000000E+00  0.00000000000E+00  0.74505805969E-08  0.10566000000E+00  0.10566000000E+00 0. -1.
     999900   -1    0    0    0    0 -0.00000000000E+00 -0.00000000000E+00 -0.74505805969E-08  0.93827000000E+00  0.93827000000E+00 0. -1.
     999902    2    1    2    0    0  0.20433310713E-01  0.87702020738E-02 -0.10294622445E-01  0.10194266149E+01  0.10191320853E+01 0.  0.
     999903    2    3    3    0    0 -0.72005978044E-01 -0.28764588426E-01 -0.10097518554E+00  0.12915876354E+00  0.21765469956E-01 0.  0.
         14    1    1    2    0    0 -0.20433310713E-01 -0.87702020738E-02  0.10294622445E-01  0.24503385121E-01  0.00000000000E+00 0.  1.
     999901    1    3    3    0    0  0.92439288757E-01  0.37534790500E-01  0.90680563098E-01  0.89026785134E+00  0.88000000000E+00 0.  1.
        -11    1    4    4    0    0 -0.59456091217E-01 -0.19462094080E-01 -0.91620689591E-01  0.11094328177E+00  0.51100000000E-03 0. -1.
         11    1    4    4    0    0 -0.12549886828E-01 -0.93024943461E-02 -0.93544959516E-02  0.18215481766E-01  0.51100000000E-03 0.  1.
</event>
<event>
 8    1  0.1123470E+005  0.1043930E+01  0.7957747E-01            NaN
         13   -1    0    0    0    0  0.00000000000E+00  0.00000000000E+00  0.74505805969E-08  0.10566000000E+00  0.10566000000E+00 0.  1.
     999900   -1    0    0    0    0 -0.00000000000E+00 -0.00000000000E+00 -0.74505805969E-08  0.93827000000E+00  0.93827000000E+00 0. -1.
     999902    2    1    2    0    0  0.53299562311E-02 -0.22206648458E-01  0.62806753644E-02  0.10202447609E+01  0.10199697944E+01 0.  0.
     999903    2    3    3    0    0 -0.69301758291E-01  0.59110714745E-01  0.89787819453E-01  0.12942724338E+00  0.19817883513E-01 0.  0.
         14    1    1    2    0    0 -0.53299562311E-02  0.22206648458E-01 -0.62806753644E-02  0.23685239120E-01  0.00000000000E+00 0. -1.
     999901    1    3    3    0    0  0.74631714522E-01 -0.81317363202E-01 -0.83507144089E-01  0.89081751750E+00  0.88000000000E+00 0. -1.
        -11    1    4    4    0    0 -0.40528033803E-01  0.25298930571E-01  0.36877539434E-01  0.60355376295E-01  0.51100000000E-03 0. -1.
         11    1    4    4    0    0 -0.28773724488E-01  0.33811784174E-01  0.52910280019E-01  0.69071867085E-01  0.51100000000E-03 0.  1.
</event>
<event>
 8    1  0.1123470E+005  0.1043930E+01  0.7957747E-01            NaN
         13   -1    0    0    0    0  0.00000000000E+00  0.00000000000E+00  0.74505805969E-08  0.10566000000E+00  0.10566000000E+00 0. -1.
     999900   -1    0    0    0    0 -0.00000000000E+00 -0.00000000000E+00 -0.74505805969E-08  0.93827000000E+00  0.93827000000E+00 0. -1.
     999902    2    1    2    0    0  0.17750733328E-01  0.61753368729E-02 -0.13263793345E-01  0.10209267060E+01  0.10206675206E+01 0.  0.
     999903    2    3    3    0    0  0.89134518978E-01  0.91452092625E-01 -0.33924354310E-01  0.13368681249E+00  0.20318816390E-01 0.  0.
         14    1    1    2    0    0 -0.17750733328E-01 -0.61753368729E-02  0.13263793345E-01  0.23003293961E-01  0.00000000000E+00 0. -1.
     999901    1    3    3    0    0 -0.71383785650E-01 -0.85276755752E-01  0.20660560965E-01  0.88723989355E+00  0.88000000000E+00 0. -1.
        -11    1    4    4    0    0  0.62821655742E-01  0.75186684559E-01 -0.21273634603E-01  0.10026179041E+00  0.51100000000E-03 0.  1.
         11    1    4    4    0    0  0.26312863236E-01  0.16265408066E-01 -0.12650719706E-01  0.33425022084E-01  0.51100000000E-03 0. -1.
</event>
<event>
 8    1  0.1123470E+005  0.1043930E+01  0.7957747E-01            NaN
         13   -1    0    0    0    0  0.00000000000E+00  0.00000000000E+00  0.74505805969E-08  0.10566000000E+00  0.10566000000E+00 0.  1.
     999900   -1    0    0    0    0 -0.00000000000E+00 -0.00000000000E+00 -0.74505805969E-08  0.93827000000E+00  0.93827000000E+00 0. -1.
     999902    2    1    2    0    0 -0.20981848899E-01  0.10571918168E-01 -0.26566112040E-02  0.10202855288E+01  0.10200115191E+01 0.  0.
     999903    2    3    3    0    0 -0.80760101012E-01 -0.10137404774E+00  0.17423170610E-02  0.13117097525E+00  0.20097203984E-01 0.  0.
         14    1    1    2    0    0  0.20981848899E-01 -0.10571918168E-01  0.26566112040E-02  0.23644471237E-01  0.00000000000E+00 0.  1.
     999901    1    3    3    0    0  0.59778252113E-01  0.11194596591E+00 -0.43989282650E-02  0.88911455352E+00  0.88000000000E+00 0.  1.
        -11    1    4    4    0    0 -0.58892323749E-01 -0.67861495728E-01 -0.72755888856E-02  0.90148120966E-01  0.51100000000E-03 0. -1.
         11    1    4    4    0    0 -0.21867777263E-01 -0.33512552009E-01  0.90179059466E-02  0.41022854279E-01  0.51100000000E-03 0.  1.
</event>
<event>
 8    1  0.1123470E+005  0.1043930E+01  0.7957747E-01            NaN
         13   -1    0    0    0    0  0.00000000000E+00  0.00000000000E+00  0.74505805969E-08  0.10566000000E+00  0.10566000000E+00 0. -1.
     999900   -1    0    0    0    0 -0.00000000000E+00 -0.00000000000E+00 -0.74505805969E-08  0.93827000000E+00  0.93827000000E+00 0.  1.
     999902    2    1    2    0    0 -0.26767805953E-02  0.89124815828E-02  0.21839878279E-01  0.10201902071E+01  0.10199139576E+01 0.  0.
     999903    2    3    3    0    0 -0.75283718023E-01  0.94079549042E-01 -0.46474298099E-01  0.13047563299E+00  0.18585765328E-01 0.  0.
         14    1    1    2    0    0  0.26767805953E-02 -0.89124815828E-02 -0.21839878279E-01  0.23739792871E-01  0.00000000000E+00 0.  1.
     999901    1    3    3    0    0  0.72606937428E-01 -0.85167067459E-01  0.68314176378E-01  0.88971457414E+00  0.88000000000E+00 0.  1.
        -11    1    4    4    0    0 -0.22648916342E-01  0.42148939952E-01 -0.15392961792E-01  0.50266399755E-01  0.51100000000E-03 0.  1.
         11    1    4    4    0    0 -0.52634801681E-01  0.51930609090E-01 -0.31081336307E-01  0.80209233234E-01  0.51100000000E-03 0. -1.
</event>
<event>
 7    1  0.1123470E+005  0.1043930E+01  0.7957747E-01            NaN
         13   -1    0    0    0    0  0.00000000000E+00  0.00000000000E+00  0.74505805969E-08  0.10566000000E+00  0.10566000000E+00 0. -1.
     999900   -1    0    0    0    0 -0.00000000000E+00 -0.00000000000E+00 -0.74505805969E-08  0.93827000000E+00  0.93827000000E+00 0.  1.
     999902    2    1    2    0    0 -0.58037304555E-02 -0.21242240197E-01  0.79496681258E-02  0.10205181808E+01  0.10202495989E+01 0.  0.
         14    1    1    2    0    0  0.58037304555E-02  0.21242240197E-01 -0.79496681258E-02  0.23411819218E-01  0.00000000000E+00 0.  1.
     999901    1    3    3    0    0  0.22347965201E-01  0.21247016001E-01  0.11985861304E+00  0.88866020185E+00  0.88000000000E+00 0. -1.
        -11    1    3    3    0    0 -0.15980867402E-01 -0.51094749641E-01 -0.75898785209E-01  0.92881366705E-01  0.51100000000E-03 0.  1.
         11    1    3    3    0    0 -0.12170828255E-01  0.86054934438E-02 -0.36010159702E-01  0.38976612225E-01  0.51100000000E-03 0. -1.
</event>
<event>
 8    1  0.1123470E+005  0.1043930E+01  0.7957747E-01            NaN
         13   -1    0    0    0    0  0.00000000000E+00  0.00000000000E+00  0.74505805969E-08  0.10566000000E+00  0.10566000000E+00 0.  1.
     999900   -1    0    0    0    0 -0.00000000000E+00 -0.00000000000E+00 -0.74505805969E-08  0.93827000000E+00  0.93827000000E+00 0.  1.
     999902    2    1    2    0    0  0.16674186304E-01  0.14690509550E-01  0.73044730068E-02  0.10205378029E+01  0.10202696762E+01 0.  0.
     999903    2    3    3    0    0 -0.51981106059E-01 -0.10113191745E+00  0.58795238472E-01  0.12880932253E+00  0.14326946254E-01 0.  0.
         14    1    1    2    0    0 -0.16674186304E-01 -0.14690509550E-01 -0.73044730068E-02  0.23392197110E-01  0.00000000000E+00 0. -1.
     999901    1    3    3    0    0  0.68655292363E-01  0.11582242700E+00 -0.51490765465E-01  0.89172848036E+00  0.88000000000E+00 0.  1.
        -11    1    4    4    0    0 -0.39484585331E-01 -0.67557841119E-01  0.34492910014E-01  0.85516760565E-01  0.51100000000E-03 0. -1.
         11    1    4    4    0    0 -0.12496520728E-01 -0.33574076328E-01  0.24302328458E-01  0.43292561961E-01  0.51100000000E-03 0.  1.
</event>
<event>
 8    1  0.1123470E+005  0.1043930E+01  0.7957747E-01            NaN
         13   -1    0    0    0    0  0.00000000000E+00  0.00000000000E+00  0.74505805969E-08  0.10566000000E+00  0.10566000000E+00 0.  1.
     999900   -1    0    0    0    0 -0.00000000000E+00 -0.00000000000E+00 -0.74505805969E-08  0.93827000000E+00  0.93827000000E+00 0. -1.
     999902    2    1    2    0    0  0.23354807051E-01  0.35402045702E-02 -0.57750299232E-03  0.10203013401E+01  0.10200277011E+01 0.  0.
     999903    2    3    3    0    0  0.22393298367E-01 -0.85693429155E-01 -0.94298876793E-01  0.13083674729E+00  0.19523131533E-01 0.  0.
         14    1    1    2    0    0 -0.23354807051E-01 -0.35402045702E-02  0.57750299232E-03  0.23628659939E-01  0.00000000000E+00 0. -1.
     999901    1    3    3    0    0  0.96150868436E-03  0.89233633725E-01  0.93721373801E-01  0.88946459277E+00  0.88000000000E+00 0.  1.
        -11    1    4    4    0    0  0.10536464205E-01 -0.57513432315E-01 -0.49578186754E-01  0.76662048612E-01  0.51100000000E-03 0. -1.
         11    1    4    4    0    0  0.11856834162E-01 -0.28179996840E-01 -0.44720690039E-01  0.54174698678E-01  0.51100000000E-03 0.  1.
</event>
<event>
 8    1  0.1123470E+005  0.1043930E+01  0.7957747E-01            NaN
         13   -1    0    0    0    0  0.00000000000E+00  0.00000000000E+00  0.74505805969E-08  0.10566000000E+00  0.10566000000E+00 0. -1.
     999900   -1    0    0    0    0 -0.00000000000E+00 -0.00000000000E+00 -0.74505805969E-08  0.93827000000E+00  0.93827000000E+00 0.  1.
     999902    2    1    2    0    0 -0.81742202509E-04 -0.60300491742E-02 -0.20728690734E-01  0.10223418830E+01  0.10221139266E+01 0.  0.
     999903    2    3    3    0    0  0.64413656552E-01 -0.11176007018E+00  0.22619125542E-01  0.13261297658E+00  0.20860112162E-01 0.  0.
         14    1    1    2    0    0  0.81742202509E-04  0.60300491742E-02  0.20728690734E-01  0.21588116971E-01  0.00000000000E+00 0. -1.
     999901    1    3    3    0    0 -0.64495398754E-01  0.10573002100E+00 -0.43347816276E-01  0.88972890645E+00  0.88000000000E+00 0. -1.
        -11    1    4    4    0    0  0.17263000828E-01 -0.32558074385E-01  0.16065125452E-01  0.40204337851E-01  0.51100000000E-03 0.  1.
         11    1    4    4    0    0  0.47150655723E-01 -0.79201995793E-01  0.65540000904E-02  0.92408638725E-01  0.51100000000E-03 0. -1.
</event>
<event>
 8    1  0.1123470E+005  0.1043930E+01  0.7957747E-01            NaN
         13   -1    0    0    0    0  0.00000000000E+00  0.00000000000E+00  0.74505805969E-08  0.10566000000E+00  0.10566000000E+00 0.  1.
     999900   -1    0    0    0    0 -0.00000000000E+00 -0.00000000000E+00 -0.74505805969E-08  0.93827000000E+00  0.93827000000E+00 0. -1.
     999902    2    1    2    0    0 -0.49838291642E-02 -0.58635601649E-02 -0.21917918025E-01  0.10207003848E+01  0.10204360149E+01 0.  0.
     999903    2    3    3    0    0 -0.83771196921E-01  0.37425558607E-01  0.88982970316E-01  0.12919581155E+00  0.18849478650E-01 0.  0.
         14    1    1    2    0    0  0.49838291642E-02  0.58635601649E-02  0.21917918025E-01  0.23229615182E-01  0.00000000000E+00 0.  1.
     999901    1    3    3    0    0  0.78787367756E-01 -0.43289118772E-01 -0.11090088834E+00  0.89150457327E+00  0.88000000000E+00 0. -1.
        -11    1    4    4    0    0 -0.51016925717E-01  0.15161968840E-01  0.59416540669E-01  0.79769658610E-01  0.51100000000E-03 0. -1.
         11    1    4    4    0    0 -0.32754271204E-01  0.22263589767E-01  0.29566429647E-01  0.49426152940E-01  0.51100000000E-03 0.  1.
</event>
<event>
 8    1  0.1123470E+005  0.1043930E+01  0.7957747E-01            NaN
         13   -1    0    0    0    0  0.00000000000E+00  0.00000000000E+00  0.74505805969E-08  0.10566000000E+00  0.10566000000E+00 0.  1.
     999900   -1    0    0    0    0 -0.00000000000E+00 -0.00000000000E+00 -0.74505805969E-08  0.93827000000E+00  0.93827000000E+00 0. -1.
     999902    2    1    2    0    0 -0.77984344546E-02  0.15293716130E-01  0.16158893614E-01  0.10203540976E+01  0.10200816934E+01 0.  0.
     999903    2    3    3    0    0  0.10803819489E+00  0.69459422678E-01 -0.11255037435E-01  0.13068923252E+00  0.21357356506E-01 0.  0.
         14    1    1    2    0    0  0.77984344546E-02 -0.15293716130E-01 -0.16158893614E-01  0.23575902440E-01  0.00000000000E+00 0. -1.
     999901    1    3    3    0    0 -0.11583662934E+00 -0.54165706547E-01  0.27413931050E-01  0.88966486504E+00  0.88000000000E+00 0.  1.
        -11    1    4    4    0    0  0.24264769320E-01  0.26871074319E-01 -0.22175495774E-02  0.36276883994E-01  0.51100000000E-03 0. -1.
         11    1    4    4    0    0  0.83773425568E-01  0.42588348359E-01 -0.90374878578E-02  0.94412348531E-01  0.51100000000E-03 0.  1.
</event>
<event>
 7    1  0.1201685E+005  0.1043930E+01  0.7957747E-01            NaN
         13   -1    0    0    0    0  0.00000000000E+00  0.00000000000E+00  0.74505805969E-08  0.10566000000E+00  0.10566000000E+00 0. -1.
     999900   -1    0    0    0    0 -0.00000000000E+00 -0.00000000000E+00 -0.74505805969E-08  0.93827000000E+00  0.93827000000E+00 0.  1.
     999903    2    1    2    0    0 -0.93546296410E-01 -0.34106059307E-01  0.35865639921E-01  0.10754615662E+00  0.19123253462E-01 0.  0.
         14    1    1    2    0    0  0.11194577961E-01  0.25650531131E-01  0.40474119193E-01  0.49207953092E-01  0.00000000000E+00 0. -1.
     999901    1    1    2    0    0  0.82351718449E-01  0.84555281758E-02 -0.76339759114E-01  0.88717589029E+00  0.88000000000E+00 0.  1.
        -11    1    3    3    0    0 -0.22625495993E-01 -0.32769927076E-04  0.97522522411E-02  0.24643085999E-01  0.51100000000E-03 0.  1.
         11    1    3    3    0    0 -0.70920800418E-01 -0.34073289380E-01  0.26113387680E-01  0.82903070620E-01  0.51100000000E-03 0. -1.
</event>
<event>
 8    1  0.1123470E+005  0.1043930E+01  0.7957747E-01            NaN
         13   -1    0    0    0    0  0.00000000000E+00  0.00000000000E+00  0.74505805969E-08  0.10566000000E+00  0.10566000000E+00 0.  1.
     999900   -1    0    0    0    0 -0.00000000000E+00 -0.00000000000E+00 -0.74505805969E-08  0.93827000000E+00  0.93827000000E+00 0.  1.
     999902    2    1    2    0    0  0.17938439630E-01 -0.12726665298E-01 -0.41800524306E-02  0.10215418678E+01  0.10212965089E+01 0.  0.
     999903    2    3    3    0    0 -0.10741124501E-01 -0.12509501547E+00 -0.39490191527E-01  0.13323112854E+00  0.20662132857E-01 0.  0.
         14    1    1    2    0    0 -0.17938439630E-01  0.12726665298E-01  0.41800524306E-02  0.22388132220E-01  0.00000000000E+00 0. -1.
     999901    1    3    3    0    0  0.28679564131E-01  0.11236835018E+00  0.35310139096E-01  0.88831073924E+00  0.88000000000E+00 0.  1.
        -11    1    4    4    0    0 -0.88222265399E-02 -0.58314291082E-01 -0.85219833653E-02  0.59592562850E-01  0.51100000000E-03 0. -1.
         11    1    4    4    0    0 -0.19188979610E-02 -0.66780724392E-01 -0.30968208162E-01  0.73638565694E-01  0.51100000000E-03 0.  1.
</event>
<event>
 8    1  0.1123470E+005  0.1043930E+01  0.7957747E-01            NaN
         13   -1    0    0    0    0  0.00000000000E+00  0.00000000000E+00  0.74505805969E-08  0.10566000000E+00  0.10566000000E+00 0.  1.
     999900   -1    0    0    0    0 -0.00000000000E+00 -0.00000000000E+00 -0.74505805969E-08  0.93827000000E+00  0.93827000000E+00 0.  1.
     999902    2    1    2    0    0 -0.19830347118E-01 -0.10566649715E-01 -0.72381408915E-02  0.10203230638E+01  0.10200499336E+01 0.  0.
     999903    2    3    3    0    0 -0.57269407347E-01  0.46535414740E-01 -0.10775110289E+00  0.13197336660E+00  0.19008931455E-01 0.  0.
         14    1    1    2    0    0  0.19830347118E-01  0.10566649715E-01  0.72381408915E-02  0.23606936197E-01  0.00000000000E+00 0. -1.
     999901    1    3    3    0    0  0.37439060229E-01 -0.57102064454E-01  0.10051296199E+00  0.88834969721E+00  0.88000000000E+00 0. -1.
        -11    1    4    4    0    0 -0.15767666433E-01  0.22064521267E-01 -0.48856541059E-01  0.55880990764E-01  0.51100000000E-03 0. -1.
         11    1    4    4    0    0 -0.41501740914E-01  0.24470893473E-01 -0.58894561827E-01  0.76092375834E-01  0.51100000000E-03 0.  1.
</event>
<event>
 8    1  0.1123470E+005  0.1043930E+01  0.7957747E-01            NaN
         13   -1    0    0    0    0  0.00000000000E+00  0.00000000000E+00  0.74505805969E-08  0.10566000000E+00  0.10566000000E+00 0. -1.
     999900   -1    0    0    0    0 -0.00000000000E+00 -0.00000000000E+00 -0.74505805969E-08  0.93827000000E+00  0.93827000000E+00 0. -1.
     999902    2    1    2    0    0  0.23871642206E-02  0.24530845337E-01  0.35630778594E-03  0.10192807022E+01  0.10189826113E+01 0.  0.
     999903    2    3    3    0    0  0.10096097096E+00  0.81478029851E-01 -0.12245908624E-01  0.13185825881E+00  0.20120912865E-01 0.  0.
         14    1    1    2    0    0 -0.23871642206E-02 -0.24530845337E-01 -0.35630778594E-03  0.24649297783E-01  0.00000000000E+00 0.  1.
     999901    1    3    3    0    0 -0.98573806735E-01 -0.56947184514E-01  0.12602216410E-01  0.88742244340E+00  0.88000000000E+00 0.  1.
        -11    1    4    4    0    0  0.89848622176E-01  0.74753534082E-01 -0.50253604552E-02  0.11698880773E+00  0.51100000000E-03 0.  1.
         11    1    4    4    0    0  0.11112348780E-01  0.67244957685E-02 -0.72205481686E-02  0.14869451086E-01  0.51100000000E-03 0. -1.
</event>
<event>
 8    1  0.1123470E+005  0.1043930E+01  0.7957747E-01            NaN
         13   -1    0    0    0    0  0.00000000000E+00  0.00000000000E+00  0.74505805969E-08  0.10566000000E+00  0.10566000000E+00 0.  1.
     999900   -1    0    0    0    0 -0.00000000000E+00 -0.00000000000E+00 -0.74505805969E-08  0.93827000000E+00  0.93827000000E+00 0. -1.
     999902    2    1    2    0    0 -0.57576014144E-02 -0.19332338485E-01 -0.13878263273E-01  0.10194454033E+01  0.10191513307E+01 0.  0.
     999903    2    3    3    0    0 -0.90851993737E-01 -0.76504290775E-01  0.51144114790E-01  0.13111123339E+00  0.21620447978E-01 0.  0.
         14    1    1    2    0    0  0.57576014144E-02  0.19332338485E-01  0.13878263273E-01  0.24484596725E-01  0.00000000000E+00 0. -1.
     999901    1    3    3    0    0  0.85094392323E-01  0.57171952290E-01 -0.65022378063E-01  0.88833416988E+00  0.88000000000E+00 0. -1.
        -11    1    4    4    0    0 -0.40245053875E-01 -0.38637453268E-01  0.35044006499E-01  0.65885208272E-01  0.51100000000E-03 0. -1.
         11    1    4    4    0    0 -0.50606939862E-01 -0.37866837506E-01  0.16100108291E-01  0.65226025120E-01  0.51100000000E-03 0.  1.
</event>
<event>
 8    1  0.1123470E+005  0.1043930E+01  0.7957747E-01            NaN
         13   -1    0    0    0    0  0.00000000000E+00  0.00000000000E+00  0.74505805969E-08  0.10566000000E+00  0.10566000000E+00 0. -1.
     999900   -1    0    0    0    0 -0.00000000000E+00 -0.00000000000E+00 -0.74505805969E-08  0.93827000000E+00  0.93827000000E+00 0.  1.
     999902    2    1    2    0    0  0.20754990710E-01 -0.40209900459E-04  0.84345888712E-02  0.10215265729E+01  0.10212808750E+01 0.  0.
     999903    2    3    3    0    0 -0.48779727166E-01  0.42398048425E-01 -0.11064889214E+00  0.12977719207E+00  0.20539862672E-01 0.  0.
         14    1    1    2    0    0 -0.20754990710E-01  0.40209900459E-04 -0.84345888712E-02  0.22403427096E-01  0.00000000000E+00 0. -1.
     999901    1    3    3    0    0  0.69534717876E-01 -0.42438258325E-01  0.11908348101E+00  0.89174938083E+00  0.88000000000E+00 0. -1.
        -11    1    4    4    0    0 -0.43292112617E-01  0.30205030157E-01 -0.75136740963E-01  0.91827783515E-01  0.51100000000E-03 0. -1.
         11    1    4    4    0    0 -0.54876145485E-02  0.12193018268E-01 -0.35512151176E-01  0.37949408560E-01  0.51100000000E-03 0.  1.
</event>
<event>
 8    1  0.1123470E+005  0.1043930E+01  0.7957747E-01            NaN
         13   -1    0    0    0    0  0.00000000000E+00  0.00000000000E+00  0.74505805969E-08  0.10566000000E+00  0.10566000000E+00 0.  1.
     999900   -1    0    0    0    0 -0.00000000000E+00 -0.00000000000E+00 -0.74505805969E-08  0.93827000000E+00  0.93827000000E+00 0.  1.
     999902    2    1    2    0    0  0.69483518294E-02 -0.38700210887E-02  0.12900276196E-01  0.10287750080E+01  0.10286633771E+01 0.  0.
     999903    2    3    3    0    0 -0.10412427995E+00  0.22782869725E-01 -0.82541344876E-01  0.13627480680E+00  0.19920454968E-01 0.  0.
         14    1    1    2    0    0 -0.69483518294E-02  0.38700210887E-02 -0.12900276196E-01  0.15154991993E-01  0.00000000000E+00 0. -1.
     999901    1    3    3    0    0  0.11107263178E+00 -0.26652890813E-01  0.95441621073E-01  0.89250020121E+00  0.88000000000E+00 0. -1.
        -11    1    4    4    0    0 -0.55111174383E-01  0.61896962834E-02 -0.32460770248E-01  0.64261315020E-01  0.51100000000E-03 0.  1.
         11    1    4    4    0    0 -0.49013105569E-01  0.16593173441E-01 -0.50080574629E-01  0.72013491781E-01  0.51100000000E-03 0. -1.
</event>
<event>
 8    1  0.1123470E+005  0.1043930E+01  0.7957747E-01            NaN
         13   -1    0    0    0    0  0.00000000000E+00  0.00000000000E+00  0.74505805969E-08  0.10566000000E+00  0.10566000000E+00 0.  1.
     999900   -1    0    0    0    0 -0.00000000000E+00 -0.00000000000E+00 -0.74505805969E-08  0.93827000000E+00  0.93827000000E+00 0.  1.
     999902    2    1    2    0    0  0.93166443115E-02 -0.21250908856E-01  0.21067385564E-02  0.10206310872E+01  0.10203651194E+01 0.  0.
     999903    2    3    3    0    0  0.34388680060E-03  0.12436028374E+00  0.24687273531E-01  0.12833460605E+00  0.19867340142E-01 0.  0.
         14    1    1    2    0    0 -0.93166443115E-02  0.21250908856E-01 -0.21067385564E-02  0.23298912759E-01  0.00000000000E+00 0.  1.
     999901    1    3    3    0    0  0.89727575109E-02 -0.14561119260E+00 -0.22580534975E-01  0.89229648119E+00  0.88000000000E+00 0. -1.
        -11    1    4    4    0    0 -0.79459252101E-02  0.75737256963E-01  0.96344688316E-02  0.76761669669E-01  0.51100000000E-03 0. -1.
         11    1    4    4    0    0  0.82898120107E-02  0.48623026781E-01  0.15052804700E-01  0.51572936380E-01  0.51100000000E-03 0.  1.
</event>
<event>
 8    1  0.1123470E+005  0.1043930E+01  0.7957747E-01            NaN
         13   -1    0    0    0    0  0.00000000000E+00  0.00000000000E+00  0.74505805969E-08  0.10566000000E+00  0.10566000000E+00 0.  1.
     999900   -1    0    0    0    0 -0.00000000000E+00 -0.00000000000E+00 -0.74505805969E-08  0.93827000000E+00  0.93827000000E+00 0.  1.
     999902    2    1    2    0    0 -0.57478253151E-02  0.19078347849E-01 -0.12434288551E-01  0.10204431444E+01  0.10201728180E+01 0.  0.
     999903    2    3    3    0    0 -0.11370476970E+00  0.33835853010E-01 -0.55924233329E-01  0.13265721241E+00  0.19919250281E-01 0.  0.
         14    1    1    2    0    0  0.57478253151E-02 -0.19078347849E-01  0.12434288551E-01  0.23486855564E-01  0.00000000000E+00 0.  1.
     999901    1    3    3    0    0  0.10795694438E+00 -0.14757505161E-01  0.43489944777E-01  0.88778593202E+00  0.88000000000E+00 0.  1.
        -11    1    4    4    0    0 -0.95797748021E-01  0.30407749479E-01 -0.54569693591E-01  0.11436761925E+00  0.51100000000E-03 0.  1.
         11    1    4    4    0    0 -0.17907021675E-01  0.34281035310E-02 -0.13545397380E-02  0.18289593161E-01  0.51100000000E-03 0. -1.
</event>
<event>
 8    1  0.1123470E+005  0.1043930E+01  0.7957747E-01            NaN
         13   -1    0    0    0    0  0.00000000000E+00  0.00000000000E+00  0.74505805969E-08  0.10566000000E+00  0.10566000000E+00 0.  1.
     999900   -1    0    0    0    0 -0.00000000000E+00 -0.00000000000E+00 -0.74505805969E-08  0.93827000000E+00  0.93827000000E+00 0. -1.
     999902    2    1    2    0    0  0.21349781286E-01  0.18046185841E-02 -0.80592038488E-02  0.10210385043E+01  0.10207818605E+01 0.  0.
     999903    2    3    3    0    0  0.10733664543E+00  0.60625968260E-01  0.46256244640E-01  0.13323004526E+00  0.20345547699E-01 0.  0.
         14    1    1    2    0    0 -0.21349781286E-01 -0.18046185841E-02  0.80592038488E-02  0.22891495711E-01  0.00000000000E+00 0. -1.
     999901    1    3    3    0    0 -0.85986864145E-01 -0.58821349676E-01 -0.54315448488E-01  0.88780845903E+00  0.88000000000E+00 0. -1.
        -11    1    4    4    0    0  0.46190181283E-01  0.36897209900E-01  0.17888946510E-01  0.61767406239E-01  0.51100000000E-03 0.  1.
         11    1    4    4    0    0  0.61146464149E-01  0.23728758360E-01  0.28367298130E-01  0.71462639018E-01  0.51100000000E-03 0. -1.
</event>
<event>
 8    1  0.1123470E+005  0.1043930E+01  0.7957747E-01            NaN
         13   -1    0    0    0    0  0.00000000000E+00  0.00000000000E+00  0.74505805969E-08  0.10566000000E+00  0.10566000000E+00 0. -1.
     999900   -1    0    0    0    0 -0.00000000000E+00 -0.00000000000E+00 -0.74505805969E-08  0.93827000000E+00  0.93827000000E+00 0. -1.
     999902    2    1    2    0    0  0.94426630591E-02 -0.95575911904E-02  0.19034230490E-01  0.10206316446E+01  0.10203656896E+01 0.  0.
     999903    2    3    3    0    0 -0.50796197481E-01 -0.90897704400E-01  0.80305016652E-01  0.13271326794E+00  0.17923990732E-01 0.  0.
         14    1    1    2    0    0 -0.94426630591E-02  0.95575911904E-02 -0.19034230490E-01  0.23298355422E-01  0.00000000000E+00 0.  1.
     999901    1    3    3    0    0  0.60238860540E-01  0.81340113210E-01 -0.61270786162E-01  0.88791837664E+00  0.88000000000E+00 0. -1.
        -11    1    4    4    0    0 -0.17374074170E-02 -0.16007789628E-01  0.13186902995E-01  0.20818824292E-01  0.51100000000E-03 0. -1.
         11    1    4    4    0    0 -0.49058790064E-01 -0.74889914772E-01  0.67118113657E-01  0.11189444365E+00  0.51100000000E-03 0.  1.
</event>
<event>
 8    1  0.1123470E+005  0.1043930E+01  0.7957747E-01            NaN
         13   -1    0    0    0    0  0.00000000000E+00  0.00000000000E+00  0.74505805969E-08  0.10566000000E+00  0.10566000000E+00 0.  1.
     999900   -1    0    0    0    0 -0.00000000000E+00 -0.00000000000E+00 -0.74505805969E-08  0.93827000000E+00  0.93827000000E+00 0. -1.
     999902    2    1    2    0    0 -0.17669290862E-01  0.14354892420E-01 -0.53069682333E-02  0.10205541431E+01  0.10202863952E+01 0.  0.
     999903    2    3    3    0    0 -0.51541840537E-01 -0.23341083486E-01  0.11637115500E+00  0.13073736310E+00  0.18672034959E-01 0.  0.
         14    1    1    2    0    0  0.17669290862E-01 -0.14354892420E-01  0.53069682333E-02  0.23375856943E-01  0.00000000000E+00 0. -1.
     999901    1    3    3    0    0  0.33872549674E-01  0.37695975906E-01 -0.12167812323E+00  0.88981677996E+00  0.88000000000E+00 0. -1.
        -11    1    4    4    0    0 -0.21261666437E-01 -0.81715254023E-02  0.67772997168E-01  0.71500157714E-01  0.51100000000E-03 0. -1.
         11    1    4    4    0    0 -0.30280174100E-01 -0.15169558083E-01  0.48598157834E-01  0.59237205385E-01  0.51100000000E-03 0.  1.
</event>
<event>
 8    1  0.1123470E+005  0.1043930E+01  0.7957747E-01            NaN
         13   -1    0    0    0    0  0.00000000000E+00  0.00000000000E+00  0.74505805969E-08  0.10566000000E+00  0.10566000000E+00 0. -1.
     999900   -1    0    0    0    0 -0.00000000000E+00 -0.00000000000E+00 -0.74505805969E-08  0.93827000000E+00  0.93827000000E+00 0.  1.
     999902    2    1    2    0    0 -0.94202953401E-02  0.17590439739E-02 -0.27841879621E-01  0.10144850266E+01  0.10140576229E+01 0.  0.
     999903    2    3    3    0    0  0.94135261373E-01  0.74301132114E-01 -0.30594989175E-01  0.12544414590E+00  0.20446875315E-01 0.  0.
         14    1    1    2    0    0  0.94202953401E-02 -0.17590439739E-02  0.27841879621E-01  0.29444973439E-01  0.00000000000E+00 0. -1.
     999901    1    3    3    0    0 -0.10355555671E+00 -0.72542088141E-01  0.27531095541E-02  0.88904088066E+00  0.88000000000E+00 0. -1.
        -11    1    4    4    0    0  0.63359416767E-01  0.37531209632E-01 -0.20462109485E-01  0.76432757605E-01  0.51100000000E-03 0.  1.
         11    1    4    4    0    0  0.30775844606E-01  0.36769922483E-01 -0.10132879690E-01  0.49011388293E-01  0.51100000000E-03 0. -1.
</event>
<event>
 8    1  0.1123470E+005  0.1043930E+01  0.7957747E-01            NaN
         13   -1    0    0    0    0  0.00000000000E+00  0.00000000000E+00  0.74505805969E-08  0.10566000000E+00  0.10566000000E+00 0.  1.
     999900   -1    0    0    0    0 -0.00000000000E+00 -0.00000000000E+00 -0.74505805969E-08  0.93827000000E+00  0.93827000000E+00 0. -1.
     999902    2    1    2    0    0  0.19746398860E-01  0.57672162555E-02 -0.97460289184E-02  0.10211667373E+01  0.10209129929E+01 0.  0.
     999903    2    3    3    0    0 -0.40192507868E-01 -0.24012503524E-01  0.11890115414E+00  0.12929813597E+00  0.19710035385E-01 0.  0.
         14    1    1    2    0    0 -0.19746398860E-01 -0.57672162555E-02  0.97460289184E-02  0.22763262748E-01  0.00000000000E+00 0.  1.
     999901    1    3    3    0    0  0.59938906728E-01  0.29779719780E-01 -0.12864718306E+00  0.89186860129E+00  0.88000000000E+00 0. -1.
        -11    1    4    4    0    0 -0.83085331624E-02 -0.12095733319E-02  0.43595443353E-01  0.44399533704E-01  0.51100000000E-03 0. -1.
         11    1    4    4    0    0 -0.31883974706E-01 -0.22802930192E-01  0.75305710785E-01  0.84898602263E-01  0.51100000000E-03 0.  1.
</event>
<event>
 8    1  0.1123470E+005  0.1043930E+01  0.7957747E-01            NaN
         13   -1    0    0    0    0  0.00000000000E+00  0.00000000000E+00  0.74505805969E-08  0.10566000000E+00  0.10566000000E+00 0. -1.
     999900   -1    0    0    0    0 -0.00000000000E+00 -0.00000000000E+00 -0.74505805969E-08  0.93827000000E+00  0.93827000000E+00 0.  1.
     999902    2    1    2    0    0  0.20403697540E-01 -0.84297937701E-03 -0.12442164134E-01  0.10200170551E+01  0.10197367129E+01 0.  0.
     999903    2    3    3    0    0  0.31506822938E-01  0.48392143069E-01 -0.11741683683E+00  0.13234196890E+00  0.19829366096E-01 0.  0.
         14    1    1    2    0    0 -0.20403697540E-01  0.84297937701E-03  0.12442164134E-01  0.23912944944E-01  0.00000000000E+00 0.  1.
     999901    1    3    3    0    0 -0.11103125398E-01 -0.49235122446E-01  0.10497467269E+00  0.88767508616E+00  0.88000000000E+00 0. -1.
        -11    1    4    4    0    0  0.13135992028E-01  0.31334894324E-01 -0.50373738589E-01  0.60763513306E-01  0.51100000000E-03 0.  1.
         11    1    4    4    0    0  0.18370830910E-01  0.17057248745E-01 -0.67043098236E-01  0.71578455594E-01  0.51100000000E-03 0. -1.
</event>
<event>
 8    1  0.1123470E+005  0.1043930E+01  0.7957747E-01            NaN
         13   -1    0    0    0    0  0.00000000000E+00  0.00000000000E+00  0.74505805969E-08  0.10566000000E+00  0.10566000000E+00 0.  1.
     999900   -1    0    0    0    0 -0.00000000000E+00 -0.00000000000E+00 -0.74505805969E-08  0.93827000000E+00  0.93827000000E+00 0. -1.
     999902    2    1    2    0    0 -0.28229571104E-03 -0.21414388174E-01 -0.10736707702E-01  0.10199731095E+01  0.10196917237E+01 0.  0.
     999903    2    3    3    0    0 -0.66668179545E-01  0.39703681484E-01  0.10035373772E+00  0.12841066573E+00  0.19934841684E-01 0.  0.
         14    1    1    2    0    0  0.28229571104E-03  0.21414388174E-01  0.10736707702E-01  0.23956890534E-01  0.00000000000E+00 0.  1.
     999901    1    3    3    0    0  0.66385883834E-01 -0.61118069659E-01 -0.11109044542E+00  0.89156244373E+00  0.88000000000E+00 0. -1.
        -11    1    4    4    0    0 -0.48327119794E-01  0.28532582424E-01  0.56816551138E-01  0.79862383959E-01  0.51100000000E-03 0. -1.
         11    1    4    4    0    0 -0.18341059751E-01  0.11171099060E-01  0.43537186580E-01  0.48548281775E-01  0.51100000000E-03 0.  1.
</event>
<event>
 8    1  0.1123470E+005  0.1043930E+01  0.7957747E-01            NaN
         13   -1    0    0    0    0  0.00000000000E+00  0.00000000000E+00  0.74505805969E-08  0.10566000000E+00  0.10566000000E+00 0.  1.
     999900   -1    0    0    0    0 -0.00000000000E+00 -0.00000000000E+00 -0.74505805969E-08  0.93827000000E+00  0.93827000000E+00 0. -1.
     999902    2    1    2    0    0 -0.57413703474E-02 -0.37225287761E-02 -0.22449360932E-01  0.10204609915E+01  0.10201910805E+01 0.  0.
     999903    2    3    3    0    0 -0.10539646703E+00 -0.46405283502E-01  0.57875606383E-01  0.13017729726E+00  0.18294187804E-01 0.  0.
         14    1    1    2    0    0  0.57413703474E-02  0.37225287761E-02  0.22449360932E-01  0.23469008505E-01  0.00000000000E+00 0.  1.
     999901    1    3    3    0    0  0.99655096687E-01  0.42682754726E-01 -0.80324967315E-01  0.89028369424E+00  0.88000000000E+00 0. -1.
        -11    1    4    4    0    0 -0.70940619106E-01 -0.27846214475E-01  0.29017354240E-01  0.81549071533E-01  0.51100000000E-03 0. -1.
         11    1    4    4    0    0 -0.34455847929E-01 -0.18559069027E-01  0.28858252143E-01  0.48628225727E-01  0.51100000000E-03 0.  1.
</event>
<event>
 8    1  0.1123470E+005  0.1043930E+01  0.7957747E-01            NaN
         13   -1    0    0    0    0  0.00000000000E+00  0.00000000000E+00  0.74505805969E-08  0.10566000000E+00  0.10566000000E+00 0.  1.
     999900   -1    0    0    0    0 -0.00000000000E+00 -0.00000000000E+00 -0.74505805969E-08  0.93827000000E+00  0.93827000000E+00 0.  1.
     999902    2    1    2    0    0  0.22259246749E-01  0.70325453586E-02  0.90034151830E-02  0.10189101630E+01  0.10186029295E+01 0.  0.
     999903    2    3    3    0    0  0.41593679315E-01 -0.49784475318E-02  0.12283827412E+00  0.13128611004E+00  0.19798535303E-01 0.  0.
         14    1    1    2    0    0 -0.22259246749E-01 -0.70325453586E-02 -0.90034151830E-02  0.25019837030E-01  0.00000000000E+00 0.  1.
     999901    1    3    3    0    0 -0.19334432566E-01  0.12010992890E-01 -0.11383485894E+00  0.88762405293E+00  0.88000000000E+00 0.  1.
        -11    1    4    4    0    0  0.18813502202E-01  0.58584940801E-02  0.38472380949E-01  0.43227942755E-01  0.51100000000E-03 0.  1.
         11    1    4    4    0    0  0.22780177113E-01 -0.10836941612E-01  0.84365893176E-01  0.88058167283E-01  0.51100000000E-03 0. -1.
</event>
<event>
 8    1  0.1123470E+005  0.1043930E+01  0.7957747E-01            NaN
         13   -1    0    0    0    0  0.00000000000E+00  0.00000000000E+00  0.74505805969E-08  0.10566000000E+00  0.10566000000E+00 0.  1.
     999900   -1    0    0    0    0 -0.00000000000E+00 -0.00000000000E+00 -0.74505805969E-08  0.93827000000E+00  0.93827000000E+00 0.  1.
     999902    2    1    2    0    0  0.22166955102E-01 -0.13095899715E-01  0.26565892845E-02  0.10180469176E+01  0.10177178354E+01 0.  0.
     999903    2    3    3    0    0 -0.76203438922E-01 -0.54760058430E-01 -0.84073467800E-01  0.12735351393E+00  0.18572598628E-01 0.  0.
         14    1    1    2    0    0 -0.22166955102E-01  0.13095899715E-01 -0.26565892845E-02  0.25883082398E-01  0.00000000000E+00 0.  1.
     999901    1    3    3    0    0  0.98370394024E-01  0.41664158715E-01  0.86730057084E-01  0.89069340367E+00  0.88000000000E+00 0. -1.
        -11    1    4    4    0    0 -0.16050932233E-01 -0.19153724857E-01 -0.15382923317E-01  0.29349498330E-01  0.51100000000E-03 0. -1.
         11    1    4    4    0    0 -0.60152506689E-01 -0.35606333573E-01 -0.68690544483E-01  0.98004015600E-01  0.51100000000E-03 0.  1.
</event>
<event>
 8    1  0.1123470E+005  0.1043930E+01  0.7957747E-01            NaN
         13   -1    0    0    0    0  0.00000000000E+00  0.00000000000E+00  0.74505805969E-08  0.10566000000E+00  0.10566000000E+00 0.  1.
     999900   -1    0    0    0    0 -0.00000000000E+00 -0.00000000000E+00 -0.74505805969E-08  0.93827000000E+00  0.93827000000E+00 0. -1.
     999902    2    1    2    0    0  0.22020056092E-01 -0.81171392756E-02  0.44684806467E-02  0.10200398736E+01  0.10197600726E+01 0.  0.
     999903    2    3    3    0    0  0.88160044417E-01 -0.48580766112E-01 -0.83442556540E-01  0.13226729370E+00  0.19992310359E-01 0.  0.
         14    1    1    2    0    0 -0.22020056092E-01  0.81171392756E-02 -0.44684806467E-02  0.23890126404E-01  0.00000000000E+00 0. -1.
     999901    1    3    3    0    0 -0.66139988325E-01  0.40463626836E-01  0.87911037187E-01  0.88777257989E+00  0.88000000000E+00 0.  1.
        -11    1    4    4    0    0  0.36260508348E-01 -0.13206329142E-01 -0.22109984448E-01  0.44478580557E-01  0.51100000000E-03 0. -1.
         11    1    4    4    0    0  0.51899536069E-01 -0.35374436969E-01 -0.61332572093E-01  0.87788713145E-01  0.51100000000E-03 0.  1.
</event>
<event>
 8    1  0.1123470E+005  0.1043930E+01  0.7957747E-01            NaN
         13   -1    0    0    0    0  0.00000000000E+00  0.00000000000E+00  0.74505805969E-08  0.10566000000E+00  0.10566000000E+00 0.  1.
     999900   -1    0    0    0    0 -0.00000000000E+00 -0.00000000000E+00 -0.74505805969E-08  0.93827000000E+00  0.93827000000E+00 0. -1.
     999902    2    1    2    0    0  0.12407076079E-03  0.23534964474E-01 -0.14030763167E-02  0.10203529228E+01  0.10200804912E+01 0.  0.
     999903    2    3    3    0    0 -0.16705426850E-01 -0.76278285777E-01  0.10011637195E+00  0.12875205060E+00  0.21362453879E-01 0.  0.
         14    1    1    2    0    0 -0.12407076079E-03 -0.23534964474E-01  0.14030763167E-02  0.23577077204E-01  0.00000000000E+00 0.  1.
     999901    1    3    3    0    0  0.16829497611E-01  0.99813250251E-01 -0.10151944826E+00  0.89160087219E+00  0.88000000000E+00 0. -1.
        -11    1    4    4    0    0 -0.80285333925E-02 -0.61362717219E-01  0.65759180435E-01  0.90301557824E-01  0.51100000000E-03 0. -1.
         11    1    4    4    0    0 -0.86768934577E-02 -0.14915568558E-01  0.34357191512E-01  0.38450492781E-01  0.51100000000E-03 0.  1.
</event>
<event>
 8    1  0.1123470E+005  0.1043930E+01  0.7957747E-01            NaN
         13   -1    0    0    0    0  0.00000000000E+00  0.00000000000E+00  0.74505805969E-08  0.10566000000E+00  0.10566000000E+00 0.  1.
     999900   -1    0    0    0    0 -0.00000000000E+00 -0.00000000000E+00 -0.74505805969E-08  0.93827000000E+00  0.93827000000E+00 0. -1.
     999902    2    1    2    0    0  0.17011789464E-01 -0.12766418203E-01 -0.11122170295E-01  0.10199282274E+01  0.10196457738E+01 0.  0.
     999903    2    3    3    0    0 -0.13088943116E-02 -0.83202555259E-01  0.98116736293E-01  0.13019229156E+00  0.19968986847E-01 0.  0.
         14    1    1    2    0    0 -0.17011789464E-01  0.12766418203E-01  0.11122170295E-01  0.24001772571E-01  0.00000000000E+00 0.  1.
     999901    1    3    3    0    0  0.18320683776E-01  0.70436137057E-01 -0.10923890659E+00  0.88973593587E+00  0.88000000000E+00 0. -1.
        -11    1    4    4    0    0 -0.92808381959E-02 -0.53145505735E-01  0.55155928842E-01  0.77155792686E-01  0.51100000000E-03 0. -1.
         11    1    4    4    0    0  0.79719438843E-02 -0.30057049524E-01  0.42960807451E-01  0.53036498878E-01  0.51100000000E-03 0.  1.
</event>
<event>
 8    1  0.1123470E+005  0.1043930E+01  0.7957747E-01            NaN
         13   -1    0    0    0    0  0.00000000000E+00  0.00000000000E+00  0.74505805969E-08  0.10566000000E+00  0.10566000000E+00 0. -1.
     999900   -1    0    0    0    0 -0.00000000000E+00 -0.00000000000E+00 -0.74505805969E-08  0.93827000000E+00  0.93827000000E+00 0. -1.
     999902    2    1    2    0    0  0.66988060747E-02 -0.23405384230E-01 -0.13505347291E-02  0.10195474251E+01  0.10192558276E+01 0.  0.
     999903    2    3    3    0    0  0.98572717731E-01 -0.14766856253E-01  0.82339622435E-01  0.13077327933E+00  0.19677307755E-01 0.  0.
         14    1    1    2    0    0 -0.66988060747E-02  0.23405384230E-01  0.13505347291E-02  0.24382574881E-01  0.00000000000E+00 0.  1.
     999901    1    3    3    0    0 -0.91873911657E-01 -0.86385279771E-02 -0.83690157164E-01  0.88877414578E+00  0.88000000000E+00 0. -1.
        -11    1    4    4    0    0  0.50164021017E-01 -0.53383777420E-03  0.50051545922E-01  0.70867004716E-01  0.51100000000E-03 0. -1.
         11    1    4    4    0    0  0.48408696715E-01 -0.14233018479E-01  0.32288076514E-01  0.59906274618E-01  0.51100000000E-03 0.  1.
</event>
<event>
 8    1  0.1123470E+005  0.1043930E+01  0.7957747E-01            NaN
         13   -1    0    0    0    0  0.00000000000E+00  0.00000000000E+00  0.74505805969E-08  0.10566000000E+00  0.10566000000E+00 0. -1.
     999900   -1    0    0    0    0 -0.00000000000E+00 -0.00000000000E+00 -0.74505805969E-08  0.93827000000E+00  0.93827000000E+00 0. -1.
     999902    2    1    2    0    0 -0.44051834812E-02 -0.23329719146E-01  0.81346795254E-02  0.10188330988E+01  0.10185239461E+01 0.  0.
     999903    2    3    3    0    0 -0.45413771616E-01  0.11082468611E+00  0.38362910365E-01  0.12720938073E+00  0.19130916109E-01 0.  0.
         14    1    1    2    0    0  0.44051834812E-02  0.23329719146E-01 -0.81346795254E-02  0.25096901162E-01  0.00000000000E+00 0. -1.
     999901    1    3    3    0    0  0.41008588135E-01 -0.13415440525E+00 -0.30228230839E-01  0.89162371811E+00  0.88000000000E+00 0. -1.
        -11    1    4    4    0    0 -0.14345420128E-01  0.24615910195E-01  0.16763158020E-01  0.33060530867E-01  0.51100000000E-03 0.  1.
         11    1    4    4    0    0 -0.31068351488E-01  0.86208775913E-01  0.21599752345E-01  0.94148849865E-01  0.51100000000E-03 0. -1.
</event>
<event>
 8    1  0.1123470E+005  0.1043930E+01  0.7957747E-01            NaN
         13   -1    0    0    0    0  0.00000000000E+00  0.00000000000E+00  0.74505805969E-08  0.10566000000E+00  0.10566000000E+00 0. -1.
     999900   -1    0    0    0    0 -0.00000000000E+00 -0.00000000000E+00 -0.74505805969E-08  0.93827000000E+00  0.93827000000E+00 0. -1.
     999902    2    1    2    0    0  0.18836919787E-01 -0.13715501620E-01  0.29896804847E-03  0.10206269119E+01  0.10203608477E+01 0.  0.
     999903    2    3    3    0    0 -0.53307902347E-01  0.75248154892E-01 -0.87910994062E-01  0.12883074410E+00  0.19104985765E-01 0.  0.
         14    1    1    2    0    0 -0.18836919787E-01  0.13715501620E-01 -0.29896804847E-03  0.23303088071E-01  0.00000000000E+00 0. -1.
     999901    1    3    3    0    0  0.72144822133E-01 -0.88963656512E-01  0.88209962110E-01  0.89179616783E+00  0.88000000000E+00 0. -1.
        -11    1    4    4    0    0 -0.29796467673E-01  0.31567296020E-01 -0.51132080959E-01  0.67075140611E-01  0.51100000000E-03 0.  1.
         11    1    4    4    0    0 -0.23511434674E-01  0.43680858872E-01 -0.36778913103E-01  0.61755603488E-01  0.51100000000E-03 0. -1.
</event>
<event>
 8    1  0.1123470E+005  0.1043930E+01  0.7957747E-01            NaN
         13   -1    0    0    0    0  0.00000000000E+00  0.00000000000E+00  0.74505805969E-08  0.10566000000E+00  0.10566000000E+00 0. -1.
     999900   -1    0    0    0    0 -0.00000000000E+00 -0.00000000000E+00 -0.74505805969E-08  0.93827000000E+00  0.93827000000E+00 0. -1.
     999902    2    1    2    0    0  0.60593113585E-02 -0.71448563857E-02  0.21530226415E-01  0.10204499047E+01  0.10201797357E+01 0.  0.
     999903    2    3    3    0    0 -0.42755905720E-01 -0.11958793462E+00 -0.23780248594E-01  0.13079861883E+00  0.20333147435E-01 0.  0.
         14    1    1    2    0    0 -0.60593113585E-02  0.71448563857E-02 -0.21530226415E-01  0.23480095324E-01  0.00000000000E+00 0.  1.
     999901    1    3    3    0    0  0.48815217079E-01  0.11244307823E+00  0.45310475009E-01  0.88965128585E+00  0.88000000000E+00 0. -1.
        -11    1    4    4    0    0 -0.20465876503E-01 -0.33717913831E-01 -0.22740514341E-02  0.39511798809E-01  0.51100000000E-03 0.  1.
         11    1    4    4    0    0 -0.22290029217E-01 -0.85870020787E-01 -0.21506197159E-01  0.91286820022E-01  0.51100000000E-03 0. -1.
</event>
<event>
 8    1  0.1123470E+005  0.1043930E+01  0.7957747E-01            NaN
         13   -1    0    0    0    0  0.00000000000E+00  0.00000000000E+00  0.74505805969E-08  0.10566000000E+00  0.10566000000E+00 0.  1.
     999900   -1    0    0    0    0 -0.00000000000E+00 -0.00000000000E+00 -0.74505805969E-08  0.93827000000E+00  0.93827000000E+00 0.  1.
     999902    2    1    2    0    0  0.43124261318E-02 -0.27099584238E-02  0.22345182795E-01  0.10210117084E+01  0.10207544566E+01 0.  0.
     999903    2    3    3    0    0  0.32204455409E-01 -0.77202746387E-01 -0.96576242007E-01  0.12945719747E+00  0.20851965346E-01 0.  0.
         14    1    1    2    0    0 -0.43124261318E-02  0.27099584238E-02 -0.22345182795E-01  0.22918291558E-01  0.00000000000E+00 0. -1.
     999901    1    3    3    0    0 -0.27892029277E-01  0.74492787964E-01  0.11892142480E+00  0.89155451097E+00  0.88000000000E+00 0. -1.
        -11    1    4    4    0    0  0.25666756195E-01 -0.41503967874E-01 -0.65456793387E-01  0.81646889986E-01  0.51100000000E-03 0. -1.
         11    1    4    4    0    0  0.65376992142E-02 -0.35698778514E-01 -0.31119448619E-01  0.47810307484E-01  0.51100000000E-03 0.  1.
</event>
<event>
 8    1  0.1123470E+005  0.1043930E+01  0.7957747E-01            NaN
         13   -1    0    0    0    0  0.00000000000E+00  0.00000000000E+00  0.74505805969E-08  0.10566000000E+00  0.10566000000E+00 0.  1.
     999900   -1    0    0    0    0 -0.00000000000E+00 -0.00000000000E+00 -0.74505805969E-08  0.93827000000E+00  0.93827000000E+00 0. -1.
     999902    2    1    2    0    0 -0.15534263377E-01 -0.15353312298E-01 -0.89063133163E-02  0.10203427163E+01  0.10200700460E+01 0.  0.
     999903    2    3    3    0    0 -0.71160724938E-01  0.34943153387E-01  0.10126275006E+00  0.13030830108E+00  0.21005619187E-01 0.  0.
         14    1    1    2    0    0  0.15534263377E-01  0.15353312298E-01  0.89063133163E-02  0.23587283736E-01  0.00000000000E+00 0.  1.
     999901    1    3    3    0    0  0.55626461560E-01 -0.50296465684E-01 -0.11016906338E+00  0.89003441518E+00  0.88000000000E+00 0. -1.
        -11    1    4    4    0    0 -0.16394208729E-01  0.12940055735E-01  0.14730657489E-01  0.25563030206E-01  0.51100000000E-03 0. -1.
         11    1    4    4    0    0 -0.54766516208E-01  0.22003097652E-01  0.86532092575E-01  0.10474527087E+00  0.51100000000E-03 0.  1.
</event>
<event>
 8    1  0.1123470E+005  0.1043930E+01  0.7957747E-01            NaN
         13   -1    0    0    0    0  0.00000000000E+00  0.00000000000E+00  0.74505805969E-08  0.10566000000E+00  0.10566000000E+00 0.  1.
     999900   -1    0    0    0    0 -0.00000000000E+00 -0.00000000000E+00 -0.74505805969E-08  0.93827000000E+00  0.93827000000E+00 0.  1.
     999902    2    1    2    0    0  0.16852979308E-01 -0.12854734068E-01  0.14450145754E-02  0.10226848790E+01  0.10224641835E+01 0.  0.
     999903    2    3    3    0    0 -0.12612651081E+00 -0.19912705502E-01 -0.21219281916E-01  0.13082916202E+00  0.19015760359E-01 0.  0.
         14    1    1    2    0    0 -0.16852979308E-01  0.12854734068E-01 -0.14450145754E-02  0.21245121008E-01  0.00000000000E+00 0.  1.
     999901    1    3    3    0    0  0.14297949012E+00  0.70579714344E-02  0.22664296491E-01  0.89185571697E+00  0.88000000000E+00 0. -1.
        -11    1    4    4    0    0 -0.42288897828E-01 -0.50853361799E-02 -0.16091370900E-01  0.45534655615E-01  0.51100000000E-03 0. -1.
         11    1    4    4    0    0 -0.83837612979E-01 -0.14827369322E-01 -0.51279110156E-02  0.85294506408E-01  0.51100000000E-03 0.  1.
</event>
<event>
 8    1  0.1123470E+005  0.1043930E+01  0.7957747E-01            NaN
         13   -1    0    0    0    0  0.00000000000E+00  0.00000000000E+00  0.74505805969E-08  0.10566000000E+00  0.10566000000E+00 0. -1.
     999900   -1    0    0    0    0 -0.00000000000E+00 -0.00000000000E+00 -0.74505805969E-08  0.93827000000E+00  0.93827000000E+00 0. -1.
     999902    2    1    2    0    0  0.48753032153E-02  0.18589062026E-01  0.22132147918E-02  0.10245852300E+01  0.10244025934E+01 0.  0.
     999903    2    3    3    0    0  0.92377908119E-01 -0.76331897701E-01 -0.54484354875E-01  0.13336061805E+00  0.21360547855E-01 0.  0.
         14    1    1    2    0    0 -0.48753032153E-02 -0.18589062026E-01 -0.22132147918E-02  0.19344770047E-01  0.00000000000E+00 0. -1.
     999901    1    3    3    0    0 -0.87502604904E-01  0.94920959727E-01  0.56697569667E-01  0.89122461191E+00  0.88000000000E+00 0. -1.
        -11    1    4    4    0    0  0.51141998183E-01 -0.45812751096E-01 -0.42242859127E-01  0.80616576517E-01  0.51100000000E-03 0.  1.
         11    1    4    4    0    0  0.41235909936E-01 -0.30519146605E-01 -0.12241495748E-01  0.52744041530E-01  0.51100000000E-03 0. -1.
</event>
<event>
 8    1  0.1123470E+005  0.1043930E+01  0.7957747E-01            NaN
         13   -1    0    0    0    0  0.00000000000E+00  0.00000000000E+00  0.74505805969E-08  0.10566000000E+00  0.10566000000E+00 0.  1.
     999900   -1    0    0    0    0 -0.00000000000E+00 -0.00000000000E+00 -0.74505805969E-08  0.93827000000E+00  0.93827000000E+00 0. -1.
     999902    2    1    2    0    0  0.19519703365E-01  0.76095303175E-02  0.18374293146E-02  0.10228990724E+01  0.10226828503E+01 0.  0.
     999903    2    3    3    0    0  0.55150313568E-01 -0.44913474375E-01 -0.11089176764E+00  0.13344076628E+00  0.21229147611E-01 0.  0.
         14    1    1    2    0    0 -0.19519703365E-01 -0.76095303175E-02 -0.18374293146E-02  0.21030927645E-01  0.00000000000E+00 0.  1.
     999901    1    3    3    0    0 -0.35630610203E-01  0.52523004692E-01  0.11272919695E+00  0.88945830608E+00  0.88000000000E+00 0.  1.
        -11    1    4    4    0    0  0.28002546605E-02 -0.11885870178E-01 -0.21008386306E-01  0.24304912101E-01  0.51100000000E-03 0.  1.
         11    1    4    4    0    0  0.52350058907E-01 -0.33027604197E-01 -0.89883381330E-01  0.10913585418E+00  0.51100000000E-03 0. -1.
</event>
<event>
 8    1  0.1123470E+005  0.1043930E+01  0.7957747E-01            NaN
         13   -1    0    0    0    0  0.00000000000E+00  0.00000000000E+00  0.74505805969E-08  0.10566000000E+00  0.10566000000E+00 0. -1.
     999900   -1    0    0    0    0 -0.00000000000E+00 -0.00000000000E+00 -0.74505805969E-08  0.93827000000E+00  0.93827000000E+00 0. -1.
     999902    2    1    2    0    0  0.20036608974E-01  0.11755028778E-01 -0.12021392417E-02  0.10206686256E+01  0.10204035240E+01 0.  0.
     999903    2    3    3    0    0  0.52778664502E-01 -0.71845695215E-01 -0.94238994076E-01  0.13122105568E+00  0.19763251319E-01 0.  0.
         14    1    1    2    0    0 -0.20036608974E-01 -0.11755028778E-01  0.12021392417E-02  0.23261374411E-01  0.00000000000E+00 0.  1.
     999901    1    3    3    0    0 -0.32742055529E-01  0.83600723993E-01  0.93036854834E-01  0.88944756990E+00  0.88000000000E+00 0.  1.
        -11    1    4    4    0    0  0.28190828691E-02 -0.88130382193E-02 -0.33517499084E-02  0.98545532281E-02  0.51100000000E-03 0. -1.
         11    1    4    4    0    0  0.49959581633E-01 -0.63032656996E-01 -0.90887244168E-01  0.12136650246E+00  0.51100000000E-03 0.  1.
</event>
<event>
 8    1  0.1123470E+005  0.1043930E+01  0.7957747E-01            NaN
         13   -1    0    0    0    0  0.00000000000E+00  0.00000000000E+00  0.74505805969E-08  0.10566000000E+00  0.10566000000E+00 0. -1.
     999900   -1    0    0    0    0 -0.00000000000E+00 -0.00000000000E+00 -0.74505805969E-08  0.93827000000E+00  0.93827000000E+00 0.  1.
     999902    2    1    2    0    0 -0.12992433882E-01  0.14639652597E-01 -0.13397413028E-01  0.10202105261E+01  0.10199347548E+01 0.  0.
     999903    2    3    3    0    0  0.17780640319E-02  0.26469505206E-01 -0.12850961941E+00  0.13251185364E+00  0.18462742408E-01 0.  0.
         14    1    1    2    0    0  0.12992433882E-01 -0.14639652597E-01  0.13397413028E-01  0.23719473902E-01  0.00000000000E+00 0. -1.
     999901    1    3    3    0    0 -0.14770497914E-01 -0.11829852609E-01  0.11511220638E+00  0.88769867246E+00  0.88000000000E+00 0. -1.
        -11    1    4    4    0    0 -0.65970741927E-02  0.10009655399E-01 -0.30485827351E-01  0.32762194361E-01  0.51100000000E-03 0.  1.
         11    1    4    4    0    0  0.83751382247E-02  0.16459849807E-01 -0.98023792060E-01  0.99749659281E-01  0.51100000000E-03 0. -1.
</event>
<event>
 8    1  0.1123470E+005  0.1043930E+01  0.7957747E-01            NaN
         13   -1    0    0    0    0  0.00000000000E+00  0.00000000000E+00  0.74505805969E-08  0.10566000000E+00  0.10566000000E+00 0. -1.
     999900   -1    0    0    0    0 -0.00000000000E+00 -0.00000000000E+00 -0.74505805969E-08  0.93827000000E+00  0.93827000000E+00 0. -1.
     999902    2    1    2    0    0 -0.56382064534E-02 -0.96933047191E-03  0.24002505657E-01  0.10192551292E+01  0.10189564118E+01 0.  0.
     999903    2    3    3    0    0 -0.46939191972E-01 -0.11162248148E+00  0.45917532705E-01  0.13109401784E+00  0.20355726193E-01 0.  0.
         14    1    1    2    0    0  0.56382064534E-02  0.96933047191E-03 -0.24002505657E-01  0.24674870848E-01  0.00000000000E+00 0.  1.
     999901    1    3    3    0    0  0.41300985519E-01  0.11065315101E+00 -0.21915027048E-01  0.88816111131E+00  0.88000000000E+00 0. -1.
        -11    1    4    4    0    0 -0.36713042648E-01 -0.63896927440E-01  0.23245205647E-01  0.77273964201E-01  0.51100000000E-03 0. -1.
         11    1    4    4    0    0 -0.10226149324E-01 -0.47725554043E-01  0.22672327058E-01  0.53820053641E-01  0.51100000000E-03 0.  1.
</event>
<event>
 8    1  0.1123470E+005  0.1043930E+01  0.7957747E-01            NaN
         13   -1    0    0    0    0  0.00000000000E+00  0.00000000000E+00  0.74505805969E-08  0.10566000000E+00  0.10566000000E+00 0. -1.
     999900   -1    0    0    0    0 -0.00000000000E+00 -0.00000000000E+00 -0.74505805969E-08  0.93827000000E+00  0.93827000000E+00 0. -1.
     999902    2    1    2    0    0 -0.69119906171E-02 -0.11592841540E-01 -0.21705623205E-01  0.10183701943E+01  0.10180493843E+01 0.  0.
     999903    2    3    3    0    0 -0.73708026149E-01 -0.64188444959E-01  0.80728345323E-01  0.12835855067E+00  0.20145029345E-01 0.  0.
         14    1    1    2    0    0  0.69119906171E-02  0.11592841540E-01  0.21705623205E-01  0.25559805711E-01  0.00000000000E+00 0. -1.
     999901    1    3    3    0    0  0.66796035532E-01  0.52595603419E-01 -0.10243396853E+00  0.89001164362E+00  0.88000000000E+00 0. -1.
        -11    1    4    4    0    0 -0.52034528386E-01 -0.45959204564E-01  0.44878188667E-01  0.82668939557E-01  0.51100000000E-03 0. -1.
         11    1    4    4    0    0 -0.21673497763E-01 -0.18229240396E-01  0.35850156656E-01  0.45689611116E-01  0.51100000000E-03 0.  1.
</event>
<event>
 8    1  0.1123470E+005  0.1043930E+01  0.7957747E-01            NaN
         13   -1    0    0    0    0  0.00000000000E+00  0.00000000000E+00  0.74505805969E-08  0.10566000000E+00  0.10566000000E+00 0. -1.
     999900   -1    0    0    0    0 -0.00000000000E+00 -0.00000000000E+00 -0.74505805969E-08  0.93827000000E+00  0.93827000000E+00 0.  1.
     999902    2    1    2    0    0  0.89339868453E-02 -0.26539578425E-01  0.38337480605E-02  0.10156658360E+01  0.10152724892E+01 0.  0.
     999903    2    3    3    0    0  0.98929094495E-01  0.75263954802E-01 -0.39224366551E-02  0.12520346328E+00  0.14453133863E-01 0.  0.
         14    1    1    2    0    0 -0.89339868453E-02  0.26539578425E-01 -0.38337480605E-02  0.28264164026E-01  0.00000000000E+00 0.  1.
     999901    1    3    3    0    0 -0.89995107650E-01 -0.10180353323E+00  0.77561847156E-02  0.89046237269E+00  0.88000000000E+00 0.  1.
        -11    1    4    4    0    0  0.88535740098E-01  0.65564940213E-01  0.92635758525E-03  0.11017467004E+00  0.51100000000E-03 0.  1.
         11    1    4    4    0    0  0.10393354397E-01  0.96990145892E-02 -0.48487942404E-02  0.15028793239E-01  0.51100000000E-03 0. -1.
</event>
<event>
 8    1  0.1123470E+005  0.1043930E+01  0.7957747E-01            NaN
         13   -1    0    0    0    0  0.00000000000E+00  0.00000000000E+00  0.74505805969E-08  0.10566000000E+00  0.10566000000E+00 0. -1.
     999900   -1    0    0    0    0 -0.00000000000E+00 -0.00000000000E+00 -0.74505805969E-08  0.93827000000E+00  0.93827000000E+00 0.  1.
     999902    2    1    2    0    0 -0.90888699738E-02 -0.16768955830E-01  0.15749427924E-01  0.10191943998E+01  0.10188941921E+01 0.  0.
     999903    2    3    3    0    0 -0.12083775040E+00 -0.43140721496E-01  0.17601340242E-01  0.13173357708E+00  0.24104862127E-01 0.  0.
         14    1    1    2    0    0  0.90888699738E-02  0.16768955830E-01 -0.15749427924E-01  0.24735600194E-01  0.00000000000E+00 0.  1.
     999901    1    3    3    0    0  0.11174888043E+00  0.26371765666E-01 -0.18519123177E-02  0.88746082273E+00  0.88000000000E+00 0.  1.
        -11    1    4    4    0    0 -0.96855785610E-01 -0.31776827955E-01  0.23346321744E-01  0.10457591434E+00  0.51100000000E-03 0. -1.
         11    1    4    4    0    0 -0.23981964790E-01 -0.11363893541E-01 -0.57449815024E-02  0.27157662732E-01  0.51100000000E-03 0.  1.
</event>
<event>
 8    1  0.1123470E+005  0.1043930E+01  0.7957747E-01            NaN
         13   -1    0    0    0    0  0.00000000000E+00  0.00000000000E+00  0.74505805969E-08  0.10566000000E+00  0.10566000000E+00 0.  1.
     999900   -1    0    0    0    0 -0.00000000000E+00 -0.00000000000E+00 -0.74505805969E-08  0.93827000000E+00  0.93827000000E+00 0.  1.
     999902    2    1    2    0    0  0.15861327709E-02 -0.15235272652E-01  0.17734895891E-01  0.10204959248E+01  0.10202268260E+01 0.  0.
     999903    2    3    3    0    0  0.60080736492E-01 -0.10787663255E+00  0.45754616740E-01  0.13325912155E+00  0.20431489787E-01 0.  0.
         14    1    1    2    0    0 -0.15861327709E-02  0.15235272652E-01 -0.17734895891E-01  0.23434075237E-01  0.00000000000E+00 0. -1.
     999901    1    3    3    0    0 -0.58494603721E-01  0.92641359895E-01 -0.28019720850E-01  0.88723680322E+00  0.88000000000E+00 0. -1.
        -11    1    4    4    0    0  0.21314292212E-01 -0.47140251693E-01  0.95207349731E-02  0.52606158362E-01  0.51100000000E-03 0. -1.
         11    1    4    4    0    0  0.38766444280E-01 -0.60736380854E-01  0.36233881767E-01  0.80652963184E-01  0.51100000000E-03 0.  1.
</event>
<event>
 8    1  0.1123470E+005  0.1043930E+01  0.7957747E-01            NaN
         13   -1    0    0    0    0  0.00000000000E+00  0.00000000000E+00  0.74505805969E-08  0.10566000000E+00  0.10566000000E+00 0. -1.
     999900   -1    0    0    0    0 -0.00000000000E+00 -0.00000000000E+00 -0.74505805969E-08  0.93827000000E+00  0.93827000000E+00 0.  1.
     999902    2    1    2    0    0  0.63821381788E-02  0.25025335574E-01 -0.85055276043E-02  0.10167391356E+01  0.10163754851E+01 0.  0.
     999903    2    3    3    0    0  0.10011964221E+00 -0.69706395715E-01 -0.27075913131E-01  0.12651125475E+00  0.19724810455E-01 0.  0.
         14    1    1    2    0    0 -0.63821381788E-02 -0.25025335574E-01  0.85055276043E-02  0.27190864424E-01  0.00000000000E+00 0. -1.
     999901    1    3    3    0    0 -0.93737504031E-01  0.94731731289E-01  0.18570385527E-01  0.89022788082E+00  0.88000000000E+00 0.  1.
        -11    1    4    4    0    0  0.59478945140E-01 -0.44437411102E-01 -0.68790101424E-02  0.74565476743E-01  0.51100000000E-03 0.  1.
         11    1    4    4    0    0  0.40640697070E-01 -0.25268984613E-01 -0.20196902989E-01  0.51945778010E-01  0.51100000000E-03 0. -1.
</event>
<event>
 8    1  0.1123470E+005  0.1043930E+01  0.7957747E-01            NaN
         13   -1    0    0    0    0  0.00000000000E+00  0.00000000000E+00  0.74505805969E-08  0.10566000000E+00  0.10566000000E+00 0.  1.
     999900   -1    0    0    0    0 -0.00000000000E+00 -0.00000000000E+00 -0.74505805969E-08  0.93827000000E+00  0.93827000000E+00 0. -1.
     999902    2    1    2    0    0  0.16189525482E-01  0.31855824412E-02  0.16652333841E-01  0.10204875408E+01  0.10202182473E+01 0.  0.
     999903    2    3    3    0    0  0.30202044850E-02 -0.19224596347E-02  0.13156640788E+00  0.13290387290E+00  0.18463538802E-01 0.  0.
         14    1    1    2    0    0 -0.16189525482E-01 -0.31855824412E-02 -0.16652333841E-01  0.23442459196E-01  0.00000000000E+00 0. -1.
     999901    1    3    3    0    0  0.13169320997E-01  0.51080420759E-02 -0.11491407404E+00  0.88758366790E+00  0.88000000000E+00 0. -1.
        -11    1    4    4    0    0 -0.18939829648E-02  0.21214749384E-02  0.11655881337E+00  0.11659462218E+00  0.51100000000E-03 0. -1.
         11    1    4    4    0    0  0.49141874498E-02 -0.40439345731E-02  0.15007594512E-01  0.16309250723E-01  0.51100000000E-03 0.  1.
</event>
<event>
 8    1  0.1123470E+005  0.1043930E+01  0.7957747E-01            NaN
         13   -1    0    0    0    0  0.00000000000E+00  0.00000000000E+00  0.74505805969E-08  0.10566000000E+00  0.10566000000E+00 0.  1.
     999900   -1    0    0    0    0 -0.00000000000E+00 -0.00000000000E+00 -0.74505805969E-08  0.93827000000E+00  0.93827000000E+00 0. -1.
     999902    2    1    2    0    0  0.64178096377E-02  0.18264736613E-01  0.13530152119E-01  0.10203110690E+01  0.10200376580E+01 0.  0.
     999903    2    3    3    0    0 -0.51211744224E-01  0.11976982954E+00  0.14644859073E-01  0.13260295712E+00  0.20040397324E-01 0.  0.
         14    1    1    2    0    0 -0.64178096377E-02 -0.18264736613E-01 -0.13530152119E-01  0.23618930976E-01  0.00000000000E+00 0.  1.
     999901    1    3    3    0    0  0.57629553862E-01 -0.10150509293E+00 -0.11147069534E-02  0.88770811190E+00  0.88000000000E+00 0. -1.
        -11    1    4    4    0    0 -0.25209150090E-01  0.57203647261E-01 -0.30022938864E-02  0.62586207728E-01  0.51100000000E-03 0. -1.
         11    1    4    4    0    0 -0.26002594134E-01  0.62566182280E-01  0.17647152959E-01  0.70016749392E-01  0.51100000000E-03 0.  1.
</event>
<event>
 8    1  0.1123470E+005  0.1043930E+01  0.7957747E-01            NaN
         13   -1    0    0    0    0  0.00000000000E+00  0.00000000000E+00  0.74505805969E-08  0.10566000000E+00  0.10566000000E+00 0. -1.
     999900   -1    0    0    0    0 -0.00000000000E+00 -0.00000000000E+00 -0.74505805969E-08  0.93827000000E+00  0.93827000000E+00 0.  1.
     999902    2    1    2    0    0 -0.35723188113E-02 -0.16117548377E-01  0.16434411957E-01  0.10206356504E+01  0.10203697879E+01 0.  0.
     999903    2    3    3    0    0 -0.20284671682E-01 -0.63554604983E-02 -0.12605575462E+00  0.12896415894E+00  0.17024724222E-01 0.  0.
         14    1    1    2    0    0  0.35723188113E-02  0.16117548377E-01 -0.16434411957E-01  0.23294349610E-01  0.00000000000E+00 0. -1.
     999901    1    3    3    0    0  0.16712352871E-01 -0.97620878784E-02  0.14249016658E+00  0.89167149145E+00  0.88000000000E+00 0. -1.
        -11    1    4    4    0    0 -0.58341204736E-02 -0.93916506787E-02 -0.75044055113E-01  0.75855859319E-01  0.51100000000E-03 0. -1.
         11    1    4    4    0    0 -0.14450551209E-01  0.30361901804E-02 -0.51011699505E-01  0.53108299619E-01  0.51100000000E-03 0.  1.
</event>
<event>
 8    1  0.1123470E+005  0.1043930E+01  0.7957747E-01            NaN
         13   -1    0    0    0    0  0.00000000000E+00  0.00000000000E+00  0.74505805969E-08  0.10566000000E+00  0.10566000000E+00 0. -1.
     999900   -1    0    0    0    0 -0.00000000000E+00 -0.00000000000E+00 -0.74505805969E-08  0.93827000000E+00  0.93827000000E+00 0. -1.
     999902    2    1    2    0    0  0.52088120503E-02 -0.45470411942E-02  0.22958474190E-01  0.10199529517E+01  0.10196710866E+01 0.  0.
     999903    2    3    3    0    0  0.31893857820E-01 -0.59760861816E-01  0.11289011281E+00  0.13324648549E+00  0.20539463315E-01 0.  0.
         14    1    1    2    0    0 -0.52088120503E-02  0.45470411942E-02 -0.22958474190E-01  0.23977048269E-01  0.00000000000E+00 0.  1.
     999901    1    3    3    0    0 -0.26685045770E-01  0.55213820622E-01 -0.89931638617E-01  0.88670646624E+00  0.88000000000E+00 0. -1.
        -11    1    4    4    0    0  0.24596163079E-01 -0.38355797542E-01  0.57159160445E-01  0.73099720841E-01  0.51100000000E-03 0. -1.
         11    1    4    4    0    0  0.72976947408E-02 -0.21405064274E-01  0.55730952362E-01  0.60146764645E-01  0.51100000000E-03 0.  1.
</event>
<event>
 8    1  0.1123470E+005  0.1043930E+01  0.7957747E-01            NaN
         13   -1    0    0    0    0  0.00000000000E+00  0.00000000000E+00  0.74505805969E-08  0.10566000000E+00  0.10566000000E+00 0.  1.
     999900   -1    0    0    0    0 -0.00000000000E+00 -0.00000000000E+00 -0.74505805969E-08  0.93827000000E+00  0.93827000000E+00 0.  1.
     999902    2    1    2    0    0  0.11830329343E-01  0.19043564996E-01  0.23328978505E-02  0.10213898919E+01  0.10211411532E+01 0.  0.
     999903    2    3    3    0    0  0.67767257583E-01  0.11175064190E+00 -0.23768906269E-01  0.13436968570E+00  0.20239673029E-01 0.  0.
         14    1    1    2    0    0 -0.11830329343E-01 -0.19043564996E-01 -0.23328978505E-02  0.22540108085E-01  0.00000000000E+00 0.  1.
     999901    1    3    3    0    0 -0.55936928239E-01 -0.92707076909E-01  0.26101804120E-01  0.88702020621E+00  0.88000000000E+00 0.  1.
        -11    1    4    4    0    0  0.12009012708E-01  0.36776647985E-01 -0.43287943360E-02  0.38932477504E-01  0.51100000000E-03 0.  1.
         11    1    4    4    0    0  0.55758244875E-01  0.74973993920E-01 -0.19440111933E-01  0.95437208199E-01  0.51100000000E-03 0. -1.
</event>
<event>
 8    1  0.1123470E+005  0.1043930E+01  0.7957747E-01            NaN
         13   -1    0    0    0    0  0.00000000000E+00  0.00000000000E+00  0.74505805969E-08  0.10566000000E+00  0.10566000000E+00 0.  1.
     999900   -1    0    0    0    0 -0.00000000000E+00 -0.00000000000E+00 -0.74505805969E-08  0.93827000000E+00  0.93827000000E+00 0. -1.
     999902    2    1    2    0    0  0.15111283637E-01 -0.52929616124E-03 -0.17833364044E-01  0.10205492404E+01  0.10202813789E+01 0.  0.
     999903    2    3    3    0    0 -0.74057200656E-01  0.26432182477E-01 -0.10344157014E+00  0.13150103871E+00  0.20229570176E-01 0.  0.
         14    1    1    2    0    0 -0.15111283637E-01  0.52929616124E-03  0.17833364044E-01  0.23380759626E-01  0.00000000000E+00 0.  1.
     999901    1    3    3    0    0  0.89168484294E-01 -0.26961478638E-01  0.85608206101E-01  0.88904820166E+00  0.88000000000E+00 0.  1.
        -11    1    4    4    0    0 -0.48177963725E-01  0.12664592332E-01 -0.78681532173E-01  0.93126541403E-01  0.51100000000E-03 0. -1.
         11    1    4    4    0    0 -0.25879236931E-01  0.13767590145E-01 -0.24760037971E-01  0.38374497311E-01  0.51100000000E-03 0.  1.
</event>
<event>
 7    1  0.1123923E+005  0.1043930E+01  0.7957747E-01            NaN
         13   -1    0    0    0    0  0.00000000000E+00  0.00000000000E+00  0.74505805969E-08  0.10566000000E+00  0.10566000000E+00 0.  1.
     999900   -1    0    0    0    0 -0.00000000000E+00 -0.00000000000E+00 -0.74505805969E-08  0.93827000000E+00  0.93827000000E+00 0. -1.
     999902    2    1    2    0    0  0.14118926879E-01  0.16450923288E-01  0.28763269811E-02  0.10220610670E+01  0.10218270766E+01 0.  0.
         14    1    1    2    0    0 -0.14118926879E-01 -0.16450923288E-01 -0.28763269811E-02  0.21868932990E-01  0.00000000000E+00 0. -1.
     999901    1    3    3    0    0 -0.13727605959E-01  0.68766009418E-02  0.13165519008E+00  0.88992630250E+00  0.88000000000E+00 0.  1.
        -11    1    3    3    0    0  0.21135788196E-01  0.68465163982E-02 -0.92015303605E-01  0.94660834288E-01  0.51100000000E-03 0. -1.
         11    1    3    3    0    0  0.67107446421E-02  0.27278059478E-02 -0.36763559490E-01  0.37473930223E-01  0.51100000000E-03 0.  1.
</event>
<event>
 8    1  0.1331863E+005  0.1043930E+01  0.7957747E-01            NaN
         13   -1    0    0    0    0  0.00000000000E+00  0.00000000000E+00  0.74505805969E-08  0.10566000000E+00  0.10566000000E+00 0. -1.
     999900   -1    0    0    0    0 -0.00000000000E+00 -0.00000000000E+00 -0.74505805969E-08  0.93827000000E+00  0.93827000000E+00 0.  1.
     999902    2    1    2    0    0  0.11205540653E-01  0.22424633103E-02 -0.20142221098E-01  0.10207718081E+01  0.10205090800E+01 0.  0.
     999903    2    3    3    0    0 -0.11354607667E+00 -0.45116933768E-01  0.35956343248E-01  0.12894619314E+00  0.20149760914E-01 0.  0.
         14    1    1    2    0    0 -0.11205540653E-01 -0.22424633103E-02  0.20142221098E-01  0.23158191936E-01  0.00000000000E+00 0. -1.
     999901    1    3    3    0    0  0.12475161732E+00  0.47359397078E-01 -0.56098564345E-01  0.89182561493E+00  0.88000000000E+00 0.  1.
        -11    1    4    4    0    0 -0.70553195052E-01 -0.18206558663E-01  0.25153584074E-01  0.77085640837E-01  0.51100000000E-03 0.  1.
         11    1    4    4    0    0 -0.42992881619E-01 -0.26910375105E-01  0.10802759174E-01  0.51860552301E-01  0.51100000000E-03 0. -1.
</event>
<event>
 8    1  0.1123470E+005  0.1043930E+01  0.7957747E-01            NaN
         13   -1    0    0    0    0  0.00000000000E+00  0.00000000000E+00  0.74505805969E-08  0.10566000000E+00  0.10566000000E+00 0.  1.
     999900   -1    0    0    0    0 -0.00000000000E+00 -0.00000000000E+00 -0.74505805969E-08  0.93827000000E+00  0.93827000000E+00 0. -1.
     999902    2    1    2    0    0 -0.84204125854E-02  0.19284393601E-01 -0.11093747691E-01  0.10201421371E+01  0.10198647545E+01 0.  0.
     999903    2    3    3    0    0 -0.52985280705E-01 -0.11547557690E+00 -0.93114124411E-02  0.12876710162E+00  0.18767397961E-01 0.  0.
         14    1    1    2    0    0  0.84204125854E-02 -0.19284393601E-01  0.11093747691E-01  0.23787862925E-01  0.00000000000E+00 0. -1.
     999901    1    3    3    0    0  0.44564868119E-01  0.13475997050E+00 -0.17823352501E-02  0.89137503546E+00  0.88000000000E+00 0. -1.
        -11    1    4    4    0    0 -0.31936165351E-01 -0.88807590457E-01 -0.48996419423E-02  0.94503832686E-01  0.51100000000E-03 0. -1.
         11    1    4    4    0    0 -0.21049115354E-01 -0.26667986440E-01 -0.44117704988E-02  0.34263268931E-01  0.51100000000E-03 0.  1.
</event>
<event>
 8    1  0.1123470E+005  0.1043930E+01  0.7957747E-01            NaN
         13   -1    0    0    0    0  0.00000000000E+00  0.00000000000E+00  0.74505805969E-08  0.10566000000E+00  0.10566000000E+00 0.  1.
     999900   -1    0    0    0    0 -0.00000000000E+00 -0.00000000000E+00 -0.74505805969E-08  0.93827000000E+00  0.93827000000E+00 0.  1.
     999902    2    1    2    0    0 -0.20612035373E-01 -0.47718333084E-02 -0.11097496276E-01  0.10200389804E+01  0.10197591582E+01 0.  0.
     999903    2    3    3    0    0  0.81691635185E-01 -0.83793836643E-01  0.49293419077E-01  0.12854720773E+00  0.19990325995E-01 0.  0.
         14    1    1    2    0    0  0.20612035373E-01  0.47718333084E-02  0.11097496276E-01  0.23891019630E-01  0.00000000000E+00 0. -1.
     999901    1    3    3    0    0 -0.10230367056E+00  0.79022003335E-01 -0.60390915352E-01  0.89149177264E+00  0.88000000000E+00 0.  1.
        -11    1    4    4    0    0  0.55998466711E-01 -0.66822202358E-01  0.42578604651E-01  0.97026974069E-01  0.51100000000E-03 0.  1.
         11    1    4    4    0    0  0.25693168474E-01 -0.16971634286E-01  0.67148144260E-02  0.31520233666E-01  0.51100000000E-03 0. -1.
</event>
<event>
 8    1  0.1123470E+005  0.1043930E+01  0.7957747E-01            NaN
         13   -1    0    0    0    0  0.00000000000E+00  0.00000000000E+00  0.74505805969E-08  0.10566000000E+00  0.10566000000E+00 0.  1.
     999900   -1    0    0    0    0 -0.00000000000E+00 -0.00000000000E+00 -0.74505805969E-08  0.93827000000E+00  0.93827000000E+00 0. -1.
     999902    2    1    2    0    0  0.23140462829E-01 -0.34299365999E-02 -0.27315504037E-02  0.10203777845E+01  0.10201059339E+01 0.  0.
     999903    2    3    3    0    0  0.12150497200E+00 -0.34282998663E-01  0.38077448910E-01  0.13342070412E+00  0.20307879116E-01 0.  0.
         14    1    1    2    0    0 -0.23140462829E-01  0.34299365999E-02  0.27315504037E-02  0.23552215450E-01  0.00000000000E+00 0.  1.
     999901    1    3    3    0    0 -0.98364509170E-01  0.30853062063E-01 -0.40808999313E-01  0.88695708043E+00  0.88000000000E+00 0. -1.
        -11    1    4    4    0    0  0.58605185726E-01 -0.25234762993E-01  0.13106512170E-01  0.65141406490E-01  0.51100000000E-03 0. -1.
         11    1    4    4    0    0  0.62899786273E-01 -0.90482356705E-02  0.24970936740E-01  0.68279297628E-01  0.51100000000E-03 0.  1.
</event>
<event>
 8    1  0.1123470E+005  0.1043930E+01  0.7957747E-01            NaN
         13   -1    0    0    0    0  0.00000000000E+00  0.00000000000E+00  0.74505805969E-08  0.10566000000E+00  0.10566000000E+00 0. -1.
     999900   -1    0    0    0    0 -0.00000000000E+00 -0.00000000000E+00 -0.74505805969E-08  0.93827000000E+00  0.93827000000E+00 0.  1.
     999902    2    1    2    0    0  0.23103196115E-01 -0.10267577057E-01  0.36967399757E-02  0.10183791351E+01  0.10180585524E+01 0.  0.
     999903    2    3    3    0    0  0.81259919745E-01  0.86505485175E-01  0.49925275544E-01  0.12996239306E+00  0.17644176098E-01 0.  0.
         14    1    1    2    0    0 -0.23103196115E-01  0.10267577057E-01 -0.36967399757E-02  0.25550864874E-01  0.00000000000E+00 0.  1.
     999901    1    3    3    0    0 -0.58156723630E-01 -0.96773062232E-01 -0.46228535569E-01  0.88841674206E+00  0.88000000000E+00 0.  1.
        -11    1    4    4    0    0  0.12881421340E-01  0.20005139613E-01  0.16208084162E-01  0.28794092101E-01  0.51100000000E-03 0. -1.
         11    1    4    4    0    0  0.68378498405E-01  0.66500345561E-01  0.33717191382E-01  0.10116830096E+00  0.51100000000E-03 0.  1.
</event>
<event>
 8    1  0.1123470E+005  0.1043930E+01  0.7957747E-01            NaN
         13   -1    0    0    0    0  0.00000000000E+00  0.00000000000E+00  0.74505805969E-08  0.10566000000E+00  0.10566000000E+00 0. -1.
     999900   -1    0    0    0    0 -0.00000000000E+00 -0.00000000000E+00 -0.74505805969E-08  0.93827000000E+00  0.93827000000E+00 0.  1.
     999902    2    1    2    0    0 -0.21277640982E-01  0.33424769508E-02 -0.10021289870E-01  0.10201742342E+01  0.10198976085E+01 0.  0.
     999903    2    3    3    0    0  0.81760365251E-01  0.13144098175E-01 -0.97782957780E-01  0.12977263219E+00  0.20540316243E-01 0.  0.
         14    1    1    2    0    0  0.21277640982E-01 -0.33424769508E-02  0.10021289870E-01  0.23755765797E-01  0.00000000000E+00 0.  1.
     999901    1    3    3    0    0 -0.10303800623E+00 -0.98016212243E-02  0.87761667910E-01  0.89040160201E+00  0.88000000000E+00 0. -1.
        -11    1    4    4    0    0  0.33663326704E-01  0.11025507352E-02 -0.53891010194E-01  0.63552633964E-01  0.51100000000E-03 0.  1.
         11    1    4    4    0    0  0.48097038547E-01  0.12041547440E-01 -0.43891947586E-01  0.66219998230E-01  0.51100000000E-03 0. -1.
</event>
<event>
 8    1  0.1123470E+005  0.1043930E+01  0.7957747E-01            NaN
         13   -1    0    0    0    0  0.00000000000E+00  0.00000000000E+00  0.74505805969E-08  0.10566000000E+00  0.10566000000E+00 0.  1.
     999900   -1    0    0    0    0 -0.00000000000E+00 -0.00000000000E+00 -0.74505805969E-08  0.93827000000E+00  0.93827000000E+00 0. -1.
     999902    2    1    2    0    0  0.60350355867E-02 -0.21543367775E-01  0.87689994632E-02  0.10199001498E+01  0.10196170270E+01 0.  0.
     999903    2    3    3    0    0  0.10836697338E+00 -0.69157835697E-01  0.27897549011E-01  0.13248544152E+00  0.15745215621E-01 0.  0.
         14    1    1    2    0    0 -0.60350355867E-02  0.21543367775E-01 -0.87689994632E-02  0.24029850212E-01  0.00000000000E+00 0. -1.
     999901    1    3    3    0    0 -0.10233193779E+00  0.47614467921E-01 -0.19128549548E-01  0.88741470827E+00  0.88000000000E+00 0.  1.
        -11    1    4    4    0    0  0.70764140021E-01 -0.53246117551E-01  0.21738348592E-01  0.91189524989E-01  0.51100000000E-03 0.  1.
         11    1    4    4    0    0  0.37602833360E-01 -0.15911718145E-01  0.61592004188E-02  0.41295916527E-01  0.51100000000E-03 0. -1.
</event>
<event>
 8    1  0.1123470E+005  0.1043930E+01  0.7957747E-01            NaN
         13   -1    0    0    0    0  0.00000000000E+00  0.00000000000E+00  0.74505805969E-08  0.10566000000E+00  0.10566000000E+00 0.  1.
     999900   -1    0    0    0    0 -0.00000000000E+00 -0.00000000000E+00 -0.74505805969E-08  0.93827000000E+00  0.93827000000E+00 0.  1.
     999902    2    1    2    0    0  0.91272596349E-02  0.93694468686E-02  0.20231735168E-01  0.10198381651E+01  0.10195535623E+01 0.  0.
     999903    2    3    3    0    0 -0.57002806301E-02  0.12799705323E+00 -0.18303317730E-01  0.13091898130E+00  0.19723827989E-01 0.  0.
         14    1    1    2    0    0 -0.91272596349E-02 -0.93694468686E-02 -0.20231735168E-01  0.24091834944E-01  0.00000000000E+00 0. -1.
     999901    1    3    3    0    0  0.14827540265E-01 -0.11862760636E+00  0.38535052898E-01  0.88891918375E+00  0.88000000000E+00 0. -1.
        -11    1    4    4    0    0 -0.94664585288E-02  0.59870150225E-01 -0.14399614054E-02  0.60633186745E-01  0.51100000000E-03 0. -1.
         11    1    4    4    0    0  0.37661778987E-02  0.68126903006E-01 -0.16863356324E-01  0.70285794558E-01  0.51100000000E-03 0.  1.
</event>
<event>
 7    1  0.1123470E+005  0.1043930E+01  0.7957747E-01            NaN
         13   -1    0    0    0    0  0.00000000000E+00  0.00000000000E+00  0.74505805969E-08  0.10566000000E+00  0.10566000000E+00 0. -1.
     999900   -1    0    0    0    0 -0.00000000000E+00 -0.00000000000E+00 -0.74505805969E-08  0.93827000000E+00  0.93827000000E+00 0.  1.
     999903    2    1    2    0    0  0.69893921731E-01  0.54577236084E-01 -0.64851489066E-01  0.11161243302E+00  0.19692246610E-01 0.  0.
         14    1    1    2    0    0 -0.24855190911E-03  0.19149133493E-01 -0.35993119381E-01  0.40770770588E-01  0.00000000000E+00 0.  1.
     999901    1    1    2    0    0 -0.69645369822E-01 -0.73726369577E-01  0.10084460845E+00  0.89154679639E+00  0.88000000000E+00 0. -1.
        -11    1    3    3    0    0  0.23212278658E-01  0.10714273491E-01 -0.10647695389E-01  0.27699098813E-01  0.51100000000E-03 0.  1.
         11    1    3    3    0    0  0.46681643073E-01  0.43862962593E-01 -0.54203793677E-01  0.83913334205E-01  0.51100000000E-03 0. -1.
</event>
<event>
 8    1  0.1123470E+005  0.1043930E+01  0.7957747E-01            NaN
         13   -1    0    0    0    0  0.00000000000E+00  0.00000000000E+00  0.74505805969E-08  0.10566000000E+00  0.10566000000E+00 0.  1.
     999900   -1    0    0    0    0 -0.00000000000E+00 -0.00000000000E+00 -0.74505805969E-08  0.93827000000E+00  0.93827000000E+00 0. -1.
     999902    2    1    2    0    0  0.22587507138E-01  0.12948344302E-01 -0.38326906884E-02  0.10176137575E+01  0.10172734219E+01 0.  0.
     999903    2    3    3    0    0  0.93831999575E-01 -0.54446010017E-01 -0.68563164265E-01  0.12980307339E+00  0.19470958282E-01 0.  0.
         14    1    1    2    0    0 -0.22587507138E-01 -0.12948344302E-01  0.38326906884E-02  0.26316242452E-01  0.00000000000E+00 0.  1.
     999901    1    3    3    0    0 -0.71244492437E-01  0.67394354319E-01  0.64730473577E-01  0.88781068416E+00  0.88000000000E+00 0. -1.
        -11    1    4    4    0    0  0.43069460412E-01 -0.13941088956E-01 -0.28441007205E-01  0.53464795831E-01  0.51100000000E-03 0. -1.
         11    1    4    4    0    0  0.50762539163E-01 -0.40504921061E-01 -0.40122157060E-01  0.76338277558E-01  0.51100000000E-03 0.  1.
</event>
<event>
 8    1  0.1123470E+005  0.1043930E+01  0.7957747E-01            NaN
         13   -1    0    0    0    0  0.00000000000E+00  0.00000000000E+00  0.74505805969E-08  0.10566000000E+00  0.10566000000E+00 0. -1.
     999900   -1    0    0    0    0 -0.00000000000E+00 -0.00000000000E+00 -0.74505805969E-08  0.93827000000E+00  0.93827000000E+00 0. -1.
     999902    2    1    2    0    0 -0.92126641982E-02  0.18850317049E-01  0.11226181386E-01  0.10201343117E+01  0.10198567444E+01 0.  0.
     999903    2    3    3    0    0 -0.87381700825E-01 -0.89714791418E-01 -0.24834857364E-01  0.12929359663E+00  0.20390158183E-01 0.  0.
         14    1    1    2    0    0  0.92126641982E-02 -0.18850317049E-01 -0.11226181386E-01  0.23795688328E-01  0.00000000000E+00 0.  1.
     999901    1    3    3    0    0  0.78169036627E-01  0.10856510847E+00  0.36061038750E-01  0.89084071504E+00  0.88000000000E+00 0.  1.
        -11    1    4    4    0    0 -0.40854559958E-01 -0.32995752998E-01 -0.23798217361E-02  0.52571279780E-01  0.51100000000E-03 0.  1.
         11    1    4    4    0    0 -0.46527140867E-01 -0.56719038420E-01 -0.22455035628E-01  0.76722316848E-01  0.51100000000E-03 0. -1.
</event>
<event>
 8    1  0.1123470E+005  0.1043930E+01  0.7957747E-01            NaN
         13   -1    0    0    0    0  0.00000000000E+00  0.00000000000E+00  0.74505805969E-08  0.10566000000E+00  0.10566000000E+00 0. -1.
     999900   -1    0    0    0    0 -0.00000000000E+00 -0.00000000000E+00 -0.74505805969E-08  0.93827000000E+00  0.93827000000E+00 0.  1.
     999902    2    1    2    0    0 -0.16237112574E-01  0.55315783519E-02  0.16495612113E-01  0.10201319454E+01  0.10198543223E+01 0.  0.
     999903    2    3    3    0    0 -0.84530787245E-01  0.64503575763E-01 -0.73542811538E-01  0.13094768991E+00  0.20798727964E-01 0.  0.
         14    1    1    2    0    0  0.16237112574E-01 -0.55315783519E-02 -0.16495612113E-01  0.23798054601E-01  0.00000000000E+00 0.  1.
     999901    1    3    3    0    0  0.68293674672E-01 -0.58971997411E-01  0.90038423651E-01  0.88918425549E+00  0.88000000000E+00 0. -1.
        -11    1    4    4    0    0 -0.53373785168E-01  0.27916970584E-01 -0.38902603324E-01  0.71706288819E-01  0.51100000000E-03 0. -1.
         11    1    4    4    0    0 -0.31157002077E-01  0.36586605179E-01 -0.34640208214E-01  0.59241401090E-01  0.51100000000E-03 0.  1.
</event>
<event>
 8    1  0.1123470E+005  0.1043930E+01  0.7957747E-01            NaN
         13   -1    0    0    0    0  0.00000000000E+00  0.00000000000E+00  0.74505805969E-08  0.10566000000E+00  0.10566000000E+00 0.  1.
     999900   -1    0    0    0    0 -0.00000000000E+00 -0.00000000000E+00 -0.74505805969E-08  0.93827000000E+00  0.93827000000E+00 0.  1.
     999902    2    1    2    0    0 -0.19431230897E-01 -0.12958937862E-01 -0.16444720146E-02  0.10205160919E+01  0.10202474615E+01 0.  0.
     999903    2    3    3    0    0  0.37892044001E-01 -0.28641977569E-01  0.11979746419E+00  0.13019027544E+00  0.18490687193E-01 0.  0.
         14    1    1    2    0    0  0.19431230897E-01  0.12958937862E-01  0.16444720146E-02  0.23413908108E-01  0.00000000000E+00 0. -1.
     999901    1    3    3    0    0 -0.57323274897E-01  0.15683039707E-01 -0.12144193621E+00  0.89032581646E+00  0.88000000000E+00 0.  1.
        -11    1    4    4    0    0  0.11961822478E-01 -0.17096999198E-01  0.34824400844E-01  0.40600401398E-01  0.51100000000E-03 0. -1.
         11    1    4    4    0    0  0.25930221523E-01 -0.11544978372E-01  0.84973063350E-01  0.89589874037E-01  0.51100000000E-03 0.  1.
</event>
<event>
 8    1  0.1123470E+005  0.1043930E+01  0.7957747E-01            NaN
         13   -1    0    0    0    0  0.00000000000E+00  0.00000000000E+00  0.74505805969E-08  0.10566000000E+00  0.10566000000E+00 0.  1.
     999900   -1    0    0    0    0 -0.00000000000E+00 -0.00000000000E+00 -0.74505805969E-08  0.93827000000E+00  0.93827000000E+00 0.  1.
     999902    2    1    2    0    0 -0.21407398009E-01  0.28694924070E-02  0.91764418895E-02  0.10204626235E+01  0.10201927505E+01 0.  0.
     999903    2    3    3    0    0  0.19110205112E-01  0.12685888041E+00  0.17851784847E-01  0.13080521407E+00  0.18246707299E-01 0.  0.
         14    1    1    2    0    0  0.21407398009E-01 -0.28694924070E-02 -0.91764418895E-02  0.23467376546E-01  0.00000000000E+00 0. -1.
     999901    1    3    3    0    0 -0.40517603121E-01 -0.12398938800E+00 -0.86753429574E-02  0.88965740939E+00  0.88000000000E+00 0. -1.
        -11    1    4    4    0    0  0.65631000322E-02  0.96313705468E-01  0.12372052909E-01  0.97327965957E-01  0.51100000000E-03 0.  1.
         11    1    4    4    0    0  0.12547105080E-01  0.30545174940E-01  0.54797319375E-02  0.33477248111E-01  0.51100000000E-03 0. -1.
</event>
<event>
 8    1  0.1123470E+005  0.1043930E+01  0.7957747E-01            NaN
         13   -1    0    0    0    0  0.00000000000E+00  0.00000000000E+00  0.74505805969E-08  0.10566000000E+00  0.10566000000E+00 0. -1.
     999900   -1    0    0    0    0 -0.00000000000E+00 -0.00000000000E+00 -0.74505805969E-08  0.93827000000E+00  0.93827000000E+00 0. -1.
     999902    2    1    2    0    0 -0.10306728259E-03  0.22467117828E-01 -0.52566108162E-02  0.10208559028E+01  0.10205951010E+01 0.  0.
     999903    2    3    3    0    0 -0.78510215552E-01 -0.79181313035E-01 -0.62900813100E-01  0.12967525976E+00  0.20630715566E-01 0.  0.
         14    1    1    2    0    0  0.10306728259E-03 -0.22467117828E-01  0.52566108162E-02  0.23074097244E-01  0.00000000000E+00 0. -1.
     999901    1    3    3    0    0  0.78407148270E-01  0.10164843086E+00  0.57644202284E-01  0.89118064300E+00  0.88000000000E+00 0. -1.
        -11    1    4    4    0    0 -0.50391130381E-02  0.40699336327E-03 -0.28118333734E-02  0.58073945732E-02  0.51100000000E-03 0.  1.
         11    1    4    4    0    0 -0.73471102514E-01 -0.79588306398E-01 -0.60088979726E-01  0.12386786519E+00  0.51100000000E-03 0. -1.
</event>
<event>
 7    1  0.1123470E+005  0.1043930E+01  0.7957747E-01            NaN
         13   -1    0    0    0    0  0.00000000000E+00  0.00000000000E+00  0.74505805969E-08  0.10566000000E+00  0.10566000000E+00 0.  1.
     999900   -1    0    0    0    0 -0.00000000000E+00 -0.00000000000E+00 -0.74505805969E-08  0.93827000000E+00  0.93827000000E+00 0.  1.
     999903    2    1    2    0    0  0.24996525408E-01 -0.63222288626E-01 -0.67386889314E-01  0.98189052032E-01  0.21868082359E-01 0.  0.
         14    1    1    2    0    0  0.40376150353E-01  0.30014466168E-01 -0.27962373165E-01  0.57558631062E-01  0.00000000000E+00 0.  1.
     999901    1    1    2    0    0 -0.65372675761E-01  0.33207822458E-01  0.95349262479E-01  0.88818231691E+00  0.88000000000E+00 0. -1.
        -11    1    3    3    0    0  0.12836478915E-01 -0.86425882611E-02 -0.13892190008E-01  0.20802009206E-01  0.51100000000E-03 0. -1.
         11    1    3    3    0    0  0.12160046494E-01 -0.54579700365E-01 -0.53494699306E-01  0.77387042827E-01  0.51100000000E-03 0.  1.
</event>
<event>
 8    1  0.1123470E+005  0.1043930E+01  0.7957747E-01            NaN
         13   -1    0    0    0    0  0.00000000000E+00  0.00000000000E+00  0.74505805969E-08  0.10566000000E+00  0.10566000000E+00 0. -1.
     999900   -1    0    0    0    0 -0.00000000000E+00 -0.00000000000E+00 -0.74505805969E-08  0.93827000000E+00  0.93827000000E+00 0. -1.
     999902    2    1    2    0    0 -0.18570995354E-01  0.59973591090E-02 -0.12517108292E-01  0.10207453459E+01  0.10204820101E+01 0.  0.
     999903    2    3    3    0    0  0.53443615480E-01  0.10838521073E+00 -0.47138866301E-01  0.13121286059E+00  0.19777970752E-01 0.  0.
         14    1    1    2    0    0  0.18570995354E-01 -0.59973591090E-02  0.12517108292E-01  0.23184654078E-01  0.00000000000E+00 0. -1.
     999901    1    3    3    0    0 -0.72014610834E-01 -0.10238785162E+00  0.34621758009E-01  0.88953248533E+00  0.88000000000E+00 0.  1.
        -11    1    4    4    0    0  0.37538450774E-01  0.86198114767E-01 -0.28833867872E-01  0.98340751133E-01  0.51100000000E-03 0. -1.
         11    1    4    4    0    0  0.15905164706E-01  0.22187095965E-01 -0.18304998429E-01  0.32872109457E-01  0.51100000000E-03 0.  1.
</event>
<event>
 8    1  0.1123470E+005  0.1043930E+01  0.7957747E-01            NaN
         13   -1    0    0    0    0  0.00000000000E+00  0.00000000000E+00  0.74505805969E-08  0.10566000000E+00  0.10566000000E+00 0.  1.
     999900   -1    0    0    0    0 -0.00000000000E+00 -0.00000000000E+00 -0.74505805969E-08  0.93827000000E+00  0.93827000000E+00 0.  1.
     999902    2    1    2    0    0 -0.14741586692E-01  0.13669132208E-01  0.13549979300E-01  0.10196862071E+01  0.10193979593E+01 0.  0.
     999903    2    3    3    0    0 -0.55202095573E-01  0.96410317714E-01 -0.66959849184E-01  0.13122405879E+00  0.19847203454E-01 0.  0.
         14    1    1    2    0    0  0.14741586692E-01 -0.13669132208E-01 -0.13549979300E-01  0.24243792867E-01  0.00000000000E+00 0. -1.
     999901    1    3    3    0    0  0.40460508880E-01 -0.82741185506E-01  0.80509828484E-01  0.88846214834E+00  0.88000000000E+00 0. -1.
        -11    1    4    4    0    0 -0.21643905487E-01  0.22272283164E-01 -0.23624201704E-01  0.39024060133E-01  0.51100000000E-03 0. -1.
         11    1    4    4    0    0 -0.33558190086E-01  0.74138034550E-01 -0.43335647480E-01  0.92199998656E-01  0.51100000000E-03 0.  1.
</event>
<event>
 8    1  0.1123470E+005  0.1043930E+01  0.7957747E-01            NaN
         13   -1    0    0    0    0  0.00000000000E+00  0.00000000000E+00  0.74505805969E-08  0.10566000000E+00  0.10566000000E+00 0.  1.
     999900   -1    0    0    0    0 -0.00000000000E+00 -0.00000000000E+00 -0.74505805969E-08  0.93827000000E+00  0.93827000000E+00 0.  1.
     999902    2    1    2    0    0  0.20180289672E-01  0.11131639395E-01  0.92675670641E-02  0.10190896037E+01  0.10187868154E+01 0.  0.
     999903    2    3    3    0    0 -0.53851940958E-01 -0.95536441001E-01 -0.60416212101E-01  0.12683701640E+00  0.20255047269E-01 0.  0.
         14    1    1    2    0    0 -0.20180289672E-01 -0.11131639395E-01 -0.92675670641E-02  0.24840396256E-01  0.00000000000E+00 0.  1.
     999901    1    3    3    0    0  0.74032230630E-01  0.10666808040E+00  0.69683779165E-01  0.89225258735E+00  0.88000000000E+00 0. -1.
        -11    1    4    4    0    0 -0.30990752358E-01 -0.48547944031E-01 -0.20718872704E-01  0.61211619881E-01  0.51100000000E-03 0.  1.
         11    1    4    4    0    0 -0.22861188600E-01 -0.46988496970E-01 -0.39697339397E-01  0.65625396516E-01  0.51100000000E-03 0. -1.
</event>
<event>
 8    1  0.1123470E+005  0.1043930E+01  0.7957747E-01            NaN
         13   -1    0    0    0    0  0.00000000000E+00  0.00000000000E+00  0.74505805969E-08  0.10566000000E+00  0.10566000000E+00 0. -1.
     999900   -1    0    0    0    0 -0.00000000000E+00 -0.00000000000E+00 -0.74505805969E-08  0.93827000000E+00  0.93827000000E+00 0.  1.
     999902    2    1    2    0    0 -0.21797103716E-01  0.83126421501E-03 -0.87208285056E-02  0.10204383508E+01  0.10201679128E+01 0.  0.
     999903    2    3    3    0    0 -0.44136266256E-01  0.12239905764E+00  0.38694512495E-02  0.13171101260E+00  0.20081804646E-01 0.  0.
         14    1    1    2    0    0  0.21797103716E-01 -0.83126421501E-03  0.87208285056E-02  0.23491649163E-01  0.00000000000E+00 0. -1.
     999901    1    3    3    0    0  0.22339162540E-01 -0.12156779342E+00 -0.12590279755E-01  0.88872733823E+00  0.88000000000E+00 0.  1.
        -11    1    4    4    0    0 -0.43238684184E-01  0.97359355538E-01  0.15319340072E-02  0.10654124020E+00  0.51100000000E-03 0. -1.
         11    1    4    4    0    0 -0.89758207156E-03  0.25039702100E-01  0.23375172423E-02  0.25169772401E-01  0.51100000000E-03 0.  1.
</event>
<event>
 8    1  0.1123470E+005  0.1043930E+01  0.7957747E-01            NaN
         13   -1    0    0    0    0  0.00000000000E+00  0.00000000000E+00  0.74505805969E-08  0.10566000000E+00  0.10566000000E+00 0.  1.
     999900   -1    0    0    0    0 -0.00000000000E+00 -0.00000000000E+00 -0.74505805969E-08  0.93827000000E+00  0.93827000000E+00 0.  1.
     999902    2    1    2    0    0  0.18869687523E-01 -0.19131764190E-02  0.14704812639E-01  0.10199308986E+01  0.10196485086E+01 0.  0.
     999903    2    3    3    0    0 -0.29944971914E-02  0.61630596073E-01  0.11462131921E+00  0.13173094262E+00  0.20191509082E-01 0.  0.
         14    1    1    2    0    0 -0.18869687523E-01  0.19131764190E-02 -0.14704812639E-01  0.23999101358E-01  0.00000000000E+00 0. -1.
     999901    1    3    3    0    0  0.21864184715E-01 -0.63543772493E-01 -0.99916506575E-01  0.88819995602E+00  0.88000000000E+00 0.  1.
        -11    1    4    4    0    0  0.61850162059E-02  0.47133182657E-01  0.88779675729E-01  0.10070691772E+00  0.51100000000E-03 0.  1.
         11    1    4    4    0    0 -0.91795133973E-02  0.14497413417E-01  0.25841643484E-01  0.31024024899E-01  0.51100000000E-03 0. -1.
</event>
<event>
 8    1  0.1123470E+005  0.1043930E+01  0.7957747E-01            NaN
         13   -1    0    0    0    0  0.00000000000E+00  0.00000000000E+00  0.74505805969E-08  0.10566000000E+00  0.10566000000E+00 0.  1.
     999900   -1    0    0    0    0 -0.00000000000E+00 -0.00000000000E+00 -0.74505805969E-08  0.93827000000E+00  0.93827000000E+00 0. -1.
     999902    2    1    2    0    0 -0.64243422566E-02  0.51810269040E-02 -0.21560522856E-01  0.10208438275E+01  0.10205827496E+01 0.  0.
     999903    2    3    3    0    0 -0.16744271304E-01 -0.10164843558E+00 -0.80832112302E-01  0.13234388026E+00  0.19191070502E-01 0.  0.
         14    1    1    2    0    0  0.64243422566E-02 -0.51810269040E-02  0.21560522856E-01  0.23086172463E-01  0.00000000000E+00 0.  1.
     999901    1    3    3    0    0  0.10319929048E-01  0.10682946248E+00  0.59271589447E-01  0.88849994727E+00  0.88000000000E+00 0.  1.
        -11    1    4    4    0    0 -0.79114672811E-02 -0.21892202985E-01 -0.10118483558E-01  0.25387097049E-01  0.51100000000E-03 0.  1.
         11    1    4    4    0    0 -0.88328040231E-02 -0.79756232592E-01 -0.70713628745E-01  0.10695678321E+00  0.51100000000E-03 0. -1.
</event>
<event>
 8    1  0.1123470E+005  0.1043930E+01  0.7957747E-01            NaN
         13   -1    0    0    0    0  0.00000000000E+00  0.00000000000E+00  0.74505805969E-08  0.10566000000E+00  0.10566000000E+00 0. -1.
     999900   -1    0    0    0    0 -0.00000000000E+00 -0.00000000000E+00 -0.74505805969E-08  0.93827000000E+00  0.93827000000E+00 0.  1.
     999902    2    1    2    0    0  0.11316403021E-01 -0.20188406259E-01  0.44582417788E-02  0.10203607691E+01  0.10200885209E+01 0.  0.
     999903    2    3    3    0    0  0.21974456012E-01  0.76543916423E-01  0.10151100796E+00  0.12969249430E+00  0.13183720306E-01 0.  0.
         14    1    1    2    0    0 -0.11316403021E-01  0.20188406259E-01 -0.44582417788E-02  0.23569230882E-01  0.00000000000E+00 0.  1.
     999901    1    3    3    0    0 -0.10658052991E-01 -0.96732322682E-01 -0.97052766185E-01  0.89066827482E+00  0.88000000000E+00 0.  1.
        -11    1    4    4    0    0  0.45502493024E-02  0.29593981918E-01  0.46408025993E-01  0.55231101130E-01  0.51100000000E-03 0.  1.
         11    1    4    4    0    0  0.17424206710E-01  0.46949934505E-01  0.55102981971E-01  0.74461393169E-01  0.51100000000E-03 0. -1.
</event>
<event>
 8    1  0.1123470E+005  0.1043930E+01  0.7957747E-01            NaN
         13   -1    0    0    0    0  0.00000000000E+00  0.00000000000E+00  0.74505805969E-08  0.10566000000E+00  0.10566000000E+00 0. -1.
     999900   -1    0    0    0    0 -0.00000000000E+00 -0.00000000000E+00 -0.74505805969E-08  0.93827000000E+00  0.93827000000E+00 0.  1.
     999902    2    1    2    0    0  0.11535770837E-01  0.57458300196E-02 -0.18042599682E-01  0.10217574049E+01  0.10215167989E+01 0.  0.
     999903    2    3    3    0    0 -0.35123157791E-01  0.81163669849E-01 -0.98108983644E-01  0.13368334713E+00  0.20607938102E-01 0.  0.
         14    1    1    2    0    0 -0.11535770837E-01 -0.57458300196E-02  0.18042599682E-01  0.22172595128E-01  0.00000000000E+00 0.  1.
     999901    1    3    3    0    0  0.46658928628E-01 -0.75417839829E-01  0.80066383962E-01  0.88807405774E+00  0.88000000000E+00 0. -1.
        -11    1    4    4    0    0 -0.33422132110E-01  0.69560932602E-01 -0.74252412633E-01  0.10709549086E+00  0.51100000000E-03 0. -1.
         11    1    4    4    0    0 -0.17010256812E-02  0.11602737247E-01 -0.23856571011E-01  0.26587856277E-01  0.51100000000E-03 0.  1.
</event>
<event>
 8    1  0.1123470E+005  0.1043930E+01  0.7957747E-01            NaN
         13   -1    0    0    0    0  0.00000000000E+00  0.00000000000E+00  0.74505805969E-08  0.10566000000E+00  0.10566000000E+00 0.  1.
     999900   -1    0    0    0    0 -0.00000000000E+00 -0.00000000000E+00 -0.74505805969E-08  0.93827000000E+00  0.93827000000E+00 0. -1.
     999902    2    1    2    0    0  0.15939146276E-01 -0.16998592758E-01  0.18347940988E-02  0.10205553340E+01  0.10202876138E+01 0.  0.
     999903    2    3    3    0    0  0.59940015885E-01 -0.72738916285E-01 -0.91400199948E-01  0.13278519244E+00  0.19853345636E-01 0.  0.
         14    1    1    2    0    0 -0.15939146276E-01  0.16998592758E-01 -0.18347940988E-02  0.23374665969E-01  0.00000000000E+00 0. -1.
     999901    1    3    3    0    0 -0.44000869609E-01  0.55740323528E-01  0.93234994047E-01  0.88777014160E+00  0.88000000000E+00 0. -1.
        -11    1    4    4    0    0  0.34770602433E-01 -0.56341521894E-01 -0.60516051322E-01  0.89698469728E-01  0.51100000000E-03 0.  1.
         11    1    4    4    0    0  0.25169413452E-01 -0.16397394391E-01 -0.30884148626E-01  0.43086722708E-01  0.51100000000E-03 0. -1.
</event>
<event>
 8    1  0.1123470E+005  0.1043930E+01  0.7957747E-01            NaN
         13   -1    0    0    0    0  0.00000000000E+00  0.00000000000E+00  0.74505805969E-08  0.10566000000E+00  0.10566000000E+00 0.  1.
     999900   -1    0    0    0    0 -0.00000000000E+00 -0.00000000000E+00 -0.74505805969E-08  0.93827000000E+00  0.93827000000E+00 0. -1.
     999902    2    1    2    0    0 -0.20619407378E-01 -0.48895228407E-02  0.10233387924E-01  0.10203972649E+01  0.10201258690E+01 0.  0.
     999903    2    3    3    0    0 -0.88692286918E-01  0.93960859896E-01  0.18947019035E-01  0.13220739640E+00  0.20611675820E-01 0.  0.
         14    1    1    2    0    0  0.20619407378E-01  0.48895228407E-02 -0.10233387924E-01  0.23532735129E-01  0.00000000000E+00 0. -1.
     999901    1    3    3    0    0  0.68072879540E-01 -0.98850382737E-01 -0.87136311110E-02  0.88818986848E+00  0.88000000000E+00 0.  1.
        -11    1    4    4    0    0 -0.52402615391E-01  0.59399416992E-01  0.21330324976E-01  0.82033948604E-01  0.51100000000E-03 0.  1.
         11    1    4    4    0    0 -0.36289671527E-01  0.34561442904E-01 -0.23833059407E-02  0.50173447792E-01  0.51100000000E-03 0. -1.
</event>
<event>
 8    1  0.1123470E+005  0.1043930E+01  0.7957747E-01            NaN
         13   -1    0    0    0    0  0.00000000000E+00  0.00000000000E+00  0.74505805969E-08  0.10566000000E+00  0.10566000000E+00 0. -1.
     999900   -1    0    0    0    0 -0.00000000000E+00 -0.00000000000E+00 -0.74505805969E-08  0.93827000000E+00  0.93827000000E+00 0. -1.
     999902    2    1    2    0    0 -0.34459281669E-02 -0.44894761481E-03 -0.23149240471E-01  0.10205213839E+01  0.10202528763E+01 0.  0.
     999903    2    3    3    0    0  0.50806047899E-01 -0.62068935537E-01 -0.10403064605E+00  0.13300681971E+00  0.20847817911E-01 0.  0.
         14    1    1    2    0    0  0.34459281669E-02  0.44894761481E-03  0.23149240471E-01  0.23408616133E-01  0.00000000000E+00 0. -1.
     999901    1    3    3    0    0 -0.54251976066E-01  0.61619987922E-01  0.80881405574E-01  0.88751456415E+00  0.88000000000E+00 0.  1.
        -11    1    4    4    0    0  0.11490254397E-01 -0.53585334535E-02 -0.25373762981E-01  0.28369504679E-01  0.51100000000E-03 0. -1.
         11    1    4    4    0    0  0.39315793502E-01 -0.56710402084E-01 -0.78656883064E-01  0.10463731503E+00  0.51100000000E-03 0.  1.
</event>
<event>
 8    1  0.1123470E+005  0.1043930E+01  0.7957747E-01            NaN
         13   -1    0    0    0    0  0.00000000000E+00  0.00000000000E+00  0.74505805969E-08  0.10566000000E+00  0.10566000000E+00 0.  1.
     999900   -1    0    0    0    0 -0.00000000000E+00 -0.00000000000E+00 -0.74505805969E-08  0.93827000000E+00  0.93827000000E+00 0. -1.
     999902    2    1    2    0    0 -0.12704124438E-01  0.86759838287E-02 -0.20456396025E-01  0.10183344611E+01  0.10180127421E+01 0.  0.
     999903    2    3    3    0    0  0.13743091717E-02 -0.84062298487E-01  0.91556339327E-01  0.12628880970E+00  0.22314601331E-01 0.  0.
         14    1    1    2    0    0  0.12704124438E-01 -0.86759838287E-02  0.20456396025E-01  0.25595538898E-01  0.00000000000E+00 0.  1.
     999901    1    3    3    0    0 -0.14078433609E-01  0.92738282316E-01 -0.11201273535E+00  0.89204565140E+00  0.88000000000E+00 0. -1.
        -11    1    4    4    0    0 -0.83820296097E-02 -0.55190056871E-01  0.66544275964E-01  0.86859671784E-01  0.51100000000E-03 0.  1.
         11    1    4    4    0    0  0.97563387813E-02 -0.28872241617E-01  0.25012063363E-01  0.39429137919E-01  0.51100000000E-03 0. -1.
</event>
<event>
 8    1  0.1123470E+005  0.1043930E+01  0.7957747E-01            NaN
         13   -1    0    0    0    0  0.00000000000E+00  0.00000000000E+00  0.74505805969E-08  0.10566000000E+00  0.10566000000E+00 0. -1.
     999900   -1    0    0    0    0 -0.00000000000E+00 -0.00000000000E+00 -0.74505805969E-08  0.93827000000E+00  0.93827000000E+00 0.  1.
     999902    2    1    2    0    0 -0.64817991842E-02  0.18335604493E-01 -0.10585891591E-01  0.10217879763E+01  0.10215480406E+01 0.  0.
     999903    2    3    3    0    0 -0.12116259741E+00 -0.44483490492E-01  0.16745014941E-01  0.13170657405E+00  0.20175980388E-01 0.  0.
         14    1    1    2    0    0  0.64817991842E-02 -0.18335604493E-01  0.10585891591E-01  0.22142023701E-01  0.00000000000E+00 0. -1.
     999901    1    3    3    0    0  0.11468079823E+00  0.62819094985E-01 -0.27330906532E-01  0.89008140225E+00  0.88000000000E+00 0.  1.
        -11    1    4    4    0    0 -0.11373571796E+00 -0.35891028732E-01  0.15560153484E-01  0.12027617794E+00  0.51100000000E-03 0. -1.
         11    1    4    4    0    0 -0.74268794556E-02 -0.85924617603E-02  0.11848614574E-02  0.11430396110E-01  0.51100000000E-03 0.  1.
</event>
<event>
 8    1  0.1123470E+005  0.1043930E+01  0.7957747E-01            NaN
         13   -1    0    0    0    0  0.00000000000E+00  0.00000000000E+00  0.74505805969E-08  0.10566000000E+00  0.10566000000E+00 0.  1.
     999900   -1    0    0    0    0 -0.00000000000E+00 -0.00000000000E+00 -0.74505805969E-08  0.93827000000E+00  0.93827000000E+00 0. -1.
     999902    2    1    2    0    0 -0.16657651946E-01  0.10709545095E-01  0.12434248475E-01  0.10205466243E+01  0.10202787022E+01 0.  0.
     999903    2    3    3    0    0  0.10036846685E+00 -0.12720255477E-02 -0.77299744798E-01  0.12819531451E+00  0.19579094228E-01 0.  0.
         14    1    1    2    0    0  0.16657651946E-01 -0.10709545095E-01 -0.12434248475E-01  0.23383375711E-01  0.00000000000E+00 0. -1.
     999901    1    3    3    0    0 -0.11702611879E+00  0.11981570643E-01  0.89733993273E-01  0.89235130978E+00  0.88000000000E+00 0. -1.
        -11    1    4    4    0    0  0.69857530175E-01 -0.79022276585E-02 -0.60406228037E-01  0.92691387037E-01  0.51100000000E-03 0.  1.
         11    1    4    4    0    0  0.30510936670E-01  0.66302021108E-02 -0.16893516761E-01  0.35503927474E-01  0.51100000000E-03 0. -1.
</event>
<event>
 8    1  0.1123470E+005  0.1043930E+01  0.7957747E-01            NaN
         13   -1    0    0    0    0  0.00000000000E+00  0.00000000000E+00  0.74505805969E-08  0.10566000000E+00  0.10566000000E+00 0. -1.
     999900   -1    0    0    0    0 -0.00000000000E+00 -0.00000000000E+00 -0.74505805969E-08  0.93827000000E+00  0.93827000000E+00 0. -1.
     999902    2    1    2    0    0 -0.12505761581E-01  0.12673240041E-01 -0.19637840651E-01  0.10174224563E+01  0.10170770889E+01 0.  0.
     999903    2    3    3    0    0  0.18360841251E-01  0.42783916669E-01 -0.11938273391E+00  0.13073849699E+00  0.25937105152E-01 0.  0.
         14    1    1    2    0    0  0.12505761581E-01 -0.12673240041E-01  0.19637840651E-01  0.26507543668E-01  0.00000000000E+00 0. -1.
     999901    1    3    3    0    0 -0.30866602832E-01 -0.30110676628E-01  0.99744893258E-01  0.88668395934E+00  0.88000000000E+00 0.  1.
        -11    1    4    4    0    0 -0.30126984058E-03  0.12803836609E-03 -0.29544326016E-01  0.29550557999E-01  0.51100000000E-03 0. -1.
         11    1    4    4    0    0  0.18662111091E-01  0.42655878303E-01 -0.89838407893E-01  0.10118793899E+00  0.51100000000E-03 0.  1.
</event>
<event>
 8    1  0.1123470E+005  0.1043930E+01  0.7957747E-01            NaN
         13   -1    0    0    0    0  0.00000000000E+00  0.00000000000E+00  0.74505805969E-08  0.10566000000E+00  0.10566000000E+00 0.  1.
     999900   -1    0    0    0    0 -0.00000000000E+00 -0.00000000000E+00 -0.74505805969E-08  0.93827000000E+00  0.93827000000E+00 0. -1.
     999902    2    1    2    0    0  0.17257845678E-01 -0.12303387454E-01 -0.96321284253E-02  0.10206494399E+01  0.10203838957E+01 0.  0.
     999903    2    3    3    0    0  0.27685906788E-01 -0.12642225232E+00  0.20326689158E-01  0.13271397461E+00  0.21230389735E-01 0.  0.
         14    1    1    2    0    0 -0.17257845678E-01  0.12303387454E-01  0.96321284253E-02  0.23280560094E-01  0.00000000000E+00 0.  1.
     999901    1    3    3    0    0 -0.10428061110E-01  0.11411886487E+00 -0.29958817584E-01  0.88793546529E+00  0.88000000000E+00 0.  1.
        -11    1    4    4    0    0  0.54683101382E-02 -0.46512357068E-01 -0.18022130263E-02  0.46870149014E-01  0.51100000000E-03 0. -1.
         11    1    4    4    0    0  0.22217596650E-01 -0.79909895253E-01  0.22128902185E-01  0.85843825597E-01  0.51100000000E-03 0.  1.
</event>
<event>
 8    1  0.1123470E+005  0.1043930E+01  0.7957747E-01            NaN
         13   -1    0    0    0    0  0.00000000000E+00  0.00000000000E+00  0.74505805969E-08  0.10566000000E+00  0.10566000000E+00 0.  1.
     999900   -1    0    0    0    0 -0.00000000000E+00 -0.00000000000E+00 -0.74505805969E-08  0.93827000000E+00  0.93827000000E+00 0.  1.
     999902    2    1    2    0    0  0.71021745790E-02 -0.22155343858E-01  0.39618687467E-02  0.10203292257E+01  0.10200562397E+01 0.  0.
     999903    2    3    3    0    0  0.21357507347E-01 -0.60167998150E-01  0.11435263503E+00  0.13250362473E+00  0.20108563028E-01 0.  0.
         14    1    1    2    0    0 -0.71021745790E-02  0.22155343858E-01 -0.39618687467E-02  0.23600774334E-01  0.00000000000E+00 0. -1.
     999901    1    3    3    0    0 -0.14255332768E-01  0.38012654292E-01 -0.11039076628E+00  0.88782560094E+00  0.88000000000E+00 0.  1.
        -11    1    4    4    0    0 -0.23394032665E-03 -0.30704101379E-02  0.19201289625E-01  0.19453349089E-01  0.51100000000E-03 0.  1.
         11    1    4    4    0    0  0.21591447673E-01 -0.57097588012E-01  0.95151345403E-01  0.11305027564E+00  0.51100000000E-03 0. -1.
</event>
<event>
 8    1  0.1123470E+005  0.1043930E+01  0.7957747E-01            NaN
         13   -1    0    0    0    0  0.00000000000E+00  0.00000000000E+00  0.74505805969E-08  0.10566000000E+00  0.10566000000E+00 0. -1.
     999900   -1    0    0    0    0 -0.00000000000E+00 -0.00000000000E+00 -0.74505805969E-08  0.93827000000E+00  0.93827000000E+00 0.  1.
     999902    2    1    2    0    0 -0.12992238438E-01  0.96085488176E-02 -0.16364428043E-01  0.10209318050E+01  0.10206727357E+01 0.  0.
     999903    2    3    3    0    0 -0.79928821740E-01 -0.96119966410E-01 -0.38501452762E-01  0.13180353919E+00  0.16190941665E-01 0.  0.
         14    1    1    2    0    0  0.12992238438E-01 -0.96085488176E-02  0.16364428043E-01  0.22998195042E-01  0.00000000000E+00 0. -1.
     999901    1    3    3    0    0  0.66936583302E-01  0.10572851523E+00  0.22137024719E-01  0.88912826576E+00  0.88000000000E+00 0. -1.
        -11    1    4    4    0    0 -0.50429977685E-01 -0.51565163924E-01 -0.16355987406E-01  0.73958963113E-01  0.51100000000E-03 0. -1.
         11    1    4    4    0    0 -0.29498844055E-01 -0.44554802487E-01 -0.22145465356E-01  0.57844576082E-01  0.51100000000E-03 0.  1.
</event>
<event>
 8    1  0.1123470E+005  0.1043930E+01  0.7957747E-01            NaN
         13   -1    0    0    0    0  0.00000000000E+00  0.00000000000E+00  0.74505805969E-08  0.10566000000E+00  0.10566000000E+00 0.  1.
     999900   -1    0    0    0    0 -0.00000000000E+00 -0.00000000000E+00 -0.74505805969E-08  0.93827000000E+00  0.93827000000E+00 0.  1.
     999902    2    1    2    0    0 -0.10594513160E-02 -0.22978934114E-01  0.69027435934E-02  0.10199133033E+01  0.10196304941E+01 0.  0.
     999903    2    3    3    0    0 -0.11312902082E-01  0.11080531057E+00 -0.58782638261E-01  0.12732273270E+00  0.18705108872E-01 0.  0.
         14    1    1    2    0    0  0.10594513160E-02  0.22978934114E-01 -0.69027435934E-02  0.24016696675E-01  0.00000000000E+00 0. -1.
     999901    1    3    3    0    0  0.10253450766E-01 -0.13378424468E+00  0.65685381854E-01  0.89259057062E+00  0.88000000000E+00 0. -1.
        -11    1    4    4    0    0  0.20129028188E-02  0.35273162321E-01 -0.11222703344E-01  0.37073682703E-01  0.51100000000E-03 0. -1.
         11    1    4    4    0    0 -0.13325804901E-01  0.75532148247E-01 -0.47559934917E-01  0.90249049997E-01  0.51100000000E-03 0.  1.
</event>
<event>
 8    1  0.1123470E+005  0.1043930E+01  0.7957747E-01            NaN
         13   -1    0    0    0    0  0.00000000000E+00  0.00000000000E+00  0.74505805969E-08  0.10566000000E+00  0.10566000000E+00 0. -1.
     999900   -1    0    0    0    0 -0.00000000000E+00 -0.00000000000E+00 -0.74505805969E-08  0.93827000000E+00  0.93827000000E+00 0. -1.
     999902    2    1    2    0    0 -0.10602833919E-01  0.11985638002E-01  0.17690540972E-01  0.10200756326E+01  0.10197966784E+01 0.  0.
     999903    2    3    3    0    0  0.58977261986E-02  0.62893697818E-01 -0.11066459769E+00  0.12915535519E+00  0.21072545944E-01 0.  0.
         14    1    1    2    0    0  0.10602833919E-01 -0.11985638002E-01 -0.17690540972E-01  0.23854367426E-01  0.00000000000E+00 0.  1.
     999901    1    3    3    0    0 -0.16500560118E-01 -0.50908059816E-01  0.12835513866E+00  0.89092027739E+00  0.88000000000E+00 0. -1.
        -11    1    4    4    0    0  0.62367811265E-02  0.41417585634E-01 -0.90347511657E-01  0.99585379560E-01  0.51100000000E-03 0. -1.
         11    1    4    4    0    0 -0.33905492790E-03  0.21476112184E-01 -0.20317086031E-01  0.29569975627E-01  0.51100000000E-03 0.  1.
</event>
<event>
 8    1  0.1123470E+005  0.1043930E+01  0.7957747E-01            NaN
         13   -1    0    0    0    0  0.00000000000E+00  0.00000000000E+00  0.74505805969E-08  0.10566000000E+00  0.10566000000E+00 0.  1.
     999900   -1    0    0    0    0 -0.00000000000E+00 -0.00000000000E+00 -0.74505805969E-08  0.93827000000E+00  0.93827000000E+00 0.  1.
     999902    2    1    2    0    0  0.95252285537E-02 -0.22471612027E-01  0.30382241350E-02  0.10193345912E+01  0.10190378181E+01 0.  0.
     999903    2    3    3    0    0  0.10914276813E+00  0.65882255039E-01 -0.76423849045E-02  0.12925361997E+00  0.19886600108E-01 0.  0.
         14    1    1    2    0    0 -0.95252285537E-02  0.22471612027E-01 -0.30382241350E-02  0.24595408758E-01  0.00000000000E+00 0. -1.
     999901    1    3    3    0    0 -0.99617539574E-01 -0.88353867066E-01  0.10680609039E-01  0.89008097127E+00  0.88000000000E+00 0.  1.
        -11    1    4    4    0    0  0.56305227355E-01  0.29952187254E-01  0.55084118481E-02  0.64015747054E-01  0.51100000000E-03 0.  1.
         11    1    4    4    0    0  0.52837540773E-01  0.35930067785E-01 -0.13150796753E-01  0.65237872913E-01  0.51100000000E-03 0. -1.
</event>
<event>
 8    1  0.1123470E+005  0.1043930E+01  0.7957747E-01            NaN
         13   -1    0    0    0    0  0.00000000000E+00  0.00000000000E+00  0.74505805969E-08  0.10566000000E+00  0.10566000000E+00 0. -1.
     999900   -1    0    0    0    0 -0.00000000000E+00 -0.00000000000E+00 -0.74505805969E-08  0.93827000000E+00  0.93827000000E+00 0.  1.
     999902    2    1    2    0    0  0.17407903085E-01 -0.15526465039E-01 -0.15973781324E-02  0.10205492852E+01  0.10202814248E+01 0.  0.
     999903    2    3    3    0    0  0.91162999588E-01  0.74132901966E-02 -0.93604974021E-01  0.13238745069E+00  0.19972395264E-01 0.  0.
         14    1    1    2    0    0 -0.17407903085E-01  0.15526465039E-01  0.15973781324E-02  0.23380714773E-01  0.00000000000E+00 0.  1.
     999901    1    3    3    0    0 -0.73755096504E-01 -0.22939755236E-01  0.92007595889E-01  0.88816183454E+00  0.88000000000E+00 0. -1.
        -11    1    4    4    0    0  0.47447898106E-01  0.10676678753E-01 -0.38875464054E-01  0.62264414639E-01  0.51100000000E-03 0.  1.
         11    1    4    4    0    0  0.43715101482E-01 -0.32633885562E-02 -0.54729509968E-01  0.70123036049E-01  0.51100000000E-03 0. -1.
</event>
<event>
 8    1  0.1123470E+005  0.1043930E+01  0.7957747E-01            NaN
         13   -1    0    0    0    0  0.00000000000E+00  0.00000000000E+00  0.74505805969E-08  0.10566000000E+00  0.10566000000E+00 0. -1.
     999900   -1    0    0    0    0 -0.00000000000E+00 -0.00000000000E+00 -0.74505805969E-08  0.93827000000E+00  0.93827000000E+00 0.  1.
     999902    2    1    2    0    0  0.91310229725E-02  0.92153359808E-02  0.20062083355E-01  0.10200388890E+01  0.10197590646E+01 0.  0.
     999903    2    3    3    0    0  0.72724601767E-01  0.10821849558E+00 -0.37503370305E-02  0.13188755038E+00  0.19497446735E-01 0.  0.
         14    1    1    2    0    0 -0.91310229725E-02 -0.92153359808E-02 -0.20062083355E-01  0.23891111031E-01  0.00000000000E+00 0.  1.
     999901    1    3    3    0    0 -0.63593578795E-01 -0.99003159600E-01  0.23812420385E-01  0.88815133859E+00  0.88000000000E+00 0. -1.
        -11    1    4    4    0    0  0.66800773899E-01  0.10312063719E+00  0.71942727263E-03  0.12286980062E+00  0.51100000000E-03 0. -1.
         11    1    4    4    0    0  0.59238278678E-02  0.50978583920E-02 -0.44697643031E-02  0.90177497591E-02  0.51100000000E-03 0.  1.
</event>
<event>
 8    1  0.1123470E+005  0.1043930E+01  0.7957747E-01            NaN
         13   -1    0    0    0    0  0.00000000000E+00  0.00000000000E+00  0.74505805969E-08  0.10566000000E+00  0.10566000000E+00 0. -1.
     999900   -1    0    0    0    0 -0.00000000000E+00 -0.00000000000E+00 -0.74505805969E-08  0.93827000000E+00  0.93827000000E+00 0. -1.
     999902    2    1    2    0    0  0.10458078629E-01 -0.21202650320E-01 -0.11322842686E-01  0.10177168248E+01  0.10173791844E+01 0.  0.
     999903    2    3    3    0    0  0.88490823294E-01  0.25403930608E-01 -0.88981973880E-01  0.12963336963E+00  0.20273957423E-01 0.  0.
         14    1    1    2    0    0 -0.10458078629E-01  0.21202650320E-01  0.11322842686E-01  0.26213175231E-01  0.00000000000E+00 0. -1.
     999901    1    3    3    0    0 -0.78032744665E-01 -0.46606580928E-01  0.77659131194E-01  0.88808345513E+00  0.88000000000E+00 0.  1.
        -11    1    4    4    0    0  0.33282651965E-01  0.61378214248E-02 -0.20455697776E-01  0.39548760614E-01  0.51100000000E-03 0. -1.
         11    1    4    4    0    0  0.55208171330E-01  0.19266109184E-01 -0.68526276104E-01  0.90084609020E-01  0.51100000000E-03 0.  1.
</event>
<event>
 8    1  0.1123470E+005  0.1043930E+01  0.7957747E-01            NaN
         13   -1    0    0    0    0  0.00000000000E+00  0.00000000000E+00  0.74505805969E-08  0.10566000000E+00  0.10566000000E+00 0.  1.
     999900   -1    0    0    0    0 -0.00000000000E+00 -0.00000000000E+00 -0.74505805969E-08  0.93827000000E+00  0.93827000000E+00 0. -1.
     999902    2    1    2    0    0  0.10720036046E-01 -0.17190064057E-01  0.10890861223E-01  0.10209293841E+01  0.10206702596E+01 0.  0.
     999903    2    3    3    0    0 -0.11708417961E+00  0.41711349760E-01 -0.27566015241E-01  0.12891916807E+00  0.20291005086E-01 0.  0.
         14    1    1    2    0    0 -0.10720036046E-01  0.17190064057E-01 -0.10890861223E-01  0.23000615933E-01  0.00000000000E+00 0. -1.
     999901    1    3    3    0    0  0.12780421565E+00 -0.58901413816E-01  0.38456876464E-01  0.89201021599E+00  0.88000000000E+00 0. -1.
        -11    1    4    4    0    0 -0.91225314138E-01  0.38662969735E-01 -0.15767445314E-01  0.10032824438E+00  0.51100000000E-03 0. -1.
         11    1    4    4    0    0 -0.25858865471E-01  0.30483800242E-02 -0.11798569927E-01  0.28590923692E-01  0.51100000000E-03 0.  1.
</event>
<event>
 8    1  0.1123470E+005  0.1043930E+01  0.7957747E-01            NaN
         13   -1    0    0    0    0  0.00000000000E+00  0.00000000000E+00  0.74505805969E-08  0.10566000000E+00  0.10566000000E+00 0. -1.
     999900   -1    0    0    0    0 -0.00000000000E+00 -0.00000000000E+00 -0.74505805969E-08  0.93827000000E+00  0.93827000000E+00 0.  1.
     999902    2    1    2    0    0 -0.21887616696E-01  0.58565328111E-02  0.54943038863E-02  0.10206157529E+01  0.10203494308E+01 0.  0.
     999903    2    3    3    0    0  0.40992327428E-01 -0.33111771039E-01  0.11760270130E+00  0.13042436404E+00  0.20083801762E-01 0.  0.
         14    1    1    2    0    0  0.21887616696E-01 -0.58565328111E-02 -0.54943038863E-02  0.23314247069E-01  0.00000000000E+00 0. -1.
     999901    1    3    3    0    0 -0.62879944125E-01  0.38968303850E-01 -0.11210839742E+00  0.89019138889E+00  0.88000000000E+00 0.  1.
        -11    1    4    4    0    0  0.14331702766E-01 -0.19879647300E-01  0.71129312895E-01  0.75234555590E-01  0.51100000000E-03 0. -1.
         11    1    4    4    0    0  0.26660624663E-01 -0.13232123739E-01  0.46473388407E-01  0.55189808453E-01  0.51100000000E-03 0.  1.
</event>
<event>
 8    1  0.1123470E+005  0.1043930E+01  0.7957747E-01            NaN
         13   -1    0    0    0    0  0.00000000000E+00  0.00000000000E+00  0.74505805969E-08  0.10566000000E+00  0.10566000000E+00 0. -1.
     999900   -1    0    0    0    0 -0.00000000000E+00 -0.00000000000E+00 -0.74505805969E-08  0.93827000000E+00  0.93827000000E+00 0.  1.
     999902    2    1    2    0    0 -0.79613232900E-03  0.58007090562E-03  0.24872887685E-01  0.10190376146E+01  0.10187335418E+01 0.  0.
     999903    2    3    3    0    0 -0.10486043841E+00  0.71386427517E-01 -0.13975075029E-01  0.12923309442E+00  0.20350832758E-01 0.  0.
         14    1    1    2    0    0  0.79613232900E-03 -0.58007090562E-03 -0.24872887685E-01  0.24892385397E-01  0.00000000000E+00 0.  1.
     999901    1    3    3    0    0  0.10406430608E+00 -0.70806356611E-01  0.38847962714E-01  0.88980452019E+00  0.88000000000E+00 0. -1.
        -11    1    4    4    0    0 -0.36089897916E-01  0.34387570474E-01  0.26032887598E-03  0.49852929972E-01  0.51100000000E-03 0. -1.
         11    1    4    4    0    0 -0.68770540492E-01  0.36998857043E-01 -0.14235403905E-01  0.79380164445E-01  0.51100000000E-03 0.  1.
</event>
<event>
 8    1  0.1123470E+005  0.1043930E+01  0.7957747E-01            NaN
         13   -1    0    0    0    0  0.00000000000E+00  0.00000000000E+00  0.74505805969E-08  0.10566000000E+00  0.10566000000E+00 0. -1.
     999900   -1    0    0    0    0 -0.00000000000E+00 -0.00000000000E+00 -0.74505805969E-08  0.93827000000E+00  0.93827000000E+00 0. -1.
     999902    2    1    2    0    0 -0.15940807990E-01  0.94715336265E-02  0.20916702822E-01  0.10159777592E+01  0.10155931663E+01 0.  0.
     999903    2    3    3    0    0 -0.12301995700E+00 -0.30601301835E-01  0.94452432172E-02  0.12850755087E+00  0.18831582985E-01 0.  0.
         14    1    1    2    0    0  0.15940807990E-01 -0.94715336265E-02 -0.20916702822E-01  0.27952240797E-01  0.00000000000E+00 0. -1.
     999901    1    3    3    0    0  0.10707914901E+00  0.40072835461E-01  0.11471459605E-01  0.88747020833E+00  0.88000000000E+00 0. -1.
        -11    1    4    4    0    0 -0.82606112877E-01 -0.16199200508E-01 -0.16224849549E-02  0.84196660030E-01  0.51100000000E-03 0. -1.
         11    1    4    4    0    0 -0.40413844120E-01 -0.14402101327E-01  0.11067728172E-01  0.44310890840E-01  0.51100000000E-03 0.  1.
</event>
<event>
 8    1  0.1123470E+005  0.1043930E+01  0.7957747E-01            NaN
         13   -1    0    0    0    0  0.00000000000E+00  0.00000000000E+00  0.74505805969E-08  0.10566000000E+00  0.10566000000E+00 0.  1.
     999900   -1    0    0    0    0 -0.00000000000E+00 -0.00000000000E+00 -0.74505805969E-08  0.93827000000E+00  0.93827000000E+00 0. -1.
     999902    2    1    2    0    0 -0.58770742922E-03 -0.67720717550E-02  0.22662506080E-01  0.10202700013E+01  0.10199956275E+01 0.  0.
     999903    2    3    3    0    0 -0.11937805124E+00  0.47601879152E-01 -0.58164529325E-02  0.13016960056E+00  0.19830173220E-01 0.  0.
         14    1    1    2    0    0  0.58770742922E-03  0.67720717550E-02 -0.22662506080E-01  0.23659998683E-01  0.00000000000E+00 0. -1.
     999901    1    3    3    0    0  0.11879034381E+00 -0.54373950907E-01  0.28478959012E-01  0.89010040076E+00  0.88000000000E+00 0.  1.
        -11    1    4    4    0    0 -0.98825427323E-01  0.46569485632E-01 -0.75619348914E-02  0.10951084904E+00  0.51100000000E-03 0.  1.
         11    1    4    4    0    0 -0.20552623912E-01  0.10323935206E-02  0.17454819589E-02  0.20658751519E-01  0.51100000000E-03 0. -1.
</event>
<event>
 8    1  0.1123470E+005  0.1043930E+01  0.7957747E-01            NaN
         13   -1    0    0    0    0  0.00000000000E+00  0.00000000000E+00  0.74505805969E-08  0.10566000000E+00  0.10566000000E+00 0.  1.
     999900   -1    0    0    0    0 -0.00000000000E+00 -0.00000000000E+00 -0.74505805969E-08  0.93827000000E+00  0.93827000000E+00 0. -1.
     999902    2    1    2    0    0  0.77896187168E-02  0.21498741415E-01 -0.64006315342E-02  0.10201846399E+01  0.10199082593E+01 0.  0.
     999903    2    3    3    0    0  0.91386555880E-01 -0.43245501674E-01  0.78716295531E-01  0.12977734198E+00  0.20596778850E-01 0.  0.
         14    1    1    2    0    0 -0.77896187168E-02 -0.21498741415E-01  0.64006315342E-02  0.23745360099E-01  0.00000000000E+00 0.  1.
     999901    1    3    3    0    0 -0.83596937163E-01  0.64744243089E-01 -0.85116927065E-01  0.89040729792E+00  0.88000000000E+00 0. -1.
        -11    1    4    4    0    0  0.76789195973E-01 -0.43866568992E-01  0.65275145783E-01  0.10991797975E+00  0.51100000000E-03 0. -1.
         11    1    4    4    0    0  0.14597359907E-01  0.62106731850E-03  0.13441149748E-01  0.19859362236E-01  0.51100000000E-03 0.  1.
</event>
<event>
 8    1  0.1123470E+005  0.1043930E+01  0.7957747E-01            NaN
         13   -1    0    0    0    0  0.00000000000E+00  0.00000000000E+00  0.74505805969E-08  0.10566000000E+00  0.10566000000E+00 0.  1.
     999900   -1    0    0    0    0 -0.00000000000E+00 -0.00000000000E+00 -0.74505805969E-08  0.93827000000E+00  0.93827000000E+00 0. -1.
     999902    2    1    2    0    0 -0.43595607424E-02 -0.22205101647E-01 -0.60335311810E-02  0.10205104396E+01  0.10202416780E+01 0.  0.
     999903    2    3    3    0    0  0.19157206843E-01 -0.98598055188E-01  0.85453854917E-01  0.13216430016E+00  0.87444757536E-02 0.  0.
         14    1    1    2    0    0  0.43595607424E-02  0.22205101647E-01  0.60335311810E-02  0.23419560361E-01  0.00000000000E+00 0. -1.
     999901    1    3    3    0    0 -0.23516767586E-01  0.76392953541E-01 -0.91487386098E-01  0.88834613948E+00  0.88000000000E+00 0. -1.
        -11    1    4    4    0    0  0.90922231832E-02 -0.67728763728E-01  0.58830964952E-01  0.90173152971E-01  0.51100000000E-03 0.  1.
         11    1    4    4    0    0  0.10064983660E-01 -0.30869291459E-01  0.26622889965E-01  0.41991147191E-01  0.51100000000E-03 0. -1.
</event>
<event>
 8    1  0.1123470E+005  0.1043930E+01  0.7957747E-01            NaN
         13   -1    0    0    0    0  0.00000000000E+00  0.00000000000E+00  0.74505805969E-08  0.10566000000E+00  0.10566000000E+00 0.  1.
     999900   -1    0    0    0    0 -0.00000000000E+00 -0.00000000000E+00 -0.74505805969E-08  0.93827000000E+00  0.93827000000E+00 0.  1.
     999902    2    1    2    0    0 -0.15830057377E-01 -0.41882977790E-04 -0.14929426823E-01  0.10221703985E+01  0.10219387669E+01 0.  0.
     999903    2    3    3    0    0 -0.96243405844E-01  0.66273495946E-01 -0.64042937268E-01  0.13465917438E+00  0.19406854372E-01 0.  0.
         14    1    1    2    0    0  0.15830057377E-01  0.41882977790E-04  0.14929426823E-01  0.21759601467E-01  0.00000000000E+00 0.  1.
     999901    1    3    3    0    0  0.80413348467E-01 -0.66315378924E-01  0.49113510445E-01  0.88751122416E+00  0.88000000000E+00 0. -1.
        -11    1    4    4    0    0 -0.37353088114E-01  0.29598113517E-01 -0.36421882025E-01  0.59984299001E-01  0.51100000000E-03 0. -1.
         11    1    4    4    0    0 -0.58890317730E-01  0.36675382430E-01 -0.27621055243E-01  0.74674875376E-01  0.51100000000E-03 0.  1.
</event>
<event>
 8    1  0.1123470E+005  0.1043930E+01  0.7957747E-01            NaN
         13   -1    0    0    0    0  0.00000000000E+00  0.00000000000E+00  0.74505805969E-08  0.10566000000E+00  0.10566000000E+00 0. -1.
     999900   -1    0    0    0    0 -0.00000000000E+00 -0.00000000000E+00 -0.74505805969E-08  0.93827000000E+00  0.93827000000E+00 0. -1.
     999902    2    1    2    0    0  0.92485809333E-02 -0.15246849731E-01  0.14200925236E-01  0.10211337513E+01  0.10208792628E+01 0.  0.
     999903    2    3    3    0    0 -0.47518831574E-01  0.88820724514E-01  0.80777700228E-01  0.13069281219E+00  0.20209251480E-01 0.  0.
         14    1    1    2    0    0 -0.92485809333E-02  0.15246849731E-01 -0.14200925236E-01  0.22796248673E-01  0.00000000000E+00 0.  1.
     999901    1    3    3    0    0  0.56767412507E-01 -0.10406757424E+00 -0.66576774991E-01  0.89044093914E+00  0.88000000000E+00 0.  1.
        -11    1    4    4    0    0 -0.25690035380E-01  0.56400068162E-01  0.37784043386E-01  0.72586780216E-01  0.51100000000E-03 0.  1.
         11    1    4    4    0    0 -0.21828796194E-01  0.32420656352E-01  0.42993656842E-01  0.58106031969E-01  0.51100000000E-03 0. -1.
</event>
<event>
 8    1  0.1123470E+005  0.1043930E+01  0.7957747E-01            NaN
         13   -1    0    0    0    0  0.00000000000E+00  0.00000000000E+00  0.74505805969E-08  0.10566000000E+00  0.10566000000E+00 0.  1.
     999900   -1    0    0    0    0 -0.00000000000E+00 -0.00000000000E+00 -0.74505805969E-08  0.93827000000E+00  0.93827000000E+00 0.  1.
     999902    2    1    2    0    0  0.21217959924E-01  0.77122661750E-02  0.26524325476E-01  0.10090986820E+01  0.10084973621E+01 0.  0.
     999903    2    3    3    0    0 -0.89958282276E-02  0.11391999295E+00  0.38186598541E-01  0.12212125113E+00  0.19917177277E-01 0.  0.
         14    1    1    2    0    0 -0.21217959924E-01 -0.77122661750E-02 -0.26524325476E-01  0.34831318017E-01  0.00000000000E+00 0. -1.
     999901    1    3    3    0    0  0.30213788151E-01 -0.10620772678E+00 -0.11662273066E-01  0.88697743085E+00  0.88000000000E+00 0.  1.
        -11    1    4    4    0    0  0.40153905736E-03  0.82097950697E-01  0.33221660827E-01  0.88567345062E-01  0.51100000000E-03 0.  1.
         11    1    4    4    0    0 -0.93973672849E-02  0.31822042256E-01  0.49649377147E-02  0.33553906072E-01  0.51100000000E-03 0. -1.
</event>
<event>
 8    1  0.1123470E+005  0.1043930E+01  0.7957747E-01            NaN
         13   -1    0    0    0    0  0.00000000000E+00  0.00000000000E+00  0.74505805969E-08  0.10566000000E+00  0.10566000000E+00 0.  1.
     999900   -1    0    0    0    0 -0.00000000000E+00 -0.00000000000E+00 -0.74505805969E-08  0.93827000000E+00  0.93827000000E+00 0.  1.
     999902    2    1    2    0    0  0.56367081151E-02 -0.64546138458E-02 -0.22576515834E-01  0.10197818410E+01  0.10194958899E+01 0.  0.
     999903    2    3    3    0    0 -0.63096264509E-02  0.11013627740E+00 -0.68961014359E-01  0.13080058550E+00  0.13541073844E-01 0.  0.
         14    1    1    2    0    0 -0.56367081151E-02  0.64546138458E-02  0.22576515834E-01  0.24148159050E-01  0.00000000000E+00 0.  1.
     999901    1    3    3    0    0  0.11946334566E-01 -0.11659089125E+00  0.46384498525E-01  0.88898125545E+00  0.88000000000E+00 0. -1.
        -11    1    4    4    0    0  0.16398780116E-02  0.26104737474E-01 -0.10843768226E-01  0.28319515335E-01  0.51100000000E-03 0. -1.
         11    1    4    4    0    0 -0.79495044626E-02  0.84031539928E-01 -0.58117246133E-01  0.10248107017E+00  0.51100000000E-03 0.  1.
</event>
<event>
 8    1  0.1123470E+005  0.1043930E+01  0.7957747E-01            NaN
         13   -1    0    0    0    0  0.00000000000E+00  0.00000000000E+00  0.74505805969E-08  0.10566000000E+00  0.10566000000E+00 0.  1.
     999900   -1    0    0    0    0 -0.00000000000E+00 -0.00000000000E+00 -0.74505805969E-08  0.93827000000E+00  0.93827000000E+00 0.  1.
     999902    2    1    2    0    0 -0.15365833533E-01 -0.12011581714E-01  0.13622977179E-01  0.10201398247E+01  0.10198623875E+01 0.  0.
     999903    2    3    3    0    0  0.94312322989E-01 -0.78793100837E-01 -0.34999164111E-01  0.12949220526E+00  0.20979102183E-01 0.  0.
         14    1    1    2    0    0  0.15365833533E-01  0.12011581714E-01 -0.13622977179E-01  0.23790175339E-01  0.00000000000E+00 0. -1.
     999901    1    3    3    0    0 -0.10967815652E+00  0.66781519123E-01  0.48622141290E-01  0.89064761940E+00  0.88000000000E+00 0. -1.
        -11    1    4    4    0    0  0.62358813067E-01 -0.43841128080E-01 -0.29803502989E-01  0.81848494121E-01  0.51100000000E-03 0. -1.
         11    1    4    4    0    0  0.31953509922E-01 -0.34951972757E-01 -0.51956611223E-02  0.47643711142E-01  0.51100000000E-03 0.  1.
</event>
<event>
 8    1  0.1123470E+005  0.1043930E+01  0.7957747E-01            NaN
         13   -1    0    0    0    0  0.00000000000E+00  0.00000000000E+00  0.74505805969E-08  0.10566000000E+00  0.10566000000E+00 0.  1.
     999900   -1    0    0    0    0 -0.00000000000E+00 -0.00000000000E+00 -0.74505805969E-08  0.93827000000E+00  0.93827000000E+00 0.  1.
     999902    2    1    2    0    0 -0.73726706624E-02 -0.19473927279E-01 -0.11832077362E-01  0.10199802991E+01  0.10196990843E+01 0.  0.
     999903    2    3    3    0    0 -0.17881109160E-01 -0.11519217682E+00  0.58459651942E-01  0.13194125846E+00  0.20049765918E-01 0.  0.
         14    1    1    2    0    0  0.73726706624E-02  0.19473927279E-01  0.11832077362E-01  0.23949700855E-01  0.00000000000E+00 0. -1.
     999901    1    3    3    0    0  0.10508438498E-01  0.95718249540E-01 -0.70291729305E-01  0.88803904069E+00  0.88000000000E+00 0.  1.
        -11    1    4    4    0    0 -0.67656335305E-02 -0.57359113707E-01  0.18037418572E-01  0.60509927384E-01  0.51100000000E-03 0. -1.
         11    1    4    4    0    0 -0.11115475630E-01 -0.57833063111E-01  0.40422233371E-01  0.71431331074E-01  0.51100000000E-03 0.  1.
</event>
<event>
 8    1  0.1123470E+005  0.1043930E+01  0.7957747E-01            NaN
         13   -1    0    0    0    0  0.00000000000E+00  0.00000000000E+00  0.74505805969E-08  0.10566000000E+00  0.10566000000E+00 0. -1.
     999900   -1    0    0    0    0 -0.00000000000E+00 -0.00000000000E+00 -0.74505805969E-08  0.93827000000E+00  0.93827000000E+00 0.  1.
     999902    2    1    2    0    0  0.15490899414E-01 -0.12811946647E-01 -0.12688024193E-01  0.10201581700E+01  0.10198811656E+01 0.  0.
     999903    2    3    3    0    0 -0.95408503605E-01 -0.62756087661E-01 -0.59669749567E-01  0.13055130332E+00  0.21025096557E-01 0.  0.
         14    1    1    2    0    0 -0.15490899414E-01  0.12811946647E-01  0.12688024193E-01  0.23771829956E-01  0.00000000000E+00 0. -1.
     999901    1    3    3    0    0  0.11089940302E+00  0.49944141014E-01  0.46981725373E-01  0.88960686673E+00  0.88000000000E+00 0.  1.
        -11    1    4    4    0    0 -0.82605199125E-01 -0.47987779685E-01 -0.42620878683E-01  0.10460997248E+00  0.51100000000E-03 0. -1.
         11    1    4    4    0    0 -0.12803304480E-01 -0.14768307976E-01 -0.17048870883E-01  0.25941330835E-01  0.51100000000E-03 0.  1.
</event>
<event>
 8    1  0.1123470E+005  0.1043930E+01  0.7957747E-01            NaN
         13   -1    0    0    0    0  0.00000000000E+00  0.00000000000E+00  0.74505805969E-08  0.10566000000E+00  0.10566000000E+00 0. -1.
     999900   -1    0    0    0    0 -0.00000000000E+00 -0.00000000000E+00 -0.74505805969E-08  0.93827000000E+00  0.93827000000E+00 0. -1.
     999902    2    1    2    0    0 -0.23903003216E-01  0.72294652459E-02 -0.27758732560E-02  0.10188038343E+01  0.10184939512E+01 0.  0.
     999903    2    3    3    0    0  0.22834619885E-02 -0.10640808637E+00  0.68588819026E-01  0.12824662479E+00  0.20368496066E-01 0.  0.
         14    1    1    2    0    0  0.23903003216E-01 -0.72294652459E-02  0.27758732560E-02  0.25126165701E-01  0.00000000000E+00 0. -1.
     999901    1    3    3    0    0 -0.26186465204E-01  0.11363755162E+00 -0.71364692282E-01  0.89055720951E+00  0.88000000000E+00 0. -1.
        -11    1    4    4    0    0  0.11043402439E-01 -0.72037869471E-01  0.45307027401E-01  0.85816077912E-01  0.51100000000E-03 0.  1.
         11    1    4    4    0    0 -0.87599404501E-02 -0.34370216900E-01  0.23281791625E-01  0.42430546882E-01  0.51100000000E-03 0. -1.
</event>
<event>
 8    1  0.1123470E+005  0.1043930E+01  0.7957747E-01            NaN
         13   -1    0    0    0    0  0.00000000000E+00  0.00000000000E+00  0.74505805969E-08  0.10566000000E+00  0.10566000000E+00 0.  1.
     999900   -1    0    0    0    0 -0.00000000000E+00 -0.00000000000E+00 -0.74505805969E-08  0.93827000000E+00  0.93827000000E+00 0. -1.
     999902    2    1    2    0    0 -0.10482765393E-01 -0.19898632901E-01  0.65894175674E-02  0.10204936098E+01  0.10202244573E+01 0.  0.
     999903    2    3    3    0    0 -0.96227014571E-02  0.74680284005E-01  0.10439847990E+00  0.13003725270E+00  0.18463566359E-01 0.  0.
         14    1    1    2    0    0  0.10482765393E-01  0.19898632901E-01 -0.65894175674E-02  0.23436390197E-01  0.00000000000E+00 0. -1.
     999901    1    3    3    0    0 -0.86006393561E-03 -0.94578916906E-01 -0.97809062328E-01  0.89045635710E+00  0.88000000000E+00 0. -1.
        -11    1    4    4    0    0 -0.11868911389E-01  0.27604738714E-01  0.46718304655E-01  0.55549561365E-01  0.51100000000E-03 0. -1.
         11    1    4    4    0    0  0.22462099318E-02  0.47075545291E-01  0.57680175240E-01  0.74487691334E-01  0.51100000000E-03 0.  1.
</event>
<event>
 8    1  0.1123470E+005  0.1043930E+01  0.7957747E-01            NaN
         13   -1    0    0    0    0  0.00000000000E+00  0.00000000000E+00  0.74505805969E-08  0.10566000000E+00  0.10566000000E+00 0. -1.
     999900   -1    0    0    0    0 -0.00000000000E+00 -0.00000000000E+00 -0.74505805969E-08  0.93827000000E+00  0.93827000000E+00 0.  1.
     999902    2    1    2    0    0  0.19018490611E-01  0.15729263885E-01  0.54596526880E-02  0.10186531225E+01  0.10183394638E+01 0.  0.
     999903    2    3    3    0    0 -0.11913543869E+00 -0.22090562411E-01 -0.29924209137E-01  0.12637017126E+00  0.19817068216E-01 0.  0.
         14    1    1    2    0    0 -0.19018490611E-01 -0.15729263885E-01 -0.54596526880E-02  0.25276877476E-01  0.00000000000E+00 0. -1.
     999901    1    3    3    0    0  0.13815392930E+00  0.37819826296E-01  0.35383861825E-01  0.89228295127E+00  0.88000000000E+00 0. -1.
        -11    1    4    4    0    0 -0.53371370893E-01 -0.19922855917E-01 -0.14354027091E-01  0.58751362824E-01  0.51100000000E-03 0. -1.
         11    1    4    4    0    0 -0.65764067793E-01 -0.21677064946E-02 -0.15570182046E-01  0.67618808434E-01  0.51100000000E-03 0.  1.
</event>
<event>
 8    1  0.1123470E+005  0.1043930E+01  0.7957747E-01            NaN
         13   -1    0    0    0    0  0.00000000000E+00  0.00000000000E+00  0.74505805969E-08  0.10566000000E+00  0.10566000000E+00 0. -1.
     999900   -1    0    0    0    0 -0.00000000000E+00 -0.00000000000E+00 -0.74505805969E-08  0.93827000000E+00  0.93827000000E+00 0.  1.
     999902    2    1    2    0    0  0.12099958102E-01  0.10031148375E-01 -0.22952156008E-01  0.10161121211E+01  0.10157312677E+01 0.  0.
     999903    2    3    3    0    0  0.49574969669E-01  0.84629524331E-01  0.77304691457E-01  0.12649381546E+00  0.20120537293E-01 0.  0.
         14    1    1    2    0    0 -0.12099958102E-01 -0.10031148375E-01  0.22952156008E-01  0.27817878949E-01  0.00000000000E+00 0. -1.
     999901    1    3    3    0    0 -0.37475011567E-01 -0.74598375956E-01 -0.10025684747E+00  0.88961830560E+00  0.88000000000E+00 0.  1.
        -11    1    4    4    0    0  0.23096916541E-01  0.58579802651E-01  0.49230114164E-01  0.79930758122E-01  0.51100000000E-03 0.  1.
         11    1    4    4    0    0  0.26478053127E-01  0.26049721680E-01  0.28074577293E-01  0.46563057333E-01  0.51100000000E-03 0. -1.
</event>
<event>
 8    1  0.1123470E+005  0.1043930E+01  0.7957747E-01            NaN
         13   -1    0    0    0    0  0.00000000000E+00  0.00000000000E+00  0.74505805969E-08  0.10566000000E+00  0.10566000000E+00 0. -1.
     999900   -1    0    0    0    0 -0.00000000000E+00 -0.00000000000E+00 -0.74505805969E-08  0.93827000000E+00  0.93827000000E+00 0.  1.
     999902    2    1    2    0    0  0.10178639983E-01 -0.16372542475E-01  0.18603588728E-01  0.10171389871E+01  0.10167860939E+01 0.  0.
     999903    2    3    3    0    0 -0.72123020765E-02 -0.75316111265E-01  0.10496370317E+00  0.13077853077E+00  0.19002926375E-01 0.  0.
         14    1    1    2    0    0 -0.10178639983E-01  0.16372542475E-01 -0.18603588728E-01  0.26791012907E-01  0.00000000000E+00 0.  1.
     999901    1    3    3    0    0  0.17390942060E-01  0.58943568790E-01 -0.86360114437E-01  0.88636045632E+00  0.88000000000E+00 0.  1.
        -11    1    4    4    0    0  0.43933104924E-02 -0.49120542859E-01  0.68276340308E-01  0.84226175710E-01  0.51100000000E-03 0.  1.
         11    1    4    4    0    0 -0.11605612569E-01 -0.26195568407E-01  0.36687362858E-01  0.46552355061E-01  0.51100000000E-03 0. -1.
</event>
<event>
 8    1  0.1123470E+005  0.1043930E+01  0.7957747E-01            NaN
         13   -1    0    0    0    0  0.00000000000E+00  0.00000000000E+00  0.74505805969E-08  0.10566000000E+00  0.10566000000E+00 0. -1.
     999900   -1    0    0    0    0 -0.00000000000E+00 -0.00000000000E+00 -0.74505805969E-08  0.93827000000E+00  0.93827000000E+00 0. -1.
     999902    2    1    2    0    0 -0.55873458504E-02 -0.21353728485E-01 -0.19039579488E-02  0.10217754246E+01  0.10215352139E+01 0.  0.
     999903    2    3    3    0    0  0.97885139973E-01 -0.18532510491E-01 -0.84235584551E-01  0.13189171800E+00  0.19360707610E-01 0.  0.
         14    1    1    2    0    0  0.55873458504E-02  0.21353728485E-01  0.19039579488E-02  0.22154575368E-01  0.00000000000E+00 0. -1.
     999901    1    3    3    0    0 -0.10347248582E+00 -0.28212179942E-02  0.82331626602E-01  0.88988370663E+00  0.88000000000E+00 0.  1.
        -11    1    4    4    0    0  0.78841528524E-01 -0.70453097369E-02 -0.63485697632E-01  0.10147077379E+00  0.51100000000E-03 0.  1.
         11    1    4    4    0    0  0.19043611450E-01 -0.11487200754E-01 -0.20749886919E-01  0.30420944205E-01  0.51100000000E-03 0. -1.
</event>
<event>
 8    1  0.1123470E+005  0.1043930E+01  0.7957747E-01            NaN
         13   -1    0    0    0    0  0.00000000000E+00  0.00000000000E+00  0.74505805969E-08  0.10566000000E+00  0.10566000000E+00 0.  1.
     999900   -1    0    0    0    0 -0.00000000000E+00 -0.00000000000E+00 -0.74505805969E-08  0.93827000000E+00  0.93827000000E+00 0. -1.
     999902    2    1    2    0    0  0.56204733879E-02 -0.23611282638E-01  0.37174644616E-02  0.10193759386E+01  0.10190801746E+01 0.  0.
     999903    2    3    3    0    0 -0.12308074969E+00 -0.15270799615E-01 -0.30730500996E-01  0.12930839577E+00  0.19855207425E-01 0.  0.
         14    1    1    2    0    0 -0.56204733879E-02  0.23611282638E-01 -0.37174644616E-02  0.24554061394E-01  0.00000000000E+00 0. -1.
     999901    1    3    3    0    0  0.12870122308E+00 -0.83404830229E-02  0.34447965457E-01  0.89006754283E+00  0.88000000000E+00 0.  1.
        -11    1    4    4    0    0 -0.37052700296E-01 -0.13681761959E-01 -0.78468182791E-02  0.40273153435E-01  0.51100000000E-03 0. -1.
         11    1    4    4    0    0 -0.86028049391E-01 -0.15890376564E-02 -0.22883682716E-01  0.89035242339E-01  0.51100000000E-03 0.  1.
</event>
<event>
 8    1  0.1123470E+005  0.1043930E+01  0.7957747E-01            NaN
         13   -1    0    0    0    0  0.00000000000E+00  0.00000000000E+00  0.74505805969E-08  0.10566000000E+00  0.10566000000E+00 0. -1.
     999900   -1    0    0    0    0 -0.00000000000E+00 -0.00000000000E+00 -0.74505805969E-08  0.93827000000E+00  0.93827000000E+00 0.  1.
     999902    2    1    2    0    0 -0.12037156689E-01 -0.20730046633E-01  0.25050457454E-02  0.10198280659E+01  0.10195432216E+01 0.  0.
     999903    2    3    3    0    0 -0.84207286257E-01 -0.39643834626E-01  0.91349639980E-01  0.13221349811E+00  0.21752049911E-01 0.  0.
         14    1    1    2    0    0  0.12037156689E-01  0.20730046633E-01 -0.25050457454E-02  0.24101934129E-01  0.00000000000E+00 0.  1.
     999901    1    3    3    0    0  0.72170129568E-01  0.18913787992E-01 -0.88844594234E-01  0.88761456776E+00  0.88000000000E+00 0.  1.
        -11    1    4    4    0    0 -0.56874521673E-01 -0.25514043146E-01  0.46274522449E-01  0.77635495504E-01  0.51100000000E-03 0. -1.
         11    1    4    4    0    0 -0.27332764584E-01 -0.14129791480E-01  0.45075117530E-01  0.54578002606E-01  0.51100000000E-03 0.  1.
</event>
<event>
 8    1  0.1123470E+005  0.1043930E+01  0.7957747E-01            NaN
         13   -1    0    0    0    0  0.00000000000E+00  0.00000000000E+00  0.74505805969E-08  0.10566000000E+00  0.10566000000E+00 0. -1.
     999900   -1    0    0    0    0 -0.00000000000E+00 -0.00000000000E+00 -0.74505805969E-08  0.93827000000E+00  0.93827000000E+00 0. -1.
     999902    2    1    2    0    0 -0.10186154971E-01  0.10152383633E-01 -0.18264740087E-01  0.10206828630E+01  0.10204180896E+01 0.  0.
     999903    2    3    3    0    0  0.72021585525E-01 -0.33138652983E-01  0.98717965491E-01  0.12809271081E+00  0.19422326041E-01 0.  0.
         14    1    1    2    0    0  0.10186154971E-01 -0.10152383633E-01  0.18264740087E-01  0.23247136963E-01  0.00000000000E+00 0. -1.
     999901    1    3    3    0    0 -0.82207740496E-01  0.43291036616E-01 -0.11698270558E+00  0.89259015223E+00  0.88000000000E+00 0. -1.
        -11    1    4    4    0    0  0.46007636924E-01 -0.29203157528E-01  0.57765295149E-01  0.79414214783E-01  0.51100000000E-03 0.  1.
         11    1    4    4    0    0  0.26013948601E-01 -0.39354954547E-02  0.40952670342E-01  0.48678496027E-01  0.51100000000E-03 0. -1.
</event>
<event>
 8    1  0.1123470E+005  0.1043930E+01  0.7957747E-01            NaN
         13   -1    0    0    0    0  0.00000000000E+00  0.00000000000E+00  0.74505805969E-08  0.10566000000E+00  0.10566000000E+00 0.  1.
     999900   -1    0    0    0    0 -0.00000000000E+00 -0.00000000000E+00 -0.74505805969E-08  0.93827000000E+00  0.93827000000E+00 0.  1.
     999902    2    1    2    0    0 -0.20908494637E-01 -0.62483229877E-02 -0.78263257724E-02  0.10207468582E+01  0.10204835572E+01 0.  0.
     999903    2    3    3    0    0 -0.56266312425E-01  0.11647111082E+00  0.10303796555E-01  0.13134316132E+00  0.20333229767E-01 0.  0.
         14    1    1    2    0    0  0.20908494637E-01  0.62483229877E-02  0.78263257724E-02  0.23183141789E-01  0.00000000000E+00 0. -1.
     999901    1    3    3    0    0  0.35357817788E-01 -0.12271943380E+00 -0.18130122328E-01  0.88940369689E+00  0.88000000000E+00 0. -1.
        -11    1    4    4    0    0 -0.28049340371E-01  0.36528695606E-01  0.11493391741E-02  0.46072694728E-01  0.51100000000E-03 0.  1.
         11    1    4    4    0    0 -0.28216972054E-01  0.79942415209E-01  0.91544573812E-02  0.85270466589E-01  0.51100000000E-03 0. -1.
</event>
<event>
 8    1  0.1123470E+005  0.1043930E+01  0.7957747E-01            NaN
         13   -1    0    0    0    0  0.00000000000E+00  0.00000000000E+00  0.74505805969E-08  0.10566000000E+00  0.10566000000E+00 0. -1.
     999900   -1    0    0    0    0 -0.00000000000E+00 -0.00000000000E+00 -0.74505805969E-08  0.93827000000E+00  0.93827000000E+00 0.  1.
     999902    2    1    2    0    0 -0.11618842275E-01  0.19392345499E-01 -0.10739996830E-01  0.10189018540E+01  0.10185944139E+01 0.  0.
     999903    2    3    3    0    0 -0.38853062900E-01  0.69064279528E-02  0.12083234186E+00  0.12861601159E+00  0.19605212375E-01 0.  0.
         14    1    1    2    0    0  0.11618842275E-01 -0.19392345499E-01  0.10739996830E-01  0.25028145990E-01  0.00000000000E+00 0. -1.
     999901    1    3    3    0    0  0.27234220624E-01  0.12485917546E-01 -0.13157233869E+00  0.89028584242E+00  0.88000000000E+00 0.  1.
        -11    1    4    4    0    0 -0.32373225298E-01  0.74606949150E-02  0.71366090873E-01  0.78721456620E-01  0.51100000000E-03 0. -1.
         11    1    4    4    0    0 -0.64798376014E-02 -0.55426696225E-03  0.49466250992E-01  0.49894554967E-01  0.51100000000E-03 0.  1.
</event>
<event>
 8    1  0.1123470E+005  0.1043930E+01  0.7957747E-01            NaN
         13   -1    0    0    0    0  0.00000000000E+00  0.00000000000E+00  0.74505805969E-08  0.10566000000E+00  0.10566000000E+00 0. -1.
     999900   -1    0    0    0    0 -0.00000000000E+00 -0.00000000000E+00 -0.74505805969E-08  0.93827000000E+00  0.93827000000E+00 0. -1.
     999902    2    1    2    0    0  0.13485747547E-01 -0.13304553372E-01  0.14481022818E-01  0.10200851568E+01  0.10198064280E+01 0.  0.
     999903    2    3    3    0    0 -0.11729845123E+00  0.47124547561E-01  0.96980891416E-02  0.12835702591E+00  0.20045536272E-01 0.  0.
         14    1    1    2    0    0 -0.13485747547E-01  0.13304553372E-01 -0.14481022818E-01  0.23844843241E-01  0.00000000000E+00 0.  1.
     999901    1    3    3    0    0  0.13078419878E+00 -0.60429100933E-01  0.47829336761E-02  0.89172813085E+00  0.88000000000E+00 0. -1.
        -11    1    4    4    0    0 -0.11007219204E+00  0.38693378316E-01  0.10860115196E-01  0.11718049415E+00  0.51100000000E-03 0. -1.
         11    1    4    4    0    0 -0.72262591905E-02  0.84311692447E-02 -0.11620260546E-02  0.11176531764E-01  0.51100000000E-03 0.  1.
</event>
<event>
 8    1  0.1123470E+005  0.1043930E+01  0.7957747E-01            NaN
         13   -1    0    0    0    0  0.00000000000E+00  0.00000000000E+00  0.74505805969E-08  0.10566000000E+00  0.10566000000E+00 0. -1.
     999900   -1    0    0    0    0 -0.00000000000E+00 -0.00000000000E+00 -0.74505805969E-08  0.93827000000E+00  0.93827000000E+00 0.  1.
     999902    2    1    2    0    0  0.82600187676E-02  0.81070894942E-02  0.20164256925E-01  0.10206802674E+01  0.10204154341E+01 0.  0.
     999903    2    3    3    0    0 -0.65686639625E-01 -0.74622635657E-01  0.83651162177E-01  0.13144300834E+00  0.19911683242E-01 0.  0.
         14    1    1    2    0    0 -0.82600187676E-02 -0.81070894942E-02 -0.20164256925E-01  0.23249732632E-01  0.00000000000E+00 0.  1.
     999901    1    3    3    0    0  0.73946658392E-01  0.82729725151E-01 -0.63486905252E-01  0.88923725903E+00  0.88000000000E+00 0.  1.
        -11    1    4    4    0    0 -0.65395758537E-01 -0.67376363061E-01  0.79746587408E-01  0.12319074177E+00  0.51100000000E-03 0. -1.
         11    1    4    4    0    0 -0.29088108759E-03 -0.72462725962E-02  0.39045747693E-02  0.82522665659E-02  0.51100000000E-03 0.  1.
</event>
<event>
 8    1  0.1123470E+005  0.1043930E+01  0.7957747E-01            NaN
         13   -1    0    0    0    0  0.00000000000E+00  0.00000000000E+00  0.74505805969E-08  0.10566000000E+00  0.10566000000E+00 0.  1.
     999900   -1    0    0    0    0 -0.00000000000E+00 -0.00000000000E+00 -0.74505805969E-08  0.93827000000E+00  0.93827000000E+00 0.  1.
     999902    2    1    2    0    0  0.38190276639E-02 -0.20790426159E-01 -0.12224587206E-01  0.10195114144E+01  0.10192189444E+01 0.  0.
     999903    2    3    3    0    0 -0.12722909153E+00 -0.36546353006E-02  0.11685312553E-01  0.12932102564E+00  0.19666800786E-01 0.  0.
         14    1    1    2    0    0 -0.38190276639E-02  0.20790426159E-01  0.12224587206E-01  0.24418585637E-01  0.00000000000E+00 0.  1.
     999901    1    3    3    0    0  0.13104811919E+00 -0.17135790858E-01 -0.23909899760E-01  0.89019038872E+00  0.88000000000E+00 0.  1.
        -11    1    4    4    0    0 -0.83599828570E-01  0.67164823987E-02  0.96914035501E-02  0.84428827403E-01  0.51100000000E-03 0. -1.
         11    1    4    4    0    0 -0.43629262955E-01 -0.10371117699E-01  0.19939090033E-02  0.44892198236E-01  0.51100000000E-03 0.  1.
</event>
<event>
 8    1  0.1123470E+005  0.1043930E+01  0.7957747E-01            NaN
         13   -1    0    0    0    0  0.00000000000E+00  0.00000000000E+00  0.74505805969E-08  0.10566000000E+00  0.10566000000E+00 0.  1.
     999900   -1    0    0    0    0 -0.00000000000E+00 -0.00000000000E+00 -0.74505805969E-08  0.93827000000E+00  0.93827000000E+00 0.  1.
     999902    2    1    2    0    0  0.22036284832E-01  0.29558641080E-02 -0.51030461175E-02  0.10211182473E+01  0.10208634085E+01 0.  0.
     999903    2    3    3    0    0 -0.12102326224E+00 -0.37735470615E-01 -0.88785570335E-02  0.12862955089E+00  0.19903186716E-01 0.  0.
         14    1    1    2    0    0 -0.22036284832E-01 -0.29558641080E-02  0.51030461175E-02  0.22811752705E-01  0.00000000000E+00 0.  1.
     999901    1    3    3    0    0  0.14305954707E+00  0.40691334723E-01  0.37755109160E-02  0.89248869641E+00  0.88000000000E+00 0. -1.
        -11    1    4    4    0    0 -0.76854255303E-01 -0.26914050226E-01 -0.14804179621E-01  0.82766946984E-01  0.51100000000E-03 0. -1.
         11    1    4    4    0    0 -0.44169006935E-01 -0.10821420389E-01  0.59256225875E-02  0.45862603905E-01  0.51100000000E-03 0.  1.
</event>
<event>
 8    1  0.1123470E+005  0.1043930E+01  0.7957747E-01            NaN
         13   -1    0    0    0    0  0.00000000000E+00  0.00000000000E+00  0.74505805969E-08  0.10566000000E+00  0.10566000000E+00 0.  1.
     999900   -1    0    0    0    0 -0.00000000000E+00 -0.00000000000E+00 -0.74505805969E-08  0.93827000000E+00  0.93827000000E+00 0. -1.
     999902    2    1    2    0    0 -0.14828175425E-01 -0.14013194287E-01  0.10814241956E-01  0.10208390444E+01  0.10205778571E+01 0.  0.
     999903    2    3    3    0    0  0.81161463932E-01 -0.11806489519E-01  0.10034505288E+00  0.13110051737E+00  0.19789886206E-01 0.  0.
         14    1    1    2    0    0  0.14828175425E-01  0.14013194287E-01 -0.10814241956E-01  0.23090955581E-01  0.00000000000E+00 0.  1.
     999901    1    3    3    0    0 -0.95989639357E-01 -0.22067047674E-02 -0.89530810920E-01  0.88973852705E+00  0.88000000000E+00 0. -1.
        -11    1    4    4    0    0  0.72969482428E-01 -0.47653757501E-02  0.82591127498E-01  0.11031232766E+00  0.51100000000E-03 0.  1.
         11    1    4    4    0    0  0.81919815042E-02 -0.70411137693E-02  0.17753925377E-01  0.20788189709E-01  0.51100000000E-03 0. -1.
</event>
<event>
 8    1  0.1123470E+005  0.1043930E+01  0.7957747E-01            NaN
         13   -1    0    0    0    0  0.00000000000E+00  0.00000000000E+00  0.74505805969E-08  0.10566000000E+00  0.10566000000E+00 0.  1.
     999900   -1    0    0    0    0 -0.00000000000E+00 -0.00000000000E+00 -0.74505805969E-08  0.93827000000E+00  0.93827000000E+00 0.  1.
     999902    2    1    2    0    0 -0.16840701078E-01  0.11067306875E-01  0.10658990394E-01  0.10211328824E+01  0.10208783742E+01 0.  0.
     999903    2    3    3    0    0 -0.46540806823E-01 -0.11847354693E+00  0.23734320650E-01  0.13105766461E+00  0.20267349432E-01 0.  0.
         14    1    1    2    0    0  0.16840701078E-01 -0.11067306875E-01 -0.10658990394E-01  0.22797117591E-01  0.00000000000E+00 0.  1.
     999901    1    3    3    0    0  0.29700105745E-01  0.12954085381E+00 -0.13075330256E-01  0.89007521780E+00  0.88000000000E+00 0.  1.
        -11    1    4    4    0    0 -0.34272865517E-01 -0.91279093812E-01  0.26645883252E-01  0.10107802181E+00  0.51100000000E-03 0. -1.
         11    1    4    4    0    0 -0.12267941305E-01 -0.27194453119E-01 -0.29115626018E-02  0.29979642795E-01  0.51100000000E-03 0.  1.
</event>
<event>
 8    1  0.1123470E+005  0.1043930E+01  0.7957747E-01            NaN
         13   -1    0    0    0    0  0.00000000000E+00  0.00000000000E+00  0.74505805969E-08  0.10566000000E+00  0.10566000000E+00 0. -1.
     999900   -1    0    0    0    0 -0.00000000000E+00 -0.00000000000E+00 -0.74505805969E-08  0.93827000000E+00  0.93827000000E+00 0. -1.
     999902    2    1    2    0    0  0.94296104876E-02 -0.29475275574E-02  0.21959378461E-01  0.10198505529E+01  0.10195662462E+01 0.  0.
     999903    2    3    3    0    0  0.84879749067E-01 -0.37910451552E-01 -0.87512604504E-01  0.12917707479E+00  0.19659261574E-01 0.  0.
         14    1    1    2    0    0 -0.94296104876E-02  0.29475275574E-02 -0.21959378461E-01  0.24079447150E-01  0.00000000000E+00 0.  1.
     999901    1    3    3    0    0 -0.75450138579E-01  0.34962923995E-01  0.10947198297E+00  0.89067347806E+00  0.88000000000E+00 0.  1.
        -11    1    4    4    0    0  0.49343861314E-01 -0.18605985173E-01 -0.36780729855E-01  0.64296831518E-01  0.51100000000E-03 0. -1.
         11    1    4    4    0    0  0.35535887753E-01 -0.19304466380E-01 -0.50731874649E-01  0.64880243272E-01  0.51100000000E-03 0.  1.
</event>
<event>
 8    1  0.1123470E+005  0.1043930E+01  0.7957747E-01            NaN
         13   -1    0    0    0    0  0.00000000000E+00  0.00000000000E+00  0.74505805969E-08  0.10566000000E+00  0.10566000000E+00 0. -1.
     999900   -1    0    0    0    0 -0.00000000000E+00 -0.00000000000E+00 -0.74505805969E-08  0.93827000000E+00  0.93827000000E+00 0.  1.
     999902    2    1    2    0    0  0.13266738606E-01  0.17581857833E-01 -0.27325246383E-01  0.10088330319E+01  0.10082223411E+01 0.  0.
     999903    2    3    3    0    0 -0.63783023426E-01  0.95199146555E-01 -0.36701087705E-01  0.12201342471E+00  0.20227565083E-01 0.  0.
         14    1    1    2    0    0 -0.13266738606E-01 -0.17581857833E-01  0.27325246383E-01  0.35096968074E-01  0.00000000000E+00 0. -1.
     999901    1    3    3    0    0  0.77049762032E-01 -0.77617288722E-01  0.93758413214E-02  0.88681960721E+00  0.88000000000E+00 0.  1.
        -11    1    4    4    0    0 -0.26868666853E-01  0.43825337398E-01 -0.26817870830E-01  0.57983142148E-01  0.51100000000E-03 0.  1.
         11    1    4    4    0    0 -0.36914356573E-01  0.51373809157E-01 -0.98832168749E-02  0.64030282565E-01  0.51100000000E-03 0. -1.
</event>
<event>
 8    1  0.1123470E+005  0.1043930E+01  0.7957747E-01            NaN
         13   -1    0    0    0    0  0.00000000000E+00  0.00000000000E+00  0.74505805969E-08  0.10566000000E+00  0.10566000000E+00 0.  1.
     999900   -1    0    0    0    0 -0.00000000000E+00 -0.00000000000E+00 -0.74505805969E-08  0.93827000000E+00  0.93827000000E+00 0.  1.
     999902    2    1    2    0    0  0.93435954349E-02  0.11222861003E-01  0.21319581974E-01  0.10180885612E+01  0.10177605506E+01 0.  0.
     999903    2    3    3    0    0 -0.90888436365E-01 -0.78285846907E-01 -0.34729536971E-01  0.12612456374E+00  0.17660213768E-01 0.  0.
         14    1    1    2    0    0 -0.93435954349E-02 -0.11222861003E-01 -0.21319581974E-01  0.25841438820E-01  0.00000000000E+00 0. -1.
     999901    1    3    3    0    0  0.10023203180E+00  0.89508707910E-01  0.56049118945E-01  0.89196399744E+00  0.88000000000E+00 0.  1.
        -11    1    4    4    0    0 -0.60265086615E-01 -0.46448286602E-01 -0.14172121315E-01  0.77397894910E-01  0.51100000000E-03 0. -1.
         11    1    4    4    0    0 -0.30623349750E-01 -0.31837560305E-01 -0.20557415656E-01  0.48726668832E-01  0.51100000000E-03 0.  1.
</event>
<event>
 8    1  0.1123470E+005  0.1043930E+01  0.7957747E-01            NaN
         13   -1    0    0    0    0  0.00000000000E+00  0.00000000000E+00  0.74505805969E-08  0.10566000000E+00  0.10566000000E+00 0.  1.
     999900   -1    0    0    0    0 -0.00000000000E+00 -0.00000000000E+00 -0.74505805969E-08  0.93827000000E+00  0.93827000000E+00 0.  1.
     999902    2    1    2    0    0 -0.19751821764E-01  0.11813732491E-01  0.90705062598E-05  0.10209148133E+01  0.10206553567E+01 0.  0.
     999903    2    3    3    0    0  0.16021360911E-01  0.12918842780E+00 -0.12798009561E-01  0.13230884828E+00  0.19887393054E-01 0.  0.
         14    1    1    2    0    0  0.19751821764E-01 -0.11813732491E-01 -0.90705062598E-05  0.23015186739E-01  0.00000000000E+00 0. -1.
     999901    1    3    3    0    0 -0.35773182676E-01 -0.11737469531E+00  0.12807080067E-01  0.88860596498E+00  0.88000000000E+00 0.  1.
        -11    1    4    4    0    0  0.26177534495E-02  0.84029114996E-01 -0.13758540897E-01  0.85189807892E-01  0.51100000000E-03 0. -1.
         11    1    4    4    0    0  0.13403607462E-01  0.45159312802E-01  0.96053133578E-03  0.47119040389E-01  0.51100000000E-03 0.  1.
</event>
<event>
 8    1  0.1123470E+005  0.1043930E+01  0.7957747E-01            NaN
         13   -1    0    0    0    0  0.00000000000E+00  0.00000000000E+00  0.74505805969E-08  0.10566000000E+00  0.10566000000E+00 0. -1.
     999900   -1    0    0    0    0 -0.00000000000E+00 -0.00000000000E+00 -0.74505805969E-08  0.93827000000E+00  0.93827000000E+00 0. -1.
     999902    2    1    2    0    0 -0.14859762458E-01 -0.13087876521E-01 -0.12318714403E-01  0.10206092844E+01  0.10203428128E+01 0.  0.
     999903    2    3    3    0    0  0.90596010904E-01 -0.84708495366E-01  0.34971270024E-01  0.13016738521E+00  0.18368235276E-01 0.  0.
         14    1    1    2    0    0  0.14859762458E-01  0.13087876521E-01  0.12318714403E-01  0.23320715612E-01  0.00000000000E+00 0. -1.
     999901    1    3    3    0    0 -0.10545577336E+00  0.71620618846E-01 -0.47289984427E-01  0.89044189917E+00  0.88000000000E+00 0. -1.
        -11    1    4    4    0    0  0.59414109159E-01 -0.66765778202E-01  0.26149945224E-01  0.93122426206E-01  0.51100000000E-03 0.  1.
         11    1    4    4    0    0  0.31181901745E-01 -0.17942717164E-01  0.88213248001E-02  0.37044959007E-01  0.51100000000E-03 0. -1.
</event>
<event>
 8    1  0.1123470E+005  0.1043930E+01  0.7957747E-01            NaN
         13   -1    0    0    0    0  0.00000000000E+00  0.00000000000E+00  0.74505805969E-08  0.10566000000E+00  0.10566000000E+00 0. -1.
     999900   -1    0    0    0    0 -0.00000000000E+00 -0.00000000000E+00 -0.74505805969E-08  0.93827000000E+00  0.93827000000E+00 0.  1.
     999902    2    1    2    0    0  0.63610663358E-02  0.16638444067E-01  0.17138131650E-01  0.10192112512E+01  0.10189114574E+01 0.  0.
     999903    2    3    3    0    0 -0.83166560841E-02  0.74620126210E-01  0.10772747730E+00  0.13254122207E+00  0.18017662959E-01 0.  0.
         14    1    1    2    0    0 -0.63610663358E-02 -0.16638444067E-01 -0.17138131650E-01  0.24718748803E-01  0.00000000000E+00 0.  1.
     999901    1    3    3    0    0  0.14677722420E-01 -0.57981682142E-01 -0.90589345654E-01  0.88667002912E+00  0.88000000000E+00 0.  1.
        -11    1    4    4    0    0 -0.84356754924E-02  0.56684199057E-01  0.93390906911E-01  0.10957363578E+00  0.51100000000E-03 0. -1.
         11    1    4    4    0    0  0.11901940827E-03  0.17935927153E-01  0.14336570394E-01  0.22967586293E-01  0.51100000000E-03 0.  1.
</event>
<event>
 8    1  0.1123470E+005  0.1043930E+01  0.7957747E-01            NaN
         13   -1    0    0    0    0  0.00000000000E+00  0.00000000000E+00  0.74505805969E-08  0.10566000000E+00  0.10566000000E+00 0. -1.
     999900   -1    0    0    0    0 -0.00000000000E+00 -0.00000000000E+00 -0.74505805969E-08  0.93827000000E+00  0.93827000000E+00 0. -1.
     999902    2    1    2    0    0  0.21595203231E-01  0.52513894902E-02 -0.84626393905E-02  0.10201487856E+01  0.10198715598E+01 0.  0.
     999903    2    3    3    0    0 -0.12271449670E+00 -0.96945110304E-02 -0.29530473156E-01  0.12802069889E+00  0.19089768340E-01 0.  0.
         14    1    1    2    0    0 -0.21595203231E-01 -0.52513894902E-02  0.84626393905E-02  0.23781214427E-01  0.00000000000E+00 0. -1.
     999901    1    3    3    0    0  0.14430969993E+00  0.14945900521E-01  0.21067833766E-01  0.89212808669E+00  0.88000000000E+00 0. -1.
        -11    1    4    4    0    0 -0.66056045099E-01 -0.14030996816E-01 -0.12329672710E-01  0.68648029221E-01  0.51100000000E-03 0. -1.
         11    1    4    4    0    0 -0.56658451596E-01  0.43364857852E-02 -0.17200800446E-01  0.59372669666E-01  0.51100000000E-03 0.  1.
</event>
<event>
 8    1  0.1123470E+005  0.1043930E+01  0.7957747E-01            NaN
         13   -1    0    0    0    0  0.00000000000E+00  0.00000000000E+00  0.74505805969E-08  0.10566000000E+00  0.10566000000E+00 0. -1.
     999900   -1    0    0    0    0 -0.00000000000E+00 -0.00000000000E+00 -0.74505805969E-08  0.93827000000E+00  0.93827000000E+00 0. -1.
     999902    2    1    2    0    0 -0.23235262240E-01  0.75296203055E-03 -0.36793607778E-02  0.10203931765E+01  0.10201216852E+01 0.  0.
     999903    2    3    3    0    0 -0.12006199185E+00  0.49811259660E-01 -0.23191208720E-01  0.13350939365E+00  0.19770749981E-01 0.  0.
         14    1    1    2    0    0  0.23235262240E-01 -0.75296203055E-03  0.36793607778E-02  0.23536823467E-01  0.00000000000E+00 0. -1.
     999901    1    3    3    0    0  0.96826729610E-01 -0.49058297630E-01  0.19511847943E-01  0.88688378288E+00  0.88000000000E+00 0.  1.
        -11    1    4    4    0    0 -0.37595723953E-01  0.95881279238E-02 -0.14185736217E-01  0.41314245602E-01  0.51100000000E-03 0.  1.
         11    1    4    4    0    0 -0.82466267896E-01  0.40223131736E-01 -0.90054725040E-02  0.92195148047E-01  0.51100000000E-03 0. -1.
</event>
<event>
 8    1  0.1123470E+005  0.1043930E+01  0.7957747E-01            NaN
         13   -1    0    0    0    0  0.00000000000E+00  0.00000000000E+00  0.74505805969E-08  0.10566000000E+00  0.10566000000E+00 0. -1.
     999900   -1    0    0    0    0 -0.00000000000E+00 -0.00000000000E+00 -0.74505805969E-08  0.93827000000E+00  0.93827000000E+00 0. -1.
     999902    2    1    2    0    0 -0.12345579616E-01 -0.12563487133E-01  0.14255302210E-01  0.10212701636E+01  0.10210187456E+01 0.  0.
     999903    2    3    3    0    0 -0.11381035713E+00  0.60215412161E-01  0.23776652794E-01  0.13240429892E+00  0.19669161205E-01 0.  0.
         14    1    1    2    0    0  0.12345579616E-01  0.12563487133E-01 -0.14255302210E-01  0.22659836409E-01  0.00000000000E+00 0. -1.
     999901    1    3    3    0    0  0.10146477752E+00 -0.72778899294E-01 -0.95213505836E-02  0.88886586467E+00  0.88000000000E+00 0. -1.
        -11    1    4    4    0    0 -0.36559242128E-01  0.25870778701E-01  0.15760676763E-01  0.47481948449E-01  0.51100000000E-03 0. -1.
         11    1    4    4    0    0 -0.77251115003E-01  0.34344633461E-01  0.80159760308E-02  0.84922350471E-01  0.51100000000E-03 0.  1.
</event>
<event>
 8    1  0.1123470E+005  0.1043930E+01  0.7957747E-01            NaN
         13   -1    0    0    0    0  0.00000000000E+00  0.00000000000E+00  0.74505805969E-08  0.10566000000E+00  0.10566000000E+00 0. -1.
     999900   -1    0    0    0    0 -0.00000000000E+00 -0.00000000000E+00 -0.74505805969E-08  0.93827000000E+00  0.93827000000E+00 0. -1.
     999902    2    1    2    0    0  0.99815912144E-02 -0.11998005791E-01  0.16616704593E-01  0.10211330884E+01  0.10208785849E+01 0.  0.
     999903    2    3    3    0    0 -0.80515904363E-01 -0.73852867475E-01 -0.67895890007E-01  0.13031425203E+00  0.20854148567E-01 0.  0.
         14    1    1    2    0    0 -0.99815912144E-02  0.11998005791E-01 -0.16616704593E-01  0.22796911582E-01  0.00000000000E+00 0.  1.
     999901    1    3    3    0    0  0.90497495577E-01  0.61854861684E-01  0.84512594600E-01  0.89081883639E+00  0.88000000000E+00 0.  1.
        -11    1    4    4    0    0 -0.21924067457E-01 -0.31979714208E-01 -0.29332041049E-01  0.48620948241E-01  0.51100000000E-03 0.  1.
         11    1    4    4    0    0 -0.58591836905E-01 -0.41873153268E-01 -0.38563848958E-01  0.81693303789E-01  0.51100000000E-03 0. -1.
</event>
<event>
 8    1  0.1123470E+005  0.1043930E+01  0.7957747E-01            NaN
         13   -1    0    0    0    0  0.00000000000E+00  0.00000000000E+00  0.74505805969E-08  0.10566000000E+00  0.10566000000E+00 0. -1.
     999900   -1    0    0    0    0 -0.00000000000E+00 -0.00000000000E+00 -0.74505805969E-08  0.93827000000E+00  0.93827000000E+00 0. -1.
     999902    2    1    2    0    0 -0.61508811387E-02  0.16803189887E-01  0.15482772379E-01  0.10202678621E+01  0.10199934381E+01 0.  0.
     999903    2    3    3    0    0 -0.27949801080E-01  0.12791539644E+00  0.41045487160E-02  0.13294008765E+00  0.22642428206E-01 0.  0.
         14    1    1    2    0    0  0.61508811387E-02 -0.16803189887E-01 -0.15482772379E-01  0.23662137894E-01  0.00000000000E+00 0.  1.
     999901    1    3    3    0    0  0.21798919941E-01 -0.11111220656E+00  0.11378223663E-01  0.88732777446E+00  0.88000000000E+00 0. -1.
        -11    1    4    4    0    0 -0.29951761376E-01  0.89725585145E-01  0.15034810782E-02  0.94606079167E-01  0.51100000000E-03 0. -1.
         11    1    4    4    0    0  0.20019602958E-02  0.38189811299E-01  0.26010676378E-02  0.38334008478E-01  0.51100000000E-03 0.  1.
</event>
<event>
 8    1  0.1123470E+005  0.1043930E+01  0.7957747E-01            NaN
         13   -1    0    0    0    0  0.00000000000E+00  0.00000000000E+00  0.74505805969E-08  0.10566000000E+00  0.10566000000E+00 0.  1.
     999900   -1    0    0    0    0 -0.00000000000E+00 -0.00000000000E+00 -0.74505805969E-08  0.93827000000E+00  0.93827000000E+00 0. -1.
     999902    2    1    2    0    0  0.22971108320E-01 -0.97758686826E-03 -0.45759522237E-02  0.10204871582E+01  0.10202178557E+01 0.  0.
     999903    2    3    3    0    0  0.21772941445E-01 -0.12574655422E+00 -0.26539831787E-01  0.13141396501E+00  0.16703611931E-01 0.  0.
         14    1    1    2    0    0 -0.22971108320E-01  0.97758686826E-03  0.45759522237E-02  0.23442841814E-01  0.00000000000E+00 0.  1.
     999901    1    3    3    0    0  0.11981668748E-02  0.12476896735E+00  0.21963879563E-01  0.88907319318E+00  0.88000000000E+00 0. -1.
        -11    1    4    4    0    0  0.23416657091E-01 -0.10062514744E+00 -0.18326449204E-01  0.10492797524E+00  0.51100000000E-03 0.  1.
         11    1    4    4    0    0 -0.16437156453E-02 -0.25121406777E-01 -0.82133825832E-02  0.26485989769E-01  0.51100000000E-03 0. -1.
</event>
<event>
 8    1  0.1123470E+005  0.1043930E+01  0.7957747E-01            NaN
         13   -1    0    0    0    0  0.00000000000E+00  0.00000000000E+00  0.74505805969E-08  0.10566000000E+00  0.10566000000E+00 0. -1.
     999900   -1    0    0    0    0 -0.00000000000E+00 -0.00000000000E+00 -0.74505805969E-08  0.93827000000E+00  0.93827000000E+00 0.  1.
     999902    2    1    2    0    0 -0.93820859471E-03  0.23981682775E-01 -0.34229132911E-02  0.10196871107E+01  0.10193988847E+01 0.  0.
     999903    2    3    3    0    0  0.53471927201E-01  0.68912762033E-01  0.96130109078E-01  0.13126712615E+00  0.19540848676E-01 0.  0.
         14    1    1    2    0    0  0.93820859471E-03 -0.23981682775E-01  0.34229132911E-02  0.24242889256E-01  0.00000000000E+00 0. -1.
     999901    1    3    3    0    0 -0.54410135796E-01 -0.44931079258E-01 -0.99553022370E-01  0.88841998459E+00  0.88000000000E+00 0.  1.
        -11    1    4    4    0    0  0.20711002575E-01  0.35679923819E-01  0.56995898495E-01  0.70361894216E-01  0.51100000000E-03 0.  1.
         11    1    4    4    0    0  0.32760924626E-01  0.33232838214E-01  0.39134210583E-01  0.60905231936E-01  0.51100000000E-03 0. -1.
</event>
<event>
 8    1  0.1123470E+005  0.1043930E+01  0.7957747E-01            NaN
         13   -1    0    0    0    0  0.00000000000E+00  0.00000000000E+00  0.74505805969E-08  0.10566000000E+00  0.10566000000E+00 0. -1.
     999900   -1    0    0    0    0 -0.00000000000E+00 -0.00000000000E+00 -0.74505805969E-08  0.93827000000E+00  0.93827000000E+00 0.  1.
     999902    2    1    2    0    0 -0.10550852544E-01 -0.12355021631E-01 -0.14178454606E-01  0.10223662428E+01  0.10221388060E+01 0.  0.
     999903    2    3    3    0    0 -0.12409997737E-01 -0.10825524806E+00  0.73074519418E-01  0.13286447704E+00  0.20973247108E-01 0.  0.
         14    1    1    2    0    0  0.10550852544E-01  0.12355021631E-01  0.14178454606E-01  0.21563757184E-01  0.00000000000E+00 0. -1.
     999901    1    3    3    0    0  0.18591451934E-02  0.95900226426E-01 -0.87252974024E-01  0.88950176578E+00  0.88000000000E+00 0.  1.
        -11    1    4    4    0    0 -0.93488683134E-02 -0.55876612127E-01  0.25859114138E-01  0.62278022019E-01  0.51100000000E-03 0. -1.
         11    1    4    4    0    0 -0.30611294240E-02 -0.52378635929E-01  0.47215405280E-01  0.70586455017E-01  0.51100000000E-03 0.  1.
</event>
<event>
 8    1  0.1123470E+005  0.1043930E+01  0.7957747E-01            NaN
         13   -1    0    0    0    0  0.00000000000E+00  0.00000000000E+00  0.74505805969E-08  0.10566000000E+00  0.10566000000E+00 0. -1.
     999900   -1    0    0    0    0 -0.00000000000E+00 -0.00000000000E+00 -0.74505805969E-08  0.93827000000E+00  0.93827000000E+00 0.  1.
     999902    2    1    2    0    0 -0.16781571835E-01  0.27908732349E-01 -0.17473238126E-02  0.10113175540E+01  0.10107915826E+01 0.  0.
     999903    2    3    3    0    0 -0.11315691101E+00  0.48684774230E-01  0.15054640264E-01  0.12565274385E+00  0.19679331571E-01 0.  0.
         14    1    1    2    0    0  0.16781571835E-01 -0.27908732349E-01  0.17473238126E-02  0.32612446016E-01  0.00000000000E+00 0. -1.
     999901    1    3    3    0    0  0.96375339178E-01 -0.20776041880E-01 -0.16801964077E-01  0.88566481014E+00  0.88000000000E+00 0. -1.
        -11    1    4    4    0    0 -0.48080805888E-01  0.30258249444E-01  0.11208484677E-01  0.57906966800E-01  0.51100000000E-03 0.  1.
         11    1    4    4    0    0 -0.65076105125E-01  0.18426524786E-01  0.38461555874E-02  0.67745777047E-01  0.51100000000E-03 0. -1.
</event>
<event>
 8    1  0.1747376E+005  0.1043930E+01  0.7957747E-01            NaN
         13   -1    0    0    0    0  0.00000000000E+00  0.00000000000E+00  0.74505805969E-08  0.10566000000E+00  0.10566000000E+00 0.  1.
     999900   -1    0    0    0    0 -0.00000000000E+00 -0.00000000000E+00 -0.74505805969E-08  0.93827000000E+00  0.93827000000E+00 0. -1.
     999902    2    1    2    0    0 -0.70453768099E-02 -0.32309730398E-02  0.25046955953E-01  0.10177111800E+01  0.10173733923E+01 0.  0.
     999903    2    3    3    0    0 -0.21576434987E-01 -0.11520936671E+00  0.52437982311E-01  0.13007353959E+00  0.20751939396E-01 0.  0.
         14    1    1    2    0    0  0.70453768099E-02  0.32309730398E-02 -0.25046955953E-01  0.26218820029E-01  0.00000000000E+00 0. -1.
     999901    1    3    3    0    0  0.14531058177E-01  0.11197839367E+00 -0.27391026357E-01  0.88763764038E+00  0.88000000000E+00 0. -1.
        -11    1    4    4    0    0 -0.46254878613E-02 -0.75418121988E-01  0.37119894632E-01  0.84186910862E-01  0.51100000000E-03 0. -1.
         11    1    4    4    0    0 -0.16950947126E-01 -0.39791244718E-01  0.15318087679E-01  0.45886628726E-01  0.51100000000E-03 0.  1.
</event>
<event>
 8    1  0.1123470E+005  0.1043930E+01  0.7957747E-01            NaN
         13   -1    0    0    0    0  0.00000000000E+00  0.00000000000E+00  0.74505805969E-08  0.10566000000E+00  0.10566000000E+00 0.  1.
     999900   -1    0    0    0    0 -0.00000000000E+00 -0.00000000000E+00 -0.74505805969E-08  0.93827000000E+00  0.93827000000E+00 0.  1.
     999902    2    1    2    0    0 -0.15750395153E-01 -0.45738337308E-02  0.16537670805E-01  0.10206385969E+01  0.10203728025E+01 0.  0.
     999903    2    3    3    0    0  0.43675225140E-01 -0.43680013799E-01  0.11499528926E+00  0.13229485696E+00  0.21506829847E-01 0.  0.
         14    1    1    2    0    0  0.15750395153E-01  0.45738337308E-02 -0.16537670805E-01  0.23291403095E-01  0.00000000000E+00 0. -1.
     999901    1    3    3    0    0 -0.59425620293E-01  0.39106180068E-01 -0.98457618453E-01  0.88834373994E+00  0.88000000000E+00 0.  1.
        -11    1    4    4    0    0  0.32209937720E-01 -0.17173033099E-01  0.65654648314E-01  0.75121149619E-01  0.51100000000E-03 0.  1.
         11    1    4    4    0    0  0.11465287420E-01 -0.26506980700E-01  0.49340640944E-01  0.57173707342E-01  0.51100000000E-03 0. -1.
</event>
<event>
 8    1  0.1123470E+005  0.1043930E+01  0.7957747E-01            NaN
         13   -1    0    0    0    0  0.00000000000E+00  0.00000000000E+00  0.74505805969E-08  0.10566000000E+00  0.10566000000E+00 0.  1.
     999900   -1    0    0    0    0 -0.00000000000E+00 -0.00000000000E+00 -0.74505805969E-08  0.93827000000E+00  0.93827000000E+00 0. -1.
     999902    2    1    2    0    0 -0.22847945055E-01  0.55036418082E-02 -0.56422966184E-02  0.10197607183E+01  0.10194742608E+01 0.  0.
     999903    2    3    3    0    0  0.97974023575E-01 -0.26926245802E-02  0.78996002622E-01  0.12744420015E+00  0.19887086211E-01 0.  0.
         14    1    1    2    0    0  0.22847945055E-01 -0.55036418082E-02  0.56422966184E-02  0.24169281692E-01  0.00000000000E+00 0. -1.
     999901    1    3    3    0    0 -0.12082196863E+00  0.81962663884E-02 -0.84638299240E-01  0.89231651816E+00  0.88000000000E+00 0. -1.
        -11    1    4    4    0    0  0.36430607416E-01 -0.95126962919E-02  0.35684512329E-01  0.51877992334E-01  0.51100000000E-03 0.  1.
         11    1    4    4    0    0  0.61543416159E-01  0.68200717118E-02  0.43311490293E-01  0.75566207812E-01  0.51100000000E-03 0. -1.
</event>
<event>
 8    1  0.1123470E+005  0.1043930E+01  0.7957747E-01            NaN
         13   -1    0    0    0    0  0.00000000000E+00  0.00000000000E+00  0.74505805969E-08  0.10566000000E+00  0.10566000000E+00 0.  1.
     999900   -1    0    0    0    0 -0.00000000000E+00 -0.00000000000E+00 -0.74505805969E-08  0.93827000000E+00  0.93827000000E+00 0. -1.
     999902    2    1    2    0    0  0.14469479556E-01 -0.15036286244E-01  0.10838854855E-01  0.10204153978E+01  0.10201444248E+01 0.  0.
     999903    2    3    3    0    0 -0.17290068427E-01 -0.12544158060E+00  0.34834888903E-01  0.13262386395E+00  0.18468437785E-01 0.  0.
         14    1    1    2    0    0 -0.14469479556E-01  0.15036286244E-01 -0.10838854855E-01  0.23514602212E-01  0.00000000000E+00 0. -1.
     999901    1    3    3    0    0  0.31759547983E-01  0.11040529435E+00 -0.23996034048E-01  0.88779153384E+00  0.88000000000E+00 0.  1.
        -11    1    4    4    0    0 -0.12916275009E-01 -0.57050366207E-01  0.24050821812E-01  0.63247747749E-01  0.51100000000E-03 0. -1.
         11    1    4    4    0    0 -0.43737934183E-02 -0.68391214391E-01  0.10784067091E-01  0.69376116198E-01  0.51100000000E-03 0.  1.
</event>
<event>
 8    1  0.1123470E+005  0.1043930E+01  0.7957747E-01            NaN
         13   -1    0    0    0    0  0.00000000000E+00  0.00000000000E+00  0.74505805969E-08  0.10566000000E+00  0.10566000000E+00 0. -1.
     999900   -1    0    0    0    0 -0.00000000000E+00 -0.00000000000E+00 -0.74505805969E-08  0.93827000000E+00  0.93827000000E+00 0.  1.
     999902    2    1    2    0    0 -0.56755268450E-03 -0.23761331708E-01  0.45509819419E-02  0.10197301149E+01  0.10194429228E+01 0.  0.
     999903    2    3    3    0    0  0.48568360737E-01 -0.96738772252E-01  0.72869580776E-01  0.13270842649E+00  0.24171779801E-01 0.  0.
         14    1    1    2    0    0  0.56755268450E-03  0.23761331708E-01 -0.45509819419E-02  0.24199885066E-01  0.00000000000E+00 0.  1.
     999901    1    3    3    0    0 -0.49135913421E-01  0.72977440544E-01 -0.68318598834E-01  0.88702168844E+00  0.88000000000E+00 0.  1.
        -11    1    4    4    0    0 -0.14642341392E-02 -0.14588951638E-01  0.11064019279E-01  0.18375394829E-01  0.51100000000E-03 0. -1.
         11    1    4    4    0    0  0.50032594876E-01 -0.82149820614E-01  0.61805561497E-01  0.11433303167E+00  0.51100000000E-03 0.  1.
</event>
<event>
 8    1  0.1123470E+005  0.1043930E+01  0.7957747E-01            NaN
         13   -1    0    0    0    0  0.00000000000E+00  0.00000000000E+00  0.74505805969E-08  0.10566000000E+00  0.10566000000E+00 0. -1.
     999900   -1    0    0    0    0 -0.00000000000E+00 -0.00000000000E+00 -0.74505805969E-08  0.93827000000E+00  0.93827000000E+00 0. -1.
     999902    2    1    2    0    0  0.17257937927E-01  0.47337262751E-02  0.15634522552E-01  0.10201669429E+01  0.10198901453E+01 0.  0.
     999903    2    3    3    0    0 -0.47747585516E-01 -0.10509979785E+00 -0.52741795426E-01  0.12833487244E+00  0.19035311089E-01 0.  0.
         14    1    1    2    0    0 -0.17257937927E-01 -0.47337262751E-02 -0.15634522552E-01  0.23763057071E-01  0.00000000000E+00 0.  1.
     999901    1    3    3    0    0  0.65005523443E-01  0.10983352412E+00  0.68376317978E-01  0.89183207049E+00  0.88000000000E+00 0. -1.
        -11    1    4    4    0    0 -0.18956397125E-01 -0.33065168068E-01 -0.26563769754E-01  0.46460147609E-01  0.51100000000E-03 0.  1.
         11    1    4    4    0    0 -0.28791188392E-01 -0.72034629779E-01 -0.26178025673E-01  0.81874724827E-01  0.51100000000E-03 0. -1.
</event>
<event>
 8    1  0.1123470E+005  0.1043930E+01  0.7957747E-01            NaN
         13   -1    0    0    0    0  0.00000000000E+00  0.00000000000E+00  0.74505805969E-08  0.10566000000E+00  0.10566000000E+00 0.  1.
     999900   -1    0    0    0    0 -0.00000000000E+00 -0.00000000000E+00 -0.74505805969E-08  0.93827000000E+00  0.93827000000E+00 0. -1.
     999902    2    1    2    0    0 -0.22305513009E-01 -0.13108546263E-02 -0.78594335710E-02  0.10202440348E+01  0.10199690513E+01 0.  0.
     999903    2    3    3    0    0 -0.12102077416E+00  0.49295701071E-01 -0.16273165503E-01  0.13323979743E+00  0.20296151914E-01 0.  0.
         14    1    1    2    0    0  0.22305513009E-01  0.13108546263E-02  0.78594335710E-02  0.23685965180E-01  0.00000000000E+00 0.  1.
     999901    1    3    3    0    0  0.98715261146E-01 -0.50606555697E-01  0.84137319320E-02  0.88700423739E+00  0.88000000000E+00 0. -1.
        -11    1    4    4    0    0 -0.36234075814E-01  0.19238435475E-01 -0.13665146099E-01  0.43243762423E-01  0.51100000000E-03 0. -1.
         11    1    4    4    0    0 -0.84786698341E-01  0.30057265596E-01 -0.26080194038E-02  0.89996035007E-01  0.51100000000E-03 0.  1.
</event>
<event>
 8    1  0.1123470E+005  0.1043930E+01  0.7957747E-01            NaN
         13   -1    0    0    0    0  0.00000000000E+00  0.00000000000E+00  0.74505805969E-08  0.10566000000E+00  0.10566000000E+00 0.  1.
     999900   -1    0    0    0    0 -0.00000000000E+00 -0.00000000000E+00 -0.74505805969E-08  0.93827000000E+00  0.93827000000E+00 0.  1.
     999902    2    1    2    0    0  0.72493892282E-02  0.21482343694E-01  0.65317296192E-02  0.10203353348E+01  0.10200624918E+01 0.  0.
     999903    2    3    3    0    0  0.54360965016E-02 -0.51052906770E-01  0.11810340326E+00  0.13032809383E+00  0.20026176516E-01 0.  0.
         14    1    1    2    0    0 -0.72493892282E-02 -0.21482343694E-01 -0.65317296192E-02  0.23594665215E-01  0.00000000000E+00 0.  1.
     999901    1    3    3    0    0  0.18132927267E-02  0.72535250464E-01 -0.11157167364E+00  0.89000724095E+00  0.88000000000E+00 0.  1.
        -11    1    4    4    0    0 -0.37834108232E-02 -0.34295230953E-01  0.89436963267E-01  0.95862967736E-01  0.51100000000E-03 0. -1.
         11    1    4    4    0    0  0.92195073248E-02 -0.16757675817E-01  0.28666439991E-01  0.34465126097E-01  0.51100000000E-03 0.  1.
</event>
<event>
 8    1  0.1123470E+005  0.1043930E+01  0.7957747E-01            NaN
         13   -1    0    0    0    0  0.00000000000E+00  0.00000000000E+00  0.74505805969E-08  0.10566000000E+00  0.10566000000E+00 0. -1.
     999900   -1    0    0    0    0 -0.00000000000E+00 -0.00000000000E+00 -0.74505805969E-08  0.93827000000E+00  0.93827000000E+00 0.  1.
     999902    2    1    2    0    0 -0.19852954836E-01  0.12325961420E-01 -0.41112046414E-02  0.10202029870E+01  0.10199270384E+01 0.  0.
     999903    2    3    3    0    0 -0.12788272677E-01  0.10130533120E+00 -0.81348298085E-01  0.13232191021E+00  0.21569243676E-01 0.  0.
         14    1    1    2    0    0  0.19852954836E-01 -0.12325961420E-01  0.41112046414E-02  0.23727012965E-01  0.00000000000E+00 0.  1.
     999901    1    3    3    0    0 -0.70646821593E-02 -0.88979369779E-01  0.77237093444E-01  0.88788107683E+00  0.88000000000E+00 0.  1.
        -11    1    4    4    0    0 -0.18159110618E-01  0.85076805913E-01 -0.64338712323E-01  0.10820141971E+00  0.51100000000E-03 0. -1.
         11    1    4    4    0    0  0.53708379418E-02  0.16228525286E-01 -0.17009585763E-01  0.24120490501E-01  0.51100000000E-03 0.  1.
</event>
<event>
 8    1  0.1123470E+005  0.1043930E+01  0.7957747E-01            NaN
         13   -1    0    0    0    0  0.00000000000E+00  0.00000000000E+00  0.74505805969E-08  0.10566000000E+00  0.10566000000E+00 0. -1.
     999900   -1    0    0    0    0 -0.00000000000E+00 -0.00000000000E+00 -0.74505805969E-08  0.93827000000E+00  0.93827000000E+00 0. -1.
     999902    2    1    2    0    0 -0.16136148716E-01  0.10083930529E-01 -0.14381349050E-01  0.10200787076E+01  0.10197998262E+01 0.  0.
     999903    2    3    3    0    0  0.25089776324E-01  0.73141589807E-01  0.10154425361E+00  0.12928434822E+00  0.20591702639E-01 0.  0.
         14    1    1    2    0    0  0.16136148716E-01 -0.10083930529E-01  0.14381349050E-01  0.23851292434E-01  0.00000000000E+00 0. -1.
     999901    1    3    3    0    0 -0.41225925040E-01 -0.63057659279E-01 -0.11592560266E+00  0.89079435935E+00  0.88000000000E+00 0. -1.
        -11    1    4    4    0    0  0.10694919086E-01  0.33182639003E-01  0.62611186432E-01  0.71665128290E-01  0.51100000000E-03 0. -1.
         11    1    4    4    0    0  0.14394857238E-01  0.39958950804E-01  0.38933067180E-01  0.57619219930E-01  0.51100000000E-03 0.  1.
</event>
<event>
 8    1  0.1123470E+005  0.1043930E+01  0.7957747E-01            NaN
         13   -1    0    0    0    0  0.00000000000E+00  0.00000000000E+00  0.74505805969E-08  0.10566000000E+00  0.10566000000E+00 0. -1.
     999900   -1    0    0    0    0 -0.00000000000E+00 -0.00000000000E+00 -0.74505805969E-08  0.93827000000E+00  0.93827000000E+00 0.  1.
     999902    2    1    2    0    0 -0.73134795502E-03  0.37403389768E-02  0.22910854790E-01  0.10207043187E+01  0.10204400393E+01 0.  0.
     999903    2    3    3    0    0 -0.93517389526E-01 -0.39412412808E-01  0.83218041278E-01  0.13272438296E+00  0.19790882032E-01 0.  0.
         14    1    1    2    0    0  0.73134795502E-03 -0.37403389768E-02 -0.22910854790E-01  0.23225681318E-01  0.00000000000E+00 0.  1.
     999901    1    3    3    0    0  0.92786041571E-01  0.43152751785E-01 -0.60307186489E-01  0.88797993572E+00  0.88000000000E+00 0.  1.
        -11    1    4    4    0    0 -0.22967649343E-01 -0.90768498594E-03  0.17221831709E-01  0.28726110366E-01  0.51100000000E-03 0.  1.
         11    1    4    4    0    0 -0.70549740184E-01 -0.38504727822E-01  0.65996209570E-01  0.10399827260E+00  0.51100000000E-03 0. -1.
</event>
<event>
 8    1  0.1123470E+005  0.1043930E+01  0.7957747E-01            NaN
         13   -1    0    0    0    0  0.00000000000E+00  0.00000000000E+00  0.74505805969E-08  0.10566000000E+00  0.10566000000E+00 0.  1.
     999900   -1    0    0    0    0 -0.00000000000E+00 -0.00000000000E+00 -0.74505805969E-08  0.93827000000E+00  0.93827000000E+00 0. -1.
     999902    2    1    2    0    0  0.17170134377E-02  0.39197585999E-02 -0.23343952056E-01  0.10201970537E+01  0.10199209654E+01 0.  0.
     999903    2    3    3    0    0  0.68005696325E-01  0.75109163010E-01  0.77667394303E-01  0.12909357325E+00  0.19151120461E-01 0.  0.
         14    1    1    2    0    0 -0.17170134377E-02 -0.39197585999E-02  0.23343952056E-01  0.23732946303E-01  0.00000000000E+00 0.  1.
     999901    1    3    3    0    0 -0.66288682887E-01 -0.71189404410E-01 -0.10101134636E+00  0.89110348045E+00  0.88000000000E+00 0. -1.
        -11    1    4    4    0    0  0.34219898921E-01  0.30328309258E-01  0.45099997348E-01  0.64226775619E-01  0.51100000000E-03 0. -1.
         11    1    4    4    0    0  0.33785797403E-01  0.44780853753E-01  0.32567396955E-01  0.64866797627E-01  0.51100000000E-03 0.  1.
</event>
<event>
 8    1  0.1123470E+005  0.1043930E+01  0.7957747E-01            NaN
         13   -1    0    0    0    0  0.00000000000E+00  0.00000000000E+00  0.74505805969E-08  0.10566000000E+00  0.10566000000E+00 0. -1.
     999900   -1    0    0    0    0 -0.00000000000E+00 -0.00000000000E+00 -0.74505805969E-08  0.93827000000E+00  0.93827000000E+00 0.  1.
     999902    2    1    2    0    0  0.68518143286E-02  0.20946633012E-01  0.48486554110E-02  0.10213641352E+01  0.10211148214E+01 0.  0.
     999903    2    3    3    0    0  0.40768696616E-01 -0.56995643733E-01  0.10886669965E+00  0.13117027603E+00  0.21049774179E-01 0.  0.
         14    1    1    2    0    0 -0.68518143286E-02 -0.20946633012E-01 -0.48486554110E-02  0.22565864783E-01  0.00000000000E+00 0.  1.
     999901    1    3    3    0    0 -0.33916882287E-01  0.77942276744E-01 -0.10401804424E+00  0.89019385919E+00  0.88000000000E+00 0.  1.
        -11    1    4    4    0    0  0.13208554319E-01 -0.32564097124E-01  0.41417679487E-01  0.54319164425E-01  0.51100000000E-03 0.  1.
         11    1    4    4    0    0  0.27560142297E-01 -0.24431546608E-01  0.67449020162E-01  0.76851111605E-01  0.51100000000E-03 0. -1.
</event>
<event>
 8    1  0.1123470E+005  0.1043930E+01  0.7957747E-01            NaN
         13   -1    0    0    0    0  0.00000000000E+00  0.00000000000E+00  0.74505805969E-08  0.10566000000E+00  0.10566000000E+00 0. -1.
     999900   -1    0    0    0    0 -0.00000000000E+00 -0.00000000000E+00 -0.74505805969E-08  0.93827000000E+00  0.93827000000E+00 0. -1.
     999902    2    1    2    0    0 -0.10048631625E-01  0.12776001855E-01 -0.21700556261E-01  0.10168169890E+01  0.10164554461E+01 0.  0.
     999903    2    3    3    0    0 -0.64118708060E-01 -0.10715156726E+00 -0.11191982563E-01  0.12697620266E+00  0.20125319326E-01 0.  0.
         14    1    1    2    0    0  0.10048631625E-01 -0.12776001855E-01  0.21700556261E-01  0.27113010953E-01  0.00000000000E+00 0.  1.
     999901    1    3    3    0    0  0.54070076435E-01  0.11992756912E+00 -0.10508573697E-01  0.88984078639E+00  0.88000000000E+00 0. -1.
        -11    1    4    4    0    0 -0.46440761258E-01 -0.81484649091E-01  0.19581202577E-03  0.93791213912E-01  0.51100000000E-03 0. -1.
         11    1    4    4    0    0 -0.17677946802E-01 -0.25666918170E-01 -0.11387794589E-01  0.33184988746E-01  0.51100000000E-03 0.  1.
</event>
<event>
 8    1  0.1123470E+005  0.1043930E+01  0.7957747E-01            NaN
         13   -1    0    0    0    0  0.00000000000E+00  0.00000000000E+00  0.74505805969E-08  0.10566000000E+00  0.10566000000E+00 0.  1.
     999900   -1    0    0    0    0 -0.00000000000E+00 -0.00000000000E+00 -0.74505805969E-08  0.93827000000E+00  0.93827000000E+00 0. -1.
     999902    2    1    2    0    0  0.54271127134E-02 -0.29184308850E-01 -0.23362315977E-02  0.10141535762E+01  0.10137163512E+01 0.  0.
     999903    2    3    3    0    0  0.67369585296E-01  0.13317883768E-01 -0.10317178110E+00  0.12521538132E+00  0.17845118464E-01 0.  0.
         14    1    1    2    0    0 -0.54271127134E-02  0.29184308850E-01  0.23362315977E-02  0.29776423787E-01  0.00000000000E+00 0.  1.
     999901    1    3    3    0    0 -0.61942472583E-01 -0.42502192618E-01  0.10083554951E+00  0.88893819489E+00  0.88000000000E+00 0.  1.
        -11    1    4    4    0    0  0.54230991844E-01  0.12805821477E-01 -0.69616743697E-01  0.89172538733E-01  0.51100000000E-03 0.  1.
         11    1    4    4    0    0  0.13138593452E-01  0.51206229160E-03 -0.33555037408E-01  0.36042842592E-01  0.51100000000E-03 0. -1.
</event>
<event>
 8    1  0.1123470E+005  0.1043930E+01  0.7957747E-01            NaN
         13   -1    0    0    0    0  0.00000000000E+00  0.00000000000E+00  0.74505805969E-08  0.10566000000E+00  0.10566000000E+00 0.  1.
     999900   -1    0    0    0    0 -0.00000000000E+00 -0.00000000000E+00 -0.74505805969E-08  0.93827000000E+00  0.93827000000E+00 0.  1.
     999902    2    1    2    0    0  0.16123777745E-01 -0.83809220822E-02  0.15591467212E-01  0.10199861091E+01  0.10197050322E+01 0.  0.
     999903    2    3    3    0    0  0.88380463283E-01 -0.26575761372E-01 -0.90041798027E-01  0.13054219992E+00  0.20404979402E-01 0.  0.
         14    1    1    2    0    0 -0.16123777745E-01  0.83809220822E-02 -0.15591467212E-01  0.23943890944E-01  0.00000000000E+00 0. -1.
     999901    1    3    3    0    0 -0.72256685538E-01  0.18194839290E-01  0.10563326524E+00  0.88944390914E+00  0.88000000000E+00 0. -1.
        -11    1    4    4    0    0  0.32607108121E-01 -0.46767872819E-02 -0.20748358557E-01  0.38933935623E-01  0.51100000000E-03 0.  1.
         11    1    4    4    0    0  0.55773355162E-01 -0.21898974090E-01 -0.69293439470E-01  0.91608264293E-01  0.51100000000E-03 0. -1.
</event>
<event>
 8    1  0.1123470E+005  0.1043930E+01  0.7957747E-01            NaN
         13   -1    0    0    0    0  0.00000000000E+00  0.00000000000E+00  0.74505805969E-08  0.10566000000E+00  0.10566000000E+00 0.  1.
     999900   -1    0    0    0    0 -0.00000000000E+00 -0.00000000000E+00 -0.74505805969E-08  0.93827000000E+00  0.93827000000E+00 0. -1.
     999902    2    1    2    0    0 -0.17399044253E-01  0.14840902029E-01 -0.54791214928E-02  0.10204140504E+01  0.10201430460E+01 0.  0.
     999903    2    3    3    0    0 -0.90040617770E-01 -0.42778026052E-01  0.82905284315E-01  0.13113988441E+00  0.19675130373E-01 0.  0.
         14    1    1    2    0    0  0.17399044253E-01 -0.14840902029E-01  0.54791214928E-02  0.23515949614E-01  0.00000000000E+00 0.  1.
     999901    1    3    3    0    0  0.72641573517E-01  0.57618928081E-01 -0.88384405808E-01  0.88927416597E+00  0.88000000000E+00 0. -1.
        -11    1    4    4    0    0 -0.19286620207E-01 -0.17736282129E-01  0.16854988349E-01  0.31159287156E-01  0.51100000000E-03 0.  1.
         11    1    4    4    0    0 -0.70753997562E-01 -0.25041743922E-01  0.66050295966E-01  0.99980597257E-01  0.51100000000E-03 0. -1.
</event>
<event>
 8    1  0.1123470E+005  0.1043930E+01  0.7957747E-01            NaN
         13   -1    0    0    0    0  0.00000000000E+00  0.00000000000E+00  0.74505805969E-08  0.10566000000E+00  0.10566000000E+00 0.  1.
     999900   -1    0    0    0    0 -0.00000000000E+00 -0.00000000000E+00 -0.74505805969E-08  0.93827000000E+00  0.93827000000E+00 0. -1.
     999902    2    1    2    0    0  0.20761156926E-01  0.11398285169E-01 -0.26806383976E-02  0.10200944727E+01  0.10198159642E+01 0.  0.
     999903    2    3    3    0    0  0.30617052561E-01  0.39074443964E-01 -0.12046994865E+00  0.13176039695E+00  0.19585137184E-01 0.  0.
         14    1    1    2    0    0 -0.20761156926E-01 -0.11398285169E-01  0.26806383976E-02  0.23835527347E-01  0.00000000000E+00 0.  1.
     999901    1    3    3    0    0 -0.98558956346E-02 -0.27676158796E-01  0.11778931025E+00  0.88833407570E+00  0.88000000000E+00 0.  1.
        -11    1    4    4    0    0  0.31441119720E-01  0.38070095814E-01 -0.10288769253E+00  0.11412280491E+00  0.51100000000E-03 0. -1.
         11    1    4    4    0    0 -0.82406715967E-03  0.10043481506E-02 -0.17582256119E-01  0.17637592044E-01  0.51100000000E-03 0.  1.
</event>
<event>
 8    1  0.1123470E+005  0.1043930E+01  0.7957747E-01            NaN
         13   -1    0    0    0    0  0.00000000000E+00  0.00000000000E+00  0.74505805969E-08  0.10566000000E+00  0.10566000000E+00 0.  1.
     999900   -1    0    0    0    0 -0.00000000000E+00 -0.00000000000E+00 -0.74505805969E-08  0.93827000000E+00  0.93827000000E+00 0. -1.
     999902    2    1    2    0    0  0.10707940250E-01  0.20783159212E-01 -0.56153332490E-02  0.10198856315E+01  0.10196021624E+01 0.  0.
     999903    2    3    3    0    0 -0.10835839127E-01  0.85352295122E-01 -0.98490616962E-01  0.13238401114E+00  0.20559549680E-01 0.  0.
         14    1    1    2    0    0 -0.10707940250E-01 -0.20783159212E-01  0.56153332490E-02  0.24044368545E-01  0.00000000000E+00 0. -1.
     999901    1    3    3    0    0  0.21543779378E-01 -0.64569135910E-01  0.92875283713E-01  0.88750162032E+00  0.88000000000E+00 0.  1.
        -11    1    4    4    0    0  0.22076930439E-02  0.24251673650E-01 -0.17023088134E-01  0.29716396720E-01  0.51100000000E-03 0. -1.
         11    1    4    4    0    0 -0.13043532171E-01  0.61100621472E-01 -0.81467528828E-01  0.10266761442E+00  0.51100000000E-03 0.  1.
</event>
<event>
 8    1  0.1123470E+005  0.1043930E+01  0.7957747E-01            NaN
         13   -1    0    0    0    0  0.00000000000E+00  0.00000000000E+00  0.74505805969E-08  0.10566000000E+00  0.10566000000E+00 0. -1.
     999900   -1    0    0    0    0 -0.00000000000E+00 -0.00000000000E+00 -0.74505805969E-08  0.93827000000E+00  0.93827000000E+00 0. -1.
     999902    2    1    2    0    0  0.17043336396E-01  0.34601188213E-02 -0.15547629376E-01  0.10206024087E+01  0.10203357781E+01 0.  0.
     999903    2    3    3    0    0 -0.10097908753E-01  0.48407057879E-01  0.11747399194E+00  0.12905789142E+00  0.20263009146E-01 0.  0.
         14    1    1    2    0    0 -0.17043336396E-01 -0.34601188213E-02  0.15547629376E-01  0.23327591324E-01  0.00000000000E+00 0. -1.
     999901    1    3    3    0    0  0.27141245149E-01 -0.44946939057E-01 -0.13302162132E+00  0.89154451726E+00  0.88000000000E+00 0. -1.
        -11    1    4    4    0    0  0.12257521479E-02  0.36710068086E-01  0.73597149856E-01  0.82255292566E-01  0.51100000000E-03 0. -1.
         11    1    4    4    0    0 -0.11323660901E-01  0.11696989792E-01  0.43876842089E-01  0.46802598850E-01  0.51100000000E-03 0.  1.
</event>
<event>
 8    1  0.1123470E+005  0.1043930E+01  0.7957747E-01            NaN
         13   -1    0    0    0    0  0.00000000000E+00  0.00000000000E+00  0.74505805969E-08  0.10566000000E+00  0.10566000000E+00 0.  1.
     999900   -1    0    0    0    0 -0.00000000000E+00 -0.00000000000E+00 -0.74505805969E-08  0.93827000000E+00  0.93827000000E+00 0. -1.
     999902    2    1    2    0    0  0.91786767465E-02 -0.21619726422E-01  0.25943043624E-02  0.10202996997E+01  0.10200260223E+01 0.  0.
     999903    2    3    3    0    0 -0.89615267279E-02  0.19469477552E-01  0.12707836418E+00  0.13040438517E+00  0.19925448867E-01 0.  0.
         14    1    1    2    0    0 -0.91786767465E-02  0.21619726422E-01 -0.25943043624E-02  0.23630300305E-01  0.00000000000E+00 0. -1.
     999901    1    3    3    0    0  0.18140203474E-01 -0.41089203974E-01 -0.12448405981E+00  0.88989531452E+00  0.88000000000E+00 0. -1.
        -11    1    4    4    0    0 -0.12374448810E-02  0.15549488283E-01  0.11137545567E+00  0.11246364347E+00  0.51100000000E-03 0.  1.
         11    1    4    4    0    0 -0.77240818470E-02  0.39199892691E-02  0.15702908509E-01  0.17940741704E-01  0.51100000000E-03 0. -1.
</event>
<event>
 8    1  0.1123470E+005  0.1043930E+01  0.7957747E-01            NaN
         13   -1    0    0    0    0  0.00000000000E+00  0.00000000000E+00  0.74505805969E-08  0.10566000000E+00  0.10566000000E+00 0. -1.
     999900   -1    0    0    0    0 -0.00000000000E+00 -0.00000000000E+00 -0.74505805969E-08  0.93827000000E+00  0.93827000000E+00 0.  1.
     999902    2    1    2    0    0  0.10490107743E-01  0.11194471717E-01  0.18875230425E-01  0.10196064953E+01  0.10193163260E+01 0.  0.
     999903    2    3    3    0    0  0.44413033902E-01 -0.61383636395E-01  0.10689500596E+00  0.13159420508E+00  0.12248433073E-01 0.  0.
         14    1    1    2    0    0 -0.10490107743E-01 -0.11194471717E-01 -0.18875230425E-01  0.24323504704E-01  0.00000000000E+00 0.  1.
     999901    1    3    3    0    0 -0.33922926159E-01  0.72578108112E-01 -0.88019775536E-01  0.88801229022E+00  0.88000000000E+00 0.  1.
        -11    1    4    4    0    0  0.19088741172E-02 -0.65954379454E-02  0.14691349158E-01  0.16224686844E-01  0.51100000000E-03 0. -1.
         11    1    4    4    0    0  0.42504159785E-01 -0.54788198450E-01  0.92203656803E-01  0.11536951823E+00  0.51100000000E-03 0.  1.
</event>
<event>
 8    1  0.1123470E+005  0.1043930E+01  0.7957747E-01            NaN
         13   -1    0    0    0    0  0.00000000000E+00  0.00000000000E+00  0.74505805969E-08  0.10566000000E+00  0.10566000000E+00 0.  1.
     999900   -1    0    0    0    0 -0.00000000000E+00 -0.00000000000E+00 -0.74505805969E-08  0.93827000000E+00  0.93827000000E+00 0.  1.
     999902    2    1    2    0    0 -0.73319242957E-02 -0.23086920972E-01  0.17977594080E-02  0.10196401879E+01  0.10193508315E+01 0.  0.
     999903    2    3    3    0    0 -0.54164363336E-01  0.10006559036E+00 -0.55508111466E-01  0.12798791192E+00  0.18784422539E-01 0.  0.
         14    1    1    2    0    0  0.73319242957E-02  0.23086920972E-01 -0.17977594080E-02  0.24289812118E-01  0.00000000000E+00 0.  1.
     999901    1    3    3    0    0  0.46832439041E-01 -0.12315251133E+00  0.57305870874E-01  0.89165227596E+00  0.88000000000E+00 0. -1.
        -11    1    4    4    0    0 -0.20775307794E-01  0.38467176835E-01 -0.31630010762E-01  0.53963467359E-01  0.51100000000E-03 0. -1.
         11    1    4    4    0    0 -0.33389055542E-01  0.61598413521E-01 -0.23878100704E-01  0.74024444561E-01  0.51100000000E-03 0.  1.
</event>
<event>
 8    1  0.1123470E+005  0.1043930E+01  0.7957747E-01            NaN
         13   -1    0    0    0    0  0.00000000000E+00  0.00000000000E+00  0.74505805969E-08  0.10566000000E+00  0.10566000000E+00 0. -1.
     999900   -1    0    0    0    0 -0.00000000000E+00 -0.00000000000E+00 -0.74505805969E-08  0.93827000000E+00  0.93827000000E+00 0. -1.
     999902    2    1    2    0    0 -0.11104322313E-01 -0.30276658934E-02  0.24552313090E-01  0.10168137906E+01  0.10164521612E+01 0.  0.
     999903    2    3    3    0    0  0.16597481106E-01  0.25409290863E-01  0.12399917103E+00  0.13032310932E+00  0.26214689856E-01 0.  0.
         14    1    1    2    0    0  0.11104322313E-01  0.30276658934E-02 -0.24552313090E-01  0.27116209412E-01  0.00000000000E+00 0.  1.
     999901    1    3    3    0    0 -0.27701803418E-01 -0.28436956756E-01 -0.99446857943E-01  0.88649068127E+00  0.88000000000E+00 0.  1.
        -11    1    4    4    0    0  0.43817336538E-02  0.14614840797E-01  0.10088815753E+00  0.10203663368E+00  0.51100000000E-03 0. -1.
         11    1    4    4    0    0  0.12215747452E-01  0.10794450066E-01  0.23111013501E-01  0.28286475640E-01  0.51100000000E-03 0.  1.
</event>
<event>
 8    1  0.1123470E+005  0.1043930E+01  0.7957747E-01            NaN
         13   -1    0    0    0    0  0.00000000000E+00  0.00000000000E+00  0.74505805969E-08  0.10566000000E+00  0.10566000000E+00 0. -1.
     999900   -1    0    0    0    0 -0.00000000000E+00 -0.00000000000E+00 -0.74505805969E-08  0.93827000000E+00  0.93827000000E+00 0.  1.
     999902    2    1    2    0    0 -0.22460104889E-02 -0.10430435607E-01 -0.23387481967E-01  0.10182237194E+01  0.10178991747E+01 0.  0.
     999903    2    3    3    0    0  0.73798679776E-01  0.66127357539E-01 -0.80958874574E-01  0.12976530401E+00  0.21578280779E-01 0.  0.
         14    1    1    2    0    0  0.22460104889E-02  0.10430435607E-01  0.23387481967E-01  0.25706280610E-01  0.00000000000E+00 0. -1.
     999901    1    3    3    0    0 -0.76044690264E-01 -0.76557793146E-01  0.57571392607E-01  0.88845841538E+00  0.88000000000E+00 0. -1.
        -11    1    4    4    0    0  0.56366837457E-01  0.48038644475E-01 -0.71422720095E-01  0.10289022206E+00  0.51100000000E-03 0. -1.
         11    1    4    4    0    0  0.17431842319E-01  0.18088713063E-01 -0.95361544793E-02  0.26875081957E-01  0.51100000000E-03 0.  1.
</event>
<event>
 8    1  0.1123470E+005  0.1043930E+01  0.7957747E-01            NaN
         13   -1    0    0    0    0  0.00000000000E+00  0.00000000000E+00  0.74505805969E-08  0.10566000000E+00  0.10566000000E+00 0.  1.
     999900   -1    0    0    0    0 -0.00000000000E+00 -0.00000000000E+00 -0.74505805969E-08  0.93827000000E+00  0.93827000000E+00 0. -1.
     999902    2    1    2    0    0 -0.52654853955E-03  0.21065747903E-01  0.10313515901E-01  0.10204691475E+01  0.10201994263E+01 0.  0.
     999903    2    3    3    0    0  0.31852974892E-01 -0.72250839175E-01  0.10166994558E+00  0.13024309972E+00  0.19791195531E-01 0.  0.
         14    1    1    2    0    0  0.52654853955E-03 -0.21065747903E-01 -0.10313515901E-01  0.23460852463E-01  0.00000000000E+00 0. -1.
     999901    1    3    3    0    0 -0.32379523431E-01  0.93316587078E-01 -0.91356429678E-01  0.89022604781E+00  0.88000000000E+00 0.  1.
        -11    1    4    4    0    0  0.14264883877E-01 -0.45003636197E-01  0.73092285821E-01  0.87014697325E-01  0.51100000000E-03 0.  1.
         11    1    4    4    0    0  0.17588091015E-01 -0.27247202978E-01  0.28577659757E-01  0.43228402398E-01  0.51100000000E-03 0. -1.
</event>
<event>
 8    1  0.1123470E+005  0.1043930E+01  0.7957747E-01            NaN
         13   -1    0    0    0    0  0.00000000000E+00  0.00000000000E+00  0.74505805969E-08  0.10566000000E+00  0.10566000000E+00 0. -1.
     999900   -1    0    0    0    0 -0.00000000000E+00 -0.00000000000E+00 -0.74505805969E-08  0.93827000000E+00  0.93827000000E+00 0.  1.
     999902    2    1    2    0    0  0.20754748760E-01 -0.75516681586E-02  0.94549725796E-02  0.10199053503E+01  0.10196223515E+01 0.  0.
     999903    2    3    3    0    0 -0.47510562979E-01 -0.11718073164E+00  0.24809881370E-01  0.13034677571E+00  0.19651317048E-01 0.  0.
         14    1    1    2    0    0 -0.20754748760E-01  0.75516681586E-02 -0.94549725796E-02  0.24024649728E-01  0.00000000000E+00 0.  1.
     999901    1    3    3    0    0  0.68265311739E-01  0.10962906349E+00 -0.15354908790E-01  0.88955857456E+00  0.88000000000E+00 0. -1.
        -11    1    4    4    0    0 -0.34332464816E-01 -0.97147974847E-01  0.13803659002E-01  0.10395792072E+00  0.51100000000E-03 0. -1.
         11    1    4    4    0    0 -0.13178098163E-01 -0.20032756798E-01  0.11006222368E-01  0.26388854995E-01  0.51100000000E-03 0.  1.
</event>
<event>
 8    1  0.1123470E+005  0.1043930E+01  0.7957747E-01            NaN
         13   -1    0    0    0    0  0.00000000000E+00  0.00000000000E+00  0.74505805969E-08  0.10566000000E+00  0.10566000000E+00 0. -1.
     999900   -1    0    0    0    0 -0.00000000000E+00 -0.00000000000E+00 -0.74505805969E-08  0.93827000000E+00  0.93827000000E+00 0. -1.
     999902    2    1    2    0    0 -0.12094664065E-01 -0.55998371726E-02  0.21793481690E-01  0.10183840626E+01  0.10180636051E+01 0.  0.
     999903    2    3    3    0    0 -0.10918563428E+00  0.42930927740E-01  0.54828266818E-01  0.13109989801E+00  0.20407771260E-01 0.  0.
         14    1    1    2    0    0  0.12094664065E-01  0.55998371726E-02 -0.21793481690E-01  0.25545937434E-01  0.00000000000E+00 0.  1.
     999901    1    3    3    0    0  0.97090970211E-01 -0.48530764912E-01 -0.33034785128E-01  0.88728416455E+00  0.88000000000E+00 0. -1.
        -11    1    4    4    0    0 -0.81430593600E-01  0.26247955912E-01  0.47630766632E-01  0.97922662415E-01  0.51100000000E-03 0. -1.
         11    1    4    4    0    0 -0.27755040676E-01  0.16682971828E-01  0.71975001862E-02  0.33177235597E-01  0.51100000000E-03 0.  1.
</event>
<event>
 8    1  0.1123470E+005  0.1043930E+01  0.7957747E-01            NaN
         13   -1    0    0    0    0  0.00000000000E+00  0.00000000000E+00  0.74505805969E-08  0.10566000000E+00  0.10566000000E+00 0.  1.
     999900   -1    0    0    0    0 -0.00000000000E+00 -0.00000000000E+00 -0.74505805969E-08  0.93827000000E+00  0.93827000000E+00 0. -1.
     999902    2    1    2    0    0  0.92404851221E-02 -0.17316977663E-01  0.40718809824E-02  0.10238839407E+01  0.10236876865E+01 0.  0.
     999903    2    3    3    0    0 -0.48474576169E-01  0.10968390628E+00 -0.49663205453E-01  0.13127668528E+00  0.19666984838E-01 0.  0.
         14    1    1    2    0    0 -0.92404851221E-02  0.17316977663E-01 -0.40718809824E-02  0.20046059349E-01  0.00000000000E+00 0.  1.
     999901    1    3    3    0    0  0.57715061291E-01 -0.12700088394E+00  0.53735086436E-01  0.89260725537E+00  0.88000000000E+00 0.  1.
        -11    1    4    4    0    0 -0.91854371385E-02  0.38882517458E-01 -0.22573918588E-01  0.45891887526E-01  0.51100000000E-03 0. -1.
         11    1    4    4    0    0 -0.39289139031E-01  0.70801388818E-01 -0.27089286865E-01  0.85384797758E-01  0.51100000000E-03 0.  1.
</event>
<event>
 8    1  0.1123470E+005  0.1043930E+01  0.7957747E-01            NaN
         13   -1    0    0    0    0  0.00000000000E+00  0.00000000000E+00  0.74505805969E-08  0.10566000000E+00  0.10566000000E+00 0.  1.
     999900   -1    0    0    0    0 -0.00000000000E+00 -0.00000000000E+00 -0.74505805969E-08  0.93827000000E+00  0.93827000000E+00 0. -1.
     999902    2    1    2    0    0 -0.26189947913E-02  0.43311386356E-02  0.26209026301E-01  0.10172367245E+01  0.10168864355E+01 0.  0.
     999903    2    3    3    0    0 -0.12622254861E+00 -0.66553348787E-02  0.96318709583E-02  0.12837602499E+00  0.20278204869E-01 0.  0.
         14    1    1    2    0    0  0.26189947913E-02 -0.43311386356E-02 -0.26209026301E-01  0.26693275469E-01  0.00000000000E+00 0. -1.
     999901    1    3    3    0    0  0.12360355382E+00  0.10986473514E-01  0.16577155343E-01  0.88886069955E+00  0.88000000000E+00 0.  1.
        -11    1    4    4    0    0 -0.99743215984E-01 -0.31129271429E-02  0.15579709008E-01  0.10100192030E+00  0.51100000000E-03 0.  1.
         11    1    4    4    0    0 -0.26479332628E-01 -0.35424077358E-02 -0.59478380502E-02  0.27374104688E-01  0.51100000000E-03 0. -1.
</event>
<event>
 8    1  0.1123470E+005  0.1043930E+01  0.7957747E-01            NaN
         13   -1    0    0    0    0  0.00000000000E+00  0.00000000000E+00  0.74505805969E-08  0.10566000000E+00  0.10566000000E+00 0.  1.
     999900   -1    0    0    0    0 -0.00000000000E+00 -0.00000000000E+00 -0.74505805969E-08  0.93827000000E+00  0.93827000000E+00 0. -1.
     999902    2    1    2    0    0 -0.11859728951E-01 -0.29267639086E-02  0.20375575308E-01  0.10201732497E+01  0.10198966007E+01 0.  0.
     999903    2    3    3    0    0  0.15976455948E-01 -0.79902933065E-01 -0.97413719388E-01  0.12855982347E+00  0.19961704057E-01 0.  0.
         14    1    1    2    0    0  0.11859728951E-01  0.29267639086E-02 -0.20375575308E-01  0.23756750344E-01  0.00000000000E+00 0. -1.
     999901    1    3    3    0    0 -0.27836184899E-01  0.76976169157E-01  0.11778929470E+00  0.89161342618E+00  0.88000000000E+00 0.  1.
        -11    1    4    4    0    0  0.54457301367E-02 -0.66003448424E-01 -0.80728124936E-01  0.10441935863E+00  0.51100000000E-03 0. -1.
         11    1    4    4    0    0  0.10530725811E-01 -0.13899484641E-01 -0.16685594452E-01  0.24140464838E-01  0.51100000000E-03 0.  1.
</event>
<event>
 8    1  0.1123470E+005  0.1043930E+01  0.7957747E-01            NaN
         13   -1    0    0    0    0  0.00000000000E+00  0.00000000000E+00  0.74505805969E-08  0.10566000000E+00  0.10566000000E+00 0.  1.
     999900   -1    0    0    0    0 -0.00000000000E+00 -0.00000000000E+00 -0.74505805969E-08  0.93827000000E+00  0.93827000000E+00 0. -1.
     999902    2    1    2    0    0 -0.54979154445E-02 -0.21913306867E-01  0.81640847063E-02  0.10199076693E+01  0.10196247259E+01 0.  0.
     999903    2    3    3    0    0  0.10583113034E+00  0.61270363390E-01  0.34406945751E-01  0.12861514316E+00  0.20093072332E-01 0.  0.
         14    1    1    2    0    0  0.54979154445E-02  0.21913306867E-01 -0.81640847063E-02  0.24022330677E-01  0.00000000000E+00 0. -1.
     999901    1    3    3    0    0 -0.11132904579E+00 -0.83183670257E-01 -0.26242861045E-01  0.89129252616E+00  0.88000000000E+00 0.  1.
        -11    1    4    4    0    0  0.48085224165E-01  0.35199383314E-01  0.24723602170E-01  0.64519012655E-01  0.51100000000E-03 0. -1.
         11    1    4    4    0    0  0.57745906176E-01  0.26070980076E-01  0.96833435810E-02  0.64096130508E-01  0.51100000000E-03 0.  1.
</event>
<event>
 8    1  0.1123470E+005  0.1043930E+01  0.7957747E-01            NaN
         13   -1    0    0    0    0  0.00000000000E+00  0.00000000000E+00  0.74505805969E-08  0.10566000000E+00  0.10566000000E+00 0. -1.
     999900   -1    0    0    0    0 -0.00000000000E+00 -0.00000000000E+00 -0.74505805969E-08  0.93827000000E+00  0.93827000000E+00 0. -1.
     999902    2    1    2    0    0  0.12186401757E-01 -0.59172554157E-02 -0.19497494025E-01  0.10201881683E+01  0.10199118708E+01 0.  0.
     999903    2    3    3    0    0 -0.49898185195E-01 -0.10094087171E+00  0.60334881306E-01  0.12931377101E+00  0.20071497279E-01 0.  0.
         14    1    1    2    0    0 -0.12186401757E-01  0.59172554157E-02  0.19497494025E-01  0.23741831704E-01  0.00000000000E+00 0. -1.
     999901    1    3    3    0    0  0.62084586952E-01  0.95023616293E-01 -0.79832375331E-01  0.89087439729E+00  0.88000000000E+00 0. -1.
        -11    1    4    4    0    0 -0.43723671635E-01 -0.69216193720E-01  0.39945025180E-01  0.91096142026E-01  0.51100000000E-03 0. -1.
         11    1    4    4    0    0 -0.61745135603E-02 -0.31724677989E-01  0.20389856126E-01  0.38217628982E-01  0.51100000000E-03 0.  1.
</event>
<event>
 8    1  0.1123470E+005  0.1043930E+01  0.7957747E-01            NaN
         13   -1    0    0    0    0  0.00000000000E+00  0.00000000000E+00  0.74505805969E-08  0.10566000000E+00  0.10566000000E+00 0.  1.
     999900   -1    0    0    0    0 -0.00000000000E+00 -0.00000000000E+00 -0.74505805969E-08  0.93827000000E+00  0.93827000000E+00 0. -1.
     999902    2    1    2    0    0 -0.16884473379E-01  0.13426665418E-01  0.74886464758E-02  0.10210949258E+01  0.10208395599E+01 0.  0.
     999903    2    3    3    0    0 -0.79906947613E-01 -0.91830166062E-01  0.45641788222E-01  0.13176568701E+00  0.21473792504E-01 0.  0.
         14    1    1    2    0    0  0.16884473379E-01 -0.13426665418E-01 -0.74886464758E-02  0.22835074153E-01  0.00000000000E+00 0.  1.
     999901    1    3    3    0    0  0.63022474234E-01  0.10525683148E+00 -0.38153141746E-01  0.88932923884E+00  0.88000000000E+00 0. -1.
        -11    1    4    4    0    0 -0.68696366096E-01 -0.66562449383E-01  0.31483710159E-01  0.10070370157E+00  0.51100000000E-03 0.  1.
         11    1    4    4    0    0 -0.11210581517E-01 -0.25267716679E-01  0.14158078063E-01  0.31061985441E-01  0.51100000000E-03 0. -1.
</event>
<event>
 8    1  0.1123470E+005  0.1043930E+01  0.7957747E-01            NaN
         13   -1    0    0    0    0  0.00000000000E+00  0.00000000000E+00  0.74505805969E-08  0.10566000000E+00  0.10566000000E+00 0.  1.
     999900   -1    0    0    0    0 -0.00000000000E+00 -0.00000000000E+00 -0.74505805969E-08  0.93827000000E+00  0.93827000000E+00 0. -1.
     999902    2    1    2    0    0  0.21794603714E-01  0.67669028191E-02  0.71907116983E-02  0.10200029847E+01  0.10197223087E+01 0.  0.
     999903    2    3    3    0    0 -0.15215168171E-01 -0.77362082424E-01 -0.99945634319E-01  0.12875352133E+00  0.19285909287E-01 0.  0.
         14    1    1    2    0    0 -0.21794603714E-01 -0.67669028191E-02 -0.71907116983E-02  0.23927015266E-01  0.00000000000E+00 0.  1.
     999901    1    3    3    0    0  0.37009771885E-01  0.84128985243E-01  0.10713634602E+00  0.89124946340E+00  0.88000000000E+00 0.  1.
        -11    1    4    4    0    0 -0.53613825232E-02 -0.32865983761E-01 -0.57630392827E-01  0.66561555042E-01  0.51100000000E-03 0. -1.
         11    1    4    4    0    0 -0.98537856481E-02 -0.44496098663E-01 -0.42315241492E-01  0.62191966293E-01  0.51100000000E-03 0.  1.
</event>
<event>
 8    1  0.1123470E+005  0.1043930E+01  0.7957747E-01            NaN
         13   -1    0    0    0    0  0.00000000000E+00  0.00000000000E+00  0.74505805969E-08  0.10566000000E+00  0.10566000000E+00 0. -1.
     999900   -1    0    0    0    0 -0.00000000000E+00 -0.00000000000E+00 -0.74505805969E-08  0.93827000000E+00  0.93827000000E+00 0. -1.
     999902    2    1    2    0    0  0.72196520978E-02 -0.20612867548E-01  0.77269803280E-02  0.10207627837E+01  0.10204998485E+01 0.  0.
     999903    2    3    3    0    0  0.47356844058E-01 -0.12195307654E+00  0.20622207239E-01  0.13394424591E+00  0.20014045667E-01 0.  0.
         14    1    1    2    0    0 -0.72196520978E-02  0.20612867548E-01 -0.77269803280E-02  0.23167216275E-01  0.00000000000E+00 0. -1.
     999901    1    3    3    0    0 -0.40137191960E-01  0.10134020899E+00 -0.12895226911E-01  0.88681853782E+00  0.88000000000E+00 0.  1.
        -11    1    4    4    0    0  0.88707368954E-02 -0.10952512346E-01  0.67759740639E-02  0.15646803037E-01  0.51100000000E-03 0. -1.
         11    1    4    4    0    0  0.38486107163E-01 -0.11100056419E+00  0.13846233175E-01  0.11829744287E+00  0.51100000000E-03 0.  1.
</event>
<event>
 8    1  0.1123470E+005  0.1043930E+01  0.7957747E-01            NaN
         13   -1    0    0    0    0  0.00000000000E+00  0.00000000000E+00  0.74505805969E-08  0.10566000000E+00  0.10566000000E+00 0.  1.
     999900   -1    0    0    0    0 -0.00000000000E+00 -0.00000000000E+00 -0.74505805969E-08  0.93827000000E+00  0.93827000000E+00 0.  1.
     999902    2    1    2    0    0 -0.15433012299E-01 -0.54082392116E-02  0.16857979565E-01  0.10204434422E+01  0.10201731228E+01 0.  0.
     999903    2    3    3    0    0  0.56080084265E-01 -0.16991912924E-01  0.11649408671E+00  0.13186274342E+00  0.19575747996E-01 0.  0.
         14    1    1    2    0    0  0.15433012299E-01  0.54082392116E-02 -0.16857979565E-01  0.23486557751E-01  0.00000000000E+00 0. -1.
     999901    1    3    3    0    0 -0.71513096564E-01  0.11583673712E-01 -0.99636107143E-01  0.88858069882E+00  0.88000000000E+00 0.  1.
        -11    1    4    4    0    0  0.49149474789E-01 -0.16505860941E-01  0.84664088437E-01  0.99279319646E-01  0.51100000000E-03 0.  1.
         11    1    4    4    0    0  0.69306094756E-02 -0.48605198296E-03  0.31829998271E-01  0.32583423779E-01  0.51100000000E-03 0. -1.
</event>
<event>
 8    1  0.1123470E+005  0.1043930E+01  0.7957747E-01            NaN
         13   -1    0    0    0    0  0.00000000000E+00  0.00000000000E+00  0.74505805969E-08  0.10566000000E+00  0.10566000000E+00 0. -1.
     999900   -1    0    0    0    0 -0.00000000000E+00 -0.00000000000E+00 -0.74505805969E-08  0.93827000000E+00  0.93827000000E+00 0.  1.
     999902    2    1    2    0    0 -0.17457362920E-01  0.17050412892E-01  0.25886031520E-02  0.10193907057E+01  0.10190953016E+01 0.  0.
     999903    2    3    3    0    0 -0.46474986629E-01 -0.11620642265E+00  0.21655496051E-01  0.12868146405E+00  0.20642229360E-01 0.  0.
         14    1    1    2    0    0  0.17457362920E-01 -0.17050412892E-01 -0.25886031520E-02  0.24539294329E-01  0.00000000000E+00 0. -1.
     999901    1    3    3    0    0  0.29017623710E-01  0.13325683554E+00 -0.19066892899E-01  0.89070924162E+00  0.88000000000E+00 0. -1.
        -11    1    4    4    0    0 -0.87187868649E-02 -0.48621557580E-01  0.97720584345E-02  0.50356999046E-01  0.51100000000E-03 0. -1.
         11    1    4    4    0    0 -0.37756199765E-01 -0.67584865072E-01  0.11883437616E-01  0.78324465003E-01  0.51100000000E-03 0.  1.
</event>
<event>
 8    1  0.1123470E+005  0.1043930E+01  0.7957747E-01            NaN
         13   -1    0    0    0    0  0.00000000000E+00  0.00000000000E+00  0.74505805969E-08  0.10566000000E+00  0.10566000000E+00 0.  1.
     999900   -1    0    0    0    0 -0.00000000000E+00 -0.00000000000E+00 -0.74505805969E-08  0.93827000000E+00  0.93827000000E+00 0.  1.
     999902    2    1    2    0    0 -0.17400486575E-01 -0.27179610866E-02  0.17703149977E-01  0.10189587012E+01  0.10186526734E+01 0.  0.
     999903    2    3    3    0    0  0.76622967112E-01  0.95915617006E-01 -0.27822806094E-01  0.12730764542E+00  0.19032692088E-01 0.  0.
         14    1    1    2    0    0  0.17400486575E-01  0.27179610866E-02 -0.17703149977E-01  0.24971298817E-01  0.00000000000E+00 0. -1.
     999901    1    3    3    0    0 -0.94023453687E-01 -0.98633578093E-01  0.45525956071E-01  0.89165105576E+00  0.88000000000E+00 0. -1.
        -11    1    4    4    0    0  0.20304077642E-01  0.18318972669E-01  0.41368334109E-03  0.27354571527E-01  0.51100000000E-03 0.  1.
         11    1    4    4    0    0  0.56318889470E-01  0.77596644337E-01 -0.28236489435E-01  0.99953073890E-01  0.51100000000E-03 0. -1.
</event>
<event>
 8    1  0.1123470E+005  0.1043930E+01  0.7957747E-01            NaN
         13   -1    0    0    0    0  0.00000000000E+00  0.00000000000E+00  0.74505805969E-08  0.10566000000E+00  0.10566000000E+00 0. -1.
     999900   -1    0    0    0    0 -0.00000000000E+00 -0.00000000000E+00 -0.74505805969E-08  0.93827000000E+00  0.93827000000E+00 0.  1.
     999902    2    1    2    0    0 -0.84054743518E-02 -0.53651619441E-02  0.21630836821E-01  0.10201113085E+01  0.10198331980E+01 0.  0.
     999903    2    3    3    0    0  0.71808590858E-02  0.44242462455E-01 -0.11785516002E+00  0.12760909929E+00  0.19628633567E-01 0.  0.
         14    1    1    2    0    0  0.84054743518E-02  0.53651619441E-02 -0.21630836821E-01  0.23818691470E-01  0.00000000000E+00 0.  1.
     999901    1    3    3    0    0 -0.15586333438E-01 -0.49607624399E-01  0.13948599684E+00  0.89250220924E+00  0.88000000000E+00 0. -1.
        -11    1    4    4    0    0  0.10409025638E-01  0.10955281371E-01 -0.29824358075E-01  0.33438293321E-01  0.51100000000E-03 0. -1.
         11    1    4    4    0    0 -0.32281665519E-02  0.33287181084E-01 -0.88030801947E-01  0.94170805966E-01  0.51100000000E-03 0.  1.
</event>
<event>
 8    1  0.1123470E+005  0.1043930E+01  0.7957747E-01            NaN
         13   -1    0    0    0    0  0.00000000000E+00  0.00000000000E+00  0.74505805969E-08  0.10566000000E+00  0.10566000000E+00 0. -1.
     999900   -1    0    0    0    0 -0.00000000000E+00 -0.00000000000E+00 -0.74505805969E-08  0.93827000000E+00  0.93827000000E+00 0. -1.
     999902    2    1    2    0    0 -0.74631722879E-03 -0.21692784928E-01 -0.27730949153E-02  0.10220479534E+01  0.10218136793E+01 0.  0.
     999903    2    3    3    0    0 -0.73873651306E-01  0.47855975334E-01  0.94708898854E-01  0.13093214941E+00  0.20638350076E-01 0.  0.
         14    1    1    2    0    0  0.74631722879E-03  0.21692784928E-01  0.27730949153E-02  0.21882046585E-01  0.00000000000E+00 0. -1.
     999901    1    3    3    0    0  0.73127334077E-01 -0.69548760262E-01 -0.97481993769E-01  0.89111580401E+00  0.88000000000E+00 0. -1.
        -11    1    4    4    0    0 -0.52363764343E-01  0.31983830690E-01  0.51446525598E-01  0.80074561247E-01  0.51100000000E-03 0. -1.
         11    1    4    4    0    0 -0.21509886962E-01  0.15872144644E-01  0.43262373256E-01  0.50857588160E-01  0.51100000000E-03 0.  1.
</event>
<event>
 8    1  0.1123470E+005  0.1043930E+01  0.7957747E-01            NaN
         13   -1    0    0    0    0  0.00000000000E+00  0.00000000000E+00  0.74505805969E-08  0.10566000000E+00  0.10566000000E+00 0.  1.
     999900   -1    0    0    0    0 -0.00000000000E+00 -0.00000000000E+00 -0.74505805969E-08  0.93827000000E+00  0.93827000000E+00 0. -1.
     999902    2    1    2    0    0  0.23362885156E-01 -0.18789890506E-02  0.60418502086E-02  0.10197254765E+01  0.10194381730E+01 0.  0.
     999903    2    3    3    0    0 -0.70521636224E-01  0.52666934041E-01 -0.90563955204E-01  0.12780494042E+00  0.19625638780E-01 0.  0.
         14    1    1    2    0    0 -0.23362885156E-01  0.18789890506E-02 -0.60418502086E-02  0.24204523474E-01  0.00000000000E+00 0.  1.
     999901    1    3    3    0    0  0.93884521381E-01 -0.54545923092E-01  0.96605805412E-01  0.89192053610E+00  0.88000000000E+00 0.  1.
        -11    1    4    4    0    0 -0.31575697481E-01  0.17371581661E-01 -0.25444640059E-01  0.44119013470E-01  0.51100000000E-03 0. -1.
         11    1    4    4    0    0 -0.38945938744E-01  0.35295352380E-01 -0.65119315145E-01  0.83685926954E-01  0.51100000000E-03 0.  1.
</event>
<event>
 8    1  0.1123470E+005  0.1043930E+01  0.7957747E-01            NaN
         13   -1    0    0    0    0  0.00000000000E+00  0.00000000000E+00  0.74505805969E-08  0.10566000000E+00  0.10566000000E+00 0. -1.
     999900   -1    0    0    0    0 -0.00000000000E+00 -0.00000000000E+00 -0.74505805969E-08  0.93827000000E+00  0.93827000000E+00 0. -1.
     999902    2    1    2    0    0 -0.10275790281E-01 -0.18946212774E-01 -0.82969464424E-02  0.10208347588E+01  0.10205734734E+01 0.  0.
     999903    2    3    3    0    0 -0.39839631069E-01 -0.12268376248E+00 -0.28014355256E-01  0.13402910024E+00  0.23248523180E-01 0.  0.
         14    1    1    2    0    0  0.10275790281E-01  0.18946212774E-01  0.82969464424E-02  0.23095241169E-01  0.00000000000E+00 0.  1.
     999901    1    3    3    0    0  0.29563840787E-01  0.10373754971E+00  0.19717408813E-01  0.88680565859E+00  0.88000000000E+00 0.  1.
        -11    1    4    4    0    0 -0.27772476892E-01 -0.76993878290E-01 -0.28780035722E-01  0.86763583052E-01  0.51100000000E-03 0. -1.
         11    1    4    4    0    0 -0.12067154176E-01 -0.45689884191E-01  0.76568046581E-03  0.47265517186E-01  0.51100000000E-03 0.  1.
</event>
<event>
 8    1  0.1123470E+005  0.1043930E+01  0.7957747E-01            NaN
         13   -1    0    0    0    0  0.00000000000E+00  0.00000000000E+00  0.74505805969E-08  0.10566000000E+00  0.10566000000E+00 0. -1.
     999900   -1    0    0    0    0 -0.00000000000E+00 -0.00000000000E+00 -0.74505805969E-08  0.93827000000E+00  0.93827000000E+00 0. -1.
     999902    2    1    2    0    0  0.64055430261E-02  0.23149187145E-01 -0.19391266796E-02  0.10198327790E+01  0.10195480475E+01 0.  0.
     999903    2    3    3    0    0 -0.92089891670E-01 -0.46084544683E-01  0.73220802930E-01  0.12846098493E+00  0.23164741736E-01 0.  0.
         14    1    1    2    0    0 -0.64055430261E-02 -0.23149187145E-01  0.19391266796E-02  0.24097220986E-01  0.00000000000E+00 0.  1.
     999901    1    3    3    0    0  0.98495434696E-01  0.69233731829E-01 -0.75159929610E-01  0.89137179409E+00  0.88000000000E+00 0. -1.
        -11    1    4    4    0    0 -0.18982188285E-01 -0.38007619427E-02  0.52904545336E-02  0.20075340436E-01  0.51100000000E-03 0. -1.
         11    1    4    4    0    0 -0.73107703385E-01 -0.42283782740E-01  0.67930348397E-01  0.10838564449E+00  0.51100000000E-03 0.  1.
</event>
<event>
 8    1  0.1123470E+005  0.1043930E+01  0.7957747E-01            NaN
         13   -1    0    0    0    0  0.00000000000E+00  0.00000000000E+00  0.74505805969E-08  0.10566000000E+00  0.10566000000E+00 0.  1.
     999900   -1    0    0    0    0 -0.00000000000E+00 -0.00000000000E+00 -0.74505805969E-08  0.93827000000E+00  0.93827000000E+00 0.  1.
     999902    2    1    2    0    0 -0.10878431991E-01 -0.15376121127E-01 -0.29533281029E-01  0.10089017247E+01  0.10082934642E+01 0.  0.
     999903    2    3    3    0    0  0.11514378510E+00 -0.23749890477E-01 -0.12043203252E-01  0.11971241861E+00  0.19075530926E-01 0.  0.
         14    1    1    2    0    0  0.10878431991E-01  0.15376121127E-01  0.29533281029E-01  0.35028275319E-01  0.00000000000E+00 0.  1.
     999901    1    3    3    0    0 -0.12602221709E+00  0.83737693500E-02 -0.17490077776E-01  0.88918930607E+00  0.88000000000E+00 0.  1.
        -11    1    4    4    0    0  0.10372856751E+00 -0.15771194423E-01 -0.81275964471E-02  0.10523623538E+00  0.51100000000E-03 0.  1.
         11    1    4    4    0    0  0.11415217587E-01 -0.79786960543E-02 -0.39156068054E-02  0.14476183231E-01  0.51100000000E-03 0. -1.
</event>
<event>
 8    1  0.1123470E+005  0.1043930E+01  0.7957747E-01            NaN
         13   -1    0    0    0    0  0.00000000000E+00  0.00000000000E+00  0.74505805969E-08  0.10566000000E+00  0.10566000000E+00 0. -1.
     999900   -1    0    0    0    0 -0.00000000000E+00 -0.00000000000E+00 -0.74505805969E-08  0.93827000000E+00  0.93827000000E+00 0.  1.
     999902    2    1    2    0    0 -0.56528729267E-02 -0.11183673643E-01  0.20005443785E-01  0.10203239137E+01  0.10200508034E+01 0.  0.
     999903    2    3    3    0    0 -0.28685579840E-01 -0.56611228823E-03 -0.12354261396E+00  0.12833216315E+00  0.19575077593E-01 0.  0.
         14    1    1    2    0    0  0.56528729267E-02  0.11183673643E-01 -0.20005443785E-01  0.23606086281E-01  0.00000000000E+00 0.  1.
     999901    1    3    3    0    0  0.23032706913E-01 -0.10617561355E-01  0.14354805774E+00  0.89199175057E+00  0.88000000000E+00 0. -1.
        -11    1    4    4    0    0 -0.11812093737E-01  0.92929129514E-02 -0.47967355171E-01  0.50269394990E-01  0.51100000000E-03 0.  1.
         11    1    4    4    0    0 -0.16873486103E-01 -0.98590252396E-02 -0.75575258785E-01  0.78062768163E-01  0.51100000000E-03 0. -1.
</event>
<event>
 8    1  0.1123470E+005  0.1043930E+01  0.7957747E-01            NaN
         13   -1    0    0    0    0  0.00000000000E+00  0.00000000000E+00  0.74505805969E-08  0.10566000000E+00  0.10566000000E+00 0.  1.
     999900   -1    0    0    0    0 -0.00000000000E+00 -0.00000000000E+00 -0.74505805969E-08  0.93827000000E+00  0.93827000000E+00 0.  1.
     999902    2    1    2    0    0  0.50609966502E-02  0.15007146129E-01  0.17202904256E-01  0.10205469284E+01  0.10202790133E+01 0.  0.
     999903    2    3    3    0    0  0.17457181603E-01 -0.39210509685E-01  0.12363861677E+00  0.13239053424E+00  0.19963184648E-01 0.  0.
         14    1    1    2    0    0 -0.50609966502E-02 -0.15007146129E-01 -0.17202904256E-01  0.23383071587E-01  0.00000000000E+00 0. -1.
     999901    1    3    3    0    0 -0.12396184953E-01  0.54217655814E-01 -0.10643571251E+00  0.88815639417E+00  0.88000000000E+00 0.  1.
        -11    1    4    4    0    0  0.97490142384E-02 -0.36378542893E-01  0.86389941276E-01  0.94243963925E-01  0.51100000000E-03 0. -1.
         11    1    4    4    0    0  0.77081673649E-02 -0.28319667922E-02  0.37248675494E-01  0.38146570319E-01  0.51100000000E-03 0.  1.
</event>
<event>
 8    1  0.1123470E+005  0.1043930E+01  0.7957747E-01            NaN
         13   -1    0    0    0    0  0.00000000000E+00  0.00000000000E+00  0.74505805969E-08  0.10566000000E+00  0.10566000000E+00 0.  1.
     999900   -1    0    0    0    0 -0.00000000000E+00 -0.00000000000E+00 -0.74505805969E-08  0.93827000000E+00  0.93827000000E+00 0.  1.
     999902    2    1    2    0    0  0.72328137868E-02 -0.13856400992E-01  0.17453332607E-01  0.10205006965E+01  0.10202317086E+01 0.  0.
     999903    2    3    3    0    0 -0.53483090909E-01  0.36499658043E-01  0.11301736076E+00  0.13181929282E+00  0.20266624659E-01 0.  0.
         14    1    1    2    0    0 -0.72328137868E-02  0.13856400992E-01 -0.17453332607E-01  0.23429303507E-01  0.00000000000E+00 0. -1.
     999901    1    3    3    0    0  0.60715904696E-01 -0.50356059035E-01 -0.95564028152E-01  0.88868140368E+00  0.88000000000E+00 0.  1.
        -11    1    4    4    0    0 -0.23046641113E-01  0.27254366950E-01  0.53160585770E-01  0.64033250619E-01  0.51100000000E-03 0.  1.
         11    1    4    4    0    0 -0.30436449797E-01  0.92452910929E-02  0.59856774990E-01  0.67786042197E-01  0.51100000000E-03 0. -1.
</event>
<event>
 8    1  0.1123470E+005  0.1043930E+01  0.7957747E-01            NaN
         13   -1    0    0    0    0  0.00000000000E+00  0.00000000000E+00  0.74505805969E-08  0.10566000000E+00  0.10566000000E+00 0. -1.
     999900   -1    0    0    0    0 -0.00000000000E+00 -0.00000000000E+00 -0.74505805969E-08  0.93827000000E+00  0.93827000000E+00 0. -1.
     999902    2    1    2    0    0  0.17604446327E-01  0.61893194061E-02 -0.16568684237E-01  0.10189751307E+01  0.10186695104E+01 0.  0.
     999903    2    3    3    0    0 -0.87292473703E-01  0.33432337136E-01  0.83094620033E-01  0.12674291872E+00  0.20526919783E-01 0.  0.
         14    1    1    2    0    0 -0.17604446327E-01 -0.61893194061E-02  0.16568684237E-01  0.24954869316E-01  0.00000000000E+00 0. -1.
     999901    1    3    3    0    0  0.10489692003E+00 -0.27243017730E-01 -0.99663304271E-01  0.89223221196E+00  0.88000000000E+00 0. -1.
        -11    1    4    4    0    0 -0.80347952958E-01  0.25991356099E-01  0.67484437389E-01  0.10810066858E+00  0.51100000000E-03 0.  1.
         11    1    4    4    0    0 -0.69445207454E-02  0.74409810376E-02  0.15610182645E-01  0.18642250143E-01  0.51100000000E-03 0. -1.
</event>
<event>
 8    1  0.1123470E+005  0.1043930E+01  0.7957747E-01            NaN
         13   -1    0    0    0    0  0.00000000000E+00  0.00000000000E+00  0.74505805969E-08  0.10566000000E+00  0.10566000000E+00 0.  1.
     999900   -1    0    0    0    0 -0.00000000000E+00 -0.00000000000E+00 -0.74505805969E-08  0.93827000000E+00  0.93827000000E+00 0. -1.
     999902    2    1    2    0    0  0.11248801027E-01 -0.15994673868E-01  0.16254801946E-01  0.10185019898E+01  0.10181845213E+01 0.  0.
     999903    2    3    3    0    0 -0.71004613336E-01 -0.45065613423E-01 -0.93585877404E-01  0.12739272683E+00  0.19950583243E-01 0.  0.
         14    1    1    2    0    0 -0.11248801027E-01  0.15994673868E-01 -0.16254801946E-01  0.25428010205E-01  0.00000000000E+00 0. -1.
     999901    1    3    3    0    0  0.82253414362E-01  0.29070939556E-01  0.10984067935E+00  0.89110926296E+00  0.88000000000E+00 0.  1.
        -11    1    4    4    0    0 -0.57329724132E-01 -0.27511556458E-01 -0.62529378712E-01  0.89183896141E-01  0.51100000000E-03 0.  1.
         11    1    4    4    0    0 -0.13674889204E-01 -0.17554056966E-01 -0.31056498692E-01  0.38208830690E-01  0.51100000000E-03 0. -1.
</event>
<event>
 8    1  0.1123470E+005  0.1043930E+01  0.7957747E-01            NaN
         13   -1    0    0    0    0  0.00000000000E+00  0.00000000000E+00  0.74505805969E-08  0.10566000000E+00  0.10566000000E+00 0. -1.
     999900   -1    0    0    0    0 -0.00000000000E+00 -0.00000000000E+00 -0.74505805969E-08  0.93827000000E+00  0.93827000000E+00 0. -1.
     999902    2    1    2    0    0 -0.22092954384E-01  0.18204393019E-02 -0.54180523384E-02  0.10211096599E+01  0.10208546270E+01 0.  0.
     999903    2    3    3    0    0 -0.17746252562E-01  0.12476682592E+00  0.32952301900E-01  0.13172392135E+00  0.19586906941E-01 0.  0.
         14    1    1    2    0    0  0.22092954384E-01 -0.18204393019E-02  0.54180523384E-02  0.22820340134E-01  0.00000000000E+00 0.  1.
     999901    1    3    3    0    0 -0.43467018216E-02 -0.12294638662E+00 -0.38370354238E-01  0.88938573852E+00  0.88000000000E+00 0.  1.
        -11    1    4    4    0    0 -0.11612439064E-01  0.97147198475E-01  0.33514957202E-01  0.10342117960E+00  0.51100000000E-03 0. -1.
         11    1    4    4    0    0 -0.61338134983E-02  0.27619627447E-01 -0.56265530227E-03  0.28302741746E-01  0.51100000000E-03 0.  1.
</event>
<event>
 8    1  0.1123470E+005  0.1043930E+01  0.7957747E-01            NaN
         13   -1    0    0    0    0  0.00000000000E+00  0.00000000000E+00  0.74505805969E-08  0.10566000000E+00  0.10566000000E+00 0. -1.
     999900   -1    0    0    0    0 -0.00000000000E+00 -0.00000000000E+00 -0.74505805969E-08  0.93827000000E+00  0.93827000000E+00 0. -1.
     999902    2    1    2    0    0  0.11036933660E-01 -0.56844887454E-02 -0.19958801823E-01  0.10204250838E+01  0.10201543366E+01 0.  0.
     999903    2    3    3    0    0 -0.11599530578E-01  0.37047304086E-01  0.12045193233E+00  0.12798259828E+00  0.19074213262E-01 0.  0.
         14    1    1    2    0    0 -0.11036933660E-01  0.56844887454E-02  0.19958801823E-01  0.23504916233E-01  0.00000000000E+00 0. -1.
     999901    1    3    3    0    0  0.22636464237E-01 -0.42731792832E-01 -0.14041073415E+00  0.89244248548E+00  0.88000000000E+00 0. -1.
        -11    1    4    4    0    0  0.50241640489E-02  0.79756379234E-02  0.20518203062E-01  0.22585632658E-01  0.51100000000E-03 0.  1.
         11    1    4    4    0    0 -0.16623694627E-01  0.29071666163E-01  0.99933729268E-01  0.10539696563E+00  0.51100000000E-03 0. -1.
</event>
<event>
 8    1  0.1123470E+005  0.1043930E+01  0.7957747E-01            NaN
         13   -1    0    0    0    0  0.00000000000E+00  0.00000000000E+00  0.74505805969E-08  0.10566000000E+00  0.10566000000E+00 0.  1.
     999900   -1    0    0    0    0 -0.00000000000E+00 -0.00000000000E+00 -0.74505805969E-08  0.93827000000E+00  0.93827000000E+00 0. -1.
     999902    2    1    2    0    0  0.57114334938E-02 -0.20802443049E-01 -0.11113568474E-01  0.10196632838E+01  0.10193744841E+01 0.  0.
     999903    2    3    3    0    0  0.27647944782E-02  0.77413582446E-01 -0.10295171434E+00  0.12944459419E+00  0.12503625215E-01 0.  0.
         14    1    1    2    0    0 -0.57114334938E-02  0.20802443049E-01  0.11113568474E-01  0.24266716169E-01  0.00000000000E+00 0.  1.
     999901    1    3    3    0    0  0.29466390156E-02 -0.98216025495E-01  0.91838145871E-01  0.89021868964E+00  0.88000000000E+00 0. -1.
        -11    1    4    4    0    0  0.45678424607E-02  0.13681621839E-01 -0.23424016464E-01  0.27513589901E-01  0.51100000000E-03 0. -1.
         11    1    4    4    0    0 -0.18030479824E-02  0.63731960606E-01 -0.79527697881E-01  0.10193100429E+00  0.51100000000E-03 0.  1.
</event>
<event>
 8    1  0.1123470E+005  0.1043930E+01  0.7957747E-01            NaN
         13   -1    0    0    0    0  0.00000000000E+00  0.00000000000E+00  0.74505805969E-08  0.10566000000E+00  0.10566000000E+00 0. -1.
     999900   -1    0    0    0    0 -0.00000000000E+00 -0.00000000000E+00 -0.74505805969E-08  0.93827000000E+00  0.93827000000E+00 0. -1.
     999902    2    1    2    0    0  0.49262246856E-02 -0.17680251326E-01  0.15828384104E-01  0.10196937313E+01  0.10194056646E+01 0.  0.
     999903    2    3    3    0    0 -0.10837419764E+00  0.38714299292E-01  0.56562696626E-01  0.12970686891E+00  0.19513316150E-01 0.  0.
         14    1    1    2    0    0 -0.49262246856E-02  0.17680251326E-01 -0.15828384104E-01  0.24236268688E-01  0.00000000000E+00 0.  1.
     999901    1    3    3    0    0  0.11330042233E+00 -0.56394550618E-01 -0.40734312523E-01  0.88998686241E+00  0.88000000000E+00 0. -1.
        -11    1    4    4    0    0 -0.34832909309E-01  0.11980957615E-01  0.28496963575E-01  0.46574810470E-01  0.51100000000E-03 0. -1.
         11    1    4    4    0    0 -0.73541288334E-01  0.26733341678E-01  0.28065733051E-01  0.83132058435E-01  0.51100000000E-03 0.  1.
</event>
<event>
 8    1  0.1123470E+005  0.1043930E+01  0.7957747E-01            NaN
         13   -1    0    0    0    0  0.00000000000E+00  0.00000000000E+00  0.74505805969E-08  0.10566000000E+00  0.10566000000E+00 0. -1.
     999900   -1    0    0    0    0 -0.00000000000E+00 -0.00000000000E+00 -0.74505805969E-08  0.93827000000E+00  0.93827000000E+00 0. -1.
     999902    2    1    2    0    0 -0.25077258839E-02 -0.23335069849E-01  0.56522375685E-03  0.10204537641E+01  0.10201836849E+01 0.  0.
     999903    2    3    3    0    0 -0.73432557251E-01 -0.10922760235E+00 -0.24685879104E-02  0.13342667159E+00  0.21761736733E-01 0.  0.
         14    1    1    2    0    0  0.25077258839E-02  0.23335069849E-01 -0.56522375685E-03  0.23476235896E-01  0.00000000000E+00 0. -1.
     999901    1    3    3    0    0  0.70924831367E-01  0.85892532500E-01  0.30338116673E-02  0.88702709252E+00  0.88000000000E+00 0. -1.
        -11    1    4    4    0    0 -0.55267077034E-01 -0.68414927254E-01 -0.84355122769E-02  0.88354236251E-01  0.51100000000E-03 0.  1.
         11    1    4    4    0    0 -0.18165480217E-01 -0.40812675094E-01  0.59669243664E-02  0.45072435338E-01  0.51100000000E-03 0. -1.
</event>
<event>
 8    1  0.1123470E+005  0.1043930E+01  0.7957747E-01            NaN
         13   -1    0    0    0    0  0.00000000000E+00  0.00000000000E+00  0.74505805969E-08  0.10566000000E+00  0.10566000000E+00 0. -1.
     999900   -1    0    0    0    0 -0.00000000000E+00 -0.00000000000E+00 -0.74505805969E-08  0.93827000000E+00  0.93827000000E+00 0.  1.
     999902    2    1    2    0    0 -0.24846882927E-02  0.23087456676E-01 -0.40492417656E-02  0.10203588165E+01  0.10200865227E+01 0.  0.
     999903    2    3    3    0    0 -0.40833248776E-01  0.88985877103E-02  0.12200035436E+00  0.13043722628E+00  0.19576630632E-01 0.  0.
         14    1    1    2    0    0  0.24846882927E-02 -0.23087456676E-01  0.40492417656E-02  0.23571183478E-01  0.00000000000E+00 0. -1.
     999901    1    3    3    0    0  0.38348560483E-01  0.14188868965E-01 -0.12604959613E+00  0.88992159024E+00  0.88000000000E+00 0.  1.
        -11    1    4    4    0    0 -0.41324774836E-02 -0.48981963618E-02  0.24944481928E-01  0.25759619513E-01  0.51100000000E-03 0. -1.
         11    1    4    4    0    0 -0.36700771292E-01  0.13796784072E-01  0.97055872432E-01  0.10467760677E+00  0.51100000000E-03 0.  1.
</event>
<event>
 8    1  0.1123470E+005  0.1043930E+01  0.7957747E-01            NaN
         13   -1    0    0    0    0  0.00000000000E+00  0.00000000000E+00  0.74505805969E-08  0.10566000000E+00  0.10566000000E+00 0. -1.
     999900   -1    0    0    0    0 -0.00000000000E+00 -0.00000000000E+00 -0.74505805969E-08  0.93827000000E+00  0.93827000000E+00 0.  1.
     999902    2    1    2    0    0 -0.14767376581E-02 -0.19925631333E-01  0.12386951450E-01  0.10204215312E+01  0.10201507013E+01 0.  0.
     999903    2    3    3    0    0  0.55752955389E-01 -0.11506108305E+00 -0.28476685260E-01  0.13250496490E+00  0.19979971277E-01 0.  0.
         14    1    1    2    0    0  0.14767376581E-02  0.19925631333E-01 -0.12386951450E-01  0.23508468779E-01  0.00000000000E+00 0. -1.
     999901    1    3    3    0    0 -0.57229693047E-01  0.95135451719E-01  0.40863636710E-01  0.88791656632E+00  0.88000000000E+00 0. -1.
        -11    1    4    4    0    0  0.29238914267E-01 -0.49949901688E-01 -0.21931908462E-01  0.61896498414E-01  0.51100000000E-03 0.  1.
         11    1    4    4    0    0  0.26514041122E-01 -0.65111181364E-01 -0.65447767979E-02  0.70608466487E-01  0.51100000000E-03 0. -1.
</event>
<event>
 8    1  0.1123470E+005  0.1043930E+01  0.7957747E-01            NaN
         13   -1    0    0    0    0  0.00000000000E+00  0.00000000000E+00  0.74505805969E-08  0.10566000000E+00  0.10566000000E+00 0.  1.
     999900   -1    0    0    0    0 -0.00000000000E+00 -0.00000000000E+00 -0.74505805969E-08  0.93827000000E+00  0.93827000000E+00 0.  1.
     999902    2    1    2    0    0 -0.68898614609E-02  0.29117681660E-02  0.22209066025E-01  0.10204951713E+01  0.10202260550E+01 0.  0.
     999903    2    3    3    0    0 -0.12442663384E+00  0.34649214725E-01  0.18023197189E-01  0.13210354597E+00  0.21070261749E-01 0.  0.
         14    1    1    2    0    0  0.68898614609E-02 -0.29117681660E-02 -0.22209066025E-01  0.23434828750E-01  0.00000000000E+00 0. -1.
     999901    1    3    3    0    0  0.11753677238E+00 -0.31737446559E-01  0.41858688366E-02  0.88839162528E+00  0.88000000000E+00 0. -1.
        -11    1    4    4    0    0 -0.96577077579E-01  0.32033271734E-01  0.68647493298E-02  0.10198356885E+00  0.51100000000E-03 0.  1.
         11    1    4    4    0    0 -0.27849556262E-01  0.26159429905E-02  0.11158447859E-01  0.30119977114E-01  0.51100000000E-03 0. -1.
</event>
<event>
 8    1  0.1123470E+005  0.1043930E+01  0.7957747E-01            NaN
         13   -1    0    0    0    0  0.00000000000E+00  0.00000000000E+00  0.74505805969E-08  0.10566000000E+00  0.10566000000E+00 0.  1.
     999900   -1    0    0    0    0 -0.00000000000E+00 -0.00000000000E+00 -0.74505805969E-08  0.93827000000E+00  0.93827000000E+00 0. -1.
     999902    2    1    2    0    0 -0.85697558507E-02  0.19441447606E-01 -0.10574572474E-01  0.10201974868E+01  0.10199214087E+01 0.  0.
     999903    2    3    3    0    0  0.39330788057E-01 -0.10512829718E+00  0.57009754793E-01  0.12757229965E+00  0.20632734660E-01 0.  0.
         14    1    1    2    0    0  0.85697558507E-02 -0.19441447606E-01  0.10574572474E-01  0.23732513212E-01  0.00000000000E+00 0.  1.
     999901    1    3    3    0    0 -0.47900543908E-01  0.12456974478E+00 -0.67584327267E-01  0.89262518714E+00  0.88000000000E+00 0. -1.
        -11    1    4    4    0    0  0.15861999253E-01 -0.18514471827E-01  0.12434281575E-01  0.27372635361E-01  0.51100000000E-03 0.  1.
         11    1    4    4    0    0  0.23468788805E-01 -0.86613825351E-01  0.44575473218E-01  0.10019966429E+00  0.51100000000E-03 0. -1.
</event>
<event>
 8    1  0.1123470E+005  0.1043930E+01  0.7957747E-01            NaN
         13   -1    0    0    0    0  0.00000000000E+00  0.00000000000E+00  0.74505805969E-08  0.10566000000E+00  0.10566000000E+00 0.  1.
     999900   -1    0    0    0    0 -0.00000000000E+00 -0.00000000000E+00 -0.74505805969E-08  0.93827000000E+00  0.93827000000E+00 0. -1.
     999902    2    1    2    0    0 -0.22893333591E-01  0.12157862745E-02 -0.53447114963E-02  0.10203896347E+01  0.10201180607E+01 0.  0.
     999903    2    3    3    0    0 -0.34843537020E-01 -0.54238455783E-01 -0.11344412001E+00  0.13196211233E+00  0.19711635317E-01 0.  0.
         14    1    1    2    0    0  0.22893333591E-01 -0.12157862745E-02  0.53447114963E-02  0.23540365336E-01  0.00000000000E+00 0.  1.
     999901    1    3    3    0    0  0.11950203429E-01  0.55454242058E-01  0.10809940852E+00  0.88842752234E+00  0.88000000000E+00 0.  1.
        -11    1    4    4    0    0 -0.21498128174E-01 -0.20854281609E-01 -0.65573794758E-01  0.72091984689E-01  0.51100000000E-03 0.  1.
         11    1    4    4    0    0 -0.13345408846E-01 -0.33384174174E-01 -0.47870325253E-01  0.59870127638E-01  0.51100000000E-03 0. -1.
</event>
<event>
 8    1  0.1123470E+005  0.1043930E+01  0.7957747E-01            NaN
         13   -1    0    0    0    0  0.00000000000E+00  0.00000000000E+00  0.74505805969E-08  0.10566000000E+00  0.10566000000E+00 0.  1.
     999900   -1    0    0    0    0 -0.00000000000E+00 -0.00000000000E+00 -0.74505805969E-08  0.93827000000E+00  0.93827000000E+00 0.  1.
     999902    2    1    2    0    0 -0.18092772962E-01 -0.47114694469E-02 -0.19135523361E-01  0.10171771566E+01  0.10168252815E+01 0.  0.
     999903    2    3    3    0    0  0.21344359593E-01 -0.12490250862E+00 -0.22149559172E-02  0.12797106182E+00  0.17761426940E-01 0.  0.
         14    1    1    2    0    0  0.18092772962E-01  0.47114694469E-02  0.19135523361E-01  0.26752843440E-01  0.00000000000E+00 0. -1.
     999901    1    3    3    0    0 -0.39437132555E-01  0.12019103918E+00 -0.16920567444E-01  0.88920609474E+00  0.88000000000E+00 0. -1.
        -11    1    4    4    0    0  0.12591755528E-01 -0.42471821841E-01  0.58387066863E-02  0.44685115805E-01  0.51100000000E-03 0. -1.
         11    1    4    4    0    0  0.87526040651E-02 -0.82430686781E-01 -0.80536626035E-02  0.83285946014E-01  0.51100000000E-03 0.  1.
</event>
<event>
 8    1  0.1123470E+005  0.1043930E+01  0.7957747E-01            NaN
         13   -1    0    0    0    0  0.00000000000E+00  0.00000000000E+00  0.74505805969E-08  0.10566000000E+00  0.10566000000E+00 0. -1.
     999900   -1    0    0    0    0 -0.00000000000E+00 -0.00000000000E+00 -0.74505805969E-08  0.93827000000E+00  0.93827000000E+00 0.  1.
     999902    2    1    2    0    0 -0.14805260781E-01  0.17600987678E-01  0.50485986040E-02  0.10203826252E+01  0.10201108875E+01 0.  0.
     999903    2    3    3    0    0  0.71155516347E-01 -0.82630538411E-01 -0.63891673387E-01  0.12786462807E+00  0.19398551457E-01 0.  0.
         14    1    1    2    0    0  0.14805260781E-01 -0.17600987678E-01 -0.50485986040E-02  0.23547374840E-01  0.00000000000E+00 0.  1.
     999901    1    3    3    0    0 -0.85960777128E-01  0.10023152609E+00  0.68940271991E-01  0.89251799709E+00  0.88000000000E+00 0. -1.
        -11    1    4    4    0    0  0.36134356837E-01 -0.48487184292E-01 -0.45213330931E-01  0.75506325559E-01  0.51100000000E-03 0.  1.
         11    1    4    4    0    0  0.35021159510E-01 -0.34143354119E-01 -0.18678342456E-01  0.52358302511E-01  0.51100000000E-03 0. -1.
</event>
<event>
 8    1  0.1123470E+005  0.1043930E+01  0.7957747E-01            NaN
         13   -1    0    0    0    0  0.00000000000E+00  0.00000000000E+00  0.74505805969E-08  0.10566000000E+00  0.10566000000E+00 0.  1.
     999900   -1    0    0    0    0 -0.00000000000E+00 -0.00000000000E+00 -0.74505805969E-08  0.93827000000E+00  0.93827000000E+00 0.  1.
     999902    2    1    2    0    0 -0.31031754806E-02 -0.21291498042E-01 -0.92419697175E-02  0.10205126647E+01  0.10202439548E+01 0.  0.
     999903    2    3    3    0    0  0.17061309743E-01  0.42490577086E-01 -0.12102565192E+00  0.13092267424E+00  0.19924878345E-01 0.  0.
         14    1    1    2    0    0  0.31031754806E-02  0.21291498042E-01  0.92419697175E-02  0.23417335271E-01  0.00000000000E+00 0.  1.
     999901    1    3    3    0    0 -0.20164485224E-01 -0.63782075128E-01  0.11178368220E+00  0.88958999049E+00  0.88000000000E+00 0. -1.
        -11    1    4    4    0    0  0.45945645864E-02  0.34654623533E-01 -0.79046878234E-01  0.86433344465E-01  0.51100000000E-03 0. -1.
         11    1    4    4    0    0  0.12466745157E-01  0.78359535528E-02 -0.41978773683E-01  0.44489329775E-01  0.51100000000E-03 0.  1.
</event>
<event>
 8    1  0.1123470E+005  0.1043930E+01  0.7957747E-01            NaN
         13   -1    0    0    0    0  0.00000000000E+00  0.00000000000E+00  0.74505805969E-08  0.10566000000E+00  0.10566000000E+00 0. -1.
     999900   -1    0    0    0    0 -0.00000000000E+00 -0.00000000000E+00 -0.74505805969E-08  0.93827000000E+00  0.93827000000E+00 0. -1.
     999902    2    1    2    0    0 -0.18287090615E-01  0.11341933616E-01 -0.33215883433E-02  0.10221563900E+01  0.10219244569E+01 0.  0.
     999903    2    3    3    0    0 -0.10393066428E+00 -0.70627123199E-01 -0.40202039332E-01  0.13344163510E+00  0.20017305095E-01 0.  0.
         14    1    1    2    0    0  0.18287090615E-01 -0.11341933616E-01  0.33215883433E-02  0.21773609954E-01  0.00000000000E+00 0. -1.
     999901    1    3    3    0    0  0.85643573668E-01  0.81969056815E-01  0.36880450989E-01  0.88871475494E+00  0.88000000000E+00 0.  1.
        -11    1    4    4    0    0 -0.89995226526E-01 -0.68454962260E-01 -0.36970209674E-01  0.11896335646E+00  0.51100000000E-03 0. -1.
         11    1    4    4    0    0 -0.13935437756E-01 -0.21721609390E-02 -0.32318296581E-02  0.14478278646E-01  0.51100000000E-03 0.  1.
</event>
<event>
 8    1  0.1123470E+005  0.1043930E+01  0.7957747E-01            NaN
         13   -1    0    0    0    0  0.00000000000E+00  0.00000000000E+00  0.74505805969E-08  0.10566000000E+00  0.10566000000E+00 0.  1.
     999900   -1    0    0    0    0 -0.00000000000E+00 -0.00000000000E+00 -0.74505805969E-08  0.93827000000E+00  0.93827000000E+00 0. -1.
     999902    2    1    2    0    0  0.75797013454E-02  0.22321798062E-01  0.26353909844E-02  0.10202095483E+01  0.10199337541E+01 0.  0.
     999903    2    3    3    0    0  0.94218432327E-01  0.65479123801E-01 -0.63394932286E-01  0.13244334710E+00  0.18912802764E-01 0.  0.
         14    1    1    2    0    0 -0.75797013454E-02 -0.22321798062E-01 -0.26353909844E-02  0.23720451658E-01  0.00000000000E+00 0. -1.
     999901    1    3    3    0    0 -0.86638730982E-01 -0.43157325739E-01  0.66030323270E-01  0.88776620124E+00  0.88000000000E+00 0.  1.
        -11    1    4    4    0    0  0.85136084855E-01  0.52001206288E-01 -0.57502788673E-01  0.11514820983E+00  0.51100000000E-03 0. -1.
         11    1    4    4    0    0  0.90823474718E-02  0.13477917513E-01 -0.58921436134E-02  0.17295137278E-01  0.51100000000E-03 0.  1.
</event>
<event>
 8    1  0.1123470E+005  0.1043930E+01  0.7957747E-01            NaN
         13   -1    0    0    0    0  0.00000000000E+00  0.00000000000E+00  0.74505805969E-08  0.10566000000E+00  0.10566000000E+00 0. -1.
     999900   -1    0    0    0    0 -0.00000000000E+00 -0.00000000000E+00 -0.74505805969E-08  0.93827000000E+00  0.93827000000E+00 0.  1.
     999902    2    1    2    0    0 -0.88595820378E-03 -0.23165618770E-01 -0.41835978530E-02  0.10203729776E+01  0.10201010146E+01 0.  0.
     999903    2    3    3    0    0 -0.11846801854E+00 -0.53039753596E-01  0.13972532598E-01  0.13186431136E+00  0.18576276941E-01 0.  0.
         14    1    1    2    0    0  0.88595820378E-03  0.23165618770E-01  0.41835978530E-02  0.23557022433E-01  0.00000000000E+00 0. -1.
     999901    1    3    3    0    0  0.11758206034E+00  0.29874134826E-01 -0.18156130451E-01  0.88850866620E+00  0.88000000000E+00 0.  1.
        -11    1    4    4    0    0 -0.42374523099E-01 -0.27962899602E-01  0.16263735876E-02  0.50797934742E-01  0.51100000000E-03 0. -1.
         11    1    4    4    0    0 -0.76093495444E-01 -0.25076853994E-01  0.12346159011E-01  0.81066376621E-01  0.51100000000E-03 0.  1.
</event>
<event>
 8    1  0.1123470E+005  0.1043930E+01  0.7957747E-01            NaN
         13   -1    0    0    0    0  0.00000000000E+00  0.00000000000E+00  0.74505805969E-08  0.10566000000E+00  0.10566000000E+00 0.  1.
     999900   -1    0    0    0    0 -0.00000000000E+00 -0.00000000000E+00 -0.74505805969E-08  0.93827000000E+00  0.93827000000E+00 0. -1.
     999902    2    1    2    0    0  0.15447308296E-01 -0.58031142993E-02  0.20202901691E-01  0.10178445116E+01  0.10175101951E+01 0.  0.
     999903    2    3    3    0    0 -0.84406186505E-01 -0.71006339189E-01  0.63521853354E-01  0.12874456640E+00  0.19334761381E-01 0.  0.
         14    1    1    2    0    0 -0.15447308296E-01  0.58031142993E-02 -0.20202901691E-01  0.26085488416E-01  0.00000000000E+00 0. -1.
     999901    1    3    3    0    0  0.99853494801E-01  0.65203224889E-01 -0.43318951663E-01  0.88909994519E+00  0.88000000000E+00 0. -1.
        -11    1    4    4    0    0 -0.53629991198E-01 -0.37964026553E-01  0.46441855442E-01  0.80464590510E-01  0.51100000000E-03 0. -1.
         11    1    4    4    0    0 -0.30776195307E-01 -0.33042312636E-01  0.17079997912E-01  0.48279975887E-01  0.51100000000E-03 0.  1.
</event>
<event>
 8    1  0.1123470E+005  0.1043930E+01  0.7957747E-01            NaN
         13   -1    0    0    0    0  0.00000000000E+00  0.00000000000E+00  0.74505805969E-08  0.10566000000E+00  0.10566000000E+00 0. -1.
     999900   -1    0    0    0    0 -0.00000000000E+00 -0.00000000000E+00 -0.74505805969E-08  0.93827000000E+00  0.93827000000E+00 0.  1.
     999902    2    1    2    0    0  0.19143199540E-01  0.12298987260E-01  0.23663357247E-02  0.10210536646E+01  0.10207973645E+01 0.  0.
     999903    2    3    3    0    0 -0.76355520806E-01  0.42171649302E-01  0.94856663824E-01  0.13056680770E+00  0.21006928373E-01 0.  0.
         14    1    1    2    0    0 -0.19143199540E-01 -0.12298987260E-01 -0.23663357247E-02  0.22876335393E-01  0.00000000000E+00 0. -1.
     999901    1    3    3    0    0  0.95498720346E-01 -0.29872662042E-01 -0.92490328100E-01  0.89048685690E+00  0.88000000000E+00 0.  1.
        -11    1    4    4    0    0 -0.52596282475E-01  0.18319103131E-01  0.64635717684E-01  0.85322890195E-01  0.51100000000E-03 0.  1.
         11    1    4    4    0    0 -0.23759238331E-01  0.23852546171E-01  0.30220946141E-01  0.45243917509E-01  0.51100000000E-03 0. -1.
</event>
<event>
 7    1  0.1123470E+005  0.1043930E+01  0.7957747E-01            NaN
         13   -1    0    0    0    0  0.00000000000E+00  0.00000000000E+00  0.74505805969E-08  0.10566000000E+00  0.10566000000E+00 0. -1.
     999900   -1    0    0    0    0 -0.00000000000E+00 -0.00000000000E+00 -0.74505805969E-08  0.93827000000E+00  0.93827000000E+00 0.  1.
     999903    2    1    2    0    0 -0.58794977960E-01 -0.54816663540E-01  0.66227067428E-01  0.10593826395E+00  0.19369441763E-01 0.  0.
         14    1    1    2    0    0 -0.15525034605E-01 -0.32405518839E-01  0.28027716961E-01  0.45570794033E-01  0.00000000000E+00 0. -1.
     999901    1    1    2    0    0  0.74320012565E-01  0.87222182379E-01 -0.94254784389E-01  0.89242094201E+00  0.88000000000E+00 0.  1.
        -11    1    3    3    0    0 -0.55728932614E-01 -0.44211143452E-01  0.61011817017E-01  0.93717885553E-01  0.51100000000E-03 0. -1.
         11    1    3    3    0    0 -0.30660453456E-02 -0.10605520088E-01  0.52152504102E-02  0.12220378400E-01  0.51100000000E-03 0.  1.
</event>
<event>
 8    1  0.1123470E+005  0.1043930E+01  0.7957747E-01            NaN
         13   -1    0    0    0    0  0.00000000000E+00  0.00000000000E+00  0.74505805969E-08  0.10566000000E+00  0.10566000000E+00 0. -1.
     999900   -1    0    0    0    0 -0.00000000000E+00 -0.00000000000E+00 -0.74505805969E-08  0.93827000000E+00  0.93827000000E+00 0. -1.
     999902    2    1    2    0    0 -0.20644978957E-01 -0.80839366717E-02 -0.70616060136E-02  0.10206613200E+01  0.10203960499E+01 0.  0.
     999903    2    3    3    0    0 -0.94599960874E-01  0.55513598392E-01 -0.72300764227E-01  0.13287185536E+00  0.19915251288E-01 0.  0.
         14    1    1    2    0    0  0.20644978957E-01  0.80839366717E-02  0.70616060136E-02  0.23268679974E-01  0.00000000000E+00 0.  1.
     999901    1    3    3    0    0  0.73954981917E-01 -0.63597535064E-01  0.65239158214E-01  0.88778946467E+00  0.88000000000E+00 0.  1.
        -11    1    4    4    0    0 -0.23397344569E-01  0.43725567656E-02 -0.14978127159E-01  0.28127573656E-01  0.51100000000E-03 0. -1.
         11    1    4    4    0    0 -0.71202616305E-01  0.51141041627E-01 -0.57322637068E-01  0.10474428170E+00  0.51100000000E-03 0.  1.
</event>
<event>
 8    1  0.1123470E+005  0.1043930E+01  0.7957747E-01            NaN
         13   -1    0    0    0    0  0.00000000000E+00  0.00000000000E+00  0.74505805969E-08  0.10566000000E+00  0.10566000000E+00 0. -1.
     999900   -1    0    0    0    0 -0.00000000000E+00 -0.00000000000E+00 -0.74505805969E-08  0.93827000000E+00  0.93827000000E+00 0. -1.
     999902    2    1    2    0    0  0.13308626064E-01 -0.19574806982E-01 -0.49075677856E-04  0.10202594486E+01  0.10199848271E+01 0.  0.
     999903    2    3    3    0    0 -0.36316380402E-01 -0.40717002940E-01  0.11708589532E+00  0.13086064312E+00  0.20943906563E-01 0.  0.
         14    1    1    2    0    0 -0.13308626064E-01  0.19574806982E-01  0.49075677856E-04  0.23670551420E-01  0.00000000000E+00 0. -1.
     999901    1    3    3    0    0  0.49625006465E-01  0.21142195958E-01 -0.11713497100E+00  0.88939880546E+00  0.88000000000E+00 0. -1.
        -11    1    4    4    0    0 -0.37416228685E-01 -0.39159464759E-01  0.10057666182E+00  0.11423381230E+00  0.51100000000E-03 0.  1.
         11    1    4    4    0    0  0.10998482835E-02 -0.15575381810E-02  0.16509233499E-01  0.16626830821E-01  0.51100000000E-03 0. -1.
</event>
<event>
 8    1  0.1123470E+005  0.1043930E+01  0.7957747E-01            NaN
         13   -1    0    0    0    0  0.00000000000E+00  0.00000000000E+00  0.74505805969E-08  0.10566000000E+00  0.10566000000E+00 0.  1.
     999900   -1    0    0    0    0 -0.00000000000E+00 -0.00000000000E+00 -0.74505805969E-08  0.93827000000E+00  0.93827000000E+00 0. -1.
     999902    2    1    2    0    0 -0.15321042960E-01  0.15544676982E-01  0.81125730899E-02  0.10206451298E+01  0.10203794861E+01 0.  0.
     999903    2    3    3    0    0 -0.92698461635E-01  0.88014073947E-01  0.34270081848E-01  0.13389640905E+00  0.20355044701E-01 0.  0.
         14    1    1    2    0    0  0.15321042960E-01 -0.15544676982E-01 -0.81125730899E-02  0.23284870238E-01  0.00000000000E+00 0. -1.
     999901    1    3    3    0    0  0.77377418675E-01 -0.72469396965E-01 -0.26157508758E-01  0.88674872071E+00  0.88000000000E+00 0. -1.
        -11    1    4    4    0    0 -0.68357966492E-01  0.54243966520E-01  0.17440997688E-01  0.88992522203E-01  0.51100000000E-03 0. -1.
         11    1    4    4    0    0 -0.24340495144E-01  0.33770107427E-01  0.16829084160E-01  0.44903886849E-01  0.51100000000E-03 0.  1.
</event>
<event>
 8    1  0.1123470E+005  0.1043930E+01  0.7957747E-01            NaN
         13   -1    0    0    0    0  0.00000000000E+00  0.00000000000E+00  0.74505805969E-08  0.10566000000E+00  0.10566000000E+00 0. -1.
     999900   -1    0    0    0    0 -0.00000000000E+00 -0.00000000000E+00 -0.74505805969E-08  0.93827000000E+00  0.93827000000E+00 0. -1.
     999902    2    1    2    0    0 -0.47061011133E-02 -0.23056011208E-01  0.73663081462E-04  0.10203984793E+01  0.10201271117E+01 0.  0.
     999903    2    3    3    0    0 -0.11886558791E+00 -0.22729039661E-01 -0.47598268837E-01  0.13174494251E+00  0.21106810465E-01 0.  0.
         14    1    1    2    0    0  0.47061011133E-02  0.23056011208E-01 -0.73663081462E-04  0.23531520706E-01  0.00000000000E+00 0. -1.
     999901    1    3    3    0    0  0.11415948680E+00 -0.32697154690E-03  0.47671931919E-01  0.88865353678E+00  0.88000000000E+00 0.  1.
        -11    1    4    4    0    0 -0.72332440518E-01 -0.37864871586E-02 -0.31490703949E-01  0.78982561318E-01  0.51100000000E-03 0. -1.
         11    1    4    4    0    0 -0.46533147396E-01 -0.18942552502E-01 -0.16107564889E-01  0.52762381196E-01  0.51100000000E-03 0.  1.
</event>
<event>
 8    1  0.1123470E+005  0.1043930E+01  0.7957747E-01            NaN
         13   -1    0    0    0    0  0.00000000000E+00  0.00000000000E+00  0.74505805969E-08  0.10566000000E+00  0.10566000000E+00 0.  1.
     999900   -1    0    0    0    0 -0.00000000000E+00 -0.00000000000E+00 -0.74505805969E-08  0.93827000000E+00  0.93827000000E+00 0. -1.
     999902    2    1    2    0    0  0.18264876940E-01 -0.76638752222E-02  0.14646031524E-01  0.10192957362E+01  0.10189980132E+01 0.  0.
     999903    2    3    3    0    0  0.10144405317E+00 -0.38548688529E-01 -0.69529847282E-01  0.13083739412E+00  0.22519474385E-01 0.  0.
         14    1    1    2    0    0 -0.18264876940E-01  0.76638752222E-02 -0.14646031524E-01  0.24634263790E-01  0.00000000000E+00 0. -1.
     999901    1    3    3    0    0 -0.83179176231E-01  0.30884813307E-01  0.84175878806E-01  0.88845834209E+00  0.88000000000E+00 0. -1.
        -11    1    4    4    0    0  0.64420466046E-01 -0.16967221735E-01 -0.32160962797E-01  0.73976156348E-01  0.51100000000E-03 0. -1.
         11    1    4    4    0    0  0.37023587125E-01 -0.21581466795E-01 -0.37368884484E-01  0.56861237774E-01  0.51100000000E-03 0.  1.
</event>
<event>
 8    1  0.1123470E+005  0.1043930E+01  0.7957747E-01            NaN
         13   -1    0    0    0    0  0.00000000000E+00  0.00000000000E+00  0.74505805969E-08  0.10566000000E+00  0.10566000000E+00 0.  1.
     999900   -1    0    0    0    0 -0.00000000000E+00 -0.00000000000E+00 -0.74505805969E-08  0.93827000000E+00  0.93827000000E+00 0.  1.
     999902    2    1    2    0    0 -0.23577337421E-01  0.43508309458E-02 -0.20785367802E-02  0.10198646539E+01  0.10195806841E+01 0.  0.
     999903    2    3    3    0    0  0.17321861717E-01  0.10357378085E+00 -0.73984924097E-01  0.13043311247E+00  0.22615323607E-01 0.  0.
         14    1    1    2    0    0  0.23577337421E-01 -0.43508309458E-02  0.20785367802E-02  0.24065346142E-01  0.00000000000E+00 0. -1.
     999901    1    3    3    0    0 -0.40899199138E-01 -0.99222949906E-01  0.71906387317E-01  0.88943154139E+00  0.88000000000E+00 0. -1.
        -11    1    4    4    0    0  0.69705742303E-02  0.82062971303E-01 -0.65005199517E-01  0.10492310160E+00  0.51100000000E-03 0.  1.
         11    1    4    4    0    0  0.10351287487E-01  0.21510809549E-01 -0.89797245804E-02  0.25510010871E-01  0.51100000000E-03 0. -1.
</event>
<event>
 8    1  0.1123470E+005  0.1043930E+01  0.7957747E-01            NaN
         13   -1    0    0    0    0  0.00000000000E+00  0.00000000000E+00  0.74505805969E-08  0.10566000000E+00  0.10566000000E+00 0.  1.
     999900   -1    0    0    0    0 -0.00000000000E+00 -0.00000000000E+00 -0.74505805969E-08  0.93827000000E+00  0.93827000000E+00 0.  1.
     999902    2    1    2    0    0  0.20032256921E-01 -0.19091901885E-03 -0.13167758267E-01  0.10199567310E+01  0.10196749558E+01 0.  0.
     999903    2    3    3    0    0 -0.91946173873E-01  0.85390670485E-01 -0.18343140406E-01  0.12872715230E+00  0.22103018862E-01 0.  0.
         14    1    1    2    0    0 -0.20032256921E-01  0.19091901885E-03  0.13167758267E-01  0.23973268972E-01  0.00000000000E+00 0.  1.
     999901    1    3    3    0    0  0.11197843079E+00 -0.85581589504E-01  0.51753821390E-02  0.89122957873E+00  0.88000000000E+00 0. -1.
        -11    1    4    4    0    0 -0.29868864570E-01  0.21561475915E-01 -0.14538405772E-01  0.39606472674E-01  0.51100000000E-03 0. -1.
         11    1    4    4    0    0 -0.62077309303E-01  0.63829194570E-01 -0.38047346342E-02  0.89120679622E-01  0.51100000000E-03 0.  1.
</event>
<event>
 8    1  0.1123470E+005  0.1043930E+01  0.7957747E-01            NaN
         13   -1    0    0    0    0  0.00000000000E+00  0.00000000000E+00  0.74505805969E-08  0.10566000000E+00  0.10566000000E+00 0. -1.
     999900   -1    0    0    0    0 -0.00000000000E+00 -0.00000000000E+00 -0.74505805969E-08  0.93827000000E+00  0.93827000000E+00 0. -1.
     999902    2    1    2    0    0  0.12064455700E-01 -0.19501601957E-01 -0.61292481014E-02  0.10201932931E+01  0.10199171163E+01 0.  0.
     999903    2    3    3    0    0 -0.45939465022E-01 -0.43237244987E-02  0.11920752867E+00  0.12929255210E+00  0.19416490326E-01 0.  0.
         14    1    1    2    0    0 -0.12064455700E-01  0.19501601957E-01  0.61292481014E-02  0.23736706859E-01  0.00000000000E+00 0.  1.
     999901    1    3    3    0    0  0.58003920722E-01 -0.15177877458E-01 -0.12533677677E+00  0.89090074104E+00  0.88000000000E+00 0. -1.
        -11    1    4    4    0    0 -0.35257999296E-01 -0.10732245128E-01  0.78576407435E-01  0.86791822923E-01  0.51100000000E-03 0. -1.
         11    1    4    4    0    0 -0.10681465726E-01  0.64085206288E-02  0.40631121232E-01  0.42500729173E-01  0.51100000000E-03 0.  1.
</event>
<event>
 8    1  0.1123470E+005  0.1043930E+01  0.7957747E-01            NaN
         13   -1    0    0    0    0  0.00000000000E+00  0.00000000000E+00  0.74505805969E-08  0.10566000000E+00  0.10566000000E+00 0.  1.
     999900   -1    0    0    0    0 -0.00000000000E+00 -0.00000000000E+00 -0.74505805969E-08  0.93827000000E+00  0.93827000000E+00 0.  1.
     999902    2    1    2    0    0 -0.18405124501E-01  0.90278811446E-02  0.12255830896E-01  0.10200457659E+01  0.10197661045E+01 0.  0.
     999903    2    3    3    0    0  0.12469385531E-01 -0.10585130490E+00 -0.68816541874E-01  0.12834896075E+00  0.19435919483E-01 0.  0.
         14    1    1    2    0    0  0.18405124501E-01 -0.90278811446E-02 -0.12255830896E-01  0.23884234063E-01  0.00000000000E+00 0. -1.
     999901    1    3    3    0    0 -0.30874510031E-01  0.11487918604E+00  0.81072372769E-01  0.89169680519E+00  0.88000000000E+00 0. -1.
        -11    1    4    4    0    0  0.15211451775E-01 -0.78269181760E-01 -0.43620635554E-01  0.90887150057E-01  0.51100000000E-03 0.  1.
         11    1    4    4    0    0 -0.27420662446E-02 -0.27582123137E-01 -0.25195906320E-01  0.37461810692E-01  0.51100000000E-03 0. -1.
</event>
<event>
 8    1  0.1123470E+005  0.1043930E+01  0.7957747E-01            NaN
         13   -1    0    0    0    0  0.00000000000E+00  0.00000000000E+00  0.74505805969E-08  0.10566000000E+00  0.10566000000E+00 0.  1.
     999900   -1    0    0    0    0 -0.00000000000E+00 -0.00000000000E+00 -0.74505805969E-08  0.93827000000E+00  0.93827000000E+00 0. -1.
     999902    2    1    2    0    0  0.83547822015E-02  0.21294594937E-01  0.50923422296E-02  0.10204951092E+01  0.10202259915E+01 0.  0.
     999903    2    3    3    0    0 -0.77703499578E-02  0.51128136845E-01 -0.11889996934E+00  0.13115594246E+00  0.19753830449E-01 0.  0.
         14    1    1    2    0    0 -0.83547822015E-02 -0.21294594937E-01 -0.50923422296E-02  0.23434890838E-01  0.00000000000E+00 0.  1.
     999901    1    3    3    0    0  0.16125132159E-01 -0.29833541907E-01  0.12399231157E+00  0.88933916671E+00  0.88000000000E+00 0.  1.
        -11    1    4    4    0    0  0.59837409915E-02  0.19514613210E-01 -0.52652520798E-01  0.56472775320E-01  0.51100000000E-03 0. -1.
         11    1    4    4    0    0 -0.13754090949E-01  0.31613523635E-01 -0.66247448540E-01  0.74683167136E-01  0.51100000000E-03 0.  1.
</event>
<event>
 8    1  0.1123470E+005  0.1043930E+01  0.7957747E-01            NaN
         13   -1    0    0    0    0  0.00000000000E+00  0.00000000000E+00  0.74505805969E-08  0.10566000000E+00  0.10566000000E+00 0. -1.
     999900   -1    0    0    0    0 -0.00000000000E+00 -0.00000000000E+00 -0.74505805969E-08  0.93827000000E+00  0.93827000000E+00 0.  1.
     999902    2    1    2    0    0 -0.11242277616E-01 -0.21953742794E-02  0.20537297962E-01  0.10204142801E+01  0.10201432811E+01 0.  0.
     999903    2    3    3    0    0  0.11723760060E+00 -0.35177225701E-01 -0.27033087553E-01  0.12920284436E+00  0.31312856252E-01 0.  0.
         14    1    1    2    0    0  0.11242277616E-01  0.21953742794E-02 -0.20537297962E-01  0.23515719887E-01  0.00000000000E+00 0.  1.
     999901    1    3    3    0    0 -0.12847987822E+00  0.32981851422E-01  0.47570385515E-01  0.89121143575E+00  0.88000000000E+00 0.  1.
        -11    1    4    4    0    0  0.10371027474E+00 -0.35605101637E-01 -0.14242768454E-01  0.11057423716E+00  0.51100000000E-03 0.  1.
         11    1    4    4    0    0  0.13527325862E-01  0.42787593614E-03 -0.12790319098E-01  0.18628607206E-01  0.51100000000E-03 0. -1.
</event>
<event>
 8    1  0.1123470E+005  0.1043930E+01  0.7957747E-01            NaN
         13   -1    0    0    0    0  0.00000000000E+00  0.00000000000E+00  0.74505805969E-08  0.10566000000E+00  0.10566000000E+00 0. -1.
     999900   -1    0    0    0    0 -0.00000000000E+00 -0.00000000000E+00 -0.74505805969E-08  0.93827000000E+00  0.93827000000E+00 0. -1.
     999902    2    1    2    0    0 -0.14568349695E-01  0.73113985506E-02 -0.17080744552E-01  0.10203197227E+01  0.10200465143E+01 0.  0.
     999903    2    3    3    0    0  0.33192086678E-01  0.11257647539E+00  0.51812395075E-01  0.13009050478E+00  0.21536892057E-01 0.  0.
         14    1    1    2    0    0  0.14568349695E-01 -0.73113985506E-02  0.17080744552E-01  0.23610277340E-01  0.00000000000E+00 0. -1.
     999901    1    3    3    0    0 -0.47760436372E-01 -0.10526507684E+00 -0.68893139627E-01  0.89022921788E+00  0.88000000000E+00 0. -1.
        -11    1    4    4    0    0  0.13210212160E-01  0.32180897074E-01  0.56263530388E-02  0.35242542634E-01  0.51100000000E-03 0.  1.
         11    1    4    4    0    0  0.19981874518E-01  0.80395578320E-01  0.46186042036E-01  0.94847962143E-01  0.51100000000E-03 0. -1.
</event>
<event>
 8    1  0.1123470E+005  0.1043930E+01  0.7957747E-01            NaN
         13   -1    0    0    0    0  0.00000000000E+00  0.00000000000E+00  0.74505805969E-08  0.10566000000E+00  0.10566000000E+00 0.  1.
     999900   -1    0    0    0    0 -0.00000000000E+00 -0.00000000000E+00 -0.74505805969E-08  0.93827000000E+00  0.93827000000E+00 0. -1.
     999902    2    1    2    0    0  0.86137660851E-02 -0.21162827979E-01  0.61764125367E-02  0.10202612373E+01  0.10199866578E+01 0.  0.
     999903    2    3    3    0    0  0.18111239120E-01  0.11412542243E+00  0.52966332593E-01  0.12864337675E+00  0.19775160373E-01 0.  0.
         14    1    1    2    0    0 -0.86137660851E-02  0.21162827979E-01 -0.61764125367E-02  0.23668762664E-01  0.00000000000E+00 0. -1.
     999901    1    3    3    0    0 -0.94974730353E-02 -0.13528825040E+00 -0.46789920057E-01  0.89161786058E+00  0.88000000000E+00 0. -1.
        -11    1    4    4    0    0  0.21157262136E-01  0.76236337507E-01  0.38240501616E-01  0.87876083108E-01  0.51100000000E-03 0.  1.
         11    1    4    4    0    0 -0.30460230153E-02  0.37889084919E-01  0.14725830977E-01  0.40767293645E-01  0.51100000000E-03 0. -1.
</event>
<event>
 8    1  0.1123470E+005  0.1043930E+01  0.7957747E-01            NaN
         13   -1    0    0    0    0  0.00000000000E+00  0.00000000000E+00  0.74505805969E-08  0.10566000000E+00  0.10566000000E+00 0.  1.
     999900   -1    0    0    0    0 -0.00000000000E+00 -0.00000000000E+00 -0.74505805969E-08  0.93827000000E+00  0.93827000000E+00 0.  1.
     999902    2    1    2    0    0  0.15454691119E-01  0.86146593315E-02  0.13410433905E-01  0.10217286584E+01  0.10214874212E+01 0.  0.
     999903    2    3    3    0    0 -0.71226082062E-01  0.29745480530E-02  0.10996182347E+00  0.13219645652E+00  0.17386713106E-01 0.  0.
         14    1    1    2    0    0 -0.15454691119E-01 -0.86146593315E-02 -0.13410433905E-01  0.22201341637E-01  0.00000000000E+00 0. -1.
     999901    1    3    3    0    0  0.86680773181E-01  0.56401112785E-02 -0.96551389565E-01  0.88953220185E+00  0.88000000000E+00 0.  1.
        -11    1    4    4    0    0 -0.12665348802E-01  0.13778027754E-02  0.33688505661E-01  0.36020632080E-01  0.51100000000E-03 0. -1.
         11    1    4    4    0    0 -0.58560733261E-01  0.15967452776E-02  0.76273317809E-01  0.96175824437E-01  0.51100000000E-03 0.  1.
</event>
<event>
 8    1  0.1123470E+005  0.1043930E+01  0.7957747E-01            NaN
         13   -1    0    0    0    0  0.00000000000E+00  0.00000000000E+00  0.74505805969E-08  0.10566000000E+00  0.10566000000E+00 0. -1.
     999900   -1    0    0    0    0 -0.00000000000E+00 -0.00000000000E+00 -0.74505805969E-08  0.93827000000E+00  0.93827000000E+00 0. -1.
     999902    2    1    2    0    0 -0.16369327386E-01  0.15553014180E-01 -0.25933484424E-02  0.10212016788E+01  0.10209487216E+01 0.  0.
     999903    2    3    3    0    0 -0.61535760621E-01 -0.10194351236E+00  0.50011484933E-01  0.13068906858E+00  0.19983855319E-01 0.  0.
         14    1    1    2    0    0  0.16369327386E-01 -0.15553014180E-01  0.25933484424E-02  0.22728321216E-01  0.00000000000E+00 0. -1.
     999901    1    3    3    0    0  0.45166433235E-01  0.11749652654E+00 -0.52604833375E-01  0.89051261021E+00  0.88000000000E+00 0.  1.
        -11    1    4    4    0    0 -0.45336770876E-01 -0.56188344900E-01  0.30143136566E-01  0.78239521338E-01  0.51100000000E-03 0.  1.
         11    1    4    4    0    0 -0.16198989745E-01 -0.45755167459E-01  0.19868348367E-01  0.52449547241E-01  0.51100000000E-03 0. -1.
</event>
<event>
 8    1  0.1123470E+005  0.1043930E+01  0.7957747E-01            NaN
         13   -1    0    0    0    0  0.00000000000E+00  0.00000000000E+00  0.74505805969E-08  0.10566000000E+00  0.10566000000E+00 0.  1.
     999900   -1    0    0    0    0 -0.00000000000E+00 -0.00000000000E+00 -0.74505805969E-08  0.93827000000E+00  0.93827000000E+00 0. -1.
     999902    2    1    2    0    0  0.74235206386E-02  0.84003090510E-03 -0.23318590366E-01  0.10194438617E+01  0.10191497516E+01 0.  0.
     999903    2    3    3    0    0  0.22559372827E-01 -0.88878163669E-02  0.12302154647E+00  0.12717755581E+00  0.21258203686E-01 0.  0.
         14    1    1    2    0    0 -0.74235206386E-02 -0.84003090510E-03  0.23318590366E-01  0.24486138267E-01  0.00000000000E+00 0.  1.
     999901    1    3    3    0    0 -0.15135852188E-01  0.97278472720E-02 -0.14634013684E+00  0.89226630592E+00  0.88000000000E+00 0. -1.
        -11    1    4    4    0    0  0.13596075152E-01  0.24077198389E-02  0.29817602027E-01  0.32863366931E-01  0.51100000000E-03 0.  1.
         11    1    4    4    0    0  0.89632976748E-02 -0.11295536206E-01  0.93203944443E-01  0.94314188881E-01  0.51100000000E-03 0. -1.
</event>
<event>
 8    1  0.1123470E+005  0.1043930E+01  0.7957747E-01            NaN
         13   -1    0    0    0    0  0.00000000000E+00  0.00000000000E+00  0.74505805969E-08  0.10566000000E+00  0.10566000000E+00 0. -1.
     999900   -1    0    0    0    0 -0.00000000000E+00 -0.00000000000E+00 -0.74505805969E-08  0.93827000000E+00  0.93827000000E+00 0.  1.
     999902    2    1    2    0    0 -0.20795671942E-01  0.12137646470E-01 -0.19842407833E-02  0.10197697093E+01  0.10194834675E+01 0.  0.
     999903    2    3    3    0    0 -0.11891643888E+00 -0.89691619702E-02  0.53729328340E-01  0.13231425465E+00  0.19966370649E-01 0.  0.
         14    1    1    2    0    0  0.20795671942E-01 -0.12137646470E-01  0.19842407833E-02  0.24160290661E-01  0.00000000000E+00 0. -1.
     999901    1    3    3    0    0  0.98120766942E-01  0.21106808440E-01 -0.55713569123E-01  0.88745545469E+00  0.88000000000E+00 0. -1.
        -11    1    4    4    0    0 -0.18144641072E-01  0.54998024401E-02  0.10806225068E-01  0.21829142167E-01  0.51100000000E-03 0. -1.
         11    1    4    4    0    0 -0.10077179781E+00 -0.14468964410E-01  0.42923103272E-01  0.11048511249E+00  0.51100000000E-03 0.  1.
</event>
<event>
 8    1  0.1123470E+005  0.1043930E+01  0.7957747E-01            NaN
         13   -1    0    0    0    0  0.00000000000E+00  0.00000000000E+00  0.74505805969E-08  0.10566000000E+00  0.10566000000E+00 0. -1.
     999900   -1    0    0    0    0 -0.00000000000E+00 -0.00000000000E+00 -0.74505805969E-08  0.93827000000E+00  0.93827000000E+00 0.  1.
     999902    2    1    2    0    0  0.16689530133E-01  0.15338535276E-01 -0.11477327287E-02  0.10212335604E+01  0.10209813203E+01 0.  0.
     999903    2    3    3    0    0  0.80936651758E-01 -0.34139847559E-01  0.96576339935E-01  0.13211838372E+00  0.20297957855E-01 0.  0.
         14    1    1    2    0    0 -0.16689530133E-01 -0.15338535276E-01  0.11477327287E-02  0.22696439608E-01  0.00000000000E+00 0.  1.
     999901    1    3    3    0    0 -0.64247121625E-01  0.49478382835E-01 -0.97724072664E-01  0.88911517667E+00  0.88000000000E+00 0.  1.
        -11    1    4    4    0    0  0.47510521290E-01 -0.10151690450E-01  0.58640486962E-01  0.76152966353E-01  0.51100000000E-03 0. -1.
         11    1    4    4    0    0  0.33426130469E-01 -0.23988157109E-01  0.37935852973E-01  0.55965417370E-01  0.51100000000E-03 0.  1.
</event>
<event>
 8    1  0.1123470E+005  0.1043930E+01  0.7957747E-01            NaN
         13   -1    0    0    0    0  0.00000000000E+00  0.00000000000E+00  0.74505805969E-08  0.10566000000E+00  0.10566000000E+00 0. -1.
     999900   -1    0    0    0    0 -0.00000000000E+00 -0.00000000000E+00 -0.74505805969E-08  0.93827000000E+00  0.93827000000E+00 0. -1.
     999902    2    1    2    0    0  0.99516044504E-02  0.45097633421E-02 -0.21343088380E-01  0.10199529314E+01  0.10196710658E+01 0.  0.
     999903    2    3    3    0    0  0.91701793980E-01  0.68892953051E-01 -0.64058105303E-01  0.13279293385E+00  0.19366580120E-01 0.  0.
         14    1    1    2    0    0 -0.99516044504E-02 -0.45097633421E-02  0.21343088380E-01  0.23977068589E-01  0.00000000000E+00 0. -1.
     999901    1    3    3    0    0 -0.81750189530E-01 -0.64383189709E-01  0.42715016923E-01  0.88715999756E+00  0.88000000000E+00 0.  1.
        -11    1    4    4    0    0  0.84214923672E-01  0.55504073132E-01 -0.53592300575E-01  0.11421581022E+00  0.51100000000E-03 0. -1.
         11    1    4    4    0    0  0.74868703080E-02  0.13388879919E-01 -0.10465804728E-01  0.18577123623E-01  0.51100000000E-03 0.  1.
</event>
<event>
 8    1  0.1123470E+005  0.1043930E+01  0.7957747E-01            NaN
         13   -1    0    0    0    0  0.00000000000E+00  0.00000000000E+00  0.74505805969E-08  0.10566000000E+00  0.10566000000E+00 0.  1.
     999900   -1    0    0    0    0 -0.00000000000E+00 -0.00000000000E+00 -0.74505805969E-08  0.93827000000E+00  0.93827000000E+00 0.  1.
     999902    2    1    2    0    0  0.96788786127E-02 -0.56427057318E-02  0.21027042276E-01  0.10201044396E+01  0.10198261668E+01 0.  0.
     999903    2    3    3    0    0 -0.52483304114E-01  0.98192327855E-02  0.11941247888E+00  0.13230778352E+00  0.19876994799E-01 0.  0.
         14    1    1    2    0    0 -0.96788786127E-02  0.56427057318E-02 -0.21027042276E-01  0.23825560351E-01  0.00000000000E+00 0. -1.
     999901    1    3    3    0    0  0.62162182727E-01 -0.15461938517E-01 -0.98385436609E-01  0.88779665613E+00  0.88000000000E+00 0.  1.
        -11    1    4    4    0    0 -0.22195958414E-01  0.10632359428E-01  0.71480457823E-01  0.75600427303E-01  0.51100000000E-03 0. -1.
         11    1    4    4    0    0 -0.30287345700E-01 -0.81312664291E-03  0.47932021062E-01  0.56707356213E-01  0.51100000000E-03 0.  1.
</event>
<event>
 8    1  0.1123470E+005  0.1043930E+01  0.7957747E-01            NaN
         13   -1    0    0    0    0  0.00000000000E+00  0.00000000000E+00  0.74505805969E-08  0.10566000000E+00  0.10566000000E+00 0.  1.
     999900   -1    0    0    0    0 -0.00000000000E+00 -0.00000000000E+00 -0.74505805969E-08  0.93827000000E+00  0.93827000000E+00 0. -1.
     999902    2    1    2    0    0 -0.14461661972E-03 -0.77652528213E-02  0.22320236969E-01  0.10202971194E+01  0.10200233815E+01 0.  0.
     999903    2    3    3    0    0 -0.11321670644E+00  0.55802581343E-01 -0.22612090959E-01  0.12965404776E+00  0.19155018689E-01 0.  0.
         14    1    1    2    0    0  0.14461661972E-03  0.77652528213E-02 -0.22320236969E-01  0.23632880562E-01  0.00000000000E+00 0. -1.
     999901    1    3    3    0    0  0.11307208982E+00 -0.63567834164E-01  0.44932327928E-01  0.89064307168E+00  0.88000000000E+00 0.  1.
        -11    1    4    4    0    0 -0.21092415600E-01  0.14789741831E-01 -0.11450526961E-01  0.28195782449E-01  0.51100000000E-03 0. -1.
         11    1    4    4    0    0 -0.92124290840E-01  0.41012839513E-01 -0.11161563999E-01  0.10145826531E+00  0.51100000000E-03 0.  1.
</event>
<event>
 8    1  0.1123470E+005  0.1043930E+01  0.7957747E-01            NaN
         13   -1    0    0    0    0  0.00000000000E+00  0.00000000000E+00  0.74505805969E-08  0.10566000000E+00  0.10566000000E+00 0. -1.
     999900   -1    0    0    0    0 -0.00000000000E+00 -0.00000000000E+00 -0.74505805969E-08  0.93827000000E+00  0.93827000000E+00 0. -1.
     999902    2    1    2    0    0  0.21833205648E-01  0.84114991242E-02 -0.10420329141E-02  0.10205093250E+01  0.10202405375E+01 0.  0.
     999903    2    3    3    0    0  0.10183610952E+00  0.66775896678E-01  0.51691739314E-01  0.13338604252E+00  0.17034871495E-01 0.  0.
         14    1    1    2    0    0 -0.21833205648E-01 -0.84114991242E-02  0.10420329141E-02  0.23420675033E-01  0.00000000000E+00 0. -1.
     999901    1    3    3    0    0 -0.80002903868E-01 -0.58364397554E-01 -0.52733772229E-01  0.88712328245E+00  0.88000000000E+00 0. -1.
        -11    1    4    4    0    0  0.23207248419E-01  0.22357796947E-01  0.18560580922E-01  0.37191447252E-01  0.51100000000E-03 0. -1.
         11    1    4    4    0    0  0.78628861097E-01  0.44418099730E-01  0.33131158393E-01  0.96194595267E-01  0.51100000000E-03 0.  1.
</event>
<event>
 8    1  0.1123470E+005  0.1043930E+01  0.7957747E-01            NaN
         13   -1    0    0    0    0  0.00000000000E+00  0.00000000000E+00  0.74505805969E-08  0.10566000000E+00  0.10566000000E+00 0.  1.
     999900   -1    0    0    0    0 -0.00000000000E+00 -0.00000000000E+00 -0.74505805969E-08  0.93827000000E+00  0.93827000000E+00 0.  1.
     999902    2    1    2    0    0  0.12383651227E-01 -0.10434083585E-01  0.17420218167E-01  0.10201457842E+01  0.10198684877E+01 0.  0.
     999903    2    3    3    0    0  0.60709365510E-01  0.63639790082E-02 -0.11207361279E+00  0.12919898347E+00  0.20143370014E-01 0.  0.
         14    1    1    2    0    0 -0.12383651227E-01  0.10434083585E-01 -0.17420218167E-01  0.23784215752E-01  0.00000000000E+00 0. -1.
     999901    1    3    3    0    0 -0.48325714283E-01 -0.16798062593E-01  0.12949383096E+00  0.89094680078E+00  0.88000000000E+00 0. -1.
        -11    1    4    4    0    0  0.19874871580E-01 -0.62008525097E-02 -0.46267326579E-01  0.50738424511E-01  0.51100000000E-03 0. -1.
         11    1    4    4    0    0  0.40834493930E-01  0.12564831518E-01 -0.65806286211E-01  0.78460558955E-01  0.51100000000E-03 0.  1.
</event>
<event>
 8    1  0.1123470E+005  0.1043930E+01  0.7957747E-01            NaN
         13   -1    0    0    0    0  0.00000000000E+00  0.00000000000E+00  0.74505805969E-08  0.10566000000E+00  0.10566000000E+00 0. -1.
     999900   -1    0    0    0    0 -0.00000000000E+00 -0.00000000000E+00 -0.74505805969E-08  0.93827000000E+00  0.93827000000E+00 0.  1.
     999902    2    1    2    0    0  0.13060092315E-01  0.70827586934E-02  0.18208343476E-01  0.10204294627E+01  0.10201588176E+01 0.  0.
     999903    2    3    3    0    0 -0.67930206996E-01 -0.10777974738E+00 -0.27875975976E-02  0.12902963465E+00  0.20245714339E-01 0.  0.
         14    1    1    2    0    0 -0.13060092315E-01 -0.70827586934E-02 -0.18208343476E-01  0.23500537316E-01  0.00000000000E+00 0.  1.
     999901    1    3    3    0    0  0.80990299311E-01  0.11486250607E+00  0.20995941074E-01  0.89139982804E+00  0.88000000000E+00 0.  1.
        -11    1    4    4    0    0 -0.49183825532E-01 -0.81743365075E-01 -0.10650092408E-01  0.95993291521E-01  0.51100000000E-03 0.  1.
         11    1    4    4    0    0 -0.18746381464E-01 -0.26036382304E-01  0.78624948102E-02  0.33036343126E-01  0.51100000000E-03 0. -1.
</event>
<event>
 8    1  0.1123470E+005  0.1043930E+01  0.7957747E-01            NaN
         13   -1    0    0    0    0  0.00000000000E+00  0.00000000000E+00  0.74505805969E-08  0.10566000000E+00  0.10566000000E+00 0. -1.
     999900   -1    0    0    0    0 -0.00000000000E+00 -0.00000000000E+00 -0.74505805969E-08  0.93827000000E+00  0.93827000000E+00 0.  1.
     999902    2    1    2    0    0 -0.85377062188E-02  0.20216558161E-01  0.85955670808E-02  0.10203612617E+01  0.10200890250E+01 0.  0.
     999903    2    3    3    0    0 -0.85390883620E-01 -0.75641213610E-01 -0.57578012982E-01  0.12936515286E+00  0.20172233215E-01 0.  0.
         14    1    1    2    0    0  0.85377062188E-02 -0.20216558161E-01 -0.85955670808E-02  0.23568738294E-01  0.00000000000E+00 0. -1.
     999901    1    3    3    0    0  0.76853177401E-01  0.95857771771E-01  0.66173580063E-01  0.89099610885E+00  0.88000000000E+00 0.  1.
        -11    1    4    4    0    0 -0.28805840583E-01 -0.16836314335E-01 -0.97115084513E-02  0.34753596210E-01  0.51100000000E-03 0. -1.
         11    1    4    4    0    0 -0.56585043036E-01 -0.58804899275E-01 -0.47866504531E-01  0.94611556647E-01  0.51100000000E-03 0.  1.
</event>
<event>
 8    1  0.1123470E+005  0.1043930E+01  0.7957747E-01            NaN
         13   -1    0    0    0    0  0.00000000000E+00  0.00000000000E+00  0.74505805969E-08  0.10566000000E+00  0.10566000000E+00 0.  1.
     999900   -1    0    0    0    0 -0.00000000000E+00 -0.00000000000E+00 -0.74505805969E-08  0.93827000000E+00  0.93827000000E+00 0.  1.
     999902    2    1    2    0    0 -0.36839258467E-02  0.23605206817E-01  0.61246709878E-02  0.10192664907E+01  0.10189680516E+01 0.  0.
     999903    2    3    3    0    0  0.11418605785E+00  0.52447893087E-01  0.29273798482E-01  0.13063770668E+00  0.20494336568E-01 0.  0.
         14    1    1    2    0    0  0.36839258467E-02 -0.23605206817E-01 -0.61246709878E-02  0.24663509345E-01  0.00000000000E+00 0.  1.
     999901    1    3    3    0    0 -0.11786998370E+00 -0.28842686270E-01 -0.23149127494E-01  0.88862878398E+00  0.88000000000E+00 0.  1.
        -11    1    4    4    0    0  0.34872414070E-01  0.68951204293E-02  0.42065013850E-02  0.35799214010E-01  0.51100000000E-03 0. -1.
         11    1    4    4    0    0  0.79313643782E-01  0.45552772658E-01  0.25067297097E-01  0.94838492668E-01  0.51100000000E-03 0.  1.
</event>
<event>
 8    1  0.1123470E+005  0.1043930E+01  0.7957747E-01            NaN
         13   -1    0    0    0    0  0.00000000000E+00  0.00000000000E+00  0.74505805969E-08  0.10566000000E+00  0.10566000000E+00 0.  1.
     999900   -1    0    0    0    0 -0.00000000000E+00 -0.00000000000E+00 -0.74505805969E-08  0.93827000000E+00  0.93827000000E+00 0. -1.
     999902    2    1    2    0    0  0.12302830887E-01  0.14286511675E-01  0.11466604318E-01  0.10218631226E+01  0.10216248305E+01 0.  0.
     999903    2    3    3    0    0  0.78584935189E-01  0.41633568766E-01  0.99613547945E-01  0.13455761571E+00  0.16551342086E-01 0.  0.
         14    1    1    2    0    0 -0.12302830887E-01 -0.14286511675E-01 -0.11466604318E-01  0.22066877401E-01  0.00000000000E+00 0. -1.
     999901    1    3    3    0    0 -0.66282104302E-01 -0.27347057091E-01 -0.88146943627E-01  0.88730550689E+00  0.88000000000E+00 0.  1.
        -11    1    4    4    0    0  0.99065919369E-02  0.11509259557E-01  0.13089208724E-01  0.20054728255E-01  0.51100000000E-03 0.  1.
         11    1    4    4    0    0  0.68678343252E-01  0.30124309208E-01  0.86524339221E-01  0.11450288746E+00  0.51100000000E-03 0. -1.
</event>
<event>
 8    1  0.1123470E+005  0.1043930E+01  0.7957747E-01            NaN
         13   -1    0    0    0    0  0.00000000000E+00  0.00000000000E+00  0.74505805969E-08  0.10566000000E+00  0.10566000000E+00 0.  1.
     999900   -1    0    0    0    0 -0.00000000000E+00 -0.00000000000E+00 -0.74505805969E-08  0.93827000000E+00  0.93827000000E+00 0.  1.
     999902    2    1    2    0    0  0.11282354670E-01 -0.31237799553E-02 -0.20106846500E-01  0.10206633972E+01  0.10203981751E+01 0.  0.
     999903    2    3    3    0    0 -0.27315505638E-01 -0.12291002204E+00  0.27282022714E-01  0.13044755625E+00  0.20475492691E-01 0.  0.
         14    1    1    2    0    0 -0.11282354670E-01  0.31237799553E-02  0.20106846500E-01  0.23266602766E-01  0.00000000000E+00 0.  1.
     999901    1    3    3    0    0  0.38597860308E-01  0.11978624209E+00 -0.47388869214E-01  0.89021584098E+00  0.88000000000E+00 0. -1.
        -11    1    4    4    0    0 -0.72687884719E-02 -0.78360787216E-01  0.17600341084E-01  0.80642925209E-01  0.51100000000E-03 0. -1.
         11    1    4    4    0    0 -0.20046717166E-01 -0.44549234828E-01  0.96816816299E-02  0.49804631040E-01  0.51100000000E-03 0.  1.
</event>
<event>
 8    1  0.1123470E+005  0.1043930E+01  0.7957747E-01            NaN
         13   -1    0    0    0    0  0.00000000000E+00  0.00000000000E+00  0.74505805969E-08  0.10566000000E+00  0.10566000000E+00 0.  1.
     999900   -1    0    0    0    0 -0.00000000000E+00 -0.00000000000E+00 -0.74505805969E-08  0.93827000000E+00  0.93827000000E+00 0.  1.
     999902    2    1    2    0    0 -0.15052941488E-01 -0.28273242293E-02 -0.18412349813E-01  0.10199800640E+01  0.10196988435E+01 0.  0.
     999903    2    3    3    0    0 -0.91197464741E-01 -0.85208890311E-01 -0.43690146939E-01  0.13249841466E+00  0.83347696317E-02 0.  0.
         14    1    1    2    0    0  0.15052941488E-01  0.28273242293E-02  0.18412349813E-01  0.23949936020E-01  0.00000000000E+00 0.  1.
     999901    1    3    3    0    0  0.76144523253E-01  0.82381566081E-01  0.25277797127E-01  0.88748164932E+00  0.88000000000E+00 0.  1.
        -11    1    4    4    0    0 -0.48607503319E-01 -0.41047988423E-01 -0.25026387037E-01  0.68368179013E-01  0.51100000000E-03 0. -1.
         11    1    4    4    0    0 -0.42589961422E-01 -0.44160901888E-01 -0.18663759902E-01  0.64130235647E-01  0.51100000000E-03 0.  1.
</event>
<event>
 8    1  0.1123470E+005  0.1043930E+01  0.7957747E-01            NaN
         13   -1    0    0    0    0  0.00000000000E+00  0.00000000000E+00  0.74505805969E-08  0.10566000000E+00  0.10566000000E+00 0.  1.
     999900   -1    0    0    0    0 -0.00000000000E+00 -0.00000000000E+00 -0.74505805969E-08  0.93827000000E+00  0.93827000000E+00 0.  1.
     999902    2    1    2    0    0 -0.15769338531E-01  0.13998798468E-01 -0.11373623271E-01  0.10199717508E+01  0.10196903328E+01 0.  0.
     999903    2    3    3    0    0 -0.57755724264E-01  0.11269488095E+00 -0.36574323018E-01  0.13310149621E+00  0.18505872383E-01 0.  0.
         14    1    1    2    0    0  0.15769338531E-01 -0.13998798468E-01  0.11373623271E-01  0.23958249155E-01  0.00000000000E+00 0.  1.
     999901    1    3    3    0    0  0.41986385733E-01 -0.98696082480E-01  0.25200699748E-01  0.88687025463E+00  0.88000000000E+00 0. -1.
        -11    1    4    4    0    0 -0.23046581447E-01  0.31085728806E-01 -0.17065115608E-01  0.42295942400E-01  0.51100000000E-03 0. -1.
         11    1    4    4    0    0 -0.34709142817E-01  0.81609152142E-01 -0.19509207410E-01  0.90805553812E-01  0.51100000000E-03 0.  1.
</event>
<event>
 8    1  0.1123470E+005  0.1043930E+01  0.7957747E-01            NaN
         13   -1    0    0    0    0  0.00000000000E+00  0.00000000000E+00  0.74505805969E-08  0.10566000000E+00  0.10566000000E+00 0. -1.
     999900   -1    0    0    0    0 -0.00000000000E+00 -0.00000000000E+00 -0.74505805969E-08  0.93827000000E+00  0.93827000000E+00 0.  1.
     999902    2    1    2    0    0 -0.63228179482E-03  0.11848717430E-01  0.21463365149E-01  0.10194051569E+01  0.10191101049E+01 0.  0.
     999903    2    3    3    0    0 -0.15832085536E-01  0.28926112644E-01  0.12696106651E+00  0.13280917426E+00  0.20779543606E-01 0.  0.
         14    1    1    2    0    0  0.63228179482E-03 -0.11848717430E-01 -0.21463365149E-01  0.24524843089E-01  0.00000000000E+00 0.  1.
     999901    1    3    3    0    0  0.15199803741E-01 -0.17077395214E-01 -0.10549770136E+00  0.88659598265E+00  0.88000000000E+00 0.  1.
        -11    1    4    4    0    0 -0.57512814127E-02  0.39434727635E-02  0.63240918458E-01  0.63626276834E-01  0.51100000000E-03 0.  1.
         11    1    4    4    0    0 -0.10080804123E-01  0.24982639881E-01  0.63720148054E-01  0.69182897426E-01  0.51100000000E-03 0. -1.
</event>
<event>
 8    1  0.1123470E+005  0.1043930E+01  0.7957747E-01            NaN
         13   -1    0    0    0    0  0.00000000000E+00  0.00000000000E+00  0.74505805969E-08  0.10566000000E+00  0.10566000000E+00 0. -1.
     999900   -1    0    0    0    0 -0.00000000000E+00 -0.00000000000E+00 -0.74505805969E-08  0.93827000000E+00  0.93827000000E+00 0. -1.
     999902    2    1    2    0    0  0.23025824488E-01 -0.41228599297E-02 -0.29565370176E-02  0.10203518814E+01  0.10200794254E+01 0.  0.
     999903    2    3    3    0    0  0.34683084261E-01  0.12389791274E+00  0.14118758152E-01  0.13084821322E+00  0.19191311964E-01 0.  0.
         14    1    1    2    0    0 -0.23025824488E-01  0.41228599297E-02  0.29565370176E-02  0.23578118638E-01  0.00000000000E+00 0. -1.
     999901    1    3    3    0    0 -0.11657259773E-01 -0.12802077267E+00 -0.17075295169E-01  0.88950366815E+00  0.88000000000E+00 0. -1.
        -11    1    4    4    0    0  0.10118278586E-01  0.18439524286E-01 -0.28925770051E-02  0.21237319515E-01  0.51100000000E-03 0. -1.
         11    1    4    4    0    0  0.24564805675E-01  0.10545838845E+00  0.17011335157E-01  0.10961089370E+00  0.51100000000E-03 0.  1.
</event>
<event>
 8    1  0.1123470E+005  0.1043930E+01  0.7957747E-01            NaN
         13   -1    0    0    0    0  0.00000000000E+00  0.00000000000E+00  0.74505805969E-08  0.10566000000E+00  0.10566000000E+00 0. -1.
     999900   -1    0    0    0    0 -0.00000000000E+00 -0.00000000000E+00 -0.74505805969E-08  0.93827000000E+00  0.93827000000E+00 0.  1.
     999902    2    1    2    0    0 -0.63117337207E-02 -0.10814425690E-01  0.16106859962E-01  0.10235285117E+01  0.10233251651E+01 0.  0.
     999903    2    3    3    0    0 -0.35032850799E-01  0.62305081964E-01  0.11261563302E+00  0.13477359150E+00  0.19298090364E-01 0.  0.
         14    1    1    2    0    0  0.63117337207E-02  0.10814425690E-01 -0.16106859962E-01  0.20401488264E-01  0.00000000000E+00 0.  1.
     999901    1    3    3    0    0  0.28721117078E-01 -0.73119507653E-01 -0.96508773059E-01  0.88875492024E+00  0.88000000000E+00 0.  1.
        -11    1    4    4    0    0 -0.11801339008E-01  0.17598596362E-01  0.50669751660E-01  0.54924193672E-01  0.51100000000E-03 0.  1.
         11    1    4    4    0    0 -0.23231511791E-01  0.44706485601E-01  0.61945881361E-01  0.79849397828E-01  0.51100000000E-03 0. -1.
</event>
<event>
 8    1  0.1123470E+005  0.1043930E+01  0.7957747E-01            NaN
         13   -1    0    0    0    0  0.00000000000E+00  0.00000000000E+00  0.74505805969E-08  0.10566000000E+00  0.10566000000E+00 0. -1.
     999900   -1    0    0    0    0 -0.00000000000E+00 -0.00000000000E+00 -0.74505805969E-08  0.93827000000E+00  0.93827000000E+00 0. -1.
     999902    2    1    2    0    0  0.64831546724E-02  0.19343261915E-01  0.12546121474E-01  0.10199800889E+01  0.10196988691E+01 0.  0.
     999903    2    3    3    0    0  0.15839604192E-01 -0.42294649486E-01  0.12133478426E+00  0.13109216100E+00  0.20574118914E-01 0.  0.
         14    1    1    2    0    0 -0.64831546724E-02 -0.19343261915E-01 -0.12546121474E-01  0.23949911066E-01  0.00000000000E+00 0.  1.
     999901    1    3    3    0    0 -0.93564495201E-02  0.61637911401E-01 -0.10878866279E+00  0.88888792793E+00  0.88000000000E+00 0. -1.
        -11    1    4    4    0    0  0.80515839204E-02 -0.40053229100E-02  0.12144831645E-01  0.15120471947E-01  0.51100000000E-03 0.  1.
         11    1    4    4    0    0  0.77880202721E-02 -0.38289326576E-01  0.10918995262E+00  0.11597168906E+00  0.51100000000E-03 0. -1.
</event>
<event>
 8    1  0.1123470E+005  0.1043930E+01  0.7957747E-01            NaN
         13   -1    0    0    0    0  0.00000000000E+00  0.00000000000E+00  0.74505805969E-08  0.10566000000E+00  0.10566000000E+00 0.  1.
     999900   -1    0    0    0    0 -0.00000000000E+00 -0.00000000000E+00 -0.74505805969E-08  0.93827000000E+00  0.93827000000E+00 0. -1.
     999902    2    1    2    0    0  0.18385278163E-01  0.12476008926E-01 -0.94922487204E-02  0.10197686251E+01  0.10194823572E+01 0.  0.
     999903    2    3    3    0    0 -0.11969500898E+00  0.31237545335E-01 -0.29794194402E-01  0.12857261413E+00  0.18453825414E-01 0.  0.
         14    1    1    2    0    0 -0.18385278163E-01 -0.12476008926E-01  0.94922487204E-02  0.24161374912E-01  0.00000000000E+00 0.  1.
     999901    1    3    3    0    0  0.13808028714E+00 -0.18761536409E-01  0.20301945682E-01  0.89119601096E+00  0.88000000000E+00 0. -1.
        -11    1    4    4    0    0 -0.78053328212E-01  0.28897404541E-01 -0.17074568156E-01  0.84965781541E-01  0.51100000000E-03 0.  1.
         11    1    4    4    0    0 -0.41641680764E-01  0.23401407940E-02 -0.12719626246E-01  0.43606832592E-01  0.51100000000E-03 0. -1.
</event>
<event>
 8    1  0.1123470E+005  0.1043930E+01  0.7957747E-01            NaN
         13   -1    0    0    0    0  0.00000000000E+00  0.00000000000E+00  0.74505805969E-08  0.10566000000E+00  0.10566000000E+00 0.  1.
     999900   -1    0    0    0    0 -0.00000000000E+00 -0.00000000000E+00 -0.74505805969E-08  0.93827000000E+00  0.93827000000E+00 0.  1.
     999902    2    1    2    0    0 -0.41376764867E-02 -0.23901533450E-01  0.22624003309E-02  0.10195676905E+01  0.10192765834E+01 0.  0.
     999903    2    3    3    0    0  0.52625291940E-02  0.24307367263E-03  0.12854568342E+00  0.13017531732E+00  0.19846088120E-01 0.  0.
         14    1    1    2    0    0  0.41376764867E-02  0.23901533450E-01 -0.22624003309E-02  0.24362309480E-01  0.00000000000E+00 0.  1.
     999901    1    3    3    0    0 -0.94002056808E-02 -0.24144607122E-01 -0.12628328309E+00  0.88939237320E+00  0.88000000000E+00 0.  1.
        -11    1    4    4    0    0 -0.28655208144E-02  0.71969589915E-02  0.84105657044E-01  0.84463187816E-01  0.51100000000E-03 0.  1.
         11    1    4    4    0    0  0.81280500084E-02 -0.69538853188E-02  0.44440026380E-01  0.45712129502E-01  0.51100000000E-03 0. -1.
</event>
<event>
 8    1  0.1123470E+005  0.1043930E+01  0.7957747E-01            NaN
         13   -1    0    0    0    0  0.00000000000E+00  0.00000000000E+00  0.74505805969E-08  0.10566000000E+00  0.10566000000E+00 0.  1.
     999900   -1    0    0    0    0 -0.00000000000E+00 -0.00000000000E+00 -0.74505805969E-08  0.93827000000E+00  0.93827000000E+00 0. -1.
     999902    2    1    2    0    0  0.83446426878E-02  0.18850872603E-01 -0.11587824353E-01  0.10202811917E+01  0.10200070804E+01 0.  0.
     999903    2    3    3    0    0  0.39221266134E-01  0.77128852048E-01  0.96676747375E-01  0.13119688400E+00  0.19469497984E-01 0.  0.
         14    1    1    2    0    0 -0.83446426878E-02 -0.18850872603E-01  0.11587824353E-01  0.23648808272E-01  0.00000000000E+00 0.  1.
     999901    1    3    3    0    0 -0.30876623446E-01 -0.58277979445E-01 -0.10826457173E+00  0.88908430773E+00  0.88000000000E+00 0. -1.
        -11    1    4    4    0    0  0.32773577398E-01  0.56828846305E-01  0.60660984252E-01  0.89351224273E-01  0.51100000000E-03 0. -1.
         11    1    4    4    0    0  0.64476887359E-02  0.20300005743E-01  0.36015763124E-01  0.41845659722E-01  0.51100000000E-03 0.  1.
</event>
<event>
 8    1  0.1123470E+005  0.1043930E+01  0.7957747E-01            NaN
         13   -1    0    0    0    0  0.00000000000E+00  0.00000000000E+00  0.74505805969E-08  0.10566000000E+00  0.10566000000E+00 0.  1.
     999900   -1    0    0    0    0 -0.00000000000E+00 -0.00000000000E+00 -0.74505805969E-08  0.93827000000E+00  0.93827000000E+00 0. -1.
     999902    2    1    2    0    0 -0.81806086094E-02  0.19930449293E-01 -0.12136871916E-01  0.10192025087E+01  0.10189025002E+01 0.  0.
     999903    2    3    3    0    0  0.52973095217E-01  0.57824080402E-01 -0.10374412618E+00  0.13152712219E+00  0.19666394315E-01 0.  0.
         14    1    1    2    0    0  0.81806086094E-02 -0.19930449293E-01  0.12136871916E-01  0.24727491303E-01  0.00000000000E+00 0.  1.
     999901    1    3    3    0    0 -0.61153703826E-01 -0.37893631108E-01  0.91607254260E-01  0.88767538650E+00  0.88000000000E+00 0.  1.
        -11    1    4    4    0    0  0.76620852585E-02  0.72703546468E-02 -0.27364631885E-01  0.29336833613E-01  0.51100000000E-03 0.  1.
         11    1    4    4    0    0  0.45311009958E-01  0.50553725755E-01 -0.76379494291E-01  0.10219028858E+00  0.51100000000E-03 0. -1.
</event>
<event>
 8    1  0.1123470E+005  0.1043930E+01  0.7957747E-01            NaN
         13   -1    0    0    0    0  0.00000000000E+00  0.00000000000E+00  0.74505805969E-08  0.10566000000E+00  0.10566000000E+00 0.  1.
     999900   -1    0    0    0    0 -0.00000000000E+00 -0.00000000000E+00 -0.74505805969E-08  0.93827000000E+00  0.93827000000E+00 0. -1.
     999902    2    1    2    0    0  0.10367170667E-01  0.15486336988E-01 -0.14215302489E-01  0.10204911501E+01  0.10202219404E+01 0.  0.
     999903    2    3    3    0    0  0.11583908627E+00 -0.34934256551E-01  0.44819093887E-01  0.13079928140E+00  0.21461701930E-01 0.  0.
         14    1    1    2    0    0 -0.10367170667E-01 -0.15486336988E-01  0.14215302489E-01  0.23438849925E-01  0.00000000000E+00 0.  1.
     999901    1    3    3    0    0 -0.10547191560E+00  0.50420593539E-01 -0.59034396376E-01  0.88969186868E+00  0.88000000000E+00 0. -1.
        -11    1    4    4    0    0  0.25903280510E-01 -0.16567670849E-01  0.71217409151E-02  0.31566564165E-01  0.51100000000E-03 0. -1.
         11    1    4    4    0    0  0.89935805757E-01 -0.18366585702E-01  0.37697352972E-01  0.99232717234E-01  0.51100000000E-03 0.  1.
</event>
<event>
 8    1  0.1123470E+005  0.1043930E+01  0.7957747E-01            NaN
         13   -1    0    0    0    0  0.00000000000E+00  0.00000000000E+00  0.74505805969E-08  0.10566000000E+00  0.10566000000E+00 0.  1.
     999900   -1    0    0    0    0 -0.00000000000E+00 -0.00000000000E+00 -0.74505805969E-08  0.93827000000E+00  0.93827000000E+00 0.  1.
     999902    2    1    2    0    0  0.22526956334E-02 -0.22830518061E-01 -0.75035191784E-03  0.10209763462E+01  0.10207182909E+01 0.  0.
     999903    2    3    3    0    0 -0.39181457109E-01 -0.10320719946E+00  0.72126054514E-01  0.13334569641E+00  0.19798848658E-01 0.  0.
         14    1    1    2    0    0 -0.22526956334E-02  0.22830518061E-01  0.75035191784E-03  0.22953653751E-01  0.00000000000E+00 0. -1.
     999901    1    3    3    0    0  0.41434152742E-01  0.80376681401E-01 -0.72876406432E-01  0.88763064984E+00  0.88000000000E+00 0.  1.
        -11    1    4    4    0    0 -0.21860209022E-02 -0.28517381197E-01  0.21951444101E-01  0.36057547571E-01  0.51100000000E-03 0.  1.
         11    1    4    4    0    0 -0.36995436206E-01 -0.74689818265E-01  0.50174610413E-01  0.97288148835E-01  0.51100000000E-03 0. -1.
</event>
<event>
 8    1  0.1123470E+005  0.1043930E+01  0.7957747E-01            NaN
         13   -1    0    0    0    0  0.00000000000E+00  0.00000000000E+00  0.74505805969E-08  0.10566000000E+00  0.10566000000E+00 0. -1.
     999900   -1    0    0    0    0 -0.00000000000E+00 -0.00000000000E+00 -0.74505805969E-08  0.93827000000E+00  0.93827000000E+00 0.  1.
     999902    2    1    2    0    0 -0.16324482236E-01  0.10706236444E-01  0.14017167869E-01  0.10198968310E+01  0.10196136291E+01 0.  0.
     999903    2    3    3    0    0  0.38178677030E-01 -0.53649668483E-01 -0.10737624982E+00  0.12756917884E+00  0.20207376292E-01 0.  0.
         14    1    1    2    0    0  0.16324482236E-01 -0.10706236444E-01 -0.14017167869E-01  0.24033169041E-01  0.00000000000E+00 0.  1.
     999901    1    3    3    0    0 -0.54503159267E-01  0.64355904927E-01  0.12139341769E+00  0.89232765211E+00  0.88000000000E+00 0. -1.
        -11    1    4    4    0    0  0.15296111336E-01 -0.38192414031E-01 -0.60603875687E-01  0.73251091329E-01  0.51100000000E-03 0.  1.
         11    1    4    4    0    0  0.22882565695E-01 -0.15457254452E-01 -0.46772374137E-01  0.54318087516E-01  0.51100000000E-03 0. -1.
</event>
<event>
 8    1  0.1123470E+005  0.1043930E+01  0.7957747E-01            NaN
         13   -1    0    0    0    0  0.00000000000E+00  0.00000000000E+00  0.74505805969E-08  0.10566000000E+00  0.10566000000E+00 0.  1.
     999900   -1    0    0    0    0 -0.00000000000E+00 -0.00000000000E+00 -0.74505805969E-08  0.93827000000E+00  0.93827000000E+00 0.  1.
     999902    2    1    2    0    0  0.89814047422E-02  0.13588787119E-01  0.16634704208E-01  0.10206483731E+01  0.10203828043E+01 0.  0.
     999903    2    3    3    0    0  0.60022605888E-01 -0.10998270623E+00  0.30777863723E-01  0.13043764124E+00  0.19177916176E-01 0.  0.
         14    1    1    2    0    0 -0.89814047422E-02 -0.13588787119E-01 -0.16634704208E-01  0.23281626888E-01  0.00000000000E+00 0. -1.
     999901    1    3    3    0    0 -0.51041201146E-01  0.12357149335E+00 -0.14143159515E-01  0.89021073187E+00  0.88000000000E+00 0.  1.
        -11    1    4    4    0    0  0.16978445910E-01 -0.44337110841E-01  0.18622986520E-01  0.51001213429E-01  0.51100000000E-03 0. -1.
         11    1    4    4    0    0  0.43044159978E-01 -0.65645595389E-01  0.12154877203E-01  0.79436427809E-01  0.51100000000E-03 0.  1.
</event>
<event>
 8    1  0.1123470E+005  0.1043930E+01  0.7957747E-01            NaN
         13   -1    0    0    0    0  0.00000000000E+00  0.00000000000E+00  0.74505805969E-08  0.10566000000E+00  0.10566000000E+00 0. -1.
     999900   -1    0    0    0    0 -0.00000000000E+00 -0.00000000000E+00 -0.74505805969E-08  0.93827000000E+00  0.93827000000E+00 0. -1.
     999902    2    1    2    0    0  0.16005359387E-01  0.38579730918E-02  0.16754474539E-01  0.10204402596E+01  0.10201698660E+01 0.  0.
     999903    2    3    3    0    0 -0.13300974944E-01  0.10829559587E+00 -0.67093248058E-01  0.12982445084E+00  0.21166768320E-01 0.  0.
         14    1    1    2    0    0 -0.16005359387E-01 -0.38579730918E-02 -0.16754474539E-01  0.23489740368E-01  0.00000000000E+00 0.  1.
     999901    1    3    3    0    0  0.29306334330E-01 -0.10443762278E+00  0.83847722597E-01  0.89061580879E+00  0.88000000000E+00 0.  1.
        -11    1    4    4    0    0 -0.12174549146E-01  0.25161348576E-01 -0.15320989334E-01  0.31879569387E-01  0.51100000000E-03 0.  1.
         11    1    4    4    0    0 -0.11264257975E-02  0.83134247297E-01 -0.51772258724E-01  0.97944881454E-01  0.51100000000E-03 0. -1.
</event>
<event>
 8    1  0.1123470E+005  0.1043930E+01  0.7957747E-01            NaN
         13   -1    0    0    0    0  0.00000000000E+00  0.00000000000E+00  0.74505805969E-08  0.10566000000E+00  0.10566000000E+00 0. -1.
     999900   -1    0    0    0    0 -0.00000000000E+00 -0.00000000000E+00 -0.74505805969E-08  0.93827000000E+00  0.93827000000E+00 0.  1.
     999902    2    1    2    0    0  0.18168486944E-01  0.71054588566E-02  0.98174123738E-03  0.10243968159E+01  0.10242105698E+01 0.  0.
     999903    2    3    3    0    0  0.36695555147E-01 -0.12136228367E+00 -0.38344483672E-01  0.13400714558E+00  0.20303890642E-01 0.  0.
         14    1    1    2    0    0 -0.18168486944E-01 -0.71054588566E-02 -0.98174123738E-03  0.19533184053E-01  0.00000000000E+00 0. -1.
     999901    1    3    3    0    0 -0.18527068203E-01  0.12846774252E+00  0.39326224909E-01  0.89038967036E+00  0.88000000000E+00 0. -1.
        -11    1    4    4    0    0  0.30194657525E-01 -0.11523411261E+00 -0.38046298138E-01  0.12505358841E+00  0.51100000000E-03 0.  1.
         11    1    4    4    0    0  0.65008976220E-02 -0.61281710557E-02 -0.29818553350E-03  0.89535571698E-02  0.51100000000E-03 0. -1.
</event>
<event>
 8    1  0.1123470E+005  0.1043930E+01  0.7957747E-01            NaN
         13   -1    0    0    0    0  0.00000000000E+00  0.00000000000E+00  0.74505805969E-08  0.10566000000E+00  0.10566000000E+00 0. -1.
     999900   -1    0    0    0    0 -0.00000000000E+00 -0.00000000000E+00 -0.74505805969E-08  0.93827000000E+00  0.93827000000E+00 0.  1.
     999902    2    1    2    0    0  0.10822756832E-01 -0.27156691993E-02 -0.20628553346E-01  0.10204769802E+01  0.10202074412E+01 0.  0.
     999903    2    3    3    0    0  0.26438198694E-01  0.88263361683E-01  0.88332216000E-01  0.12896507599E+00  0.18439389269E-01 0.  0.
         14    1    1    2    0    0 -0.10822756832E-01  0.27156691993E-02  0.20628553346E-01  0.23453019801E-01  0.00000000000E+00 0. -1.
     999901    1    3    3    0    0 -0.15615441862E-01 -0.90979030882E-01 -0.10896076935E+00  0.89151190421E+00  0.88000000000E+00 0. -1.
        -11    1    4    4    0    0  0.28811822725E-01  0.74530888136E-01  0.72893642257E-01  0.10816061491E+00  0.51100000000E-03 0. -1.
         11    1    4    4    0    0 -0.23736240308E-02  0.13732473547E-01  0.15438573743E-01  0.20804461084E-01  0.51100000000E-03 0.  1.
</event>
<event>
 8    1  0.1123470E+005  0.1043930E+01  0.7957747E-01            NaN
         13   -1    0    0    0    0  0.00000000000E+00  0.00000000000E+00  0.74505805969E-08  0.10566000000E+00  0.10566000000E+00 0. -1.
     999900   -1    0    0    0    0 -0.00000000000E+00 -0.00000000000E+00 -0.74505805969E-08  0.93827000000E+00  0.93827000000E+00 0.  1.
     999902    2    1    2    0    0 -0.15048839390E-01 -0.16274005831E-01 -0.92396799916E-02  0.10199157851E+01  0.10196330350E+01 0.  0.
     999903    2    3    3    0    0 -0.68034703240E-01  0.77557807581E-01  0.75280495325E-01  0.12932296507E+00  0.20330813010E-01 0.  0.
         14    1    1    2    0    0  0.15048839390E-01  0.16274005831E-01  0.92396799916E-02  0.24014214939E-01  0.00000000000E+00 0.  1.
     999901    1    3    3    0    0  0.52985863850E-01 -0.93831813412E-01 -0.84520175317E-01  0.89059281999E+00  0.88000000000E+00 0.  1.
        -11    1    4    4    0    0 -0.42681594079E-01  0.33274578735E-01  0.38362533083E-01  0.66338986491E-01  0.51100000000E-03 0.  1.
         11    1    4    4    0    0 -0.25353109161E-01  0.44283228846E-01  0.36917962242E-01  0.62983978584E-01  0.51100000000E-03 0. -1.
</event>
<event>
 8    1  0.1123470E+005  0.1043930E+01  0.7957747E-01            NaN
         13   -1    0    0    0    0  0.00000000000E+00  0.00000000000E+00  0.74505805969E-08  0.10566000000E+00  0.10566000000E+00 0. -1.
     999900   -1    0    0    0    0 -0.00000000000E+00 -0.00000000000E+00 -0.74505805969E-08  0.93827000000E+00  0.93827000000E+00 0. -1.
     999902    2    1    2    0    0 -0.13957969721E-01  0.10725924512E-01  0.16589482416E-01  0.10197415461E+01  0.10194546285E+01 0.  0.
     999903    2    3    3    0    0 -0.12339559723E+00  0.40596978647E-01 -0.11968300003E-01  0.13200035570E+00  0.20156031599E-01 0.  0.
         14    1    1    2    0    0  0.13957969721E-01 -0.10725924512E-01 -0.16589482416E-01  0.24188453902E-01  0.00000000000E+00 0.  1.
     999901    1    3    3    0    0  0.10943762751E+00 -0.29871054134E-01  0.28557782419E-01  0.88774119040E+00  0.88000000000E+00 0. -1.
        -11    1    4    4    0    0 -0.61244661987E-01  0.10388762968E-01 -0.17716489561E-02  0.62146881489E-01  0.51100000000E-03 0.  1.
         11    1    4    4    0    0 -0.62150935241E-01  0.30208215679E-01 -0.10196651047E-01  0.69853474212E-01  0.51100000000E-03 0. -1.
</event>
<event>
 8    1  0.1123470E+005  0.1043930E+01  0.7957747E-01            NaN
         13   -1    0    0    0    0  0.00000000000E+00  0.00000000000E+00  0.74505805969E-08  0.10566000000E+00  0.10566000000E+00 0. -1.
     999900   -1    0    0    0    0 -0.00000000000E+00 -0.00000000000E+00 -0.74505805969E-08  0.93827000000E+00  0.93827000000E+00 0. -1.
     999902    2    1    2    0    0  0.18705705944E-02 -0.23163452148E-01  0.75111345014E-02  0.10195074348E+01  0.10192148684E+01 0.  0.
     999903    2    3    3    0    0  0.68111977098E-01 -0.40183371309E-01  0.10345359637E+00  0.13165465557E+00  0.19399922114E-01 0.  0.
         14    1    1    2    0    0 -0.18705705944E-02  0.23163452148E-01 -0.75111345014E-02  0.24422565206E-01  0.00000000000E+00 0. -1.
     999901    1    3    3    0    0 -0.66241406503E-01  0.17019919161E-01 -0.95942461867E-01  0.88785277922E+00  0.88000000000E+00 0. -1.
        -11    1    4    4    0    0  0.47848147483E-01 -0.36189618150E-01  0.84394394349E-01  0.10354616651E+00  0.51100000000E-03 0. -1.
         11    1    4    4    0    0  0.20263829614E-01 -0.39937531591E-02  0.19059202020E-01  0.28108489066E-01  0.51100000000E-03 0.  1.
</event>
<event>
 8    1  0.1123470E+005  0.1043930E+01  0.7957747E-01            NaN
         13   -1    0    0    0    0  0.00000000000E+00  0.00000000000E+00  0.74505805969E-08  0.10566000000E+00  0.10566000000E+00 0.  1.
     999900   -1    0    0    0    0 -0.00000000000E+00 -0.00000000000E+00 -0.74505805969E-08  0.93827000000E+00  0.93827000000E+00 0. -1.
     999902    2    1    2    0    0 -0.42676813539E-04 -0.14756334898E-01  0.19103527438E-01  0.10197909031E+01  0.10195051692E+01 0.  0.
     999903    2    3    3    0    0  0.11960183620E+00  0.39021842231E-01  0.26048820337E-01  0.13004086010E+00  0.20119166524E-01 0.  0.
         14    1    1    2    0    0  0.42676813539E-04  0.14756334898E-01 -0.19103527438E-01  0.24139096949E-01  0.00000000000E+00 0. -1.
     999901    1    3    3    0    0 -0.11964451302E+00 -0.53778177130E-01 -0.69452928986E-02  0.88975004295E+00  0.88000000000E+00 0. -1.
        -11    1    4    4    0    0  0.70833369484E-01  0.13144937764E-01  0.17867663292E-01  0.74227152268E-01  0.51100000000E-03 0. -1.
         11    1    4    4    0    0  0.48768466718E-01  0.25876904467E-01  0.81811570446E-02  0.55813707836E-01  0.51100000000E-03 0.  1.
</event>
<event>
 8    1  0.1123470E+005  0.1043930E+01  0.7957747E-01            NaN
         13   -1    0    0    0    0  0.00000000000E+00  0.00000000000E+00  0.74505805969E-08  0.10566000000E+00  0.10566000000E+00 0.  1.
     999900   -1    0    0    0    0 -0.00000000000E+00 -0.00000000000E+00 -0.74505805969E-08  0.93827000000E+00  0.93827000000E+00 0. -1.
     999902    2    1    2    0    0 -0.16552306236E-01 -0.16089534578E-01  0.79585377195E-02  0.10195129918E+01  0.10192205602E+01 0.  0.
     999903    2    3    3    0    0  0.52715650232E-01 -0.92454422622E-01 -0.71394823901E-01  0.12994759126E+00  0.21503384667E-01 0.  0.
         14    1    1    2    0    0  0.16552306236E-01  0.16089534578E-01 -0.79585377195E-02  0.24417008156E-01  0.00000000000E+00 0.  1.
     999901    1    3    3    0    0 -0.69267956468E-01  0.76364888044E-01  0.79353361620E-01  0.88956540059E+00  0.88000000000E+00 0.  1.
        -11    1    4    4    0    0  0.33646999987E-01 -0.49528116522E-01 -0.28416388240E-01  0.66279010071E-01  0.51100000000E-03 0.  1.
         11    1    4    4    0    0  0.19068650246E-01 -0.42926306100E-01 -0.42978435660E-01  0.63668581187E-01  0.51100000000E-03 0. -1.
</event>
<event>
 8    1  0.1123470E+005  0.1043930E+01  0.7957747E-01            NaN
         13   -1    0    0    0    0  0.00000000000E+00  0.00000000000E+00  0.74505805969E-08  0.10566000000E+00  0.10566000000E+00 0.  1.
     999900   -1    0    0    0    0 -0.00000000000E+00 -0.00000000000E+00 -0.74505805969E-08  0.93827000000E+00  0.93827000000E+00 0.  1.
     999902    2    1    2    0    0  0.55705257348E-02  0.19688181927E-01  0.11621859452E-01  0.10203986830E+01  0.10201273201E+01 0.  0.
     999903    2    3    3    0    0  0.10274109113E+00  0.82338637323E-01 -0.31234417258E-02  0.13271370379E+00  0.16364237895E-01 0.  0.
         14    1    1    2    0    0 -0.55705257348E-02 -0.19688181927E-01 -0.11621859452E-01  0.23531317041E-01  0.00000000000E+00 0.  1.
     999901    1    3    3    0    0 -0.97170565395E-01 -0.62650455395E-01  0.14745301178E-01  0.88768497917E+00  0.88000000000E+00 0.  1.
        -11    1    4    4    0    0  0.73399178138E-02  0.74961260137E-02  0.40216069591E-02  0.11247254877E-01  0.51100000000E-03 0. -1.
         11    1    4    4    0    0  0.95401173316E-01  0.74842511309E-01 -0.71450486849E-02  0.12146644891E+00  0.51100000000E-03 0.  1.
</event>
<event>
 8    1  0.1123470E+005  0.1043930E+01  0.7957747E-01            NaN
         13   -1    0    0    0    0  0.00000000000E+00  0.00000000000E+00  0.74505805969E-08  0.10566000000E+00  0.10566000000E+00 0. -1.
     999900   -1    0    0    0    0 -0.00000000000E+00 -0.00000000000E+00 -0.74505805969E-08  0.93827000000E+00  0.93827000000E+00 0.  1.
     999902    2    1    2    0    0  0.14283018588E-01 -0.16036657214E-01 -0.10345665002E-01  0.10200928068E+01  0.10198142589E+01 0.  0.
     999903    2    3    3    0    0  0.11775147374E+00 -0.55810508851E-01  0.15710919060E-01  0.13275599023E+00  0.19927305357E-01 0.  0.
         14    1    1    2    0    0 -0.14283018588E-01  0.16036657214E-01  0.10345665002E-01  0.23837193185E-01  0.00000000000E+00 0. -1.
     999901    1    3    3    0    0 -0.10346845515E+00  0.39773851636E-01 -0.26056584062E-01  0.88733681658E+00  0.88000000000E+00 0. -1.
        -11    1    4    4    0    0  0.88293827374E-01 -0.37109184896E-01  0.36913793341E-02  0.95847686244E-01  0.51100000000E-03 0.  1.
         11    1    4    4    0    0  0.29457646369E-01 -0.18701323955E-01  0.12019539726E-01  0.36908303990E-01  0.51100000000E-03 0. -1.
</event>
<event>
 8    1  0.1123470E+005  0.1043930E+01  0.7957747E-01            NaN
         13   -1    0    0    0    0  0.00000000000E+00  0.00000000000E+00  0.74505805969E-08  0.10566000000E+00  0.10566000000E+00 0.  1.
     999900   -1    0    0    0    0 -0.00000000000E+00 -0.00000000000E+00 -0.74505805969E-08  0.93827000000E+00  0.93827000000E+00 0. -1.
     999902    2    1    2    0    0 -0.20362286532E-01 -0.32948412341E-02  0.12620694361E-01  0.10197481759E+01  0.10194614174E+01 0.  0.
     999903    2    3    3    0    0 -0.13065700446E+00  0.45906939186E-02  0.13113883492E-01  0.13282802744E+00  0.19467502365E-01 0.  0.
         14    1    1    2    0    0  0.20362286532E-01  0.32948412341E-02 -0.12620694361E-01  0.24181824119E-01  0.00000000000E+00 0. -1.
     999901    1    3    3    0    0  0.11029471793E+00 -0.78855351527E-02 -0.49318913070E-03  0.88692014844E+00  0.88000000000E+00 0. -1.
        -11    1    4    4    0    0 -0.85279562810E-01  0.11382058369E-01  0.12481917437E-01  0.86937992096E-01  0.51100000000E-03 0. -1.
         11    1    4    4    0    0 -0.45377441654E-01 -0.67913644504E-02  0.63196605448E-03  0.45890035348E-01  0.51100000000E-03 0.  1.
</event>
<event>
 8    1  0.1123470E+005  0.1043930E+01  0.7957747E-01            NaN
         13   -1    0    0    0    0  0.00000000000E+00  0.00000000000E+00  0.74505805969E-08  0.10566000000E+00  0.10566000000E+00 0.  1.
     999900   -1    0    0    0    0 -0.00000000000E+00 -0.00000000000E+00 -0.74505805969E-08  0.93827000000E+00  0.93827000000E+00 0. -1.
     999902    2    1    2    0    0  0.54908594514E-02  0.16600320706E-01 -0.15884753969E-01  0.10203070113E+01  0.10200335052E+01 0.  0.
     999903    2    3    3    0    0 -0.38433388609E-01 -0.11375216243E+00 -0.43341096224E-01  0.12919817389E+00  0.19925804838E-01 0.  0.
         14    1    1    2    0    0 -0.54908594514E-02 -0.16600320706E-01  0.15884753969E-01  0.23622988670E-01  0.00000000000E+00 0.  1.
     999901    1    3    3    0    0  0.43924248061E-01  0.13035248313E+00  0.27456342255E-01  0.89110883744E+00  0.88000000000E+00 0. -1.
        -11    1    4    4    0    0 -0.20796930603E-01 -0.87693639859E-01 -0.29651575978E-01  0.94879733733E-01  0.51100000000E-03 0.  1.
         11    1    4    4    0    0 -0.17636458007E-01 -0.26058522569E-01 -0.13689520246E-01  0.34318440161E-01  0.51100000000E-03 0. -1.
</event>
<event>
 8    1  0.1123470E+005  0.1043930E+01  0.7957747E-01            NaN
         13   -1    0    0    0    0  0.00000000000E+00  0.00000000000E+00  0.74505805969E-08  0.10566000000E+00  0.10566000000E+00 0.  1.
     999900   -1    0    0    0    0 -0.00000000000E+00 -0.00000000000E+00 -0.74505805969E-08  0.93827000000E+00  0.93827000000E+00 0.  1.
     999902    2    1    2    0    0 -0.75712459331E-02  0.83251514850E-02 -0.20691264571E-01  0.10203766490E+01  0.10201047718E+01 0.  0.
     999903    2    3    3    0    0 -0.23278988218E-01 -0.12434794903E+00 -0.23841714028E-01  0.13028743435E+00  0.20051546114E-01 0.  0.
         14    1    1    2    0    0  0.75712459331E-02 -0.83251514850E-02  0.20691264571E-01  0.23553350967E-01  0.00000000000E+00 0.  1.
     999901    1    3    3    0    0  0.15707742285E-01  0.13267310051E+00  0.31504494579E-02  0.89008921469E+00  0.88000000000E+00 0.  1.
        -11    1    4    4    0    0 -0.24600277710E-01 -0.90201753649E-01 -0.22063992739E-01  0.96065659428E-01  0.51100000000E-03 0. -1.
         11    1    4    4    0    0  0.13212894915E-02 -0.34146195378E-01 -0.17777212892E-02  0.34221774920E-01  0.51100000000E-03 0.  1.
</event>
<event>
 8    1  0.1123470E+005  0.1043930E+01  0.7957747E-01            NaN
         13   -1    0    0    0    0  0.00000000000E+00  0.00000000000E+00  0.74505805969E-08  0.10566000000E+00  0.10566000000E+00 0. -1.
     999900   -1    0    0    0    0 -0.00000000000E+00 -0.00000000000E+00 -0.74505805969E-08  0.93827000000E+00  0.93827000000E+00 0.  1.
     999902    2    1    2    0    0  0.18864661169E-01 -0.13928190143E-03 -0.14219734063E-01  0.10203059513E+01  0.10200324204E+01 0.  0.
     999903    2    3    3    0    0 -0.67587235533E-01 -0.37559056518E-01 -0.10330494095E+00  0.13080589842E+00  0.21437236370E-01 0.  0.
         14    1    1    2    0    0 -0.18864661169E-01  0.13928190143E-03  0.14219734063E-01  0.23624048706E-01  0.00000000000E+00 0. -1.
     999901    1    3    3    0    0  0.86451896702E-01  0.37419774617E-01  0.89085206888E-01  0.88950005287E+00  0.88000000000E+00 0. -1.
        -11    1    4    4    0    0 -0.28958805489E-01 -0.24958775490E-01 -0.38102589062E-01  0.53977970539E-01  0.51100000000E-03 0.  1.
         11    1    4    4    0    0 -0.38628430043E-01 -0.12600281028E-01 -0.65202351889E-01  0.76827927881E-01  0.51100000000E-03 0. -1.
</event>
<event>
 8    1  0.1123470E+005  0.1043930E+01  0.7957747E-01            NaN
         13   -1    0    0    0    0  0.00000000000E+00  0.00000000000E+00  0.74505805969E-08  0.10566000000E+00  0.10566000000E+00 0. -1.
     999900   -1    0    0    0    0 -0.00000000000E+00 -0.00000000000E+00 -0.74505805969E-08  0.93827000000E+00  0.93827000000E+00 0. -1.
     999902    2    1    2    0    0  0.18853107511E-01 -0.47502180719E-03 -0.14100895033E-01  0.10203821647E+01  0.10201104163E+01 0.  0.
     999903    2    3    3    0    0  0.23086961884E-01  0.10043330263E+00 -0.80237840317E-01  0.13213979290E+00  0.20073807837E-01 0.  0.
         14    1    1    2    0    0 -0.18853107511E-01  0.47502180719E-03  0.14100895033E-01  0.23547835342E-01  0.00000000000E+00 0. -1.
     999901    1    3    3    0    0 -0.42338543727E-02 -0.10090832444E+00  0.66136945284E-01  0.88824237176E+00  0.88000000000E+00 0.  1.
        -11    1    4    4    0    0  0.12960830449E-01  0.24590664691E-01 -0.15019305636E-01  0.31599439531E-01  0.51100000000E-03 0.  1.
         11    1    4    4    0    0  0.10126131435E-01  0.75842637941E-01 -0.65218534681E-01  0.10054035336E+00  0.51100000000E-03 0. -1.
</event>
<event>
 8    1  0.1123470E+005  0.1043930E+01  0.7957747E-01            NaN
         13   -1    0    0    0    0  0.00000000000E+00  0.00000000000E+00  0.74505805969E-08  0.10566000000E+00  0.10566000000E+00 0. -1.
     999900   -1    0    0    0    0 -0.00000000000E+00 -0.00000000000E+00 -0.74505805969E-08  0.93827000000E+00  0.93827000000E+00 0.  1.
     999902    2    1    2    0    0 -0.18161049746E-01  0.15058818143E-01 -0.39690029506E-03  0.10203344652E+01  0.10200616019E+01 0.  0.
     999903    2    3    3    0    0 -0.11599246929E+00 -0.56413150223E-01  0.17093501634E-01  0.13186097486E+00  0.21411035522E-01 0.  0.
         14    1    1    2    0    0  0.18161049746E-01 -0.15058818143E-01  0.39690029506E-03  0.23595534781E-01  0.00000000000E+00 0. -1.
     999901    1    3    3    0    0  0.97831419547E-01  0.71471968366E-01 -0.17490401929E-01  0.88847349036E+00  0.88000000000E+00 0. -1.
        -11    1    4    4    0    0 -0.90890076687E-01 -0.47754423435E-01  0.21605751079E-01  0.10492168793E+00  0.51100000000E-03 0.  1.
         11    1    4    4    0    0 -0.25102392605E-01 -0.86587267878E-02 -0.45122494452E-02  0.26939286927E-01  0.51100000000E-03 0. -1.
</event>
<event>
 8    1  0.1123470E+005  0.1043930E+01  0.7957747E-01            NaN
         13   -1    0    0    0    0  0.00000000000E+00  0.00000000000E+00  0.74505805969E-08  0.10566000000E+00  0.10566000000E+00 0. -1.
     999900   -1    0    0    0    0 -0.00000000000E+00 -0.00000000000E+00 -0.74505805969E-08  0.93827000000E+00  0.93827000000E+00 0.  1.
     999902    2    1    2    0    0  0.21053720282E-01  0.81126173050E-02 -0.24788097722E-02  0.10212315817E+01  0.10209792971E+01 0.  0.
     999903    2    3    3    0    0  0.10229613339E+00  0.81068691234E-01  0.23322634211E-01  0.13410778369E+00  0.20107729214E-01 0.  0.
         14    1    1    2    0    0 -0.21053720282E-01 -0.81126173050E-02  0.24788097722E-02  0.22698418340E-01  0.00000000000E+00 0.  1.
     999901    1    3    3    0    0 -0.81242413112E-01 -0.72956073929E-01 -0.25801443983E-01  0.88712379797E+00  0.88000000000E+00 0. -1.
        -11    1    4    4    0    0  0.78994876114E-01  0.64485080794E-01  0.97291202779E-02  0.10243745897E+00  0.51100000000E-03 0. -1.
         11    1    4    4    0    0  0.23301257280E-01  0.16583610440E-01  0.13593513933E-01  0.31670324724E-01  0.51100000000E-03 0.  1.
</event>
<event>
 8    1  0.1123470E+005  0.1043930E+01  0.7957747E-01            NaN
         13   -1    0    0    0    0  0.00000000000E+00  0.00000000000E+00  0.74505805969E-08  0.10566000000E+00  0.10566000000E+00 0. -1.
     999900   -1    0    0    0    0 -0.00000000000E+00 -0.00000000000E+00 -0.74505805969E-08  0.93827000000E+00  0.93827000000E+00 0. -1.
     999902    2    1    2    0    0 -0.20672639537E-01 -0.11310762071E-01 -0.24701552330E-02  0.10202362660E+01  0.10199611000E+01 0.  0.
     999903    2    3    3    0    0 -0.55869588804E-01 -0.82977941609E-01 -0.85130241799E-01  0.13276361866E+00  0.19294315863E-01 0.  0.
         14    1    1    2    0    0  0.20672639537E-01  0.11310762071E-01  0.24701552330E-02  0.23693734001E-01  0.00000000000E+00 0.  1.
     999901    1    3    3    0    0  0.35196949267E-01  0.71667179538E-01  0.82660086566E-01  0.88747264734E+00  0.88000000000E+00 0.  1.
        -11    1    4    4    0    0 -0.45479653919E-01 -0.56811552248E-01 -0.52928118582E-01  0.89986655939E-01  0.51100000000E-03 0.  1.
         11    1    4    4    0    0 -0.10389934885E-01 -0.26166389361E-01 -0.32202123217E-01  0.42776962723E-01  0.51100000000E-03 0. -1.
</event>
<event>
 8    1  0.1123470E+005  0.1043930E+01  0.7957747E-01            NaN
         13   -1    0    0    0    0  0.00000000000E+00  0.00000000000E+00  0.74505805969E-08  0.10566000000E+00  0.10566000000E+00 0.  1.
     999900   -1    0    0    0    0 -0.00000000000E+00 -0.00000000000E+00 -0.74505805969E-08  0.93827000000E+00  0.93827000000E+00 0. -1.
     999902    2    1    2    0    0 -0.97020384550E-02  0.10110017559E-01  0.19120098171E-01  0.10202251448E+01  0.10199497174E+01 0.  0.
     999903    2    3    3    0    0  0.59009277736E-01  0.67715163602E-01  0.95272739326E-01  0.13239699558E+00  0.19612020265E-01 0.  0.
         14    1    1    2    0    0  0.97020384550E-02 -0.10110017559E-01 -0.19120098171E-01  0.23704855184E-01  0.00000000000E+00 0. -1.
     999901    1    3    3    0    0 -0.68711316191E-01 -0.57605146043E-01 -0.76152641155E-01  0.88782814924E+00  0.88000000000E+00 0.  1.
        -11    1    4    4    0    0  0.39385859000E-01  0.43435341661E-01  0.48164471278E-01  0.75881171636E-01  0.51100000000E-03 0.  1.
         11    1    4    4    0    0  0.19623418736E-01  0.24279821941E-01  0.47108268048E-01  0.56515823942E-01  0.51100000000E-03 0. -1.
</event>
<event>
 8    1  0.1123470E+005  0.1043930E+01  0.7957747E-01            NaN
         13   -1    0    0    0    0  0.00000000000E+00  0.00000000000E+00  0.74505805969E-08  0.10566000000E+00  0.10566000000E+00 0. -1.
     999900   -1    0    0    0    0 -0.00000000000E+00 -0.00000000000E+00 -0.74505805969E-08  0.93827000000E+00  0.93827000000E+00 0.  1.
     999902    2    1    2    0    0 -0.52484981321E-02 -0.57528376000E-02 -0.20130512817E-01  0.10223457599E+01  0.10221178863E+01 0.  0.
     999903    2    3    3    0    0 -0.20460662575E-01  0.12261733888E+00  0.36595858475E-01  0.13109484501E+00  0.19822992292E-01 0.  0.
         14    1    1    2    0    0  0.52484981321E-02  0.57528376000E-02  0.20130512817E-01  0.21584240069E-01  0.00000000000E+00 0. -1.
     999901    1    3    3    0    0  0.15212164443E-01 -0.12837017648E+00 -0.56726371291E-01  0.89125091493E+00  0.88000000000E+00 0.  1.
        -11    1    4    4    0    0 -0.17468162802E-01  0.80465072445E-01  0.15222828645E-01  0.83736253965E-01  0.51100000000E-03 0.  1.
         11    1    4    4    0    0 -0.29924997735E-02  0.42152266432E-01  0.21373029829E-01  0.47358591040E-01  0.51100000000E-03 0. -1.
</event>
<event>
 8    1  0.1123470E+005  0.1043930E+01  0.7957747E-01            NaN
         13   -1    0    0    0    0  0.00000000000E+00  0.00000000000E+00  0.74505805969E-08  0.10566000000E+00  0.10566000000E+00 0.  1.
     999900   -1    0    0    0    0 -0.00000000000E+00 -0.00000000000E+00 -0.74505805969E-08  0.93827000000E+00  0.93827000000E+00 0.  1.
     999902    2    1    2    0    0 -0.33508966915E-02  0.21677474220E-01  0.10118043000E-01  0.10197739202E+01  0.10194877793E+01 0.  0.
     999903    2    3    3    0    0 -0.90894797167E-01  0.13751579660E-01  0.92068806536E-01  0.13160575934E+00  0.19810115094E-01 0.  0.
         14    1    1    2    0    0  0.33508966915E-02 -0.21677474220E-01 -0.10118043000E-01  0.24156079801E-01  0.00000000000E+00 0. -1.
     999901    1    3    3    0    0  0.87543900476E-01  0.79258945598E-02 -0.81950763536E-01  0.88816816086E+00  0.88000000000E+00 0.  1.
        -11    1    4    4    0    0 -0.71408704522E-01  0.55937094835E-02  0.79542688655E-01  0.10704108140E+00  0.51100000000E-03 0. -1.
         11    1    4    4    0    0 -0.19486092646E-01  0.81578701764E-02  0.12526117881E-01  0.24564677946E-01  0.51100000000E-03 0.  1.
</event>
<event>
 8    1  0.1123470E+005  0.1043930E+01  0.7957747E-01            NaN
         13   -1    0    0    0    0  0.00000000000E+00  0.00000000000E+00  0.74505805969E-08  0.10566000000E+00  0.10566000000E+00 0. -1.
     999900   -1    0    0    0    0 -0.00000000000E+00 -0.00000000000E+00 -0.74505805969E-08  0.93827000000E+00  0.93827000000E+00 0. -1.
     999902    2    1    2    0    0 -0.15261051842E-01 -0.17348967556E-01  0.43073811536E-02  0.10204259597E+01  0.10201552329E+01 0.  0.
     999903    2    3    3    0    0  0.25267887269E-01  0.10444757932E+00 -0.66993037790E-01  0.12825963916E+00  0.20364306359E-01 0.  0.
         14    1    1    2    0    0  0.15261051842E-01  0.17348967556E-01 -0.43073811536E-02  0.23504040312E-01  0.00000000000E+00 0.  1.
     999901    1    3    3    0    0 -0.40528939112E-01 -0.12179654687E+00  0.71300418944E-01  0.89216632052E+00  0.88000000000E+00 0.  1.
        -11    1    4    4    0    0  0.23835974940E-01  0.66065436894E-01 -0.36124881415E-01  0.78981414470E-01  0.51100000000E-03 0.  1.
         11    1    4    4    0    0  0.14319123289E-02  0.38382142424E-01 -0.30868156375E-01  0.49278224694E-01  0.51100000000E-03 0. -1.
</event>
<event>
 8    1  0.1123470E+005  0.1043930E+01  0.7957747E-01            NaN
         13   -1    0    0    0    0  0.00000000000E+00  0.00000000000E+00  0.74505805969E-08  0.10566000000E+00  0.10566000000E+00 0. -1.
     999900   -1    0    0    0    0 -0.00000000000E+00 -0.00000000000E+00 -0.74505805969E-08  0.93827000000E+00  0.93827000000E+00 0.  1.
     999902    2    1    2    0    0 -0.20117270877E-01 -0.85868080480E-02  0.89901055439E-02  0.10202813244E+01  0.10200072162E+01 0.  0.
     999903    2    3    3    0    0  0.65327718017E-01  0.75320340059E-02 -0.10779617378E+00  0.12831736872E+00  0.22823009323E-01 0.  0.
         14    1    1    2    0    0  0.20117270877E-01  0.85868080480E-02 -0.89901055439E-02  0.23648675601E-01  0.00000000000E+00 0. -1.
     999901    1    3    3    0    0 -0.85444988894E-01 -0.16118842054E-01  0.11678627933E+00  0.89196395568E+00  0.88000000000E+00 0.  1.
        -11    1    4    4    0    0  0.83453113358E-02  0.45679536130E-02 -0.32342753021E-01  0.33716838753E-01  0.51100000000E-03 0. -1.
         11    1    4    4    0    0  0.56982406681E-01  0.29640803928E-02 -0.75453420762E-01  0.94600529964E-01  0.51100000000E-03 0.  1.
</event>
<event>
 8    1  0.1123470E+005  0.1043930E+01  0.7957747E-01            NaN
         13   -1    0    0    0    0  0.00000000000E+00  0.00000000000E+00  0.74505805969E-08  0.10566000000E+00  0.10566000000E+00 0.  1.
     999900   -1    0    0    0    0 -0.00000000000E+00 -0.00000000000E+00 -0.74505805969E-08  0.93827000000E+00  0.93827000000E+00 0.  1.
     999902    2    1    2    0    0 -0.21762278319E-01 -0.63781363579E-02  0.10262893087E-01  0.10190381468E+01  0.10187340871E+01 0.  0.
     999903    2    3    3    0    0 -0.20198666759E-01 -0.10971846657E+00 -0.63670101934E-01  0.12991062137E+00  0.19410296712E-01 0.  0.
         14    1    1    2    0    0  0.21762278319E-01  0.63781363579E-02 -0.10262893087E-01  0.24891853197E-01  0.00000000000E+00 0.  1.
     999901    1    3    3    0    0 -0.15636115609E-02  0.10334033022E+00  0.73932995021E-01  0.88912752543E+00  0.88000000000E+00 0. -1.
        -11    1    4    4    0    0 -0.11591452143E-01 -0.69286052787E-01 -0.50512731110E-01  0.86525811171E-01  0.51100000000E-03 0.  1.
         11    1    4    4    0    0 -0.86072146150E-02 -0.40432413786E-01 -0.13157370824E-01  0.43384810199E-01  0.51100000000E-03 0. -1.
</event>
<event>
 8    1  0.1123470E+005  0.1043930E+01  0.7957747E-01            NaN
         13   -1    0    0    0    0  0.00000000000E+00  0.00000000000E+00  0.74505805969E-08  0.10566000000E+00  0.10566000000E+00 0. -1.
     999900   -1    0    0    0    0 -0.00000000000E+00 -0.00000000000E+00 -0.74505805969E-08  0.93827000000E+00  0.93827000000E+00 0. -1.
     999902    2    1    2    0    0  0.21104584102E-01 -0.98829834969E-02  0.40460745061E-02  0.10202773563E+01  0.10200031551E+01 0.  0.
     999903    2    3    3    0    0  0.12968930891E+00 -0.14598841514E-01 -0.18829404935E-01  0.13329586311E+00  0.19514036333E-01 0.  0.
         14    1    1    2    0    0 -0.21104584102E-01  0.98829834969E-02 -0.40460745061E-02  0.23652643654E-01  0.00000000000E+00 0.  1.
     999901    1    3    3    0    0 -0.10858472481E+00  0.47158580170E-02  0.22875479441E-01  0.88698149323E+00  0.88000000000E+00 0. -1.
        -11    1    4    4    0    0  0.11217762334E+00 -0.15182594333E-01 -0.99272071169E-02  0.11363600183E+00  0.51100000000E-03 0.  1.
         11    1    4    4    0    0  0.17511685568E-01  0.58375281905E-03 -0.89021978185E-02  0.19659861286E-01  0.51100000000E-03 0. -1.
</event>
<event>
 8    1  0.1123470E+005  0.1043930E+01  0.7957747E-01            NaN
         13   -1    0    0    0    0  0.00000000000E+00  0.00000000000E+00  0.74505805969E-08  0.10566000000E+00  0.10566000000E+00 0.  1.
     999900   -1    0    0    0    0 -0.00000000000E+00 -0.00000000000E+00 -0.74505805969E-08  0.93827000000E+00  0.93827000000E+00 0.  1.
     999902    2    1    2    0    0  0.15148436576E-01  0.14438247888E-01 -0.10248374374E-01  0.10206283410E+01  0.10203623098E+01 0.  0.
     999903    2    3    3    0    0  0.12875935631E+00 -0.21396938775E-01 -0.11255173437E-01  0.13260096797E+00  0.20482601176E-01 0.  0.
         14    1    1    2    0    0 -0.15148436576E-01 -0.14438247888E-01  0.10248374374E-01  0.23301658956E-01  0.00000000000E+00 0.  1.
     999901    1    3    3    0    0 -0.11361091973E+00  0.35835186663E-01  0.10067990621E-02  0.88802737308E+00  0.88000000000E+00 0.  1.
        -11    1    4    4    0    0  0.28902097073E-01  0.30979989503E-02 -0.57459059601E-02  0.29634530012E-01  0.51100000000E-03 0. -1.
         11    1    4    4    0    0  0.99857259237E-01 -0.24494937725E-01 -0.55092674765E-02  0.10296643796E+00  0.51100000000E-03 0.  1.
</event>
<event>
 8    1  0.1123470E+005  0.1043930E+01  0.7957747E-01            NaN
         13   -1    0    0    0    0  0.00000000000E+00  0.00000000000E+00  0.74505805969E-08  0.10566000000E+00  0.10566000000E+00 0.  1.
     999900   -1    0    0    0    0 -0.00000000000E+00 -0.00000000000E+00 -0.74505805969E-08  0.93827000000E+00  0.93827000000E+00 0.  1.
     999902    2    1    2    0    0 -0.18421943070E-01  0.15417935764E-01 -0.15275270120E-02  0.10198589787E+01  0.10195748733E+01 0.  0.
     999903    2    3    3    0    0  0.10928014309E+00  0.58232552361E-01 -0.30778387274E-01  0.12913089050E+00  0.19856936596E-01 0.  0.
         14    1    1    2    0    0  0.18421943070E-01 -0.15417935764E-01  0.15275270120E-02  0.24071021342E-01  0.00000000000E+00 0. -1.
     999901    1    3    3    0    0 -0.12770208616E+00 -0.42814616596E-01  0.29250860262E-01  0.89072808816E+00  0.88000000000E+00 0. -1.
        -11    1    4    4    0    0  0.56996732766E-01  0.27436389079E-01 -0.25554373151E-01  0.68225142725E-01  0.51100000000E-03 0.  1.
         11    1    4    4    0    0  0.52283410322E-01  0.30796163281E-01 -0.52240141226E-02  0.60905747777E-01  0.51100000000E-03 0. -1.
</event>
<event>
 8    1  0.1123470E+005  0.1043930E+01  0.7957747E-01            NaN
         13   -1    0    0    0    0  0.00000000000E+00  0.00000000000E+00  0.74505805969E-08  0.10566000000E+00  0.10566000000E+00 0.  1.
     999900   -1    0    0    0    0 -0.00000000000E+00 -0.00000000000E+00 -0.74505805969E-08  0.93827000000E+00  0.93827000000E+00 0. -1.
     999902    2    1    2    0    0 -0.21220608330E-01  0.11459380748E-01 -0.24067368521E-02  0.10196931684E+01  0.10194050881E+01 0.  0.
     999903    2    3    3    0    0  0.10553587596E+00  0.23337927201E-01 -0.66254232679E-01  0.12824221128E+00  0.19338082801E-01 0.  0.
         14    1    1    2    0    0  0.21220608330E-01 -0.11459380748E-01  0.24067368521E-02  0.24236831627E-01  0.00000000000E+00 0. -1.
     999901    1    3    3    0    0 -0.12675648429E+00 -0.11878546452E-01  0.63847495827E-01  0.89145095709E+00  0.88000000000E+00 0. -1.
        -11    1    4    4    0    0  0.75236182165E-01  0.86697428464E-02 -0.50815988078E-01  0.91204020269E-01  0.51100000000E-03 0.  1.
         11    1    4    4    0    0  0.30299693793E-01  0.14668184354E-01 -0.15438244600E-01  0.37038191013E-01  0.51100000000E-03 0. -1.
</event>
<event>
 8    1  0.1123470E+005  0.1043930E+01  0.7957747E-01            NaN
         13   -1    0    0    0    0  0.00000000000E+00  0.00000000000E+00  0.74505805969E-08  0.10566000000E+00  0.10566000000E+00 0.  1.
     999900   -1    0    0    0    0 -0.00000000000E+00 -0.00000000000E+00 -0.74505805969E-08  0.93827000000E+00  0.93827000000E+00 0.  1.
     999902    2    1    2    0    0  0.28901390486E-02 -0.15259685605E-01  0.17300357951E-01  0.10206810582E+01  0.10204162432E+01 0.  0.
     999903    2    3    3    0    0  0.81136190491E-01 -0.84477195434E-01 -0.56294914282E-01  0.13145118225E+00  0.19769116938E-01 0.  0.
         14    1    1    2    0    0 -0.28901390486E-02  0.15259685605E-01 -0.17300357951E-01  0.23248941776E-01  0.00000000000E+00 0. -1.
     999901    1    3    3    0    0 -0.78246051442E-01  0.69217509830E-01  0.73595272233E-01  0.88922987598E+00  0.88000000000E+00 0. -1.
        -11    1    4    4    0    0  0.67926172368E-01 -0.78856466629E-01 -0.52611203803E-01  0.11662121209E+00  0.51100000000E-03 0. -1.
         11    1    4    4    0    0  0.13210018123E-01 -0.56207288056E-02 -0.36837104791E-02  0.14829970162E-01  0.51100000000E-03 0.  1.
</event>
<event>
 8    1  0.1123470E+005  0.1043930E+01  0.7957747E-01            NaN
         13   -1    0    0    0    0  0.00000000000E+00  0.00000000000E+00  0.74505805969E-08  0.10566000000E+00  0.10566000000E+00 0. -1.
     999900   -1    0    0    0    0 -0.00000000000E+00 -0.00000000000E+00 -0.74505805969E-08  0.93827000000E+00  0.93827000000E+00 0.  1.
     999902    2    1    2    0    0  0.13897141849E-01 -0.88865237206E-02 -0.17832485963E-01  0.10196380587E+01  0.10193486510E+01 0.  0.
     999903    2    3    3    0    0 -0.73381700817E-01  0.41702386632E-01 -0.97283022952E-01  0.13031853119E+00  0.19873850922E-01 0.  0.
         14    1    1    2    0    0 -0.13897141849E-01  0.88865237206E-02  0.17832485963E-01  0.24291941277E-01  0.00000000000E+00 0.  1.
     999901    1    3    3    0    0  0.87278842666E-01 -0.50588910353E-01  0.79450536990E-01  0.88931952754E+00  0.88000000000E+00 0. -1.
        -11    1    4    4    0    0 -0.39903425063E-01  0.32759805507E-01 -0.51797903144E-01  0.73135299820E-01  0.51100000000E-03 0.  1.
         11    1    4    4    0    0 -0.33478275754E-01  0.89425811249E-02 -0.45485119808E-01  0.57183231367E-01  0.51100000000E-03 0. -1.
</event>
<event>
 8    1  0.1123470E+005  0.1043930E+01  0.7957747E-01            NaN
         13   -1    0    0    0    0  0.00000000000E+00  0.00000000000E+00  0.74505805969E-08  0.10566000000E+00  0.10566000000E+00 0.  1.
     999900   -1    0    0    0    0 -0.00000000000E+00 -0.00000000000E+00 -0.74505805969E-08  0.93827000000E+00  0.93827000000E+00 0. -1.
     999902    2    1    2    0    0  0.16589937754E-01 -0.15181293507E-01 -0.56275420326E-02  0.10207488237E+01  0.10204855678E+01 0.  0.
     999903    2    3    3    0    0 -0.13853275778E-01 -0.88264611527E-02  0.12748798322E+00  0.13019454895E+00  0.20678854972E-01 0.  0.
         14    1    1    2    0    0 -0.16589937754E-01  0.15181293507E-01  0.56275420326E-02  0.23181176341E-01  0.00000000000E+00 0.  1.
     999901    1    3    3    0    0  0.30443213532E-01 -0.63548323546E-02 -0.13311552526E+00  0.89055427471E+00  0.88000000000E+00 0. -1.
        -11    1    4    4    0    0 -0.64560456730E-02 -0.13366453263E-01  0.10565878931E+00  0.10669762639E+00  0.51100000000E-03 0. -1.
         11    1    4    4    0    0 -0.73972301046E-02  0.45399921102E-02  0.21829193912E-01  0.23496922552E-01  0.51100000000E-03 0.  1.
</event>
<event>
 8    1  0.1123470E+005  0.1043930E+01  0.7957747E-01            NaN
         13   -1    0    0    0    0  0.00000000000E+00  0.00000000000E+00  0.74505805969E-08  0.10566000000E+00  0.10566000000E+00 0.  1.
     999900   -1    0    0    0    0 -0.00000000000E+00 -0.00000000000E+00 -0.74505805969E-08  0.93827000000E+00  0.93827000000E+00 0.  1.
     999902    2    1    2    0    0  0.12083114805E-01 -0.13234478817E-01 -0.14858796934E-01  0.10206504609E+01  0.10203849403E+01 0.  0.
     999903    2    3    3    0    0  0.63055930518E-01  0.69421028040E-01  0.87021154174E-01  0.12946603266E+00  0.19835393392E-01 0.  0.
         14    1    1    2    0    0 -0.12083114805E-01  0.13234478817E-01  0.14858796934E-01  0.23279539070E-01  0.00000000000E+00 0. -1.
     999901    1    3    3    0    0 -0.50972815713E-01 -0.82655506857E-01 -0.10187995111E+00  0.89118442827E+00  0.88000000000E+00 0.  1.
        -11    1    4    4    0    0  0.23701507792E-01  0.13986107867E-01  0.30201866954E-01  0.40863022079E-01  0.51100000000E-03 0. -1.
         11    1    4    4    0    0  0.39354422726E-01  0.55434920173E-01  0.56819287220E-01  0.88603010580E-01  0.51100000000E-03 0.  1.
</event>
<event>
 8    1  0.1123470E+005  0.1043930E+01  0.7957747E-01            NaN
         13   -1    0    0    0    0  0.00000000000E+00  0.00000000000E+00  0.74505805969E-08  0.10566000000E+00  0.10566000000E+00 0. -1.
     999900   -1    0    0    0    0 -0.00000000000E+00 -0.00000000000E+00 -0.74505805969E-08  0.93827000000E+00  0.93827000000E+00 0.  1.
     999902    2    1    2    0    0 -0.77683714717E-02 -0.18607634399E-01  0.79955070719E-02  0.10222385319E+01  0.10220083642E+01 0.  0.
     999903    2    3    3    0    0 -0.69056689552E-01 -0.11132737789E+00 -0.24312567189E-01  0.13465922820E+00  0.19478074241E-01 0.  0.
         14    1    1    2    0    0  0.77683714717E-02  0.18607634399E-01 -0.79955070719E-02  0.21691468059E-01  0.00000000000E+00 0.  1.
     999901    1    3    3    0    0  0.61288318080E-01  0.92719743493E-01  0.32308074261E-01  0.88757930374E+00  0.88000000000E+00 0. -1.
        -11    1    4    4    0    0 -0.23247460951E-01 -0.29114884751E-01 -0.14695116965E-01  0.40054070185E-01  0.51100000000E-03 0. -1.
         11    1    4    4    0    0 -0.45809228600E-01 -0.82212493140E-01 -0.96174502244E-02  0.94605158015E-01  0.51100000000E-03 0.  1.
</event>
<event>
 8    1  0.1123470E+005  0.1043930E+01  0.7957747E-01            NaN
         13   -1    0    0    0    0  0.00000000000E+00  0.00000000000E+00  0.74505805969E-08  0.10566000000E+00  0.10566000000E+00 0.  1.
     999900   -1    0    0    0    0 -0.00000000000E+00 -0.00000000000E+00 -0.74505805969E-08  0.93827000000E+00  0.93827000000E+00 0. -1.
     999902    2    1    2    0    0  0.55974654816E-02  0.21711337070E-01 -0.44105648350E-02  0.10210790294E+01  0.10208233037E+01 0.  0.
     999903    2    3    3    0    0 -0.85406098635E-01 -0.94346410013E-01  0.13527960081E-03  0.12879448167E+00  0.19812961451E-01 0.  0.
         14    1    1    2    0    0 -0.55974654816E-02 -0.21711337070E-01  0.44105648350E-02  0.22850970643E-01  0.00000000000E+00 0.  1.
     999901    1    3    3    0    0  0.91003564116E-01  0.11605774708E+00 -0.45458444358E-02  0.89228454769E+00  0.88000000000E+00 0.  1.
        -11    1    4    4    0    0 -0.47785014141E-01 -0.38091048687E-01  0.65045502162E-03  0.61114808183E-01  0.51100000000E-03 0.  1.
         11    1    4    4    0    0 -0.37621084494E-01 -0.56255361327E-01 -0.51517542081E-03  0.67679673486E-01  0.51100000000E-03 0. -1.
</event>
<event>
 8    1  0.1123470E+005  0.1043930E+01  0.7957747E-01            NaN
         13   -1    0    0    0    0  0.00000000000E+00  0.00000000000E+00  0.74505805969E-08  0.10566000000E+00  0.10566000000E+00 0. -1.
     999900   -1    0    0    0    0 -0.00000000000E+00 -0.00000000000E+00 -0.74505805969E-08  0.93827000000E+00  0.93827000000E+00 0.  1.
     999902    2    1    2    0    0  0.24499216133E-01  0.19721997192E-01 -0.91539190364E-03  0.10124656280E+01  0.10119766011E+01 0.  0.
     999903    2    3    3    0    0 -0.34502128721E-01  0.71808354457E-01 -0.93005307049E-01  0.12416686080E+00  0.20508181888E-01 0.  0.
         14    1    1    2    0    0 -0.24499216133E-01 -0.19721997192E-01  0.91539190364E-03  0.31464372022E-01  0.00000000000E+00 0.  1.
     999901    1    3    3    0    0  0.59001344855E-01 -0.52086357265E-01  0.92089915145E-01  0.88829876718E+00  0.88000000000E+00 0.  1.
        -11    1    4    4    0    0 -0.20766369255E-01  0.46620627276E-01 -0.73452534336E-01  0.89444177569E-01  0.51100000000E-03 0.  1.
         11    1    4    4    0    0 -0.13735759467E-01  0.25187727181E-01 -0.19552772713E-01  0.34722683227E-01  0.51100000000E-03 0. -1.
</event>
<event>
 8    1  0.1123470E+005  0.1043930E+01  0.7957747E-01            NaN
         13   -1    0    0    0    0  0.00000000000E+00  0.00000000000E+00  0.74505805969E-08  0.10566000000E+00  0.10566000000E+00 0. -1.
     999900   -1    0    0    0    0 -0.00000000000E+00 -0.00000000000E+00 -0.74505805969E-08  0.93827000000E+00  0.93827000000E+00 0.  1.
     999902    2    1    2    0    0  0.13116848490E-01  0.19517099662E-01  0.13632353377E-02  0.10203752276E+01  0.10201033172E+01 0.  0.
     999903    2    3    3    0    0  0.11092834006E+00 -0.63111421739E-01 -0.19557863934E-01  0.13086285957E+00  0.21317358892E-01 0.  0.
         14    1    1    2    0    0 -0.13116848490E-01 -0.19517099662E-01 -0.13632353377E-02  0.23554772428E-01  0.00000000000E+00 0.  1.
     999901    1    3    3    0    0 -0.97811491573E-01  0.82628521401E-01  0.20921099272E-01  0.88951236800E+00  0.88000000000E+00 0.  1.
        -11    1    4    4    0    0  0.53484504869E-01 -0.29173966327E-01 -0.20046568988E-01  0.64139212822E-01  0.51100000000E-03 0. -1.
         11    1    4    4    0    0  0.57443835195E-01 -0.33937455412E-01  0.48870505352E-03  0.66723646748E-01  0.51100000000E-03 0.  1.
</event>
<event>
 8    1  0.1123470E+005  0.1043930E+01  0.7957747E-01            NaN
         13   -1    0    0    0    0  0.00000000000E+00  0.00000000000E+00  0.74505805969E-08  0.10566000000E+00  0.10566000000E+00 0.  1.
     999900   -1    0    0    0    0 -0.00000000000E+00 -0.00000000000E+00 -0.74505805969E-08  0.93827000000E+00  0.93827000000E+00 0.  1.
     999902    2    1    2    0    0 -0.22705676621E-02 -0.23486732799E-01  0.20841289474E-02  0.10202419083E+01  0.10199668748E+01 0.  0.
     999903    2    3    3    0    0 -0.42796160787E-01 -0.12409268045E+00  0.14350245010E-01  0.13349823733E+00  0.19630209345E-01 0.  0.
         14    1    1    2    0    0  0.22705676621E-02  0.23486732799E-01 -0.20841289474E-02  0.23688091703E-01  0.00000000000E+00 0. -1.
     999901    1    3    3    0    0  0.40525593125E-01  0.10060594765E+00 -0.12266116063E-01  0.88674367097E+00  0.88000000000E+00 0.  1.
        -11    1    4    4    0    0 -0.13859181020E-01 -0.62132927424E-01  0.19216260580E-03  0.63662199273E-01  0.51100000000E-03 0.  1.
         11    1    4    4    0    0 -0.28936979766E-01 -0.61959753024E-01  0.14158082404E-01  0.69836038055E-01  0.51100000000E-03 0. -1.
</event>
<event>
 8    1  0.1123470E+005  0.1043930E+01  0.7957747E-01            NaN
         13   -1    0    0    0    0  0.00000000000E+00  0.00000000000E+00  0.74505805969E-08  0.10566000000E+00  0.10566000000E+00 0.  1.
     999900   -1    0    0    0    0 -0.00000000000E+00 -0.00000000000E+00 -0.74505805969E-08  0.93827000000E+00  0.93827000000E+00 0.  1.
     999902    2    1    2    0    0  0.76201780206E-02 -0.20917420567E-01  0.24099173882E-02  0.10215377402E+01  0.10212922899E+01 0.  0.
     999903    2    3    3    0    0 -0.69235260619E-01 -0.95054527316E-01  0.59235037904E-01  0.13326291599E+00  0.20526338820E-01 0.  0.
         14    1    1    2    0    0 -0.76201780206E-02  0.20917420567E-01 -0.24099173882E-02  0.22392259781E-01  0.00000000000E+00 0.  1.
     999901    1    3    3    0    0  0.76855438640E-01  0.74137106748E-01 -0.56825120515E-01  0.88827482423E+00  0.88000000000E+00 0.  1.
        -11    1    4    4    0    0 -0.24103678608E-01 -0.19838542172E-01  0.10653247063E-01  0.32989511544E-01  0.51100000000E-03 0. -1.
         11    1    4    4    0    0 -0.45131582011E-01 -0.75215985144E-01  0.48581790841E-01  0.10027340444E+00  0.51100000000E-03 0.  1.
</event>
<event>
 8    1  0.1123470E+005  0.1043930E+01  0.7957747E-01            NaN
         13   -1    0    0    0    0  0.00000000000E+00  0.00000000000E+00  0.74505805969E-08  0.10566000000E+00  0.10566000000E+00 0.  1.
     999900   -1    0    0    0    0 -0.00000000000E+00 -0.00000000000E+00 -0.74505805969E-08  0.93827000000E+00  0.93827000000E+00 0. -1.
     999902    2    1    2    0    0  0.18804006777E-01 -0.16057119923E-01  0.25968444040E-02  0.10190670683E+01  0.10187637235E+01 0.  0.
     999903    2    3    3    0    0 -0.72893770518E-01 -0.90178915484E-01 -0.53594436696E-01  0.12942670108E+00  0.20812705977E-01 0.  0.
         14    1    1    2    0    0 -0.18804006777E-01  0.16057119923E-01 -0.25968444040E-02  0.24862931685E-01  0.00000000000E+00 0.  1.
     999901    1    3    3    0    0  0.91697777296E-01  0.74121795561E-01  0.56191281100E-01  0.88964036723E+00  0.88000000000E+00 0.  1.
        -11    1    4    4    0    0 -0.26081718679E-01 -0.31917054766E-01 -0.30235526023E-01  0.51121449403E-01  0.51100000000E-03 0. -1.
         11    1    4    4    0    0 -0.46812051839E-01 -0.58261860718E-01 -0.23358910672E-01  0.78305251679E-01  0.51100000000E-03 0.  1.
</event>
<event>
 8    1  0.1123470E+005  0.1043930E+01  0.7957747E-01            NaN
         13   -1    0    0    0    0  0.00000000000E+00  0.00000000000E+00  0.74505805969E-08  0.10566000000E+00  0.10566000000E+00 0. -1.
     999900   -1    0    0    0    0 -0.00000000000E+00 -0.00000000000E+00 -0.74505805969E-08  0.93827000000E+00  0.93827000000E+00 0.  1.
     999902    2    1    2    0    0  0.15159425590E-01  0.19596667920E-01  0.10539318337E-01  0.10170057580E+01  0.10166492989E+01 0.  0.
     999903    2    3    3    0    0 -0.96829709308E-01  0.45932857732E-02  0.79176819180E-01  0.12713061261E+00  0.22274045171E-01 0.  0.
         14    1    1    2    0    0 -0.15159425590E-01 -0.19596667920E-01 -0.10539318337E-01  0.26924242028E-01  0.00000000000E+00 0.  1.
     999901    1    3    3    0    0  0.11198913490E+00  0.15003382147E-01 -0.68637500843E-01  0.88987514536E+00  0.88000000000E+00 0.  1.
        -11    1    4    4    0    0 -0.35911826238E-02 -0.32205091031E-02  0.49012841883E-03  0.48754095610E-02  0.51100000000E-03 0.  1.
         11    1    4    4    0    0 -0.93238526684E-01  0.78137948764E-02  0.78686690761E-01  0.12225520305E+00  0.51100000000E-03 0. -1.
</event>
<event>
 8    1  0.1123470E+005  0.1043930E+01  0.7957747E-01            NaN
         13   -1    0    0    0    0  0.00000000000E+00  0.00000000000E+00  0.74505805969E-08  0.10566000000E+00  0.10566000000E+00 0. -1.
     999900   -1    0    0    0    0 -0.00000000000E+00 -0.00000000000E+00 -0.74505805969E-08  0.93827000000E+00  0.93827000000E+00 0. -1.
     999902    2    1    2    0    0  0.13399414650E-02  0.23907668748E-01 -0.38415482906E-02  0.10196786173E+01  0.10193901869E+01 0.  0.
     999903    2    3    3    0    0 -0.33325755642E-01  0.47861569827E-01 -0.11598415789E+00  0.13156180924E+00  0.21327187173E-01 0.  0.
         14    1    1    2    0    0 -0.13399414650E-02 -0.23907668748E-01  0.38415482906E-02  0.24251382669E-01  0.00000000000E+00 0.  1.
     999901    1    3    3    0    0  0.34665697107E-01 -0.23953901079E-01  0.11214260960E+00  0.88811680809E+00  0.88000000000E+00 0.  1.
        -11    1    4    4    0    0 -0.22643593808E-01  0.44441294303E-01 -0.84355732977E-01  0.97999549932E-01  0.51100000000E-03 0. -1.
         11    1    4    4    0    0 -0.10682161834E-01  0.34202755236E-02 -0.31628424913E-01  0.33562259304E-01  0.51100000000E-03 0.  1.
</event>
<event>
 8    1  0.1123470E+005  0.1043930E+01  0.7957747E-01            NaN
         13   -1    0    0    0    0  0.00000000000E+00  0.00000000000E+00  0.74505805969E-08  0.10566000000E+00  0.10566000000E+00 0. -1.
     999900   -1    0    0    0    0 -0.00000000000E+00 -0.00000000000E+00 -0.74505805969E-08  0.93827000000E+00  0.93827000000E+00 0. -1.
     999902    2    1    2    0    0 -0.11688813205E-01 -0.21322757162E-01  0.27843480289E-02  0.10194546875E+01  0.10191608406E+01 0.  0.
     999903    2    3    3    0    0 -0.29876370700E-01  0.81961200962E-01  0.92461281122E-01  0.12870201950E+00  0.20121762523E-01 0.  0.
         14    1    1    2    0    0  0.11688813205E-01  0.21322757162E-01 -0.27843480289E-02  0.24475312482E-01  0.00000000000E+00 0. -1.
     999901    1    3    3    0    0  0.18187557495E-01 -0.10328395812E+00 -0.89676933093E-01  0.89075266802E+00  0.88000000000E+00 0. -1.
        -11    1    4    4    0    0 -0.13706517882E-01  0.39309037307E-01  0.58631440218E-01  0.71909498326E-01  0.51100000000E-03 0. -1.
         11    1    4    4    0    0 -0.16169852818E-01  0.42652163654E-01  0.33829840905E-01  0.56792521173E-01  0.51100000000E-03 0.  1.
</event>
<event>
 8    1  0.1123470E+005  0.1043930E+01  0.7957747E-01            NaN
         13   -1    0    0    0    0  0.00000000000E+00  0.00000000000E+00  0.74505805969E-08  0.10566000000E+00  0.10566000000E+00 0.  1.
     999900   -1    0    0    0    0 -0.00000000000E+00 -0.00000000000E+00 -0.74505805969E-08  0.93827000000E+00  0.93827000000E+00 0. -1.
     999902    2    1    2    0    0  0.57324368660E-02 -0.13340876014E-01  0.11032899886E-01  0.10256936439E+01  0.10255315141E+01 0.  0.
     999903    2    3    3    0    0  0.16171561273E-03  0.57773544029E-01 -0.11849631688E+00  0.13335620115E+00  0.20116926430E-01 0.  0.
         14    1    1    2    0    0 -0.57324368660E-02  0.13340876014E-01 -0.11032899886E-01  0.18236356136E-01  0.00000000000E+00 0. -1.
     999901    1    3    3    0    0  0.55707212532E-02 -0.71114420042E-01  0.12952921677E+00  0.89233744271E+00  0.88000000000E+00 0.  1.
        -11    1    4    4    0    0 -0.38070658123E-02  0.33443993181E-01 -0.47649770416E-01  0.58341718965E-01  0.51100000000E-03 0.  1.
         11    1    4    4    0    0  0.39687814250E-02  0.24329550847E-01 -0.70846546465E-01  0.75014482185E-01  0.51100000000E-03 0. -1.
</event>
<event>
 8    1  0.1123470E+005  0.1043930E+01  0.7957747E-01            NaN
         13   -1    0    0    0    0  0.00000000000E+00  0.00000000000E+00  0.74505805969E-08  0.10566000000E+00  0.10566000000E+00 0. -1.
     999900   -1    0    0    0    0 -0.00000000000E+00 -0.00000000000E+00 -0.74505805969E-08  0.93827000000E+00  0.93827000000E+00 0.  1.
     999902    2    1    2    0    0 -0.30876457925E-02 -0.17430282616E-01  0.14159900134E-01  0.10212617164E+01  0.10210101088E+01 0.  0.
     999903    2    3    3    0    0 -0.68547590452E-01  0.11461368976E-01  0.11180318033E+00  0.13297463329E+00  0.18766108585E-01 0.  0.
         14    1    1    2    0    0  0.30876457925E-02  0.17430282616E-01 -0.14159900134E-01  0.22668283579E-01  0.00000000000E+00 0.  1.
     999901    1    3    3    0    0  0.65459944660E-01 -0.28891651592E-01 -0.97643280196E-01  0.88828708313E+00  0.88000000000E+00 0.  1.
        -11    1    4    4    0    0 -0.35454226569E-01  0.92963658361E-02  0.74688801372E-01  0.83199175301E-01  0.51100000000E-03 0.  1.
         11    1    4    4    0    0 -0.33093363883E-01  0.21650031397E-02  0.37114378958E-01  0.49775457990E-01  0.51100000000E-03 0. -1.
</event>
<event>
 8    1  0.1123470E+005  0.1043930E+01  0.7957747E-01            NaN
         13   -1    0    0    0    0  0.00000000000E+00  0.00000000000E+00  0.74505805969E-08  0.10566000000E+00  0.10566000000E+00 0. -1.
     999900   -1    0    0    0    0 -0.00000000000E+00 -0.00000000000E+00 -0.74505805969E-08  0.93827000000E+00  0.93827000000E+00 0. -1.
     999902    2    1    2    0    0 -0.24782648622E-02  0.73764458205E-02  0.22166950639E-01  0.10204368638E+01  0.10201663911E+01 0.  0.
     999903    2    3    3    0    0  0.28128836924E-01  0.12657487614E+00 -0.70659109030E-02  0.13139264627E+00  0.20041698003E-01 0.  0.
         14    1    1    2    0    0  0.24782648622E-02 -0.73764458205E-02 -0.22166950639E-01  0.23493136238E-01  0.00000000000E+00 0.  1.
     999901    1    3    3    0    0 -0.30607101786E-01 -0.11919843032E+00  0.29232861542E-01  0.88904421750E+00  0.88000000000E+00 0. -1.
        -11    1    4    4    0    0  0.16212040343E-01  0.10496727654E+00 -0.92495644647E-02  0.10661507849E+00  0.51100000000E-03 0.  1.
         11    1    4    4    0    0  0.11916796581E-01  0.21607599598E-01  0.21836535616E-02  0.24777567778E-01  0.51100000000E-03 0. -1.
</event>
<event>
 8    1  0.1123470E+005  0.1043930E+01  0.7957747E-01            NaN
         13   -1    0    0    0    0  0.00000000000E+00  0.00000000000E+00  0.74505805969E-08  0.10566000000E+00  0.10566000000E+00 0.  1.
     999900   -1    0    0    0    0 -0.00000000000E+00 -0.00000000000E+00 -0.74505805969E-08  0.93827000000E+00  0.93827000000E+00 0.  1.
     999902    2    1    2    0    0  0.19049938296E-01  0.10562937796E-01 -0.43504429682E-02  0.10217173424E+01  0.10214758566E+01 0.  0.
     999903    2    3    3    0    0  0.33251460716E-01 -0.99772607744E-01  0.75703172666E-01  0.13110845111E+00  0.19955518185E-01 0.  0.
         14    1    1    2    0    0 -0.19049938296E-01 -0.10562937796E-01  0.43504429682E-02  0.22212657608E-01  0.00000000000E+00 0.  1.
     999901    1    3    3    0    0 -0.14201522420E-01  0.11033554554E+00 -0.80053615635E-01  0.89060889128E+00  0.88000000000E+00 0.  1.
        -11    1    4    4    0    0  0.59590761881E-02 -0.46842572459E-01  0.28906067468E-01  0.55367490832E-01  0.51100000000E-03 0.  1.
         11    1    4    4    0    0  0.27292384528E-01 -0.52930035285E-01  0.46797105198E-01  0.75740960282E-01  0.51100000000E-03 0. -1.
</event>
<event>
 8    1  0.1123470E+005  0.1043930E+01  0.7957747E-01            NaN
         13   -1    0    0    0    0  0.00000000000E+00  0.00000000000E+00  0.74505805969E-08  0.10566000000E+00  0.10566000000E+00 0.  1.
     999900   -1    0    0    0    0 -0.00000000000E+00 -0.00000000000E+00 -0.74505805969E-08  0.93827000000E+00  0.93827000000E+00 0.  1.
     999902    2    1    2    0    0 -0.62225590238E-02  0.12284285925E-01 -0.19297005837E-01  0.10202234955E+01  0.10199480293E+01 0.  0.
     999903    2    3    3    0    0  0.99342890206E-01  0.42720922393E-01 -0.72647254772E-01  0.13178852209E+00  0.19912405286E-01 0.  0.
         14    1    1    2    0    0  0.62225590238E-02 -0.12284285925E-01  0.19297005837E-01  0.23706504503E-01  0.00000000000E+00 0.  1.
     999901    1    3    3    0    0 -0.10556544923E+00 -0.30436636468E-01  0.53350248934E-01  0.88843497341E+00  0.88000000000E+00 0. -1.
        -11    1    4    4    0    0  0.86994382305E-01  0.35634248441E-01 -0.54322559633E-01  0.10857727120E+00  0.51100000000E-03 0. -1.
         11    1    4    4    0    0  0.12348507901E-01  0.70866739514E-02 -0.18324695139E-01  0.23211250893E-01  0.51100000000E-03 0.  1.
</event>
<event>
 8    1  0.1123470E+005  0.1043930E+01  0.7957747E-01            NaN
         13   -1    0    0    0    0  0.00000000000E+00  0.00000000000E+00  0.74505805969E-08  0.10566000000E+00  0.10566000000E+00 0. -1.
     999900   -1    0    0    0    0 -0.00000000000E+00 -0.00000000000E+00 -0.74505805969E-08  0.93827000000E+00  0.93827000000E+00 0. -1.
     999902    2    1    2    0    0  0.19925869759E-01 -0.53982649910E-02  0.14268408308E-01  0.10188348007E+01  0.10185256905E+01 0.  0.
     999903    2    3    3    0    0  0.24747655991E-01  0.12321363569E+00 -0.20636264162E-01  0.12878839364E+00  0.19145454860E-01 0.  0.
         14    1    1    2    0    0 -0.19925869759E-01  0.53982649910E-02 -0.14268408308E-01  0.25095199266E-01  0.00000000000E+00 0.  1.
     999901    1    3    3    0    0 -0.48217862321E-02 -0.12861190068E+00  0.34904672470E-01  0.89004640709E+00  0.88000000000E+00 0.  1.
        -11    1    4    4    0    0  0.93162895167E-02  0.39245261175E-01 -0.15644308855E-01  0.43266491602E-01  0.51100000000E-03 0.  1.
         11    1    4    4    0    0  0.15431366474E-01  0.83968374513E-01 -0.49919553067E-02  0.85521902039E-01  0.51100000000E-03 0. -1.
</event>
<event>
 8    1  0.1123470E+005  0.1043930E+01  0.7957747E-01            NaN
         13   -1    0    0    0    0  0.00000000000E+00  0.00000000000E+00  0.74505805969E-08  0.10566000000E+00  0.10566000000E+00 0.  1.
     999900   -1    0    0    0    0 -0.00000000000E+00 -0.00000000000E+00 -0.74505805969E-08  0.93827000000E+00  0.93827000000E+00 0. -1.
     999902    2    1    2    0    0  0.15970474796E-01  0.14286323869E-01  0.97667123549E-02  0.10203812466E+01  0.10201094768E+01 0.  0.
     999903    2    3    3    0    0 -0.53208765198E-01 -0.68839950819E-01 -0.91789362681E-01  0.12796352989E+00  0.19474762041E-01 0.  0.
         14    1    1    2    0    0 -0.15970474796E-01 -0.14286323869E-01 -0.97667123549E-02  0.23548753366E-01  0.00000000000E+00 0. -1.
     999901    1    3    3    0    0  0.69179239994E-01  0.83126274688E-01  0.10155607504E+00  0.89241771675E+00  0.88000000000E+00 0. -1.
        -11    1    4    4    0    0 -0.43531102207E-01 -0.41892575735E-01 -0.65138844357E-01  0.88844104623E-01  0.51100000000E-03 0.  1.
         11    1    4    4    0    0 -0.96776629907E-02 -0.26947375084E-01 -0.26650518324E-01  0.39119425262E-01  0.51100000000E-03 0. -1.
</event>
<event>
 8    1  0.1123470E+005  0.1043930E+01  0.7957747E-01            NaN
         13   -1    0    0    0    0  0.00000000000E+00  0.00000000000E+00  0.74505805969E-08  0.10566000000E+00  0.10566000000E+00 0.  1.
     999900   -1    0    0    0    0 -0.00000000000E+00 -0.00000000000E+00 -0.74505805969E-08  0.93827000000E+00  0.93827000000E+00 0. -1.
     999902    2    1    2    0    0 -0.13622743118E-01 -0.11732525322E-01  0.14758890808E-01  0.10206693865E+01  0.10204043025E+01 0.  0.
     999903    2    3    3    0    0 -0.30088186295E-01  0.44075817780E-01 -0.11624473674E+00  0.12907102831E+00  0.17277582615E-01 0.  0.
         14    1    1    2    0    0  0.13622743118E-01  0.11732525322E-01 -0.14758890808E-01  0.23260613456E-01  0.00000000000E+00 0. -1.
     999901    1    3    3    0    0  0.16465443177E-01 -0.55808343101E-01  0.13100362755E+00  0.89159835824E+00  0.88000000000E+00 0.  1.
        -11    1    4    4    0    0 -0.23216481735E-02  0.11499779025E-01 -0.39340177042E-01  0.41055396948E-01  0.51100000000E-03 0. -1.
         11    1    4    4    0    0 -0.27766538121E-01  0.32576038754E-01 -0.76904559699E-01  0.88015631360E-01  0.51100000000E-03 0.  1.
</event>
<event>
 8    1  0.1123470E+005  0.1043930E+01  0.7957747E-01            NaN
         13   -1    0    0    0    0  0.00000000000E+00  0.00000000000E+00  0.74505805969E-08  0.10566000000E+00  0.10566000000E+00 0. -1.
     999900   -1    0    0    0    0 -0.00000000000E+00 -0.00000000000E+00 -0.74505805969E-08  0.93827000000E+00  0.93827000000E+00 0.  1.
     999902    2    1    2    0    0  0.62128486559E-02  0.61241839352E-02 -0.24783287097E-01  0.10176561263E+01  0.10173169000E+01 0.  0.
     999903    2    3    3    0    0  0.72569244084E-01 -0.28284677646E-01  0.97237112909E-01  0.12609787307E+00  0.19475607564E-01 0.  0.
         14    1    1    2    0    0 -0.62128486559E-02 -0.61241839352E-02  0.24783287097E-01  0.26273873651E-01  0.00000000000E+00 0. -1.
     999901    1    3    3    0    0 -0.66356395428E-01  0.34408861581E-01 -0.12202040001E+00  0.89155825328E+00  0.88000000000E+00 0.  1.
        -11    1    4    4    0    0  0.17857397611E-01 -0.97089550944E-02  0.13673082172E-01  0.24502341838E-01  0.51100000000E-03 0.  1.
         11    1    4    4    0    0  0.54711846473E-01 -0.18575722552E-01  0.83564030736E-01  0.10159553123E+00  0.51100000000E-03 0. -1.
</event>
<event>
 8    1  0.1123470E+005  0.1043930E+01  0.7957747E-01            NaN
         13   -1    0    0    0    0  0.00000000000E+00  0.00000000000E+00  0.74505805969E-08  0.10566000000E+00  0.10566000000E+00 0.  1.
     999900   -1    0    0    0    0 -0.00000000000E+00 -0.00000000000E+00 -0.74505805969E-08  0.93827000000E+00  0.93827000000E+00 0.  1.
     999902    2    1    2    0    0 -0.16246327351E-01 -0.69640921715E-02 -0.17331069526E-01  0.10191750469E+01  0.10188743635E+01 0.  0.
     999903    2    3    3    0    0 -0.98337575527E-01  0.54715419377E-01  0.61301534559E-01  0.12972216923E+00  0.20147138042E-01 0.  0.
         14    1    1    2    0    0  0.16246327351E-01  0.69640921715E-02  0.17331069526E-01  0.24754953103E-01  0.00000000000E+00 0. -1.
     999901    1    3    3    0    0  0.82091248176E-01 -0.61679511548E-01 -0.78632604086E-01  0.88945287767E+00  0.88000000000E+00 0.  1.
        -11    1    4    4    0    0 -0.33411910294E-01  0.20721111477E-01  0.32371401589E-01  0.50930236325E-01  0.51100000000E-03 0. -1.
         11    1    4    4    0    0 -0.64925665234E-01  0.33994307900E-01  0.28930132971E-01  0.78791932901E-01  0.51100000000E-03 0.  1.
</event>
<event>
 8    1  0.1123470E+005  0.1043930E+01  0.7957747E-01            NaN
         13   -1    0    0    0    0  0.00000000000E+00  0.00000000000E+00  0.74505805969E-08  0.10566000000E+00  0.10566000000E+00 0.  1.
     999900   -1    0    0    0    0 -0.00000000000E+00 -0.00000000000E+00 -0.74505805969E-08  0.93827000000E+00  0.93827000000E+00 0.  1.
     999902    2    1    2    0    0 -0.18501098803E-01 -0.10247569837E-01 -0.11305735609E-01  0.10199482777E+01  0.10196663014E+01 0.  0.
     999903    2    3    3    0    0  0.72913435872E-01 -0.10570074957E+00 -0.51308326780E-02  0.13005724167E+00  0.19988573617E-01 0.  0.
         14    1    1    2    0    0  0.18501098803E-01  0.10247569837E-01  0.11305735609E-01  0.23981722252E-01  0.00000000000E+00 0.  1.
     999901    1    3    3    0    0 -0.91414534675E-01  0.95453179736E-01 -0.61749029310E-02  0.88989103608E+00  0.88000000000E+00 0.  1.
        -11    1    4    4    0    0  0.62725554662E-01 -0.91295315249E-01 -0.11336512047E-01  0.11134678900E+00  0.51100000000E-03 0. -1.
         11    1    4    4    0    0  0.10187881210E-01 -0.14405434324E-01  0.62056793695E-02  0.18710452668E-01  0.51100000000E-03 0.  1.
</event>
<event>
 8    1  0.1123470E+005  0.1043930E+01  0.7957747E-01            NaN
         13   -1    0    0    0    0  0.00000000000E+00  0.00000000000E+00  0.74505805969E-08  0.10566000000E+00  0.10566000000E+00 0.  1.
     999900   -1    0    0    0    0 -0.00000000000E+00 -0.00000000000E+00 -0.74505805969E-08  0.93827000000E+00  0.93827000000E+00 0. -1.
     999902    2    1    2    0    0 -0.21241974447E-01 -0.25677651580E-02 -0.91422573690E-02  0.10206620872E+01  0.10203968348E+01 0.  0.
     999903    2    3    3    0    0  0.45212243277E-01 -0.99215751970E-01  0.67306776039E-01  0.12959449654E+00  0.19406675462E-01 0.  0.
         14    1    1    2    0    0  0.21241974447E-01  0.25677651580E-02  0.91422573690E-02  0.23267912801E-01  0.00000000000E+00 0. -1.
     999901    1    3    3    0    0 -0.66454217724E-01  0.96647986812E-01 -0.76449033408E-01  0.89106759066E+00  0.88000000000E+00 0. -1.
        -11    1    4    4    0    0  0.21171558764E-01 -0.54507433289E-01  0.46581126407E-01  0.74762006679E-01  0.51100000000E-03 0. -1.
         11    1    4    4    0    0  0.24040684513E-01 -0.44708318680E-01  0.20725649632E-01  0.54832489865E-01  0.51100000000E-03 0.  1.
</event>
<event>
 8    1  0.1123470E+005  0.1043930E+01  0.7957747E-01            NaN
         13   -1    0    0    0    0  0.00000000000E+00  0.00000000000E+00  0.74505805969E-08  0.10566000000E+00  0.10566000000E+00 0. -1.
     999900   -1    0    0    0    0 -0.00000000000E+00 -0.00000000000E+00 -0.74505805969E-08  0.93827000000E+00  0.93827000000E+00 0.  1.
     999902    2    1    2    0    0 -0.18646399023E-02  0.11233689634E-01  0.21477590054E-01  0.10196203406E+01  0.10193305055E+01 0.  0.
     999903    2    3    3    0    0  0.88074321447E-01 -0.10062203637E-01 -0.89726991597E-01  0.12781935900E+00  0.20700760200E-01 0.  0.
         14    1    1    2    0    0  0.18646399023E-02 -0.11233689634E-01 -0.21477590054E-01  0.24309659383E-01  0.00000000000E+00 0.  1.
     999901    1    3    3    0    0 -0.89938961349E-01  0.21295893271E-01  0.11120458165E+00  0.89180098162E+00  0.88000000000E+00 0. -1.
        -11    1    4    4    0    0  0.35856297284E-01 -0.27901380740E-02 -0.50967389884E-01  0.62381045823E-01  0.51100000000E-03 0.  1.
         11    1    4    4    0    0  0.52218024163E-01 -0.72720655627E-02 -0.38759601713E-01  0.65438313173E-01  0.51100000000E-03 0. -1.
</event>
<event>
 8    1  0.1123470E+005  0.1043930E+01  0.7957747E-01            NaN
         13   -1    0    0    0    0  0.00000000000E+00  0.00000000000E+00  0.74505805969E-08  0.10566000000E+00  0.10566000000E+00 0.  1.
     999900   -1    0    0    0    0 -0.00000000000E+00 -0.00000000000E+00 -0.74505805969E-08  0.93827000000E+00  0.93827000000E+00 0. -1.
     999902    2    1    2    0    0  0.11671477241E-02  0.17079362085E-01  0.16325995496E-01  0.10202740288E+01  0.10199997495E+01 0.  0.
     999903    2    3    3    0    0  0.93618792544E-01 -0.56148912350E-01 -0.65055790549E-01  0.12868405474E+00  0.20252194540E-01 0.  0.
         14    1    1    2    0    0 -0.11671477241E-02 -0.17079362085E-01 -0.16325995496E-01  0.23655971170E-01  0.00000000000E+00 0. -1.
     999901    1    3    3    0    0 -0.92451644820E-01  0.73228274435E-01  0.81381786045E-01  0.89158997409E+00  0.88000000000E+00 0.  1.
        -11    1    4    4    0    0  0.54389255263E-01 -0.21291496384E-01 -0.37454244635E-01  0.69387322102E-01  0.51100000000E-03 0.  1.
         11    1    4    4    0    0  0.39229537282E-01 -0.34857415966E-01 -0.27601545914E-01  0.59296732633E-01  0.51100000000E-03 0. -1.
</event>
<event>
 8    1  0.1123470E+005  0.1043930E+01  0.7957747E-01            NaN
         13   -1    0    0    0    0  0.00000000000E+00  0.00000000000E+00  0.74505805969E-08  0.10566000000E+00  0.10566000000E+00 0.  1.
     999900   -1    0    0    0    0 -0.00000000000E+00 -0.00000000000E+00 -0.74505805969E-08  0.93827000000E+00  0.93827000000E+00 0.  1.
     999902    2    1    2    0    0 -0.56942206219E-02 -0.22242958427E-01 -0.39932033756E-02  0.10206250859E+01  0.10203589794E+01 0.  0.
     999903    2    3    3    0    0  0.66598613313E-01  0.92636693699E-01  0.55098478765E-01  0.12826001755E+00  0.19946363700E-01 0.  0.
         14    1    1    2    0    0  0.56942206219E-02  0.22242958427E-01  0.39932033756E-02  0.23304914102E-01  0.00000000000E+00 0. -1.
     999901    1    3    3    0    0 -0.72292833934E-01 -0.11487965213E+00 -0.59091682141E-01  0.89236506835E+00  0.88000000000E+00 0. -1.
        -11    1    4    4    0    0  0.46219075956E-01  0.65640418364E-01  0.48498098014E-01  0.93793358705E-01  0.51100000000E-03 0. -1.
         11    1    4    4    0    0  0.20379537356E-01  0.26996275335E-01  0.66003807517E-02  0.34466658844E-01  0.51100000000E-03 0.  1.
</event>
<event>
 8    1  0.1123470E+005  0.1043930E+01  0.7957747E-01            NaN
         13   -1    0    0    0    0  0.00000000000E+00  0.00000000000E+00  0.74505805969E-08  0.10566000000E+00  0.10566000000E+00 0.  1.
     999900   -1    0    0    0    0 -0.00000000000E+00 -0.00000000000E+00 -0.74505805969E-08  0.93827000000E+00  0.93827000000E+00 0. -1.
     999902    2    1    2    0    0  0.12448388686E-02 -0.30846047140E-02 -0.23168727618E-01  0.10205237113E+01  0.10202552578E+01 0.  0.
     999903    2    3    3    0    0  0.26825773401E-01  0.61048078586E-02  0.12328954618E+00  0.12800544514E+00  0.20692776267E-01 0.  0.
         14    1    1    2    0    0 -0.12448388686E-02  0.30846047140E-02  0.23168727618E-01  0.23406288674E-01  0.00000000000E+00 0.  1.
     999901    1    3    3    0    0 -0.25580934532E-01 -0.91894125726E-02 -0.14645827380E+00  0.89251826619E+00  0.88000000000E+00 0. -1.
        -11    1    4    4    0    0  0.15659517427E-01 -0.70044785959E-02  0.58648489357E-01  0.61108016097E-01  0.51100000000E-03 0.  1.
         11    1    4    4    0    0  0.11166255974E-01  0.13109286455E-01  0.64641056825E-01  0.66897429041E-01  0.51100000000E-03 0. -1.
</event>
<event>
 8    1  0.1123470E+005  0.1043930E+01  0.7957747E-01            NaN
         13   -1    0    0    0    0  0.00000000000E+00  0.00000000000E+00  0.74505805969E-08  0.10566000000E+00  0.10566000000E+00 0. -1.
     999900   -1    0    0    0    0 -0.00000000000E+00 -0.00000000000E+00 -0.74505805969E-08  0.93827000000E+00  0.93827000000E+00 0.  1.
     999902    2    1    2    0    0  0.16836285107E-01  0.10294520016E-01 -0.13064583897E-01  0.10202631246E+01  0.10199885894E+01 0.  0.
     999903    2    3    3    0    0  0.26213454075E-01 -0.12103192147E+00  0.30441633618E-01  0.12940547240E+00  0.21982084542E-01 0.  0.
         14    1    1    2    0    0 -0.16836285107E-01 -0.10294520016E-01  0.13064583897E-01  0.23666875395E-01  0.00000000000E+00 0. -1.
     999901    1    3    3    0    0 -0.93771689672E-02  0.13132644148E+00 -0.43506217515E-01  0.89085765221E+00  0.88000000000E+00 0.  1.
        -11    1    4    4    0    0  0.13187687704E-01 -0.76120222924E-01  0.29302611573E-01  0.82626313067E-01  0.51100000000E-03 0.  1.
         11    1    4    4    0    0  0.13025766371E-01 -0.44911698544E-01  0.11390220446E-02  0.46779159333E-01  0.51100000000E-03 0. -1.
</event>
<event>
 8    1  0.1123470E+005  0.1043930E+01  0.7957747E-01            NaN
         13   -1    0    0    0    0  0.00000000000E+00  0.00000000000E+00  0.74505805969E-08  0.10566000000E+00  0.10566000000E+00 0. -1.
     999900   -1    0    0    0    0 -0.00000000000E+00 -0.00000000000E+00 -0.74505805969E-08  0.93827000000E+00  0.93827000000E+00 0. -1.
     999902    2    1    2    0    0  0.16105923510E-01  0.89482099786E-02 -0.17041315712E-01  0.10188326361E+01  0.10185234718E+01 0.  0.
     999903    2    3    3    0    0  0.10765838730E+00 -0.46006571493E-01  0.51283067202E-01  0.12974878013E+00  0.22312776296E-01 0.  0.
         14    1    1    2    0    0 -0.16105923510E-01 -0.89482099786E-02  0.17041315712E-01  0.25097363908E-01  0.00000000000E+00 0. -1.
     999901    1    3    3    0    0 -0.91552463794E-01  0.54954781472E-01 -0.68324382914E-01  0.88908385596E+00  0.88000000000E+00 0.  1.
        -11    1    4    4    0    0  0.72193750919E-01 -0.22714133951E-01  0.24415105888E-01  0.79525015369E-01  0.51100000000E-03 0. -1.
         11    1    4    4    0    0  0.35464636385E-01 -0.23292437543E-01  0.26867961314E-01  0.50223764760E-01  0.51100000000E-03 0.  1.
</event>
<event>
 8    1  0.1123470E+005  0.1043930E+01  0.7957747E-01            NaN
         13   -1    0    0    0    0  0.00000000000E+00  0.00000000000E+00  0.74505805969E-08  0.10566000000E+00  0.10566000000E+00 0.  1.
     999900   -1    0    0    0    0 -0.00000000000E+00 -0.00000000000E+00 -0.74505805969E-08  0.93827000000E+00  0.93827000000E+00 0. -1.
     999902    2    1    2    0    0  0.30017031303E-02  0.90798656342E-02 -0.21346742477E-01  0.10205390275E+01  0.10202709292E+01 0.  0.
     999903    2    3    3    0    0 -0.62457096621E-01  0.11378566452E+00 -0.11834872825E-01  0.13186662751E+00  0.20016914557E-01 0.  0.
         14    1    1    2    0    0 -0.30017031303E-02 -0.90798656342E-02  0.21346742477E-01  0.23390972532E-01  0.00000000000E+00 0.  1.
     999901    1    3    3    0    0  0.65458799751E-01 -0.10470579888E+00 -0.95118696512E-02  0.88867239996E+00  0.88000000000E+00 0.  1.
        -11    1    4    4    0    0 -0.10785600985E-01  0.26437518722E-01  0.49983340044E-02  0.28991654810E-01  0.51100000000E-03 0. -1.
         11    1    4    4    0    0 -0.51671495635E-01  0.87348145794E-01 -0.16833206830E-01  0.10287497270E+00  0.51100000000E-03 0.  1.
</event>
<event>
 8    1  0.1123470E+005  0.1043930E+01  0.7957747E-01            NaN
         13   -1    0    0    0    0  0.00000000000E+00  0.00000000000E+00  0.74505805969E-08  0.10566000000E+00  0.10566000000E+00 0. -1.
     999900   -1    0    0    0    0 -0.00000000000E+00 -0.00000000000E+00 -0.74505805969E-08  0.93827000000E+00  0.93827000000E+00 0.  1.
     999902    2    1    2    0    0  0.11684843075E-01  0.66185029544E-02 -0.19275940981E-01  0.10204374046E+01  0.10201669445E+01 0.  0.
     999903    2    3    3    0    0  0.67121354216E-01  0.10650690729E+00 -0.37200633824E-01  0.13287208602E+00  0.20545232869E-01 0.  0.
         14    1    1    2    0    0 -0.11684843075E-01 -0.66185029544E-02  0.19275940981E-01  0.23492595424E-01  0.00000000000E+00 0. -1.
     999901    1    3    3    0    0 -0.55436511141E-01 -0.99888404339E-01  0.17924692843E-01  0.88756531856E+00  0.88000000000E+00 0. -1.
        -11    1    4    4    0    0  0.52581535330E-01  0.66406642714E-01 -0.21251665017E-01  0.87330146234E-01  0.51100000000E-03 0. -1.
         11    1    4    4    0    0  0.14539818886E-01  0.40100264579E-01 -0.15948968807E-01  0.45541939787E-01  0.51100000000E-03 0.  1.
</event>
<event>
 8    1  0.1123470E+005  0.1043930E+01  0.7957747E-01            NaN
         13   -1    0    0    0    0  0.00000000000E+00  0.00000000000E+00  0.74505805969E-08  0.10566000000E+00  0.10566000000E+00 0.  1.
     999900   -1    0    0    0    0 -0.00000000000E+00 -0.00000000000E+00 -0.74505805969E-08  0.93827000000E+00  0.93827000000E+00 0.  1.
     999902    2    1    2    0    0 -0.21982358803E-02 -0.12679807853E-01  0.21638001243E-01  0.10187543597E+01  0.10184432397E+01 0.  0.
     999903    2    3    3    0    0  0.58468576514E-01  0.30540698743E-01  0.11146565132E+00  0.13105087256E+00  0.19960737831E-01 0.  0.
         14    1    1    2    0    0  0.21982358803E-02  0.12679807853E-01 -0.21638001243E-01  0.25175640329E-01  0.00000000000E+00 0. -1.
     999901    1    3    3    0    0 -0.60666812394E-01 -0.43220506596E-01 -0.89827650076E-01  0.88770348711E+00  0.88000000000E+00 0.  1.
        -11    1    4    4    0    0  0.18070838355E-01  0.16611313436E-01  0.55051348883E-01  0.60277716179E-01  0.51100000000E-03 0.  1.
         11    1    4    4    0    0  0.40397738159E-01  0.13929385307E-01  0.56414302436E-01  0.70773156378E-01  0.51100000000E-03 0. -1.
</event>
<event>
 8    1  0.1123470E+005  0.1043930E+01  0.7957747E-01            NaN
         13   -1    0    0    0    0  0.00000000000E+00  0.00000000000E+00  0.74505805969E-08  0.10566000000E+00  0.10566000000E+00 0. -1.
     999900   -1    0    0    0    0 -0.00000000000E+00 -0.00000000000E+00 -0.74505805969E-08  0.93827000000E+00  0.93827000000E+00 0. -1.
     999902    2    1    2    0    0  0.78599954442E-02  0.21380182238E-01  0.79815648641E-02  0.10197929517E+01  0.10195072669E+01 0.  0.
     999903    2    3    3    0    0  0.12811838240E+00 -0.10128897277E-01  0.15055767436E-01  0.13102698363E+00  0.20602908477E-01 0.  0.
         14    1    1    2    0    0 -0.78599954442E-02 -0.21380182238E-01 -0.79815648641E-02  0.24137048258E-01  0.00000000000E+00 0.  1.
     999901    1    3    3    0    0 -0.12025838696E+00  0.31509079515E-01 -0.70742025716E-02  0.88876596811E+00  0.88000000000E+00 0.  1.
        -11    1    4    4    0    0  0.70354275371E-01 -0.14855920972E-01  0.12694846055E-01  0.73019467872E-01  0.51100000000E-03 0.  1.
         11    1    4    4    0    0  0.57764107031E-01  0.47270236954E-02  0.23609213812E-02  0.58007515762E-01  0.51100000000E-03 0. -1.
</event>
<event>
 8    1  0.1123470E+005  0.1043930E+01  0.7957747E-01            NaN
         13   -1    0    0    0    0  0.00000000000E+00  0.00000000000E+00  0.74505805969E-08  0.10566000000E+00  0.10566000000E+00 0.  1.
     999900   -1    0    0    0    0 -0.00000000000E+00 -0.00000000000E+00 -0.74505805969E-08  0.93827000000E+00  0.93827000000E+00 0. -1.
     999902    2    1    2    0    0 -0.36956878208E-02 -0.23793477850E-01  0.54209330732E-03  0.10198451176E+01  0.10195606810E+01 0.  0.
     999903    2    3    3    0    0  0.63622635512E-01 -0.11446672460E+00  0.56517221567E-02  0.13261374828E+00  0.20099589035E-01 0.  0.
         14    1    1    2    0    0  0.36956878208E-02  0.23793477850E-01 -0.54209330732E-03  0.24084882433E-01  0.00000000000E+00 0. -1.
     999901    1    3    3    0    0 -0.67318323333E-01  0.90673246754E-01 -0.51096288494E-02  0.88723136928E+00  0.88000000000E+00 0.  1.
        -11    1    4    4    0    0  0.34210287977E-01 -0.78398906790E-01  0.86425690728E-02  0.85974923731E-01  0.51100000000E-03 0.  1.
         11    1    4    4    0    0  0.29412347535E-01 -0.36067817815E-01 -0.29908469161E-02  0.46638824553E-01  0.51100000000E-03 0. -1.
</event>
<event>
 8    1  0.1123470E+005  0.1043930E+01  0.7957747E-01            NaN
         13   -1    0    0    0    0  0.00000000000E+00  0.00000000000E+00  0.74505805969E-08  0.10566000000E+00  0.10566000000E+00 0. -1.
     999900   -1    0    0    0    0 -0.00000000000E+00 -0.00000000000E+00 -0.74505805969E-08  0.93827000000E+00  0.93827000000E+00 0.  1.
     999902    2    1    2    0    0 -0.22115260308E-01  0.42503472586E-02  0.53258847165E-02  0.10207887978E+01  0.10205264595E+01 0.  0.
     999903    2    3    3    0    0 -0.87984175271E-02  0.44711423767E-01  0.12238272135E+00  0.13201619472E+00  0.19344808558E-01 0.  0.
         14    1    1    2    0    0  0.22115260308E-01 -0.42503472586E-02 -0.53258847165E-02  0.23141202180E-01  0.00000000000E+00 0.  1.
     999901    1    3    3    0    0 -0.13316842781E-01 -0.40461076509E-01 -0.11705683663E+00  0.88877260310E+00  0.88000000000E+00 0.  1.
        -11    1    4    4    0    0 -0.73732711413E-02  0.31140685636E-01  0.58426256274E-01  0.66618285571E-01  0.51100000000E-03 0.  1.
         11    1    4    4    0    0 -0.14251463858E-02  0.13570738132E-01  0.63956465074E-01  0.65397909152E-01  0.51100000000E-03 0. -1.
</event>
<event>
 8    1  0.1123470E+005  0.1043930E+01  0.7957747E-01            NaN
         13   -1    0    0    0    0  0.00000000000E+00  0.00000000000E+00  0.74505805969E-08  0.10566000000E+00  0.10566000000E+00 0. -1.
     999900   -1    0    0    0    0 -0.00000000000E+00 -0.00000000000E+00 -0.74505805969E-08  0.93827000000E+00  0.93827000000E+00 0. -1.
     999902    2    1    2    0    0 -0.12054062284E-01  0.82805549944E-02  0.20343705115E-01  0.10188753728E+01  0.10185672736E+01 0.  0.
     999903    2    3    3    0    0 -0.38813673560E-01  0.73746149263E-01  0.10082018848E+00  0.13237760897E+00  0.20350065467E-01 0.  0.
         14    1    1    2    0    0  0.12054062284E-01 -0.82805549944E-02 -0.20343705115E-01  0.25054627245E-01  0.00000000000E+00 0.  1.
     999901    1    3    3    0    0  0.26759611276E-01 -0.65465594268E-01 -0.80476483364E-01  0.88649776379E+00  0.88000000000E+00 0. -1.
        -11    1    4    4    0    0 -0.38312662413E-01  0.56928991123E-01  0.76098515860E-01  0.10246958265E+00  0.51100000000E-03 0.  1.
         11    1    4    4    0    0 -0.50101114735E-03  0.16817158140E-01  0.24721672618E-01  0.29908026316E-01  0.51100000000E-03 0. -1.
</event>
<event>
 8    1  0.1123470E+005  0.1043930E+01  0.7957747E-01            NaN
         13   -1    0    0    0    0  0.00000000000E+00  0.00000000000E+00  0.74505805969E-08  0.10566000000E+00  0.10566000000E+00 0. -1.
     999900   -1    0    0    0    0 -0.00000000000E+00 -0.00000000000E+00 -0.74505805969E-08  0.93827000000E+00  0.93827000000E+00 0.  1.
     999902    2    1    2    0    0  0.68647660551E-03  0.23738827509E-01 -0.46611842467E-02  0.10197281443E+01  0.10194409048E+01 0.  0.
     999903    2    3    3    0    0 -0.53724685736E-01 -0.11277076579E+00 -0.15460541639E-01  0.12747701945E+00  0.20193431254E-01 0.  0.
         14    1    1    2    0    0 -0.68647660551E-03 -0.23738827509E-01  0.46611842467E-02  0.24201855719E-01  0.00000000000E+00 0.  1.
     999901    1    3    3    0    0  0.54411162342E-01  0.13650959330E+00  0.10799357392E-01  0.89225112483E+00  0.88000000000E+00 0. -1.
        -11    1    4    4    0    0 -0.24868421563E-01 -0.74585280929E-01 -0.79189219170E-02  0.79021345013E-01  0.51100000000E-03 0.  1.
         11    1    4    4    0    0 -0.28856264173E-01 -0.38185484856E-01 -0.75416197219E-02  0.48455674433E-01  0.51100000000E-03 0. -1.
</event>
<event>
 8    1  0.1123470E+005  0.1043930E+01  0.7957747E-01            NaN
         13   -1    0    0    0    0  0.00000000000E+00  0.00000000000E+00  0.74505805969E-08  0.10566000000E+00  0.10566000000E+00 0. -1.
     999900   -1    0    0    0    0 -0.00000000000E+00 -0.00000000000E+00 -0.74505805969E-08  0.93827000000E+00  0.93827000000E+00 0.  1.
     999902    2    1    2    0    0  0.12129698177E-01  0.12958235653E-01  0.15081142600E-01  0.10206386645E+01  0.10203728716E+01 0.  0.
     999903    2    3    3    0    0  0.12363749074E+00  0.40041252204E-01 -0.18041948647E-01  0.13257075221E+00  0.18972649720E-01 0.  0.
         14    1    1    2    0    0 -0.12129698177E-01 -0.12958235653E-01 -0.15081142600E-01  0.23291335539E-01  0.00000000000E+00 0.  1.
     999901    1    3    3    0    0 -0.11150779256E+00 -0.27083016551E-01  0.33123091247E-01  0.88806791225E+00  0.88000000000E+00 0.  1.
        -11    1    4    4    0    0  0.77433503424E-01  0.15884198003E-01 -0.77747871008E-02  0.79428984849E-01  0.51100000000E-03 0.  1.
         11    1    4    4    0    0  0.46203987315E-01  0.24157054201E-01 -0.10267161546E-01  0.53141767365E-01  0.51100000000E-03 0. -1.
</event>
<event>
 8    1  0.1123470E+005  0.1043930E+01  0.7957747E-01            NaN
         13   -1    0    0    0    0  0.00000000000E+00  0.00000000000E+00  0.74505805969E-08  0.10566000000E+00  0.10566000000E+00 0. -1.
     999900   -1    0    0    0    0 -0.00000000000E+00 -0.00000000000E+00 -0.74505805969E-08  0.93827000000E+00  0.93827000000E+00 0.  1.
     999902    2    1    2    0    0 -0.90458522530E-02 -0.20873370543E-01  0.49777772687E-02  0.10206425934E+01  0.10203768912E+01 0.  0.
     999903    2    3    3    0    0  0.59029061318E-01  0.29638536205E-01 -0.10922427049E+00  0.12922363784E+00  0.20147813830E-01 0.  0.
         14    1    1    2    0    0  0.90458522530E-02  0.20873370543E-01 -0.49777772687E-02  0.23287406626E-01  0.00000000000E+00 0. -1.
     999901    1    3    3    0    0 -0.68074913571E-01 -0.50511906748E-01  0.11420204776E+00  0.89141895554E+00  0.88000000000E+00 0. -1.
        -11    1    4    4    0    0  0.11157406844E-01  0.69212521101E-02 -0.92346676843E-02  0.16060251134E-01  0.51100000000E-03 0. -1.
         11    1    4    4    0    0  0.47871654473E-01  0.22717284095E-01 -0.99989602809E-01  0.11316338670E+00  0.51100000000E-03 0.  1.
</event>
<event>
 8    1  0.1123470E+005  0.1043930E+01  0.7957747E-01            NaN
         13   -1    0    0    0    0  0.00000000000E+00  0.00000000000E+00  0.74505805969E-08  0.10566000000E+00  0.10566000000E+00 0.  1.
     999900   -1    0    0    0    0 -0.00000000000E+00 -0.00000000000E+00 -0.74505805969E-08  0.93827000000E+00  0.93827000000E+00 0.  1.
     999902    2    1    2    0    0 -0.19118412586E-02  0.18040173944E-01  0.13788742011E-01  0.10211433280E+01  0.10208890557E+01 0.  0.
     999903    2    3    3    0    0 -0.56830687658E-01  0.24089611758E-01  0.11663660810E+00  0.13343258745E+00  0.19751470620E-01 0.  0.
         14    1    1    2    0    0  0.19118412586E-02 -0.18040173944E-01 -0.13788742011E-01  0.22786671963E-01  0.00000000000E+00 0. -1.
     999901    1    3    3    0    0  0.54918846399E-01 -0.60494378133E-02 -0.10284786609E+00  0.88771074058E+00  0.88000000000E+00 0.  1.
        -11    1    4    4    0    0 -0.37697470280E-01  0.25394167170E-01  0.86291420520E-01  0.97531704426E-01  0.51100000000E-03 0. -1.
         11    1    4    4    0    0 -0.19133217378E-01 -0.13045554126E-02  0.30345187578E-01  0.35900883028E-01  0.51100000000E-03 0.  1.
</event>
<event>
 8    1  0.1123470E+005  0.1043930E+01  0.7957747E-01            NaN
         13   -1    0    0    0    0  0.00000000000E+00  0.00000000000E+00  0.74505805969E-08  0.10566000000E+00  0.10566000000E+00 0. -1.
     999900   -1    0    0    0    0 -0.00000000000E+00 -0.00000000000E+00 -0.74505805969E-08  0.93827000000E+00  0.93827000000E+00 0.  1.
     999902    2    1    2    0    0  0.15934592683E-02  0.19827382592E-01 -0.12891709009E-01  0.10202264059E+01  0.10199510081E+01 0.  0.
     999903    2    3    3    0    0 -0.76221193437E-01  0.74590800056E-03  0.10233114932E+00  0.12910602685E+00  0.19658976046E-01 0.  0.
         14    1    1    2    0    0 -0.15934592683E-02 -0.19827382592E-01  0.12891709009E-01  0.23703594117E-01  0.00000000000E+00 0. -1.
     999901    1    3    3    0    0  0.77814652705E-01  0.19081474591E-01 -0.11522285833E+00  0.89112037903E+00  0.88000000000E+00 0.  1.
        -11    1    4    4    0    0 -0.41231590471E-01 -0.87336689431E-02  0.60734893519E-01  0.73927731182E-01  0.51100000000E-03 0.  1.
         11    1    4    4    0    0 -0.34989602966E-01  0.94795769436E-02  0.41596255805E-01  0.55178295667E-01  0.51100000000E-03 0. -1.
</event>
<event>
 8    1  0.1123470E+005  0.1043930E+01  0.7957747E-01            NaN
         13   -1    0    0    0    0  0.00000000000E+00  0.00000000000E+00  0.74505805969E-08  0.10566000000E+00  0.10566000000E+00 0. -1.
     999900   -1    0    0    0    0 -0.00000000000E+00 -0.00000000000E+00 -0.74505805969E-08  0.93827000000E+00  0.93827000000E+00 0. -1.
     999902    2    1    2    0    0  0.36459637192E-02  0.63438977460E-02  0.21454254054E-01  0.10212623334E+01  0.10210107397E+01 0.  0.
     999903    2    3    3    0    0  0.96401859035E-01  0.17215375612E-01  0.88850808033E-01  0.13375788803E+00  0.20174710372E-01 0.  0.
         14    1    1    2    0    0 -0.36459637192E-02 -0.63438977460E-02 -0.21454254054E-01  0.22667666555E-01  0.00000000000E+00 0.  1.
     999901    1    3    3    0    0 -0.92755895316E-01 -0.10871477866E-01 -0.67396553978E-01  0.88750444542E+00  0.88000000000E+00 0. -1.
        -11    1    4    4    0    0  0.18747926504E-01  0.10838461234E-02  0.28323077072E-01  0.33987016439E-01  0.51100000000E-03 0. -1.
         11    1    4    4    0    0  0.77653932532E-01  0.16131529488E-01  0.60527730961E-01  0.99770871588E-01  0.51100000000E-03 0.  1.
</event>
<event>
 8    1  0.1123470E+005  0.1043930E+01  0.7957747E-01            NaN
         13   -1    0    0    0    0  0.00000000000E+00  0.00000000000E+00  0.74505805969E-08  0.10566000000E+00  0.10566000000E+00 0.  1.
     999900   -1    0    0    0    0 -0.00000000000E+00 -0.00000000000E+00 -0.74505805969E-08  0.93827000000E+00  0.93827000000E+00 0. -1.
     999902    2    1    2    0    0  0.12221541854E-01 -0.35138212429E-01 -0.42977891232E-02  0.10064796188E+01  0.10057826267E+01 0.  0.
     999903    2    3    3    0    0  0.30807349522E-02 -0.13817911553E-01 -0.11651617708E+00  0.11905014210E+00  0.19912086937E-01 0.  0.
         14    1    1    2    0    0 -0.12221541854E-01  0.35138212429E-01  0.42977891232E-02  0.37450381164E-01  0.00000000000E+00 0. -1.
     999901    1    3    3    0    0  0.91408069020E-02 -0.21320300876E-01  0.11221838795E+00  0.88742947673E+00  0.88000000000E+00 0.  1.
        -11    1    4    4    0    0  0.85587153256E-02 -0.16264816942E-01 -0.89997656399E-01  0.91856601050E-01  0.51100000000E-03 0. -1.
         11    1    4    4    0    0 -0.54779803734E-02  0.24469053891E-02 -0.26518520679E-01  0.27193541053E-01  0.51100000000E-03 0.  1.
</event>
<event>
 8    1  0.1123470E+005  0.1043930E+01  0.7957747E-01            NaN
         13   -1    0    0    0    0  0.00000000000E+00  0.00000000000E+00  0.74505805969E-08  0.10566000000E+00  0.10566000000E+00 0. -1.
     999900   -1    0    0    0    0 -0.00000000000E+00 -0.00000000000E+00 -0.74505805969E-08  0.93827000000E+00  0.93827000000E+00 0. -1.
     999902    2    1    2    0    0  0.13410909752E-01  0.23894160172E-01  0.80051770772E-02  0.10153841378E+01  0.10149827984E+01 0.  0.
     999903    2    3    3    0    0  0.50989660084E-01  0.10835533234E+00 -0.43517974725E-01  0.12904307065E+00  0.20432241119E-01 0.  0.
         14    1    1    2    0    0 -0.13410909752E-01 -0.23894160172E-01 -0.80051770772E-02  0.28545862235E-01  0.00000000000E+00 0.  1.
     999901    1    3    3    0    0 -0.37578750333E-01 -0.84461172167E-01  0.51523151803E-01  0.88634106711E+00  0.88000000000E+00 0. -1.
        -11    1    4    4    0    0  0.66476315939E-02  0.26630793908E-01 -0.17253288742E-01  0.32424177451E-01  0.51100000000E-03 0. -1.
         11    1    4    4    0    0  0.44342028490E-01  0.81724538431E-01 -0.26264685983E-01  0.96618893200E-01  0.51100000000E-03 0.  1.
</event>
<event>
 8    1  0.1123470E+005  0.1043930E+01  0.7957747E-01            NaN
         13   -1    0    0    0    0  0.00000000000E+00  0.00000000000E+00  0.74505805969E-08  0.10566000000E+00  0.10566000000E+00 0. -1.
     999900   -1    0    0    0    0 -0.00000000000E+00 -0.00000000000E+00 -0.74505805969E-08  0.93827000000E+00  0.93827000000E+00 0. -1.
     999902    2    1    2    0    0 -0.72357417146E-02  0.16219290375E-01 -0.17677368638E-01  0.10188718536E+01  0.10185636668E+01 0.  0.
     999903    2    3    3    0    0  0.11564690759E+00  0.32428314785E-01  0.40460586868E-01  0.12828614755E+00  0.19861362687E-01 0.  0.
         14    1    1    2    0    0  0.72357417146E-02 -0.16219290375E-01  0.17677368638E-01  0.25058146388E-01  0.00000000000E+00 0. -1.
     999901    1    3    3    0    0 -0.12288264931E+00 -0.16209024410E-01 -0.58137955506E-01  0.89058570606E+00  0.88000000000E+00 0. -1.
        -11    1    4    4    0    0  0.80964888984E-01  0.16254746805E-01  0.20348366865E-01  0.85052026413E-01  0.51100000000E-03 0.  1.
         11    1    4    4    0    0  0.34682018609E-01  0.16173567980E-01  0.20112220003E-01  0.43234121136E-01  0.51100000000E-03 0. -1.
</event>
<event>
 8    1  0.1123470E+005  0.1043930E+01  0.7957747E-01            NaN
         13   -1    0    0    0    0  0.00000000000E+00  0.00000000000E+00  0.74505805969E-08  0.10566000000E+00  0.10566000000E+00 0.  1.
     999900   -1    0    0    0    0 -0.00000000000E+00 -0.00000000000E+00 -0.74505805969E-08  0.93827000000E+00  0.93827000000E+00 0. -1.
     999902    2    1    2    0    0 -0.54412511493E-02  0.23654032006E-01 -0.19443252355E-03  0.10196574178E+01  0.10193684767E+01 0.  0.
     999903    2    3    3    0    0  0.26877698523E-03 -0.12107778409E+00  0.33460344012E-01  0.12718190158E+00  0.19893200482E-01 0.  0.
         14    1    1    2    0    0  0.54412511493E-02 -0.23654032006E-01  0.19443252355E-03  0.24272582232E-01  0.00000000000E+00 0. -1.
     999901    1    3    3    0    0 -0.57100281345E-02  0.14473181610E+00 -0.33654776535E-01  0.89247551619E+00  0.88000000000E+00 0.  1.
        -11    1    4    4    0    0  0.92088538966E-02 -0.65392194211E-01  0.22174561614E-01  0.69662862111E-01  0.51100000000E-03 0.  1.
         11    1    4    4    0    0 -0.89400769113E-02 -0.55685589884E-01  0.11285782398E-01  0.57519039467E-01  0.51100000000E-03 0. -1.
</event>
<event>
 8    1  0.1123470E+005  0.1043930E+01  0.7957747E-01            NaN
         13   -1    0    0    0    0  0.00000000000E+00  0.00000000000E+00  0.74505805969E-08  0.10566000000E+00  0.10566000000E+00 0.  1.
     999900   -1    0    0    0    0 -0.00000000000E+00 -0.00000000000E+00 -0.74505805969E-08  0.93827000000E+00  0.93827000000E+00 0. -1.
     999902    2    1    2    0    0 -0.19632477913E-01  0.14161686388E-01  0.57955157578E-03  0.10197158837E+01  0.10194283496E+01 0.  0.
     999903    2    3    3    0    0  0.49305865092E-01 -0.10963791404E+00  0.37294559218E-01  0.12762461703E+00  0.21109670711E-01 0.  0.
         14    1    1    2    0    0  0.19632477913E-01 -0.14161686388E-01 -0.57955157578E-03  0.24214116346E-01  0.00000000000E+00 0. -1.
     999901    1    3    3    0    0 -0.68938343006E-01  0.12379960043E+00 -0.36715007642E-01  0.89209126662E+00  0.88000000000E+00 0. -1.
        -11    1    4    4    0    0  0.29906649261E-01 -0.73516439892E-01  0.34447898879E-01  0.86521635806E-01  0.51100000000E-03 0.  1.
         11    1    4    4    0    0  0.19399215832E-01 -0.36121474147E-01  0.28466603396E-02  0.41102981224E-01  0.51100000000E-03 0. -1.
</event>
<event>
 8    1  0.1123470E+005  0.1043930E+01  0.7957747E-01            NaN
         13   -1    0    0    0    0  0.00000000000E+00  0.00000000000E+00  0.74505805969E-08  0.10566000000E+00  0.10566000000E+00 0. -1.
     999900   -1    0    0    0    0 -0.00000000000E+00 -0.00000000000E+00 -0.74505805969E-08  0.93827000000E+00  0.93827000000E+00 0.  1.
     999902    2    1    2    0    0 -0.19891284321E-01 -0.13408368164E-01  0.36801339995E-02  0.10196608650E+01  0.10193720070E+01 0.  0.
     999903    2    3    3    0    0 -0.61709989531E-01  0.10376409612E+00  0.43467894627E-01  0.13001978207E+00  0.20989888402E-01 0.  0.
         14    1    1    2    0    0  0.19891284321E-01  0.13408368164E-01 -0.36801339995E-02  0.24269135028E-01  0.00000000000E+00 0. -1.
     999901    1    3    3    0    0  0.41818705210E-01 -0.11717246428E+00 -0.39787760627E-01  0.88964108290E+00  0.88000000000E+00 0. -1.
        -11    1    4    4    0    0 -0.42132729787E-01  0.71207190295E-01  0.19202917908E-01  0.84939060780E-01  0.51100000000E-03 0. -1.
         11    1    4    4    0    0 -0.19577259744E-01  0.32556905822E-01  0.24264976719E-01  0.45080721289E-01  0.51100000000E-03 0.  1.
</event>
<event>
 8    1  0.1123470E+005  0.1043930E+01  0.7957747E-01            NaN
         13   -1    0    0    0    0  0.00000000000E+00  0.00000000000E+00  0.74505805969E-08  0.10566000000E+00  0.10566000000E+00 0.  1.
     999900   -1    0    0    0    0 -0.00000000000E+00 -0.00000000000E+00 -0.74505805969E-08  0.93827000000E+00  0.93827000000E+00 0.  1.
     999902    2    1    2    0    0 -0.12998134374E-01  0.70649046729E-02  0.18013834213E-01  0.10206198606E+01  0.10203536334E+01 0.  0.
     999903    2    3    3    0    0 -0.50090980259E-02  0.11917225438E+00 -0.50874288715E-01  0.13080108353E+00  0.17135137094E-01 0.  0.
         14    1    1    2    0    0  0.12998134374E-01 -0.70649046729E-02 -0.18013834213E-01  0.23310139388E-01  0.00000000000E+00 0. -1.
     999901    1    3    3    0    0 -0.79890363480E-02 -0.11210734971E+00  0.68888122927E-01  0.88981877708E+00  0.88000000000E+00 0. -1.
        -11    1    4    4    0    0 -0.22404029603E-02  0.70650789223E-01 -0.39143395780E-01  0.80802351312E-01  0.51100000000E-03 0.  1.
         11    1    4    4    0    0 -0.27686950656E-02  0.48521465161E-01 -0.11730892935E-01  0.49998732222E-01  0.51100000000E-03 0. -1.
</event>
<event>
 8    1  0.1123470E+005  0.1043930E+01  0.7957747E-01            NaN
         13   -1    0    0    0    0  0.00000000000E+00  0.00000000000E+00  0.74505805969E-08  0.10566000000E+00  0.10566000000E+00 0. -1.
     999900   -1    0    0    0    0 -0.00000000000E+00 -0.00000000000E+00 -0.74505805969E-08  0.93827000000E+00  0.93827000000E+00 0. -1.
     999902    2    1    2    0    0 -0.25585125450E-01 -0.68573457835E-02  0.12206767658E-02  0.10174137430E+01  0.10170681454E+01 0.  0.
     999903    2    3    3    0    0 -0.92023995898E-01  0.71951814719E-01 -0.52880307795E-01  0.12974718180E+00  0.19812237855E-01 0.  0.
         14    1    1    2    0    0  0.25585125450E-01  0.68573457835E-02 -0.12206767658E-02  0.26516257037E-01  0.00000000000E+00 0.  1.
     999901    1    3    3    0    0  0.66438870449E-01 -0.78809160503E-01  0.54100984561E-01  0.88766656117E+00  0.88000000000E+00 0.  1.
        -11    1    4    4    0    0 -0.52520388027E-01  0.35053135857E-01 -0.18971300608E-01  0.65933943153E-01  0.51100000000E-03 0.  1.
         11    1    4    4    0    0 -0.39503607872E-01  0.36898678862E-01 -0.33909007187E-01  0.63813238642E-01  0.51100000000E-03 0. -1.
</event>
<event>
 8    1  0.1123470E+005  0.1043930E+01  0.7957747E-01            NaN
         13   -1    0    0    0    0  0.00000000000E+00  0.00000000000E+00  0.74505805969E-08  0.10566000000E+00  0.10566000000E+00 0.  1.
     999900   -1    0    0    0    0 -0.00000000000E+00 -0.00000000000E+00 -0.74505805969E-08  0.93827000000E+00  0.93827000000E+00 0. -1.
     999902    2    1    2    0    0  0.21908004799E-01  0.56651838125E-02  0.73900971713E-02  0.10201251997E+01  0.10198474173E+01 0.  0.
     999903    2    3    3    0    0 -0.45659502567E-01  0.25260062461E-01  0.11756328139E+00  0.13046939105E+00  0.21869520794E-01 0.  0.
         14    1    1    2    0    0 -0.21908004799E-01 -0.56651838125E-02 -0.73900971713E-02  0.23804800316E-01  0.00000000000E+00 0.  1.
     999901    1    3    3    0    0  0.67567507366E-01 -0.19594878648E-01 -0.11017318421E+00  0.88965580864E+00  0.88000000000E+00 0. -1.
        -11    1    4    4    0    0 -0.41640358213E-01  0.21001949558E-01  0.11492214948E+00  0.12402565412E+00  0.51100000000E-03 0. -1.
         11    1    4    4    0    0 -0.40191443540E-02  0.42581129031E-02  0.26411319015E-02  0.64437369247E-02  0.51100000000E-03 0.  1.
</event>
<event>
 8    1  0.1123470E+005  0.1043930E+01  0.7957747E-01            NaN
         13   -1    0    0    0    0  0.00000000000E+00  0.00000000000E+00  0.74505805969E-08  0.10566000000E+00  0.10566000000E+00 0. -1.
     999900   -1    0    0    0    0 -0.00000000000E+00 -0.00000000000E+00 -0.74505805969E-08  0.93827000000E+00  0.93827000000E+00 0. -1.
     999902    2    1    2    0    0  0.18567844514E-01 -0.87916055290E-02  0.12225595250E-01  0.10200234662E+01  0.10197432762E+01 0.  0.
     999903    2    3    3    0    0  0.82597048822E-01 -0.87663570500E-01  0.53335323945E-01  0.13322555483E+00  0.19930318952E-01 0.  0.
         14    1    1    2    0    0 -0.18567844514E-01  0.87916055290E-02 -0.12225595250E-01  0.23906533770E-01  0.00000000000E+00 0.  1.
     999901    1    3    3    0    0 -0.64029204308E-01  0.78871964971E-01 -0.41109728694E-01  0.88679791140E+00  0.88000000000E+00 0.  1.
        -11    1    4    4    0    0  0.48852077540E-01 -0.40521708320E-01  0.21090510292E-01  0.66885013796E-01  0.51100000000E-03 0. -1.
         11    1    4    4    0    0  0.33744971282E-01 -0.47141862180E-01  0.32244813653E-01  0.66340541038E-01  0.51100000000E-03 0.  1.
</event>
<event>
 8    1  0.1123470E+005  0.1043930E+01  0.7957747E-01            NaN
         13   -1    0    0    0    0  0.00000000000E+00  0.00000000000E+00  0.74505805969E-08  0.10566000000E+00  0.10566000000E+00 0. -1.
     999900   -1    0    0    0    0 -0.00000000000E+00 -0.00000000000E+00 -0.74505805969E-08  0.93827000000E+00  0.93827000000E+00 0. -1.
     999902    2    1    2    0    0  0.68977910311E-03  0.19346854805E-01 -0.13586000961E-01  0.10202792916E+01  0.10200051357E+01 0.  0.
     999903    2    3    3    0    0  0.75194719772E-01  0.21901402003E-01 -0.10492540766E+00  0.13241646485E+00  0.19770222568E-01 0.  0.
         14    1    1    2    0    0 -0.68977910311E-03 -0.19346854805E-01  0.13586000961E-01  0.23650708407E-01  0.00000000000E+00 0. -1.
     999901    1    3    3    0    0 -0.74504940669E-01 -0.25545471978E-02  0.91339406695E-01  0.88786282674E+00  0.88000000000E+00 0.  1.
        -11    1    4    4    0    0  0.28328443758E-01  0.26408852683E-02 -0.51120457098E-01  0.58506728294E-01  0.51100000000E-03 0.  1.
         11    1    4    4    0    0  0.46866276013E-01  0.19260516735E-01 -0.53804950558E-01  0.73909736556E-01  0.51100000000E-03 0. -1.
</event>
<event>
 8    1  0.1123470E+005  0.1043930E+01  0.7957747E-01            NaN
         13   -1    0    0    0    0  0.00000000000E+00  0.00000000000E+00  0.74505805969E-08  0.10566000000E+00  0.10566000000E+00 0.  1.
     999900   -1    0    0    0    0 -0.00000000000E+00 -0.00000000000E+00 -0.74505805969E-08  0.93827000000E+00  0.93827000000E+00 0.  1.
     999902    2    1    2    0    0 -0.16527481311E-01 -0.16807533796E-02  0.69621526154E-02  0.10259173894E+01  0.10257592485E+01 0.  0.
     999903    2    3    3    0    0 -0.24311419977E-02 -0.82499667892E-02 -0.13288870366E+00  0.13473832586E+00  0.20519173801E-01 0.  0.
         14    1    1    2    0    0  0.16527481311E-01  0.16807533796E-02 -0.69621526154E-02  0.18012610567E-01  0.00000000000E+00 0. -1.
     999901    1    3    3    0    0 -0.14096339313E-01  0.65692134096E-02  0.13985085627E+00  0.89117906357E+00  0.88000000000E+00 0. -1.
        -11    1    4    4    0    0  0.18402150756E-02  0.24499272188E-02 -0.29340161683E-02  0.42729505939E-02  0.51100000000E-03 0.  1.
         11    1    4    4    0    0 -0.42713570733E-02 -0.10699894008E-01 -0.12995468749E+00  0.13046537527E+00  0.51100000000E-03 0. -1.
</event>
<event>
 8    1  0.1123470E+005  0.1043930E+01  0.7957747E-01            NaN
         13   -1    0    0    0    0  0.00000000000E+00  0.00000000000E+00  0.74505805969E-08  0.10566000000E+00  0.10566000000E+00 0. -1.
     999900   -1    0    0    0    0 -0.00000000000E+00 -0.00000000000E+00 -0.74505805969E-08  0.93827000000E+00  0.93827000000E+00 0.  1.
     999902    2    1    2    0    0 -0.17640384847E-02 -0.12448891480E-02  0.23665396345E-01  0.10201663184E+01  0.10198895061E+01 0.  0.
     999903    2    3    3    0    0 -0.59266996352E-01 -0.11425368561E+00 -0.11277641628E-01  0.13039185585E+00  0.17560448160E-01 0.  0.
         14    1    1    2    0    0  0.17640384847E-02  0.12448891480E-02 -0.23665396345E-01  0.23763681637E-01  0.00000000000E+00 0.  1.
     999901    1    3    3    0    0  0.57502957868E-01  0.11300879646E+00  0.34943037973E-01  0.88977446251E+00  0.88000000000E+00 0.  1.
        -11    1    4    4    0    0 -0.26774650607E-01 -0.52314333710E-01 -0.13917740378E-01  0.60395662468E-01  0.51100000000E-03 0. -1.
         11    1    4    4    0    0 -0.32492345745E-01 -0.61939351897E-01  0.26400987504E-02  0.69996193381E-01  0.51100000000E-03 0.  1.
</event>
<event>
 8    1  0.1123470E+005  0.1043930E+01  0.7957747E-01            NaN
         13   -1    0    0    0    0  0.00000000000E+00  0.00000000000E+00  0.74505805969E-08  0.10566000000E+00  0.10566000000E+00 0. -1.
     999900   -1    0    0    0    0 -0.00000000000E+00 -0.00000000000E+00 -0.74505805969E-08  0.93827000000E+00  0.93827000000E+00 0. -1.
     999902    2    1    2    0    0  0.56650228280E-02  0.32041831408E-02  0.19933266721E-01  0.10229611089E+01  0.10227461737E+01 0.  0.
     999903    2    3    3    0    0 -0.86662261217E-01  0.70950878087E-01 -0.65653840462E-01  0.13142361948E+00  0.20429546503E-01 0.  0.
         14    1    1    2    0    0 -0.56650228280E-02 -0.32041831408E-02 -0.19933266721E-01  0.20968891135E-01  0.00000000000E+00 0.  1.
     999901    1    3    3    0    0  0.92327284045E-01 -0.67746694946E-01  0.85587107183E-01  0.89153748938E+00  0.88000000000E+00 0. -1.
        -11    1    4    4    0    0 -0.74845545859E-01  0.66816106239E-01 -0.52424863308E-01  0.11320280563E+00  0.51100000000E-03 0.  1.
         11    1    4    4    0    0 -0.11816715358E-01  0.41347718484E-02 -0.13228977154E-01  0.18220813858E-01  0.51100000000E-03 0. -1.
</event>
<event>
 8    1  0.1123470E+005  0.1043930E+01  0.7957747E-01            NaN
         13   -1    0    0    0    0  0.00000000000E+00  0.00000000000E+00  0.74505805969E-08  0.10566000000E+00  0.10566000000E+00 0.  1.
     999900   -1    0    0    0    0 -0.00000000000E+00 -0.00000000000E+00 -0.74505805969E-08  0.93827000000E+00  0.93827000000E+00 0.  1.
     999902    2    1    2    0    0  0.20752997319E-01  0.38147811769E-02 -0.17175975375E-02  0.10227595112E+01  0.10225403798E+01 0.  0.
     999903    2    3    3    0    0 -0.12686646974E+00  0.90970823749E-02 -0.21006766384E-01  0.13023977376E+00  0.18527179556E-01 0.  0.
         14    1    1    2    0    0 -0.20752997319E-01 -0.38147811769E-02  0.17175975375E-02  0.21170488763E-01  0.00000000000E+00 0.  1.
     999901    1    3    3    0    0  0.14761946706E+00 -0.52823011979E-02  0.19289168846E-01  0.89251973748E+00  0.88000000000E+00 0.  1.
        -11    1    4    4    0    0 -0.83453184048E-01 -0.88030278519E-03 -0.80550056199E-02  0.83847200892E-01  0.51100000000E-03 0. -1.
         11    1    4    4    0    0 -0.43413285690E-01  0.99773851601E-02 -0.12951760764E-01  0.46392572864E-01  0.51100000000E-03 0.  1.
</event>
<event>
 8    1  0.1123470E+005  0.1043930E+01  0.7957747E-01            NaN
         13   -1    0    0    0    0  0.00000000000E+00  0.00000000000E+00  0.74505805969E-08  0.10566000000E+00  0.10566000000E+00 0. -1.
     999900   -1    0    0    0    0 -0.00000000000E+00 -0.00000000000E+00 -0.74505805969E-08  0.93827000000E+00  0.93827000000E+00 0. -1.
     999902    2    1    2    0    0  0.12554705187E-02 -0.20442386578E-01 -0.11179919988E-01  0.10205963765E+01  0.10203296064E+01 0.  0.
     999903    2    3    3    0    0  0.97983514906E-02 -0.12632647094E+00 -0.37991204174E-01  0.13380256444E+00  0.20134788399E-01 0.  0.
         14    1    1    2    0    0 -0.12554705187E-02  0.20442386578E-01  0.11179919988E-01  0.23333623511E-01  0.00000000000E+00 0. -1.
     999901    1    3    3    0    0 -0.85428809719E-02  0.10588408436E+00  0.26811284186E-01  0.88679381205E+00  0.88000000000E+00 0.  1.
        -11    1    4    4    0    0 -0.61976024217E-02 -0.29178417475E-01 -0.93098544699E-02  0.31252597226E-01  0.51100000000E-03 0.  1.
         11    1    4    4    0    0  0.15995953912E-01 -0.97148053462E-01 -0.28681349704E-01  0.10254996721E+00  0.51100000000E-03 0. -1.
</event>
<event>
 8    1  0.1123470E+005  0.1043930E+01  0.7957747E-01            NaN
         13   -1    0    0    0    0  0.00000000000E+00  0.00000000000E+00  0.74505805969E-08  0.10566000000E+00  0.10566000000E+00 0.  1.
     999900   -1    0    0    0    0 -0.00000000000E+00 -0.00000000000E+00 -0.74505805969E-08  0.93827000000E+00  0.93827000000E+00 0.  1.
     999902    2    1    2    0    0 -0.65818518355E-02 -0.12145278508E-01 -0.19889755709E-01  0.10197136637E+01  0.10194260762E+01 0.  0.
     999903    2    3    3    0    0 -0.10152366229E+00 -0.52347663961E-01 -0.64224680604E-01  0.13258584607E+00  0.20170896211E-01 0.  0.
         14    1    1    2    0    0  0.65818518355E-02  0.12145278508E-01  0.19889755709E-01  0.24216336341E-01  0.00000000000E+00 0.  1.
     999901    1    3    3    0    0  0.94941810452E-01  0.40202385453E-01  0.44334924895E-01  0.88712781759E+00  0.88000000000E+00 0. -1.
        -11    1    4    4    0    0 -0.68562546205E-01 -0.26539606738E-01 -0.34326861181E-01  0.81140421416E-01  0.51100000000E-03 0. -1.
         11    1    4    4    0    0 -0.32961116082E-01 -0.25808057223E-01 -0.29897819423E-01  0.51445424658E-01  0.51100000000E-03 0.  1.
</event>
<event>
 8    1  0.1123470E+005  0.1043930E+01  0.7957747E-01            NaN
         13   -1    0    0    0    0  0.00000000000E+00  0.00000000000E+00  0.74505805969E-08  0.10566000000E+00  0.10566000000E+00 0. -1.
     999900   -1    0    0    0    0 -0.00000000000E+00 -0.00000000000E+00 -0.74505805969E-08  0.93827000000E+00  0.93827000000E+00 0. -1.
     999902    2    1    2    0    0  0.71175574936E-02 -0.76176805174E-02 -0.20206333573E-01  0.10211927047E+01  0.10209395455E+01 0.  0.
     999903    2    3    3    0    0 -0.13983282079E-01 -0.10976400198E+00 -0.72080159809E-01  0.13351595595E+00  0.19679754732E-01 0.  0.
         14    1    1    2    0    0 -0.71175574936E-02  0.76176805174E-02  0.20206333573E-01  0.22737295301E-01  0.00000000000E+00 0. -1.
     999901    1    3    3    0    0  0.21100839572E-01  0.10214632147E+00  0.51873826236E-01  0.88767674875E+00  0.88000000000E+00 0.  1.
        -11    1    4    4    0    0 -0.18319006979E-01 -0.82975328675E-01 -0.50572418480E-01  0.98885397392E-01  0.51100000000E-03 0.  1.
         11    1    4    4    0    0  0.43357249008E-02 -0.26788673308E-01 -0.21507741329E-01  0.34630558559E-01  0.51100000000E-03 0. -1.
</event>
<event>
 8    1  0.1123470E+005  0.1043930E+01  0.7957747E-01            NaN
         13   -1    0    0    0    0  0.00000000000E+00  0.00000000000E+00  0.74505805969E-08  0.10566000000E+00  0.10566000000E+00 0. -1.
     999900   -1    0    0    0    0 -0.00000000000E+00 -0.00000000000E+00 -0.74505805969E-08  0.93827000000E+00  0.93827000000E+00 0. -1.
     999902    2    1    2    0    0  0.20629625034E-01 -0.10600427709E-01 -0.54355507314E-02  0.10201078316E+01  0.10198296389E+01 0.  0.
     999903    2    3    3    0    0  0.12724092605E+00 -0.20397261000E-01 -0.27646407783E-01  0.13334108117E+00  0.20229150906E-01 0.  0.
         14    1    1    2    0    0 -0.20629625034E-01  0.10600427709E-01  0.54355507314E-02  0.23822168424E-01  0.00000000000E+00 0. -1.
     999901    1    3    3    0    0 -0.10661130102E+00  0.97968332908E-02  0.22210857052E-01  0.88676675040E+00  0.88000000000E+00 0.  1.
        -11    1    4    4    0    0  0.63816101812E-01 -0.16367822174E-02 -0.19180455578E-01  0.66658269582E-01  0.51100000000E-03 0. -1.
         11    1    4    4    0    0  0.63424824241E-01 -0.18760478782E-01 -0.84659522057E-02  0.66682811593E-01  0.51100000000E-03 0.  1.
</event>
<event>
 8    1  0.1123470E+005  0.1043930E+01  0.7957747E-01            NaN
         13   -1    0    0    0    0  0.00000000000E+00  0.00000000000E+00  0.74505805969E-08  0.10566000000E+00  0.10566000000E+00 0.  1.
     999900   -1    0    0    0    0 -0.00000000000E+00 -0.00000000000E+00 -0.74505805969E-08  0.93827000000E+00  0.93827000000E+00 0.  1.
     999902    2    1    2    0    0 -0.30757994286E-02  0.23359439313E-01 -0.64141804543E-02  0.10195114485E+01  0.10192189794E+01 0.  0.
     999903    2    3    3    0    0 -0.12327326132E+00  0.35292391724E-01 -0.15792976005E-01  0.13121094359E+00  0.22913833281E-01 0.  0.
         14    1    1    2    0    0  0.30757994286E-02 -0.23359439313E-01  0.64141804543E-02  0.24418551514E-01  0.00000000000E+00 0. -1.
     999901    1    3    3    0    0  0.12019746189E+00 -0.11932952411E-01  0.93787955506E-02  0.88830050490E+00  0.88000000000E+00 0. -1.
        -11    1    4    4    0    0 -0.86684623636E-01  0.16881680996E-01 -0.32638080889E-02  0.88374932489E-01  0.51100000000E-03 0.  1.
         11    1    4    4    0    0 -0.36588637685E-01  0.18410710727E-01 -0.12529167916E-01  0.42836011098E-01  0.51100000000E-03 0. -1.
</event>
<event>
 7    1  0.1123470E+005  0.1043930E+01  0.7957747E-01            NaN
         13   -1    0    0    0    0  0.00000000000E+00  0.00000000000E+00  0.74505805969E-08  0.10566000000E+00  0.10566000000E+00 0. -1.
     999900   -1    0    0    0    0 -0.00000000000E+00 -0.00000000000E+00 -0.74505805969E-08  0.93827000000E+00  0.93827000000E+00 0. -1.
     999902    2    1    2    0    0 -0.18137740509E-01  0.13923030049E-01  0.10296278338E-01  0.10188532828E+01  0.10185446334E+01 0.  0.
         14    1    1    2    0    0  0.18137740509E-01 -0.13923030049E-01 -0.10296278338E-01  0.25076717173E-01  0.00000000000E+00 0.  1.
     999901    1    3    3    0    0  0.59006799092E-01  0.59916216543E-01 -0.78786203124E-01  0.88751282872E+00  0.88000000000E+00 0. -1.
        -11    1    3    3    0    0 -0.28789630265E-01 -0.12707908862E-02  0.39495931103E-01  0.48894247258E-01  0.51100000000E-03 0. -1.
         11    1    3    3    0    0 -0.48354909337E-01 -0.44722395608E-01  0.49586550360E-01  0.82446206847E-01  0.51100000000E-03 0.  1.
</event>
<event>
 8    1  0.1123470E+005  0.1043930E+01  0.7957747E-01            NaN
         13   -1    0    0    0    0  0.00000000000E+00  0.00000000000E+00  0.74505805969E-08  0.10566000000E+00  0.10566000000E+00 0. -1.
     999900   -1    0    0    0    0 -0.00000000000E+00 -0.00000000000E+00 -0.74505805969E-08  0.93827000000E+00  0.93827000000E+00 0.  1.
     999902    2    1    2    0    0 -0.89077011485E-02  0.15153284121E-01  0.16711736181E-01  0.10196761078E+01  0.10193876169E+01 0.  0.
     999903    2    3    3    0    0 -0.93773281976E-01 -0.30840587530E-02  0.91234231806E-01  0.13227069324E+00  0.19207066565E-01 0.  0.
         14    1    1    2    0    0  0.89077011485E-02 -0.15153284121E-01 -0.16711736181E-01  0.24253892174E-01  0.00000000000E+00 0. -1.
     999901    1    3    3    0    0  0.84865580827E-01  0.18237342874E-01 -0.74522495625E-01  0.88740541459E+00  0.88000000000E+00 0.  1.
        -11    1    4    4    0    0 -0.11485641285E-01 -0.31496065225E-02  0.20708876083E-01  0.23894740982E-01  0.51100000000E-03 0.  1.
         11    1    4    4    0    0 -0.82287640690E-01  0.65547769562E-04  0.70525355722E-01  0.10837595226E+00  0.51100000000E-03 0. -1.
</event>
<event>
 8    1  0.1123470E+005  0.1043930E+01  0.7957747E-01            NaN
         13   -1    0    0    0    0  0.00000000000E+00  0.00000000000E+00  0.74505805969E-08  0.10566000000E+00  0.10566000000E+00 0. -1.
     999900   -1    0    0    0    0 -0.00000000000E+00 -0.00000000000E+00 -0.74505805969E-08  0.93827000000E+00  0.93827000000E+00 0.  1.
     999902    2    1    2    0    0 -0.15382591956E-01 -0.14342603807E-02  0.17186665814E-01  0.10208202029E+01  0.10205585843E+01 0.  0.
     999903    2    3    3    0    0  0.74602328371E-01 -0.93222880876E-01 -0.45113857986E-01  0.12930251271E+00  0.20684938798E-01 0.  0.
         14    1    1    2    0    0  0.15382591956E-01  0.14342603807E-02 -0.17186665814E-01  0.23109797055E-01  0.00000000000E+00 0.  1.
     999901    1    3    3    0    0 -0.89984920327E-01  0.91788620496E-01  0.62300523800E-01  0.89151769024E+00  0.88000000000E+00 0. -1.
        -11    1    4    4    0    0  0.66259616419E-01 -0.69762152005E-01 -0.34225678610E-01  0.10212126526E+00  0.51100000000E-03 0.  1.
         11    1    4    4    0    0  0.83427119518E-02 -0.23460728872E-01 -0.10888179376E-01  0.27181247452E-01  0.51100000000E-03 0. -1.
</event>
<event>
 8    1  0.1123470E+005  0.1043930E+01  0.7957747E-01            NaN
         13   -1    0    0    0    0  0.00000000000E+00  0.00000000000E+00  0.74505805969E-08  0.10566000000E+00  0.10566000000E+00 0. -1.
     999900   -1    0    0    0    0 -0.00000000000E+00 -0.00000000000E+00 -0.74505805969E-08  0.93827000000E+00  0.93827000000E+00 0.  1.
     999902    2    1    2    0    0 -0.30769834856E-02 -0.21067601779E-01 -0.10609916553E-01  0.10201417255E+01  0.10198643332E+01 0.  0.
     999903    2    3    3    0    0 -0.11178927050E+00 -0.58361116313E-01  0.33032419832E-01  0.13159582291E+00  0.17984964543E-01 0.  0.
         14    1    1    2    0    0  0.30769834856E-02  0.21067601779E-01  0.10609916553E-01  0.23788274451E-01  0.00000000000E+00 0. -1.
     999901    1    3    3    0    0  0.10871228702E+00  0.37293514534E-01 -0.43642336385E-01  0.88854590264E+00  0.88000000000E+00 0. -1.
        -11    1    4    4    0    0 -0.82638355535E-01 -0.41320220976E-01  0.32103355045E-01  0.97812805875E-01  0.51100000000E-03 0.  1.
         11    1    4    4    0    0 -0.29150914970E-01 -0.17040895337E-01  0.92906478690E-03  0.33783017034E-01  0.51100000000E-03 0. -1.
</event>
<event>
 8    1  0.1123470E+005  0.1043930E+01  0.7957747E-01            NaN
         13   -1    0    0    0    0  0.00000000000E+00  0.00000000000E+00  0.74505805969E-08  0.10566000000E+00  0.10566000000E+00 0. -1.
     999900   -1    0    0    0    0 -0.00000000000E+00 -0.00000000000E+00 -0.74505805969E-08  0.93827000000E+00  0.93827000000E+00 0.  1.
     999902    2    1    2    0    0 -0.16885278796E-01  0.87448101566E-02  0.14309425138E-01  0.10201320171E+01  0.10198543956E+01 0.  0.
     999903    2    3    3    0    0  0.34257797810E-01  0.76140242054E-01 -0.96516238168E-01  0.12915497685E+00  0.19866822671E-01 0.  0.
         14    1    1    2    0    0  0.16885278796E-01 -0.87448101566E-02 -0.14309425138E-01  0.23797982949E-01  0.00000000000E+00 0.  1.
     999901    1    3    3    0    0 -0.51143076606E-01 -0.67395431898E-01  0.11082566331E+00  0.89097704021E+00  0.88000000000E+00 0.  1.
        -11    1    4    4    0    0  0.17412472346E-01  0.17149428487E-01 -0.26043975189E-01  0.35718998520E-01  0.51100000000E-03 0. -1.
         11    1    4    4    0    0  0.16845325464E-01  0.58990813567E-01 -0.70472262979E-01  0.93435978326E-01  0.51100000000E-03 0.  1.
</event>
<event>
 8    1  0.1123470E+005  0.1043930E+01  0.7957747E-01            NaN
         13   -1    0    0    0    0  0.00000000000E+00  0.00000000000E+00  0.74505805969E-08  0.10566000000E+00  0.10566000000E+00 0.  1.
     999900   -1    0    0    0    0 -0.00000000000E+00 -0.00000000000E+00 -0.74505805969E-08  0.93827000000E+00  0.93827000000E+00 0.  1.
     999902    2    1    2    0    0 -0.82985124597E-02  0.10742264285E-01 -0.19770458160E-01  0.10199480783E+01  0.10196660973E+01 0.  0.
     999903    2    3    3    0    0  0.53167476162E-01  0.12540524824E-01  0.11431268092E+00  0.12767032467E+00  0.15756823815E-01 0.  0.
         14    1    1    2    0    0  0.82985124597E-02 -0.10742264285E-01  0.19770458160E-01  0.23981921667E-01  0.00000000000E+00 0.  1.
     999901    1    3    3    0    0 -0.61465988622E-01 -0.17982605391E-02 -0.13408313908E+00  0.89227775366E+00  0.88000000000E+00 0.  1.
        -11    1    4    4    0    0  0.11892606872E-01  0.20971218711E-02  0.42484860470E-01  0.44170765315E-01  0.51100000000E-03 0. -1.
         11    1    4    4    0    0  0.41274869290E-01  0.10443402953E-01  0.71827820453E-01  0.83499559353E-01  0.51100000000E-03 0.  1.
</event>
<event>
 8    1  0.1123470E+005  0.1043930E+01  0.7957747E-01            NaN
         13   -1    0    0    0    0  0.00000000000E+00  0.00000000000E+00  0.74505805969E-08  0.10566000000E+00  0.10566000000E+00 0.  1.
     999900   -1    0    0    0    0 -0.00000000000E+00 -0.00000000000E+00 -0.74505805969E-08  0.93827000000E+00  0.93827000000E+00 0.  1.
     999902    2    1    2    0    0  0.22322550375E-01  0.47908620312E-03 -0.79603245463E-02  0.10202257273E+01  0.10199503135E+01 0.  0.
     999903    2    3    3    0    0 -0.16137374100E-01 -0.11576931859E+00  0.52517916660E-01  0.12969191260E+00  0.19972747778E-01 0.  0.
         14    1    1    2    0    0 -0.22322550375E-01 -0.47908620312E-03  0.79603245463E-02  0.23704272731E-01  0.00000000000E+00 0.  1.
     999901    1    3    3    0    0  0.38459924475E-01  0.11624840479E+00 -0.60478241206E-01  0.89053381467E+00  0.88000000000E+00 0. -1.
        -11    1    4    4    0    0 -0.83972673469E-02 -0.22514662263E-01  0.17693374619E-01  0.29845280064E-01  0.51100000000E-03 0. -1.
         11    1    4    4    0    0 -0.77401067526E-02 -0.93254656328E-01  0.34824542041E-01  0.99846632536E-01  0.51100000000E-03 0.  1.
</event>
<event>
 8    1  0.1123470E+005  0.1043930E+01  0.7957747E-01            NaN
         13   -1    0    0    0    0  0.00000000000E+00  0.00000000000E+00  0.74505805969E-08  0.10566000000E+00  0.10566000000E+00 0. -1.
     999900   -1    0    0    0    0 -0.00000000000E+00 -0.00000000000E+00 -0.74505805969E-08  0.93827000000E+00  0.93827000000E+00 0. -1.
     999902    2    1    2    0    0  0.65260772003E-02 -0.26815260091E-02  0.26291664168E-01  0.10167080994E+01  0.10163436071E+01 0.  0.
     999903    2    3    3    0    0 -0.94236881589E-01  0.48257072701E-01  0.69918165159E-01  0.12842256748E+00  0.19861296566E-01 0.  0.
         14    1    1    2    0    0 -0.65260772003E-02  0.26815260091E-02 -0.26291664168E-01  0.27221900560E-01  0.00000000000E+00 0.  1.
     999901    1    3    3    0    0  0.10076295879E+00 -0.50938598711E-01 -0.43626500991E-01  0.88828553196E+00  0.88000000000E+00 0. -1.
        -11    1    4    4    0    0 -0.77321045324E-01  0.44345254788E-01  0.65158195628E-01  0.11041239627E+00  0.51100000000E-03 0.  1.
         11    1    4    4    0    0 -0.16915836265E-01  0.39118179133E-02  0.47599695313E-02  0.18010171206E-01  0.51100000000E-03 0. -1.
</event>
<event>
 8    1  0.1123470E+005  0.1043930E+01  0.7957747E-01            NaN
         13   -1    0    0    0    0  0.00000000000E+00  0.00000000000E+00  0.74505805969E-08  0.10566000000E+00  0.10566000000E+00 0.  1.
     999900   -1    0    0    0    0 -0.00000000000E+00 -0.00000000000E+00 -0.74505805969E-08  0.93827000000E+00  0.93827000000E+00 0.  1.
     999902    2    1    2    0    0 -0.19459895015E-01  0.59130304916E-02  0.12297784064E-01  0.10201626498E+01  0.10198857510E+01 0.  0.
     999903    2    3    3    0    0  0.10919284281E+00 -0.16842916871E-01  0.63636115860E-01  0.12903696594E+00  0.19855038811E-01 0.  0.
         14    1    1    2    0    0  0.19459895015E-01 -0.59130304916E-02 -0.12297784064E-01  0.23767350220E-01  0.00000000000E+00 0. -1.
     999901    1    3    3    0    0 -0.12865273783E+00  0.22755947362E-01 -0.51338331796E-01  0.89112568384E+00  0.88000000000E+00 0.  1.
        -11    1    4    4    0    0  0.74228488877E-01 -0.20157205065E-01  0.47310790608E-01  0.90303673823E-01  0.51100000000E-03 0.  1.
         11    1    4    4    0    0  0.34964353937E-01  0.33142881941E-02  0.16325325252E-01  0.38733292115E-01  0.51100000000E-03 0. -1.
</event>
<event>
 8    1  0.1123470E+005  0.1043930E+01  0.7957747E-01            NaN
         13   -1    0    0    0    0  0.00000000000E+00  0.00000000000E+00  0.74505805969E-08  0.10566000000E+00  0.10566000000E+00 0. -1.
     999900   -1    0    0    0    0 -0.00000000000E+00 -0.00000000000E+00 -0.74505805969E-08  0.93827000000E+00  0.93827000000E+00 0. -1.
     999902    2    1    2    0    0 -0.15497084703E-01 -0.73748711739E-02 -0.15573114162E-01  0.10207552240E+01  0.10204921151E+01 0.  0.
     999903    2    3    3    0    0  0.25007631243E-01  0.45223132023E-01  0.11601403133E+00  0.12849833338E+00  0.19546174173E-01 0.  0.
         14    1    1    2    0    0  0.15497084703E-01  0.73748711739E-02  0.15573114162E-01  0.23174776026E-01  0.00000000000E+00 0. -1.
     999901    1    3    3    0    0 -0.40504715946E-01 -0.52598003197E-01 -0.13158714550E+00  0.89225689059E+00  0.88000000000E+00 0.  1.
        -11    1    4    4    0    0  0.22236969439E-01  0.35327669647E-01  0.10686651624E+00  0.11473116607E+00  0.51100000000E-03 0. -1.
         11    1    4    4    0    0  0.27706618037E-02  0.98954623757E-02  0.91475150927E-02  0.13767167313E-01  0.51100000000E-03 0.  1.
</event>
<event>
 8    1  0.1123470E+005  0.1043930E+01  0.7957747E-01            NaN
         13   -1    0    0    0    0  0.00000000000E+00  0.00000000000E+00  0.74505805969E-08  0.10566000000E+00  0.10566000000E+00 0.  1.
     999900   -1    0    0    0    0 -0.00000000000E+00 -0.00000000000E+00 -0.74505805969E-08  0.93827000000E+00  0.93827000000E+00 0. -1.
     999902    2    1    2    0    0 -0.16360032127E-01 -0.22190306747E-01 -0.76994642965E-02  0.10153058473E+01  0.10149022719E+01 0.  0.
     999903    2    3    3    0    0 -0.29129236077E-01  0.29381579530E-01 -0.11814123293E+00  0.12681268683E+00  0.20305590662E-01 0.  0.
         14    1    1    2    0    0  0.16360032127E-01  0.22190306747E-01  0.76994642965E-02  0.28624152654E-01  0.00000000000E+00 0. -1.
     999901    1    3    3    0    0  0.12769203950E-01 -0.51571886277E-01  0.11044176864E+00  0.88849316052E+00  0.88000000000E+00 0.  1.
        -11    1    4    4    0    0 -0.12476429875E-01  0.87479914645E-02 -0.19983466962E-01  0.25135407892E-01  0.51100000000E-03 0. -1.
         11    1    4    4    0    0 -0.16652806202E-01  0.20633588066E-01 -0.98157765971E-01  0.10167727894E+00  0.51100000000E-03 0.  1.
</event>
<event>
 8    1  0.1123470E+005  0.1043930E+01  0.7957747E-01            NaN
         13   -1    0    0    0    0  0.00000000000E+00  0.00000000000E+00  0.74505805969E-08  0.10566000000E+00  0.10566000000E+00 0. -1.
     999900   -1    0    0    0    0 -0.00000000000E+00 -0.00000000000E+00 -0.74505805969E-08  0.93827000000E+00  0.93827000000E+00 0. -1.
     999902    2    1    2    0    0 -0.98724296600E-02 -0.23878459071E-01  0.11768366705E-02  0.10180643738E+01  0.10177357410E+01 0.  0.
     999903    2    3    3    0    0  0.79875055289E-01  0.58131456461E-01 -0.76344558791E-01  0.12633021830E+00  0.19275417283E-01 0.  0.
         14    1    1    2    0    0  0.98724296600E-02  0.23878459071E-01 -0.11768366705E-02  0.25865626216E-01  0.00000000000E+00 0.  1.
     999901    1    3    3    0    0 -0.89747484949E-01 -0.82009915532E-01  0.77521395461E-01  0.89173415548E+00  0.88000000000E+00 0. -1.
        -11    1    4    4    0    0  0.58268888100E-01  0.32819891464E-01 -0.56724803805E-01  0.87694772272E-01  0.51100000000E-03 0. -1.
         11    1    4    4    0    0  0.21606167189E-01  0.25311564997E-01 -0.19619754986E-01  0.38635446030E-01  0.51100000000E-03 0.  1.
</event>
<event>
 8    1  0.1123470E+005  0.1043930E+01  0.7957747E-01            NaN
         13   -1    0    0    0    0  0.00000000000E+00  0.00000000000E+00  0.74505805969E-08  0.10566000000E+00  0.10566000000E+00 0.  1.
     999900   -1    0    0    0    0 -0.00000000000E+00 -0.00000000000E+00 -0.74505805969E-08  0.93827000000E+00  0.93827000000E+00 0. -1.
     999902    2    1    2    0    0  0.17097804152E-01  0.14008761227E-01  0.94574861770E-02  0.10198878632E+01  0.10196044474E+01 0.  0.
     999903    2    3    3    0    0 -0.11042001741E+00 -0.16240271032E-01 -0.58521885679E-01  0.12758914988E+00  0.19946263190E-01 0.  0.
         14    1    1    2    0    0 -0.17097804152E-01 -0.14008761227E-01 -0.94574861770E-02  0.24042136817E-01  0.00000000000E+00 0.  1.
     999901    1    3    3    0    0  0.12751782156E+00  0.30249032260E-01  0.67979371856E-01  0.89229871331E+00  0.88000000000E+00 0. -1.
        -11    1    4    4    0    0 -0.36947218102E-01 -0.26772915780E-04 -0.10828902713E-01  0.38504855502E-01  0.51100000000E-03 0.  1.
         11    1    4    4    0    0 -0.73472799308E-01 -0.16213498117E-01 -0.47692982966E-01  0.89084294376E-01  0.51100000000E-03 0. -1.
</event>
<event>
 8    1  0.1123470E+005  0.1043930E+01  0.7957747E-01            NaN
         13   -1    0    0    0    0  0.00000000000E+00  0.00000000000E+00  0.74505805969E-08  0.10566000000E+00  0.10566000000E+00 0.  1.
     999900   -1    0    0    0    0 -0.00000000000E+00 -0.00000000000E+00 -0.74505805969E-08  0.93827000000E+00  0.93827000000E+00 0. -1.
     999902    2    1    2    0    0 -0.60319740919E-02 -0.15827164021E-01 -0.23871186225E-01  0.10146602654E+01  0.10142380080E+01 0.  0.
     999903    2    3    3    0    0  0.76254733606E-01  0.61788618388E-01 -0.76416931962E-01  0.12586536929E+00  0.19233458752E-01 0.  0.
         14    1    1    2    0    0  0.60319740919E-02  0.15827164021E-01  0.23871186225E-01  0.29269734611E-01  0.00000000000E+00 0.  1.
     999901    1    3    3    0    0 -0.82286707698E-01 -0.77615782409E-01  0.52545745737E-01  0.88879489610E+00  0.88000000000E+00 0.  1.
        -11    1    4    4    0    0  0.42592091631E-01  0.22204190815E-01 -0.35709635917E-01  0.59854419867E-01  0.51100000000E-03 0.  1.
         11    1    4    4    0    0  0.33662641974E-01  0.39584427573E-01 -0.40707296045E-01  0.66010949420E-01  0.51100000000E-03 0. -1.
</event>
<event>
 8    1  0.1123470E+005  0.1043930E+01  0.7957747E-01            NaN
         13   -1    0    0    0    0  0.00000000000E+00  0.00000000000E+00  0.74505805969E-08  0.10566000000E+00  0.10566000000E+00 0.  1.
     999900   -1    0    0    0    0 -0.00000000000E+00 -0.00000000000E+00 -0.74505805969E-08  0.93827000000E+00  0.93827000000E+00 0.  1.
     999902    2    1    2    0    0 -0.24025035464E-02  0.13664592436E-02  0.23748974338E-01  0.10200207337E+01  0.10197404788E+01 0.  0.
     999903    2    3    3    0    0 -0.11689345619E+00 -0.49186547228E-03 -0.51585624229E-01  0.12941030630E+00  0.20533599717E-01 0.  0.
         14    1    1    2    0    0  0.24025035464E-02 -0.13664592436E-02 -0.23748974338E-01  0.23909266326E-01  0.00000000000E+00 0. -1.
     999901    1    3    3    0    0  0.11449095264E+00  0.18583247159E-02  0.75334598566E-01  0.89061042738E+00  0.88000000000E+00 0. -1.
        -11    1    4    4    0    0 -0.73209381082E-01 -0.33188379650E-02 -0.21799938145E-01  0.76459967224E-01  0.51100000000E-03 0.  1.
         11    1    4    4    0    0 -0.43684075109E-01  0.28269724927E-02 -0.29785686084E-01  0.52950339075E-01  0.51100000000E-03 0. -1.
</event>
<event>
 8    1  0.1123470E+005  0.1043930E+01  0.7957747E-01            NaN
         13   -1    0    0    0    0  0.00000000000E+00  0.00000000000E+00  0.74505805969E-08  0.10566000000E+00  0.10566000000E+00 0. -1.
     999900   -1    0    0    0    0 -0.00000000000E+00 -0.00000000000E+00 -0.74505805969E-08  0.93827000000E+00  0.93827000000E+00 0. -1.
     999902    2    1    2    0    0 -0.72818111415E-02  0.94505256016E-02  0.19744135990E-01  0.10208612308E+01  0.10206005508E+01 0.  0.
     999903    2    3    3    0    0  0.66615848321E-01 -0.35611913477E-01  0.10686973917E+00  0.13233303301E+00  0.19621693271E-01 0.  0.
         14    1    1    2    0    0  0.72818111415E-02 -0.94505256016E-02 -0.19744135990E-01  0.23068769227E-01  0.00000000000E+00 0.  1.
     999901    1    3    3    0    0 -0.73897659462E-01  0.45062439078E-01 -0.87125603179E-01  0.88852819776E+00  0.88000000000E+00 0. -1.
        -11    1    4    4    0    0  0.21036073810E-01 -0.13972468428E-01  0.51873805493E-01  0.57696612489E-01  0.51100000000E-03 0.  1.
         11    1    4    4    0    0  0.45579774511E-01 -0.21639445049E-01  0.54995933675E-01  0.74636420522E-01  0.51100000000E-03 0. -1.
</event>
<event>
 8    1  0.1123470E+005  0.1043930E+01  0.7957747E-01            NaN
         13   -1    0    0    0    0  0.00000000000E+00  0.00000000000E+00  0.74505805969E-08  0.10566000000E+00  0.10566000000E+00 0. -1.
     999900   -1    0    0    0    0 -0.00000000000E+00 -0.00000000000E+00 -0.74505805969E-08  0.93827000000E+00  0.93827000000E+00 0.  1.
     999902    2    1    2    0    0  0.60431363971E-03 -0.19902703324E-01  0.11022137607E-01  0.10211710389E+01  0.10209173915E+01 0.  0.
     999903    2    3    3    0    0 -0.59398897942E-01 -0.51329311620E-01 -0.10326796483E+00  0.13119899176E+00  0.19646261005E-01 0.  0.
         14    1    1    2    0    0 -0.60431363971E-03  0.19902703324E-01 -0.11022137607E-01  0.22758961137E-01  0.00000000000E+00 0.  1.
     999901    1    3    3    0    0  0.60003211582E-01  0.31426608296E-01  0.11429010243E+00  0.88997204710E+00  0.88000000000E+00 0. -1.
        -11    1    4    4    0    0 -0.49027601154E-01 -0.42613736744E-01 -0.71189173798E-01  0.96373211118E-01  0.51100000000E-03 0. -1.
         11    1    4    4    0    0 -0.10371296788E-01 -0.87155748754E-02 -0.32078791029E-01  0.34825780643E-01  0.51100000000E-03 0.  1.
</event>
<event>
 8    1  0.1123470E+005  0.1043930E+01  0.7957747E-01            NaN
         13   -1    0    0    0    0  0.00000000000E+00  0.00000000000E+00  0.74505805969E-08  0.10566000000E+00  0.10566000000E+00 0. -1.
     999900   -1    0    0    0    0 -0.00000000000E+00 -0.00000000000E+00 -0.74505805969E-08  0.93827000000E+00  0.93827000000E+00 0. -1.
     999902    2    1    2    0    0 -0.17292617343E-01 -0.42090785683E-02 -0.16427216804E-01  0.10197100824E+01  0.10194224089E+01 0.  0.
     999903    2    3    3    0    0 -0.10549514280E+00 -0.64174486991E-01  0.40444643057E-01  0.13144776520E+00  0.19878528320E-01 0.  0.
         14    1    1    2    0    0  0.17292617343E-01  0.42090785683E-02  0.16427216804E-01  0.24219917608E-01  0.00000000000E+00 0. -1.
     999901    1    3    3    0    0  0.88202525457E-01  0.59965408423E-01 -0.56871859862E-01  0.88826231719E+00  0.88000000000E+00 0.  1.
        -11    1    4    4    0    0 -0.85755235047E-01 -0.42379820335E-01  0.31389053375E-01  0.10067543545E+00  0.51100000000E-03 0. -1.
         11    1    4    4    0    0 -0.19739907754E-01 -0.21794666656E-01  0.90555896820E-02  0.30772329750E-01  0.51100000000E-03 0.  1.
</event>
<event>
 8    1  0.1123470E+005  0.1043930E+01  0.7957747E-01            NaN
         13   -1    0    0    0    0  0.00000000000E+00  0.00000000000E+00  0.74505805969E-08  0.10566000000E+00  0.10566000000E+00 0. -1.
     999900   -1    0    0    0    0 -0.00000000000E+00 -0.00000000000E+00 -0.74505805969E-08  0.93827000000E+00  0.93827000000E+00 0. -1.
     999902    2    1    2    0    0 -0.11638220834E-01  0.56622511750E-02 -0.19806842888E-01  0.10202694781E+01  0.10199950919E+01 0.  0.
     999903    2    3    3    0    0 -0.10693647814E+00  0.75162635140E-01  0.17671217307E-02  0.13213801418E+00  0.19300258896E-01 0.  0.
         14    1    1    2    0    0  0.11638220834E-01 -0.56622511750E-02  0.19806842888E-01  0.23660521925E-01  0.00000000000E+00 0.  1.
     999901    1    3    3    0    0  0.95298257305E-01 -0.69500383965E-01 -0.21573964619E-01  0.88813146390E+00  0.88000000000E+00 0. -1.
        -11    1    4    4    0    0 -0.44067592391E-01  0.40497912298E-01 -0.47981947746E-02  0.60044295264E-01  0.51100000000E-03 0.  1.
         11    1    4    4    0    0 -0.62868885748E-01  0.34664722842E-01  0.65653165053E-02  0.72093718913E-01  0.51100000000E-03 0. -1.
</event>
<event>
 8    1  0.1123470E+005  0.1043930E+01  0.7957747E-01            NaN
         13   -1    0    0    0    0  0.00000000000E+00  0.00000000000E+00  0.74505805969E-08  0.10566000000E+00  0.10566000000E+00 0.  1.
     999900   -1    0    0    0    0 -0.00000000000E+00 -0.00000000000E+00 -0.74505805969E-08  0.93827000000E+00  0.93827000000E+00 0.  1.
     999902    2    1    2    0    0  0.42254583925E-02  0.11468846348E-01 -0.19646931640E-01  0.10207914854E+01  0.10205292087E+01 0.  0.
     999903    2    3    3    0    0 -0.24027379404E-01 -0.10388408695E+00  0.68961031549E-01  0.12840373716E+00  0.19044089969E-01 0.  0.
         14    1    1    2    0    0 -0.42254583925E-02 -0.11468846348E-01  0.19646931640E-01  0.23138514604E-01  0.00000000000E+00 0.  1.
     999901    1    3    3    0    0  0.28252837796E-01  0.11535293329E+00 -0.88607963190E-01  0.89238774824E+00  0.88000000000E+00 0.  1.
        -11    1    4    4    0    0 -0.26071956457E-01 -0.87626035344E-01  0.53830324632E-01  0.10609445770E+00  0.51100000000E-03 0.  1.
         11    1    4    4    0    0  0.20445770532E-02 -0.16258051601E-01  0.15130706918E-01  0.22309279460E-01  0.51100000000E-03 0. -1.
</event>
<event>
 8    1  0.1123470E+005  0.1043930E+01  0.7957747E-01            NaN
         13   -1    0    0    0    0  0.00000000000E+00  0.00000000000E+00  0.74505805969E-08  0.10566000000E+00  0.10566000000E+00 0. -1.
     999900   -1    0    0    0    0 -0.00000000000E+00 -0.00000000000E+00 -0.74505805969E-08  0.93827000000E+00  0.93827000000E+00 0.  1.
     999902    2    1    2    0    0  0.22252101112E-01  0.63040233666E-02 -0.46667835691E-02  0.10203360265E+01  0.10200631997E+01 0.  0.
     999903    2    3    3    0    0  0.83165452189E-01 -0.98100262901E-01  0.20483224167E-01  0.13171731516E+00  0.19741697556E-01 0.  0.
         14    1    1    2    0    0 -0.22252101112E-01 -0.63040233666E-02  0.46667835691E-02  0.23593973455E-01  0.00000000000E+00 0. -1.
     999901    1    3    3    0    0 -0.60913351077E-01  0.10440428627E+00 -0.25150007736E-01  0.88861871138E+00  0.88000000000E+00 0.  1.
        -11    1    4    4    0    0  0.24665356396E-01 -0.32549984004E-01 -0.24416660551E-02  0.40915817466E-01  0.51100000000E-03 0. -1.
         11    1    4    4    0    0  0.58500095793E-01 -0.65550278897E-01  0.22924890222E-01  0.90801497697E-01  0.51100000000E-03 0.  1.
</event>
<event>
 8    1  0.1123470E+005  0.1043930E+01  0.7957747E-01            NaN
         13   -1    0    0    0    0  0.00000000000E+00  0.00000000000E+00  0.74505805969E-08  0.10566000000E+00  0.10566000000E+00 0.  1.
     999900   -1    0    0    0    0 -0.00000000000E+00 -0.00000000000E+00 -0.74505805969E-08  0.93827000000E+00  0.93827000000E+00 0. -1.
     999902    2    1    2    0    0  0.15272705392E-01 -0.15101144348E-01 -0.92487480347E-03  0.10224321982E+01  0.10222061653E+01 0.  0.
     999903    2    3    3    0    0  0.12331492297E+00 -0.39782560877E-01  0.31825957483E-01  0.13487661673E+00  0.19737978504E-01 0.  0.
         14    1    1    2    0    0 -0.15272705392E-01  0.15101144348E-01  0.92487480347E-03  0.21497801842E-01  0.00000000000E+00 0. -1.
     999901    1    3    3    0    0 -0.10804221758E+00  0.24681416529E-01 -0.32750832287E-01  0.88755558142E+00  0.88000000000E+00 0. -1.
        -11    1    4    4    0    0  0.21472251752E-01 -0.56474681928E-02 -0.19117536201E-02  0.22290522990E-01  0.51100000000E-03 0.  1.
         11    1    4    4    0    0  0.10184267122E+00 -0.34135092684E-01  0.33737711103E-01  0.11258609374E+00  0.51100000000E-03 0. -1.
</event>
<event>
 8    1  0.1123470E+005  0.1043930E+01  0.7957747E-01            NaN
         13   -1    0    0    0    0  0.00000000000E+00  0.00000000000E+00  0.74505805969E-08  0.10566000000E+00  0.10566000000E+00 0. -1.
     999900   -1    0    0    0    0 -0.00000000000E+00 -0.00000000000E+00 -0.74505805969E-08  0.93827000000E+00  0.93827000000E+00 0. -1.
     999902    2    1    2    0    0 -0.97530038055E-02  0.19305278209E-01 -0.10062514281E-01  0.10200748319E+01  0.10197958588E+01 0.  0.
     999903    2    3    3    0    0  0.90988624556E-01 -0.17884263601E-01 -0.88992942965E-01  0.13004002908E+00  0.19796175982E-01 0.  0.
         14    1    1    2    0    0  0.97530038055E-02 -0.19305278209E-01  0.10062514281E-01  0.23855168069E-01  0.00000000000E+00 0. -1.
     999901    1    3    3    0    0 -0.10074162836E+00  0.37189541810E-01  0.78930428684E-01  0.89003480285E+00  0.88000000000E+00 0. -1.
        -11    1    4    4    0    0  0.27577761995E-01 -0.11134552861E-01 -0.18722139934E-01  0.35146704949E-01  0.51100000000E-03 0. -1.
         11    1    4    4    0    0  0.63410862561E-01 -0.67497107397E-02 -0.70270803031E-01  0.94893324135E-01  0.51100000000E-03 0.  1.
</event>
<event>
 8    1  0.1123470E+005  0.1043930E+01  0.7957747E-01            NaN
         13   -1    0    0    0    0  0.00000000000E+00  0.00000000000E+00  0.74505805969E-08  0.10566000000E+00  0.10566000000E+00 0.  1.
     999900   -1    0    0    0    0 -0.00000000000E+00 -0.00000000000E+00 -0.74505805969E-08  0.93827000000E+00  0.93827000000E+00 0.  1.
     999902    2    1    2    0    0 -0.36282864071E-02  0.19142251628E-01  0.85739802629E-02  0.10226437745E+01  0.10224222152E+01 0.  0.
     999903    2    3    3    0    0  0.19081965066E-01  0.11397363882E+00 -0.65192671513E-01  0.13418991161E+00  0.20068288976E-01 0.  0.
         14    1    1    2    0    0  0.36282864071E-02 -0.19142251628E-01 -0.85739802629E-02  0.21286225527E-01  0.00000000000E+00 0.  1.
     999901    1    3    3    0    0 -0.22710251473E-01 -0.94831387194E-01  0.73766651776E-01  0.88845386286E+00  0.88000000000E+00 0. -1.
        -11    1    4    4    0    0  0.19842198548E-01  0.99222254394E-01 -0.63131722921E-01  0.11926711269E+00  0.51100000000E-03 0.  1.
         11    1    4    4    0    0 -0.76023348212E-03  0.14751384427E-01 -0.20609485927E-02  0.14922798918E-01  0.51100000000E-03 0. -1.
</event>
<event>
 8    1  0.1123470E+005  0.1043930E+01  0.7957747E-01            NaN
         13   -1    0    0    0    0  0.00000000000E+00  0.00000000000E+00  0.74505805969E-08  0.10566000000E+00  0.10566000000E+00 0. -1.
     999900   -1    0    0    0    0 -0.00000000000E+00 -0.00000000000E+00 -0.74505805969E-08  0.93827000000E+00  0.93827000000E+00 0.  1.
     999902    2    1    2    0    0  0.31600780361E-02  0.51194744664E-03  0.22404740891E-01  0.10212977090E+01  0.10210469087E+01 0.  0.
     999903    2    3    3    0    0  0.36133962564E-01  0.11849103729E+00  0.42529181714E-01  0.13258440546E+00  0.20593788006E-01 0.  0.
         14    1    1    2    0    0 -0.31600780361E-02 -0.51194744664E-03 -0.22404740891E-01  0.22632291041E-01  0.00000000000E+00 0.  1.
     999901    1    3    3    0    0 -0.32973884528E-01 -0.11797908984E+00 -0.20124440824E-01  0.88871330350E+00  0.88000000000E+00 0. -1.
        -11    1    4    4    0    0  0.68917506464E-02  0.11716616144E-01 -0.97074926220E-03  0.13637404297E-01  0.51100000000E-03 0. -1.
         11    1    4    4    0    0  0.29242211917E-01  0.10677442115E+00  0.43499930977E-01  0.11894700116E+00  0.51100000000E-03 0.  1.
</event>
<event>
 8    1  0.1123470E+005  0.1043930E+01  0.7957747E-01            NaN
         13   -1    0    0    0    0  0.00000000000E+00  0.00000000000E+00  0.74505805969E-08  0.10566000000E+00  0.10566000000E+00 0.  1.
     999900   -1    0    0    0    0 -0.00000000000E+00 -0.00000000000E+00 -0.74505805969E-08  0.93827000000E+00  0.93827000000E+00 0.  1.
     999902    2    1    2    0    0 -0.20834548379E-02 -0.17031659301E-01  0.16129003404E-01  0.10203808396E+01  0.10201090603E+01 0.  0.
     999903    2    3    3    0    0 -0.56305342751E-01  0.10734581093E+00 -0.36989400922E-01  0.12839915087E+00  0.20608527792E-01 0.  0.
         14    1    1    2    0    0  0.20834548379E-02  0.17031659301E-01 -0.16129003404E-01  0.23549160355E-01  0.00000000000E+00 0. -1.
     999901    1    3    3    0    0  0.54221887913E-01 -0.12437747023E+00  0.53118404326E-01  0.89198168877E+00  0.88000000000E+00 0. -1.
        -11    1    4    4    0    0 -0.18766357512E-01  0.21058621284E-01 -0.30975666513E-02  0.28381292162E-01  0.51100000000E-03 0.  1.
         11    1    4    4    0    0 -0.37538985239E-01  0.86287189645E-01 -0.33891834271E-01  0.10001785871E+00  0.51100000000E-03 0. -1.
</event>
<event>
 8    1  0.1123470E+005  0.1043930E+01  0.7957747E-01            NaN
         13   -1    0    0    0    0  0.00000000000E+00  0.00000000000E+00  0.74505805969E-08  0.10566000000E+00  0.10566000000E+00 0. -1.
     999900   -1    0    0    0    0 -0.00000000000E+00 -0.00000000000E+00 -0.74505805969E-08  0.93827000000E+00  0.93827000000E+00 0.  1.
     999902    2    1    2    0    0  0.12470249911E-01 -0.21345973739E-01  0.33606794882E-02  0.10189810142E+01  0.10186755398E+01 0.  0.
     999903    2    3    3    0    0 -0.99816446003E-01 -0.78544269381E-01 -0.16733913775E-01  0.12977702194E+00  0.20725018902E-01 0.  0.
         14    1    1    2    0    0 -0.12470249911E-01  0.21345973739E-01 -0.33606794882E-02  0.24948985838E-01  0.00000000000E+00 0.  1.
     999901    1    3    3    0    0  0.11228669591E+00  0.57198295642E-01  0.20094593263E-01  0.88920399222E+00  0.88000000000E+00 0. -1.
        -11    1    4    4    0    0 -0.32570638692E-01 -0.36295417814E-01 -0.11965736307E-01  0.50215971816E-01  0.51100000000E-03 0.  1.
         11    1    4    4    0    0 -0.67245807311E-01 -0.42248851567E-01 -0.47681774679E-02  0.79561050125E-01  0.51100000000E-03 0. -1.
</event>
<event>
 8    1  0.1123470E+005  0.1043930E+01  0.7957747E-01            NaN
         13   -1    0    0    0    0  0.00000000000E+00  0.00000000000E+00  0.74505805969E-08  0.10566000000E+00  0.10566000000E+00 0.  1.
     999900   -1    0    0    0    0 -0.00000000000E+00 -0.00000000000E+00 -0.74505805969E-08  0.93827000000E+00  0.93827000000E+00 0.  1.
     999902    2    1    2    0    0  0.21289446395E-01  0.36009779984E-02 -0.12719601452E-01  0.10188701550E+01  0.10185619259E+01 0.  0.
     999903    2    3    3    0    0  0.12577040864E+00 -0.32830931657E-01  0.61936821997E-02  0.13173923579E+00  0.20513380646E-01 0.  0.
         14    1    1    2    0    0 -0.21289446395E-01 -0.36009779984E-02  0.12719601452E-01  0.25059845000E-01  0.00000000000E+00 0.  1.
     999901    1    3    3    0    0 -0.10448096225E+00  0.36431909656E-01 -0.18913283652E-01  0.88713091921E+00  0.88000000000E+00 0.  1.
        -11    1    4    4    0    0  0.90140023519E-01 -0.15913555832E-01 -0.15111239450E-02  0.91547854785E-01  0.51100000000E-03 0. -1.
         11    1    4    4    0    0  0.35630385121E-01 -0.16917375825E-01  0.77048061446E-02  0.40191381009E-01  0.51100000000E-03 0.  1.
</event>
<event>
 8    1  0.1123470E+005  0.1043930E+01  0.7957747E-01            NaN
         13   -1    0    0    0    0  0.00000000000E+00  0.00000000000E+00  0.74505805969E-08  0.10566000000E+00  0.10566000000E+00 0. -1.
     999900   -1    0    0    0    0 -0.00000000000E+00 -0.00000000000E+00 -0.74505805969E-08  0.93827000000E+00  0.93827000000E+00 0.  1.
     999902    2    1    2    0    0  0.23046019323E-01  0.15665039519E-02  0.55915683375E-02  0.10201636671E+01  0.10198867923E+01 0.  0.
     999903    2    3    3    0    0  0.11113407900E+00 -0.53015258788E-01 -0.45142024394E-01  0.13263193671E+00  0.19799674001E-01 0.  0.
         14    1    1    2    0    0 -0.23046019323E-01 -0.15665039519E-02 -0.55915683375E-02  0.23766332863E-01  0.00000000000E+00 0.  1.
     999901    1    3    3    0    0 -0.88088059674E-01  0.54581762740E-01  0.50733592732E-01  0.88753173043E+00  0.88000000000E+00 0. -1.
        -11    1    4    4    0    0  0.44147559657E-01 -0.31479784417E-01 -0.16716664606E-01  0.56742328531E-01  0.51100000000E-03 0. -1.
         11    1    4    4    0    0  0.66986519339E-01 -0.21535474371E-01 -0.28425359788E-01  0.75889608180E-01  0.51100000000E-03 0.  1.
</event>
<event>
 8    1  0.1123470E+005  0.1043930E+01  0.7957747E-01            NaN
         13   -1    0    0    0    0  0.00000000000E+00  0.00000000000E+00  0.74505805969E-08  0.10566000000E+00  0.10566000000E+00 0.  1.
     999900   -1    0    0    0    0 -0.00000000000E+00 -0.00000000000E+00 -0.74505805969E-08  0.93827000000E+00  0.93827000000E+00 0.  1.
     999902    2    1    2    0    0 -0.79701283681E-02  0.17951887863E-01 -0.13039347730E-01  0.10203542113E+01  0.10200818098E+01 0.  0.
     999903    2    3    3    0    0 -0.80689151135E-01 -0.84332123862E-01  0.50395828016E-01  0.12918975012E+00  0.22969671948E-01 0.  0.
         14    1    1    2    0    0  0.79701283681E-02 -0.17951887863E-01  0.13039347730E-01  0.23575788709E-01  0.00000000000E+00 0.  1.
     999901    1    3    3    0    0  0.72719022767E-01  0.10228401173E+00 -0.63435175746E-01  0.89116446117E+00  0.88000000000E+00 0. -1.
        -11    1    4    4    0    0 -0.22099957704E-01 -0.36522320925E-01  0.11823739691E-01  0.44298419809E-01  0.51100000000E-03 0.  1.
         11    1    4    4    0    0 -0.58589193430E-01 -0.47809802937E-01  0.38572088325E-01  0.84891330314E-01  0.51100000000E-03 0. -1.
</event>
<event>
 8    1  0.1123470E+005  0.1043930E+01  0.7957747E-01            NaN
         13   -1    0    0    0    0  0.00000000000E+00  0.00000000000E+00  0.74505805969E-08  0.10566000000E+00  0.10566000000E+00 0. -1.
     999900   -1    0    0    0    0 -0.00000000000E+00 -0.00000000000E+00 -0.74505805969E-08  0.93827000000E+00  0.93827000000E+00 0.  1.
     999902    2    1    2    0    0  0.15189000549E-01  0.16342645929E-01  0.12766030557E-01  0.10182247603E+01  0.10179002422E+01 0.  0.
     999903    2    3    3    0    0 -0.11848732344E-01 -0.84171146951E-01 -0.90633960722E-01  0.12607812447E+00  0.21354254781E-01 0.  0.
         14    1    1    2    0    0 -0.15189000549E-01 -0.16342645929E-01 -0.12766030557E-01  0.25705239735E-01  0.00000000000E+00 0. -1.
     999901    1    3    3    0    0  0.27037732893E-01  0.10051379288E+00  0.10339999128E+00  0.89214663579E+00  0.88000000000E+00 0.  1.
        -11    1    4    4    0    0 -0.72515153191E-02 -0.61380014917E-01 -0.51036558402E-01  0.80156609960E-01  0.51100000000E-03 0.  1.
         11    1    4    4    0    0 -0.45972170254E-02 -0.22791132034E-01 -0.39597402319E-01  0.45921514513E-01  0.51100000000E-03 0. -1.
</event>
<event>
 8    1  0.1123470E+005  0.1043930E+01  0.7957747E-01            NaN
         13   -1    0    0    0    0  0.00000000000E+00  0.00000000000E+00  0.74505805969E-08  0.10566000000E+00  0.10566000000E+00 0. -1.
     999900   -1    0    0    0    0 -0.00000000000E+00 -0.00000000000E+00 -0.74505805969E-08  0.93827000000E+00  0.93827000000E+00 0.  1.
     999902    2    1    2    0    0 -0.19803062918E-01  0.12089830807E-01  0.30214110266E-02  0.10205322601E+01  0.10202640048E+01 0.  0.
     999903    2    3    3    0    0  0.94148913593E-01  0.90016042831E-02 -0.85098923694E-01  0.12881493742E+00  0.20159724179E-01 0.  0.
         14    1    1    2    0    0  0.19803062918E-01 -0.12089830807E-01 -0.30214110266E-02  0.23397739944E-01  0.00000000000E+00 0. -1.
     999901    1    3    3    0    0 -0.11395197651E+00  0.30882265234E-02  0.88120334720E-01  0.89171732263E+00  0.88000000000E+00 0. -1.
        -11    1    4    4    0    0  0.23380586757E-01 -0.38431095169E-02 -0.13258340353E-01  0.27156325925E-01  0.51100000000E-03 0. -1.
         11    1    4    4    0    0  0.70768326836E-01  0.12844713800E-01 -0.71840583341E-01  0.10165861150E+00  0.51100000000E-03 0.  1.
</event>
<event>
 8    1  0.1123470E+005  0.1043930E+01  0.7957747E-01            NaN
         13   -1    0    0    0    0  0.00000000000E+00  0.00000000000E+00  0.74505805969E-08  0.10566000000E+00  0.10566000000E+00 0. -1.
     999900   -1    0    0    0    0 -0.00000000000E+00 -0.00000000000E+00 -0.74505805969E-08  0.93827000000E+00  0.93827000000E+00 0.  1.
     999902    2    1    2    0    0  0.77656370786E-02 -0.24808801838E-01 -0.20615571326E-01  0.10107519418E+01  0.10102072580E+01 0.  0.
     999903    2    3    3    0    0  0.53606752164E-01 -0.85671900956E-01 -0.72426957176E-01  0.12594114595E+00  0.20053668656E-01 0.  0.
         14    1    1    2    0    0 -0.77656370786E-02  0.24808801838E-01  0.20615571326E-01  0.33178058246E-01  0.00000000000E+00 0.  1.
     999901    1    3    3    0    0 -0.45841115085E-01  0.60863099118E-01  0.51811385850E-01  0.88481079580E+00  0.88000000000E+00 0. -1.
        -11    1    4    4    0    0  0.50856456324E-01 -0.72392524985E-01 -0.68262806691E-01  0.11174582194E+00  0.51100000000E-03 0.  1.
         11    1    4    4    0    0  0.27502958395E-02 -0.13279375971E-01 -0.41641504847E-02  0.14195324007E-01  0.51100000000E-03 0. -1.
</event>
<event>
 7    1  0.1123470E+005  0.1043930E+01  0.7957747E-01            NaN
         13   -1    0    0    0    0  0.00000000000E+00  0.00000000000E+00  0.74505805969E-08  0.10566000000E+00  0.10566000000E+00 0. -1.
     999900   -1    0    0    0    0 -0.00000000000E+00 -0.00000000000E+00 -0.74505805969E-08  0.93827000000E+00  0.93827000000E+00 0.  1.
     999903    2    1    2    0    0  0.84338471268E-01  0.42912920119E-01  0.58999317875E-01  0.11280194774E+00  0.16995983480E-01 0.  0.
         14    1    1    2    0    0 -0.32586948357E-01  0.28030964096E-01 -0.15482344002E-01  0.45687494210E-01  0.00000000000E+00 0. -1.
     999901    1    1    2    0    0 -0.51751522910E-01 -0.70943884216E-01 -0.43516973874E-01  0.88544055805E+00  0.88000000000E+00 0.  1.
        -11    1    3    3    0    0  0.83208805324E-01  0.43058205264E-01  0.55065203473E-01  0.10867452359E+00  0.51100000000E-03 0.  1.
         11    1    3    3    0    0  0.11296659439E-02 -0.14528514505E-03  0.39341144018E-02  0.41274241416E-02  0.51100000000E-03 0. -1.
</event>
<event>
 8    1  0.1123470E+005  0.1043930E+01  0.7957747E-01            NaN
         13   -1    0    0    0    0  0.00000000000E+00  0.00000000000E+00  0.74505805969E-08  0.10566000000E+00  0.10566000000E+00 0. -1.
     999900   -1    0    0    0    0 -0.00000000000E+00 -0.00000000000E+00 -0.74505805969E-08  0.93827000000E+00  0.93827000000E+00 0. -1.
     999902    2    1    2    0    0  0.18898268518E-01  0.12553652288E-01  0.41690014937E-02  0.10208622885E+01  0.10206016328E+01 0.  0.
     999903    2    3    3    0    0  0.92291257262E-01  0.85099674522E-01 -0.41350266120E-01  0.13366362991E+00  0.19912073785E-01 0.  0.
         14    1    1    2    0    0 -0.18898268518E-01 -0.12553652288E-01 -0.41690014937E-02  0.23067711464E-01  0.00000000000E+00 0. -1.
     999901    1    3    3    0    0 -0.73392988745E-01 -0.72546022234E-01  0.45519267614E-01  0.88719865862E+00  0.88000000000E+00 0. -1.
        -11    1    4    4    0    0  0.72017723791E-01  0.54873894971E-01 -0.32553604418E-01  0.96216917280E-01  0.51100000000E-03 0. -1.
         11    1    4    4    0    0  0.20273533472E-01  0.30225779551E-01 -0.87966617028E-02  0.37446712633E-01  0.51100000000E-03 0.  1.
</event>
<event>
 8    1  0.1123470E+005  0.1043930E+01  0.7957747E-01            NaN
         13   -1    0    0    0    0  0.00000000000E+00  0.00000000000E+00  0.74505805969E-08  0.10566000000E+00  0.10566000000E+00 0. -1.
     999900   -1    0    0    0    0 -0.00000000000E+00 -0.00000000000E+00 -0.74505805969E-08  0.93827000000E+00  0.93827000000E+00 0. -1.
     999902    2    1    2    0    0 -0.20075136459E-01 -0.83389008832E-02 -0.74805339469E-02  0.10209407251E+01  0.10206818591E+01 0.  0.
     999903    2    3    3    0    0 -0.28123684103E-01  0.38037936389E-01  0.12028676168E+00  0.13046889962E+00  0.17759575523E-01 0.  0.
         14    1    1    2    0    0  0.20075136459E-01  0.83389008832E-02  0.74805339469E-02  0.22989274889E-01  0.00000000000E+00 0. -1.
     999901    1    3    3    0    0  0.80485476438E-02 -0.46376837272E-01 -0.12776729562E+00  0.89047182549E+00  0.88000000000E+00 0. -1.
        -11    1    4    4    0    0 -0.18843365328E-01  0.24853003879E-01  0.98756835959E-01  0.10356600788E+00  0.51100000000E-03 0.  1.
         11    1    4    4    0    0 -0.92803187752E-02  0.13184932510E-01  0.21529925716E-01  0.26902891744E-01  0.51100000000E-03 0. -1.
</event>
<event>
 8    1  0.1123470E+005  0.1043930E+01  0.7957747E-01            NaN
         13   -1    0    0    0    0  0.00000000000E+00  0.00000000000E+00  0.74505805969E-08  0.10566000000E+00  0.10566000000E+00 0. -1.
     999900   -1    0    0    0    0 -0.00000000000E+00 -0.00000000000E+00 -0.74505805969E-08  0.93827000000E+00  0.93827000000E+00 0.  1.
     999902    2    1    2    0    0 -0.18057091610E-01 -0.99501902174E-02  0.95988407691E-02  0.10211879116E+01  0.10209346444E+01 0.  0.
     999903    2    3    3    0    0 -0.10332906210E-01  0.12142093520E-01  0.13047238776E+00  0.13261706666E+00  0.17608038347E-01 0.  0.
         14    1    1    2    0    0  0.18057091610E-01  0.99501902174E-02 -0.95988407691E-02  0.22742088446E-01  0.00000000000E+00 0.  1.
     999901    1    3    3    0    0 -0.77241853992E-02 -0.22092283737E-01 -0.12087354699E+00  0.88857084490E+00  0.88000000000E+00 0.  1.
        -11    1    4    4    0    0 -0.62297363305E-02  0.13424901495E-02  0.96865032195E-01  0.97075782138E-01  0.51100000000E-03 0.  1.
         11    1    4    4    0    0 -0.41031698799E-02  0.10799603370E-01  0.33607355567E-01  0.35541284518E-01  0.51100000000E-03 0. -1.
</event>
<event>
 8    1  0.1123470E+005  0.1043930E+01  0.7957747E-01            NaN
         13   -1    0    0    0    0  0.00000000000E+00  0.00000000000E+00  0.74505805969E-08  0.10566000000E+00  0.10566000000E+00 0. -1.
     999900   -1    0    0    0    0 -0.00000000000E+00 -0.00000000000E+00 -0.74505805969E-08  0.93827000000E+00  0.93827000000E+00 0. -1.
     999902    2    1    2    0    0 -0.58639769263E-02  0.23102188537E-01 -0.50079687261E-02  0.10195747728E+01  0.10192838369E+01 0.  0.
     999903    2    3    3    0    0  0.11332414403E+00  0.62038843317E-01  0.10941130639E-02  0.13066583110E+00  0.19523898981E-01 0.  0.
         14    1    1    2    0    0  0.58639769263E-02 -0.23102188537E-01  0.50079687261E-02  0.24355227187E-01  0.00000000000E+00 0. -1.
     999901    1    3    3    0    0 -0.11918812096E+00 -0.38936654780E-01 -0.61020817900E-02  0.88890894172E+00  0.88000000000E+00 0. -1.
        -11    1    4    4    0    0  0.94762262192E-01  0.43467742642E-01  0.33159501514E-02  0.10431005528E+00  0.51100000000E-03 0. -1.
         11    1    4    4    0    0  0.18561881841E-01  0.18571100675E-01 -0.22218370875E-02  0.26355775815E-01  0.51100000000E-03 0.  1.
</event>
<event>
 8    1  0.1123470E+005  0.1043930E+01  0.7957747E-01            NaN
         13   -1    0    0    0    0  0.00000000000E+00  0.00000000000E+00  0.74505805969E-08  0.10566000000E+00  0.10566000000E+00 0.  1.
     999900   -1    0    0    0    0 -0.00000000000E+00 -0.00000000000E+00 -0.74505805969E-08  0.93827000000E+00  0.93827000000E+00 0. -1.
     999902    2    1    2    0    0 -0.20579512333E-01 -0.75333240983E-02  0.86785010198E-02  0.10203591774E+01  0.10200868920E+01 0.  0.
     999903    2    3    3    0    0  0.64155661799E-01  0.80537815818E-01  0.75581474146E-01  0.12939757144E+00  0.20709503670E-01 0.  0.
         14    1    1    2    0    0  0.20579512333E-01  0.75333240983E-02 -0.86785010198E-02  0.23570822637E-01  0.00000000000E+00 0. -1.
     999901    1    3    3    0    0 -0.84735174132E-01 -0.88071139916E-01 -0.66902973126E-01  0.89096160593E+00  0.88000000000E+00 0. -1.
        -11    1    4    4    0    0  0.56997784913E-01  0.77067463018E-01  0.63706346477E-01  0.11509518254E+00  0.51100000000E-03 0. -1.
         11    1    4    4    0    0  0.71578768858E-02  0.34703527996E-02  0.11875127669E-01  0.14302388899E-01  0.51100000000E-03 0.  1.
</event>
<event>
 8    1  0.1123470E+005  0.1043930E+01  0.7957747E-01            NaN
         13   -1    0    0    0    0  0.00000000000E+00  0.00000000000E+00  0.74505805969E-08  0.10566000000E+00  0.10566000000E+00 0.  1.
     999900   -1    0    0    0    0 -0.00000000000E+00 -0.00000000000E+00 -0.74505805969E-08  0.93827000000E+00  0.93827000000E+00 0. -1.
     999902    2    1    2    0    0 -0.22977938243E-01  0.64692702590E-02  0.31113388566E-02  0.10198568296E+01  0.10195726729E+01 0.  0.
     999903    2    3    3    0    0 -0.72101151752E-01  0.66204459688E-01 -0.86224134411E-01  0.13195919488E+00  0.19925390621E-01 0.  0.
         14    1    1    2    0    0  0.22977938243E-01 -0.64692702590E-02 -0.31113388566E-02  0.24073170399E-01  0.00000000000E+00 0. -1.
     999901    1    3    3    0    0  0.49123213509E-01 -0.59735189429E-01  0.89335473267E-01  0.88789763472E+00  0.88000000000E+00 0.  1.
        -11    1    4    4    0    0 -0.39656425262E-01  0.43138788751E-01 -0.39976724162E-01  0.70936498048E-01  0.51100000000E-03 0. -1.
         11    1    4    4    0    0 -0.32444726490E-01  0.23065670937E-01 -0.46247410249E-01  0.61022696831E-01  0.51100000000E-03 0.  1.
</event>
<event>
 8    1  0.1123470E+005  0.1043930E+01  0.7957747E-01            NaN
         13   -1    0    0    0    0  0.00000000000E+00  0.00000000000E+00  0.74505805969E-08  0.10566000000E+00  0.10566000000E+00 0.  1.
     999900   -1    0    0    0    0 -0.00000000000E+00 -0.00000000000E+00 -0.74505805969E-08  0.93827000000E+00  0.93827000000E+00 0.  1.
     999902    2    1    2    0    0  0.23564447869E-01  0.62543264258E-03 -0.11217686986E-02  0.10203305777E+01  0.10200576234E+01 0.  0.
     999903    2    3    3    0    0  0.82740129753E-01 -0.42151112753E-01 -0.92422053390E-01  0.13259901005E+00  0.20445442901E-01 0.  0.
         14    1    1    2    0    0 -0.23564447869E-01 -0.62543264258E-03  0.11217686986E-02  0.23599422331E-01  0.00000000000E+00 0.  1.
     999901    1    3    3    0    0 -0.59175681885E-01  0.42776545396E-01  0.91300284692E-01  0.88773156762E+00  0.88000000000E+00 0. -1.
        -11    1    4    4    0    0  0.71819953151E-01 -0.37809016564E-01 -0.69586801834E-01  0.10691216729E+00  0.51100000000E-03 0.  1.
         11    1    4    4    0    0  0.10920176602E-01 -0.43420961896E-02 -0.22835251556E-01  0.25686842760E-01  0.51100000000E-03 0. -1.
</event>
<event>
 8    1  0.1123470E+005  0.1043930E+01  0.7957747E-01            NaN
         13   -1    0    0    0    0  0.00000000000E+00  0.00000000000E+00  0.74505805969E-08  0.10566000000E+00  0.10566000000E+00 0. -1.
     999900   -1    0    0    0    0 -0.00000000000E+00 -0.00000000000E+00 -0.74505805969E-08  0.93827000000E+00  0.93827000000E+00 0.  1.
     999902    2    1    2    0    0 -0.84452553213E-02  0.21016864732E-01 -0.10590087456E-01  0.10189263824E+01  0.10186195521E+01 0.  0.
     999903    2    3    3    0    0 -0.76783341809E-01 -0.67555887817E-01 -0.76681725604E-01  0.12938530342E+00  0.20024738259E-01 0.  0.
         14    1    1    2    0    0  0.84452553213E-02 -0.21016864732E-01  0.10590087456E-01  0.25003617597E-01  0.00000000000E+00 0. -1.
     999901    1    3    3    0    0  0.68338086488E-01  0.88572752549E-01  0.66091638148E-01  0.88954107898E+00  0.88000000000E+00 0. -1.
        -11    1    4    4    0    0 -0.48068219313E-01 -0.29592628843E-01 -0.45175803882E-01  0.72300703780E-01  0.51100000000E-03 0.  1.
         11    1    4    4    0    0 -0.28715122497E-01 -0.37963258974E-01 -0.31505921721E-01  0.57084599643E-01  0.51100000000E-03 0. -1.
</event>
<event>
 8    1  0.1123470E+005  0.1043930E+01  0.7957747E-01            NaN
         13   -1    0    0    0    0  0.00000000000E+00  0.00000000000E+00  0.74505805969E-08  0.10566000000E+00  0.10566000000E+00 0.  1.
     999900   -1    0    0    0    0 -0.00000000000E+00 -0.00000000000E+00 -0.74505805969E-08  0.93827000000E+00  0.93827000000E+00 0. -1.
     999902    2    1    2    0    0  0.39452477812E-02  0.23935185100E-01 -0.10997850872E-03  0.10196715961E+01  0.10193829966E+01 0.  0.
     999903    2    3    3    0    0  0.86609775055E-01 -0.19312286073E-02  0.95246642778E-01  0.13029238525E+00  0.19979987831E-01 0.  0.
         14    1    1    2    0    0 -0.39452477812E-02 -0.23935185100E-01  0.10997850872E-03  0.24258403927E-01  0.00000000000E+00 0. -1.
     999901    1    3    3    0    0 -0.82664527274E-01  0.25866413707E-01 -0.95356621286E-01  0.88937921083E+00  0.88000000000E+00 0. -1.
        -11    1    4    4    0    0  0.67463534736E-01  0.48149547308E-03  0.84728288589E-01  0.10830837625E+00  0.51100000000E-03 0. -1.
         11    1    4    4    0    0  0.19146240320E-01 -0.24127240804E-02  0.10518354188E-01  0.21984009000E-01  0.51100000000E-03 0.  1.
</event>
<event>
 7    1  0.1143104E+005  0.1043930E+01  0.7957747E-01            NaN
         13   -1    0    0    0    0  0.00000000000E+00  0.00000000000E+00  0.74505805969E-08  0.10566000000E+00  0.10566000000E+00 0. -1.
     999900   -1    0    0    0    0 -0.00000000000E+00 -0.00000000000E+00 -0.74505805969E-08  0.93827000000E+00  0.93827000000E+00 0. -1.
     999903    2    1    2    0    0 -0.89545544814E-01  0.47388542655E-01  0.61935177440E-01  0.11953361707E+00  0.13720088699E-01 0.  0.
         14    1    1    2    0    0  0.23520595029E-01 -0.26294922245E-01 -0.20270332516E-01  0.40688176498E-01  0.00000000000E+00 0.  1.
     999901    1    1    2    0    0  0.66024949785E-01 -0.21093620410E-01 -0.41664844924E-01  0.88370820643E+00  0.88000000000E+00 0. -1.
        -11    1    3    3    0    0 -0.48539939855E-01  0.18009530507E-01  0.32371102587E-01  0.61062413593E-01  0.51100000000E-03 0.  1.
         11    1    3    3    0    0 -0.41005604959E-01  0.29379012148E-01  0.29564074853E-01  0.58471203475E-01  0.51100000000E-03 0. -1.
</event>
<event>
 8    1  0.1123470E+005  0.1043930E+01  0.7957747E-01            NaN
         13   -1    0    0    0    0  0.00000000000E+00  0.00000000000E+00  0.74505805969E-08  0.10566000000E+00  0.10566000000E+00 0. -1.
     999900   -1    0    0    0    0 -0.00000000000E+00 -0.00000000000E+00 -0.74505805969E-08  0.93827000000E+00  0.93827000000E+00 0.  1.
     999902    2    1    2    0    0  0.29276840348E-02 -0.19566654923E-01 -0.14944578633E-01  0.10191355299E+01  0.10188338738E+01 0.  0.
     999903    2    3    3    0    0 -0.24958774648E-01  0.48954642764E-01 -0.11629235445E+00  0.13023497611E+00  0.20438684345E-01 0.  0.
         14    1    1    2    0    0 -0.29276840348E-02  0.19566654923E-01  0.14944578633E-01  0.24794470133E-01  0.00000000000E+00 0. -1.
     999901    1    3    3    0    0  0.27886458682E-01 -0.68521297687E-01  0.10134777582E+00  0.88890055376E+00  0.88000000000E+00 0. -1.
        -11    1    4    4    0    0 -0.17526707240E-01  0.28806932130E-01 -0.91021867401E-01  0.97068358757E-01  0.51100000000E-03 0.  1.
         11    1    4    4    0    0 -0.74320674072E-02  0.20147710634E-01 -0.25270487048E-01  0.33166617349E-01  0.51100000000E-03 0. -1.
</event>
<event>
 8    1  0.1123470E+005  0.1043930E+01  0.7957747E-01            NaN
         13   -1    0    0    0    0  0.00000000000E+00  0.00000000000E+00  0.74505805969E-08  0.10566000000E+00  0.10566000000E+00 0. -1.
     999900   -1    0    0    0    0 -0.00000000000E+00 -0.00000000000E+00 -0.74505805969E-08  0.93827000000E+00  0.93827000000E+00 0. -1.
     999902    2    1    2    0    0  0.15243984481E-01 -0.14790894499E-01 -0.11501865391E-01  0.10197754449E+01  0.10194893406E+01 0.  0.
     999903    2    3    3    0    0 -0.27717684461E-01 -0.36274279361E-01 -0.12161584772E+00  0.13161311184E+00  0.21154276553E-01 0.  0.
         14    1    1    2    0    0 -0.15243984481E-01  0.14790894499E-01  0.11501865391E-01  0.24154555065E-01  0.00000000000E+00 0.  1.
     999901    1    3    3    0    0  0.42961668941E-01  0.21483384862E-01  0.11011398233E+00  0.88816233309E+00  0.88000000000E+00 0.  1.
        -11    1    4    4    0    0 -0.24460495843E-01 -0.14848171480E-01 -0.70922485494E-01  0.76479043684E-01  0.51100000000E-03 0.  1.
         11    1    4    4    0    0 -0.32571886175E-02 -0.21426107881E-01 -0.50693362227E-01  0.55134068156E-01  0.51100000000E-03 0. -1.
</event>
<event>
 8    1  0.1123470E+005  0.1043930E+01  0.7957747E-01            NaN
         13   -1    0    0    0    0  0.00000000000E+00  0.00000000000E+00  0.74505805969E-08  0.10566000000E+00  0.10566000000E+00 0.  1.
     999900   -1    0    0    0    0 -0.00000000000E+00 -0.00000000000E+00 -0.74505805969E-08  0.93827000000E+00  0.93827000000E+00 0. -1.
     999902    2    1    2    0    0 -0.16173507065E-01  0.90863729323E-02  0.14932696457E-01  0.10201155101E+01  0.10198374989E+01 0.  0.
     999903    2    3    3    0    0 -0.54373295376E-01 -0.10384995364E+00 -0.50660181466E-01  0.12965705332E+00  0.22432774425E-01 0.  0.
         14    1    1    2    0    0  0.16173507065E-01 -0.90863729323E-02 -0.14932696457E-01  0.23814489861E-01  0.00000000000E+00 0.  1.
     999901    1    3    3    0    0  0.38199788312E-01  0.11293632657E+00  0.65592877923E-01  0.89045845682E+00  0.88000000000E+00 0. -1.
        -11    1    4    4    0    0 -0.44067510780E-01 -0.89229047532E-01 -0.33887797785E-01  0.10513045415E+00  0.51100000000E-03 0.  1.
         11    1    4    4    0    0 -0.10305784596E-01 -0.14620906108E-01 -0.16772383681E-01  0.24526599171E-01  0.51100000000E-03 0. -1.
</event>
<event>
 8    1  0.1123470E+005  0.1043930E+01  0.7957747E-01            NaN
         13   -1    0    0    0    0  0.00000000000E+00  0.00000000000E+00  0.74505805969E-08  0.10566000000E+00  0.10566000000E+00 0. -1.
     999900   -1    0    0    0    0 -0.00000000000E+00 -0.00000000000E+00 -0.74505805969E-08  0.93827000000E+00  0.93827000000E+00 0.  1.
     999902    2    1    2    0    0  0.20636547485E-01  0.68589963012E-02 -0.78023486285E-02  0.10208261136E+01  0.10205646303E+01 0.  0.
     999903    2    3    3    0    0 -0.42139186657E-01 -0.11533698357E+00 -0.36687847892E-01  0.12969928629E+00  0.19939304143E-01 0.  0.
         14    1    1    2    0    0 -0.20636547485E-01 -0.68589963012E-02  0.78023486285E-02  0.23103886393E-01  0.00000000000E+00 0. -1.
     999901    1    3    3    0    0  0.62775734141E-01  0.12219597987E+00  0.28885499263E-01  0.89112682732E+00  0.88000000000E+00 0. -1.
        -11    1    4    4    0    0 -0.24816223359E-01 -0.76590420224E-01 -0.33272493346E-01  0.87116343739E-01  0.51100000000E-03 0.  1.
         11    1    4    4    0    0 -0.17322963297E-01 -0.38746563349E-01 -0.34153545452E-02  0.42582942552E-01  0.51100000000E-03 0. -1.
</event>
<event>
 8    1  0.1123470E+005  0.1043930E+01  0.7957747E-01            NaN
         13   -1    0    0    0    0  0.00000000000E+00  0.00000000000E+00  0.74505805969E-08  0.10566000000E+00  0.10566000000E+00 0.  1.
     999900   -1    0    0    0    0 -0.00000000000E+00 -0.00000000000E+00 -0.74505805969E-08  0.93827000000E+00  0.93827000000E+00 0. -1.
     999902    2    1    2    0    0 -0.12806257081E-01  0.12244479941E-01 -0.13096321359E-01  0.10218972711E+01  0.10216597240E+01 0.  0.
     999903    2    3    3    0    0  0.91309890865E-01 -0.88232262306E-01 -0.19381545959E-01  0.13005914003E+00  0.20428100726E-01 0.  0.
         14    1    1    2    0    0  0.12806257081E-01 -0.12244479941E-01  0.13096321359E-01  0.22032728896E-01  0.00000000000E+00 0.  1.
     999901    1    3    3    0    0 -0.10411614795E+00  0.10047674225E+00  0.62852245998E-02  0.89183813108E+00  0.88000000000E+00 0. -1.
        -11    1    4    4    0    0  0.50830187787E-01 -0.40774323970E-01 -0.18239797873E-01  0.67669822174E-01  0.51100000000E-03 0. -1.
         11    1    4    4    0    0  0.40479703079E-01 -0.47457938336E-01 -0.11417480865E-02  0.62389317853E-01  0.51100000000E-03 0.  1.
</event>
<event>
 8    1  0.1123470E+005  0.1043930E+01  0.7957747E-01            NaN
         13   -1    0    0    0    0  0.00000000000E+00  0.00000000000E+00  0.74505805969E-08  0.10566000000E+00  0.10566000000E+00 0. -1.
     999900   -1    0    0    0    0 -0.00000000000E+00 -0.00000000000E+00 -0.74505805969E-08  0.93827000000E+00  0.93827000000E+00 0.  1.
     999902    2    1    2    0    0  0.81978516777E-02  0.22778277055E-01 -0.36752630876E-02  0.10194440400E+01  0.10191499342E+01 0.  0.
     999903    2    3    3    0    0  0.12668046728E+00  0.10049538425E-01 -0.25663972086E-01  0.13114023257E+00  0.19753154736E-01 0.  0.
         14    1    1    2    0    0 -0.81978516777E-02 -0.22778277055E-01  0.36752630876E-02  0.24485959987E-01  0.00000000000E+00 0. -1.
     999901    1    3    3    0    0 -0.11848261561E+00  0.12728738630E-01  0.21988708999E-01  0.88830380744E+00  0.88000000000E+00 0.  1.
        -11    1    4    4    0    0  0.94210308696E-01 -0.12094839298E-02 -0.19673248067E-01  0.96251456750E-01  0.51100000000E-03 0. -1.
         11    1    4    4    0    0  0.32470158589E-01  0.11259022355E-01 -0.59907240194E-02  0.34888775823E-01  0.51100000000E-03 0.  1.
</event>
<event>
 8    1  0.1123470E+005  0.1043930E+01  0.7957747E-01            NaN
         13   -1    0    0    0    0  0.00000000000E+00  0.00000000000E+00  0.74505805969E-08  0.10566000000E+00  0.10566000000E+00 0.  1.
     999900   -1    0    0    0    0 -0.00000000000E+00 -0.00000000000E+00 -0.74505805969E-08  0.93827000000E+00  0.93827000000E+00 0. -1.
     999902    2    1    2    0    0 -0.13862135027E-01  0.18020369179E-01 -0.69387787424E-02  0.10201594480E+01  0.10198824737E+01 0.  0.
     999903    2    3    3    0    0  0.66733758872E-01  0.96074223607E-01 -0.56865662648E-01  0.13163212930E+00  0.20240129966E-01 0.  0.
         14    1    1    2    0    0  0.13862135027E-01 -0.18020369179E-01  0.69387787424E-02  0.23770552019E-01  0.00000000000E+00 0.  1.
     999901    1    3    3    0    0 -0.80595893899E-01 -0.78053854428E-01  0.49926883906E-01  0.88852731868E+00  0.88000000000E+00 0.  1.
        -11    1    4    4    0    0  0.28251941432E-01  0.24655059645E-01 -0.20323347725E-01  0.42653765889E-01  0.51100000000E-03 0. -1.
         11    1    4    4    0    0  0.38481817440E-01  0.71419163962E-01 -0.36542314923E-01  0.88978363412E-01  0.51100000000E-03 0.  1.
</event>
<event>
 8    1  0.1123470E+005  0.1043930E+01  0.7957747E-01            NaN
         13   -1    0    0    0    0  0.00000000000E+00  0.00000000000E+00  0.74505805969E-08  0.10566000000E+00  0.10566000000E+00 0.  1.
     999900   -1    0    0    0    0 -0.00000000000E+00 -0.00000000000E+00 -0.74505805969E-08  0.93827000000E+00  0.93827000000E+00 0. -1.
     999902    2    1    2    0    0 -0.16865023430E-02 -0.10016034500E-02  0.22951358367E-01  0.10208949756E+01  0.10206350664E+01 0.  0.
     999903    2    3    3    0    0  0.18190435386E-01 -0.11909537051E+00  0.50841843703E-01  0.13234609698E+00  0.20396006891E-01 0.  0.
         14    1    1    2    0    0  0.16865023430E-02  0.10016034500E-02 -0.22951358367E-01  0.23035024431E-01  0.00000000000E+00 0. -1.
     999901    1    3    3    0    0 -0.19876937729E-01  0.11809376706E+00 -0.27890485336E-01  0.88854887859E+00  0.88000000000E+00 0. -1.
        -11    1    4    4    0    0  0.13977089977E-01 -0.52277582274E-01  0.31672968190E-01  0.62703609845E-01  0.51100000000E-03 0.  1.
         11    1    4    4    0    0  0.42133454097E-02 -0.66817788238E-01  0.19168875514E-01  0.69642487133E-01  0.51100000000E-03 0. -1.
</event>
<event>
 8    1  0.1123470E+005  0.1043930E+01  0.7957747E-01            NaN
         13   -1    0    0    0    0  0.00000000000E+00  0.00000000000E+00  0.74505805969E-08  0.10566000000E+00  0.10566000000E+00 0.  1.
     999900   -1    0    0    0    0 -0.00000000000E+00 -0.00000000000E+00 -0.74505805969E-08  0.93827000000E+00  0.93827000000E+00 0. -1.
     999902    2    1    2    0    0 -0.26268258383E-02  0.20459674975E-01  0.11154264930E-01  0.10204797092E+01  0.10202102336E+01 0.  0.
     999903    2    3    3    0    0  0.80111283487E-01  0.96218199241E-02 -0.99554909112E-01  0.12962642436E+00  0.19530304730E-01 0.  0.
         14    1    1    2    0    0  0.26268258383E-02 -0.20459674975E-01 -0.11154264930E-01  0.23450290834E-01  0.00000000000E+00 0. -1.
     999901    1    3    3    0    0 -0.82738109325E-01  0.10837855051E-01  0.11070917404E+00  0.89085328481E+00  0.88000000000E+00 0.  1.
        -11    1    4    4    0    0  0.42251033647E-01  0.10765348939E-01 -0.65510732469E-01  0.78695360547E-01  0.51100000000E-03 0. -1.
         11    1    4    4    0    0  0.37860249841E-01 -0.11435290146E-02 -0.34044176642E-01  0.50931063810E-01  0.51100000000E-03 0.  1.
</event>
<event>
 8    1  0.1123470E+005  0.1043930E+01  0.7957747E-01            NaN
         13   -1    0    0    0    0  0.00000000000E+00  0.00000000000E+00  0.74505805969E-08  0.10566000000E+00  0.10566000000E+00 0. -1.
     999900   -1    0    0    0    0 -0.00000000000E+00 -0.00000000000E+00 -0.74505805969E-08  0.93827000000E+00  0.93827000000E+00 0. -1.
     999902    2    1    2    0    0  0.96039329828E-02 -0.20632907616E-01 -0.77070836180E-02  0.10199018593E+01  0.10196187774E+01 0.  0.
     999903    2    3    3    0    0  0.53546085326E-01  0.10030972269E+00  0.56245850402E-01  0.12824721188E+00  0.18828912514E-01 0.  0.
         14    1    1    2    0    0 -0.96039329828E-02  0.20632907616E-01  0.77070836180E-02  0.24028140655E-01  0.00000000000E+00 0. -1.
     999901    1    3    3    0    0 -0.43942152344E-01 -0.12094263031E+00 -0.63952934020E-01  0.89165464747E+00  0.88000000000E+00 0. -1.
        -11    1    4    4    0    0  0.29984438880E-01  0.69341492467E-01  0.44110269396E-01  0.87483062016E-01  0.51100000000E-03 0. -1.
         11    1    4    4    0    0  0.23561646446E-01  0.30968230227E-01  0.12135581005E-01  0.40764149862E-01  0.51100000000E-03 0.  1.
</event>
<event>
 8    1  0.1123470E+005  0.1043930E+01  0.7957747E-01            NaN
         13   -1    0    0    0    0  0.00000000000E+00  0.00000000000E+00  0.74505805969E-08  0.10566000000E+00  0.10566000000E+00 0. -1.
     999900   -1    0    0    0    0 -0.00000000000E+00 -0.00000000000E+00 -0.74505805969E-08  0.93827000000E+00  0.93827000000E+00 0. -1.
     999902    2    1    2    0    0  0.32097638010E-02  0.72950718234E-02  0.22474172224E-01  0.10200844748E+01  0.10198057298E+01 0.  0.
     999903    2    3    3    0    0 -0.32779339648E-01 -0.59237668950E-01  0.11179547165E+00  0.13233444481E+00  0.20750693253E-01 0.  0.
         14    1    1    2    0    0 -0.32097638010E-02 -0.72950718234E-02 -0.22474172224E-01  0.23845525234E-01  0.00000000000E+00 0.  1.
     999901    1    3    3    0    0  0.35989103449E-01  0.66532740774E-01 -0.89321299426E-01  0.88775002996E+00  0.88000000000E+00 0. -1.
        -11    1    4    4    0    0 -0.10990577170E-01 -0.39192275267E-01  0.72287820295E-01  0.82961541157E-01  0.51100000000E-03 0.  1.
         11    1    4    4    0    0 -0.21788762478E-01 -0.20045393683E-01  0.39507651355E-01  0.49372903650E-01  0.51100000000E-03 0. -1.
</event>
<event>
 8    1  0.1472447E+005  0.1043930E+01  0.7957747E-01            NaN
         13   -1    0    0    0    0  0.00000000000E+00  0.00000000000E+00  0.74505805969E-08  0.10566000000E+00  0.10566000000E+00 0.  1.
     999900   -1    0    0    0    0 -0.00000000000E+00 -0.00000000000E+00 -0.74505805969E-08  0.93827000000E+00  0.93827000000E+00 0.  1.
     999902    2    1    2    0    0  0.11235181613E-02  0.16211659088E-02 -0.23900362545E-01  0.10199483862E+01  0.10196664124E+01 0.  0.
     999903    2    3    3    0    0 -0.10449217479E+00  0.73147431594E-01 -0.19390616304E-01  0.13074030080E+00  0.21162913590E-01 0.  0.
         14    1    1    2    0    0 -0.11235181613E-02 -0.16211659088E-02  0.23900362545E-01  0.23981613827E-01  0.00000000000E+00 0.  1.
     999901    1    3    3    0    0  0.10561569295E+00 -0.71526265685E-01 -0.45097462405E-02  0.88920808537E+00  0.88000000000E+00 0. -1.
        -11    1    4    4    0    0 -0.51053846473E-01  0.33779927828E-01  0.12409715830E-02  0.61232180226E-01  0.51100000000E-03 0.  1.
         11    1    4    4    0    0 -0.53438328318E-01  0.39367503765E-01 -0.20631587887E-01  0.69508120575E-01  0.51100000000E-03 0. -1.
</event>
<event>
 8    1  0.1123470E+005  0.1043930E+01  0.7957747E-01            NaN
         13   -1    0    0    0    0  0.00000000000E+00  0.00000000000E+00  0.74505805969E-08  0.10566000000E+00  0.10566000000E+00 0. -1.
     999900   -1    0    0    0    0 -0.00000000000E+00 -0.00000000000E+00 -0.74505805969E-08  0.93827000000E+00  0.93827000000E+00 0.  1.
     999902    2    1    2    0    0 -0.39421264580E-02  0.21478166571E-01  0.85442069520E-02  0.10204810027E+01  0.10202115572E+01 0.  0.
     999903    2    3    3    0    0  0.85096355192E-01 -0.91624924020E-01 -0.20491030603E-01  0.12831330250E+00  0.20196655564E-01 0.  0.
         14    1    1    2    0    0  0.39421264580E-02 -0.21478166571E-01 -0.85442069520E-02  0.23448997264E-01  0.00000000000E+00 0.  1.
     999901    1    3    3    0    0 -0.89038481650E-01  0.11310309059E+00  0.29035237555E-01  0.89216770023E+00  0.88000000000E+00 0.  1.
        -11    1    4    4    0    0  0.33788120183E-01 -0.47550294887E-01 -0.28252104979E-02  0.58403001162E-01  0.51100000000E-03 0. -1.
         11    1    4    4    0    0  0.51308235009E-01 -0.44074629133E-01 -0.17665820105E-01  0.69910301343E-01  0.51100000000E-03 0.  1.
</event>
<event>
 8    1  0.1123470E+005  0.1043930E+01  0.7957747E-01            NaN
         13   -1    0    0    0    0  0.00000000000E+00  0.00000000000E+00  0.74505805969E-08  0.10566000000E+00  0.10566000000E+00 0. -1.
     999900   -1    0    0    0    0 -0.00000000000E+00 -0.00000000000E+00 -0.74505805969E-08  0.93827000000E+00  0.93827000000E+00 0. -1.
     999902    2    1    2    0    0 -0.16914590187E-01  0.45970326676E-02 -0.11921800077E-01  0.10227317598E+01  0.10225120474E+01 0.  0.
     999903    2    3    3    0    0 -0.12707614518E+00  0.38518360817E-01 -0.15490399070E-01  0.13520769838E+00  0.20227665297E-01 0.  0.
         14    1    1    2    0    0  0.16914590187E-01 -0.45970326676E-02  0.11921800077E-01  0.21198240201E-01  0.00000000000E+00 0.  1.
     999901    1    3    3    0    0  0.11016155499E+00 -0.33921328150E-01  0.35685989929E-02  0.88752406142E+00  0.88000000000E+00 0.  1.
        -11    1    4    4    0    0 -0.28055218746E-01  0.32034729094E-02  0.32182983672E-02  0.28424920457E-01  0.51100000000E-03 0. -1.
         11    1    4    4    0    0 -0.99020926434E-01  0.35314887908E-01 -0.18708697437E-01  0.10678277792E+00  0.51100000000E-03 0.  1.
</event>
<event>
 8    1  0.1525407E+005  0.1043930E+01  0.7957747E-01            NaN
         13   -1    0    0    0    0  0.00000000000E+00  0.00000000000E+00  0.74505805969E-08  0.10566000000E+00  0.10566000000E+00 0.  1.
     999900   -1    0    0    0    0 -0.00000000000E+00 -0.00000000000E+00 -0.74505805969E-08  0.93827000000E+00  0.93827000000E+00 0.  1.
     999902    2    1    2    0    0 -0.16195408382E-01 -0.10029734052E-01 -0.14309034743E-01  0.10201049020E+01  0.10198266401E+01 0.  0.
     999903    2    3    3    0    0 -0.12232111600E+00  0.92276634231E-03  0.44591952696E-01  0.13170637130E+00  0.19870054835E-01 0.  0.
         14    1    1    2    0    0  0.16195408382E-01  0.10029734052E-01  0.14309034743E-01  0.23825097966E-01  0.00000000000E+00 0.  1.
     999901    1    3    3    0    0  0.10612570762E+00 -0.10952500394E-01 -0.58900987439E-01  0.88839853073E+00  0.88000000000E+00 0. -1.
        -11    1    4    4    0    0 -0.58659206063E-01 -0.90201331203E-02  0.18240852195E-01  0.62090700328E-01  0.51100000000E-03 0.  1.
         11    1    4    4    0    0 -0.63661909939E-01  0.99428994626E-02  0.26351100500E-01  0.69615670976E-01  0.51100000000E-03 0. -1.
</event>
<event>
 8    1  0.1123470E+005  0.1043930E+01  0.7957747E-01            NaN
         13   -1    0    0    0    0  0.00000000000E+00  0.00000000000E+00  0.74505805969E-08  0.10566000000E+00  0.10566000000E+00 0.  1.
     999900   -1    0    0    0    0 -0.00000000000E+00 -0.00000000000E+00 -0.74505805969E-08  0.93827000000E+00  0.93827000000E+00 0.  1.
     999902    2    1    2    0    0 -0.85898353459E-02  0.19256253283E-01 -0.11585635251E-01  0.10198714151E+01  0.10195876068E+01 0.  0.
     999903    2    3    3    0    0  0.12362884014E+00  0.75444712618E-02  0.30353448344E-01  0.12892931223E+00  0.18984903610E-01 0.  0.
         14    1    1    2    0    0  0.85898353459E-02 -0.19256253283E-01  0.11585635251E-01  0.24058584870E-01  0.00000000000E+00 0.  1.
     999901    1    3    3    0    0 -0.13221867549E+00  0.11711782021E-01 -0.41939083594E-01  0.89094210290E+00  0.88000000000E+00 0.  1.
        -11    1    4    4    0    0  0.73589533442E-01  0.10767230372E-01  0.25161346137E-01  0.78515649029E-01  0.51100000000E-03 0. -1.
         11    1    4    4    0    0  0.50039306698E-01 -0.32227591102E-02  0.51921022072E-02  0.50413663202E-01  0.51100000000E-03 0.  1.
</event>
<event>
 8    1  0.1123470E+005  0.1043930E+01  0.7957747E-01            NaN
         13   -1    0    0    0    0  0.00000000000E+00  0.00000000000E+00  0.74505805969E-08  0.10566000000E+00  0.10566000000E+00 0.  1.
     999900   -1    0    0    0    0 -0.00000000000E+00 -0.00000000000E+00 -0.74505805969E-08  0.93827000000E+00  0.93827000000E+00 0. -1.
     999902    2    1    2    0    0 -0.25468738032E-02  0.53472124029E-02  0.22749040156E-01  0.10204225953E+01  0.10201517902E+01 0.  0.
     999903    2    3    3    0    0  0.10421707004E+00  0.54820820050E-02  0.79618577132E-01  0.13214746783E+00  0.15250721877E-01 0.  0.
         14    1    1    2    0    0  0.25468738032E-02 -0.53472124029E-02 -0.22749040156E-01  0.23507404677E-01  0.00000000000E+00 0. -1.
     999901    1    3    3    0    0 -0.10676394384E+00 -0.13486960214E-03 -0.56869536976E-01  0.88827512750E+00  0.88000000000E+00 0. -1.
        -11    1    4    4    0    0  0.81292287474E-01  0.73710927745E-02  0.68654264175E-01  0.10666038684E+00  0.51100000000E-03 0.  1.
         11    1    4    4    0    0  0.22924782565E-01 -0.18890107695E-02  0.10964312956E-01  0.25487080981E-01  0.51100000000E-03 0. -1.
</event>
<event>
 8    1  0.1123470E+005  0.1043930E+01  0.7957747E-01            NaN
         13   -1    0    0    0    0  0.00000000000E+00  0.00000000000E+00  0.74505805969E-08  0.10566000000E+00  0.10566000000E+00 0.  1.
     999900   -1    0    0    0    0 -0.00000000000E+00 -0.00000000000E+00 -0.74505805969E-08  0.93827000000E+00  0.93827000000E+00 0. -1.
     999902    2    1    2    0    0 -0.93986711374E-02 -0.50696733904E-02 -0.19966082058E-01  0.10212875390E+01  0.10210365107E+01 0.  0.
     999903    2    3    3    0    0 -0.29895392326E-01 -0.55970726474E-01 -0.11664282665E+00  0.13429406341E+00  0.20072113877E-01 0.  0.
         14    1    1    2    0    0  0.93986711374E-02  0.50696733904E-02  0.19966082058E-01  0.22642461001E-01  0.00000000000E+00 0.  1.
     999901    1    3    3    0    0  0.20496721188E-01  0.50901053084E-01  0.96676744591E-01  0.88699347558E+00  0.88000000000E+00 0.  1.
        -11    1    4    4    0    0 -0.13595654043E-01 -0.32453879805E-01 -0.44850692089E-01  0.57008261025E-01  0.51100000000E-03 0.  1.
         11    1    4    4    0    0 -0.16299738282E-01 -0.23516846669E-01 -0.71792134560E-01  0.77285802390E-01  0.51100000000E-03 0. -1.
</event>
<event>
 8    1  0.1123470E+005  0.1043930E+01  0.7957747E-01            NaN
         13   -1    0    0    0    0  0.00000000000E+00  0.00000000000E+00  0.74505805969E-08  0.10566000000E+00  0.10566000000E+00 0.  1.
     999900   -1    0    0    0    0 -0.00000000000E+00 -0.00000000000E+00 -0.74505805969E-08  0.93827000000E+00  0.93827000000E+00 0.  1.
     999902    2    1    2    0    0  0.30958989800E-02 -0.23471898688E-01  0.18900507326E-02  0.10201794861E+01  0.10199029841E+01 0.  0.
     999903    2    3    3    0    0 -0.96126053503E-01  0.51744676135E-01 -0.65688685240E-01  0.12884934831E+00  0.19220341343E-01 0.  0.
         14    1    1    2    0    0 -0.30958989800E-02  0.23471898688E-01 -0.18900507326E-02  0.23750513895E-01  0.00000000000E+00 0. -1.
     999901    1    3    3    0    0  0.99221952483E-01 -0.75216574823E-01  0.67578735973E-01  0.89133013779E+00  0.88000000000E+00 0. -1.
        -11    1    4    4    0    0 -0.19684026961E-01  0.19925856449E-01 -0.17968539617E-01  0.33281078852E-01  0.51100000000E-03 0.  1.
         11    1    4    4    0    0 -0.76442026543E-01  0.31818819686E-01 -0.47720145624E-01  0.95568269460E-01  0.51100000000E-03 0. -1.
</event>
<event>
 8    1  0.1123470E+005  0.1043930E+01  0.7957747E-01            NaN
         13   -1    0    0    0    0  0.00000000000E+00  0.00000000000E+00  0.74505805969E-08  0.10566000000E+00  0.10566000000E+00 0.  1.
     999900   -1    0    0    0    0 -0.00000000000E+00 -0.00000000000E+00 -0.74505805969E-08  0.93827000000E+00  0.93827000000E+00 0.  1.
     999902    2    1    2    0    0 -0.23081664644E-02 -0.41711294523E-02  0.23513303764E-01  0.10199383055E+01  0.10196560918E+01 0.  0.
     999903    2    3    3    0    0 -0.65075270331E-01 -0.62804388589E-01  0.93944355122E-01  0.13295572310E+00  0.25932612877E-01 0.  0.
         14    1    1    2    0    0  0.23081664644E-02  0.41711294523E-02 -0.23513303764E-01  0.23991694547E-01  0.00000000000E+00 0. -1.
     999901    1    3    3    0    0  0.62767103867E-01  0.58633259137E-01 -0.70431051357E-01  0.88698258235E+00  0.88000000000E+00 0.  1.
        -11    1    4    4    0    0 -0.41263113589E-01 -0.21849198823E-01  0.45548075258E-01  0.65229750213E-01  0.51100000000E-03 0.  1.
         11    1    4    4    0    0 -0.23812156743E-01 -0.40955189766E-01  0.48396279864E-01  0.67725972885E-01  0.51100000000E-03 0. -1.
</event>
<event>
 8    1  0.1123470E+005  0.1043930E+01  0.7957747E-01            NaN
         13   -1    0    0    0    0  0.00000000000E+00  0.00000000000E+00  0.74505805969E-08  0.10566000000E+00  0.10566000000E+00 0. -1.
     999900   -1    0    0    0    0 -0.00000000000E+00 -0.00000000000E+00 -0.74505805969E-08  0.93827000000E+00  0.93827000000E+00 0. -1.
     999902    2    1    2    0    0 -0.18104837665E-01 -0.15959241812E-01  0.24959826032E-02  0.10196666021E+01  0.10193778824E+01 0.  0.
     999903    2    3    3    0    0  0.10891932967E+00  0.48157702840E-01 -0.39964958791E-01  0.12722665839E+00  0.20170274061E-01 0.  0.
         14    1    1    2    0    0  0.18104837665E-01  0.15959241812E-01 -0.24959826032E-02  0.24263397850E-01  0.00000000000E+00 0.  1.
     999901    1    3    3    0    0 -0.12702416733E+00 -0.64116944653E-01  0.42460941394E-01  0.89243994376E+00  0.88000000000E+00 0. -1.
        -11    1    4    4    0    0  0.51633790386E-01  0.23613440473E-01 -0.85069082552E-02  0.57413164776E-01  0.51100000000E-03 0. -1.
         11    1    4    4    0    0  0.57285539280E-01  0.24544262368E-01 -0.31458050536E-01  0.69813493611E-01  0.51100000000E-03 0.  1.
</event>
<event>
 8    1  0.1123470E+005  0.1043930E+01  0.7957747E-01            NaN
         13   -1    0    0    0    0  0.00000000000E+00  0.00000000000E+00  0.74505805969E-08  0.10566000000E+00  0.10566000000E+00 0. -1.
     999900   -1    0    0    0    0 -0.00000000000E+00 -0.00000000000E+00 -0.74505805969E-08  0.93827000000E+00  0.93827000000E+00 0.  1.
     999902    2    1    2    0    0 -0.22082917928E-01  0.73428215411E-02 -0.38922401798E-02  0.10203350466E+01  0.10200621969E+01 0.  0.
     999903    2    3    3    0    0  0.11153293300E+00  0.30262909886E-01 -0.52839316090E-01  0.12860956064E+00  0.19823897286E-01 0.  0.
         14    1    1    2    0    0  0.22082917928E-01 -0.73428215411E-02  0.38922401798E-02  0.23594953402E-01  0.00000000000E+00 0.  1.
     999901    1    3    3    0    0 -0.13361585093E+00 -0.22920088345E-01  0.48947075910E-01  0.89172548596E+00  0.88000000000E+00 0. -1.
        -11    1    4    4    0    0  0.25362079808E-01  0.11259621951E-01 -0.48917948982E-02  0.28181642198E-01  0.51100000000E-03 0.  1.
         11    1    4    4    0    0  0.86170853196E-01  0.19003287935E-01 -0.47947521192E-01  0.10042791844E+00  0.51100000000E-03 0. -1.
</event>
<event>
 8    1  0.1123470E+005  0.1043930E+01  0.7957747E-01            NaN
         13   -1    0    0    0    0  0.00000000000E+00  0.00000000000E+00  0.74505805969E-08  0.10566000000E+00  0.10566000000E+00 0. -1.
     999900   -1    0    0    0    0 -0.00000000000E+00 -0.00000000000E+00 -0.74505805969E-08  0.93827000000E+00  0.93827000000E+00 0. -1.
     999902    2    1    2    0    0  0.54783004138E-02  0.11380162121E-01 -0.19525665943E-01  0.10206755059E+01  0.10204105629E+01 0.  0.
     999903    2    3    3    0    0 -0.59816955560E-02  0.10152780809E+00  0.78792026558E-01  0.13054950457E+00  0.22165585865E-01 0.  0.
         14    1    1    2    0    0 -0.54783004138E-02 -0.11380162121E-01  0.19525665943E-01  0.23254494100E-01  0.00000000000E+00 0. -1.
     999901    1    3    3    0    0  0.11459995970E-01 -0.90147645973E-01 -0.98317692501E-01  0.89012600133E+00  0.88000000000E+00 0. -1.
        -11    1    4    4    0    0 -0.14180368858E-01  0.59323921237E-01  0.48992517223E-01  0.78236426022E-01  0.51100000000E-03 0.  1.
         11    1    4    4    0    0  0.81986733015E-02  0.42203886857E-01  0.29799509334E-01  0.52313078550E-01  0.51100000000E-03 0. -1.
</event>
<event>
 8    1  0.1123470E+005  0.1043930E+01  0.7957747E-01            NaN
         13   -1    0    0    0    0  0.00000000000E+00  0.00000000000E+00  0.74505805969E-08  0.10566000000E+00  0.10566000000E+00 0.  1.
     999900   -1    0    0    0    0 -0.00000000000E+00 -0.00000000000E+00 -0.74505805969E-08  0.93827000000E+00  0.93827000000E+00 0.  1.
     999902    2    1    2    0    0  0.61306388785E-02 -0.84780040946E-02  0.20292043608E-01  0.10210995747E+01  0.10208443138E+01 0.  0.
     999903    2    3    3    0    0  0.12765031221E+00  0.86673944000E-02 -0.24868369496E-01  0.13143645945E+00  0.16952319489E-01 0.  0.
         14    1    1    2    0    0 -0.61306388785E-02  0.84780040946E-02 -0.20292043608E-01  0.22830425320E-01  0.00000000000E+00 0. -1.
     999901    1    3    3    0    0 -0.12151967334E+00 -0.17145398495E-01  0.45160413104E-01  0.88966311523E+00  0.88000000000E+00 0.  1.
        -11    1    4    4    0    0  0.89236029041E-01 -0.17213519983E-02 -0.17983131493E-01  0.91047713156E-01  0.51100000000E-03 0.  1.
         11    1    4    4    0    0  0.38414283174E-01  0.10388746398E-01 -0.68852380031E-02  0.40388746290E-01  0.51100000000E-03 0. -1.
</event>
<event>
 8    1  0.1123470E+005  0.1043930E+01  0.7957747E-01            NaN
         13   -1    0    0    0    0  0.00000000000E+00  0.00000000000E+00  0.74505805969E-08  0.10566000000E+00  0.10566000000E+00 0.  1.
     999900   -1    0    0    0    0 -0.00000000000E+00 -0.00000000000E+00 -0.74505805969E-08  0.93827000000E+00  0.93827000000E+00 0. -1.
     999902    2    1    2    0    0  0.98570566319E-03  0.37518860520E-03  0.24801221430E-01  0.10191063627E+01  0.10188039878E+01 0.  0.
     999903    2    3    3    0    0 -0.25989758687E-01  0.12511268568E+00 -0.25373009491E-02  0.12948031004E+00  0.20737914931E-01 0.  0.
         14    1    1    2    0    0 -0.98570566319E-03 -0.37518860520E-03 -0.24801221430E-01  0.24823637255E-01  0.00000000000E+00 0. -1.
     999901    1    3    3    0    0  0.26975464350E-01 -0.12473749708E+00  0.27338522379E-01  0.88962605271E+00  0.88000000000E+00 0.  1.
        -11    1    4    4    0    0 -0.11603925981E-01  0.40420044222E-01 -0.10066305280E-01  0.43243759042E-01  0.51100000000E-03 0.  1.
         11    1    4    4    0    0 -0.14385832706E-01  0.84692641460E-01  0.75290043308E-02  0.86236550994E-01  0.51100000000E-03 0. -1.
</event>
<event>
 8    1  0.1123470E+005  0.1043930E+01  0.7957747E-01            NaN
         13   -1    0    0    0    0  0.00000000000E+00  0.00000000000E+00  0.74505805969E-08  0.10566000000E+00  0.10566000000E+00 0.  1.
     999900   -1    0    0    0    0 -0.00000000000E+00 -0.00000000000E+00 -0.74505805969E-08  0.93827000000E+00  0.93827000000E+00 0. -1.
     999902    2    1    2    0    0  0.12242921222E-01 -0.16764094748E-01  0.61663642995E-02  0.10222747918E+01  0.10220454011E+01 0.  0.
     999903    2    3    3    0    0  0.29364875364E-01  0.40231104445E-01  0.12145821147E+00  0.13276154061E+00  0.19816454310E-01 0.  0.
         14    1    1    2    0    0 -0.12242921222E-01  0.16764094748E-01 -0.61663642995E-02  0.21655208182E-01  0.00000000000E+00 0.  1.
     999901    1    3    3    0    0 -0.17121954142E-01 -0.56995199192E-01 -0.11529184717E+00  0.88951325121E+00  0.88000000000E+00 0. -1.
        -11    1    4    4    0    0  0.13335202567E-01  0.41288713166E-02  0.35964910174E-01  0.38582523124E-01  0.51100000000E-03 0.  1.
         11    1    4    4    0    0  0.16029672797E-01  0.36102233128E-01  0.85493301300E-01  0.94179017488E-01  0.51100000000E-03 0. -1.
</event>
<event>
 8    1  0.1123470E+005  0.1043930E+01  0.7957747E-01            NaN
         13   -1    0    0    0    0  0.00000000000E+00  0.00000000000E+00  0.74505805969E-08  0.10566000000E+00  0.10566000000E+00 0. -1.
     999900   -1    0    0    0    0 -0.00000000000E+00 -0.00000000000E+00 -0.74505805969E-08  0.93827000000E+00  0.93827000000E+00 0.  1.
     999902    2    1    2    0    0  0.17005819923E-01  0.16595508036E-01 -0.37056587417E-02  0.10198812848E+01  0.10195977120E+01 0.  0.
     999903    2    3    3    0    0  0.30557393106E-01 -0.44916273411E-01 -0.11770690043E+00  0.13029507336E+00  0.13063913819E-01 0.  0.
         14    1    1    2    0    0 -0.17005819923E-01 -0.16595508036E-01  0.37056587417E-02  0.24048715245E-01  0.00000000000E+00 0. -1.
     999901    1    3    3    0    0 -0.13551573183E-01  0.61511781447E-01  0.11400124168E+00  0.88958621139E+00  0.88000000000E+00 0. -1.
        -11    1    4    4    0    0  0.18505498687E-01 -0.19029546652E-01 -0.46022404294E-01  0.53130969739E-01  0.51100000000E-03 0. -1.
         11    1    4    4    0    0  0.12051894419E-01 -0.25886726758E-01 -0.71684496132E-01  0.77164103624E-01  0.51100000000E-03 0.  1.
</event>
<event>
 8    1  0.1123470E+005  0.1043930E+01  0.7957747E-01            NaN
         13   -1    0    0    0    0  0.00000000000E+00  0.00000000000E+00  0.74505805969E-08  0.10566000000E+00  0.10566000000E+00 0. -1.
     999900   -1    0    0    0    0 -0.00000000000E+00 -0.00000000000E+00 -0.74505805969E-08  0.93827000000E+00  0.93827000000E+00 0.  1.
     999902    2    1    2    0    0  0.24231102523E-02 -0.13113644522E-01 -0.20083723891E-01  0.10198220117E+01  0.10195370226E+01 0.  0.
     999903    2    3    3    0    0 -0.12671568210E-01 -0.99423918379E-01 -0.85086263830E-01  0.13308493514E+00  0.20645664984E-01 0.  0.
         14    1    1    2    0    0 -0.24231102523E-02  0.13113644522E-01  0.20083723891E-01  0.24107988329E-01  0.00000000000E+00 0. -1.
     999901    1    3    3    0    0  0.15094678462E-01  0.86310273857E-01  0.65002539939E-01  0.88673707653E+00  0.88000000000E+00 0. -1.
        -11    1    4    4    0    0 -0.13599021733E-01 -0.78160421143E-01 -0.76238440889E-01  0.11002974968E+00  0.51100000000E-03 0. -1.
         11    1    4    4    0    0  0.92745352293E-03 -0.21263497236E-01 -0.88478229414E-02  0.23055185459E-01  0.51100000000E-03 0.  1.
</event>
<event>
 8    1  0.1123470E+005  0.1043930E+01  0.7957747E-01            NaN
         13   -1    0    0    0    0  0.00000000000E+00  0.00000000000E+00  0.74505805969E-08  0.10566000000E+00  0.10566000000E+00 0. -1.
     999900   -1    0    0    0    0 -0.00000000000E+00 -0.00000000000E+00 -0.74505805969E-08  0.93827000000E+00  0.93827000000E+00 0.  1.
     999902    2    1    2    0    0  0.93771707689E-02 -0.19936366405E-01  0.67188541165E-02  0.10208966972E+01  0.10206368273E+01 0.  0.
     999903    2    3    3    0    0  0.19214984761E-01  0.57863155182E-01  0.11420467287E+00  0.13089515261E+00  0.19325457402E-01 0.  0.
         14    1    1    2    0    0 -0.93771707689E-02  0.19936366405E-01 -0.67188541165E-02  0.23033302797E-01  0.00000000000E+00 0.  1.
     999901    1    3    3    0    0 -0.98378139923E-02 -0.77799521588E-01 -0.10748581876E+00  0.89000154459E+00  0.88000000000E+00 0.  1.
        -11    1    4    4    0    0  0.17834099684E-01  0.43505337261E-01  0.10066334397E+00  0.11110418273E+00  0.51100000000E-03 0. -1.
         11    1    4    4    0    0  0.13808850776E-02  0.14357817921E-01  0.13541328908E-01  0.19790969876E-01  0.51100000000E-03 0.  1.
</event>
<event>
 8    1  0.1123470E+005  0.1043930E+01  0.7957747E-01            NaN
         13   -1    0    0    0    0  0.00000000000E+00  0.00000000000E+00  0.74505805969E-08  0.10566000000E+00  0.10566000000E+00 0. -1.
     999900   -1    0    0    0    0 -0.00000000000E+00 -0.00000000000E+00 -0.74505805969E-08  0.93827000000E+00  0.93827000000E+00 0.  1.
     999902    2    1    2    0    0 -0.15808561421E-01  0.65723264161E-02 -0.15899080661E-01  0.10205657783E+01  0.10202983000E+01 0.  0.
     999903    2    3    3    0    0  0.38582844349E-01 -0.11590998820E+00 -0.32830469716E-01  0.13025851993E+00  0.31075408755E-01 0.  0.
         14    1    1    2    0    0  0.15808561421E-01 -0.65723264161E-02  0.15899080661E-01  0.23364221677E-01  0.00000000000E+00 0. -1.
     999901    1    3    3    0    0 -0.54391405770E-01  0.12248231462E+00  0.16931389055E-01  0.89030725840E+00  0.88000000000E+00 0. -1.
        -11    1    4    4    0    0  0.12007578453E-02 -0.43038344890E-01 -0.32586617833E-02  0.43181256905E-01  0.51100000000E-03 0.  1.
         11    1    4    4    0    0  0.37382086504E-01 -0.72871643311E-01 -0.29571807933E-01  0.87077263024E-01  0.51100000000E-03 0. -1.
</event>
<event>
 8    1  0.1123470E+005  0.1043930E+01  0.7957747E-01            NaN
         13   -1    0    0    0    0  0.00000000000E+00  0.00000000000E+00  0.74505805969E-08  0.10566000000E+00  0.10566000000E+00 0.  1.
     999900   -1    0    0    0    0 -0.00000000000E+00 -0.00000000000E+00 -0.74505805969E-08  0.93827000000E+00  0.93827000000E+00 0. -1.
     999902    2    1    2    0    0 -0.20679075073E-01  0.10973290447E-01  0.79232346589E-02  0.10192153303E+01  0.10189156367E+01 0.  0.
     999903    2    3    3    0    0 -0.10887565798E+00  0.29138739661E-01 -0.64835141344E-01  0.13163299497E+00  0.20510357435E-01 0.  0.
         14    1    1    2    0    0  0.20679075073E-01 -0.10973290447E-01 -0.79232346589E-02  0.24714669663E-01  0.00000000000E+00 0.  1.
     999901    1    3    3    0    0  0.88196582904E-01 -0.18165449213E-01  0.72758376003E-01  0.88758233537E+00  0.88000000000E+00 0.  1.
        -11    1    4    4    0    0 -0.78040624253E-01  0.12947165420E-01 -0.51176783999E-01  0.94219384777E-01  0.51100000000E-03 0. -1.
         11    1    4    4    0    0 -0.30835033723E-01  0.16191574241E-01 -0.13658357345E-01  0.37413610191E-01  0.51100000000E-03 0.  1.
</event>
<event>
 8    1  0.1123470E+005  0.1043930E+01  0.7957747E-01            NaN
         13   -1    0    0    0    0  0.00000000000E+00  0.00000000000E+00  0.74505805969E-08  0.10566000000E+00  0.10566000000E+00 0. -1.
     999900   -1    0    0    0    0 -0.00000000000E+00 -0.00000000000E+00 -0.74505805969E-08  0.93827000000E+00  0.93827000000E+00 0. -1.
     999902    2    1    2    0    0  0.29633197013E-02  0.17135518167E-01  0.15280040045E-01  0.10207807696E+01  0.10205182471E+01 0.  0.
     999903    2    3    3    0    0 -0.72513332709E-01  0.10413816749E+00 -0.30915333932E-01  0.13207373198E+00  0.19615592243E-01 0.  0.
         14    1    1    2    0    0 -0.29633197013E-02 -0.17135518167E-01 -0.15280040045E-01  0.23149230446E-01  0.00000000000E+00 0.  1.
     999901    1    3    3    0    0  0.75476652410E-01 -0.87002649325E-01  0.46195373977E-01  0.88870703757E+00  0.88000000000E+00 0.  1.
        -11    1    4    4    0    0 -0.50268914912E-01  0.86330000063E-01 -0.23576253254E-01  0.10264469570E+00  0.51100000000E-03 0.  1.
         11    1    4    4    0    0 -0.22244417797E-01  0.17808167429E-01 -0.73390806778E-02  0.29429036282E-01  0.51100000000E-03 0. -1.
</event>
<event>
 8    1  0.1123470E+005  0.1043930E+01  0.7957747E-01            NaN
         13   -1    0    0    0    0  0.00000000000E+00  0.00000000000E+00  0.74505805969E-08  0.10566000000E+00  0.10566000000E+00 0. -1.
     999900   -1    0    0    0    0 -0.00000000000E+00 -0.00000000000E+00 -0.74505805969E-08  0.93827000000E+00  0.93827000000E+00 0.  1.
     999902    2    1    2    0    0  0.21836266870E-02  0.18650317900E-01  0.13433789549E-01  0.10208417068E+01  0.10205805803E+01 0.  0.
     999903    2    3    3    0    0  0.11065077441E+00  0.66731066508E-01  0.24052663138E-01  0.13281600837E+00  0.19103202865E-01 0.  0.
         14    1    1    2    0    0 -0.21836266870E-02 -0.18650317900E-01 -0.13433789549E-01  0.23088293245E-01  0.00000000000E+00 0.  1.
     999901    1    3    3    0    0 -0.10846714772E+00 -0.48080748608E-01 -0.10618873588E-01  0.88802569839E+00  0.88000000000E+00 0. -1.
        -11    1    4    4    0    0  0.67050644017E-01  0.44078131642E-01  0.59951864217E-02  0.80466601353E-01  0.51100000000E-03 0.  1.
         11    1    4    4    0    0  0.43600130393E-01  0.22652934867E-01  0.18057476716E-01  0.52349407014E-01  0.51100000000E-03 0. -1.
</event>
<event>
 8    1  0.1123470E+005  0.1043930E+01  0.7957747E-01            NaN
         13   -1    0    0    0    0  0.00000000000E+00  0.00000000000E+00  0.74505805969E-08  0.10566000000E+00  0.10566000000E+00 0. -1.
     999900   -1    0    0    0    0 -0.00000000000E+00 -0.00000000000E+00 -0.74505805969E-08  0.93827000000E+00  0.93827000000E+00 0. -1.
     999902    2    1    2    0    0 -0.22866370529E-01 -0.35967007239E-02 -0.32639917429E-02  0.10205534990E+01  0.10202857362E+01 0.  0.
     999903    2    3    3    0    0  0.10865812379E+00  0.37819512161E-01  0.52572416986E-01  0.12806725269E+00  0.20011467161E-01 0.  0.
         14    1    1    2    0    0  0.22866370529E-01  0.35967007239E-02  0.32639917429E-02  0.23376501007E-01  0.00000000000E+00 0. -1.
     999901    1    3    3    0    0 -0.13152449432E+00 -0.41416212885E-01 -0.55836408729E-01  0.89248624630E+00  0.88000000000E+00 0. -1.
        -11    1    4    4    0    0  0.28661192603E-01  0.14614635182E-02  0.16244726284E-01  0.32981086854E-01  0.51100000000E-03 0. -1.
         11    1    4    4    0    0  0.79996931190E-01  0.36358048643E-01  0.36327690702E-01  0.95086165837E-01  0.51100000000E-03 0.  1.
</event>
<event>
 8    1  0.1123470E+005  0.1043930E+01  0.7957747E-01            NaN
         13   -1    0    0    0    0  0.00000000000E+00  0.00000000000E+00  0.74505805969E-08  0.10566000000E+00  0.10566000000E+00 0. -1.
     999900   -1    0    0    0    0 -0.00000000000E+00 -0.00000000000E+00 -0.74505805969E-08  0.93827000000E+00  0.93827000000E+00 0.  1.
     999902    2    1    2    0    0  0.21919778195E-01  0.42877100811E-03  0.12168232451E-01  0.10188555827E+01  0.10185469906E+01 0.  0.
     999903    2    3    3    0    0 -0.50071606258E-01 -0.78188651158E-01 -0.84564429240E-01  0.12716019396E+00  0.19948466426E-01 0.  0.
         14    1    1    2    0    0 -0.21919778195E-01 -0.42877100811E-03 -0.12168232451E-01  0.25074417274E-01  0.00000000000E+00 0.  1.
     999901    1    3    3    0    0  0.71991384453E-01  0.78617422167E-01  0.96732661690E-01  0.89169538876E+00  0.88000000000E+00 0.  1.
        -11    1    4    4    0    0 -0.59377251509E-02 -0.49687255500E-02 -0.13908004476E-02  0.78829093896E-02  0.51100000000E-03 0.  1.
         11    1    4    4    0    0 -0.44133881107E-01 -0.73219925608E-01 -0.83173628792E-01  0.11927728457E+00  0.51100000000E-03 0. -1.
</event>
<event>
 8    1  0.1123470E+005  0.1043930E+01  0.7957747E-01            NaN
         13   -1    0    0    0    0  0.00000000000E+00  0.00000000000E+00  0.74505805969E-08  0.10566000000E+00  0.10566000000E+00 0.  1.
     999900   -1    0    0    0    0 -0.00000000000E+00 -0.00000000000E+00 -0.74505805969E-08  0.93827000000E+00  0.93827000000E+00 0. -1.
     999902    2    1    2    0    0 -0.88419806142E-02 -0.21708864902E-01 -0.58319677348E-02  0.10197749325E+01  0.10194888159E+01 0.  0.
     999903    2    3    3    0    0  0.34828194470E-01  0.48394987345E-01 -0.11321837174E+00  0.12940788797E+00  0.19311236047E-01 0.  0.
         14    1    1    2    0    0  0.88419806142E-02  0.21708864902E-01  0.58319677348E-02  0.24155067464E-01  0.00000000000E+00 0.  1.
     999901    1    3    3    0    0 -0.43670175084E-01 -0.70103852247E-01  0.10738640401E+00  0.89036704457E+00  0.88000000000E+00 0.  1.
        -11    1    4    4    0    0  0.57547908661E-02  0.23337038310E-01 -0.49291139206E-01  0.54841704024E-01  0.51100000000E-03 0. -1.
         11    1    4    4    0    0  0.29073403604E-01  0.25057949035E-01 -0.63927232536E-01  0.74566183942E-01  0.51100000000E-03 0.  1.
</event>
<event>
 8    1  0.1123470E+005  0.1043930E+01  0.7957747E-01            NaN
         13   -1    0    0    0    0  0.00000000000E+00  0.00000000000E+00  0.74505805969E-08  0.10566000000E+00  0.10566000000E+00 0. -1.
     999900   -1    0    0    0    0 -0.00000000000E+00 -0.00000000000E+00 -0.74505805969E-08  0.93827000000E+00  0.93827000000E+00 0. -1.
     999902    2    1    2    0    0  0.16238368648E-01  0.16723753721E-01 -0.42948621038E-02  0.10202273758E+01  0.10199520008E+01 0.  0.
     999903    2    3    3    0    0  0.26511867200E-01  0.65839525845E-01  0.10898023455E+00  0.13154905862E+00  0.19767170646E-01 0.  0.
         14    1    1    2    0    0 -0.16238368648E-01 -0.16723753721E-01  0.42948621038E-02  0.23702624230E-01  0.00000000000E+00 0. -1.
     999901    1    3    3    0    0 -0.10273498551E-01 -0.49115772123E-01 -0.11327509666E+00  0.88867831715E+00  0.88000000000E+00 0. -1.
        -11    1    4    4    0    0  0.16762006989E-01  0.19592455141E-01  0.46901131014E-01  0.53523886146E-01  0.51100000000E-03 0. -1.
         11    1    4    4    0    0  0.97498602101E-02  0.46247070704E-01  0.62079103540E-01  0.78025172478E-01  0.51100000000E-03 0.  1.
</event>
<event>
 8    1  0.1123470E+005  0.1043930E+01  0.7957747E-01            NaN
         13   -1    0    0    0    0  0.00000000000E+00  0.00000000000E+00  0.74505805969E-08  0.10566000000E+00  0.10566000000E+00 0. -1.
     999900   -1    0    0    0    0 -0.00000000000E+00 -0.00000000000E+00 -0.74505805969E-08  0.93827000000E+00  0.93827000000E+00 0. -1.
     999902    2    1    2    0    0 -0.94534833728E-03  0.23050255913E-01  0.20702915625E-01  0.10129329244E+01  0.10124585377E+01 0.  0.
     999903    2    3    3    0    0 -0.41320973107E-01 -0.38583396450E-01 -0.10503419778E+00  0.12094709498E+00  0.19997894425E-01 0.  0.
         14    1    1    2    0    0  0.94534833728E-03 -0.23050255913E-01 -0.20702915625E-01  0.30997075612E-01  0.00000000000E+00 0.  1.
     999901    1    3    3    0    0  0.40375624770E-01  0.61633652363E-01  0.12573711340E+00  0.89198582941E+00  0.88000000000E+00 0.  1.
        -11    1    4    4    0    0 -0.25148844698E-01 -0.30878577987E-01 -0.55821769074E-01  0.68573187119E-01  0.51100000000E-03 0. -1.
         11    1    4    4    0    0 -0.16172128410E-01 -0.77048184628E-02 -0.49212428701E-01  0.52373907860E-01  0.51100000000E-03 0.  1.
</event>
<event>
 8    1  0.1123470E+005  0.1043930E+01  0.7957747E-01            NaN
         13   -1    0    0    0    0  0.00000000000E+00  0.00000000000E+00  0.74505805969E-08  0.10566000000E+00  0.10566000000E+00 0.  1.
     999900   -1    0    0    0    0 -0.00000000000E+00 -0.00000000000E+00 -0.74505805969E-08  0.93827000000E+00  0.93827000000E+00 0. -1.
     999902    2    1    2    0    0  0.83163852316E-02  0.15961722355E-01 -0.16430623968E-01  0.10195598492E+01  0.10192685524E+01 0.  0.
     999903    2    3    3    0    0 -0.26374884996E-01 -0.26229575553E-01  0.12013800247E+00  0.12735214945E+00  0.20045077708E-01 0.  0.
         14    1    1    2    0    0 -0.83163852316E-02 -0.15961722355E-01  0.16430623968E-01  0.24370150756E-01  0.00000000000E+00 0. -1.
     999901    1    3    3    0    0  0.34691270228E-01  0.42191297908E-01 -0.13656862643E+00  0.89220769980E+00  0.88000000000E+00 0. -1.
        -11    1    4    4    0    0 -0.13388011896E-01 -0.69153109625E-02  0.23281337814E-01  0.27737018579E-01  0.51100000000E-03 0.  1.
         11    1    4    4    0    0 -0.12986873100E-01 -0.19314264590E-01  0.96856664652E-01  0.99615130869E-01  0.51100000000E-03 0. -1.
</event>
<event>
 8    1  0.1123470E+005  0.1043930E+01  0.7957747E-01            NaN
         13   -1    0    0    0    0  0.00000000000E+00  0.00000000000E+00  0.74505805969E-08  0.10566000000E+00  0.10566000000E+00 0.  1.
     999900   -1    0    0    0    0 -0.00000000000E+00 -0.00000000000E+00 -0.74505805969E-08  0.93827000000E+00  0.93827000000E+00 0. -1.
     999902    2    1    2    0    0 -0.43781940854E-02 -0.19658103495E-01 -0.12078255860E-01  0.10204460931E+01  0.10201758354E+01 0.  0.
     999903    2    3    3    0    0 -0.34077700302E-01  0.11322897140E+00  0.45441769923E-01  0.12811790873E+00  0.19161275036E-01 0.  0.
         14    1    1    2    0    0  0.43781940854E-02  0.19658103495E-01  0.12078255860E-01  0.23483906853E-01  0.00000000000E+00 0.  1.
     999901    1    3    3    0    0  0.29699506216E-01 -0.13288707489E+00 -0.57520025783E-01  0.89232818442E+00  0.88000000000E+00 0. -1.
        -11    1    4    4    0    0 -0.20805053557E-01  0.86138851182E-01  0.40924000374E-01  0.97610382972E-01  0.51100000000E-03 0.  1.
         11    1    4    4    0    0 -0.13272646744E-01  0.27090120217E-01  0.45177695494E-02  0.30507525755E-01  0.51100000000E-03 0. -1.
</event>
<event>
 8    1  0.1123470E+005  0.1043930E+01  0.7957747E-01            NaN
         13   -1    0    0    0    0  0.00000000000E+00  0.00000000000E+00  0.74505805969E-08  0.10566000000E+00  0.10566000000E+00 0.  1.
     999900   -1    0    0    0    0 -0.00000000000E+00 -0.00000000000E+00 -0.74505805969E-08  0.93827000000E+00  0.93827000000E+00 0. -1.
     999902    2    1    2    0    0 -0.15288237941E-01  0.92516708684E-02 -0.14809467233E-01  0.10207212958E+01  0.10204574071E+01 0.  0.
     999903    2    3    3    0    0 -0.31302659335E-01  0.72266392306E-01  0.10157924929E+00  0.13067992023E+00  0.23592577788E-01 0.  0.
         14    1    1    2    0    0  0.15288237941E-01 -0.92516708684E-02  0.14809467233E-01  0.23208704249E-01  0.00000000000E+00 0. -1.
     999901    1    3    3    0    0  0.16014421394E-01 -0.63014721437E-01 -0.11638871652E+00  0.89004137552E+00  0.88000000000E+00 0. -1.
        -11    1    4    4    0    0 -0.22777557438E-01  0.23614532865E-01  0.41116370746E-01  0.52604946056E-01  0.51100000000E-03 0. -1.
         11    1    4    4    0    0 -0.85251018970E-02  0.48651859441E-01  0.60462878541E-01  0.78074974171E-01  0.51100000000E-03 0.  1.
</event>
<event>
 8    1  0.1123470E+005  0.1043930E+01  0.7957747E-01            NaN
         13   -1    0    0    0    0  0.00000000000E+00  0.00000000000E+00  0.74505805969E-08  0.10566000000E+00  0.10566000000E+00 0. -1.
     999900   -1    0    0    0    0 -0.00000000000E+00 -0.00000000000E+00 -0.74505805969E-08  0.93827000000E+00  0.93827000000E+00 0.  1.
     999902    2    1    2    0    0  0.14736117497E-01  0.12679543683E-01  0.14273616912E-01  0.10198123690E+01  0.10195271491E+01 0.  0.
     999903    2    3    3    0    0 -0.75339984837E-01 -0.78510310346E-01 -0.62745785225E-01  0.12719751249E+00  0.20054712051E-01 0.  0.
         14    1    1    2    0    0 -0.14736117497E-01 -0.12679543683E-01 -0.14273616912E-01  0.24117631033E-01  0.00000000000E+00 0. -1.
     999901    1    3    3    0    0  0.90076102333E-01  0.91189854029E-01  0.77019402138E-01  0.89261485647E+00  0.88000000000E+00 0.  1.
        -11    1    4    4    0    0 -0.40423739571E-01 -0.50837366620E-01 -0.46033905774E-01  0.79610917389E-01  0.51100000000E-03 0. -1.
         11    1    4    4    0    0 -0.34916245266E-01 -0.27672943726E-01 -0.16711879452E-01  0.47586595105E-01  0.51100000000E-03 0.  1.
</event>
<event>
 8    1  0.1123470E+005  0.1043930E+01  0.7957747E-01            NaN
         13   -1    0    0    0    0  0.00000000000E+00  0.00000000000E+00  0.74505805969E-08  0.10566000000E+00  0.10566000000E+00 0. -1.
     999900   -1    0    0    0    0 -0.00000000000E+00 -0.00000000000E+00 -0.74505805969E-08  0.93827000000E+00  0.93827000000E+00 0.  1.
     999902    2    1    2    0    0  0.19807494959E-01 -0.65133711582E-02 -0.16738202700E-02  0.10230120045E+01  0.10227981222E+01 0.  0.
     999903    2    3    3    0    0 -0.12780824706E+00  0.82241213759E-02 -0.13464150471E-01  0.13051740350E+00  0.21234996552E-01 0.  0.
         14    1    1    2    0    0 -0.19807494959E-01  0.65133711582E-02  0.16738202700E-02  0.20917995475E-01  0.00000000000E+00 0.  1.
     999901    1    3    3    0    0  0.14761574202E+00 -0.14737492534E-01  0.11790330201E-01  0.89249460103E+00  0.88000000000E+00 0.  1.
        -11    1    4    4    0    0 -0.68630975010E-01 -0.13324453020E-02 -0.16117573499E-01  0.70512576451E-01  0.51100000000E-03 0. -1.
         11    1    4    4    0    0 -0.59177272050E-01  0.95565666779E-02  0.26534230275E-02  0.60004827046E-01  0.51100000000E-03 0.  1.
</event>
<event>
 8    1  0.1123470E+005  0.1043930E+01  0.7957747E-01            NaN
         13   -1    0    0    0    0  0.00000000000E+00  0.00000000000E+00  0.74505805969E-08  0.10566000000E+00  0.10566000000E+00 0.  1.
     999900   -1    0    0    0    0 -0.00000000000E+00 -0.00000000000E+00 -0.74505805969E-08  0.93827000000E+00  0.93827000000E+00 0. -1.
     999902    2    1    2    0    0  0.97930732975E-02  0.19584774483E-01 -0.86720213860E-02  0.10203785323E+01  0.10201066991E+01 0.  0.
     999903    2    3    3    0    0  0.28696169012E-01 -0.33391468786E-01 -0.12191436660E+00  0.13134105382E+00  0.21187244537E-01 0.  0.
         14    1    1    2    0    0 -0.97930732975E-02 -0.19584774483E-01  0.86720213860E-02  0.23551467706E-01  0.00000000000E+00 0.  1.
     999901    1    3    3    0    0 -0.18903095715E-01  0.52976243269E-01  0.11324234522E+00  0.88903747847E+00  0.88000000000E+00 0.  1.
        -11    1    4    4    0    0  0.20855819874E-01 -0.14916963240E-01 -0.44455535082E-01  0.51322867568E-01  0.51100000000E-03 0.  1.
         11    1    4    4    0    0  0.78403491379E-02 -0.18474505546E-01 -0.77458831521E-01  0.80018186254E-01  0.51100000000E-03 0. -1.
</event>
<event>
 8    1  0.1123470E+005  0.1043930E+01  0.7957747E-01            NaN
         13   -1    0    0    0    0  0.00000000000E+00  0.00000000000E+00  0.74505805969E-08  0.10566000000E+00  0.10566000000E+00 0.  1.
     999900   -1    0    0    0    0 -0.00000000000E+00 -0.00000000000E+00 -0.74505805969E-08  0.93827000000E+00  0.93827000000E+00 0.  1.
     999902    2    1    2    0    0  0.21942526347E-01 -0.46111160784E-02  0.12319740336E-01  0.10183465511E+01  0.10180251398E+01 0.  0.
     999903    2    3    3    0    0  0.60099578336E-01 -0.11078951432E+00  0.31273822365E-01  0.13094074199E+00  0.16767532617E-01 0.  0.
         14    1    1    2    0    0 -0.21942526347E-01  0.46111160784E-02 -0.12319740336E-01  0.25583448867E-01  0.00000000000E+00 0. -1.
     999901    1    3    3    0    0 -0.38157051989E-01  0.10617839824E+00 -0.18954082029E-01  0.88740580914E+00  0.88000000000E+00 0.  1.
        -11    1    4    4    0    0  0.33065183707E-01 -0.52178559430E-01  0.78375519846E-02  0.62270352335E-01  0.51100000000E-03 0.  1.
         11    1    4    4    0    0  0.27034394629E-01 -0.58610954885E-01  0.23436270381E-01  0.68670389659E-01  0.51100000000E-03 0. -1.
</event>
<event>
 8    1  0.1123470E+005  0.1043930E+01  0.7957747E-01            NaN
         13   -1    0    0    0    0  0.00000000000E+00  0.00000000000E+00  0.74505805969E-08  0.10566000000E+00  0.10566000000E+00 0. -1.
     999900   -1    0    0    0    0 -0.00000000000E+00 -0.00000000000E+00 -0.74505805969E-08  0.93827000000E+00  0.93827000000E+00 0.  1.
     999902    2    1    2    0    0  0.36345405749E-02 -0.23429679899E-01 -0.28650421760E-02  0.10200476163E+01  0.10197679987E+01 0.  0.
     999903    2    3    3    0    0 -0.29288698101E-01 -0.11652032582E-01 -0.12538984326E+00  0.13087104242E+00  0.20273609731E-01 0.  0.
         14    1    1    2    0    0 -0.36345405749E-02  0.23429679899E-01  0.28650421760E-02  0.23882383717E-01  0.00000000000E+00 0. -1.
     999901    1    3    3    0    0  0.32923238676E-01 -0.11777647316E-01  0.12252480109E+00  0.88917657386E+00  0.88000000000E+00 0. -1.
        -11    1    4    4    0    0 -0.20396687960E-01 -0.24622540365E-02 -0.10344927583E+00  0.10547085553E+00  0.51100000000E-03 0.  1.
         11    1    4    4    0    0 -0.88920101419E-02 -0.91897785459E-02 -0.21940567430E-01  0.25400186893E-01  0.51100000000E-03 0. -1.
</event>
<event>
 8    1  0.1123470E+005  0.1043930E+01  0.7957747E-01            NaN
         13   -1    0    0    0    0  0.00000000000E+00  0.00000000000E+00  0.74505805969E-08  0.10566000000E+00  0.10566000000E+00 0. -1.
     999900   -1    0    0    0    0 -0.00000000000E+00 -0.00000000000E+00 -0.74505805969E-08  0.93827000000E+00  0.93827000000E+00 0. -1.
     999902    2    1    2    0    0 -0.14753095060E-01 -0.46988552703E-02 -0.17918089102E-01  0.10202489744E+01  0.10199741070E+01 0.  0.
     999903    2    3    3    0    0 -0.73759101120E-01 -0.10400931833E-01  0.10415971409E+00  0.12984613725E+00  0.21498579930E-01 0.  0.
         14    1    1    2    0    0  0.14753095060E-01  0.46988552703E-02  0.17918089102E-01  0.23681025564E-01  0.00000000000E+00 0. -1.
     999901    1    3    3    0    0  0.59006006060E-01  0.57020765632E-02 -0.12207780319E+00  0.89040283718E+00  0.88000000000E+00 0. -1.
        -11    1    4    4    0    0 -0.13891117014E-01  0.95812815491E-03  0.34988830696E-01  0.37661127651E-01  0.51100000000E-03 0. -1.
         11    1    4    4    0    0 -0.59867984106E-01 -0.11359059988E-01  0.69170883396E-01  0.92185009603E-01  0.51100000000E-03 0.  1.
</event>
<event>
 8    1  0.1123470E+005  0.1043930E+01  0.7957747E-01            NaN
         13   -1    0    0    0    0  0.00000000000E+00  0.00000000000E+00  0.74505805969E-08  0.10566000000E+00  0.10566000000E+00 0.  1.
     999900   -1    0    0    0    0 -0.00000000000E+00 -0.00000000000E+00 -0.74505805969E-08  0.93827000000E+00  0.93827000000E+00 0. -1.
     999902    2    1    2    0    0 -0.22691033410E-01 -0.17577939934E-02  0.75956294596E-02  0.10199369505E+01  0.10196547046E+01 0.  0.
     999903    2    3    3    0    0  0.10296914400E-01 -0.12411599445E+00 -0.31488660445E-01  0.13000025858E+00  0.19943043184E-01 0.  0.
         14    1    1    2    0    0  0.22691033410E-01  0.17577939934E-02 -0.75956294596E-02  0.23993049490E-01  0.00000000000E+00 0. -1.
     999901    1    3    3    0    0 -0.32987947810E-01  0.12235820045E+00  0.39084289905E-01  0.88993669193E+00  0.88000000000E+00 0.  1.
        -11    1    4    4    0    0 -0.40824797504E-02 -0.50986810081E-01 -0.18198573765E-01  0.54293375758E-01  0.51100000000E-03 0.  1.
         11    1    4    4    0    0  0.14379394150E-01 -0.73129184367E-01 -0.13290086680E-01  0.75706882827E-01  0.51100000000E-03 0. -1.
</event>
<event>
 8    1  0.1123470E+005  0.1043930E+01  0.7957747E-01            NaN
         13   -1    0    0    0    0  0.00000000000E+00  0.00000000000E+00  0.74505805969E-08  0.10566000000E+00  0.10566000000E+00 0. -1.
     999900   -1    0    0    0    0 -0.00000000000E+00 -0.00000000000E+00 -0.74505805969E-08  0.93827000000E+00  0.93827000000E+00 0. -1.
     999902    2    1    2    0    0  0.10134368125E-02  0.22026603570E-01  0.18945245326E-01  0.10148590413E+01  0.10144425824E+01 0.  0.
     999903    2    3    3    0    0 -0.50264116200E-01 -0.29635357643E-01  0.11109079986E+00  0.12705886733E+00  0.19951294542E-01 0.  0.
         14    1    1    2    0    0 -0.10134368125E-02 -0.22026603570E-01 -0.18945245326E-01  0.29070958695E-01  0.00000000000E+00 0.  1.
     999901    1    3    3    0    0  0.51277553013E-01  0.51661961213E-01 -0.92145554539E-01  0.88780017397E+00  0.88000000000E+00 0. -1.
        -11    1    4    4    0    0 -0.28321841080E-01 -0.16092696576E-01  0.81706436116E-01  0.87961948529E-01  0.51100000000E-03 0.  1.
         11    1    4    4    0    0 -0.21942275120E-01 -0.13542661067E-01  0.29384363749E-01  0.39096918806E-01  0.51100000000E-03 0. -1.
</event>
<event>
 8    1  0.1123470E+005  0.1043930E+01  0.7957747E-01            NaN
         13   -1    0    0    0    0  0.00000000000E+00  0.00000000000E+00  0.74505805969E-08  0.10566000000E+00  0.10566000000E+00 0.  1.
     999900   -1    0    0    0    0 -0.00000000000E+00 -0.00000000000E+00 -0.74505805969E-08  0.93827000000E+00  0.93827000000E+00 0. -1.
     999902    2    1    2    0    0  0.14236002906E-01  0.72170244138E-02  0.15994752701E-01  0.10213339531E+01  0.10210839645E+01 0.  0.
     999903    2    3    3    0    0  0.61501640789E-02  0.13095412351E+00  0.28979114968E-02  0.13254388921E+00  0.19304861859E-01 0.  0.
         14    1    1    2    0    0 -0.14236002906E-01 -0.72170244138E-02 -0.15994752701E-01  0.22596046869E-01  0.00000000000E+00 0. -1.
     999901    1    3    3    0    0  0.80858388268E-02 -0.12373709910E+00  0.13096841204E-01  0.88879006393E+00  0.88000000000E+00 0. -1.
        -11    1    4    4    0    0 -0.32763589194E-02  0.50204672061E-01  0.86042178898E-02  0.51044464059E-01  0.51100000000E-03 0.  1.
         11    1    4    4    0    0  0.94265229984E-02  0.80749451452E-01 -0.57063063930E-02  0.81499425147E-01  0.51100000000E-03 0. -1.
</event>
<event>
 8    1  0.1123470E+005  0.1043930E+01  0.7957747E-01            NaN
         13   -1    0    0    0    0  0.00000000000E+00  0.00000000000E+00  0.74505805969E-08  0.10566000000E+00  0.10566000000E+00 0.  1.
     999900   -1    0    0    0    0 -0.00000000000E+00 -0.00000000000E+00 -0.74505805969E-08  0.93827000000E+00  0.93827000000E+00 0. -1.
     999902    2    1    2    0    0 -0.10347513155E-01  0.20807339440E-01 -0.28042443812E-02  0.10205231593E+01  0.10202546930E+01 0.  0.
     999903    2    3    3    0    0  0.31583924161E-01  0.34657855401E-02  0.12451456789E+00  0.13020352298E+00  0.20964824037E-01 0.  0.
         14    1    1    2    0    0  0.10347513155E-01 -0.20807339440E-01  0.28042443812E-02  0.23406840658E-01  0.00000000000E+00 0.  1.
     999901    1    3    3    0    0 -0.41931437315E-01  0.17341553899E-01 -0.12731881227E+00  0.89031963636E+00  0.88000000000E+00 0. -1.
        -11    1    4    4    0    0  0.12171702014E-01  0.97712294577E-02  0.34003742877E-01  0.37418483477E-01  0.51100000000E-03 0.  1.
         11    1    4    4    0    0  0.19412222146E-01 -0.63054439176E-02  0.90510825009E-01  0.92785039507E-01  0.51100000000E-03 0. -1.
</event>
<event>
 8    1  0.1123470E+005  0.1043930E+01  0.7957747E-01            NaN
         13   -1    0    0    0    0  0.00000000000E+00  0.00000000000E+00  0.74505805969E-08  0.10566000000E+00  0.10566000000E+00 0. -1.
     999900   -1    0    0    0    0 -0.00000000000E+00 -0.00000000000E+00 -0.74505805969E-08  0.93827000000E+00  0.93827000000E+00 0.  1.
     999902    2    1    2    0    0 -0.19003481039E-01  0.12597415487E-01  0.82898314303E-02  0.10196699820E+01  0.10193813436E+01 0.  0.
     999903    2    3    3    0    0 -0.59396582720E-01 -0.11228157227E+00 -0.49411760701E-02  0.12983773724E+00  0.26425693542E-01 0.  0.
         14    1    1    2    0    0  0.19003481039E-01 -0.12597415487E-01 -0.82898314303E-02  0.24260018007E-01  0.00000000000E+00 0. -1.
     999901    1    3    3    0    0  0.40393101681E-01  0.12487898776E+00  0.13231007500E-01  0.88983224476E+00  0.88000000000E+00 0.  1.
        -11    1    4    4    0    0 -0.35806012562E-01 -0.40039045651E-01 -0.33943028177E-02  0.53823583352E-01  0.51100000000E-03 0.  1.
         11    1    4    4    0    0 -0.23590570157E-01 -0.72242526622E-01 -0.15468732524E-02  0.76014153885E-01  0.51100000000E-03 0. -1.
</event>
<event>
 8    1  0.1123470E+005  0.1043930E+01  0.7957747E-01            NaN
         13   -1    0    0    0    0  0.00000000000E+00  0.00000000000E+00  0.74505805969E-08  0.10566000000E+00  0.10566000000E+00 0.  1.
     999900   -1    0    0    0    0 -0.00000000000E+00 -0.00000000000E+00 -0.74505805969E-08  0.93827000000E+00  0.93827000000E+00 0. -1.
     999902    2    1    2    0    0  0.19182938553E-01 -0.43017472484E-02  0.12860533801E-01  0.10204377994E+01  0.10201673485E+01 0.  0.
     999903    2    3    3    0    0 -0.48795086406E-01 -0.10863946121E+00  0.50401948236E-01  0.13087794853E+00  0.20129283048E-01 0.  0.
         14    1    1    2    0    0 -0.19182938553E-01  0.43017472484E-02 -0.12860533801E-01  0.23492200633E-01  0.00000000000E+00 0. -1.
     999901    1    3    3    0    0  0.67978024959E-01  0.10433771396E+00 -0.37541414435E-01  0.88955985084E+00  0.88000000000E+00 0. -1.
        -11    1    4    4    0    0 -0.12292725723E-01 -0.51519783583E-01  0.23461625226E-01  0.57931927168E-01  0.51100000000E-03 0. -1.
         11    1    4    4    0    0 -0.36502360682E-01 -0.57119677623E-01  0.26940323010E-01  0.72946021358E-01  0.51100000000E-03 0.  1.
</event>
<event>
 8    1  0.1123470E+005  0.1043930E+01  0.7957747E-01            NaN
         13   -1    0    0    0    0  0.00000000000E+00  0.00000000000E+00  0.74505805969E-08  0.10566000000E+00  0.10566000000E+00 0. -1.
     999900   -1    0    0    0    0 -0.00000000000E+00 -0.00000000000E+00 -0.74505805969E-08  0.93827000000E+00  0.93827000000E+00 0. -1.
     999902    2    1    2    0    0 -0.42638231004E-02  0.17756798308E-01 -0.12408551600E-01  0.10218515891E+01  0.10216130451E+01 0.  0.
     999903    2    3    3    0    0  0.46934576860E-01  0.76946484786E-01 -0.97445869887E-01  0.13429537083E+00  0.20394436568E-01 0.  0.
         14    1    1    2    0    0  0.42638231004E-02 -0.17756798308E-01  0.12408551600E-01  0.22078410867E-01  0.00000000000E+00 0. -1.
     999901    1    3    3    0    0 -0.51198399960E-01 -0.59189686478E-01  0.85037318287E-01  0.88755621830E+00  0.88000000000E+00 0.  1.
        -11    1    4    4    0    0  0.27064985755E-01  0.27624857045E-01 -0.48392918955E-01  0.61949833790E-01  0.51100000000E-03 0.  1.
         11    1    4    4    0    0  0.19869591105E-01  0.49321627741E-01 -0.49052950932E-01  0.72345537042E-01  0.51100000000E-03 0. -1.
</event>
<event>
 8    1  0.1123470E+005  0.1043930E+01  0.7957747E-01            NaN
         13   -1    0    0    0    0  0.00000000000E+00  0.00000000000E+00  0.74505805969E-08  0.10566000000E+00  0.10566000000E+00 0.  1.
     999900   -1    0    0    0    0 -0.00000000000E+00 -0.00000000000E+00 -0.74505805969E-08  0.93827000000E+00  0.93827000000E+00 0.  1.
     999902    2    1    2    0    0  0.43385646923E-02  0.23297439615E-01  0.17773523893E-02  0.10201654714E+01  0.10198886392E+01 0.  0.
     999903    2    3    3    0    0  0.12104471051E+00 -0.42479953356E-01  0.73575120227E-02  0.13000923342E+00  0.19796449522E-01 0.  0.
         14    1    1    2    0    0 -0.43385646923E-02 -0.23297439615E-01 -0.17773523893E-02  0.23764528561E-01  0.00000000000E+00 0.  1.
     999901    1    3    3    0    0 -0.11670614581E+00  0.65777392971E-01 -0.55801596334E-02  0.89015623802E+00  0.88000000000E+00 0.  1.
        -11    1    4    4    0    0  0.58012217294E-01 -0.17438960449E-01 -0.60167704922E-02  0.60876903215E-01  0.51100000000E-03 0.  1.
         11    1    4    4    0    0  0.63032493212E-01 -0.25040992907E-01  0.13374282515E-01  0.69132330209E-01  0.51100000000E-03 0. -1.
</event>
<event>
 8    1  0.1123470E+005  0.1043930E+01  0.7957747E-01            NaN
         13   -1    0    0    0    0  0.00000000000E+00  0.00000000000E+00  0.74505805969E-08  0.10566000000E+00  0.10566000000E+00 0. -1.
     999900   -1    0    0    0    0 -0.00000000000E+00 -0.00000000000E+00 -0.74505805969E-08  0.93827000000E+00  0.93827000000E+00 0. -1.
     999902    2    1    2    0    0 -0.96972244879E-02 -0.12113534755E-02  0.20439525599E-01  0.10212743661E+01  0.10210230424E+01 0.  0.
     999903    2    3    3    0    0 -0.67474170591E-01 -0.60963101420E-01  0.95941364900E-01  0.13413910325E+00  0.22787937376E-01 0.  0.
         14    1    1    2    0    0  0.96972244879E-02  0.12113534755E-02 -0.20439525599E-01  0.22655633885E-01  0.00000000000E+00 0.  1.
     999901    1    3    3    0    0  0.57776946103E-01  0.59751747944E-01 -0.75501839302E-01  0.88713526287E+00  0.88000000000E+00 0.  1.
        -11    1    4    4    0    0 -0.41264733816E-01 -0.31752809082E-01  0.39335738843E-01  0.65257801164E-01  0.51100000000E-03 0. -1.
         11    1    4    4    0    0 -0.26209436775E-01 -0.29210292338E-01  0.56605626057E-01  0.68881302085E-01  0.51100000000E-03 0.  1.
</event>
<event>
 8    1  0.1123470E+005  0.1043930E+01  0.7957747E-01            NaN
         13   -1    0    0    0    0  0.00000000000E+00  0.00000000000E+00  0.74505805969E-08  0.10566000000E+00  0.10566000000E+00 0.  1.
     999900   -1    0    0    0    0 -0.00000000000E+00 -0.00000000000E+00 -0.74505805969E-08  0.93827000000E+00  0.93827000000E+00 0. -1.
     999902    2    1    2    0    0 -0.71758483613E-02  0.40318202420E-02 -0.20323141353E-01  0.10220033393E+01  0.10217680985E+01 0.  0.
     999903    2    3    3    0    0  0.11927812491E+00 -0.47237174411E-01  0.15241972094E-01  0.13077722072E+00  0.20291427202E-01 0.  0.
         14    1    1    2    0    0  0.71758483613E-02 -0.40318202420E-02  0.20323141353E-01  0.21926660681E-01  0.00000000000E+00 0.  1.
     999901    1    3    3    0    0 -0.12645397328E+00  0.51268994652E-01 -0.35565113447E-01  0.89122611859E+00  0.88000000000E+00 0. -1.
        -11    1    4    4    0    0  0.20089403891E-01 -0.10044032183E-01 -0.47768633063E-02  0.22968375546E-01  0.51100000000E-03 0. -1.
         11    1    4    4    0    0  0.99188721023E-01 -0.37193142227E-01  0.20018835400E-01  0.10780884518E+00  0.51100000000E-03 0.  1.
</event>
<event>
 8    1  0.1123470E+005  0.1043930E+01  0.7957747E-01            NaN
         13   -1    0    0    0    0  0.00000000000E+00  0.00000000000E+00  0.74505805969E-08  0.10566000000E+00  0.10566000000E+00 0. -1.
     999900   -1    0    0    0    0 -0.00000000000E+00 -0.00000000000E+00 -0.74505805969E-08  0.93827000000E+00  0.93827000000E+00 0. -1.
     999902    2    1    2    0    0 -0.44161968670E-02  0.18818422993E-01 -0.13616264124E-01  0.10202860053E+01  0.10200120068E+01 0.  0.
     999903    2    3    3    0    0  0.42357300859E-01  0.73460304303E-01 -0.10208800197E+00  0.13292996415E+00  0.76064432657E-02 0.  0.
         14    1    1    2    0    0  0.44161968670E-02 -0.18818422993E-01  0.13616264124E-01  0.23643994743E-01  0.00000000000E+00 0. -1.
     999901    1    3    3    0    0 -0.46773497726E-01 -0.54641881311E-01  0.88471737848E-01  0.88735604110E+00  0.88000000000E+00 0. -1.
        -11    1    4    4    0    0  0.10636494499E-01  0.20992444996E-01 -0.23600546138E-01  0.33332636577E-01  0.51100000000E-03 0. -1.
         11    1    4    4    0    0  0.31720806360E-01  0.52467859308E-01 -0.78487455834E-01  0.99597327578E-01  0.51100000000E-03 0.  1.
</event>
<event>
 8    1  0.1123470E+005  0.1043930E+01  0.7957747E-01            NaN
         13   -1    0    0    0    0  0.00000000000E+00  0.00000000000E+00  0.74505805969E-08  0.10566000000E+00  0.10566000000E+00 0. -1.
     999900   -1    0    0    0    0 -0.00000000000E+00 -0.00000000000E+00 -0.74505805969E-08  0.93827000000E+00  0.93827000000E+00 0. -1.
     999902    2    1    2    0    0 -0.21645135283E-01  0.12663955125E-01  0.34467977366E-02  0.10186166032E+01  0.10183020261E+01 0.  0.
     999903    2    3    3    0    0  0.38419125214E-02 -0.11313719998E+00 -0.55091527826E-01  0.12738023965E+00  0.19387178841E-01 0.  0.
         14    1    1    2    0    0  0.21645135283E-01 -0.12663955125E-01 -0.34467977366E-02  0.25313396759E-01  0.00000000000E+00 0. -1.
     999901    1    3    3    0    0 -0.25487047804E-01  0.12580115511E+00  0.58538325563E-01  0.89123636359E+00  0.88000000000E+00 0. -1.
        -11    1    4    4    0    0 -0.61571040178E-03 -0.46553495970E-01 -0.12488483947E-01  0.48206124493E-01  0.51100000000E-03 0. -1.
         11    1    4    4    0    0  0.44576229232E-02 -0.66583704009E-01 -0.42603043879E-01  0.79174115154E-01  0.51100000000E-03 0.  1.
</event>
<event>
 8    1  0.1123470E+005  0.1043930E+01  0.7957747E-01            NaN
         13   -1    0    0    0    0  0.00000000000E+00  0.00000000000E+00  0.74505805969E-08  0.10566000000E+00  0.10566000000E+00 0. -1.
     999900   -1    0    0    0    0 -0.00000000000E+00 -0.00000000000E+00 -0.74505805969E-08  0.93827000000E+00  0.93827000000E+00 0.  1.
     999902    2    1    2    0    0 -0.29907206178E-02 -0.16090212034E-01 -0.16663238138E-01  0.10205739978E+01  0.10203067099E+01 0.  0.
     999903    2    3    3    0    0  0.14234850062E-01  0.33290454827E-01  0.12139620671E+00  0.12827607623E+00  0.20169962587E-01 0.  0.
         14    1    1    2    0    0  0.29907206178E-02  0.16090212034E-01  0.16663238138E-01  0.23356002191E-01  0.00000000000E+00 0. -1.
     999901    1    3    3    0    0 -0.17225570680E-01 -0.49380666861E-01 -0.13805944485E+00  0.89229792158E+00  0.88000000000E+00 0.  1.
        -11    1    4    4    0    0  0.20710297000E-02  0.15214557315E-01  0.24187103555E-01  0.28653952916E-01  0.51100000000E-03 0.  1.
         11    1    4    4    0    0  0.12163820362E-01  0.18075897512E-01  0.97209103153E-01  0.99622123313E-01  0.51100000000E-03 0. -1.
</event>
<event>
 8    1  0.1123470E+005  0.1043930E+01  0.7957747E-01            NaN
         13   -1    0    0    0    0  0.00000000000E+00  0.00000000000E+00  0.74505805969E-08  0.10566000000E+00  0.10566000000E+00 0.  1.
     999900   -1    0    0    0    0 -0.00000000000E+00 -0.00000000000E+00 -0.74505805969E-08  0.93827000000E+00  0.93827000000E+00 0. -1.
     999902    2    1    2    0    0  0.23625569093E-01 -0.60357860209E-02 -0.80502308422E-03  0.10195323302E+01  0.10192403672E+01 0.  0.
     999903    2    3    3    0    0 -0.54544318968E-01  0.98231552755E-01 -0.58170045557E-01  0.12808802174E+00  0.19956613591E-01 0.  0.
         14    1    1    2    0    0 -0.23625569093E-01  0.60357860209E-02  0.80502308422E-03  0.24397669766E-01  0.00000000000E+00 0. -1.
     999901    1    3    3    0    0  0.78169888060E-01 -0.10426733878E+00  0.57365022473E-01  0.89144430849E+00  0.88000000000E+00 0. -1.
        -11    1    4    4    0    0 -0.13426578779E-01  0.99200218605E-02 -0.84964362613E-02  0.18738473832E-01  0.51100000000E-03 0. -1.
         11    1    4    4    0    0 -0.41117740189E-01  0.88311530895E-01 -0.49673609296E-01  0.10934954791E+00  0.51100000000E-03 0.  1.
</event>
<event>
 8    1  0.1123470E+005  0.1043930E+01  0.7957747E-01            NaN
         13   -1    0    0    0    0  0.00000000000E+00  0.00000000000E+00  0.74505805969E-08  0.10566000000E+00  0.10566000000E+00 0.  1.
     999900   -1    0    0    0    0 -0.00000000000E+00 -0.00000000000E+00 -0.74505805969E-08  0.93827000000E+00  0.93827000000E+00 0. -1.
     999902    2    1    2    0    0  0.20043137475E-01 -0.10858154602E-01 -0.64430743379E-02  0.10202416044E+01  0.10199665638E+01 0.  0.
     999903    2    3    3    0    0  0.11255763616E+00 -0.52746564545E-01 -0.44612278904E-01  0.13357906453E+00  0.20042193545E-01 0.  0.
         14    1    1    2    0    0 -0.20043137475E-01  0.10858154602E-01  0.64430743379E-02  0.23688395643E-01  0.00000000000E+00 0. -1.
     999901    1    3    3    0    0 -0.92514498688E-01  0.41888409943E-01  0.38169204566E-01  0.88666253983E+00  0.88000000000E+00 0.  1.
        -11    1    4    4    0    0  0.10539223767E-01  0.17730753635E-03 -0.80768301604E-03  0.10583957125E-01  0.51100000000E-03 0.  1.
         11    1    4    4    0    0  0.10201841240E+00 -0.52923872081E-01 -0.43804595888E-01  0.12299510741E+00  0.51100000000E-03 0. -1.
</event>
<event>
 8    1  0.1123470E+005  0.1043930E+01  0.7957747E-01            NaN
         13   -1    0    0    0    0  0.00000000000E+00  0.00000000000E+00  0.74505805969E-08  0.10566000000E+00  0.10566000000E+00 0.  1.
     999900   -1    0    0    0    0 -0.00000000000E+00 -0.00000000000E+00 -0.74505805969E-08  0.93827000000E+00  0.93827000000E+00 0.  1.
     999902    2    1    2    0    0 -0.16975051373E-01  0.75596046514E-02  0.13843978437E-01  0.10207576948E+01  0.10204946426E+01 0.  0.
     999903    2    3    3    0    0 -0.54759931835E-01  0.11329361165E+00  0.38893175726E-01  0.13326975697E+00  0.20348376556E-01 0.  0.
         14    1    1    2    0    0  0.16975051373E-01 -0.75596046514E-02 -0.13843978437E-01  0.23172305249E-01  0.00000000000E+00 0. -1.
     999901    1    3    3    0    0  0.37784880462E-01 -0.10573400700E+00 -0.25049197289E-01  0.88748793778E+00  0.88000000000E+00 0.  1.
        -11    1    4    4    0    0 -0.31476250802E-01  0.64324520066E-01  0.11547661408E-01  0.72539698450E-01  0.51100000000E-03 0. -1.
         11    1    4    4    0    0 -0.23283681033E-01  0.48969091584E-01  0.27345514318E-01  0.60730058516E-01  0.51100000000E-03 0.  1.
</event>
<event>
 8    1  0.1123470E+005  0.1043930E+01  0.7957747E-01            NaN
         13   -1    0    0    0    0  0.00000000000E+00  0.00000000000E+00  0.74505805969E-08  0.10566000000E+00  0.10566000000E+00 0. -1.
     999900   -1    0    0    0    0 -0.00000000000E+00 -0.00000000000E+00 -0.74505805969E-08  0.93827000000E+00  0.93827000000E+00 0.  1.
     999902    2    1    2    0    0 -0.30688354722E-02  0.17274875130E-01  0.16130399283E-01  0.10200966443E+01  0.10198181872E+01 0.  0.
     999903    2    3    3    0    0 -0.24276012018E-02 -0.73798127337E-01 -0.10197839030E+00  0.12754726802E+00  0.20412169025E-01 0.  0.
         14    1    1    2    0    0  0.30688354722E-02 -0.17274875130E-01 -0.16130399283E-01  0.23833355680E-01  0.00000000000E+00 0.  1.
     999901    1    3    3    0    0 -0.64123427045E-03  0.91073002467E-01  0.11810878959E+00  0.89254937630E+00  0.88000000000E+00 0. -1.
        -11    1    4    4    0    0 -0.50715204089E-02 -0.68938259661E-01 -0.10016558101E+00  0.12170295274E+00  0.51100000000E-03 0.  1.
         11    1    4    4    0    0  0.26439192071E-02 -0.48598676755E-02 -0.18128092919E-02  0.58443152829E-02  0.51100000000E-03 0. -1.
</event>
<event>
 8    1  0.1123470E+005  0.1043930E+01  0.7957747E-01            NaN
         13   -1    0    0    0    0  0.00000000000E+00  0.00000000000E+00  0.74505805969E-08  0.10566000000E+00  0.10566000000E+00 0. -1.
     999900   -1    0    0    0    0 -0.00000000000E+00 -0.00000000000E+00 -0.74505805969E-08  0.93827000000E+00  0.93827000000E+00 0. -1.
     999902    2    1    2    0    0 -0.21903626586E-02  0.27497636192E-01 -0.13675847672E-01  0.10131412603E+01  0.10126733268E+01 0.  0.
     999903    2    3    3    0    0  0.74702277180E-02 -0.96695662436E-01  0.68710164854E-01  0.12055806667E+00  0.20181804905E-01 0.  0.
         14    1    1    2    0    0  0.21903626586E-02 -0.27497636192E-01  0.13675847672E-01  0.30788739732E-01  0.00000000000E+00 0. -1.
     999901    1    3    3    0    0 -0.96605903766E-02  0.12419329863E+00 -0.82386012526E-01  0.89258319360E+00  0.88000000000E+00 0. -1.
        -11    1    4    4    0    0 -0.25723263008E-02 -0.24789609723E-01  0.27318888550E-01  0.36982758218E-01  0.51100000000E-03 0.  1.
         11    1    4    4    0    0  0.10042554019E-01 -0.71906052714E-01  0.41391276304E-01  0.83575308454E-01  0.51100000000E-03 0. -1.
</event>
<event>
 8    1  0.1123470E+005  0.1043930E+01  0.7957747E-01            NaN
         13   -1    0    0    0    0  0.00000000000E+00  0.00000000000E+00  0.74505805969E-08  0.10566000000E+00  0.10566000000E+00 0.  1.
     999900   -1    0    0    0    0 -0.00000000000E+00 -0.00000000000E+00 -0.74505805969E-08  0.93827000000E+00  0.93827000000E+00 0.  1.
     999902    2    1    2    0    0 -0.89912713187E-02 -0.21085652159E-01  0.65091213356E-02  0.10201011027E+01  0.10198227509E+01 0.  0.
     999903    2    3    3    0    0  0.58781918401E-01 -0.92032302550E-01 -0.70253405108E-01  0.13132716184E+00  0.19647490039E-01 0.  0.
         14    1    1    2    0    0  0.89912713187E-02  0.21085652159E-01 -0.65091213356E-02  0.23828897320E-01  0.00000000000E+00 0. -1.
     999901    1    3    3    0    0 -0.67773189720E-01  0.70946650390E-01  0.76762526444E-01  0.88877394084E+00  0.88000000000E+00 0. -1.
        -11    1    4    4    0    0  0.50911424646E-01 -0.88420896826E-01 -0.66995465402E-01  0.12206097517E+00  0.51100000000E-03 0.  1.
         11    1    4    4    0    0  0.78704937549E-02 -0.36114057236E-02 -0.32579397062E-02  0.92661866685E-02  0.51100000000E-03 0. -1.
</event>
<event>
 8    1  0.1123470E+005  0.1043930E+01  0.7957747E-01            NaN
         13   -1    0    0    0    0  0.00000000000E+00  0.00000000000E+00  0.74505805969E-08  0.10566000000E+00  0.10566000000E+00 0.  1.
     999900   -1    0    0    0    0 -0.00000000000E+00 -0.00000000000E+00 -0.74505805969E-08  0.93827000000E+00  0.93827000000E+00 0.  1.
     999902    2    1    2    0    0 -0.21565465359E-01  0.86911896640E-02 -0.16034896793E-01  0.10156859920E+01  0.10152932140E+01 0.  0.
     999903    2    3    3    0    0  0.78400799995E-01 -0.84529050610E-01  0.39189571596E-01  0.12342313311E+00  0.20139548864E-01 0.  0.
         14    1    1    2    0    0  0.21565465359E-01 -0.86911896640E-02  0.16034896793E-01  0.28244008021E-01  0.00000000000E+00 0.  1.
     999901    1    3    3    0    0 -0.99966265353E-01  0.93220240274E-01 -0.55224468389E-01  0.89226285887E+00  0.88000000000E+00 0.  1.
        -11    1    4    4    0    0  0.58858395635E-01 -0.58055822615E-01  0.36596660953E-01  0.90412200450E-01  0.51100000000E-03 0.  1.
         11    1    4    4    0    0  0.19542404360E-01 -0.26473227995E-01  0.25929106427E-02  0.33010932662E-01  0.51100000000E-03 0. -1.
</event>
<event>
 8    1  0.1123470E+005  0.1043930E+01  0.7957747E-01            NaN
         13   -1    0    0    0    0  0.00000000000E+00  0.00000000000E+00  0.74505805969E-08  0.10566000000E+00  0.10566000000E+00 0.  1.
     999900   -1    0    0    0    0 -0.00000000000E+00 -0.00000000000E+00 -0.74505805969E-08  0.93827000000E+00  0.93827000000E+00 0.  1.
     999902    2    1    2    0    0  0.23934261205E-01  0.12389722449E-02  0.27973305102E-03  0.10199620597E+01  0.10196804112E+01 0.  0.
     999903    2    3    3    0    0 -0.45642469516E-01 -0.11777801975E+00  0.17709201345E-01  0.12905816353E+00  0.19684938457E-01 0.  0.
         14    1    1    2    0    0 -0.23934261205E-01 -0.12389722449E-02 -0.27973305102E-03  0.23967940300E-01  0.00000000000E+00 0.  1.
     999901    1    3    3    0    0  0.69576730720E-01  0.11901699200E+00 -0.17429468294E-01  0.89090389617E+00  0.88000000000E+00 0.  1.
        -11    1    4    4    0    0 -0.13302778179E-01 -0.38403854732E-01 -0.33945804646E-02  0.40787305171E-01  0.51100000000E-03 0.  1.
         11    1    4    4    0    0 -0.32339691337E-01 -0.79374165020E-01  0.21103781809E-01  0.88270858362E-01  0.51100000000E-03 0. -1.
</event>
<event>
 8    1  0.1123470E+005  0.1043930E+01  0.7957747E-01            NaN
         13   -1    0    0    0    0  0.00000000000E+00  0.00000000000E+00  0.74505805969E-08  0.10566000000E+00  0.10566000000E+00 0. -1.
     999900   -1    0    0    0    0 -0.00000000000E+00 -0.00000000000E+00 -0.74505805969E-08  0.93827000000E+00  0.93827000000E+00 0.  1.
     999902    2    1    2    0    0  0.18582679326E-01  0.15826896105E-01  0.37121253806E-02  0.10192401947E+01  0.10189411112E+01 0.  0.
     999903    2    3    3    0    0 -0.84652499264E-01  0.42180605381E-01 -0.84569592551E-01  0.12842838415E+00  0.19914436171E-01 0.  0.
         14    1    1    2    0    0 -0.18582679326E-01 -0.15826896105E-01 -0.37121253806E-02  0.24689805307E-01  0.00000000000E+00 0. -1.
     999901    1    3    3    0    0  0.10323517859E+00 -0.26353709276E-01  0.88281717931E-01  0.89081181055E+00  0.88000000000E+00 0. -1.
        -11    1    4    4    0    0 -0.33686849378E-01  0.25283094508E-01 -0.45624507719E-01  0.62095857466E-01  0.51100000000E-03 0. -1.
         11    1    4    4    0    0 -0.50965649886E-01  0.16897510873E-01 -0.38945084832E-01  0.66332526679E-01  0.51100000000E-03 0.  1.
</event>
<event>
 7    1  0.1123470E+005  0.1043930E+01  0.7957747E-01            NaN
         13   -1    0    0    0    0  0.00000000000E+00  0.00000000000E+00  0.74505805969E-08  0.10566000000E+00  0.10566000000E+00 0.  1.
     999900   -1    0    0    0    0 -0.00000000000E+00 -0.00000000000E+00 -0.74505805969E-08  0.93827000000E+00  0.93827000000E+00 0. -1.
     999903    2    1    2    0    0 -0.31108122629E-02  0.93558312539E-01  0.49754778955E-01  0.10799347574E+00  0.20596547638E-01 0.  0.
         14    1    1    2    0    0 -0.97485052113E-02  0.12172517408E-02  0.44665017869E-01  0.45732689369E-01  0.00000000000E+00 0.  1.
     999901    1    1    2    0    0  0.12859317474E-01 -0.94775564279E-01 -0.94419796824E-01  0.89020383490E+00  0.88000000000E+00 0. -1.
        -11    1    3    3    0    0 -0.45989942107E-02  0.13312025414E-01  0.14842033900E-01  0.20467238692E-01  0.51100000000E-03 0.  1.
         11    1    3    3    0    0  0.14881819478E-02  0.80246287125E-01  0.34912745055E-01  0.87526237044E-01  0.51100000000E-03 0. -1.
</event>
<event>
 8    1  0.1123470E+005  0.1043930E+01  0.7957747E-01            NaN
         13   -1    0    0    0    0  0.00000000000E+00  0.00000000000E+00  0.74505805969E-08  0.10566000000E+00  0.10566000000E+00 0.  1.
     999900   -1    0    0    0    0 -0.00000000000E+00 -0.00000000000E+00 -0.74505805969E-08  0.93827000000E+00  0.93827000000E+00 0.  1.
     999902    2    1    2    0    0 -0.13442627027E-01  0.10961178661E-01  0.16094580122E-01  0.10202680650E+01  0.10199936457E+01 0.  0.
     999903    2    3    3    0    0 -0.20953137354E-01  0.74867736446E-01  0.10631893771E+00  0.13331773347E+00  0.20632246984E-01 0.  0.
         14    1    1    2    0    0  0.13442627027E-01 -0.10961178661E-01 -0.16094580122E-01  0.23661935009E-01  0.00000000000E+00 0.  1.
     999901    1    3    3    0    0  0.75105103269E-02 -0.63906557786E-01 -0.90224357584E-01  0.88695033153E+00  0.88000000000E+00 0.  1.
        -11    1    4    4    0    0 -0.11688069195E-02  0.10752014552E-01  0.28928198117E-01  0.30888083363E-01  0.51100000000E-03 0.  1.
         11    1    4    4    0    0 -0.19784330435E-01  0.64115721895E-01  0.77390739589E-01  0.10242965010E+00  0.51100000000E-03 0. -1.
</event>
<event>
 8    1  0.1123470E+005  0.1043930E+01  0.7957747E-01            NaN
         13   -1    0    0    0    0  0.00000000000E+00  0.00000000000E+00  0.74505805969E-08  0.10566000000E+00  0.10566000000E+00 0.  1.
     999900   -1    0    0    0    0 -0.00000000000E+00 -0.00000000000E+00 -0.74505805969E-08  0.93827000000E+00  0.93827000000E+00 0.  1.
     999902    2    1    2    0    0 -0.44036974471E-04 -0.19610157079E-01 -0.91529566180E-02  0.10222889091E+01  0.10220598206E+01 0.  0.
     999903    2    3    3    0    0 -0.69139627080E-01  0.90343742233E-01 -0.62768451738E-01  0.13114431823E+00  0.17795332999E-01 0.  0.
         14    1    1    2    0    0  0.44036974471E-04  0.19610157079E-01  0.91529566180E-02  0.21641090887E-01  0.00000000000E+00 0.  1.
     999901    1    3    3    0    0  0.69095590106E-01 -0.10995389931E+00  0.53615495120E-01  0.89114459088E+00  0.88000000000E+00 0. -1.
        -11    1    4    4    0    0 -0.18694646998E-01  0.18696591196E-01 -0.72840802007E-02  0.27429387417E-01  0.51100000000E-03 0. -1.
         11    1    4    4    0    0 -0.50444980082E-01  0.71647151037E-01 -0.55484371537E-01  0.10371493081E+00  0.51100000000E-03 0.  1.
</event>
<event>
 8    1  0.1123470E+005  0.1043930E+01  0.7957747E-01            NaN
         13   -1    0    0    0    0  0.00000000000E+00  0.00000000000E+00  0.74505805969E-08  0.10566000000E+00  0.10566000000E+00 0.  1.
     999900   -1    0    0    0    0 -0.00000000000E+00 -0.00000000000E+00 -0.74505805969E-08  0.93827000000E+00  0.93827000000E+00 0. -1.
     999902    2    1    2    0    0 -0.10516200333E-01  0.18064473845E-01  0.82163886347E-02  0.10214705983E+01  0.10212236574E+01 0.  0.
     999903    2    3    3    0    0 -0.35773116510E-01 -0.12193405700E+00 -0.14978505717E-01  0.12974446116E+00  0.21485796394E-01 0.  0.
         14    1    1    2    0    0  0.10516200333E-01 -0.18064473845E-01 -0.82163886347E-02  0.22459401749E-01  0.00000000000E+00 0. -1.
     999901    1    3    3    0    0  0.25256916177E-01  0.13999853084E+00  0.23194894352E-01  0.89172613709E+00  0.88000000000E+00 0. -1.
        -11    1    4    4    0    0 -0.17331566798E-01 -0.92545575413E-01 -0.12004360736E-01  0.94918030605E-01  0.51100000000E-03 0. -1.
         11    1    4    4    0    0 -0.18441549713E-01 -0.29388481584E-01 -0.29741449807E-02  0.34826430552E-01  0.51100000000E-03 0.  1.
</event>
<event>
 7    1  0.1123470E+005  0.1043930E+01  0.7957747E-01            NaN
         13   -1    0    0    0    0  0.00000000000E+00  0.00000000000E+00  0.74505805969E-08  0.10566000000E+00  0.10566000000E+00 0.  1.
     999900   -1    0    0    0    0 -0.00000000000E+00 -0.00000000000E+00 -0.74505805969E-08  0.93827000000E+00  0.93827000000E+00 0.  1.
     999903    2    1    2    0    0 -0.80898123521E-01  0.26000053238E-01 -0.32872041163E-01  0.93135369986E-01  0.19316233967E-01 0.  0.
         14    1    1    2    0    0  0.24115750413E-02 -0.65135107125E-01 -0.68822370568E-02  0.65542070926E-01  0.00000000000E+00 0.  1.
     999901    1    1    2    0    0  0.78486548479E-01  0.39135053887E-01  0.39754278219E-01  0.88525255909E+00  0.88000000000E+00 0. -1.
        -11    1    3    3    0    0 -0.15164898855E-01  0.12891387439E-01 -0.10231869386E-01  0.22385582403E-01  0.51100000000E-03 0.  1.
         11    1    3    3    0    0 -0.65733224666E-01  0.13108665799E-01 -0.22640171776E-01  0.70749787583E-01  0.51100000000E-03 0. -1.
</event>
<event>
 8    1  0.1123470E+005  0.1043930E+01  0.7957747E-01            NaN
         13   -1    0    0    0    0  0.00000000000E+00  0.00000000000E+00  0.74505805969E-08  0.10566000000E+00  0.10566000000E+00 0. -1.
     999900   -1    0    0    0    0 -0.00000000000E+00 -0.00000000000E+00 -0.74505805969E-08  0.93827000000E+00  0.93827000000E+00 0. -1.
     999902    2    1    2    0    0 -0.94686120296E-02  0.18681002278E-01  0.11883864808E-01  0.10198497030E+01  0.10195653761E+01 0.  0.
     999903    2    3    3    0    0 -0.12369221486E+00 -0.74432816799E-02  0.38245440231E-01  0.13169181035E+00  0.22909665098E-01 0.  0.
         14    1    1    2    0    0  0.94686120296E-02 -0.18681002278E-01 -0.11883864808E-01  0.24080296981E-01  0.00000000000E+00 0. -1.
     999901    1    3    3    0    0  0.11422360283E+00  0.26124283958E-01 -0.26361575422E-01  0.88815789267E+00  0.88000000000E+00 0. -1.
        -11    1    4    4    0    0 -0.69472078405E-01 -0.13749711672E-01  0.27972370786E-01  0.76145511341E-01  0.51100000000E-03 0.  1.
         11    1    4    4    0    0 -0.54220136456E-01  0.63064299925E-02  0.10273069444E-01  0.55546299007E-01  0.51100000000E-03 0. -1.
</event>
<event>
 8    1  0.1123470E+005  0.1043930E+01  0.7957747E-01            NaN
         13   -1    0    0    0    0  0.00000000000E+00  0.00000000000E+00  0.74505805969E-08  0.10566000000E+00  0.10566000000E+00 0.  1.
     999900   -1    0    0    0    0 -0.00000000000E+00 -0.00000000000E+00 -0.74505805969E-08  0.93827000000E+00  0.93827000000E+00 0.  1.
     999902    2    1    2    0    0  0.16084174135E-02  0.21740448208E-01 -0.40995725364E-02  0.10217480120E+01  0.10215071999E+01 0.  0.
     999903    2    3    3    0    0  0.75396467959E-01 -0.83931572088E-01  0.62017240145E-01  0.12990571365E+00  0.17326863253E-01 0.  0.
         14    1    1    2    0    0 -0.16084174135E-02 -0.21740448208E-01  0.40995725364E-02  0.22181987959E-01  0.00000000000E+00 0.  1.
     999901    1    3    3    0    0 -0.73788050546E-01  0.10567202030E+00 -0.66116812681E-01  0.89184229839E+00  0.88000000000E+00 0.  1.
        -11    1    4    4    0    0  0.22766060159E-01 -0.37840304612E-01  0.22794485833E-01  0.49699415024E-01  0.51100000000E-03 0. -1.
         11    1    4    4    0    0  0.52630407801E-01 -0.46091267476E-01  0.39222754312E-01  0.80206298628E-01  0.51100000000E-03 0.  1.
</event>
<event>
 8    1  0.1123470E+005  0.1043930E+01  0.7957747E-01            NaN
         13   -1    0    0    0    0  0.00000000000E+00  0.00000000000E+00  0.74505805969E-08  0.10566000000E+00  0.10566000000E+00 0. -1.
     999900   -1    0    0    0    0 -0.00000000000E+00 -0.00000000000E+00 -0.74505805969E-08  0.93827000000E+00  0.93827000000E+00 0. -1.
     999902    2    1    2    0    0 -0.74381555846E-02 -0.18173756167E-01 -0.20998914308E-01  0.10151799396E+01  0.10147727547E+01 0.  0.
     999903    2    3    3    0    0 -0.52575364613E-01 -0.10833479270E+00 -0.42130961076E-01  0.12917037782E+00  0.20232952111E-01 0.  0.
         14    1    1    2    0    0  0.74381555846E-02  0.18173756167E-01  0.20998914308E-01  0.28750060414E-01  0.00000000000E+00 0. -1.
     999901    1    3    3    0    0  0.45137209028E-01  0.90161036530E-01  0.21132046767E-01  0.88600956177E+00  0.88000000000E+00 0. -1.
        -11    1    4    4    0    0 -0.99045779979E-02 -0.40286973020E-01 -0.10128868961E-01  0.42708265802E-01  0.51100000000E-03 0.  1.
         11    1    4    4    0    0 -0.42670786615E-01 -0.68047819677E-01 -0.32002092115E-01  0.86462112014E-01  0.51100000000E-03 0. -1.
</event>
<event>
 8    1  0.1123470E+005  0.1043930E+01  0.7957747E-01            NaN
         13   -1    0    0    0    0  0.00000000000E+00  0.00000000000E+00  0.74505805969E-08  0.10566000000E+00  0.10566000000E+00 0. -1.
     999900   -1    0    0    0    0 -0.00000000000E+00 -0.00000000000E+00 -0.74505805969E-08  0.93827000000E+00  0.93827000000E+00 0. -1.
     999902    2    1    2    0    0 -0.16320255282E-01  0.13167040746E-01  0.10711726587E-01  0.10203829666E+01  0.10201112370E+01 0.  0.
     999903    2    3    3    0    0 -0.13009077774E+00  0.19486297177E-01  0.39756118913E-02  0.13301098147E+00  0.19307756799E-01 0.  0.
         14    1    1    2    0    0  0.16320255282E-01 -0.13167040746E-01 -0.10711726587E-01  0.23547033379E-01  0.00000000000E+00 0.  1.
     999901    1    3    3    0    0  0.11377052246E+00 -0.63192564314E-02  0.67361146960E-02  0.88737198515E+00  0.88000000000E+00 0.  1.
        -11    1    4    4    0    0 -0.10336357228E+00  0.11752196418E-01 -0.38538340442E-02  0.10410213904E+00  0.51100000000E-03 0.  1.
         11    1    4    4    0    0 -0.26727205461E-01  0.77341007596E-02  0.78294459355E-02  0.28908842436E-01  0.51100000000E-03 0. -1.
</event>
<event>
 8    1  0.1123470E+005  0.1043930E+01  0.7957747E-01            NaN
         13   -1    0    0    0    0  0.00000000000E+00  0.00000000000E+00  0.74505805969E-08  0.10566000000E+00  0.10566000000E+00 0. -1.
     999900   -1    0    0    0    0 -0.00000000000E+00 -0.00000000000E+00 -0.74505805969E-08  0.93827000000E+00  0.93827000000E+00 0. -1.
     999902    2    1    2    0    0  0.17782008021E-01 -0.77210067008E-02  0.10977288627E-01  0.10216518803E+01  0.10214089533E+01 0.  0.
     999903    2    3    3    0    0  0.68755169733E-01  0.10581565391E+00  0.35466762768E-01  0.13255763842E+00  0.19733480822E-01 0.  0.
         14    1    1    2    0    0 -0.17782008021E-01  0.77210067008E-02 -0.10977288627E-01  0.22278119744E-01  0.00000000000E+00 0.  1.
     999901    1    3    3    0    0 -0.50973161712E-01 -0.11353666061E+00 -0.24489474141E-01  0.88909424183E+00  0.88000000000E+00 0. -1.
        -11    1    4    4    0    0  0.62269921292E-01  0.82328407066E-01  0.30991209805E-01  0.10777859673E+00  0.51100000000E-03 0.  1.
         11    1    4    4    0    0  0.64852484410E-02  0.23487246845E-01  0.44755529628E-02  0.24779041689E-01  0.51100000000E-03 0. -1.
</event>
<event>
 8    1  0.1123470E+005  0.1043930E+01  0.7957747E-01            NaN
         13   -1    0    0    0    0  0.00000000000E+00  0.00000000000E+00  0.74505805969E-08  0.10566000000E+00  0.10566000000E+00 0. -1.
     999900   -1    0    0    0    0 -0.00000000000E+00 -0.00000000000E+00 -0.74505805969E-08  0.93827000000E+00  0.93827000000E+00 0. -1.
     999902    2    1    2    0    0 -0.57614039287E-02 -0.25089597574E-02 -0.17890806142E-01  0.10249676795E+01  0.10247922592E+01 0.  0.
     999903    2    3    3    0    0 -0.73892014717E-01 -0.10226747902E+00 -0.47003284652E-01  0.13623764248E+00  0.20801907568E-01 0.  0.
         14    1    1    2    0    0  0.57614039287E-02  0.25089597574E-02  0.17890806142E-01  0.18962320499E-01  0.00000000000E+00 0. -1.
     999901    1    3    3    0    0  0.68130610788E-01  0.99758519258E-01  0.29112478510E-01  0.88873003702E+00  0.88000000000E+00 0.  1.
        -11    1    4    4    0    0 -0.17882154240E-01 -0.36941227152E-01 -0.22293593831E-01  0.46708576843E-01  0.51100000000E-03 0.  1.
         11    1    4    4    0    0 -0.56009860476E-01 -0.65326251863E-01 -0.24709690820E-01  0.89529065641E-01  0.51100000000E-03 0. -1.
</event>
<event>
 8    1  0.1123470E+005  0.1043930E+01  0.7957747E-01            NaN
         13   -1    0    0    0    0  0.00000000000E+00  0.00000000000E+00  0.74505805969E-08  0.10566000000E+00  0.10566000000E+00 0.  1.
     999900   -1    0    0    0    0 -0.00000000000E+00 -0.00000000000E+00 -0.74505805969E-08  0.93827000000E+00  0.93827000000E+00 0. -1.
     999902    2    1    2    0    0  0.21557122461E-01  0.83963861854E-02 -0.26999902172E-02  0.10206383969E+01  0.10203725978E+01 0.  0.
     999903    2    3    3    0    0 -0.23529227044E-01  0.12389590021E+00 -0.31382423766E-01  0.13148396784E+00  0.19983960109E-01 0.  0.
         14    1    1    2    0    0 -0.21557122461E-01 -0.83963861854E-02  0.26999902172E-02  0.23291603142E-01  0.00000000000E+00 0.  1.
     999901    1    3    3    0    0  0.45086349505E-01 -0.11549951403E+00  0.28682433549E-01  0.88915442902E+00  0.88000000000E+00 0.  1.
        -11    1    4    4    0    0 -0.13390069941E-01  0.48740839840E-01 -0.21776637419E-01  0.55040407880E-01  0.51100000000E-03 0.  1.
         11    1    4    4    0    0 -0.10139157104E-01  0.75155060374E-01 -0.96057863474E-02  0.76443559957E-01  0.51100000000E-03 0. -1.
</event>
<event>
 8    1  0.1123470E+005  0.1043930E+01  0.7957747E-01            NaN
         13   -1    0    0    0    0  0.00000000000E+00  0.00000000000E+00  0.74505805969E-08  0.10566000000E+00  0.10566000000E+00 0.  1.
     999900   -1    0    0    0    0 -0.00000000000E+00 -0.00000000000E+00 -0.74505805969E-08  0.93827000000E+00  0.93827000000E+00 0.  1.
     999902    2    1    2    0    0  0.17019851673E-01 -0.15477622766E-01  0.51004787503E-02  0.10203663195E+01  0.10200942010E+01 0.  0.
     999903    2    3    3    0    0 -0.86072977828E-01  0.55125336622E-01  0.75668675296E-01  0.12874264338E+00  0.20038950915E-01 0.  0.
         14    1    1    2    0    0 -0.17019851673E-01  0.15477622766E-01 -0.51004787503E-02  0.23563680547E-01  0.00000000000E+00 0. -1.
     999901    1    3    3    0    0  0.10309282950E+00 -0.70602959387E-01 -0.70568196546E-01  0.89162367607E+00  0.88000000000E+00 0. -1.
        -11    1    4    4    0    0 -0.67656002149E-01  0.34415285303E-01  0.49493541015E-01  0.90617979521E-01  0.51100000000E-03 0. -1.
         11    1    4    4    0    0 -0.18416975679E-01  0.20710051318E-01  0.26175134282E-01  0.38124663860E-01  0.51100000000E-03 0.  1.
</event>
<event>
 8    1  0.1123470E+005  0.1043930E+01  0.7957747E-01            NaN
         13   -1    0    0    0    0  0.00000000000E+00  0.00000000000E+00  0.74505805969E-08  0.10566000000E+00  0.10566000000E+00 0. -1.
     999900   -1    0    0    0    0 -0.00000000000E+00 -0.00000000000E+00 -0.74505805969E-08  0.93827000000E+00  0.93827000000E+00 0.  1.
     999902    2    1    2    0    0  0.85778580978E-02 -0.10110623933E-01 -0.21274116965E-01  0.10188622434E+01  0.10185538173E+01 0.  0.
     999903    2    3    3    0    0 -0.64819786567E-02  0.12332586144E+00  0.24115946049E-01  0.12751923869E+00  0.20695246669E-01 0.  0.
         14    1    1    2    0    0 -0.85778580978E-02  0.10110623933E-01  0.21274116965E-01  0.25067756551E-01  0.00000000000E+00 0. -1.
     999901    1    3    3    0    0  0.15059836755E-01 -0.13343648537E+00 -0.45390063014E-01  0.89134300476E+00  0.88000000000E+00 0.  1.
        -11    1    4    4    0    0 -0.11981644080E-01  0.45281089476E-01  0.11912404925E-01  0.48333253264E-01  0.51100000000E-03 0. -1.
         11    1    4    4    0    0  0.54996654237E-02  0.78044771966E-01  0.12203541124E-01  0.79185985426E-01  0.51100000000E-03 0.  1.
</event>
<event>
 8    1  0.1123470E+005  0.1043930E+01  0.7957747E-01            NaN
         13   -1    0    0    0    0  0.00000000000E+00  0.00000000000E+00  0.74505805969E-08  0.10566000000E+00  0.10566000000E+00 0.  1.
     999900   -1    0    0    0    0 -0.00000000000E+00 -0.00000000000E+00 -0.74505805969E-08  0.93827000000E+00  0.93827000000E+00 0. -1.
     999902    2    1    2    0    0  0.77158387039E-03  0.57469720436E-02  0.22088373088E-01  0.10210932039E+01  0.10208377990E+01 0.  0.
     999903    2    3    3    0    0  0.11882224492E+00  0.51789045755E-01  0.14771871799E-01  0.13198726968E+00  0.20039960393E-01 0.  0.
         14    1    1    2    0    0 -0.77158387039E-03 -0.57469720436E-02 -0.22088373088E-01  0.22836796076E-01  0.00000000000E+00 0. -1.
     999901    1    3    3    0    0 -0.11805066105E+00 -0.46042073712E-01  0.73165012891E-02  0.88910593425E+00  0.88000000000E+00 0. -1.
        -11    1    4    4    0    0  0.96296862457E-01  0.50040421233E-01  0.13382030228E-01  0.10934564157E+00  0.51100000000E-03 0. -1.
         11    1    4    4    0    0  0.22525382461E-01  0.17486245226E-02  0.13898415708E-02  0.22641628106E-01  0.51100000000E-03 0.  1.
</event>
<event>
 8    1  0.1123470E+005  0.1043930E+01  0.7957747E-01            NaN
         13   -1    0    0    0    0  0.00000000000E+00  0.00000000000E+00  0.74505805969E-08  0.10566000000E+00  0.10566000000E+00 0.  1.
     999900   -1    0    0    0    0 -0.00000000000E+00 -0.00000000000E+00 -0.74505805969E-08  0.93827000000E+00  0.93827000000E+00 0.  1.
     999902    2    1    2    0    0 -0.42519694154E-05 -0.20928447219E-01  0.11064237753E-01  0.10202568659E+01  0.10199821837E+01 0.  0.
     999903    2    3    3    0    0  0.77321893187E-01 -0.75638522735E-01 -0.71689110196E-01  0.13131331219E+00  0.20099655461E-01 0.  0.
         14    1    1    2    0    0  0.42519694154E-05  0.20928447219E-01 -0.11064237753E-01  0.23673134100E-01  0.00000000000E+00 0. -1.
     999901    1    3    3    0    0 -0.77326145157E-01  0.54710075516E-01  0.82753347949E-01  0.88894355371E+00  0.88000000000E+00 0. -1.
        -11    1    4    4    0    0  0.40470792020E-01 -0.25917272190E-01 -0.33594681186E-01  0.58638329866E-01  0.51100000000E-03 0.  1.
         11    1    4    4    0    0  0.36851101168E-01 -0.49721250545E-01 -0.38094429010E-01  0.72674982323E-01  0.51100000000E-03 0. -1.
</event>
<event>
 8    1  0.1123470E+005  0.1043930E+01  0.7957747E-01            NaN
         13   -1    0    0    0    0  0.00000000000E+00  0.00000000000E+00  0.74505805969E-08  0.10566000000E+00  0.10566000000E+00 0. -1.
     999900   -1    0    0    0    0 -0.00000000000E+00 -0.00000000000E+00 -0.74505805969E-08  0.93827000000E+00  0.93827000000E+00 0.  1.
     999902    2    1    2    0    0 -0.21924824801E-01 -0.38288477856E-02 -0.82686889591E-02  0.10201870171E+01  0.10199106925E+01 0.  0.
     999903    2    3    3    0    0  0.12385662137E+00 -0.13950160112E-01 -0.21049046127E-01  0.12804464704E+00  0.20427913943E-01 0.  0.
         14    1    1    2    0    0  0.21924824801E-01  0.38288477856E-02  0.82686889591E-02  0.23742982858E-01  0.00000000000E+00 0. -1.
     999901    1    3    3    0    0 -0.14578144617E+00  0.10121312326E-01  0.12780357168E-01  0.89214237011E+00  0.88000000000E+00 0.  1.
        -11    1    4    4    0    0  0.26159859759E-01 -0.56336352502E-02 -0.12739541383E-01  0.29641746649E-01  0.51100000000E-03 0.  1.
         11    1    4    4    0    0  0.97696761607E-01 -0.83165248619E-02 -0.83095047433E-02  0.98402900386E-01  0.51100000000E-03 0. -1.
</event>
<event>
 8    1  0.1123470E+005  0.1043930E+01  0.7957747E-01            NaN
         13   -1    0    0    0    0  0.00000000000E+00  0.00000000000E+00  0.74505805969E-08  0.10566000000E+00  0.10566000000E+00 0. -1.
     999900   -1    0    0    0    0 -0.00000000000E+00 -0.00000000000E+00 -0.74505805969E-08  0.93827000000E+00  0.93827000000E+00 0.  1.
     999902    2    1    2    0    0 -0.16206152679E-01  0.16110108241E-01  0.79241079430E-02  0.10197439201E+01  0.10194570595E+01 0.  0.
     999903    2    3    3    0    0  0.67714542177E-01  0.19936832222E-01  0.10655217302E+00  0.13025821365E+00  0.25121706649E-01 0.  0.
         14    1    1    2    0    0  0.16206152679E-01 -0.16110108241E-01 -0.79241079430E-02  0.24186079857E-01  0.00000000000E+00 0. -1.
     999901    1    3    3    0    0 -0.83920694856E-01 -0.38267239810E-02 -0.98628065080E-01  0.88948570650E+00  0.88000000000E+00 0.  1.
        -11    1    4    4    0    0  0.40074419630E-01  0.21912228601E-01  0.78513203690E-01  0.90833304166E-01  0.51100000000E-03 0. -1.
         11    1    4    4    0    0  0.27640122547E-01 -0.19753963790E-02  0.28038969332E-01  0.39424909480E-01  0.51100000000E-03 0.  1.
</event>
<event>
 8    1  0.1123470E+005  0.1043930E+01  0.7957747E-01            NaN
         13   -1    0    0    0    0  0.00000000000E+00  0.00000000000E+00  0.74505805969E-08  0.10566000000E+00  0.10566000000E+00 0.  1.
     999900   -1    0    0    0    0 -0.00000000000E+00 -0.00000000000E+00 -0.74505805969E-08  0.93827000000E+00  0.93827000000E+00 0. -1.
     999902    2    1    2    0    0  0.96798275213E-02 -0.21283082811E-01  0.67344406614E-02  0.10195985108E+01  0.10193081486E+01 0.  0.
     999903    2    3    3    0    0 -0.24511040449E-01 -0.12587748148E+00 -0.24875704564E-01  0.13218192039E+00  0.20182367357E-01 0.  0.
         14    1    1    2    0    0 -0.96798275213E-02  0.21283082811E-01 -0.67344406614E-02  0.24331489182E-01  0.00000000000E+00 0. -1.
     999901    1    3    3    0    0  0.34190867971E-01  0.10459439867E+00  0.31610145225E-01  0.88741659043E+00  0.88000000000E+00 0.  1.
        -11    1    4    4    0    0 -0.97267367235E-02 -0.50511899264E-01  0.25265416549E-04  0.51442425428E-01  0.51100000000E-03 0. -1.
         11    1    4    4    0    0 -0.14784303726E-01 -0.75365582218E-01 -0.24900969980E-01  0.80739494962E-01  0.51100000000E-03 0.  1.
</event>
<event>
 8    1  0.1123470E+005  0.1043930E+01  0.7957747E-01            NaN
         13   -1    0    0    0    0  0.00000000000E+00  0.00000000000E+00  0.74505805969E-08  0.10566000000E+00  0.10566000000E+00 0. -1.
     999900   -1    0    0    0    0 -0.00000000000E+00 -0.00000000000E+00 -0.74505805969E-08  0.93827000000E+00  0.93827000000E+00 0. -1.
     999902    2    1    2    0    0  0.94290074639E-03 -0.16058214355E-01  0.15673368971E-01  0.10214709305E+01  0.10212239970E+01 0.  0.
     999903    2    3    3    0    0  0.65621105651E-01  0.85326962092E-01  0.73103835740E-01  0.13143695205E+00  0.18565602544E-01 0.  0.
         14    1    1    2    0    0 -0.94290074639E-03  0.16058214355E-01 -0.15673368971E-01  0.22459069549E-01  0.00000000000E+00 0.  1.
     999901    1    3    3    0    0 -0.64678204904E-01 -0.10138517645E+00 -0.57430466769E-01  0.89003397840E+00  0.88000000000E+00 0. -1.
        -11    1    4    4    0    0  0.23547094461E-01  0.19581988989E-01  0.26665566520E-01  0.40610756077E-01  0.51100000000E-03 0.  1.
         11    1    4    4    0    0  0.42074011190E-01  0.65744973103E-01  0.46438269221E-01  0.90826195974E-01  0.51100000000E-03 0. -1.
</event>
<event>
 8    1  0.1123470E+005  0.1043930E+01  0.7957747E-01            NaN
         13   -1    0    0    0    0  0.00000000000E+00  0.00000000000E+00  0.74505805969E-08  0.10566000000E+00  0.10566000000E+00 0.  1.
     999900   -1    0    0    0    0 -0.00000000000E+00 -0.00000000000E+00 -0.74505805969E-08  0.93827000000E+00  0.93827000000E+00 0. -1.
     999902    2    1    2    0    0  0.14475156377E-01  0.15352413696E-01 -0.12262908973E-01  0.10195249658E+01  0.10192328243E+01 0.  0.
     999903    2    3    3    0    0 -0.56168983032E-01  0.10062199670E+00 -0.60211731483E-01  0.13129043268E+00  0.18220434420E-01 0.  0.
         14    1    1    2    0    0 -0.14475156377E-01 -0.15352413696E-01  0.12262908973E-01  0.24405034212E-01  0.00000000000E+00 0. -1.
     999901    1    3    3    0    0  0.70644139409E-01 -0.85269583009E-01  0.47948822510E-01  0.88823453310E+00  0.88000000000E+00 0. -1.
        -11    1    4    4    0    0 -0.90443341631E-02  0.22672928280E-01 -0.54777332460E-02  0.25022556620E-01  0.51100000000E-03 0. -1.
         11    1    4    4    0    0 -0.47124648869E-01  0.77949068424E-01 -0.54733998237E-01  0.10626787606E+00  0.51100000000E-03 0.  1.
</event>
<event>
 8    1  0.1123470E+005  0.1043930E+01  0.7957747E-01            NaN
         13   -1    0    0    0    0  0.00000000000E+00  0.00000000000E+00  0.74505805969E-08  0.10566000000E+00  0.10566000000E+00 0. -1.
     999900   -1    0    0    0    0 -0.00000000000E+00 -0.00000000000E+00 -0.74505805969E-08  0.93827000000E+00  0.93827000000E+00 0.  1.
     999902    2    1    2    0    0 -0.13590665541E-01 -0.19124915357E-01  0.30887049643E-02  0.10202654976E+01  0.10199910180E+01 0.  0.
     999903    2    3    3    0    0 -0.84787853327E-01  0.34291321392E-01 -0.91043727644E-01  0.13078067545E+00  0.21207308497E-01 0.  0.
         14    1    1    2    0    0  0.13590665541E-01  0.19124915357E-01 -0.30887049643E-02  0.23664502438E-01  0.00000000000E+00 0.  1.
     999901    1    3    3    0    0  0.71197187785E-01 -0.53416236749E-01  0.94132432608E-01  0.88948482211E+00  0.88000000000E+00 0. -1.
        -11    1    4    4    0    0 -0.14977493409E-01  0.66061848942E-02 -0.62998099481E-02  0.17547527291E-01  0.51100000000E-03 0.  1.
         11    1    4    4    0    0 -0.69810359918E-01  0.27685136497E-01 -0.84743917696E-01  0.11323314816E+00  0.51100000000E-03 0. -1.
</event>
<event>
 8    1  0.1123470E+005  0.1043930E+01  0.7957747E-01            NaN
         13   -1    0    0    0    0  0.00000000000E+00  0.00000000000E+00  0.74505805969E-08  0.10566000000E+00  0.10566000000E+00 0.  1.
     999900   -1    0    0    0    0 -0.00000000000E+00 -0.00000000000E+00 -0.74505805969E-08  0.93827000000E+00  0.93827000000E+00 0. -1.
     999902    2    1    2    0    0 -0.12521760676E-01 -0.15604722431E-01 -0.13452882179E-01  0.10198202117E+01  0.10195351795E+01 0.  0.
     999903    2    3    3    0    0 -0.10314175866E+00 -0.75639854777E-01 -0.30348955958E-01  0.13297091309E+00  0.20014859223E-01 0.  0.
         14    1    1    2    0    0  0.12521760676E-01  0.15604722431E-01  0.13452882179E-01  0.24109788292E-01  0.00000000000E+00 0.  1.
     999901    1    3    3    0    0  0.90619997986E-01  0.60035132346E-01  0.16896073779E-01  0.88684929862E+00  0.88000000000E+00 0.  1.
        -11    1    4    4    0    0 -0.12981638476E-01 -0.11960643174E-01 -0.11279557240E-01  0.20953984232E-01  0.51100000000E-03 0. -1.
         11    1    4    4    0    0 -0.90160120186E-01 -0.63679211603E-01 -0.19069398718E-01  0.11201692886E+00  0.51100000000E-03 0.  1.
</event>
<event>
 8    1  0.1123470E+005  0.1043930E+01  0.7957747E-01            NaN
         13   -1    0    0    0    0  0.00000000000E+00  0.00000000000E+00  0.74505805969E-08  0.10566000000E+00  0.10566000000E+00 0.  1.
     999900   -1    0    0    0    0 -0.00000000000E+00 -0.00000000000E+00 -0.74505805969E-08  0.93827000000E+00  0.93827000000E+00 0.  1.
     999902    2    1    2    0    0  0.10285535052E-02 -0.51126601430E-02 -0.23160290360E-01  0.10201898175E+01  0.10199135588E+01 0.  0.
     999903    2    3    3    0    0 -0.97531959561E-01 -0.49928369571E-01 -0.71205757295E-01  0.13225345184E+00  0.20381129222E-01 0.  0.
         14    1    1    2    0    0 -0.10285535052E-02  0.51126601430E-02  0.23160290360E-01  0.23740182510E-01  0.00000000000E+00 0.  1.
     999901    1    3    3    0    0  0.98560513066E-01  0.44815709428E-01  0.48045466935E-01  0.88793636565E+00  0.88000000000E+00 0.  1.
        -11    1    4    4    0    0 -0.93998186529E-02 -0.81294835658E-03 -0.13714542683E-02  0.95477475641E-02  0.51100000000E-03 0. -1.
         11    1    4    4    0    0 -0.88132140908E-01 -0.49115421215E-01 -0.69834303026E-01  0.12270570428E+00  0.51100000000E-03 0.  1.
</event>
<event>
 8    1  0.1123470E+005  0.1043930E+01  0.7957747E-01            NaN
         13   -1    0    0    0    0  0.00000000000E+00  0.00000000000E+00  0.74505805969E-08  0.10566000000E+00  0.10566000000E+00 0.  1.
     999900   -1    0    0    0    0 -0.00000000000E+00 -0.00000000000E+00 -0.74505805969E-08  0.93827000000E+00  0.93827000000E+00 0.  1.
     999902    2    1    2    0    0  0.19774837647E-01  0.20563552882E-01  0.31082215145E-02  0.10152321786E+01  0.10148264933E+01 0.  0.
     999903    2    3    3    0    0  0.11298713952E+00  0.56816243893E-01 -0.16734874096E-01  0.12934474826E+00  0.21350143391E-01 0.  0.
         14    1    1    2    0    0 -0.19774837647E-01 -0.20563552882E-01 -0.31082215145E-02  0.28697821382E-01  0.00000000000E+00 0.  1.
     999901    1    3    3    0    0 -0.93212301877E-01 -0.36252691011E-01  0.19843095610E-01  0.88588743036E+00  0.88000000000E+00 0. -1.
        -11    1    4    4    0    0  0.39169968982E-01  0.30917362753E-01 -0.92831430714E-02  0.50760296058E-01  0.51100000000E-03 0. -1.
         11    1    4    4    0    0  0.73817170543E-01  0.25898881140E-01 -0.74517310243E-02  0.78584452200E-01  0.51100000000E-03 0.  1.
</event>
<event>
 7    1  0.1123470E+005  0.1043930E+01  0.7957747E-01            NaN
         13   -1    0    0    0    0  0.00000000000E+00  0.00000000000E+00  0.74505805969E-08  0.10566000000E+00  0.10566000000E+00 0. -1.
     999900   -1    0    0    0    0 -0.00000000000E+00 -0.00000000000E+00 -0.74505805969E-08  0.93827000000E+00  0.93827000000E+00 0.  1.
     999903    2    1    2    0    0 -0.72483758695E-01  0.61325337068E-01 -0.66240898216E-01  0.11761556235E+00  0.20757448546E-01 0.  0.
         14    1    1    2    0    0  0.27064106106E-01 -0.32299945065E-01  0.65633625994E-02  0.42647743424E-01  0.00000000000E+00 0. -1.
     999901    1    1    2    0    0  0.45419652589E-01 -0.29025392003E-01  0.59677535616E-01  0.88366669422E+00  0.88000000000E+00 0. -1.
        -11    1    3    3    0    0 -0.37620973681E-01  0.42248350904E-01 -0.46540447641E-01  0.73256639306E-01  0.51100000000E-03 0. -1.
         11    1    3    3    0    0 -0.34862785014E-01  0.19076986164E-01 -0.19700450575E-01  0.44358923047E-01  0.51100000000E-03 0.  1.
</event>
<event>
 8    1  0.1123470E+005  0.1043930E+01  0.7957747E-01            NaN
         13   -1    0    0    0    0  0.00000000000E+00  0.00000000000E+00  0.74505805969E-08  0.10566000000E+00  0.10566000000E+00 0.  1.
     999900   -1    0    0    0    0 -0.00000000000E+00 -0.00000000000E+00 -0.74505805969E-08  0.93827000000E+00  0.93827000000E+00 0. -1.
     999902    2    1    2    0    0 -0.17926337164E-01  0.13101378294E-01  0.93829814693E-02  0.10198252283E+01  0.10195403162E+01 0.  0.
     999903    2    3    3    0    0  0.64066928041E-01  0.96216975592E-01 -0.55419568711E-01  0.12975193438E+00  0.20048895664E-01 0.  0.
         14    1    1    2    0    0  0.17926337164E-01 -0.13101378294E-01 -0.93829814693E-02  0.24104771697E-01  0.00000000000E+00 0. -1.
     999901    1    3    3    0    0 -0.81993265205E-01 -0.83115597298E-01  0.64802550181E-01  0.89007329393E+00  0.88000000000E+00 0.  1.
        -11    1    4    4    0    0  0.62128706557E-01  0.81661023293E-01 -0.49224189972E-01  0.11380589134E+00  0.51100000000E-03 0. -1.
         11    1    4    4    0    0  0.19382214842E-02  0.14555952299E-01 -0.61953787391E-02  0.15946043038E-01  0.51100000000E-03 0.  1.
</event>
<event>
 8    1  0.1123470E+005  0.1043930E+01  0.7957747E-01            NaN
         13   -1    0    0    0    0  0.00000000000E+00  0.00000000000E+00  0.74505805969E-08  0.10566000000E+00  0.10566000000E+00 0.  1.
     999900   -1    0    0    0    0 -0.00000000000E+00 -0.00000000000E+00 -0.74505805969E-08  0.93827000000E+00  0.93827000000E+00 0.  1.
     999902    2    1    2    0    0  0.93576349570E-02  0.63357687922E-02 -0.27721423466E-01  0.10139936573E+01  0.10135516525E+01 0.  0.
     999903    2    3    3    0    0  0.11935991846E+00  0.10524077770E-01 -0.32904774789E-01  0.12711998449E+00  0.26818275594E-01 0.  0.
         14    1    1    2    0    0 -0.93576349570E-02 -0.63357687922E-02  0.27721423466E-01  0.29936342749E-01  0.00000000000E+00 0.  1.
     999901    1    3    3    0    0 -0.11000228350E+00 -0.41883089780E-02  0.51833513234E-02  0.88687367276E+00  0.88000000000E+00 0.  1.
        -11    1    4    4    0    0  0.52596278007E-01  0.15258766128E-01 -0.23233426796E-01  0.59491609876E-01  0.51100000000E-03 0. -1.
         11    1    4    4    0    0  0.66763640449E-01 -0.47346883575E-02 -0.96713479936E-02  0.67628374613E-01  0.51100000000E-03 0.  1.
</event>
<event>
 8    1  0.1123470E+005  0.1043930E+01  0.7957747E-01            NaN
         13   -1    0    0    0    0  0.00000000000E+00  0.00000000000E+00  0.74505805969E-08  0.10566000000E+00  0.10566000000E+00 0.  1.
     999900   -1    0    0    0    0 -0.00000000000E+00 -0.00000000000E+00 -0.74505805969E-08  0.93827000000E+00  0.93827000000E+00 0. -1.
     999902    2    1    2    0    0 -0.13860743892E-01  0.12380364922E-01 -0.14744531886E-01  0.10202067018E+01  0.10199308406E+01 0.  0.
     999903    2    3    3    0    0  0.47559486978E-01 -0.11259979972E+00  0.31560382069E-01  0.12805389462E+00  0.21473763326E-01 0.  0.
         14    1    1    2    0    0  0.13860743892E-01 -0.12380364922E-01  0.14744531886E-01  0.23723298198E-01  0.00000000000E+00 0.  1.
     999901    1    3    3    0    0 -0.61420230870E-01  0.12498016464E+00 -0.46304913954E-01  0.89215280719E+00  0.88000000000E+00 0.  1.
        -11    1    4    4    0    0  0.88225690303E-02 -0.22650047961E-01  0.15432384980E-01  0.28797257233E-01  0.51100000000E-03 0.  1.
         11    1    4    4    0    0  0.38736917948E-01 -0.89949751759E-01  0.16127997088E-01  0.99256637383E-01  0.51100000000E-03 0. -1.
</event>
<event>
 8    1  0.1123470E+005  0.1043930E+01  0.7957747E-01            NaN
         13   -1    0    0    0    0  0.00000000000E+00  0.00000000000E+00  0.74505805969E-08  0.10566000000E+00  0.10566000000E+00 0. -1.
     999900   -1    0    0    0    0 -0.00000000000E+00 -0.00000000000E+00 -0.74505805969E-08  0.93827000000E+00  0.93827000000E+00 0.  1.
     999902    2    1    2    0    0  0.21229530851E-01  0.81397267319E-02 -0.19045665472E-01  0.10142705073E+01  0.10138367603E+01 0.  0.
     999903    2    3    3    0    0  0.10363192566E-01  0.56328220986E-01 -0.11268481454E+00  0.12792492095E+00  0.19663512723E-01 0.  0.
         14    1    1    2    0    0 -0.21229530851E-01 -0.81397267319E-02  0.19045665472E-01  0.29659492657E-01  0.00000000000E+00 0.  1.
     999901    1    3    3    0    0  0.10866338286E-01 -0.48188494254E-01  0.93639149064E-01  0.88634558640E+00  0.88000000000E+00 0. -1.
        -11    1    4    4    0    0 -0.32946476699E-02  0.25674910144E-01 -0.61385513582E-01  0.66622054253E-01  0.51100000000E-03 0.  1.
         11    1    4    4    0    0  0.13657840235E-01  0.30653310842E-01 -0.51299300954E-01  0.61302866693E-01  0.51100000000E-03 0. -1.
</event>
<event>
 8    1  0.1123470E+005  0.1043930E+01  0.7957747E-01            NaN
         13   -1    0    0    0    0  0.00000000000E+00  0.00000000000E+00  0.74505805969E-08  0.10566000000E+00  0.10566000000E+00 0. -1.
     999900   -1    0    0    0    0 -0.00000000000E+00 -0.00000000000E+00 -0.74505805969E-08  0.93827000000E+00  0.93827000000E+00 0. -1.
     999902    2    1    2    0    0  0.13262340751E-01  0.19622850694E-01  0.86439251237E-03  0.10202299341E+01  0.10199546192E+01 0.  0.
     999903    2    3    3    0    0  0.48674557777E-01 -0.10749030124E+00  0.48107797453E-01  0.12913862682E+00  0.20953456220E-01 0.  0.
         14    1    1    2    0    0 -0.13262340751E-01 -0.19622850694E-01 -0.86439251237E-03  0.23700065949E-01  0.00000000000E+00 0. -1.
     999901    1    3    3    0    0 -0.35412217026E-01  0.12711315193E+00 -0.47243404940E-01  0.89109130723E+00  0.88000000000E+00 0. -1.
        -11    1    4    4    0    0  0.13309906519E-01 -0.28339990517E-01  0.31236353073E-02  0.31469459680E-01  0.51100000000E-03 0.  1.
         11    1    4    4    0    0  0.35364651258E-01 -0.79150310718E-01  0.44984162145E-01  0.97669167142E-01  0.51100000000E-03 0. -1.
</event>
<event>
 8    1  0.1123470E+005  0.1043930E+01  0.7957747E-01            NaN
         13   -1    0    0    0    0  0.00000000000E+00  0.00000000000E+00  0.74505805969E-08  0.10566000000E+00  0.10566000000E+00 0.  1.
     999900   -1    0    0    0    0 -0.00000000000E+00 -0.00000000000E+00 -0.74505805969E-08  0.93827000000E+00  0.93827000000E+00 0.  1.
     999902    2    1    2    0    0  0.20751775722E-01 -0.63047451915E-02  0.79033187195E-02  0.10208464896E+01  0.10205854726E+01 0.  0.
     999903    2    3    3    0    0 -0.30785749184E-01 -0.52410932856E-01  0.11441472503E+00  0.13173087464E+00  0.23824898599E-01 0.  0.
         14    1    1    2    0    0 -0.20751775722E-01  0.63047451915E-02 -0.79033187195E-02  0.23083510442E-01  0.00000000000E+00 0.  1.
     999901    1    3    3    0    0  0.51537524906E-01  0.46106187665E-01 -0.10651140631E+00  0.88911561492E+00  0.88000000000E+00 0.  1.
        -11    1    4    4    0    0 -0.62710617203E-02 -0.20354776399E-01  0.20744835853E-01  0.29736382983E-01  0.51100000000E-03 0. -1.
         11    1    4    4    0    0 -0.24514687464E-01 -0.32056156457E-01  0.93669889182E-01  0.10199449166E+00  0.51100000000E-03 0.  1.
</event>
<event>
 8    1  0.1123470E+005  0.1043930E+01  0.7957747E-01            NaN
         13   -1    0    0    0    0  0.00000000000E+00  0.00000000000E+00  0.74505805969E-08  0.10566000000E+00  0.10566000000E+00 0.  1.
     999900   -1    0    0    0    0 -0.00000000000E+00 -0.00000000000E+00 -0.74505805969E-08  0.93827000000E+00  0.93827000000E+00 0.  1.
     999902    2    1    2    0    0  0.45354900608E-02 -0.37080640981E-02 -0.23022320836E-01  0.10201739973E+01  0.10198973659E+01 0.  0.
     999903    2    3    3    0    0  0.11273019465E+00  0.63169053927E-01 -0.55288099087E-02  0.13085703130E+00  0.19863754487E-01 0.  0.
         14    1    1    2    0    0 -0.45354900608E-02  0.37080640981E-02  0.23022320836E-01  0.23756002738E-01  0.00000000000E+00 0.  1.
     999901    1    3    3    0    0 -0.10819470459E+00 -0.66877118025E-01 -0.17493510927E-01  0.88931696596E+00  0.88000000000E+00 0.  1.
        -11    1    4    4    0    0  0.62910889371E-01  0.39879327512E-01  0.57734269018E-02  0.74711005505E-01  0.51100000000E-03 0.  1.
         11    1    4    4    0    0  0.49819305280E-01  0.23289726415E-01 -0.11302236811E-01  0.56146025799E-01  0.51100000000E-03 0. -1.
</event>
<event>
 8    1  0.1123470E+005  0.1043930E+01  0.7957747E-01            NaN
         13   -1    0    0    0    0  0.00000000000E+00  0.00000000000E+00  0.74505805969E-08  0.10566000000E+00  0.10566000000E+00 0.  1.
     999900   -1    0    0    0    0 -0.00000000000E+00 -0.00000000000E+00 -0.74505805969E-08  0.93827000000E+00  0.93827000000E+00 0.  1.
     999902    2    1    2    0    0 -0.11548268833E-01 -0.19210070084E-01 -0.97675597893E-02  0.10194801630E+01  0.10191869349E+01 0.  0.
     999903    2    3    3    0    0 -0.11707766655E-01 -0.20980754740E-01 -0.12784811123E+00  0.13159155658E+00  0.19847779423E-01 0.  0.
         14    1    1    2    0    0  0.11548268833E-01  0.19210070084E-01  0.97675597893E-02  0.24449837012E-01  0.00000000000E+00 0. -1.
     999901    1    3    3    0    0  0.15949782185E-03  0.17706846565E-02  0.11808055144E+00  0.88788860641E+00  0.88000000000E+00 0. -1.
        -11    1    4    4    0    0 -0.45081750589E-02 -0.19798852319E-01 -0.59884291071E-01  0.63235335325E-01  0.51100000000E-03 0.  1.
         11    1    4    4    0    0 -0.71995915960E-02 -0.11819024214E-02 -0.67963820159E-01  0.68356221254E-01  0.51100000000E-03 0. -1.
</event>
<event>
 8    1  0.1123470E+005  0.1043930E+01  0.7957747E-01            NaN
         13   -1    0    0    0    0  0.00000000000E+00  0.00000000000E+00  0.74505805969E-08  0.10566000000E+00  0.10566000000E+00 0.  1.
     999900   -1    0    0    0    0 -0.00000000000E+00 -0.00000000000E+00 -0.74505805969E-08  0.93827000000E+00  0.93827000000E+00 0. -1.
     999902    2    1    2    0    0  0.68619687456E-03  0.23019044711E-01 -0.54302289579E-02  0.10202691743E+01  0.10199947811E+01 0.  0.
     999903    2    3    3    0    0 -0.15210610819E-02  0.92184683587E-01 -0.94101488439E-01  0.13311002859E+00  0.19048886312E-01 0.  0.
         14    1    1    2    0    0 -0.68619687456E-03 -0.23019044711E-01  0.54302289579E-02  0.23660825685E-01  0.00000000000E+00 0. -1.
     999901    1    3    3    0    0  0.22072579564E-02 -0.69165638876E-01  0.88671259481E-01  0.88715914573E+00  0.88000000000E+00 0.  1.
        -11    1    4    4    0    0  0.30307720328E-02  0.50366555089E-01 -0.63402644854E-01  0.81031672488E-01  0.51100000000E-03 0. -1.
         11    1    4    4    0    0 -0.45518331147E-02  0.41818128498E-01 -0.30698843584E-01  0.52078356101E-01  0.51100000000E-03 0.  1.
</event>
<event>
 8    1  0.1123470E+005  0.1043930E+01  0.7957747E-01            NaN
         13   -1    0    0    0    0  0.00000000000E+00  0.00000000000E+00  0.74505805969E-08  0.10566000000E+00  0.10566000000E+00 0.  1.
     999900   -1    0    0    0    0 -0.00000000000E+00 -0.00000000000E+00 -0.74505805969E-08  0.93827000000E+00  0.93827000000E+00 0. -1.
     999902    2    1    2    0    0 -0.77357447208E-02  0.77681927000E-03 -0.22033955677E-01  0.10205646325E+01  0.10202971277E+01 0.  0.
     999903    2    3    3    0    0 -0.64808060900E-01  0.10058651173E+00  0.47496538809E-01  0.13036593917E+00  0.20533528588E-01 0.  0.
         14    1    1    2    0    0  0.77357447208E-02 -0.77681927000E-03  0.22033955677E-01  0.23365367477E-01  0.00000000000E+00 0.  1.
     999901    1    3    3    0    0  0.57072316180E-01 -0.99809692464E-01 -0.69530494486E-01  0.89019869335E+00  0.88000000000E+00 0. -1.
        -11    1    4    4    0    0 -0.17579402646E-01  0.18710639475E-01  0.17960955641E-01  0.31336567704E-01  0.51100000000E-03 0.  1.
         11    1    4    4    0    0 -0.47228658254E-01  0.81875872259E-01  0.29535583167E-01  0.99029371465E-01  0.51100000000E-03 0. -1.
</event>
<event>
 8    1  0.1123470E+005  0.1043930E+01  0.7957747E-01            NaN
         13   -1    0    0    0    0  0.00000000000E+00  0.00000000000E+00  0.74505805969E-08  0.10566000000E+00  0.10566000000E+00 0.  1.
     999900   -1    0    0    0    0 -0.00000000000E+00 -0.00000000000E+00 -0.74505805969E-08  0.93827000000E+00  0.93827000000E+00 0. -1.
     999902    2    1    2    0    0  0.24464962212E-01  0.23842533653E-02  0.11296854040E-01  0.10168774964E+01  0.10165175870E+01 0.  0.
     999903    2    3    3    0    0 -0.77789176073E-01  0.79249605387E-01  0.57251170774E-01  0.12644165347E+00  0.19445804410E-01 0.  0.
         14    1    1    2    0    0 -0.24464962212E-01 -0.23842533653E-02 -0.11296854040E-01  0.27052503605E-01  0.00000000000E+00 0. -1.
     999901    1    3    3    0    0  0.10225413829E+00 -0.76865352022E-01 -0.45954316734E-01  0.89043584292E+00  0.88000000000E+00 0.  1.
        -11    1    4    4    0    0 -0.49152348106E-01  0.57841579820E-01  0.30592398938E-01  0.81839829387E-01  0.51100000000E-03 0. -1.
         11    1    4    4    0    0 -0.28636827968E-01  0.21408025567E-01  0.26658771836E-01  0.44601824083E-01  0.51100000000E-03 0.  1.
</event>
<event>
 8    1  0.1123470E+005  0.1043930E+01  0.7957747E-01            NaN
         13   -1    0    0    0    0  0.00000000000E+00  0.00000000000E+00  0.74505805969E-08  0.10566000000E+00  0.10566000000E+00 0.  1.
     999900   -1    0    0    0    0 -0.00000000000E+00 -0.00000000000E+00 -0.74505805969E-08  0.93827000000E+00  0.93827000000E+00 0.  1.
     999902    2    1    2    0    0  0.23874627519E-01 -0.77366985190E-03 -0.36107768904E-03  0.10200401113E+01  0.10197603159E+01 0.  0.
     999903    2    3    3    0    0 -0.10762670578E+00 -0.65901267766E-01 -0.15931779708E-03  0.12788864134E+00  0.20712177847E-01 0.  0.
         14    1    1    2    0    0 -0.23874627519E-01  0.77366985190E-03  0.36107768904E-03  0.23889888683E-01  0.00000000000E+00 0.  1.
     999901    1    3    3    0    0  0.13150133330E+00  0.65127597914E-01 -0.20175989197E-03  0.89215146997E+00  0.88000000000E+00 0.  1.
        -11    1    4    4    0    0 -0.77446739430E-01 -0.36667781383E-01 -0.32802144075E-02  0.85752810843E-01  0.51100000000E-03 0.  1.
         11    1    4    4    0    0 -0.30179966354E-01 -0.29233486383E-01  0.31208966105E-02  0.42135830499E-01  0.51100000000E-03 0. -1.
</event>
<event>
 8    1  0.1123470E+005  0.1043930E+01  0.7957747E-01            NaN
         13   -1    0    0    0    0  0.00000000000E+00  0.00000000000E+00  0.74505805969E-08  0.10566000000E+00  0.10566000000E+00 0. -1.
     999900   -1    0    0    0    0 -0.00000000000E+00 -0.00000000000E+00 -0.74505805969E-08  0.93827000000E+00  0.93827000000E+00 0.  1.
     999902    2    1    2    0    0 -0.53043707433E-02 -0.14849792848E-01  0.16740805516E-01  0.10209320160E+01  0.10206729516E+01 0.  0.
     999903    2    3    3    0    0  0.38975331265E-02  0.70724094224E-01  0.10938466935E+00  0.13189295577E+00  0.20338574833E-01 0.  0.
         14    1    1    2    0    0  0.53043707433E-02  0.14849792848E-01 -0.16740805516E-01  0.22997983954E-01  0.00000000000E+00 0.  1.
     999901    1    3    3    0    0 -0.92019038698E-02 -0.85573887072E-01 -0.92643863832E-01  0.88903906027E+00  0.88000000000E+00 0.  1.
        -11    1    4    4    0    0  0.10456984673E-01  0.49348113362E-01  0.65881071175E-01  0.82976873170E-01  0.51100000000E-03 0.  1.
         11    1    4    4    0    0 -0.65594515461E-02  0.21375980862E-01  0.43503598173E-01  0.48916082604E-01  0.51100000000E-03 0. -1.
</event>
<event>
 8    1  0.1123470E+005  0.1043930E+01  0.7957747E-01            NaN
         13   -1    0    0    0    0  0.00000000000E+00  0.00000000000E+00  0.74505805969E-08  0.10566000000E+00  0.10566000000E+00 0. -1.
     999900   -1    0    0    0    0 -0.00000000000E+00 -0.00000000000E+00 -0.74505805969E-08  0.93827000000E+00  0.93827000000E+00 0.  1.
     999902    2    1    2    0    0  0.81551084407E-02 -0.22348466752E-01 -0.39744184799E-02  0.10198103864E+01  0.10195251190E+01 0.  0.
     999903    2    3    3    0    0  0.37093180716E-01  0.11946714946E+00  0.16518049936E-01  0.12775151931E+00  0.19982513771E-01 0.  0.
         14    1    1    2    0    0 -0.81551084407E-02  0.22348466752E-01  0.39744184799E-02  0.24119613639E-01  0.00000000000E+00 0. -1.
     999901    1    3    3    0    0 -0.28938072275E-01 -0.14181561621E+00 -0.20492468416E-01  0.89205886705E+00  0.88000000000E+00 0.  1.
        -11    1    4    4    0    0  0.95371261309E-02  0.49390485054E-01  0.14772653206E-01  0.52429659473E-01  0.51100000000E-03 0. -1.
         11    1    4    4    0    0  0.27556054585E-01  0.70076664403E-01  0.17453967300E-02  0.75321859834E-01  0.51100000000E-03 0.  1.
</event>
<event>
 8    1  0.1123470E+005  0.1043930E+01  0.7957747E-01            NaN
         13   -1    0    0    0    0  0.00000000000E+00  0.00000000000E+00  0.74505805969E-08  0.10566000000E+00  0.10566000000E+00 0. -1.
     999900   -1    0    0    0    0 -0.00000000000E+00 -0.00000000000E+00 -0.74505805969E-08  0.93827000000E+00  0.93827000000E+00 0. -1.
     999902    2    1    2    0    0 -0.22782444347E-01 -0.53782951466E-02  0.25493279366E-02  0.10203829216E+01  0.10201111909E+01 0.  0.
     999903    2    3    3    0    0 -0.51764638147E-01 -0.10291206986E+00 -0.62234111900E-01  0.13215451692E+00  0.17923720987E-01 0.  0.
         14    1    1    2    0    0  0.22782444347E-01  0.53782951466E-02 -0.25493279366E-02  0.23547078418E-01  0.00000000000E+00 0. -1.
     999901    1    3    3    0    0  0.28982193800E-01  0.97533774711E-01  0.64783439837E-01  0.88822840466E+00  0.88000000000E+00 0.  1.
        -11    1    4    4    0    0 -0.47686024366E-01 -0.78720343741E-01 -0.49700835542E-01  0.10460059088E+00  0.51100000000E-03 0. -1.
         11    1    4    4    0    0 -0.40786137808E-02 -0.24191726117E-01 -0.12533276358E-01  0.27553926039E-01  0.51100000000E-03 0.  1.
</event>
<event>
 8    1  0.1123470E+005  0.1043930E+01  0.7957747E-01            NaN
         13   -1    0    0    0    0  0.00000000000E+00  0.00000000000E+00  0.74505805969E-08  0.10566000000E+00  0.10566000000E+00 0. -1.
     999900   -1    0    0    0    0 -0.00000000000E+00 -0.00000000000E+00 -0.74505805969E-08  0.93827000000E+00  0.93827000000E+00 0. -1.
     999902    2    1    2    0    0 -0.49342662432E-02  0.23722010333E-01 -0.34956675563E-03  0.10196977291E+01  0.10194097585E+01 0.  0.
     999903    2    3    3    0    0 -0.86972024924E-01  0.93463979460E-01 -0.29640462594E-01  0.13265089114E+00  0.20446352254E-01 0.  0.
         14    1    1    2    0    0  0.49342662432E-02 -0.23722010333E-01  0.34956675563E-03  0.24232270932E-01  0.00000000000E+00 0. -1.
     999901    1    3    3    0    0  0.82037758680E-01 -0.69741969126E-01  0.29290895839E-01  0.88704683793E+00  0.88000000000E+00 0. -1.
        -11    1    4    4    0    0 -0.29605663062E-01  0.42485461059E-01 -0.49074532446E-02  0.52017822956E-01  0.51100000000E-03 0.  1.
         11    1    4    4    0    0 -0.57366361861E-01  0.50978518401E-01 -0.24733009350E-01  0.80633068180E-01  0.51100000000E-03 0. -1.
</event>
<event>
 8    1  0.1123470E+005  0.1043930E+01  0.7957747E-01            NaN
         13   -1    0    0    0    0  0.00000000000E+00  0.00000000000E+00  0.74505805969E-08  0.10566000000E+00  0.10566000000E+00 0. -1.
     999900   -1    0    0    0    0 -0.00000000000E+00 -0.00000000000E+00 -0.74505805969E-08  0.93827000000E+00  0.93827000000E+00 0.  1.
     999902    2    1    2    0    0  0.19511588667E-01 -0.18521435688E-01  0.55948586954E-02  0.10164518611E+01  0.10160803796E+01 0.  0.
     999903    2    3    3    0    0  0.38935101638E-01  0.70357587960E-01 -0.94941183981E-01  0.12606753423E+00  0.20323937809E-01 0.  0.
         14    1    1    2    0    0 -0.19511588667E-01  0.18521435688E-01 -0.55948586954E-02  0.27478138876E-01  0.00000000000E+00 0.  1.
     999901    1    3    3    0    0 -0.19423512971E-01 -0.88879023648E-01  0.10053604268E+00  0.89038432689E+00  0.88000000000E+00 0. -1.
        -11    1    4    4    0    0  0.16270116197E-01  0.44513052198E-01 -0.65217952809E-01  0.80621157190E-01  0.51100000000E-03 0.  1.
         11    1    4    4    0    0  0.22664985441E-01  0.25844535761E-01 -0.29723231173E-01  0.45446377041E-01  0.51100000000E-03 0. -1.
</event>
<event>
 7    1  0.1123470E+005  0.1043930E+01  0.7957747E-01            NaN
         13   -1    0    0    0    0  0.00000000000E+00  0.00000000000E+00  0.74505805969E-08  0.10566000000E+00  0.10566000000E+00 0.  1.
     999900   -1    0    0    0    0 -0.00000000000E+00 -0.00000000000E+00 -0.74505805969E-08  0.93827000000E+00  0.93827000000E+00 0.  1.
     999902    2    1    2    0    0 -0.14041044564E-01  0.17404770375E-01 -0.69824340285E-02  0.10205028502E+01  0.10202339123E+01 0.  0.
         14    1    1    2    0    0  0.14041044564E-01 -0.17404770375E-01  0.69824340285E-02  0.23427149831E-01  0.00000000000E+00 0.  1.
     999901    1    3    3    0    0 -0.13546534963E+00  0.37591164923E-01 -0.19452180748E-02  0.89116089485E+00  0.88000000000E+00 0.  1.
        -11    1    3    3    0    0  0.48162925118E-01 -0.24163351377E-01 -0.13309119128E-01  0.55506113885E-01  0.51100000000E-03 0.  1.
         11    1    3    3    0    0  0.73261379948E-01  0.39769568302E-02  0.82719031742E-02  0.73835841437E-01  0.51100000000E-03 0. -1.
</event>
<event>
 8    1  0.1123470E+005  0.1043930E+01  0.7957747E-01            NaN
         13   -1    0    0    0    0  0.00000000000E+00  0.00000000000E+00  0.74505805969E-08  0.10566000000E+00  0.10566000000E+00 0. -1.
     999900   -1    0    0    0    0 -0.00000000000E+00 -0.00000000000E+00 -0.74505805969E-08  0.93827000000E+00  0.93827000000E+00 0.  1.
     999902    2    1    2    0    0 -0.24909816616E-01 -0.53365368979E-02 -0.11205269033E-01  0.10160995195E+01  0.10157183162E+01 0.  0.
     999903    2    3    3    0    0 -0.54244374650E-01 -0.11158961949E+00 -0.29314825033E-01  0.12903797155E+00  0.19918428072E-01 0.  0.
         14    1    1    2    0    0  0.24909816616E-01  0.53365368979E-02  0.11205269033E-01  0.27830480485E-01  0.00000000000E+00 0. -1.
     999901    1    3    3    0    0  0.29334558034E-01  0.10625308259E+00  0.18109556000E-01  0.88706154796E+00  0.88000000000E+00 0. -1.
        -11    1    4    4    0    0 -0.17030122810E-01 -0.56802377792E-01 -0.10937752335E-01  0.60302825414E-01  0.51100000000E-03 0.  1.
         11    1    4    4    0    0 -0.37214251840E-01 -0.54787241697E-01 -0.18377072698E-01  0.68735146139E-01  0.51100000000E-03 0. -1.
</event>
<event>
 8    1  0.1123470E+005  0.1043930E+01  0.7957747E-01            NaN
         13   -1    0    0    0    0  0.00000000000E+00  0.00000000000E+00  0.74505805969E-08  0.10566000000E+00  0.10566000000E+00 0.  1.
     999900   -1    0    0    0    0 -0.00000000000E+00 -0.00000000000E+00 -0.74505805969E-08  0.93827000000E+00  0.93827000000E+00 0.  1.
     999902    2    1    2    0    0  0.17709391789E-01 -0.10350257898E-01 -0.11400370968E-01  0.10204626002E+01  0.10201927267E+01 0.  0.
     999903    2    3    3    0    0 -0.10847929859E+00 -0.14401193261E-01 -0.66855583923E-01  0.12972398740E+00  0.19582931696E-01 0.  0.
         14    1    1    2    0    0 -0.17709391789E-01  0.10350257898E-01  0.11400370968E-01  0.23467399819E-01  0.00000000000E+00 0. -1.
     999901    1    3    3    0    0  0.12618869038E+00  0.40509353634E-02  0.55455212955E-01  0.89073861278E+00  0.88000000000E+00 0. -1.
        -11    1    4    4    0    0 -0.97829824674E-01 -0.78202662596E-02 -0.55148138494E-01  0.11257623844E+00  0.51100000000E-03 0. -1.
         11    1    4    4    0    0 -0.10649473921E-01 -0.65809270014E-02 -0.11707445429E-01  0.17147748962E-01  0.51100000000E-03 0.  1.
</event>
<event>
 8    1  0.1123470E+005  0.1043930E+01  0.7957747E-01            NaN
         13   -1    0    0    0    0  0.00000000000E+00  0.00000000000E+00  0.74505805969E-08  0.10566000000E+00  0.10566000000E+00 0.  1.
     999900   -1    0    0    0    0 -0.00000000000E+00 -0.00000000000E+00 -0.74505805969E-08  0.93827000000E+00  0.93827000000E+00 0.  1.
     999902    2    1    2    0    0 -0.15368418537E-01  0.93978285645E-02 -0.13953598406E-01  0.10211438117E+01  0.10208895502E+01 0.  0.
     999903    2    3    3    0    0 -0.84873125065E-01  0.74325618231E-01  0.66139537531E-01  0.13240232365E+00  0.20692800688E-01 0.  0.
         14    1    1    2    0    0  0.15368418537E-01 -0.93978285645E-02  0.13953598406E-01  0.22786188328E-01  0.00000000000E+00 0.  1.
     999901    1    3    3    0    0  0.69504706528E-01 -0.64927789666E-01 -0.80093135937E-01  0.88874148802E+00  0.88000000000E+00 0.  1.
        -11    1    4    4    0    0 -0.24500445234E-01  0.29112484710E-01  0.31505653887E-01  0.49403197573E-01  0.51100000000E-03 0. -1.
         11    1    4    4    0    0 -0.60372679831E-01  0.45213133521E-01  0.34633883645E-01  0.82999126080E-01  0.51100000000E-03 0.  1.
</event>
<event>
 8    1  0.1123470E+005  0.1043930E+01  0.7957747E-01            NaN
         13   -1    0    0    0    0  0.00000000000E+00  0.00000000000E+00  0.74505805969E-08  0.10566000000E+00  0.10566000000E+00 0.  1.
     999900   -1    0    0    0    0 -0.00000000000E+00 -0.00000000000E+00 -0.74505805969E-08  0.93827000000E+00  0.93827000000E+00 0. -1.
     999902    2    1    2    0    0 -0.20312625160E-01 -0.97311206120E-02 -0.94753066335E-02  0.10194948023E+01  0.10192019295E+01 0.  0.
     999903    2    3    3    0    0  0.81369343004E-01 -0.89349499140E-01 -0.42442167489E-01  0.12945821726E+00  0.18809291805E-01 0.  0.
         14    1    1    2    0    0  0.20312625160E-01  0.97311206120E-02  0.94753066335E-02  0.24435197667E-01  0.00000000000E+00 0.  1.
     999901    1    3    3    0    0 -0.10168196816E+00  0.79618378528E-01  0.32966860856E-01  0.89003658507E+00  0.88000000000E+00 0.  1.
        -11    1    4    4    0    0  0.17071118326E-01 -0.26082284419E-01 -0.41150511105E-02  0.31446834626E-01  0.51100000000E-03 0.  1.
         11    1    4    4    0    0  0.64298224678E-01 -0.63267214722E-01 -0.38327116379E-01  0.98011382636E-01  0.51100000000E-03 0. -1.
</event>
<event>
 8    1  0.1123470E+005  0.1043930E+01  0.7957747E-01            NaN
         13   -1    0    0    0    0  0.00000000000E+00  0.00000000000E+00  0.74505805969E-08  0.10566000000E+00  0.10566000000E+00 0.  1.
     999900   -1    0    0    0    0 -0.00000000000E+00 -0.00000000000E+00 -0.74505805969E-08  0.93827000000E+00  0.93827000000E+00 0. -1.
     999902    2    1    2    0    0  0.52247528639E-02 -0.17479805530E-01  0.14796798110E-01  0.10204398557E+01  0.10201694527E+01 0.  0.
     999903    2    3    3    0    0 -0.85119545824E-01 -0.72215293507E-01 -0.64791051613E-01  0.13055655339E+00  0.19665898554E-01 0.  0.
         14    1    1    2    0    0 -0.52247528639E-02  0.17479805530E-01 -0.14796798110E-01  0.23490144277E-01  0.00000000000E+00 0.  1.
     999901    1    3    3    0    0  0.90344298688E-01  0.54735487977E-01  0.79587849723E-01  0.88988330233E+00  0.88000000000E+00 0. -1.
        -11    1    4    4    0    0 -0.38926480058E-01 -0.45369974927E-01 -0.37363766846E-01  0.70498352239E-01  0.51100000000E-03 0. -1.
         11    1    4    4    0    0 -0.46193065766E-01 -0.26845318580E-01 -0.27427284767E-01  0.60058201149E-01  0.51100000000E-03 0.  1.
</event>
<event>
 8    1  0.1123470E+005  0.1043930E+01  0.7957747E-01            NaN
         13   -1    0    0    0    0  0.00000000000E+00  0.00000000000E+00  0.74505805969E-08  0.10566000000E+00  0.10566000000E+00 0. -1.
     999900   -1    0    0    0    0 -0.00000000000E+00 -0.00000000000E+00 -0.74505805969E-08  0.93827000000E+00  0.93827000000E+00 0.  1.
     999902    2    1    2    0    0 -0.22400505576E-02  0.17520657164E-01 -0.16751868536E-01  0.10195862872E+01  0.10192956297E+01 0.  0.
     999903    2    3    3    0    0 -0.23625524787E-02  0.91971217544E-01  0.89677233111E-01  0.13005267084E+00  0.20184264720E-01 0.  0.
         14    1    1    2    0    0  0.22400505576E-02 -0.17520657164E-01  0.16751868536E-01  0.24343712810E-01  0.00000000000E+00 0. -1.
     999901    1    3    3    0    0  0.12250192111E-03 -0.74450560380E-01 -0.10642910165E+00  0.88953361635E+00  0.88000000000E+00 0.  1.
        -11    1    4    4    0    0  0.53012660425E-02  0.69460082101E-01  0.73613378901E-01  0.10135086137E+00  0.51100000000E-03 0. -1.
         11    1    4    4    0    0 -0.76638185212E-02  0.22511135443E-01  0.16063854210E-01  0.28701809461E-01  0.51100000000E-03 0.  1.
</event>
<event>
 8    1  0.1123470E+005  0.1043930E+01  0.7957747E-01            NaN
         13   -1    0    0    0    0  0.00000000000E+00  0.00000000000E+00  0.74505805969E-08  0.10566000000E+00  0.10566000000E+00 0.  1.
     999900   -1    0    0    0    0 -0.00000000000E+00 -0.00000000000E+00 -0.74505805969E-08  0.93827000000E+00  0.93827000000E+00 0. -1.
     999902    2    1    2    0    0  0.12069589589E-01 -0.20200688873E-01  0.29893897648E-02  0.10202091384E+01  0.10199333345E+01 0.  0.
     999903    2    3    3    0    0 -0.61894224118E-02  0.11340235544E+00  0.56372979259E-01  0.12833864747E+00  0.19861834597E-01 0.  0.
         14    1    1    2    0    0 -0.12069589589E-01  0.20200688873E-01 -0.29893897648E-02  0.23720861598E-01  0.00000000000E+00 0.  1.
     999901    1    3    3    0    0  0.18259012000E-01 -0.13360304432E+00 -0.53383589494E-01  0.89187049093E+00  0.88000000000E+00 0.  1.
        -11    1    4    4    0    0  0.63462020016E-02  0.52379296704E-01  0.29902701498E-01  0.60648970980E-01  0.51100000000E-03 0. -1.
         11    1    4    4    0    0 -0.12535624413E-01  0.61023058741E-01  0.26470277761E-01  0.67689676489E-01  0.51100000000E-03 0.  1.
</event>
<event>
 7    1  0.1819472E+005  0.1043930E+01  0.7957747E-01            NaN
         13   -1    0    0    0    0  0.00000000000E+00  0.00000000000E+00  0.74505805969E-08  0.10566000000E+00  0.10566000000E+00 0.  1.
     999900   -1    0    0    0    0 -0.00000000000E+00 -0.00000000000E+00 -0.74505805969E-08  0.93827000000E+00  0.93827000000E+00 0. -1.
     999903    2    1    2    0    0 -0.36378810164E-01  0.35731753489E-01 -0.93644945997E-01  0.10880344094E+00  0.21648020991E-01 0.  0.
         14    1    1    2    0    0 -0.34596174886E-01 -0.43282883358E-03  0.35624420003E-01  0.49660668120E-01  0.00000000000E+00 0.  1.
     999901    1    1    2    0    0  0.70974985050E-01 -0.35298924655E-01  0.58020525994E-01  0.88546589094E+00  0.88000000000E+00 0.  1.
        -11    1    3    3    0    0 -0.77536579097E-02  0.18758947202E-01 -0.49618666694E-01  0.53612410099E-01  0.51100000000E-03 0.  1.
         11    1    3    3    0    0 -0.28625152254E-01  0.16972806286E-01 -0.44026279303E-01  0.55191030839E-01  0.51100000000E-03 0. -1.
</event>
<event>
 8    1  0.1123470E+005  0.1043930E+01  0.7957747E-01            NaN
         13   -1    0    0    0    0  0.00000000000E+00  0.00000000000E+00  0.74505805969E-08  0.10566000000E+00  0.10566000000E+00 0. -1.
     999900   -1    0    0    0    0 -0.00000000000E+00 -0.00000000000E+00 -0.74505805969E-08  0.93827000000E+00  0.93827000000E+00 0. -1.
     999902    2    1    2    0    0 -0.18144562024E-01 -0.40950000528E-02  0.16869788454E-01  0.10188185700E+01  0.10185090547E+01 0.  0.
     999903    2    3    3    0    0 -0.58903239524E-02 -0.16297853489E-01 -0.12462283321E+00  0.12734830238E+00  0.19657660507E-01 0.  0.
         14    1    1    2    0    0  0.18144562024E-01  0.40950000528E-02 -0.16869788454E-01  0.25111430046E-01  0.00000000000E+00 0.  1.
     999901    1    3    3    0    0 -0.12254238072E-01  0.12202853436E-01  0.14149262167E+00  0.89147026757E+00  0.88000000000E+00 0.  1.
        -11    1    4    4    0    0 -0.14308901421E-02 -0.18937256006E-01 -0.71851830344E-01  0.74321018268E-01  0.51100000000E-03 0.  1.
         11    1    4    4    0    0 -0.44594338103E-02  0.26394025174E-02 -0.52771002869E-01  0.53027284112E-01  0.51100000000E-03 0. -1.
</event>
<event>
 8    1  0.1123470E+005  0.1043930E+01  0.7957747E-01            NaN
         13   -1    0    0    0    0  0.00000000000E+00  0.00000000000E+00  0.74505805969E-08  0.10566000000E+00  0.10566000000E+00 0.  1.
     999900   -1    0    0    0    0 -0.00000000000E+00 -0.00000000000E+00 -0.74505805969E-08  0.93827000000E+00  0.93827000000E+00 0. -1.
     999902    2    1    2    0    0 -0.13623400018E-01 -0.69137288332E-02 -0.16447142269E-01  0.10214821680E+01  0.10212354843E+01 0.  0.
     999903    2    3    3    0    0 -0.35710713826E-01 -0.12375739433E+00  0.23303589406E-01  0.13259499162E+00  0.21147737221E-01 0.  0.
         14    1    1    2    0    0  0.13623400018E-01  0.69137288332E-02  0.16447142269E-01  0.22447832039E-01  0.00000000000E+00 0.  1.
     999901    1    3    3    0    0  0.22087313808E-01  0.11684366550E+00 -0.39750731675E-01  0.88888717634E+00  0.88000000000E+00 0.  1.
        -11    1    4    4    0    0 -0.28575766313E-01 -0.60981249024E-01  0.11633010828E-01  0.68343801583E-01  0.51100000000E-03 0. -1.
         11    1    4    4    0    0 -0.71349475125E-02 -0.62776145307E-01  0.11670578578E-01  0.64251190035E-01  0.51100000000E-03 0.  1.
</event>
<event>
 8    1  0.1123470E+005  0.1043930E+01  0.7957747E-01            NaN
         13   -1    0    0    0    0  0.00000000000E+00  0.00000000000E+00  0.74505805969E-08  0.10566000000E+00  0.10566000000E+00 0.  1.
     999900   -1    0    0    0    0 -0.00000000000E+00 -0.00000000000E+00 -0.74505805969E-08  0.93827000000E+00  0.93827000000E+00 0.  1.
     999902    2    1    2    0    0 -0.12345622304E-01  0.12936647006E-01 -0.14808326431E-01  0.10207123826E+01  0.10204482889E+01 0.  0.
     999903    2    3    3    0    0 -0.18886608450E-01  0.11267613972E+00 -0.66104158941E-01  0.13356977099E+00  0.20457454718E-01 0.  0.
         14    1    1    2    0    0  0.12345622304E-01 -0.12936647006E-01  0.14808326431E-01  0.23217617395E-01  0.00000000000E+00 0.  1.
     999901    1    3    3    0    0  0.65409861463E-02 -0.99739492711E-01  0.51295832510E-01  0.88714261161E+00  0.88000000000E+00 0. -1.
        -11    1    4    4    0    0 -0.10049303253E-01  0.89993610124E-01 -0.43973815008E-01  0.10066675661E+00  0.51100000000E-03 0. -1.
         11    1    4    4    0    0 -0.88373051969E-02  0.22682529592E-01 -0.22130343933E-01  0.32903014383E-01  0.51100000000E-03 0.  1.
</event>
<event>
 8    1  0.1123470E+005  0.1043930E+01  0.7957747E-01            NaN
         13   -1    0    0    0    0  0.00000000000E+00  0.00000000000E+00  0.74505805969E-08  0.10566000000E+00  0.10566000000E+00 0.  1.
     999900   -1    0    0    0    0 -0.00000000000E+00 -0.00000000000E+00 -0.74505805969E-08  0.93827000000E+00  0.93827000000E+00 0.  1.
     999902    2    1    2    0    0  0.16366480824E-01 -0.41041949081E-02 -0.13737420521E-01  0.10221717181E+01  0.10219401149E+01 0.  0.
     999903    2    3    3    0    0 -0.11627152429E+00 -0.25595146626E-01  0.47733005660E-01  0.12985265253E+00  0.20226038862E-01 0.  0.
         14    1    1    2    0    0 -0.16366480824E-01  0.41041949081E-02  0.13737420521E-01  0.21758281940E-01  0.00000000000E+00 0.  1.
     999901    1    3    3    0    0  0.13263800512E+00  0.21490951718E-01 -0.61470426181E-01  0.89231906553E+00  0.88000000000E+00 0.  1.
        -11    1    4    4    0    0 -0.43002091414E-01 -0.23059746619E-03  0.13316039476E-01  0.45020118497E-01  0.51100000000E-03 0.  1.
         11    1    4    4    0    0 -0.73269432881E-01 -0.25364549160E-01  0.34416966184E-01  0.84832534037E-01  0.51100000000E-03 0. -1.
</event>
<event>
 8    1  0.1123470E+005  0.1043930E+01  0.7957747E-01            NaN
         13   -1    0    0    0    0  0.00000000000E+00  0.00000000000E+00  0.74505805969E-08  0.10566000000E+00  0.10566000000E+00 0. -1.
     999900   -1    0    0    0    0 -0.00000000000E+00 -0.00000000000E+00 -0.74505805969E-08  0.93827000000E+00  0.93827000000E+00 0.  1.
     999902    2    1    2    0    0 -0.98848454887E-02 -0.10535427333E-01  0.19009081435E-01  0.10200542680E+01  0.10197748081E+01 0.  0.
     999903    2    3    3    0    0 -0.39398180028E-01 -0.10429360863E+00 -0.65171779914E-01  0.13058923169E+00  0.19411675520E-01 0.  0.
         14    1    1    2    0    0  0.98848454887E-02  0.10535427333E-01 -0.19009081435E-01  0.23875731956E-01  0.00000000000E+00 0.  1.
     999901    1    3    3    0    0  0.29513334539E-01  0.93758181296E-01  0.84180861349E-01  0.88946503635E+00  0.88000000000E+00 0. -1.
        -11    1    4    4    0    0 -0.21705407528E-01 -0.79546472365E-01 -0.43435327659E-01  0.93196860416E-01  0.51100000000E-03 0.  1.
         11    1    4    4    0    0 -0.17692772500E-01 -0.24747136264E-01 -0.21736452255E-01  0.37392371276E-01  0.51100000000E-03 0. -1.
</event>
<event>
 8    1  0.1123470E+005  0.1043930E+01  0.7957747E-01            NaN
         13   -1    0    0    0    0  0.00000000000E+00  0.00000000000E+00  0.74505805969E-08  0.10566000000E+00  0.10566000000E+00 0.  1.
     999900   -1    0    0    0    0 -0.00000000000E+00 -0.00000000000E+00 -0.74505805969E-08  0.93827000000E+00  0.93827000000E+00 0. -1.
     999902    2    1    2    0    0  0.11427267251E-01 -0.17108316043E-01  0.12159933726E-01  0.10200314456E+01  0.10197514448E+01 0.  0.
     999903    2    3    3    0    0 -0.30205109328E-01  0.12174255488E+00  0.16342142360E-01  0.12816244736E+00  0.20614291114E-01 0.  0.
         14    1    1    2    0    0 -0.11427267251E-01  0.17108316043E-01 -0.12159933726E-01  0.23898554410E-01  0.00000000000E+00 0. -1.
     999901    1    3    3    0    0  0.41632376579E-01 -0.13885087092E+00 -0.41822086338E-02  0.89186899823E+00  0.88000000000E+00 0.  1.
        -11    1    4    4    0    0 -0.20734265065E-01  0.44901533920E-01  0.10150559199E-01  0.50491112774E-01  0.51100000000E-03 0.  1.
         11    1    4    4    0    0 -0.94708442633E-02  0.76841020960E-01  0.61915831610E-02  0.77671334585E-01  0.51100000000E-03 0. -1.
</event>
<event>
 8    1  0.1123470E+005  0.1043930E+01  0.7957747E-01            NaN
         13   -1    0    0    0    0  0.00000000000E+00  0.00000000000E+00  0.74505805969E-08  0.10566000000E+00  0.10566000000E+00 0. -1.
     999900   -1    0    0    0    0 -0.00000000000E+00 -0.00000000000E+00 -0.74505805969E-08  0.93827000000E+00  0.93827000000E+00 0.  1.
     999902    2    1    2    0    0  0.14734366320E-01 -0.18425789687E-01 -0.73424655049E-04  0.10203372751E+01  0.10200644775E+01 0.  0.
     999903    2    3    3    0    0 -0.19303920830E-01 -0.10295444994E+00 -0.78670873047E-01  0.13214739773E+00  0.17365723076E-01 0.  0.
         14    1    1    2    0    0 -0.14734366320E-01  0.18425789687E-01  0.73424655049E-04  0.23592724888E-01  0.00000000000E+00 0.  1.
     999901    1    3    3    0    0  0.34038287151E-01  0.84528660254E-01  0.78597448392E-01  0.88818987739E+00  0.88000000000E+00 0. -1.
        -11    1    4    4    0    0 -0.92565925970E-02 -0.56502863284E-01 -0.32275927332E-01  0.65728644228E-01  0.51100000000E-03 0. -1.
         11    1    4    4    0    0 -0.10047328234E-01 -0.46451586657E-01 -0.46394945714E-01  0.66418753499E-01  0.51100000000E-03 0.  1.
</event>
<event>
 8    1  0.1123470E+005  0.1043930E+01  0.7957747E-01            NaN
         13   -1    0    0    0    0  0.00000000000E+00  0.00000000000E+00  0.74505805969E-08  0.10566000000E+00  0.10566000000E+00 0. -1.
     999900   -1    0    0    0    0 -0.00000000000E+00 -0.00000000000E+00 -0.74505805969E-08  0.93827000000E+00  0.93827000000E+00 0. -1.
     999902    2    1    2    0    0 -0.60175740635E-03  0.15904557188E-01 -0.17271521486E-01  0.10204433547E+01  0.10201730332E+01 0.  0.
     999903    2    3    3    0    0  0.98526946017E-01  0.73366622347E-01 -0.45630917257E-01  0.13256236941E+00  0.20009517930E-01 0.  0.
         14    1    1    2    0    0  0.60175740635E-03 -0.15904557188E-01  0.17271521486E-01  0.23486645264E-01  0.00000000000E+00 0. -1.
     999901    1    3    3    0    0 -0.99128703423E-01 -0.57462065159E-01  0.28359395771E-01  0.88788098533E+00  0.88000000000E+00 0. -1.
        -11    1    4    4    0    0  0.68109430874E-01  0.46763384850E-01 -0.21042934584E-01  0.85257110868E-01  0.51100000000E-03 0. -1.
         11    1    4    4    0    0  0.30417515143E-01  0.26603237497E-01 -0.24587982673E-01  0.47305258542E-01  0.51100000000E-03 0.  1.
</event>
<event>
 8    1  0.1123470E+005  0.1043930E+01  0.7957747E-01            NaN
         13   -1    0    0    0    0  0.00000000000E+00  0.00000000000E+00  0.74505805969E-08  0.10566000000E+00  0.10566000000E+00 0.  1.
     999900   -1    0    0    0    0 -0.00000000000E+00 -0.00000000000E+00 -0.74505805969E-08  0.93827000000E+00  0.93827000000E+00 0. -1.
     999902    2    1    2    0    0  0.21768327323E-01 -0.19303969571E-02  0.94241869289E-02  0.10201308024E+01  0.10198531523E+01 0.  0.
     999903    2    3    3    0    0  0.43699344777E-01 -0.91236017827E-01 -0.80293474600E-01  0.13080199806E+00  0.20699684801E-01 0.  0.
         14    1    1    2    0    0 -0.21768327323E-01  0.19303969571E-02 -0.94241869289E-02  0.23799197594E-01  0.00000000000E+00 0.  1.
     999901    1    3    3    0    0 -0.21931017454E-01  0.89305620870E-01  0.89717661529E-01  0.88932880434E+00  0.88000000000E+00 0.  1.
        -11    1    4    4    0    0  0.14643040144E-01 -0.54391970156E-01 -0.43508107276E-01  0.71176692547E-01  0.51100000000E-03 0.  1.
         11    1    4    4    0    0  0.29056304632E-01 -0.36844047671E-01 -0.36785367323E-01  0.59625305515E-01  0.51100000000E-03 0. -1.
</event>
<event>
 8    1  0.1123470E+005  0.1043930E+01  0.7957747E-01            NaN
         13   -1    0    0    0    0  0.00000000000E+00  0.00000000000E+00  0.74505805969E-08  0.10566000000E+00  0.10566000000E+00 0. -1.
     999900   -1    0    0    0    0 -0.00000000000E+00 -0.00000000000E+00 -0.74505805969E-08  0.93827000000E+00  0.93827000000E+00 0. -1.
     999902    2    1    2    0    0  0.76441443397E-02  0.20769683364E-01 -0.85075485657E-02  0.10202194312E+01  0.10199438694E+01 0.  0.
     999903    2    3    3    0    0 -0.10872511413E+00 -0.60401137458E-01  0.24227765271E-01  0.12825412513E+00  0.19816360784E-01 0.  0.
         14    1    1    2    0    0 -0.76441443397E-02 -0.20769683364E-01  0.85075485657E-02  0.23710568790E-01  0.00000000000E+00 0.  1.
     999901    1    3    3    0    0  0.11636925847E+00  0.81170820822E-01 -0.32735313836E-01  0.89196530608E+00  0.88000000000E+00 0. -1.
        -11    1    4    4    0    0 -0.26681144517E-01 -0.70278042603E-02  0.78311184429E-03  0.27607026109E-01  0.51100000000E-03 0. -1.
         11    1    4    4    0    0 -0.82043969616E-01 -0.53373333198E-01  0.23444653426E-01  0.10064709903E+00  0.51100000000E-03 0.  1.
</event>
<event>
 7    1  0.1312758E+005  0.1043930E+01  0.7957747E-01            NaN
         13   -1    0    0    0    0  0.00000000000E+00  0.00000000000E+00  0.74505805969E-08  0.10566000000E+00  0.10566000000E+00 0. -1.
     999900   -1    0    0    0    0 -0.00000000000E+00 -0.00000000000E+00 -0.74505805969E-08  0.93827000000E+00  0.93827000000E+00 0.  1.
     999903    2    1    2    0    0 -0.56830236179E-01 -0.84363871542E-01  0.41425391605E-02  0.10373121476E+00  0.19901399914E-01 0.  0.
         14    1    1    2    0    0  0.33469990320E-01  0.44437745242E-02 -0.43891001290E-01  0.55375151271E-01  0.00000000000E+00 0.  1.
     999901    1    1    2    0    0  0.23360245859E-01  0.79920097018E-01  0.39748462130E-01  0.88482363397E+00  0.88000000000E+00 0. -1.
        -11    1    3    3    0    0 -0.44203749213E-01 -0.62565304341E-01  0.11539441989E-01  0.77471340470E-01  0.51100000000E-03 0. -1.
         11    1    3    3    0    0 -0.12626486966E-01 -0.21798567201E-01 -0.73969028288E-02  0.26259874287E-01  0.51100000000E-03 0.  1.
</event>
<event>
 8    1  0.1123470E+005  0.1043930E+01  0.7957747E-01            NaN
         13   -1    0    0    0    0  0.00000000000E+00  0.00000000000E+00  0.74505805969E-08  0.10566000000E+00  0.10566000000E+00 0. -1.
     999900   -1    0    0    0    0 -0.00000000000E+00 -0.00000000000E+00 -0.74505805969E-08  0.93827000000E+00  0.93827000000E+00 0.  1.
     999902    2    1    2    0    0 -0.16717641805E-01  0.62298635082E-02  0.10391046687E-01  0.10232838236E+01  0.10230755198E+01 0.  0.
     999903    2    3    3    0    0 -0.53056889711E-01  0.10566086023E+00 -0.60146766070E-01  0.13413667774E+00  0.19893816008E-01 0.  0.
         14    1    1    2    0    0  0.16717641805E-01 -0.62298635082E-02 -0.10391046687E-01  0.20646176355E-01  0.00000000000E+00 0.  1.
     999901    1    3    3    0    0  0.36339247907E-01 -0.99430996721E-01  0.70537812757E-01  0.88914714591E+00  0.88000000000E+00 0. -1.
        -11    1    4    4    0    0 -0.18277348563E-01  0.29496023492E-01 -0.27450592880E-01  0.44247859188E-01  0.51100000000E-03 0. -1.
         11    1    4    4    0    0 -0.34779541149E-01  0.76164836737E-01 -0.32696173191E-01  0.89888818549E-01  0.51100000000E-03 0.  1.
</event>
<event>
 8    1  0.1123470E+005  0.1043930E+01  0.7957747E-01            NaN
         13   -1    0    0    0    0  0.00000000000E+00  0.00000000000E+00  0.74505805969E-08  0.10566000000E+00  0.10566000000E+00 0. -1.
     999900   -1    0    0    0    0 -0.00000000000E+00 -0.00000000000E+00 -0.74505805969E-08  0.93827000000E+00  0.93827000000E+00 0. -1.
     999902    2    1    2    0    0 -0.17667162329E-01  0.56565599401E-02 -0.19304630150E-01  0.10171569905E+01  0.10168045777E+01 0.  0.
     999903    2    3    3    0    0 -0.65745053643E-01 -0.82993163097E-01  0.67840259653E-01  0.12712076150E+00  0.18630887660E-01 0.  0.
         14    1    1    2    0    0  0.17667162329E-01 -0.56565599401E-02  0.19304630150E-01  0.26773009549E-01  0.00000000000E+00 0. -1.
     999901    1    3    3    0    0  0.48077891314E-01  0.88649723037E-01 -0.87144889802E-01  0.89003622895E+00  0.88000000000E+00 0. -1.
        -11    1    4    4    0    0 -0.45837244162E-01 -0.70181167988E-01  0.52966058839E-01  0.99157015901E-01  0.51100000000E-03 0. -1.
         11    1    4    4    0    0 -0.19907809481E-01 -0.12811995109E-01  0.14874200814E-01  0.27963745598E-01  0.51100000000E-03 0.  1.
</event>
<event>
 8    1  0.1123470E+005  0.1043930E+01  0.7957747E-01            NaN
         13   -1    0    0    0    0  0.00000000000E+00  0.00000000000E+00  0.74505805969E-08  0.10566000000E+00  0.10566000000E+00 0.  1.
     999900   -1    0    0    0    0 -0.00000000000E+00 -0.00000000000E+00 -0.74505805969E-08  0.93827000000E+00  0.93827000000E+00 0. -1.
     999902    2    1    2    0    0  0.10536633211E-01 -0.13078701577E-01 -0.16596530415E-01  0.10203181831E+01  0.10200449387E+01 0.  0.
     999903    2    3    3    0    0  0.12423845867E+00  0.30097633175E-01  0.21478535587E-01  0.13113765497E+00  0.19866930424E-01 0.  0.
         14    1    1    2    0    0 -0.10536633211E-01  0.13078701577E-01  0.16596530415E-01  0.23611816876E-01  0.00000000000E+00 0.  1.
     999901    1    3    3    0    0 -0.11370182546E+00 -0.43176334752E-01 -0.38075066002E-01  0.88918052815E+00  0.88000000000E+00 0.  1.
        -11    1    4    4    0    0  0.84603396702E-01  0.12155059920E-01  0.18981317748E-01  0.87555877928E-01  0.51100000000E-03 0.  1.
         11    1    4    4    0    0  0.39635061969E-01  0.17942573255E-01  0.24972178388E-02  0.43581777043E-01  0.51100000000E-03 0. -1.
</event>
<event>
 8    1  0.1123470E+005  0.1043930E+01  0.7957747E-01            NaN
         13   -1    0    0    0    0  0.00000000000E+00  0.00000000000E+00  0.74505805969E-08  0.10566000000E+00  0.10566000000E+00 0. -1.
     999900   -1    0    0    0    0 -0.00000000000E+00 -0.00000000000E+00 -0.74505805969E-08  0.93827000000E+00  0.93827000000E+00 0.  1.
     999902    2    1    2    0    0 -0.18653343589E-01  0.61869771770E-02 -0.11356127503E-01  0.10212322568E+01  0.10209799875E+01 0.  0.
     999903    2    3    3    0    0 -0.63208707237E-01  0.46148629973E-01 -0.10681380696E+00  0.13404891461E+00  0.20853906891E-01 0.  0.
         14    1    1    2    0    0  0.18653343589E-01 -0.61869771770E-02  0.11356127503E-01  0.22697743181E-01  0.00000000000E+00 0. -1.
     999901    1    3    3    0    0  0.44555363648E-01 -0.39961652796E-01  0.95457679455E-01  0.88718334221E+00  0.88000000000E+00 0. -1.
        -11    1    4    4    0    0 -0.18092944636E-01  0.48252633207E-02 -0.35071719911E-01  0.39760840915E-01  0.51100000000E-03 0.  1.
         11    1    4    4    0    0 -0.45115762601E-01  0.41323366652E-01 -0.71742087047E-01  0.94288073696E-01  0.51100000000E-03 0. -1.
</event>
<event>
 8    1  0.1123470E+005  0.1043930E+01  0.7957747E-01            NaN
         13   -1    0    0    0    0  0.00000000000E+00  0.00000000000E+00  0.74505805969E-08  0.10566000000E+00  0.10566000000E+00 0.  1.
     999900   -1    0    0    0    0 -0.00000000000E+00 -0.00000000000E+00 -0.74505805969E-08  0.93827000000E+00  0.93827000000E+00 0.  1.
     999902    2    1    2    0    0  0.99464343964E-02  0.18826515040E-02  0.21480065779E-01  0.10201840707E+01  0.10199076766E+01 0.  0.
     999903    2    3    3    0    0  0.64040673892E-02  0.28627063529E-01  0.12876546197E+00  0.13325793610E+00  0.17793608182E-01 0.  0.
         14    1    1    2    0    0 -0.99464343964E-02 -0.18826515040E-02 -0.21480065779E-01  0.23745929331E-01  0.00000000000E+00 0. -1.
     999901    1    3    3    0    0  0.35423670072E-02 -0.26744412025E-01 -0.10728539619E+00  0.88692613457E+00  0.88000000000E+00 0.  1.
        -11    1    4    4    0    0  0.97556544021E-02  0.18246473075E-01  0.56490497827E-01  0.60162646536E-01  0.51100000000E-03 0. -1.
         11    1    4    4    0    0 -0.33515870129E-02  0.10380590454E-01  0.72274964146E-01  0.73095289568E-01  0.51100000000E-03 0.  1.
</event>
<event>
 8    1  0.1123470E+005  0.1043930E+01  0.7957747E-01            NaN
         13   -1    0    0    0    0  0.00000000000E+00  0.00000000000E+00  0.74505805969E-08  0.10566000000E+00  0.10566000000E+00 0.  1.
     999900   -1    0    0    0    0 -0.00000000000E+00 -0.00000000000E+00 -0.74505805969E-08  0.93827000000E+00  0.93827000000E+00 0. -1.
     999902    2    1    2    0    0 -0.21724670332E-01  0.10471022397E-01  0.46950443056E-03  0.10198089709E+01  0.10195236697E+01 0.  0.
     999903    2    3    3    0    0 -0.12332981435E+00  0.18358084445E-02  0.45047790231E-01  0.13279972867E+00  0.19820475007E-01 0.  0.
         14    1    1    2    0    0  0.21724670332E-01 -0.10471022397E-01 -0.46950443056E-03  0.24121029114E-01  0.00000000000E+00 0.  1.
     999901    1    3    3    0    0  0.10160514402E+00  0.86352139528E-02 -0.44578285801E-01  0.88700924222E+00  0.88000000000E+00 0. -1.
        -11    1    4    4    0    0 -0.73181906594E-01 -0.33109207664E-02  0.17377419270E-01  0.75291363851E-01  0.51100000000E-03 0. -1.
         11    1    4    4    0    0 -0.50147907758E-01  0.51467292110E-02  0.27670370962E-01  0.57508364820E-01  0.51100000000E-03 0.  1.
</event>
<event>
 8    1  0.1123470E+005  0.1043930E+01  0.7957747E-01            NaN
         13   -1    0    0    0    0  0.00000000000E+00  0.00000000000E+00  0.74505805969E-08  0.10566000000E+00  0.10566000000E+00 0. -1.
     999900   -1    0    0    0    0 -0.00000000000E+00 -0.00000000000E+00 -0.74505805969E-08  0.93827000000E+00  0.93827000000E+00 0.  1.
     999902    2    1    2    0    0 -0.25995362329E-02  0.19439642968E-01 -0.11499600978E-01  0.10211946062E+01  0.10209414898E+01 0.  0.
     999903    2    3    3    0    0  0.16522516366E-01 -0.10334640699E+00 -0.74740555899E-01  0.13021678084E+00  0.20415335640E-01 0.  0.
         14    1    1    2    0    0  0.25995362329E-02 -0.19439642968E-01  0.11499600978E-01  0.22735393773E-01  0.00000000000E+00 0. -1.
     999901    1    3    3    0    0 -0.19122052599E-01  0.12278604996E+00  0.63240954922E-01  0.89097782539E+00  0.88000000000E+00 0.  1.
        -11    1    4    4    0    0  0.71273332532E-02 -0.30840091931E-01 -0.34249926065E-01  0.46639347188E-01  0.51100000000E-03 0. -1.
         11    1    4    4    0    0  0.93951831129E-02 -0.72506315063E-01 -0.40490629834E-01  0.83577433647E-01  0.51100000000E-03 0.  1.
</event>
<event>
 8    1  0.1123470E+005  0.1043930E+01  0.7957747E-01            NaN
         13   -1    0    0    0    0  0.00000000000E+00  0.00000000000E+00  0.74505805969E-08  0.10566000000E+00  0.10566000000E+00 0. -1.
     999900   -1    0    0    0    0 -0.00000000000E+00 -0.00000000000E+00 -0.74505805969E-08  0.93827000000E+00  0.93827000000E+00 0.  1.
     999902    2    1    2    0    0 -0.50348231994E-02 -0.20865911322E-01  0.11482324048E-01  0.10195870448E+01  0.10192964056E+01 0.  0.
     999903    2    3    3    0    0 -0.26108274565E-01  0.60917428502E-01 -0.10740146469E+00  0.12758594605E+00  0.18722283969E-01 0.  0.
         14    1    1    2    0    0  0.50348231994E-02  0.20865911322E-01 -0.11482324048E-01  0.24342955152E-01  0.00000000000E+00 0.  1.
     999901    1    3    3    0    0  0.21073451366E-01 -0.81783339824E-01  0.11888378874E+00  0.89200109879E+00  0.88000000000E+00 0. -1.
        -11    1    4    4    0    0 -0.13734993094E-02  0.22902192055E-01 -0.44079007780E-01  0.49695240709E-01  0.51100000000E-03 0. -1.
         11    1    4    4    0    0 -0.24734775256E-01  0.38015236447E-01 -0.63322456910E-01  0.77890705345E-01  0.51100000000E-03 0.  1.
</event>
<event>
 8    1  0.1123470E+005  0.1043930E+01  0.7957747E-01            NaN
         13   -1    0    0    0    0  0.00000000000E+00  0.00000000000E+00  0.74505805969E-08  0.10566000000E+00  0.10566000000E+00 0. -1.
     999900   -1    0    0    0    0 -0.00000000000E+00 -0.00000000000E+00 -0.74505805969E-08  0.93827000000E+00  0.93827000000E+00 0.  1.
     999902    2    1    2    0    0 -0.11274913004E-01 -0.19240293955E-01  0.72900043259E-02  0.10204681855E+01  0.10201984420E+01 0.  0.
     999903    2    3    3    0    0  0.12394486640E+00  0.25242254033E-01 -0.18315312883E-01  0.12866175021E+00  0.14795066308E-01 0.  0.
         14    1    1    2    0    0  0.11274913004E-01  0.19240293955E-01 -0.72900043259E-02  0.23461814461E-01  0.00000000000E+00 0. -1.
     999901    1    3    3    0    0 -0.13521977940E+00 -0.44482547988E-01  0.25605317209E-01  0.89180643532E+00  0.88000000000E+00 0. -1.
        -11    1    4    4    0    0  0.42799711837E-01  0.75433988766E-02  0.65921036419E-03  0.43467388687E-01  0.51100000000E-03 0.  1.
         11    1    4    4    0    0  0.81145154561E-01  0.17698855156E-01 -0.18974523247E-01  0.85194361527E-01  0.51100000000E-03 0. -1.
</event>
<event>
 8    1  0.1123470E+005  0.1043930E+01  0.7957747E-01            NaN
         13   -1    0    0    0    0  0.00000000000E+00  0.00000000000E+00  0.74505805969E-08  0.10566000000E+00  0.10566000000E+00 0. -1.
     999900   -1    0    0    0    0 -0.00000000000E+00 -0.00000000000E+00 -0.74505805969E-08  0.93827000000E+00  0.93827000000E+00 0.  1.
     999902    2    1    2    0    0 -0.10578638910E-01  0.14146346110E-01 -0.39149487656E-02  0.10258370861E+01  0.10256775193E+01 0.  0.
     999903    2    3    3    0    0 -0.11234430702E+00 -0.56131389693E-01 -0.48497311505E-01  0.13607149988E+00  0.19786046287E-01 0.  0.
         14    1    1    2    0    0  0.10578638910E-01 -0.14146346110E-01  0.39149487656E-02  0.18092913897E-01  0.00000000000E+00 0. -1.
     999901    1    3    3    0    0  0.10176566811E+00  0.70277735803E-01  0.44582362739E-01  0.88976558622E+00  0.88000000000E+00 0.  1.
        -11    1    4    4    0    0 -0.79220175101E-01 -0.29332346397E-01 -0.30477689069E-01  0.89807423636E-01  0.51100000000E-03 0.  1.
         11    1    4    4    0    0 -0.33124131922E-01 -0.26799043296E-01 -0.18019622435E-01  0.46264076245E-01  0.51100000000E-03 0. -1.
</event>
<event>
 8    1  0.1123470E+005  0.1043930E+01  0.7957747E-01            NaN
         13   -1    0    0    0    0  0.00000000000E+00  0.00000000000E+00  0.74505805969E-08  0.10566000000E+00  0.10566000000E+00 0. -1.
     999900   -1    0    0    0    0 -0.00000000000E+00 -0.00000000000E+00 -0.74505805969E-08  0.93827000000E+00  0.93827000000E+00 0.  1.
     999902    2    1    2    0    0 -0.45261186562E-02  0.10442459074E-01 -0.17016474146E-01  0.10234582855E+01  0.10232535224E+01 0.  0.
     999903    2    3    3    0    0  0.23654447504E-01 -0.63391465550E-01 -0.11447642550E+00  0.13455782154E+00  0.20565615774E-01 0.  0.
         14    1    1    2    0    0  0.45261186562E-02 -0.10442459074E-01  0.17016474146E-01  0.20471714485E-01  0.00000000000E+00 0. -1.
     999901    1    3    3    0    0 -0.28180566160E-01  0.73833924623E-01  0.97459951352E-01  0.88890046397E+00  0.88000000000E+00 0. -1.
        -11    1    4    4    0    0  0.52155243663E-02 -0.29214470935E-01 -0.66566681964E-01  0.72883957598E-01  0.51100000000E-03 0.  1.
         11    1    4    4    0    0  0.18438923138E-01 -0.34176994614E-01 -0.47909743534E-01  0.61673863944E-01  0.51100000000E-03 0. -1.
</event>
<event>
 8    1  0.1123470E+005  0.1043930E+01  0.7957747E-01            NaN
         13   -1    0    0    0    0  0.00000000000E+00  0.00000000000E+00  0.74505805969E-08  0.10566000000E+00  0.10566000000E+00 0. -1.
     999900   -1    0    0    0    0 -0.00000000000E+00 -0.00000000000E+00 -0.74505805969E-08  0.93827000000E+00  0.93827000000E+00 0.  1.
     999902    2    1    2    0    0  0.44541464168E-02 -0.96776795453E-02 -0.20499303747E-01  0.10208276548E+01  0.10205662067E+01 0.  0.
     999903    2    3    3    0    0  0.19398039738E-01  0.11472935762E+00  0.52042487802E-01  0.12899653713E+00  0.19813546101E-01 0.  0.
         14    1    1    2    0    0 -0.44541464168E-02  0.96776795453E-02  0.20499303747E-01  0.23102345245E-01  0.00000000000E+00 0. -1.
     999901    1    3    3    0    0 -0.14943893322E-01 -0.12440703717E+00 -0.72541791550E-01  0.89183111763E+00  0.88000000000E+00 0.  1.
        -11    1    4    4    0    0  0.14505121287E-01  0.10886027008E+00  0.45322577680E-01  0.11880805576E+00  0.51100000000E-03 0.  1.
         11    1    4    4    0    0  0.48929184509E-02  0.58690875414E-02  0.67199101226E-02  0.10188481368E-01  0.51100000000E-03 0. -1.
</event>
<event>
 8    1  0.1123470E+005  0.1043930E+01  0.7957747E-01            NaN
         13   -1    0    0    0    0  0.00000000000E+00  0.00000000000E+00  0.74505805969E-08  0.10566000000E+00  0.10566000000E+00 0. -1.
     999900   -1    0    0    0    0 -0.00000000000E+00 -0.00000000000E+00 -0.74505805969E-08  0.93827000000E+00  0.93827000000E+00 0. -1.
     999902    2    1    2    0    0 -0.22729733831E-02 -0.18068174321E-01  0.14199180536E-01  0.10208379655E+01  0.10205767534E+01 0.  0.
     999903    2    3    3    0    0 -0.74575630722E-01 -0.50172113714E-01  0.96394983172E-01  0.13347418033E+00  0.21085500779E-01 0.  0.
         14    1    1    2    0    0  0.22729733831E-02  0.18068174321E-01 -0.14199180536E-01  0.23092034540E-01  0.00000000000E+00 0. -1.
     999901    1    3    3    0    0  0.72302657339E-01  0.32103939393E-01 -0.82195802635E-01  0.88736378513E+00  0.88000000000E+00 0. -1.
        -11    1    4    4    0    0 -0.62861158831E-01 -0.49998982120E-01  0.87333685383E-01  0.11865436033E+00  0.51100000000E-03 0. -1.
         11    1    4    4    0    0 -0.11714471890E-01 -0.17313159368E-03  0.90612977888E-02  0.14819820000E-01  0.51100000000E-03 0.  1.
</event>
<event>
 8    1  0.1123470E+005  0.1043930E+01  0.7957747E-01            NaN
         13   -1    0    0    0    0  0.00000000000E+00  0.00000000000E+00  0.74505805969E-08  0.10566000000E+00  0.10566000000E+00 0. -1.
     999900   -1    0    0    0    0 -0.00000000000E+00 -0.00000000000E+00 -0.74505805969E-08  0.93827000000E+00  0.93827000000E+00 0. -1.
     999902    2    1    2    0    0  0.14185050778E-01  0.10500839134E-01 -0.15134405370E-01  0.10206806234E+01  0.10204157983E+01 0.  0.
     999903    2    3    3    0    0  0.35597954265E-01  0.10049519206E+00 -0.78638245186E-01  0.13355592319E+00  0.16932602752E-01 0.  0.
         14    1    1    2    0    0 -0.14185050778E-01 -0.10500839134E-01  0.15134405370E-01  0.23249376637E-01  0.00000000000E+00 0. -1.
     999901    1    3    3    0    0 -0.21412903487E-01 -0.89994352930E-01  0.63503839816E-01  0.88712470018E+00  0.88000000000E+00 0.  1.
        -11    1    4    4    0    0  0.31353368393E-01  0.90401425647E-01 -0.63396446557E-01  0.11478162756E+00  0.51100000000E-03 0.  1.
         11    1    4    4    0    0  0.42445858725E-02  0.10093766417E-01 -0.15241798629E-01  0.18774295623E-01  0.51100000000E-03 0. -1.
</event>
<event>
 8    1  0.1123470E+005  0.1043930E+01  0.7957747E-01            NaN
         13   -1    0    0    0    0  0.00000000000E+00  0.00000000000E+00  0.74505805969E-08  0.10566000000E+00  0.10566000000E+00 0. -1.
     999900   -1    0    0    0    0 -0.00000000000E+00 -0.00000000000E+00 -0.74505805969E-08  0.93827000000E+00  0.93827000000E+00 0. -1.
     999902    2    1    2    0    0  0.12414560353E-01 -0.13883563545E-01 -0.14999475211E-01  0.10200164285E+01  0.10197360715E+01 0.  0.
     999903    2    3    3    0    0 -0.69905896010E-01 -0.74183211288E-01 -0.80912899175E-01  0.13167117776E+00  0.20010463885E-01 0.  0.
         14    1    1    2    0    0 -0.12414560353E-01  0.13883563545E-01  0.14999475211E-01  0.23913571504E-01  0.00000000000E+00 0. -1.
     999901    1    3    3    0    0  0.82320456363E-01  0.60299647743E-01  0.65913423964E-01  0.88834525074E+00  0.88000000000E+00 0.  1.
        -11    1    4    4    0    0 -0.24105039840E-01 -0.15702208353E-01 -0.30296608662E-01  0.41782267893E-01  0.51100000000E-03 0. -1.
         11    1    4    4    0    0 -0.45800856170E-01 -0.58481002935E-01 -0.50616290513E-01  0.89888909864E-01  0.51100000000E-03 0.  1.
</event>
<event>
 8    1  0.1123470E+005  0.1043930E+01  0.7957747E-01            NaN
         13   -1    0    0    0    0  0.00000000000E+00  0.00000000000E+00  0.74505805969E-08  0.10566000000E+00  0.10566000000E+00 0. -1.
     999900   -1    0    0    0    0 -0.00000000000E+00 -0.00000000000E+00 -0.74505805969E-08  0.93827000000E+00  0.93827000000E+00 0. -1.
     999902    2    1    2    0    0 -0.11577934631E-01  0.10131929853E-01 -0.57697786202E-02  0.10274984779E+01  0.10273670849E+01 0.  0.
     999903    2    3    3    0    0 -0.78293418189E-01  0.10354053309E+00 -0.45989422312E-01  0.13913270716E+00  0.19808632284E-01 0.  0.
         14    1    1    2    0    0  0.11577934631E-01 -0.10131929853E-01  0.57697786202E-02  0.16431522090E-01  0.00000000000E+00 0.  1.
     999901    1    3    3    0    0  0.66715483558E-01 -0.93408603234E-01  0.40219643692E-01  0.88836577075E+00  0.88000000000E+00 0.  1.
        -11    1    4    4    0    0 -0.62830901799E-01  0.72383447045E-01 -0.39868622493E-01  0.10381162655E+00  0.51100000000E-03 0.  1.
         11    1    4    4    0    0 -0.15462516390E-01  0.31157086043E-01 -0.61207998192E-02  0.35321080606E-01  0.51100000000E-03 0. -1.
</event>
<event>
 8    1  0.1123470E+005  0.1043930E+01  0.7957747E-01            NaN
         13   -1    0    0    0    0  0.00000000000E+00  0.00000000000E+00  0.74505805969E-08  0.10566000000E+00  0.10566000000E+00 0.  1.
     999900   -1    0    0    0    0 -0.00000000000E+00 -0.00000000000E+00 -0.74505805969E-08  0.93827000000E+00  0.93827000000E+00 0. -1.
     999902    2    1    2    0    0 -0.18694859661E-01 -0.78706640985E-02  0.12901474584E-01  0.10198905912E+01  0.10196072404E+01 0.  0.
     999903    2    3    3    0    0  0.72263726297E-01  0.99397261754E-01  0.28210818035E-01  0.12859139993E+00  0.25259376483E-01 0.  0.
         14    1    1    2    0    0  0.18694859661E-01  0.78706640985E-02 -0.12901474584E-01  0.24039408844E-01  0.00000000000E+00 0. -1.
     999901    1    3    3    0    0 -0.90958585958E-01 -0.10726792585E+00 -0.15309343451E-01  0.89129919122E+00  0.88000000000E+00 0.  1.
        -11    1    4    4    0    0  0.12765840398E-01  0.33923120368E-01  0.19348058272E-02  0.36300817776E-01  0.51100000000E-03 0. -1.
         11    1    4    4    0    0  0.59497885899E-01  0.65474141386E-01  0.26276012208E-01  0.92290582159E-01  0.51100000000E-03 0.  1.
</event>
<event>
 8    1  0.1123470E+005  0.1043930E+01  0.7957747E-01            NaN
         13   -1    0    0    0    0  0.00000000000E+00  0.00000000000E+00  0.74505805969E-08  0.10566000000E+00  0.10566000000E+00 0. -1.
     999900   -1    0    0    0    0 -0.00000000000E+00 -0.00000000000E+00 -0.74505805969E-08  0.93827000000E+00  0.93827000000E+00 0.  1.
     999902    2    1    2    0    0  0.32725635056E-04 -0.18404892770E-01 -0.14612387577E-01  0.10204297230E+01  0.10201590839E+01 0.  0.
     999903    2    3    3    0    0 -0.56909765114E-01 -0.11312866697E+00 -0.35931328778E-01  0.13326032659E+00  0.20746990127E-01 0.  0.
         14    1    1    2    0    0 -0.32725635056E-04  0.18404892770E-01  0.14612387577E-01  0.23500277010E-01  0.00000000000E+00 0. -1.
     999901    1    3    3    0    0  0.56942490749E-01  0.94723774202E-01  0.21318941201E-01  0.88716939640E+00  0.88000000000E+00 0. -1.
        -11    1    4    4    0    0 -0.35139075506E-01 -0.58031349135E-01 -0.28367091053E-01  0.73534652278E-01  0.51100000000E-03 0. -1.
         11    1    4    4    0    0 -0.21770689608E-01 -0.55097317837E-01 -0.75642377250E-02  0.59725674313E-01  0.51100000000E-03 0.  1.
</event>
<event>
 8    1  0.1123470E+005  0.1043930E+01  0.7957747E-01            NaN
         13   -1    0    0    0    0  0.00000000000E+00  0.00000000000E+00  0.74505805969E-08  0.10566000000E+00  0.10566000000E+00 0. -1.
     999900   -1    0    0    0    0 -0.00000000000E+00 -0.00000000000E+00 -0.74505805969E-08  0.93827000000E+00  0.93827000000E+00 0.  1.
     999902    2    1    2    0    0 -0.17584638469E-01 -0.12172572792E-01 -0.10799887691E-01  0.10199711058E+01  0.10196896724E+01 0.  0.
     999903    2    3    3    0    0  0.45602806721E-01  0.10840660098E+00  0.45827611444E-01  0.12770507816E+00  0.19411591905E-01 0.  0.
         14    1    1    2    0    0  0.17584638469E-01  0.12172572792E-01  0.10799887691E-01  0.23958894227E-01  0.00000000000E+00 0. -1.
     999901    1    3    3    0    0 -0.63187445190E-01 -0.12057917377E+00 -0.56627499135E-01  0.89226602761E+00  0.88000000000E+00 0.  1.
        -11    1    4    4    0    0  0.28497715823E-01  0.65668622501E-01  0.37865679255E-01  0.80984928072E-01  0.51100000000E-03 0. -1.
         11    1    4    4    0    0  0.17105090898E-01  0.42737978477E-01  0.79619321887E-02  0.46720150086E-01  0.51100000000E-03 0.  1.
</event>
<event>
 8    1  0.1214431E+005  0.1043930E+01  0.7957747E-01            NaN
         13   -1    0    0    0    0  0.00000000000E+00  0.00000000000E+00  0.74505805969E-08  0.10566000000E+00  0.10566000000E+00 0.  1.
     999900   -1    0    0    0    0 -0.00000000000E+00 -0.00000000000E+00 -0.74505805969E-08  0.93827000000E+00  0.93827000000E+00 0.  1.
     999902    2    1    2    0    0  0.21495411072E-01 -0.15991721793E-01  0.55345331891E-02  0.10165727538E+01  0.10162045782E+01 0.  0.
     999903    2    3    3    0    0 -0.19884247830E-02 -0.52750020655E-01  0.11551524389E+00  0.12865472839E+00  0.20536529772E-01 0.  0.
         14    1    1    2    0    0 -0.21495411072E-01  0.15991721793E-01 -0.55345331891E-02  0.27357246219E-01  0.00000000000E+00 0. -1.
     999901    1    3    3    0    0  0.23483835855E-01  0.36758298862E-01 -0.10998071070E+00  0.88791802539E+00  0.88000000000E+00 0.  1.
        -11    1    4    4    0    0  0.83922188076E-02 -0.35110282321E-01  0.76632279377E-01  0.84710853052E-01  0.51100000000E-03 0.  1.
         11    1    4    4    0    0 -0.10380643591E-01 -0.17639738335E-01  0.38882964512E-01  0.43943875342E-01  0.51100000000E-03 0. -1.
</event>
<event>
 8    1  0.1123470E+005  0.1043930E+01  0.7957747E-01            NaN
         13   -1    0    0    0    0  0.00000000000E+00  0.00000000000E+00  0.74505805969E-08  0.10566000000E+00  0.10566000000E+00 0.  1.
     999900   -1    0    0    0    0 -0.00000000000E+00 -0.00000000000E+00 -0.74505805969E-08  0.93827000000E+00  0.93827000000E+00 0. -1.
     999902    2    1    2    0    0  0.22178559382E-01 -0.10573541912E-02 -0.10293679745E-01  0.10194562112E+01  0.10191624013E+01 0.  0.
     999903    2    3    3    0    0  0.32094686950E-01 -0.10839201887E+00  0.61002399746E-01  0.13001695486E+00  0.20105150848E-01 0.  0.
         14    1    1    2    0    0 -0.22178559382E-01  0.10573541912E-02  0.10293679745E-01  0.24473788771E-01  0.00000000000E+00 0.  1.
     999901    1    3    3    0    0 -0.99161275679E-02  0.10733466468E+00 -0.71296079491E-01  0.88943925637E+00  0.88000000000E+00 0. -1.
        -11    1    4    4    0    0  0.11400389156E-01 -0.22904605055E-01  0.60217451562E-02  0.26289015603E-01  0.51100000000E-03 0. -1.
         11    1    4    4    0    0  0.20694297793E-01 -0.85487413812E-01  0.54980654590E-01  0.10372793925E+00  0.51100000000E-03 0.  1.
</event>
<event>
 8    1  0.1123470E+005  0.1043930E+01  0.7957747E-01            NaN
         13   -1    0    0    0    0  0.00000000000E+00  0.00000000000E+00  0.74505805969E-08  0.10566000000E+00  0.10566000000E+00 0. -1.
     999900   -1    0    0    0    0 -0.00000000000E+00 -0.00000000000E+00 -0.74505805969E-08  0.93827000000E+00  0.93827000000E+00 0. -1.
     999902    2    1    2    0    0  0.15609611630E-02 -0.13779236009E-01 -0.19190946559E-01  0.10202530835E+01  0.10199783125E+01 0.  0.
     999903    2    3    3    0    0 -0.74289815596E-01 -0.50702337962E-01 -0.95834231697E-01  0.13290261782E+00  0.19728205275E-01 0.  0.
         14    1    1    2    0    0 -0.15609611630E-02  0.13779236009E-01  0.19190946559E-01  0.23676916492E-01  0.00000000000E+00 0. -1.
     999901    1    3    3    0    0  0.75850776759E-01  0.36923101953E-01  0.76643285139E-01  0.88735046568E+00  0.88000000000E+00 0.  1.
        -11    1    4    4    0    0 -0.44833056727E-01 -0.31868288512E-01 -0.71900545901E-01  0.90529224066E-01  0.51100000000E-03 0.  1.
         11    1    4    4    0    0 -0.29456758869E-01 -0.18834049450E-01 -0.23933685796E-01  0.42373393758E-01  0.51100000000E-03 0. -1.
</event>
<event>
 7    1  0.1123470E+005  0.1043930E+01  0.7957747E-01            NaN
         13   -1    0    0    0    0  0.00000000000E+00  0.00000000000E+00  0.74505805969E-08  0.10566000000E+00  0.10566000000E+00 0.  1.
     999900   -1    0    0    0    0 -0.00000000000E+00 -0.00000000000E+00 -0.74505805969E-08  0.93827000000E+00  0.93827000000E+00 0.  1.
     999903    2    1    2    0    0 -0.34144585707E-01 -0.91786754800E-01 -0.58344624047E-01  0.11562112451E+00  0.19325842488E-01 0.  0.
         14    1    1    2    0    0  0.25114485909E-01  0.27899576445E-01 -0.19895231587E-01  0.42484632612E-01  0.00000000000E+00 0. -1.
     999901    1    1    2    0    0  0.90300997984E-02  0.63887178355E-01  0.78239855634E-01  0.88582424288E+00  0.88000000000E+00 0. -1.
        -11    1    3    3    0    0 -0.20908716616E-01 -0.41605244915E-01 -0.37110394733E-01  0.59545053138E-01  0.51100000000E-03 0. -1.
         11    1    3    3    0    0 -0.13235869091E-01 -0.50181509885E-01 -0.21234229314E-01  0.56076071372E-01  0.51100000000E-03 0.  1.
</event>
<event>
 8    1  0.1123470E+005  0.1043930E+01  0.7957747E-01            NaN
         13   -1    0    0    0    0  0.00000000000E+00  0.00000000000E+00  0.74505805969E-08  0.10566000000E+00  0.10566000000E+00 0.  1.
     999900   -1    0    0    0    0 -0.00000000000E+00 -0.00000000000E+00 -0.74505805969E-08  0.93827000000E+00  0.93827000000E+00 0. -1.
     999902    2    1    2    0    0  0.15751526175E-01  0.17359357102E-01 -0.64162161216E-02  0.10196272083E+01  0.10193375389E+01 0.  0.
     999903    2    3    3    0    0  0.15628871856E-01 -0.11737283489E+00  0.43012031248E-01  0.12800176549E+00  0.22666564166E-01 0.  0.
         14    1    1    2    0    0 -0.15751526175E-01 -0.17359357102E-01  0.64162161216E-02  0.24302791716E-01  0.00000000000E+00 0.  1.
     999901    1    3    3    0    0  0.12265431995E-03  0.13473219199E+00 -0.49428247370E-01  0.89162544280E+00  0.88000000000E+00 0. -1.
        -11    1    4    4    0    0 -0.41124215412E-02 -0.33901452228E-01  0.64432893891E-02  0.34756259483E-01  0.51100000000E-03 0.  1.
         11    1    4    4    0    0  0.19741293397E-01 -0.83471382660E-01  0.36568741859E-01  0.93245506006E-01  0.51100000000E-03 0. -1.
</event>
<event>
 8    1  0.1123470E+005  0.1043930E+01  0.7957747E-01            NaN
         13   -1    0    0    0    0  0.00000000000E+00  0.00000000000E+00  0.74505805969E-08  0.10566000000E+00  0.10566000000E+00 0. -1.
     999900   -1    0    0    0    0 -0.00000000000E+00 -0.00000000000E+00 -0.74505805969E-08  0.93827000000E+00  0.93827000000E+00 0.  1.
     999902    2    1    2    0    0  0.40252919271E-02  0.22947142856E-01  0.57274011705E-02  0.10199388044E+01  0.10196566027E+01 0.  0.
     999903    2    3    3    0    0  0.54118104367E-01 -0.64769284710E-01 -0.94761648690E-01  0.12847847965E+00  0.20077853709E-01 0.  0.
         14    1    1    2    0    0 -0.40252919271E-02 -0.22947142856E-01 -0.57274011705E-02  0.23991195562E-01  0.00000000000E+00 0.  1.
     999901    1    3    3    0    0 -0.50092812439E-01  0.87716427566E-01  0.10048904986E+00  0.89146032478E+00  0.88000000000E+00 0. -1.
        -11    1    4    4    0    0  0.41041255675E-01 -0.34153241916E-01 -0.60798410355E-01  0.80916848823E-01  0.51100000000E-03 0.  1.
         11    1    4    4    0    0  0.13076848692E-01 -0.30616042794E-01 -0.33963238334E-01  0.47561630830E-01  0.51100000000E-03 0. -1.
</event>
<event>
 8    1  0.1123470E+005  0.1043930E+01  0.7957747E-01            NaN
         13   -1    0    0    0    0  0.00000000000E+00  0.00000000000E+00  0.74505805969E-08  0.10566000000E+00  0.10566000000E+00 0. -1.
     999900   -1    0    0    0    0 -0.00000000000E+00 -0.00000000000E+00 -0.74505805969E-08  0.93827000000E+00  0.93827000000E+00 0. -1.
     999902    2    1    2    0    0  0.91105266346E-03 -0.20545977330E-01  0.13242895015E-01  0.10194689806E+01  0.10191754809E+01 0.  0.
     999903    2    3    3    0    0  0.77540107805E-02 -0.34587283294E-01 -0.12237149859E+00  0.12894371533E+00  0.19881981958E-01 0.  0.
         14    1    1    2    0    0 -0.91105266346E-03  0.20545977330E-01 -0.13242895015E-01  0.24461019393E-01  0.00000000000E+00 0.  1.
     999901    1    3    3    0    0 -0.68429581170E-02  0.14041305964E-01  0.13561439360E+00  0.89052526528E+00  0.88000000000E+00 0.  1.
        -11    1    4    4    0    0 -0.51641408947E-02 -0.21242086849E-01 -0.59840940154E-01  0.63711018234E-01  0.51100000000E-03 0.  1.
         11    1    4    4    0    0  0.12918151675E-01 -0.13345196445E-01 -0.62530558435E-01  0.65232697093E-01  0.51100000000E-03 0. -1.
</event>
<event>
 8    1  0.1123470E+005  0.1043930E+01  0.7957747E-01            NaN
         13   -1    0    0    0    0  0.00000000000E+00  0.00000000000E+00  0.74505805969E-08  0.10566000000E+00  0.10566000000E+00 0. -1.
     999900   -1    0    0    0    0 -0.00000000000E+00 -0.00000000000E+00 -0.74505805969E-08  0.93827000000E+00  0.93827000000E+00 0. -1.
     999902    2    1    2    0    0 -0.11485151356E-01  0.16156134511E-01 -0.99093466306E-02  0.10217686703E+01  0.10215283114E+01 0.  0.
     999903    2    3    3    0    0  0.39936462355E-01 -0.11700378669E+00 -0.31712886202E-01  0.13000012335E+00  0.24688414160E-01 0.  0.
         14    1    1    2    0    0  0.11485151356E-01 -0.16156134511E-01  0.99093466306E-02  0.22161329713E-01  0.00000000000E+00 0. -1.
     999901    1    3    3    0    0 -0.51421613711E-01  0.13315992120E+00  0.21803539572E-01  0.89176854694E+00  0.88000000000E+00 0. -1.
        -11    1    4    4    0    0  0.27745756927E-01 -0.73678409166E-01 -0.80313361773E-02  0.79139740247E-01  0.51100000000E-03 0.  1.
         11    1    4    4    0    0  0.12190705428E-01 -0.43325377526E-01 -0.23681550025E-01  0.50860383101E-01  0.51100000000E-03 0. -1.
</event>
<event>
 8    1  0.1123470E+005  0.1043930E+01  0.7957747E-01            NaN
         13   -1    0    0    0    0  0.00000000000E+00  0.00000000000E+00  0.74505805969E-08  0.10566000000E+00  0.10566000000E+00 0.  1.
     999900   -1    0    0    0    0 -0.00000000000E+00 -0.00000000000E+00 -0.74505805969E-08  0.93827000000E+00  0.93827000000E+00 0. -1.
     999902    2    1    2    0    0 -0.96230564200E-02 -0.17335431759E-01  0.10967747637E-01  0.10212714057E+01  0.10210200155E+01 0.  0.
     999903    2    3    3    0    0  0.27448832220E-01  0.94300716667E-01 -0.80769787223E-01  0.12871735695E+00  0.19958354117E-01 0.  0.
         14    1    1    2    0    0  0.96230564200E-02  0.17335431759E-01 -0.10967747637E-01  0.22658594338E-01  0.00000000000E+00 0. -1.
     999901    1    3    3    0    0 -0.37071888640E-01 -0.11163614843E+00  0.91737534860E-01  0.89255404871E+00  0.88000000000E+00 0.  1.
        -11    1    4    4    0    0  0.14452976456E-01  0.21738374167E-01 -0.16261968046E-01  0.30759684094E-01  0.51100000000E-03 0.  1.
         11    1    4    4    0    0  0.12995855765E-01  0.72562342500E-01 -0.64507819177E-01  0.97957672860E-01  0.51100000000E-03 0. -1.
</event>
<event>
 8    1  0.1123470E+005  0.1043930E+01  0.7957747E-01            NaN
         13   -1    0    0    0    0  0.00000000000E+00  0.00000000000E+00  0.74505805969E-08  0.10566000000E+00  0.10566000000E+00 0.  1.
     999900   -1    0    0    0    0 -0.00000000000E+00 -0.00000000000E+00 -0.74505805969E-08  0.93827000000E+00  0.93827000000E+00 0. -1.
     999902    2    1    2    0    0  0.16763520280E-01  0.11885548670E-01 -0.70760105237E-03  0.10233683226E+01  0.10231617375E+01 0.  0.
     999903    2    3    3    0    0  0.37857731131E-01 -0.78061267578E-01  0.98805124730E-01  0.13295371236E+00  0.19684198119E-01 0.  0.
         14    1    1    2    0    0 -0.16763520280E-01 -0.11885548670E-01  0.70760105237E-03  0.20561677427E-01  0.00000000000E+00 0. -1.
     999901    1    3    3    0    0 -0.21094210851E-01  0.89946816248E-01 -0.99512725783E-01  0.89041461021E+00  0.88000000000E+00 0. -1.
        -11    1    4    4    0    0  0.11301104268E-01 -0.78361049912E-02  0.17896187437E-01  0.22575520921E-01  0.51100000000E-03 0. -1.
         11    1    4    4    0    0  0.26556626863E-01 -0.70225162586E-01  0.80908937294E-01  0.11037819144E+00  0.51100000000E-03 0.  1.
</event>
<event>
 8    1  0.1123470E+005  0.1043930E+01  0.7957747E-01            NaN
         13   -1    0    0    0    0  0.00000000000E+00  0.00000000000E+00  0.74505805969E-08  0.10566000000E+00  0.10566000000E+00 0.  1.
     999900   -1    0    0    0    0 -0.00000000000E+00 -0.00000000000E+00 -0.74505805969E-08  0.93827000000E+00  0.93827000000E+00 0. -1.
     999902    2    1    2    0    0  0.17548934108E-01 -0.15890264921E-01 -0.39737585274E-02  0.10199246597E+01  0.10196421211E+01 0.  0.
     999903    2    3    3    0    0  0.21340629653E-01  0.11623969067E+00 -0.47878915386E-01  0.12896991058E+00  0.19332851255E-01 0.  0.
         14    1    1    2    0    0 -0.17548934108E-01  0.15890264921E-01  0.39737585274E-02  0.24005340331E-01  0.00000000000E+00 0.  1.
     999901    1    3    3    0    0 -0.37916955454E-02 -0.13212995559E+00  0.43905156858E-01  0.89095474908E+00  0.88000000000E+00 0. -1.
        -11    1    4    4    0    0  0.61568255808E-02  0.68096250359E-01 -0.19714374203E-01  0.71161249887E-01  0.51100000000E-03 0.  1.
         11    1    4    4    0    0  0.15183804073E-01  0.48143440306E-01 -0.28164541182E-01  0.57808660697E-01  0.51100000000E-03 0. -1.
</event>
<event>
 8    1  0.1123470E+005  0.1043930E+01  0.7957747E-01            NaN
         13   -1    0    0    0    0  0.00000000000E+00  0.00000000000E+00  0.74505805969E-08  0.10566000000E+00  0.10566000000E+00 0. -1.
     999900   -1    0    0    0    0 -0.00000000000E+00 -0.00000000000E+00 -0.74505805969E-08  0.93827000000E+00  0.93827000000E+00 0. -1.
     999902    2    1    2    0    0  0.98596499612E-02 -0.18784467725E-01  0.86839742064E-02  0.10210066422E+01  0.10207492753E+01 0.  0.
     999903    2    3    3    0    0  0.56682737512E-01 -0.65980886030E-01 -0.97379169193E-01  0.13214822050E+00  0.20347961464E-01 0.  0.
         14    1    1    2    0    0 -0.98596499612E-02  0.18784467725E-01 -0.86839742064E-02  0.22923357805E-01  0.00000000000E+00 0.  1.
     999901    1    3    3    0    0 -0.46823087550E-01  0.47196418305E-01  0.10606314340E+00  0.88885842169E+00  0.88000000000E+00 0.  1.
        -11    1    4    4    0    0  0.92992677151E-02 -0.25869360929E-02 -0.15517229135E-01  0.18281524538E-01  0.51100000000E-03 0. -1.
         11    1    4    4    0    0  0.47383469797E-01 -0.63393949937E-01 -0.81861940057E-01  0.11386669596E+00  0.51100000000E-03 0.  1.
</event>
<event>
 8    1  0.1123470E+005  0.1043930E+01  0.7957747E-01            NaN
         13   -1    0    0    0    0  0.00000000000E+00  0.00000000000E+00  0.74505805969E-08  0.10566000000E+00  0.10566000000E+00 0. -1.
     999900   -1    0    0    0    0 -0.00000000000E+00 -0.00000000000E+00 -0.74505805969E-08  0.93827000000E+00  0.93827000000E+00 0.  1.
     999902    2    1    2    0    0 -0.46877076866E-02  0.24644696969E-01  0.43448728484E-02  0.10184699605E+01  0.10181516816E+01 0.  0.
     999903    2    3    3    0    0  0.80384249160E-01 -0.94592923006E-01 -0.10848725041E-01  0.12623361664E+00  0.20193626204E-01 0.  0.
         14    1    1    2    0    0  0.46877076866E-02 -0.24644696969E-01 -0.43448728484E-02  0.25460039515E-01  0.00000000000E+00 0. -1.
     999901    1    3    3    0    0 -0.85071956847E-01  0.11923761998E+00  0.15193597890E-01  0.89223634384E+00  0.88000000000E+00 0.  1.
        -11    1    4    4    0    0  0.31221505640E-01 -0.51614963708E-01 -0.22424759773E-02  0.60367016760E-01  0.51100000000E-03 0. -1.
         11    1    4    4    0    0  0.49162743520E-01 -0.42977959298E-01 -0.86062490641E-02  0.65866599880E-01  0.51100000000E-03 0.  1.
</event>
<event>
 8    1  0.1123470E+005  0.1043930E+01  0.7957747E-01            NaN
         13   -1    0    0    0    0  0.00000000000E+00  0.00000000000E+00  0.74505805969E-08  0.10566000000E+00  0.10566000000E+00 0.  1.
     999900   -1    0    0    0    0 -0.00000000000E+00 -0.00000000000E+00 -0.74505805969E-08  0.93827000000E+00  0.93827000000E+00 0. -1.
     999902    2    1    2    0    0  0.17681549302E-01 -0.14248456814E-01  0.49219778646E-02  0.10206946482E+01  0.10204301462E+01 0.  0.
     999903    2    3    3    0    0  0.52565219131E-01  0.64166093154E-01  0.99782796096E-01  0.13144536543E+00  0.20997331334E-01 0.  0.
         14    1    1    2    0    0 -0.17681549302E-01  0.14248456814E-01 -0.49219778646E-02  0.23235351803E-01  0.00000000000E+00 0. -1.
     999901    1    3    3    0    0 -0.34883669829E-01 -0.78414549968E-01 -0.94860818232E-01  0.88924928277E+00  0.88000000000E+00 0. -1.
        -11    1    4    4    0    0  0.57065875570E-02  0.30959888904E-02  0.17960049869E-01  0.19104313677E-01  0.51100000000E-03 0.  1.
         11    1    4    4    0    0  0.46858631574E-01  0.61070104264E-01  0.81822746227E-01  0.11234105175E+00  0.51100000000E-03 0. -1.
</event>
<event>
 8    1  0.1123470E+005  0.1043930E+01  0.7957747E-01            NaN
         13   -1    0    0    0    0  0.00000000000E+00  0.00000000000E+00  0.74505805969E-08  0.10566000000E+00  0.10566000000E+00 0.  1.
     999900   -1    0    0    0    0 -0.00000000000E+00 -0.00000000000E+00 -0.74505805969E-08  0.93827000000E+00  0.93827000000E+00 0. -1.
     999902    2    1    2    0    0  0.22045950843E-01 -0.37682743945E-02  0.96276320800E-02  0.10195801511E+01  0.10192893453E+01 0.  0.
     999903    2    3    3    0    0  0.64698203145E-01 -0.10088197347E+00  0.51880608973E-01  0.13220447013E+00  0.20576546665E-01 0.  0.
         14    1    1    2    0    0 -0.22045950843E-01  0.37682743945E-02 -0.96276320800E-02  0.24349848869E-01  0.00000000000E+00 0.  1.
     999901    1    3    3    0    0 -0.42652252303E-01  0.97113699080E-01 -0.42252976893E-01  0.88737568100E+00  0.88000000000E+00 0. -1.
        -11    1    4    4    0    0  0.40922718991E-01 -0.45238307747E-01  0.23596270049E-01  0.65408091997E-01  0.51100000000E-03 0. -1.
         11    1    4    4    0    0  0.23775484154E-01 -0.55643665728E-01  0.28284338924E-01  0.66796378133E-01  0.51100000000E-03 0.  1.
</event>
<event>
 8    1  0.1123470E+005  0.1043930E+01  0.7957747E-01            NaN
         13   -1    0    0    0    0  0.00000000000E+00  0.00000000000E+00  0.74505805969E-08  0.10566000000E+00  0.10566000000E+00 0.  1.
     999900   -1    0    0    0    0 -0.00000000000E+00 -0.00000000000E+00 -0.74505805969E-08  0.93827000000E+00  0.93827000000E+00 0. -1.
     999902    2    1    2    0    0  0.19765379936E-01 -0.56063655557E-02 -0.13520343509E-01  0.10193352594E+01  0.10190385026E+01 0.  0.
     999903    2    3    3    0    0 -0.20019526699E-02  0.12650526887E+00  0.13202433394E-01  0.12880653577E+00  0.20229398019E-01 0.  0.
         14    1    1    2    0    0 -0.19765379936E-01  0.56063655557E-02  0.13520343509E-01  0.24594740644E-01  0.00000000000E+00 0.  1.
     999901    1    3    3    0    0  0.21767332606E-01 -0.13211163443E+00 -0.26722776903E-01  0.89052872358E+00  0.88000000000E+00 0.  1.
        -11    1    4    4    0    0 -0.14147767295E-02  0.49894382449E-01  0.15154719951E-01  0.52166825195E-01  0.51100000000E-03 0.  1.
         11    1    4    4    0    0 -0.58717594033E-03  0.76610886421E-01 -0.19522865566E-02  0.76639710579E-01  0.51100000000E-03 0. -1.
</event>
<event>
 8    1  0.1123470E+005  0.1043930E+01  0.7957747E-01            NaN
         13   -1    0    0    0    0  0.00000000000E+00  0.00000000000E+00  0.74505805969E-08  0.10566000000E+00  0.10566000000E+00 0.  1.
     999900   -1    0    0    0    0 -0.00000000000E+00 -0.00000000000E+00 -0.74505805969E-08  0.93827000000E+00  0.93827000000E+00 0.  1.
     999902    2    1    2    0    0 -0.79541071937E-02 -0.22216502399E-01  0.45011455355E-02  0.10199070711E+01  0.10196241134E+01 0.  0.
     999903    2    3    3    0    0 -0.39225826856E-02  0.71225507965E-01 -0.10551545941E+00  0.12813842633E+00  0.14052917437E-01 0.  0.
         14    1    1    2    0    0  0.79541071937E-02  0.22216502399E-01 -0.45011455355E-02  0.24022928864E-01  0.00000000000E+00 0. -1.
     999901    1    3    3    0    0 -0.40315245082E-02 -0.93442010364E-01  0.11001660495E+00  0.89176864480E+00  0.88000000000E+00 0. -1.
        -11    1    4    4    0    0 -0.41465168134E-02  0.57148812556E-02 -0.12539274852E-01  0.14399583475E-01  0.51100000000E-03 0.  1.
         11    1    4    4    0    0  0.22393412786E-03  0.65510626709E-01 -0.92976184559E-01  0.11373884286E+00  0.51100000000E-03 0. -1.
</event>
<event>
 8    1  0.1123470E+005  0.1043930E+01  0.7957747E-01            NaN
         13   -1    0    0    0    0  0.00000000000E+00  0.00000000000E+00  0.74505805969E-08  0.10566000000E+00  0.10566000000E+00 0.  1.
     999900   -1    0    0    0    0 -0.00000000000E+00 -0.00000000000E+00 -0.74505805969E-08  0.93827000000E+00  0.93827000000E+00 0.  1.
     999902    2    1    2    0    0 -0.11040412687E-01  0.20316907518E-01 -0.23283248228E-02  0.10206901949E+01  0.10204255904E+01 0.  0.
     999903    2    3    3    0    0 -0.36459510959E-01  0.41686169900E-01  0.11674086823E+00  0.13205064558E+00  0.27238024574E-01 0.  0.
         14    1    1    2    0    0  0.11040412687E-01 -0.20316907518E-01  0.23283248228E-02  0.23239805074E-01  0.00000000000E+00 0. -1.
     999901    1    3    3    0    0  0.25419098272E-01 -0.21369262382E-01 -0.11906919305E+00  0.88863954935E+00  0.88000000000E+00 0.  1.
        -11    1    4    4    0    0 -0.39609542125E-01  0.41123486491E-01  0.10140018022E+00  0.11637145113E+00  0.51100000000E-03 0. -1.
         11    1    4    4    0    0  0.31500311665E-02  0.56268340948E-03  0.15340688010E-01  0.15679194450E-01  0.51100000000E-03 0.  1.
</event>
<event>
 8    1  0.1123470E+005  0.1043930E+01  0.7957747E-01            NaN
         13   -1    0    0    0    0  0.00000000000E+00  0.00000000000E+00  0.74505805969E-08  0.10566000000E+00  0.10566000000E+00 0.  1.
     999900   -1    0    0    0    0 -0.00000000000E+00 -0.00000000000E+00 -0.74505805969E-08  0.93827000000E+00  0.93827000000E+00 0.  1.
     999902    2    1    2    0    0  0.16774549443E-01 -0.15147160188E-01  0.61960000787E-02  0.10204947192E+01  0.10202255924E+01 0.  0.
     999903    2    3    3    0    0  0.51718909712E-01 -0.87172116506E-01  0.84287736678E-01  0.13341691989E+00  0.20538462459E-01 0.  0.
         14    1    1    2    0    0 -0.16774549443E-01  0.15147160188E-01 -0.61960000787E-02  0.23435280834E-01  0.00000000000E+00 0.  1.
     999901    1    3    3    0    0 -0.34944360270E-01  0.72024956318E-01 -0.78091736599E-01  0.88707779928E+00  0.88000000000E+00 0.  1.
        -11    1    4    4    0    0  0.29638565839E-01 -0.32220897273E-01  0.29981836078E-01  0.53064134985E-01  0.51100000000E-03 0.  1.
         11    1    4    4    0    0  0.22080343874E-01 -0.54951219233E-01  0.54305900600E-01  0.80352784904E-01  0.51100000000E-03 0. -1.
</event>
<event>
 8    1  0.1123470E+005  0.1043930E+01  0.7957747E-01            NaN
         13   -1    0    0    0    0  0.00000000000E+00  0.00000000000E+00  0.74505805969E-08  0.10566000000E+00  0.10566000000E+00 0. -1.
     999900   -1    0    0    0    0 -0.00000000000E+00 -0.00000000000E+00 -0.74505805969E-08  0.93827000000E+00  0.93827000000E+00 0. -1.
     999902    2    1    2    0    0 -0.22757954465E-01 -0.27333414742E-02  0.20792491747E-02  0.10209143765E+01  0.10206549100E+01 0.  0.
     999903    2    3    3    0    0  0.23665786872E-02  0.76787206334E-01 -0.10385225843E+00  0.13064686392E+00  0.19530379418E-01 0.  0.
         14    1    1    2    0    0  0.22757954465E-01  0.27333414742E-02 -0.20792491747E-02  0.23015623480E-01  0.00000000000E+00 0. -1.
     999901    1    3    3    0    0 -0.25124533152E-01 -0.79520547808E-01  0.10593150760E+00  0.89026751260E+00  0.88000000000E+00 0.  1.
        -11    1    4    4    0    0 -0.61237956736E-02  0.52208996295E-01 -0.61073676850E-01  0.80582475096E-01  0.51100000000E-03 0.  1.
         11    1    4    4    0    0  0.84903743608E-02  0.24578210039E-01 -0.42778581577E-01  0.50064388823E-01  0.51100000000E-03 0. -1.
</event>
<event>
 8    1  0.1123470E+005  0.1043930E+01  0.7957747E-01            NaN
         13   -1    0    0    0    0  0.00000000000E+00  0.00000000000E+00  0.74505805969E-08  0.10566000000E+00  0.10566000000E+00 0. -1.
     999900   -1    0    0    0    0 -0.00000000000E+00 -0.00000000000E+00 -0.74505805969E-08  0.93827000000E+00  0.93827000000E+00 0. -1.
     999902    2    1    2    0    0 -0.10568401170E-01  0.18831528535E-01 -0.11064062285E-01  0.10196662195E+01  0.10193774905E+01 0.  0.
     999903    2    3    3    0    0  0.27677818058E-01 -0.12087899351E+00 -0.23800082737E-01  0.12773348129E+00  0.19277075031E-01 0.  0.
         14    1    1    2    0    0  0.10568401170E-01 -0.18831528535E-01  0.11064062285E-01  0.24263780507E-01  0.00000000000E+00 0. -1.
     999901    1    3    3    0    0 -0.38246219227E-01  0.13971052204E+00  0.12736020452E-01  0.89193273820E+00  0.88000000000E+00 0.  1.
        -11    1    4    4    0    0  0.17670239484E-01 -0.10575026150E+00 -0.22404929524E-01  0.10953354354E+00  0.51100000000E-03 0.  1.
         11    1    4    4    0    0  0.10007578574E-01 -0.15128732001E-01 -0.13951532129E-02  0.18199937758E-01  0.51100000000E-03 0. -1.
</event>
<event>
 8    1  0.1123470E+005  0.1043930E+01  0.7957747E-01            NaN
         13   -1    0    0    0    0  0.00000000000E+00  0.00000000000E+00  0.74505805969E-08  0.10566000000E+00  0.10566000000E+00 0.  1.
     999900   -1    0    0    0    0 -0.00000000000E+00 -0.00000000000E+00 -0.74505805969E-08  0.93827000000E+00  0.93827000000E+00 0.  1.
     999902    2    1    2    0    0  0.19248268426E-01 -0.12532022145E-01 -0.48155175702E-02  0.10204622215E+01  0.10201923392E+01 0.  0.
     999903    2    3    3    0    0 -0.20784624579E-01 -0.82358232625E-01  0.97591801767E-01  0.13087490641E+00  0.19728209610E-01 0.  0.
         14    1    1    2    0    0 -0.19248268426E-01  0.12532022145E-01  0.48155175702E-02  0.23467778461E-01  0.00000000000E+00 0.  1.
     999901    1    3    3    0    0  0.40032893005E-01  0.69826210480E-01 -0.10240731934E+00  0.88958731513E+00  0.88000000000E+00 0.  1.
        -11    1    4    4    0    0  0.29286306720E-02 -0.23763622536E-01  0.25079674479E-01  0.34677627177E-01  0.51100000000E-03 0.  1.
         11    1    4    4    0    0 -0.23713255251E-01 -0.58594610089E-01  0.72512127288E-01  0.96197279228E-01  0.51100000000E-03 0. -1.
</event>
<event>
 8    1  0.1123470E+005  0.1043930E+01  0.7957747E-01            NaN
         13   -1    0    0    0    0  0.00000000000E+00  0.00000000000E+00  0.74505805969E-08  0.10566000000E+00  0.10566000000E+00 0. -1.
     999900   -1    0    0    0    0 -0.00000000000E+00 -0.00000000000E+00 -0.74505805969E-08  0.93827000000E+00  0.93827000000E+00 0. -1.
     999902    2    1    2    0    0  0.28429258708E-01 -0.13785526302E-01 -0.18662326552E-01  0.10072346881E+01  0.10065660291E+01 0.  0.
     999903    2    3    3    0    0 -0.22463152313E-01 -0.69716720411E-01  0.89652051931E-01  0.11737495722E+00  0.19348794576E-01 0.  0.
         14    1    1    2    0    0 -0.28429258708E-01  0.13785526302E-01  0.18662326552E-01  0.36695311941E-01  0.00000000000E+00 0.  1.
     999901    1    3    3    0    0  0.50892411020E-01  0.55931194108E-01 -0.10831437848E+00  0.88985973083E+00  0.88000000000E+00 0. -1.
        -11    1    4    4    0    0 -0.18627329319E-02 -0.50678862662E-02  0.17536242227E-01  0.18355766332E-01  0.51100000000E-03 0.  1.
         11    1    4    4    0    0 -0.20600419381E-01 -0.64648834144E-01  0.72115809703E-01  0.99019190893E-01  0.51100000000E-03 0. -1.
</event>
<event>
 8    1  0.1123470E+005  0.1043930E+01  0.7957747E-01            NaN
         13   -1    0    0    0    0  0.00000000000E+00  0.00000000000E+00  0.74505805969E-08  0.10566000000E+00  0.10566000000E+00 0. -1.
     999900   -1    0    0    0    0 -0.00000000000E+00 -0.00000000000E+00 -0.74505805969E-08  0.93827000000E+00  0.93827000000E+00 0. -1.
     999902    2    1    2    0    0  0.10372440051E-02  0.95644509417E-02  0.22844068435E-01  0.10191427844E+01  0.10188413070E+01 0.  0.
     999903    2    3    3    0    0  0.22034518445E-01 -0.11475127671E+00 -0.46761247822E-01  0.12743645056E+00  0.20001478003E-01 0.  0.
         14    1    1    2    0    0 -0.10372440051E-02 -0.95644509417E-02 -0.22844068435E-01  0.24787215648E-01  0.00000000000E+00 0.  1.
     999901    1    3    3    0    0 -0.20997274439E-01  0.12431572766E+00  0.69605316257E-01  0.89170633379E+00  0.88000000000E+00 0.  1.
        -11    1    4    4    0    0  0.23749268892E-01 -0.83922757901E-01 -0.29587320651E-01  0.92101724907E-01  0.51100000000E-03 0.  1.
         11    1    4    4    0    0 -0.17147504479E-02 -0.30828518814E-01 -0.17173927171E-01  0.35334725651E-01  0.51100000000E-03 0. -1.
</event>
<event>
 8    1  0.1123470E+005  0.1043930E+01  0.7957747E-01            NaN
         13   -1    0    0    0    0  0.00000000000E+00  0.00000000000E+00  0.74505805969E-08  0.10566000000E+00  0.10566000000E+00 0. -1.
     999900   -1    0    0    0    0 -0.00000000000E+00 -0.00000000000E+00 -0.74505805969E-08  0.93827000000E+00  0.93827000000E+00 0. -1.
     999902    2    1    2    0    0  0.23279421523E-01 -0.50422674194E-02  0.78481912137E-03  0.10200978396E+01  0.10198194107E+01 0.  0.
     999903    2    3    3    0    0  0.42132951537E-01 -0.72558786046E-01 -0.99461852505E-01  0.13163662435E+00  0.19889135918E-01 0.  0.
         14    1    1    2    0    0 -0.23279421523E-01  0.50422674194E-02 -0.78481912137E-03  0.23832160377E-01  0.00000000000E+00 0. -1.
     999901    1    3    3    0    0 -0.18853530014E-01  0.67516518627E-01  0.10024667163E+00  0.88846121528E+00  0.88000000000E+00 0.  1.
        -11    1    4    4    0    0  0.41941975441E-01 -0.57830316393E-01 -0.80715124443E-01  0.10778992176E+00  0.51100000000E-03 0. -1.
         11    1    4    4    0    0  0.19097609589E-03 -0.14728469654E-01 -0.18746728061E-01  0.23846702586E-01  0.51100000000E-03 0.  1.
</event>
<event>
 8    1  0.1123470E+005  0.1043930E+01  0.7957747E-01            NaN
         13   -1    0    0    0    0  0.00000000000E+00  0.00000000000E+00  0.74505805969E-08  0.10566000000E+00  0.10566000000E+00 0.  1.
     999900   -1    0    0    0    0 -0.00000000000E+00 -0.00000000000E+00 -0.74505805969E-08  0.93827000000E+00  0.93827000000E+00 0. -1.
     999902    2    1    2    0    0  0.15936543171E-01 -0.13014137250E-01  0.10904801369E-01  0.10206436119E+01  0.10203779333E+01 0.  0.
     999903    2    3    3    0    0 -0.81304148624E-01  0.94529423621E-01  0.23616986383E-01  0.12868903389E+00  0.21375894953E-01 0.  0.
         14    1    1    2    0    0 -0.15936543171E-01  0.13014137250E-01 -0.10904801369E-01  0.23286388074E-01  0.00000000000E+00 0.  1.
     999901    1    3    3    0    0  0.97240691796E-01 -0.10754356087E+00 -0.12712185014E-01  0.89195457803E+00  0.88000000000E+00 0. -1.
        -11    1    4    4    0    0 -0.69375930383E-01  0.90183523370E-01  0.20630174014E-01  0.11563716014E+00  0.51100000000E-03 0. -1.
         11    1    4    4    0    0 -0.11928218241E-01  0.43459002505E-02  0.29868123683E-02  0.13051873755E-01  0.51100000000E-03 0.  1.
</event>
<event>
 8    1  0.1123470E+005  0.1043930E+01  0.7957747E-01            NaN
         13   -1    0    0    0    0  0.00000000000E+00  0.00000000000E+00  0.74505805969E-08  0.10566000000E+00  0.10566000000E+00 0. -1.
     999900   -1    0    0    0    0 -0.00000000000E+00 -0.00000000000E+00 -0.74505805969E-08  0.93827000000E+00  0.93827000000E+00 0. -1.
     999902    2    1    2    0    0  0.79774067633E-02  0.13511753693E-01 -0.17507024175E-01  0.10204203764E+01  0.10201495195E+01 0.  0.
     999903    2    3    3    0    0 -0.84293625817E-01  0.54682902030E-01  0.79021402396E-01  0.12939470671E+00  0.20074186393E-01 0.  0.
         14    1    1    2    0    0 -0.79774067633E-02 -0.13511753693E-01  0.17507024175E-01  0.23509623604E-01  0.00000000000E+00 0. -1.
     999901    1    3    3    0    0  0.92271032580E-01 -0.41171148337E-01 -0.96528426572E-01  0.89102566969E+00  0.88000000000E+00 0. -1.
        -11    1    4    4    0    0 -0.60130875890E-01  0.32106301576E-01  0.62244050397E-01  0.92309911531E-01  0.51100000000E-03 0.  1.
         11    1    4    4    0    0 -0.24162749927E-01  0.22576600454E-01  0.16777352000E-01  0.37084795175E-01  0.51100000000E-03 0. -1.
</event>
<event>
 8    1  0.1123470E+005  0.1043930E+01  0.7957747E-01            NaN
         13   -1    0    0    0    0  0.00000000000E+00  0.00000000000E+00  0.74505805969E-08  0.10566000000E+00  0.10566000000E+00 0.  1.
     999900   -1    0    0    0    0 -0.00000000000E+00 -0.00000000000E+00 -0.74505805969E-08  0.93827000000E+00  0.93827000000E+00 0. -1.
     999902    2    1    2    0    0 -0.15538855682E-01 -0.14035272596E-01 -0.13614947001E-02  0.10229467071E+01  0.10227314736E+01 0.  0.
     999903    2    3    3    0    0  0.90480351001E-01  0.91262076622E-01 -0.61347111983E-02  0.13033795321E+00  0.20853940140E-01 0.  0.
         14    1    1    2    0    0  0.15538855682E-01  0.14035272596E-01  0.13614947001E-02  0.20983292891E-01  0.00000000000E+00 0. -1.
     999901    1    3    3    0    0 -0.10601920668E+00 -0.10529734922E+00  0.47732164982E-02  0.89260875390E+00  0.88000000000E+00 0. -1.
        -11    1    4    4    0    0  0.43749917308E-01  0.33770392822E-01 -0.99136892426E-02  0.56151910486E-01  0.51100000000E-03 0.  1.
         11    1    4    4    0    0  0.46730433692E-01  0.57491683799E-01  0.37789780443E-02  0.74186042725E-01  0.51100000000E-03 0. -1.
</event>
<event>
 8    1  0.1123470E+005  0.1043930E+01  0.7957747E-01            NaN
         13   -1    0    0    0    0  0.00000000000E+00  0.00000000000E+00  0.74505805969E-08  0.10566000000E+00  0.10566000000E+00 0. -1.
     999900   -1    0    0    0    0 -0.00000000000E+00 -0.00000000000E+00 -0.74505805969E-08  0.93827000000E+00  0.93827000000E+00 0. -1.
     999902    2    1    2    0    0  0.20154004216E-01 -0.12958999752E-01 -0.33060192424E-02  0.10197422071E+01  0.10194553054E+01 0.  0.
     999903    2    3    3    0    0 -0.68039932395E-01  0.82802036987E-01 -0.66717606441E-01  0.12790737040E+00  0.20577819733E-01 0.  0.
         14    1    1    2    0    0 -0.20154004216E-01  0.12958999752E-01  0.33060192424E-02  0.24187792867E-01  0.00000000000E+00 0.  1.
     999901    1    3    3    0    0  0.88193936611E-01 -0.95761036739E-01  0.63411587199E-01  0.89183483673E+00  0.88000000000E+00 0. -1.
        -11    1    4    4    0    0 -0.29885746799E-01  0.49311941042E-01 -0.28260271000E-01  0.64216270750E-01  0.51100000000E-03 0. -1.
         11    1    4    4    0    0 -0.38154185596E-01  0.33490095945E-01 -0.38457335441E-01  0.63691099654E-01  0.51100000000E-03 0.  1.
</event>
<event>
 8    1  0.1123470E+005  0.1043930E+01  0.7957747E-01            NaN
         13   -1    0    0    0    0  0.00000000000E+00  0.00000000000E+00  0.74505805969E-08  0.10566000000E+00  0.10566000000E+00 0.  1.
     999900   -1    0    0    0    0 -0.00000000000E+00 -0.00000000000E+00 -0.74505805969E-08  0.93827000000E+00  0.93827000000E+00 0.  1.
     999902    2    1    2    0    0  0.43910930218E-02 -0.77924802526E-03  0.24128406552E-01  0.10193929071E+01  0.10190975567E+01 0.  0.
     999903    2    3    3    0    0 -0.31796887902E-01 -0.51145443578E-01  0.11609783420E+00  0.13242915404E+00  0.20781608568E-01 0.  0.
         14    1    1    2    0    0 -0.43910930218E-02  0.77924802526E-03 -0.24128406552E-01  0.24537092904E-01  0.00000000000E+00 0. -1.
     999901    1    3    3    0    0  0.36187980923E-01  0.50366195553E-01 -0.91969427646E-01  0.88696375306E+00  0.88000000000E+00 0.  1.
        -11    1    4    4    0    0 -0.18381164135E-01 -0.25135637305E-01  0.38659420153E-01  0.49643522692E-01  0.51100000000E-03 0. -1.
         11    1    4    4    0    0 -0.13415723767E-01 -0.26009806273E-01  0.77438414045E-01  0.82785631346E-01  0.51100000000E-03 0.  1.
</event>
<event>
 8    1  0.1123470E+005  0.1043930E+01  0.7957747E-01            NaN
         13   -1    0    0    0    0  0.00000000000E+00  0.00000000000E+00  0.74505805969E-08  0.10566000000E+00  0.10566000000E+00 0. -1.
     999900   -1    0    0    0    0 -0.00000000000E+00 -0.00000000000E+00 -0.74505805969E-08  0.93827000000E+00  0.93827000000E+00 0. -1.
     999902    2    1    2    0    0  0.83882245470E-02  0.11878969426E-01 -0.17883820760E-01  0.10208799833E+01  0.10206197318E+01 0.  0.
     999903    2    3    3    0    0  0.44571162875E-01  0.31355129955E-01  0.11612351213E+00  0.12978711993E+00  0.19755852205E-01 0.  0.
         14    1    1    2    0    0 -0.83882245470E-02 -0.11878969426E-01  0.17883820760E-01  0.23050016717E-01  0.00000000000E+00 0. -1.
     999901    1    3    3    0    0 -0.36182938328E-01 -0.19476160529E-01 -0.13400733289E+00  0.89109286335E+00  0.88000000000E+00 0. -1.
        -11    1    4    4    0    0  0.18899692019E-01  0.23675691091E-01  0.50352547581E-01  0.58765439469E-01  0.51100000000E-03 0. -1.
         11    1    4    4    0    0  0.25671470857E-01  0.76794388639E-02  0.65770964544E-01  0.71021680459E-01  0.51100000000E-03 0.  1.
</event>
<event>
 8    1  0.1123470E+005  0.1043930E+01  0.7957747E-01            NaN
         13   -1    0    0    0    0  0.00000000000E+00  0.00000000000E+00  0.74505805969E-08  0.10566000000E+00  0.10566000000E+00 0. -1.
     999900   -1    0    0    0    0 -0.00000000000E+00 -0.00000000000E+00 -0.74505805969E-08  0.93827000000E+00  0.93827000000E+00 0. -1.
     999902    2    1    2    0    0  0.57883368447E-02  0.13108081955E-01  0.19710644340E-01  0.10195612463E+01  0.10192699833E+01 0.  0.
     999903    2    3    3    0    0 -0.20638539383E-01  0.11739598742E+00  0.54192924978E-01  0.13233896600E+00  0.19208374046E-01 0.  0.
         14    1    1    2    0    0 -0.57883368447E-02 -0.13108081955E-01 -0.19710644340E-01  0.24368753687E-01  0.00000000000E+00 0.  1.
     999901    1    3    3    0    0  0.26426876228E-01 -0.10428790546E+00 -0.34482280638E-01  0.88722228032E+00  0.88000000000E+00 0.  1.
        -11    1    4    4    0    0 -0.26004435545E-02  0.37889143165E-01  0.86585499718E-02  0.38956143098E-01  0.51100000000E-03 0. -1.
         11    1    4    4    0    0 -0.18038095828E-01  0.79506844253E-01  0.45534375006E-01  0.93382822898E-01  0.51100000000E-03 0.  1.
</event>
<event>
 8    1  0.1123470E+005  0.1043930E+01  0.7957747E-01            NaN
         13   -1    0    0    0    0  0.00000000000E+00  0.00000000000E+00  0.74505805969E-08  0.10566000000E+00  0.10566000000E+00 0. -1.
     999900   -1    0    0    0    0 -0.00000000000E+00 -0.00000000000E+00 -0.74505805969E-08  0.93827000000E+00  0.93827000000E+00 0. -1.
     999902    2    1    2    0    0  0.92606952219E-02  0.17305501211E-01 -0.12556557930E-01  0.10206296138E+01  0.10203636120E+01 0.  0.
     999903    2    3    3    0    0  0.54880894887E-01  0.22137738914E-01  0.11455223274E+00  0.13031439000E+00  0.18911216465E-01 0.  0.
         14    1    1    2    0    0 -0.92606952219E-02 -0.17305501211E-01  0.12556557930E-01  0.23300386160E-01  0.00000000000E+00 0. -1.
     999901    1    3    3    0    0 -0.45620199665E-01 -0.48322377028E-02 -0.12710879067E+00  0.89031522384E+00  0.88000000000E+00 0. -1.
        -11    1    4    4    0    0  0.37006577860E-01  0.53920782153E-02  0.74567924723E-01  0.83421806687E-01  0.51100000000E-03 0. -1.
         11    1    4    4    0    0  0.17874317027E-01  0.16745660699E-01  0.39984308013E-01  0.46892583312E-01  0.51100000000E-03 0.  1.
</event>
<event>
 8    1  0.1123470E+005  0.1043930E+01  0.7957747E-01            NaN
         13   -1    0    0    0    0  0.00000000000E+00  0.00000000000E+00  0.74505805969E-08  0.10566000000E+00  0.10566000000E+00 0. -1.
     999900   -1    0    0    0    0 -0.00000000000E+00 -0.00000000000E+00 -0.74505805969E-08  0.93827000000E+00  0.93827000000E+00 0.  1.
     999902    2    1    2    0    0 -0.18639814903E-01  0.10517124689E-01  0.12063885398E-01  0.10193619325E+01  0.10190658268E+01 0.  0.
     999903    2    3    3    0    0 -0.39840499134E-01 -0.10504581157E+00 -0.60158596745E-01  0.12862047269E+00  0.17386239765E-01 0.  0.
         14    1    1    2    0    0  0.18639814903E-01 -0.10517124689E-01 -0.12063885398E-01  0.24568067531E-01  0.00000000000E+00 0. -1.
     999901    1    3    3    0    0  0.21200684231E-01  0.11556293625E+00  0.72222482143E-01  0.89074145978E+00  0.88000000000E+00 0. -1.
        -11    1    4    4    0    0 -0.92406490357E-02 -0.29344662787E-01 -0.82215440705E-02  0.31848920494E-01  0.51100000000E-03 0.  1.
         11    1    4    4    0    0 -0.30599850098E-01 -0.75701148778E-01 -0.51937052675E-01  0.96771552193E-01  0.51100000000E-03 0. -1.
</event>
<event>
 8    1  0.1123470E+005  0.1043930E+01  0.7957747E-01            NaN
         13   -1    0    0    0    0  0.00000000000E+00  0.00000000000E+00  0.74505805969E-08  0.10566000000E+00  0.10566000000E+00 0. -1.
     999900   -1    0    0    0    0 -0.00000000000E+00 -0.00000000000E+00 -0.74505805969E-08  0.93827000000E+00  0.93827000000E+00 0. -1.
     999902    2    1    2    0    0 -0.19793617864E-01 -0.57188323374E-02 -0.10757750068E-01  0.10206873337E+01  0.10204226632E+01 0.  0.
     999903    2    3    3    0    0  0.97811692200E-01  0.80105487068E-01 -0.13009379881E-01  0.12872214792E+00  0.20399294378E-01 0.  0.
         14    1    1    2    0    0  0.19793617864E-01  0.57188323374E-02  0.10757750068E-01  0.23242666327E-01  0.00000000000E+00 0.  1.
     999901    1    3    3    0    0 -0.11760531006E+00 -0.85824319405E-01  0.22516298132E-02  0.89196518575E+00  0.88000000000E+00 0.  1.
        -11    1    4    4    0    0  0.35958592441E-01  0.22590447585E-01  0.36718765457E-02  0.42627367862E-01  0.51100000000E-03 0.  1.
         11    1    4    4    0    0  0.61853099758E-01  0.57515039483E-01 -0.16681256427E-01  0.86094780059E-01  0.51100000000E-03 0. -1.
</event>
<event>
 8    1  0.1123470E+005  0.1043930E+01  0.7957747E-01            NaN
         13   -1    0    0    0    0  0.00000000000E+00  0.00000000000E+00  0.74505805969E-08  0.10566000000E+00  0.10566000000E+00 0.  1.
     999900   -1    0    0    0    0 -0.00000000000E+00 -0.00000000000E+00 -0.74505805969E-08  0.93827000000E+00  0.93827000000E+00 0. -1.
     999902    2    1    2    0    0 -0.16173111231E-01  0.16159409739E-01  0.79860313071E-02  0.10197128006E+01  0.10194251924E+01 0.  0.
     999903    2    3    3    0    0  0.11883614433E-01 -0.12404720274E+00 -0.19614592154E-01  0.12774482560E+00  0.20126585492E-01 0.  0.
         14    1    1    2    0    0  0.16173111231E-01 -0.16159409739E-01 -0.79860313071E-02  0.24217199385E-01  0.00000000000E+00 0.  1.
     999901    1    3    3    0    0 -0.28056725665E-01  0.14020661248E+00  0.27600623462E-01  0.89196797501E+00  0.88000000000E+00 0.  1.
        -11    1    4    4    0    0  0.98119366163E-02 -0.69055077001E-01 -0.20511791674E-01  0.72704005931E-01  0.51100000000E-03 0. -1.
         11    1    4    4    0    0  0.20716778170E-02 -0.54992125735E-01  0.89719951953E-03  0.55040819669E-01  0.51100000000E-03 0.  1.
</event>
<event>
 8    1  0.1123470E+005  0.1043930E+01  0.7957747E-01            NaN
         13   -1    0    0    0    0  0.00000000000E+00  0.00000000000E+00  0.74505805969E-08  0.10566000000E+00  0.10566000000E+00 0. -1.
     999900   -1    0    0    0    0 -0.00000000000E+00 -0.00000000000E+00 -0.74505805969E-08  0.93827000000E+00  0.93827000000E+00 0. -1.
     999902    2    1    2    0    0  0.13237939336E-02  0.85984827827E-02 -0.20836763320E-01  0.10213499858E+01  0.10211003557E+01 0.  0.
     999903    2    3    3    0    0 -0.21466591719E-01  0.11141260387E+00 -0.67991393621E-01  0.13381761773E+00  0.20266779442E-01 0.  0.
         14    1    1    2    0    0 -0.13237939336E-02 -0.85984827827E-02  0.20836763320E-01  0.22580014221E-01  0.00000000000E+00 0. -1.
     999901    1    3    3    0    0  0.22790385653E-01 -0.10281412108E+00  0.47154630301E-01  0.88753236805E+00  0.88000000000E+00 0.  1.
        -11    1    4    4    0    0 -0.10988975911E-01  0.91068179157E-01 -0.48550657139E-01  0.10378631064E+00  0.51100000000E-03 0. -1.
         11    1    4    4    0    0 -0.10477615808E-01  0.20344424708E-01 -0.19440736482E-01  0.30031307093E-01  0.51100000000E-03 0.  1.
</event>
<event>
 8    1  0.1123470E+005  0.1043930E+01  0.7957747E-01            NaN
         13   -1    0    0    0    0  0.00000000000E+00  0.00000000000E+00  0.74505805969E-08  0.10566000000E+00  0.10566000000E+00 0. -1.
     999900   -1    0    0    0    0 -0.00000000000E+00 -0.00000000000E+00 -0.74505805969E-08  0.93827000000E+00  0.93827000000E+00 0. -1.
     999902    2    1    2    0    0 -0.33127111133E-02  0.22623013652E-01 -0.63868786516E-02  0.10201904334E+01  0.10199141893E+01 0.  0.
     999903    2    3    3    0    0  0.54305008862E-01 -0.11383893195E+00 -0.59283157759E-02  0.12781053982E+00  0.19800321845E-01 0.  0.
         14    1    1    2    0    0  0.33127111133E-02 -0.22623013652E-01  0.63868786516E-02  0.23739566561E-01  0.00000000000E+00 0. -1.
     999901    1    3    3    0    0 -0.57617719976E-01  0.13646194561E+00 -0.45856287566E-03  0.89237989362E+00  0.88000000000E+00 0.  1.
        -11    1    4    4    0    0  0.45957238961E-01 -0.77117188194E-01 -0.62034013896E-03  0.89776246696E-01  0.51100000000E-03 0. -1.
         11    1    4    4    0    0  0.83477699012E-02 -0.36721743760E-01 -0.53079756370E-02  0.38034293125E-01  0.51100000000E-03 0.  1.
</event>
<event>
 8    1  0.1123470E+005  0.1043930E+01  0.7957747E-01            NaN
         13   -1    0    0    0    0  0.00000000000E+00  0.00000000000E+00  0.74505805969E-08  0.10566000000E+00  0.10566000000E+00 0.  1.
     999900   -1    0    0    0    0 -0.00000000000E+00 -0.00000000000E+00 -0.74505805969E-08  0.93827000000E+00  0.93827000000E+00 0.  1.
     999902    2    1    2    0    0 -0.20787494225E-01 -0.60712314706E-02 -0.64633945910E-02  0.10213301054E+01  0.10210800306E+01 0.  0.
     999903    2    3    3    0    0 -0.11381006656E+00 -0.57934584093E-01  0.35267482966E-01  0.13392688673E+00  0.19582347903E-01 0.  0.
         14    1    1    2    0    0  0.20787494225E-01  0.60712314706E-02  0.64633945910E-02  0.22599894632E-01  0.00000000000E+00 0.  1.
     999901    1    3    3    0    0  0.93022572337E-01  0.51863352623E-01 -0.41730877557E-01  0.88740321864E+00  0.88000000000E+00 0.  1.
        -11    1    4    4    0    0 -0.62602825209E-02 -0.36433295926E-02  0.71951570131E-02  0.10222347734E-01  0.51100000000E-03 0. -1.
         11    1    4    4    0    0 -0.10754978404E+00 -0.54291254501E-01  0.28072325953E-01  0.12370453899E+00  0.51100000000E-03 0.  1.
</event>
<event>
 8    1  0.1123470E+005  0.1043930E+01  0.7957747E-01            NaN
         13   -1    0    0    0    0  0.00000000000E+00  0.00000000000E+00  0.74505805969E-08  0.10566000000E+00  0.10566000000E+00 0. -1.
     999900   -1    0    0    0    0 -0.00000000000E+00 -0.00000000000E+00 -0.74505805969E-08  0.93827000000E+00  0.93827000000E+00 0.  1.
     999902    2    1    2    0    0  0.96357572589E-02 -0.12337744928E-01 -0.17499539694E-01  0.10204501862E+01  0.10201800237E+01 0.  0.
     999903    2    3    3    0    0 -0.43625142546E-01  0.94077623442E-01 -0.76480874805E-01  0.13048403403E+00  0.20567124992E-01 0.  0.
         14    1    1    2    0    0 -0.96357572589E-02  0.12337744928E-01  0.17499539694E-01  0.23479813827E-01  0.00000000000E+00 0. -1.
     999901    1    3    3    0    0  0.53260899805E-01 -0.10641536837E+00  0.58981335111E-01  0.88996615215E+00  0.88000000000E+00 0.  1.
        -11    1    4    4    0    0 -0.35443131419E-01  0.71250996263E-01 -0.68347211684E-01  0.10490244277E+00  0.51100000000E-03 0.  1.
         11    1    4    4    0    0 -0.81820111269E-02  0.22826627179E-01 -0.81336631202E-02  0.25581591256E-01  0.51100000000E-03 0. -1.
</event>
<event>
 8    1  0.1123470E+005  0.1043930E+01  0.7957747E-01            NaN
         13   -1    0    0    0    0  0.00000000000E+00  0.00000000000E+00  0.74505805969E-08  0.10566000000E+00  0.10566000000E+00 0.  1.
     999900   -1    0    0    0    0 -0.00000000000E+00 -0.00000000000E+00 -0.74505805969E-08  0.93827000000E+00  0.93827000000E+00 0. -1.
     999902    2    1    2    0    0  0.15398862973E-01  0.16946160620E-01  0.52924120863E-02  0.10204287880E+01  0.10201581271E+01 0.  0.
     999903    2    3    3    0    0  0.73318396205E-01  0.18507302620E-01 -0.10570651789E+00  0.13156554094E+00  0.20433212275E-01 0.  0.
         14    1    1    2    0    0 -0.15398862973E-01 -0.16946160620E-01 -0.52924120863E-02  0.23501212018E-01  0.00000000000E+00 0. -1.
     999901    1    3    3    0    0 -0.57919533232E-01 -0.15611420002E-02  0.11099892998E+00  0.88886324705E+00  0.88000000000E+00 0.  1.
        -11    1    4    4    0    0  0.11381677404E-01 -0.96381731353E-04 -0.64320281065E-02  0.13083729458E-01  0.51100000000E-03 0. -1.
         11    1    4    4    0    0  0.61936718801E-01  0.18603684351E-01 -0.99274489788E-01  0.11848181148E+00  0.51100000000E-03 0.  1.
</event>
<event>
 8    1  0.1123470E+005  0.1043930E+01  0.7957747E-01            NaN
         13   -1    0    0    0    0  0.00000000000E+00  0.00000000000E+00  0.74505805969E-08  0.10566000000E+00  0.10566000000E+00 0.  1.
     999900   -1    0    0    0    0 -0.00000000000E+00 -0.00000000000E+00 -0.74505805969E-08  0.93827000000E+00  0.93827000000E+00 0.  1.
     999902    2    1    2    0    0 -0.11406717579E-01 -0.19828152192E-01  0.49850253892E-02  0.10205180521E+01  0.10202494672E+01 0.  0.
     999903    2    3    3    0    0  0.72016976261E-01 -0.48475338054E-01 -0.94472071699E-01  0.13053384546E+00  0.24037662319E-01 0.  0.
         14    1    1    2    0    0  0.11406717579E-01  0.19828152192E-01 -0.49850253892E-02  0.23411947877E-01  0.00000000000E+00 0. -1.
     999901    1    3    3    0    0 -0.83423693840E-01  0.28647185862E-01  0.99457097088E-01  0.88998420666E+00  0.88000000000E+00 0. -1.
        -11    1    4    4    0    0  0.21825259404E-01 -0.25989354575E-01 -0.26287149292E-01  0.42930919373E-01  0.51100000000E-03 0. -1.
         11    1    4    4    0    0  0.50191716857E-01 -0.22485983479E-01 -0.68184922407E-01  0.87602926085E-01  0.51100000000E-03 0.  1.
</event>
<event>
 8    1  0.1123470E+005  0.1043930E+01  0.7957747E-01            NaN
         13   -1    0    0    0    0  0.00000000000E+00  0.00000000000E+00  0.74505805969E-08  0.10566000000E+00  0.10566000000E+00 0.  1.
     999900   -1    0    0    0    0 -0.00000000000E+00 -0.00000000000E+00 -0.74505805969E-08  0.93827000000E+00  0.93827000000E+00 0.  1.
     999902    2    1    2    0    0  0.15001984248E-01  0.85839912794E-03 -0.17492702828E-01  0.10208694052E+01  0.10206089121E+01 0.  0.
     999903    2    3    3    0    0  0.47929438797E-01  0.76958155535E-01 -0.96138652627E-01  0.13347965114E+00  0.18825194087E-01 0.  0.
         14    1    1    2    0    0 -0.15001984248E-01 -0.85839912794E-03  0.17492702828E-01  0.23060594803E-01  0.00000000000E+00 0.  1.
     999901    1    3    3    0    0 -0.32927454549E-01 -0.76099756407E-01  0.78645949799E-01  0.88738975406E+00  0.88000000000E+00 0. -1.
        -11    1    4    4    0    0  0.45923521094E-01  0.69524376474E-01 -0.79624654649E-01  0.11525170482E+00  0.51100000000E-03 0.  1.
         11    1    4    4    0    0  0.20059177030E-02  0.74337790603E-02 -0.16513997978E-01  0.18227946323E-01  0.51100000000E-03 0. -1.
</event>
<event>
 8    1  0.1123470E+005  0.1043930E+01  0.7957747E-01            NaN
         13   -1    0    0    0    0  0.00000000000E+00  0.00000000000E+00  0.74505805969E-08  0.10566000000E+00  0.10566000000E+00 0. -1.
     999900   -1    0    0    0    0 -0.00000000000E+00 -0.00000000000E+00 -0.74505805969E-08  0.93827000000E+00  0.93827000000E+00 0. -1.
     999902    2    1    2    0    0 -0.22278923866E-01  0.32073982471E-02  0.73694787444E-02  0.10202456788E+01  0.10199707339E+01 0.  0.
     999903    2    3    3    0    0  0.45985786453E-01 -0.83636191385E-01  0.85902565547E-01  0.12986973270E+00  0.19421422145E-01 0.  0.
         14    1    1    2    0    0  0.22278923866E-01 -0.32073982471E-02 -0.73694787444E-02  0.23684321167E-01  0.00000000000E+00 0.  1.
     999901    1    3    3    0    0 -0.68264710319E-01  0.86843589633E-01 -0.78533086803E-01  0.89037594614E+00  0.88000000000E+00 0. -1.
        -11    1    4    4    0    0  0.24408643713E-01 -0.57908905621E-01  0.46989078505E-01  0.78469470865E-01  0.51100000000E-03 0. -1.
         11    1    4    4    0    0  0.21577142740E-01 -0.25727285764E-01  0.38913487042E-01  0.51400261832E-01  0.51100000000E-03 0.  1.
</event>
<event>
 8    1  0.1123470E+005  0.1043930E+01  0.7957747E-01            NaN
         13   -1    0    0    0    0  0.00000000000E+00  0.00000000000E+00  0.74505805969E-08  0.10566000000E+00  0.10566000000E+00 0. -1.
     999900   -1    0    0    0    0 -0.00000000000E+00 -0.00000000000E+00 -0.74505805969E-08  0.93827000000E+00  0.93827000000E+00 0.  1.
     999902    2    1    2    0    0  0.23079741657E-01  0.82040079223E-02 -0.21084458324E-02  0.10193449280E+01  0.10190484073E+01 0.  0.
     999903    2    3    3    0    0 -0.64194603952E-01  0.48080901087E-01 -0.98818675864E-01  0.12886199914E+00  0.20188211852E-01 0.  0.
         14    1    1    2    0    0 -0.23079741657E-01 -0.82040079223E-02  0.21084458324E-02  0.24585071990E-01  0.00000000000E+00 0. -1.
     999901    1    3    3    0    0  0.87274345609E-01 -0.39876893165E-01  0.96710230031E-01  0.89048292887E+00  0.88000000000E+00 0. -1.
        -11    1    4    4    0    0 -0.13189432911E-01  0.18683412464E-01 -0.36955358172E-01  0.43462520180E-01  0.51100000000E-03 0. -1.
         11    1    4    4    0    0 -0.51005171041E-01  0.29397488623E-01 -0.61863317692E-01  0.85399478963E-01  0.51100000000E-03 0.  1.
</event>
<event>
 8    1  0.1123470E+005  0.1043930E+01  0.7957747E-01            NaN
         13   -1    0    0    0    0  0.00000000000E+00  0.00000000000E+00  0.74505805969E-08  0.10566000000E+00  0.10566000000E+00 0. -1.
     999900   -1    0    0    0    0 -0.00000000000E+00 -0.00000000000E+00 -0.74505805969E-08  0.93827000000E+00  0.93827000000E+00 0.  1.
     999902    2    1    2    0    0  0.18956672756E-01  0.44692127897E-02 -0.79748767390E-02  0.10228841462E+01  0.10226676139E+01 0.  0.
     999903    2    3    3    0    0  0.12216883809E+00  0.10753539752E-03 -0.55207237654E-01  0.13558336783E+00  0.20242874780E-01 0.  0.
         14    1    1    2    0    0 -0.18956672756E-01 -0.44692127897E-02  0.79748767390E-02  0.21045853842E-01  0.00000000000E+00 0. -1.
     999901    1    3    3    0    0 -0.10321216533E+00  0.43616773922E-02  0.47232360915E-01  0.88730077833E+00  0.88000000000E+00 0.  1.
        -11    1    4    4    0    0  0.48557269360E-01  0.23921736703E-02 -0.11566376378E-01  0.49975724968E-01  0.51100000000E-03 0. -1.
         11    1    4    4    0    0  0.73611568728E-01 -0.22846382728E-02 -0.43640861276E-01  0.85607642863E-01  0.51100000000E-03 0.  1.
</event>
<event>
 8    1  0.1123470E+005  0.1043930E+01  0.7957747E-01            NaN
         13   -1    0    0    0    0  0.00000000000E+00  0.00000000000E+00  0.74505805969E-08  0.10566000000E+00  0.10566000000E+00 0.  1.
     999900   -1    0    0    0    0 -0.00000000000E+00 -0.00000000000E+00 -0.74505805969E-08  0.93827000000E+00  0.93827000000E+00 0. -1.
     999902    2    1    2    0    0 -0.16335946653E-01 -0.30379786441E-02 -0.17130154844E-01  0.10200650744E+01  0.10197858704E+01 0.  0.
     999903    2    3    3    0    0  0.95423344814E-01  0.40998155833E-01 -0.75474894448E-01  0.12999011747E+00  0.20359455588E-01 0.  0.
         14    1    1    2    0    0  0.16335946653E-01  0.30379786441E-02  0.17130154844E-01  0.23864925566E-01  0.00000000000E+00 0.  1.
     999901    1    3    3    0    0 -0.11175929147E+00 -0.44036134477E-01  0.58344739603E-01  0.89007495696E+00  0.88000000000E+00 0. -1.
        -11    1    4    4    0    0  0.40534388785E-01  0.22458489403E-01 -0.44693554256E-01  0.64383191389E-01  0.51100000000E-03 0. -1.
         11    1    4    4    0    0  0.54888956029E-01  0.18539666430E-01 -0.30781340192E-01  0.65606926084E-01  0.51100000000E-03 0.  1.
</event>
<event>
 8    1  0.1123470E+005  0.1043930E+01  0.7957747E-01            NaN
         13   -1    0    0    0    0  0.00000000000E+00  0.00000000000E+00  0.74505805969E-08  0.10566000000E+00  0.10566000000E+00 0. -1.
     999900   -1    0    0    0    0 -0.00000000000E+00 -0.00000000000E+00 -0.74505805969E-08  0.93827000000E+00  0.93827000000E+00 0. -1.
     999902    2    1    2    0    0  0.17354259570E-01 -0.41460799423E-02 -0.16933093149E-01  0.10193314239E+01  0.10190345734E+01 0.  0.
     999903    2    3    3    0    0 -0.90158507446E-01 -0.85521966002E-01  0.23556989002E-01  0.12814094106E+00  0.20557380919E-01 0.  0.
         14    1    1    2    0    0 -0.17354259570E-01  0.41460799423E-02  0.16933093149E-01  0.24598576131E-01  0.00000000000E+00 0. -1.
     999901    1    3    3    0    0  0.10751276702E+00  0.81375886059E-01 -0.40490082150E-01  0.89119048281E+00  0.88000000000E+00 0. -1.
        -11    1    4    4    0    0 -0.10987613964E-01 -0.20027083318E-01  0.80520730618E-02  0.24226199216E-01  0.51100000000E-03 0. -1.
         11    1    4    4    0    0 -0.79170893482E-01 -0.65494882684E-01  0.15504915940E-01  0.10391474184E+00  0.51100000000E-03 0.  1.
</event>
<event>
 8    1  0.1123470E+005  0.1043930E+01  0.7957747E-01            NaN
         13   -1    0    0    0    0  0.00000000000E+00  0.00000000000E+00  0.74505805969E-08  0.10566000000E+00  0.10566000000E+00 0. -1.
     999900   -1    0    0    0    0 -0.00000000000E+00 -0.00000000000E+00 -0.74505805969E-08  0.93827000000E+00  0.93827000000E+00 0.  1.
     999902    2    1    2    0    0  0.18821796962E-01  0.53861188674E-02 -0.12768698729E-01  0.10205567250E+01  0.10202890370E+01 0.  0.
     999903    2    3    3    0    0 -0.47504474430E-01 -0.11658150073E+00 -0.21513106115E-01  0.12962926489E+00  0.22203855018E-01 0.  0.
         14    1    1    2    0    0 -0.18821796962E-01 -0.53861188674E-02  0.12768698729E-01  0.23373275007E-01  0.00000000000E+00 0. -1.
     999901    1    3    3    0    0  0.66326271392E-01  0.12196761960E+00  0.87444073863E-02  0.89092746010E+00  0.88000000000E+00 0. -1.
        -11    1    4    4    0    0 -0.17158743922E-01 -0.70078596624E-01 -0.15271878626E-01  0.73749058268E-01  0.51100000000E-03 0. -1.
         11    1    4    4    0    0 -0.30345730508E-01 -0.46502904106E-01 -0.62412274890E-02  0.55880206620E-01  0.51100000000E-03 0.  1.
</event>
<event>
 8    1  0.1123470E+005  0.1043930E+01  0.7957747E-01            NaN
         13   -1    0    0    0    0  0.00000000000E+00  0.00000000000E+00  0.74505805969E-08  0.10566000000E+00  0.10566000000E+00 0. -1.
     999900   -1    0    0    0    0 -0.00000000000E+00 -0.00000000000E+00 -0.74505805969E-08  0.93827000000E+00  0.93827000000E+00 0.  1.
     999902    2    1    2    0    0  0.21406926204E-01 -0.19598911750E-02 -0.11657193044E-01  0.10194762107E+01  0.10191828866E+01 0.  0.
     999903    2    3    3    0    0 -0.14730575633E-01 -0.80179811577E-01  0.97426957919E-01  0.12856452763E+00  0.19774569336E-01 0.  0.
         14    1    1    2    0    0 -0.21406926204E-01  0.19598911750E-02  0.11657193044E-01  0.24453789330E-01  0.00000000000E+00 0.  1.
     999901    1    3    3    0    0  0.36137501837E-01  0.78219920402E-01 -0.10908415096E+00  0.89091168304E+00  0.88000000000E+00 0. -1.
        -11    1    4    4    0    0 -0.87937967640E-02 -0.50793348046E-01  0.75487229175E-01  0.91410491502E-01  0.51100000000E-03 0. -1.
         11    1    4    4    0    0 -0.59367788685E-02 -0.29386463531E-01  0.21939728744E-01  0.37154036128E-01  0.51100000000E-03 0.  1.
</event>
<event>
 8    1  0.1123470E+005  0.1043930E+01  0.7957747E-01            NaN
         13   -1    0    0    0    0  0.00000000000E+00  0.00000000000E+00  0.74505805969E-08  0.10566000000E+00  0.10566000000E+00 0. -1.
     999900   -1    0    0    0    0 -0.00000000000E+00 -0.00000000000E+00 -0.74505805969E-08  0.93827000000E+00  0.93827000000E+00 0.  1.
     999902    2    1    2    0    0  0.13294923830E-01  0.83375993755E-02  0.15283225959E-01  0.10220245770E+01  0.10217897966E+01 0.  0.
     999903    2    3    3    0    0 -0.10044921194E+00 -0.63542288034E-01  0.51363173692E-01  0.13106654805E+00  0.20312505004E-01 0.  0.
         14    1    1    2    0    0 -0.13294923830E-01 -0.83375993755E-02 -0.15283225959E-01  0.21905423044E-01  0.00000000000E+00 0.  1.
     999901    1    3    3    0    0  0.11374413577E+00  0.71879887409E-01 -0.36079947733E-01  0.89095802890E+00  0.88000000000E+00 0. -1.
        -11    1    4    4    0    0 -0.71670390159E-01 -0.45149365640E-01  0.26288774739E-01  0.88693127364E-01  0.51100000000E-03 0. -1.
         11    1    4    4    0    0 -0.28778821780E-01 -0.18392922393E-01  0.25074398953E-01  0.42373420691E-01  0.51100000000E-03 0.  1.
</event>
<event>
 8    1  0.1123470E+005  0.1043930E+01  0.7957747E-01            NaN
         13   -1    0    0    0    0  0.00000000000E+00  0.00000000000E+00  0.74505805969E-08  0.10566000000E+00  0.10566000000E+00 0. -1.
     999900   -1    0    0    0    0 -0.00000000000E+00 -0.00000000000E+00 -0.74505805969E-08  0.93827000000E+00  0.93827000000E+00 0. -1.
     999902    2    1    2    0    0 -0.17955814415E-01 -0.13046619288E-01 -0.38953518284E-02  0.10213955971E+01  0.10211469858E+01 0.  0.
     999903    2    3    3    0    0 -0.11992823299E+00 -0.42055305740E-01  0.37356904858E-01  0.13407286740E+00  0.20701826596E-01 0.  0.
         14    1    1    2    0    0  0.17955814415E-01  0.13046619288E-01  0.38953518284E-02  0.22534402855E-01  0.00000000000E+00 0.  1.
     999901    1    3    3    0    0  0.10197241857E+00  0.29008686452E-01 -0.41252256686E-01  0.88732272974E+00  0.88000000000E+00 0. -1.
        -11    1    4    4    0    0 -0.66194836749E-01 -0.33570100763E-01  0.24630405086E-01  0.78202468332E-01  0.51100000000E-03 0.  1.
         11    1    4    4    0    0 -0.53733396238E-01 -0.84852049765E-02  0.12726499772E-01  0.55870399070E-01  0.51100000000E-03 0. -1.
</event>
<event>
 8    1  0.1123470E+005  0.1043930E+01  0.7957747E-01            NaN
         13   -1    0    0    0    0  0.00000000000E+00  0.00000000000E+00  0.74505805969E-08  0.10566000000E+00  0.10566000000E+00 0.  1.
     999900   -1    0    0    0    0 -0.00000000000E+00 -0.00000000000E+00 -0.74505805969E-08  0.93827000000E+00  0.93827000000E+00 0. -1.
     999902    2    1    2    0    0 -0.17646821301E-01  0.15690222812E-01  0.25534347905E-02  0.10201789280E+01  0.10199024128E+01 0.  0.
     999903    2    3    3    0    0 -0.12838553602E+00  0.24256508203E-01 -0.74244897083E-02  0.13314115922E+00  0.24499411860E-01 0.  0.
         14    1    1    2    0    0  0.17646821301E-01 -0.15690222812E-01 -0.25534347905E-02  0.23751072042E-01  0.00000000000E+00 0. -1.
     999901    1    3    3    0    0  0.11073871472E+00 -0.85662853914E-02  0.99779244988E-02  0.88703776873E+00  0.88000000000E+00 0. -1.
        -11    1    4    4    0    0 -0.70015874100E-01  0.16522342184E-02  0.55053482682E-03  0.70039394011E-01  0.51100000000E-03 0. -1.
         11    1    4    4    0    0 -0.58369661925E-01  0.22604273985E-01 -0.79750245351E-02  0.63101765212E-01  0.51100000000E-03 0.  1.
</event>
<event>
 8    1  0.1123470E+005  0.1043930E+01  0.7957747E-01            NaN
         13   -1    0    0    0    0  0.00000000000E+00  0.00000000000E+00  0.74505805969E-08  0.10566000000E+00  0.10566000000E+00 0.  1.
     999900   -1    0    0    0    0 -0.00000000000E+00 -0.00000000000E+00 -0.74505805969E-08  0.93827000000E+00  0.93827000000E+00 0.  1.
     999902    2    1    2    0    0  0.71252498182E-03 -0.53589073612E-02  0.27155566484E-01  0.10162415481E+01  0.10158642791E+01 0.  0.
     999903    2    3    3    0    0 -0.80776239835E-01 -0.17875073075E-02 -0.91909299496E-01  0.12448507009E+00  0.22830182574E-01 0.  0.
         14    1    1    2    0    0 -0.71252498182E-03  0.53589073612E-02 -0.27155566484E-01  0.27688451944E-01  0.00000000000E+00 0. -1.
     999901    1    3    3    0    0  0.81488764816E-01 -0.35714000537E-02  0.11906486598E+00  0.89175647797E+00  0.88000000000E+00 0. -1.
        -11    1    4    4    0    0 -0.68048061278E-01  0.69918449130E-02 -0.72785416303E-01  0.99886948529E-01  0.51100000000E-03 0. -1.
         11    1    4    4    0    0 -0.12728178556E-01 -0.87793522205E-02 -0.19123883193E-01  0.24598121557E-01  0.51100000000E-03 0.  1.
</event>
<event>
 8    1  0.1123470E+005  0.1043930E+01  0.7957747E-01            NaN
         13   -1    0    0    0    0  0.00000000000E+00  0.00000000000E+00  0.74505805969E-08  0.10566000000E+00  0.10566000000E+00 0. -1.
     999900   -1    0    0    0    0 -0.00000000000E+00 -0.00000000000E+00 -0.74505805969E-08  0.93827000000E+00  0.93827000000E+00 0.  1.
     999902    2    1    2    0    0 -0.79162208097E-02  0.10972314036E-01 -0.19476398632E-01  0.10202152719E+01  0.10199396122E+01 0.  0.
     999903    2    3    3    0    0 -0.11583933078E-01 -0.99531111718E-01  0.76718430540E-01  0.12809537836E+00  0.21956289913E-01 0.  0.
         14    1    1    2    0    0  0.79162208097E-02 -0.10972314036E-01  0.19476398632E-01  0.23714728143E-01  0.00000000000E+00 0. -1.
     999901    1    3    3    0    0  0.36677122686E-02  0.11050342575E+00 -0.96194829173E-01  0.89211989350E+00  0.88000000000E+00 0.  1.
        -11    1    4    4    0    0 -0.22328838946E-03 -0.56870688470E-02  0.12702165725E-01  0.13928343221E-01  0.51100000000E-03 0.  1.
         11    1    4    4    0    0 -0.11360644689E-01 -0.93844042871E-01  0.64016264816E-01  0.11416703514E+00  0.51100000000E-03 0. -1.
</event>
<event>
 8    1  0.1123470E+005  0.1043930E+01  0.7957747E-01            NaN
         13   -1    0    0    0    0  0.00000000000E+00  0.00000000000E+00  0.74505805969E-08  0.10566000000E+00  0.10566000000E+00 0. -1.
     999900   -1    0    0    0    0 -0.00000000000E+00 -0.00000000000E+00 -0.74505805969E-08  0.93827000000E+00  0.93827000000E+00 0.  1.
     999902    2    1    2    0    0  0.14664547524E-01  0.12727529943E-01  0.10649582947E-01  0.10217838358E+01  0.10215438094E+01 0.  0.
     999903    2    3    3    0    0 -0.25310805246E-01 -0.82796526637E-01  0.96930586878E-01  0.13152135435E+00  0.20160017151E-01 0.  0.
         14    1    1    2    0    0 -0.14664547524E-01 -0.12727529943E-01 -0.10649582947E-01  0.22146164216E-01  0.00000000000E+00 0. -1.
     999901    1    3    3    0    0  0.39975352769E-01  0.95524056580E-01 -0.86281003931E-01  0.89026248144E+00  0.88000000000E+00 0.  1.
        -11    1    4    4    0    0 -0.18585691644E-02 -0.40354983026E-01  0.44398659049E-01  0.60029001164E-01  0.51100000000E-03 0.  1.
         11    1    4    4    0    0 -0.23452236081E-01 -0.42441543611E-01  0.52531927830E-01  0.71492353184E-01  0.51100000000E-03 0. -1.
</event>
<event>
 8    1  0.1123470E+005  0.1043930E+01  0.7957747E-01            NaN
         13   -1    0    0    0    0  0.00000000000E+00  0.00000000000E+00  0.74505805969E-08  0.10566000000E+00  0.10566000000E+00 0. -1.
     999900   -1    0    0    0    0 -0.00000000000E+00 -0.00000000000E+00 -0.74505805969E-08  0.93827000000E+00  0.93827000000E+00 0. -1.
     999902    2    1    2    0    0 -0.18565315314E-01  0.40926442919E-02 -0.13674970589E-01  0.10205115139E+01  0.10202427773E+01 0.  0.
     999903    2    3    3    0    0  0.84638906535E-01 -0.78383437131E-01  0.52188737237E-01  0.12821591075E+00  0.20197716687E-01 0.  0.
         14    1    1    2    0    0  0.18565315314E-01 -0.40926442919E-02  0.13674970589E-01  0.23418486087E-01  0.00000000000E+00 0. -1.
     999901    1    3    3    0    0 -0.10320422185E+00  0.82476081423E-01 -0.65863707827E-01  0.89229560316E+00  0.88000000000E+00 0. -1.
        -11    1    4    4    0    0  0.76757724598E-01 -0.72037687209E-01  0.40608653724E-01  0.11282951982E+00  0.51100000000E-03 0. -1.
         11    1    4    4    0    0  0.78811819369E-02 -0.63457499218E-02  0.11580083513E-01  0.15386390934E-01  0.51100000000E-03 0.  1.
</event>
<event>
 8    1  0.1123470E+005  0.1043930E+01  0.7957747E-01            NaN
         13   -1    0    0    0    0  0.00000000000E+00  0.00000000000E+00  0.74505805969E-08  0.10566000000E+00  0.10566000000E+00 0.  1.
     999900   -1    0    0    0    0 -0.00000000000E+00 -0.00000000000E+00 -0.74505805969E-08  0.93827000000E+00  0.93827000000E+00 0.  1.
     999902    2    1    2    0    0 -0.53252600711E-02  0.15625129974E-01 -0.32824912259E-02  0.10270991405E+01  0.10269612294E+01 0.  0.
     999903    2    3    3    0    0 -0.12663591383E+00 -0.47109152083E-01  0.59659880385E-03  0.13655609711E+00  0.19780921273E-01 0.  0.
         14    1    1    2    0    0  0.53252600711E-02 -0.15625129974E-01  0.32824912259E-02  0.16830859460E-01  0.00000000000E+00 0.  1.
     999901    1    3    3    0    0  0.12131065376E+00  0.62734282057E-01 -0.38790900298E-02  0.89054304343E+00  0.88000000000E+00 0.  1.
        -11    1    4    4    0    0 -0.44675507207E-01 -0.11472958147E-01  0.82312026104E-02  0.46856627389E-01  0.51100000000E-03 0.  1.
         11    1    4    4    0    0 -0.81960406622E-01 -0.35636193937E-01 -0.76346038066E-02  0.89699469721E-01  0.51100000000E-03 0. -1.
</event>
<event>
 8    1  0.1123470E+005  0.1043930E+01  0.7957747E-01            NaN
         13   -1    0    0    0    0  0.00000000000E+00  0.00000000000E+00  0.74505805969E-08  0.10566000000E+00  0.10566000000E+00 0.  1.
     999900   -1    0    0    0    0 -0.00000000000E+00 -0.00000000000E+00 -0.74505805969E-08  0.93827000000E+00  0.93827000000E+00 0.  1.
     999902    2    1    2    0    0 -0.80109281878E-02 -0.20944530657E-01  0.14098760967E-01  0.10174418254E+01  0.10170969691E+01 0.  0.
     999903    2    3    3    0    0 -0.52016639720E-01  0.71898968577E-01 -0.86759604659E-01  0.12574186017E+00  0.20213705976E-01 0.  0.
         14    1    1    2    0    0  0.80109281878E-02  0.20944530657E-01 -0.14098760967E-01  0.26488174638E-01  0.00000000000E+00 0. -1.
     999901    1    3    3    0    0  0.44005711533E-01 -0.92843499234E-01  0.10085836563E+00  0.89169996519E+00  0.88000000000E+00 0. -1.
        -11    1    4    4    0    0 -0.32259597309E-02  0.15081055035E-01 -0.93999015203E-02  0.18068323296E-01  0.51100000000E-03 0. -1.
         11    1    4    4    0    0 -0.48790679990E-01  0.56817913542E-01 -0.77359703139E-01  0.10767353688E+00  0.51100000000E-03 0.  1.
</event>
<event>
 8    1  0.1123470E+005  0.1043930E+01  0.7957747E-01            NaN
         13   -1    0    0    0    0  0.00000000000E+00  0.00000000000E+00  0.74505805969E-08  0.10566000000E+00  0.10566000000E+00 0.  1.
     999900   -1    0    0    0    0 -0.00000000000E+00 -0.00000000000E+00 -0.74505805969E-08  0.93827000000E+00  0.93827000000E+00 0. -1.
     999902    2    1    2    0    0  0.94253182679E-02  0.21012501063E-01  0.42505952872E-02  0.10205114308E+01  0.10202426922E+01 0.  0.
     999903    2    3    3    0    0 -0.12552565528E+00 -0.68680107948E-02  0.23887439064E-01  0.12957108828E+00  0.20351841907E-01 0.  0.
         14    1    1    2    0    0 -0.94253182679E-02 -0.21012501063E-01 -0.42505952872E-02  0.23418569249E-01  0.00000000000E+00 0. -1.
     999901    1    3    3    0    0  0.13495097355E+00  0.27880511858E-01 -0.19636843777E-01  0.89094034247E+00  0.88000000000E+00 0. -1.
        -11    1    4    4    0    0 -0.79284689727E-01  0.54822588367E-02  0.15691443694E-01  0.81009874171E-01  0.51100000000E-03 0.  1.
         11    1    4    4    0    0 -0.46240965551E-01 -0.12350269632E-01  0.81959953701E-02  0.48561214113E-01  0.51100000000E-03 0. -1.
</event>
<event>
 8    1  0.1123470E+005  0.1043930E+01  0.7957747E-01            NaN
         13   -1    0    0    0    0  0.00000000000E+00  0.00000000000E+00  0.74505805969E-08  0.10566000000E+00  0.10566000000E+00 0.  1.
     999900   -1    0    0    0    0 -0.00000000000E+00 -0.00000000000E+00 -0.74505805969E-08  0.93827000000E+00  0.93827000000E+00 0. -1.
     999902    2    1    2    0    0 -0.23905376444E-02 -0.80493835211E-02 -0.22286951967E-01  0.10201137141E+01  0.10198356604E+01 0.  0.
     999903    2    3    3    0    0 -0.11652935635E+00 -0.72157145797E-02 -0.58053478525E-01  0.13202159651E+00  0.20696331730E-01 0.  0.
         14    1    1    2    0    0  0.23905376444E-02  0.80493835211E-02  0.22286951967E-01  0.23816285884E-01  0.00000000000E+00 0.  1.
     999901    1    3    3    0    0  0.11413881870E+00 -0.83366894134E-03  0.35766526558E-01  0.88809211761E+00  0.88000000000E+00 0.  1.
        -11    1    4    4    0    0 -0.36252485768E-01 -0.11834475491E-01 -0.17470658891E-01  0.41949762545E-01  0.51100000000E-03 0. -1.
         11    1    4    4    0    0 -0.80276870581E-01  0.46187609108E-02 -0.40582819634E-01  0.90071833961E-01  0.51100000000E-03 0.  1.
</event>
<event>
 8    1  0.1123470E+005  0.1043930E+01  0.7957747E-01            NaN
         13   -1    0    0    0    0  0.00000000000E+00  0.00000000000E+00  0.74505805969E-08  0.10566000000E+00  0.10566000000E+00 0. -1.
     999900   -1    0    0    0    0 -0.00000000000E+00 -0.00000000000E+00 -0.74505805969E-08  0.93827000000E+00  0.93827000000E+00 0.  1.
     999902    2    1    2    0    0 -0.21741809826E-01 -0.66517206094E-02  0.72086619721E-02  0.10200780297E+01  0.10197991322E+01 0.  0.
     999903    2    3    3    0    0  0.46243130434E-01 -0.10525501667E+00  0.58312126663E-01  0.13049603445E+00  0.20294463440E-01 0.  0.
         14    1    1    2    0    0  0.21741809826E-01  0.66517206094E-02 -0.72086619721E-02  0.23851970338E-01  0.00000000000E+00 0.  1.
     999901    1    3    3    0    0 -0.67984940261E-01  0.98603296057E-01 -0.51103464691E-01  0.88958199521E+00  0.88000000000E+00 0.  1.
        -11    1    4    4    0    0  0.18254314782E-01 -0.59669299794E-01  0.23541810644E-01  0.66694252492E-01  0.51100000000E-03 0.  1.
         11    1    4    4    0    0  0.27988815653E-01 -0.45585716872E-01  0.34770316019E-01  0.63801781961E-01  0.51100000000E-03 0. -1.
</event>
<event>
 8    1  0.1123470E+005  0.1043930E+01  0.7957747E-01            NaN
         13   -1    0    0    0    0  0.00000000000E+00  0.00000000000E+00  0.74505805969E-08  0.10566000000E+00  0.10566000000E+00 0. -1.
     999900   -1    0    0    0    0 -0.00000000000E+00 -0.00000000000E+00 -0.74505805969E-08  0.93827000000E+00  0.93827000000E+00 0. -1.
     999902    2    1    2    0    0 -0.10061487759E-01 -0.20081939821E-01  0.75701331040E-02  0.10202271572E+01  0.10199517770E+01 0.  0.
     999903    2    3    3    0    0  0.68079595383E-01 -0.10854755078E+00 -0.23617312437E-01  0.13179885396E+00  0.19893676605E-01 0.  0.
         14    1    1    2    0    0  0.10061487759E-01  0.20081939821E-01 -0.75701331040E-02  0.23702842827E-01  0.00000000000E+00 0.  1.
     999901    1    3    3    0    0 -0.78141083142E-01  0.88465610963E-01  0.31187445541E-01  0.88842830322E+00  0.88000000000E+00 0. -1.
        -11    1    4    4    0    0  0.11925812404E-01 -0.35655902383E-01 -0.51946213814E-02  0.37958050379E-01  0.51100000000E-03 0.  1.
         11    1    4    4    0    0  0.56153782979E-01 -0.72891648400E-01 -0.18422691055E-01  0.93840803577E-01  0.51100000000E-03 0. -1.
</event>
<event>
 8    1  0.1123470E+005  0.1043930E+01  0.7957747E-01            NaN
         13   -1    0    0    0    0  0.00000000000E+00  0.00000000000E+00  0.74505805969E-08  0.10566000000E+00  0.10566000000E+00 0.  1.
     999900   -1    0    0    0    0 -0.00000000000E+00 -0.00000000000E+00 -0.74505805969E-08  0.93827000000E+00  0.93827000000E+00 0. -1.
     999902    2    1    2    0    0 -0.14101240845E-01 -0.57721174412E-02 -0.18524825074E-01  0.10199439316E+01  0.10196618519E+01 0.  0.
     999903    2    3    3    0    0  0.64010173198E-01  0.10990848505E+00 -0.38515501370E-02  0.12882177399E+00  0.20075797742E-01 0.  0.
         14    1    1    2    0    0  0.14101240845E-01  0.57721174412E-02  0.18524825074E-01  0.23986068397E-01  0.00000000000E+00 0.  1.
     999901    1    3    3    0    0 -0.78111414043E-01 -0.11568060250E+00 -0.14673274937E-01  0.89112215762E+00  0.88000000000E+00 0. -1.
        -11    1    4    4    0    0  0.30394653428E-01  0.50559215323E-01  0.81802431112E-02  0.59558766856E-01  0.51100000000E-03 0. -1.
         11    1    4    4    0    0  0.33615519771E-01  0.59349269731E-01 -0.12031793248E-01  0.69263007131E-01  0.51100000000E-03 0.  1.
</event>
<event>
 8    1  0.1123470E+005  0.1043930E+01  0.7957747E-01            NaN
         13   -1    0    0    0    0  0.00000000000E+00  0.00000000000E+00  0.74505805969E-08  0.10566000000E+00  0.10566000000E+00 0. -1.
     999900   -1    0    0    0    0 -0.00000000000E+00 -0.00000000000E+00 -0.74505805969E-08  0.93827000000E+00  0.93827000000E+00 0. -1.
     999902    2    1    2    0    0  0.38336664451E-02 -0.26325596826E-01  0.69494210371E-02  0.10164340276E+01  0.10160620571E+01 0.  0.
     999903    2    3    3    0    0  0.71632432101E-01  0.10020327866E+00  0.18944694082E-02  0.12478848057E+00  0.19916663519E-01 0.  0.
         14    1    1    2    0    0 -0.38336664451E-02  0.26325596826E-01 -0.69494210371E-02  0.27495972421E-01  0.00000000000E+00 0.  1.
     999901    1    3    3    0    0 -0.67798765656E-01 -0.12652887549E+00  0.50549516289E-02  0.89164554700E+00  0.88000000000E+00 0.  1.
        -11    1    4    4    0    0  0.33984854741E-01  0.42181274551E-01  0.10203786163E-01  0.55123576150E-01  0.51100000000E-03 0. -1.
         11    1    4    4    0    0  0.37647577360E-01  0.58022004113E-01 -0.83093167546E-02  0.69664904424E-01  0.51100000000E-03 0.  1.
</event>
<event>
 8    1  0.1123470E+005  0.1043930E+01  0.7957747E-01            NaN
         13   -1    0    0    0    0  0.00000000000E+00  0.00000000000E+00  0.74505805969E-08  0.10566000000E+00  0.10566000000E+00 0. -1.
     999900   -1    0    0    0    0 -0.00000000000E+00 -0.00000000000E+00 -0.74505805969E-08  0.93827000000E+00  0.93827000000E+00 0.  1.
     999902    2    1    2    0    0 -0.15005670186E-01 -0.16337488937E-01 -0.74362630374E-02  0.10205338103E+01  0.10202655911E+01 0.  0.
     999903    2    3    3    0    0 -0.11887157497E+00 -0.44987274580E-01 -0.35643530767E-01  0.13351375062E+00  0.20028831946E-01 0.  0.
         14    1    1    2    0    0  0.15005670186E-01  0.16337488937E-01  0.74362630374E-02  0.23396189657E-01  0.00000000000E+00 0.  1.
     999901    1    3    3    0    0  0.10386590479E+00  0.28649785643E-01  0.28207267729E-01  0.88702005972E+00  0.88000000000E+00 0. -1.
        -11    1    4    4    0    0 -0.96304705626E-01 -0.32514159780E-01 -0.35671585114E-01  0.10772413851E+00  0.51100000000E-03 0. -1.
         11    1    4    4    0    0 -0.22566869346E-01 -0.12473114799E-01  0.28054347482E-04  0.25789612113E-01  0.51100000000E-03 0.  1.
</event>
<event>
 8    1  0.1123470E+005  0.1043930E+01  0.7957747E-01            NaN
         13   -1    0    0    0    0  0.00000000000E+00  0.00000000000E+00  0.74505805969E-08  0.10566000000E+00  0.10566000000E+00 0.  1.
     999900   -1    0    0    0    0 -0.00000000000E+00 -0.00000000000E+00 -0.74505805969E-08  0.93827000000E+00  0.93827000000E+00 0.  1.
     999902    2    1    2    0    0  0.92519018649E-02 -0.23319020509E-01  0.10531463786E-02  0.10188205690E+01  0.10185111037E+01 0.  0.
     999903    2    3    3    0    0 -0.11031437390E+00 -0.64982236234E-01 -0.86272176663E-02  0.12970548803E+00  0.18897952896E-01 0.  0.
         14    1    1    2    0    0 -0.92519018649E-02  0.23319020509E-01 -0.10531463786E-02  0.25109430955E-01  0.00000000000E+00 0.  1.
     999901    1    3    3    0    0  0.11956627577E+00  0.41663215726E-01  0.96803640450E-02  0.88911508102E+00  0.88000000000E+00 0.  1.
        -11    1    4    4    0    0 -0.39353118967E-01 -0.13649125164E-01 -0.59710283844E-02  0.42081835644E-01  0.51100000000E-03 0. -1.
         11    1    4    4    0    0 -0.70961254937E-01 -0.51333111071E-01 -0.26561892819E-02  0.87623652383E-01  0.51100000000E-03 0.  1.
</event>
<event>
 8    1  0.1123470E+005  0.1043930E+01  0.7957747E-01            NaN
         13   -1    0    0    0    0  0.00000000000E+00  0.00000000000E+00  0.74505805969E-08  0.10566000000E+00  0.10566000000E+00 0. -1.
     999900   -1    0    0    0    0 -0.00000000000E+00 -0.00000000000E+00 -0.74505805969E-08  0.93827000000E+00  0.93827000000E+00 0. -1.
     999902    2    1    2    0    0  0.21231435902E-01  0.11986438123E-02 -0.92280827268E-02  0.10207487980E+01  0.10204855415E+01 0.  0.
     999903    2    3    3    0    0  0.40455454841E-01 -0.10630412796E+00 -0.64285452147E-01  0.13229073886E+00  0.20760751006E-01 0.  0.
         14    1    1    2    0    0 -0.21231435902E-01 -0.11986438123E-02  0.92280827268E-02  0.23181202045E-01  0.00000000000E+00 0. -1.
     999901    1    3    3    0    0 -0.19224018939E-01  0.10750277177E+00  0.55057369420E-01  0.88845805909E+00  0.88000000000E+00 0.  1.
        -11    1    4    4    0    0  0.24674691385E-01 -0.61327447283E-01 -0.48809934411E-01  0.82174004426E-01  0.51100000000E-03 0. -1.
         11    1    4    4    0    0  0.15780763456E-01 -0.44976680679E-01 -0.15475517735E-01  0.50116734434E-01  0.51100000000E-03 0.  1.
</event>
<event>
 8    1  0.1123470E+005  0.1043930E+01  0.7957747E-01            NaN
         13   -1    0    0    0    0  0.00000000000E+00  0.00000000000E+00  0.74505805969E-08  0.10566000000E+00  0.10566000000E+00 0.  1.
     999900   -1    0    0    0    0 -0.00000000000E+00 -0.00000000000E+00 -0.74505805969E-08  0.93827000000E+00  0.93827000000E+00 0. -1.
     999902    2    1    2    0    0  0.23127897672E-01  0.68784224936E-02  0.14886881830E-01  0.10155780760E+01  0.10151822480E+01 0.  0.
     999903    2    3    3    0    0 -0.87433979977E-01 -0.58544061394E-01 -0.59831136204E-01  0.12311697741E+00  0.22492605191E-01 0.  0.
         14    1    1    2    0    0 -0.23127897672E-01 -0.68784224936E-02 -0.14886881830E-01  0.28351924050E-01  0.00000000000E+00 0.  1.
     999901    1    3    3    0    0  0.11056187765E+00  0.65422483888E-01  0.74718018034E-01  0.89246109854E+00  0.88000000000E+00 0.  1.
        -11    1    4    4    0    0 -0.32611945912E-01 -0.29493122254E-01 -0.35333449259E-01  0.56410079188E-01  0.51100000000E-03 0.  1.
         11    1    4    4    0    0 -0.54822034064E-01 -0.29050939140E-01 -0.24497686945E-01  0.66706898223E-01  0.51100000000E-03 0. -1.
</event>
<event>
 8    1  0.1123470E+005  0.1043930E+01  0.7957747E-01            NaN
         13   -1    0    0    0    0  0.00000000000E+00  0.00000000000E+00  0.74505805969E-08  0.10566000000E+00  0.10566000000E+00 0.  1.
     999900   -1    0    0    0    0 -0.00000000000E+00 -0.00000000000E+00 -0.74505805969E-08  0.93827000000E+00  0.93827000000E+00 0.  1.
     999902    2    1    2    0    0  0.40667933337E-02 -0.16183159773E-01  0.17649389152E-01  0.10196414347E+01  0.10193521084E+01 0.  0.
     999903    2    3    3    0    0  0.73066773415E-01 -0.10361970358E-01 -0.10349841398E+00  0.12864666830E+00  0.19796963464E-01 0.  0.
         14    1    1    2    0    0 -0.40667933337E-02  0.16183159773E-01 -0.17649389152E-01  0.24288565328E-01  0.00000000000E+00 0. -1.
     999901    1    3    3    0    0 -0.68999980081E-01 -0.58211894152E-02  0.12114780313E+00  0.89099476637E+00  0.88000000000E+00 0. -1.
        -11    1    4    4    0    0  0.45904708192E-01 -0.95174938909E-02 -0.49411523797E-01  0.68114497202E-01  0.51100000000E-03 0. -1.
         11    1    4    4    0    0  0.27162065223E-01 -0.84447646688E-03 -0.54086890180E-01  0.60532171099E-01  0.51100000000E-03 0.  1.
</event>
<event>
 7    1  0.1216822E+005  0.1043930E+01  0.7957747E-01            NaN
         13   -1    0    0    0    0  0.00000000000E+00  0.00000000000E+00  0.74505805969E-08  0.10566000000E+00  0.10566000000E+00 0.  1.
     999900   -1    0    0    0    0 -0.00000000000E+00 -0.00000000000E+00 -0.74505805969E-08  0.93827000000E+00  0.93827000000E+00 0. -1.
     999903    2    1    2    0    0 -0.76293246764E-01 -0.59944243271E-01  0.57596192541E-01  0.11477387118E+00  0.21017809284E-01 0.  0.
         14    1    1    2    0    0  0.29582250120E-02  0.35733210593E-01  0.22208888968E-01  0.42176393678E-01  0.00000000000E+00 0. -1.
     999901    1    1    2    0    0  0.73335021752E-01  0.24211032679E-01 -0.79805081510E-01  0.88697973514E+00  0.88000000000E+00 0. -1.
        -11    1    3    3    0    0 -0.18680642640E-01 -0.12607445702E-01  0.24190542084E-01  0.33065957478E-01  0.51100000000E-03 0.  1.
         11    1    3    3    0    0 -0.57612604124E-01 -0.47336797569E-01  0.33405650457E-01  0.81707913702E-01  0.51100000000E-03 0. -1.
</event>
<event>
 8    1  0.1123470E+005  0.1043930E+01  0.7957747E-01            NaN
         13   -1    0    0    0    0  0.00000000000E+00  0.00000000000E+00  0.74505805969E-08  0.10566000000E+00  0.10566000000E+00 0. -1.
     999900   -1    0    0    0    0 -0.00000000000E+00 -0.00000000000E+00 -0.74505805969E-08  0.93827000000E+00  0.93827000000E+00 0. -1.
     999902    2    1    2    0    0  0.17846487017E-01  0.69093578461E-02 -0.14810153082E-01  0.10197313025E+01  0.10194441389E+01 0.  0.
     999903    2    3    3    0    0 -0.48436766037E-01  0.92914262108E-01  0.72248698802E-01  0.12879384295E+00  0.19717989175E-01 0.  0.
         14    1    1    2    0    0 -0.17846487017E-01 -0.69093578461E-02  0.14810153082E-01  0.24198697465E-01  0.00000000000E+00 0.  1.
     999901    1    3    3    0    0  0.66283253054E-01 -0.86004904262E-01 -0.87058851884E-01  0.89093745958E+00  0.88000000000E+00 0. -1.
        -11    1    4    4    0    0 -0.33266857142E-01  0.60797215620E-01  0.58529506142E-01  0.90713556988E-01  0.51100000000E-03 0. -1.
         11    1    4    4    0    0 -0.15169908895E-01  0.32117046488E-01  0.13719192660E-01  0.38080285966E-01  0.51100000000E-03 0.  1.
</event>
<event>
 8    1  0.1123470E+005  0.1043930E+01  0.7957747E-01            NaN
         13   -1    0    0    0    0  0.00000000000E+00  0.00000000000E+00  0.74505805969E-08  0.10566000000E+00  0.10566000000E+00 0. -1.
     999900   -1    0    0    0    0 -0.00000000000E+00 -0.00000000000E+00 -0.74505805969E-08  0.93827000000E+00  0.93827000000E+00 0.  1.
     999902    2    1    2    0    0 -0.13029477230E-01  0.36776930541E-02 -0.19153272977E-01  0.10204749245E+01  0.10202053376E+01 0.  0.
     999903    2    3    3    0    0 -0.23660657569E-01 -0.38381346988E-01 -0.12443733061E+00  0.13313805627E+00  0.14426997762E-01 0.  0.
         14    1    1    2    0    0  0.13029477230E-01 -0.36776930541E-02  0.19153272977E-01  0.23455075545E-01  0.00000000000E+00 0. -1.
     999901    1    3    3    0    0  0.10631180339E-01  0.42059040042E-01  0.10528405764E+00  0.88733686818E+00  0.88000000000E+00 0.  1.
        -11    1    4    4    0    0 -0.80306840959E-02 -0.32011191145E-02 -0.18642322308E-01  0.20555689059E-01  0.51100000000E-03 0.  1.
         11    1    4    4    0    0 -0.15629973473E-01 -0.35180227873E-01 -0.10579500830E+00  0.11258236721E+00  0.51100000000E-03 0. -1.
</event>
<event>
 8    1  0.1123470E+005  0.1043930E+01  0.7957747E-01            NaN
         13   -1    0    0    0    0  0.00000000000E+00  0.00000000000E+00  0.74505805969E-08  0.10566000000E+00  0.10566000000E+00 0.  1.
     999900   -1    0    0    0    0 -0.00000000000E+00 -0.00000000000E+00 -0.74505805969E-08  0.93827000000E+00  0.93827000000E+00 0. -1.
     999902    2    1    2    0    0  0.16607431088E-01  0.82694658042E-02  0.14362590169E-01  0.10204678000E+01  0.10201980475E+01 0.  0.
     999903    2    3    3    0    0  0.11149374903E+00  0.19664177978E-01 -0.64603466360E-01  0.13177837682E+00  0.19349334968E-01 0.  0.
         14    1    1    2    0    0 -0.16607431088E-01 -0.82694658042E-02 -0.14362590169E-01  0.23462199991E-01  0.00000000000E+00 0. -1.
     999901    1    3    3    0    0 -0.94886317944E-01 -0.11394712174E-01  0.78966056529E-01  0.88868942319E+00  0.88000000000E+00 0.  1.
        -11    1    4    4    0    0  0.10225062915E+00  0.12325680326E-01 -0.56740440375E-01  0.11758763648E+00  0.51100000000E-03 0. -1.
         11    1    4    4    0    0  0.92431198778E-02  0.73384976517E-02 -0.78630259853E-02  0.14190740344E-01  0.51100000000E-03 0.  1.
</event>
<event>
 8    1  0.1123470E+005  0.1043930E+01  0.7957747E-01            NaN
         13   -1    0    0    0    0  0.00000000000E+00  0.00000000000E+00  0.74505805969E-08  0.10566000000E+00  0.10566000000E+00 0.  1.
     999900   -1    0    0    0    0 -0.00000000000E+00 -0.00000000000E+00 -0.74505805969E-08  0.93827000000E+00  0.93827000000E+00 0. -1.
     999902    2    1    2    0    0 -0.13664528781E-01 -0.67918789981E-02  0.14934580339E-01  0.10225784039E+01  0.10223554673E+01 0.  0.
     999903    2    3    3    0    0 -0.27271155160E-01  0.90334431793E-01  0.92662510441E-01  0.13372504609E+00  0.19799536351E-01 0.  0.
         14    1    1    2    0    0  0.13664528781E-01  0.67918789981E-02 -0.14934580339E-01  0.21351596124E-01  0.00000000000E+00 0. -1.
     999901    1    3    3    0    0  0.13606626379E-01 -0.97126310791E-01 -0.77727930102E-01  0.88885335779E+00  0.88000000000E+00 0.  1.
        -11    1    4    4    0    0 -0.89002617511E-02  0.61646824081E-01  0.57657494640E-01  0.84877519919E-01  0.51100000000E-03 0. -1.
         11    1    4    4    0    0 -0.18370893408E-01  0.28687607712E-01  0.35005015801E-01  0.48847526172E-01  0.51100000000E-03 0.  1.
</event>
<event>
 8    1  0.1123470E+005  0.1043930E+01  0.7957747E-01            NaN
         13   -1    0    0    0    0  0.00000000000E+00  0.00000000000E+00  0.74505805969E-08  0.10566000000E+00  0.10566000000E+00 0.  1.
     999900   -1    0    0    0    0 -0.00000000000E+00 -0.00000000000E+00 -0.74505805969E-08  0.93827000000E+00  0.93827000000E+00 0. -1.
     999902    2    1    2    0    0  0.17810538946E-02 -0.20738691482E-01 -0.90843609888E-02  0.10212189654E+01  0.10209663972E+01 0.  0.
     999903    2    3    3    0    0  0.76877054836E-01 -0.32926709051E-01 -0.10151900863E+00  0.13311304762E+00  0.20462761410E-01 0.  0.
         14    1    1    2    0    0 -0.17810538946E-02  0.20738691482E-01  0.90843609888E-02  0.22711034586E-01  0.00000000000E+00 0.  1.
     999901    1    3    3    0    0 -0.75096000941E-01  0.12188017568E-01  0.92434647645E-01  0.88810591779E+00  0.88000000000E+00 0. -1.
        -11    1    4    4    0    0  0.43585505876E-01 -0.24660822618E-01 -0.72855466439E-01  0.88408328825E-01  0.51100000000E-03 0.  1.
         11    1    4    4    0    0  0.33291548960E-01 -0.82658864328E-02 -0.28663542195E-01  0.44704718798E-01  0.51100000000E-03 0. -1.
</event>
<event>
 8    1  0.1123470E+005  0.1043930E+01  0.7957747E-01            NaN
         13   -1    0    0    0    0  0.00000000000E+00  0.00000000000E+00  0.74505805969E-08  0.10566000000E+00  0.10566000000E+00 0. -1.
     999900   -1    0    0    0    0 -0.00000000000E+00 -0.00000000000E+00 -0.74505805969E-08  0.93827000000E+00  0.93827000000E+00 0.  1.
     999902    2    1    2    0    0 -0.60382593141E-02  0.43654873799E-02 -0.22022379490E-01  0.10206812741E+01  0.10204164641E+01 0.  0.
     999903    2    3    3    0    0  0.10083820691E-01  0.87481033353E-01  0.92561492332E-01  0.12922315447E+00  0.19400493619E-01 0.  0.
         14    1    1    2    0    0  0.60382593141E-02 -0.43654873799E-02  0.22022379490E-01  0.23248725857E-01  0.00000000000E+00 0. -1.
     999901    1    3    3    0    0 -0.16122080005E-01 -0.83115545973E-01 -0.11458387182E+00  0.89145811967E+00  0.88000000000E+00 0.  1.
        -11    1    4    4    0    0 -0.44900404299E-02  0.43171508254E-01  0.41330175002E-01  0.59936500354E-01  0.51100000000E-03 0.  1.
         11    1    4    4    0    0  0.14573861121E-01  0.44309525099E-01  0.51231317329E-01  0.69286654117E-01  0.51100000000E-03 0. -1.
</event>
<event>
 8    1  0.1123470E+005  0.1043930E+01  0.7957747E-01            NaN
         13   -1    0    0    0    0  0.00000000000E+00  0.00000000000E+00  0.74505805969E-08  0.10566000000E+00  0.10566000000E+00 0.  1.
     999900   -1    0    0    0    0 -0.00000000000E+00 -0.00000000000E+00 -0.74505805969E-08  0.93827000000E+00  0.93827000000E+00 0.  1.
     999902    2    1    2    0    0  0.15678134996E-01 -0.15447319013E-01  0.89916409245E-02  0.10201545255E+01  0.10198774351E+01 0.  0.
     999903    2    3    3    0    0 -0.65410044379E-01 -0.68001333857E-01 -0.86813470209E-01  0.12969630826E+00  0.19542222366E-01 0.  0.
         14    1    1    2    0    0 -0.15678134996E-01  0.15447319013E-01 -0.89916409245E-02  0.23775474510E-01  0.00000000000E+00 0. -1.
     999901    1    3    3    0    0  0.81088179375E-01  0.52554014844E-01  0.95805111134E-01  0.89045821723E+00  0.88000000000E+00 0. -1.
        -11    1    4    4    0    0 -0.57635751638E-01 -0.52902153385E-01 -0.63027247131E-01  0.10046498246E+00  0.51100000000E-03 0.  1.
         11    1    4    4    0    0 -0.77742927405E-02 -0.15099180473E-01 -0.23786223078E-01  0.29231325797E-01  0.51100000000E-03 0. -1.
</event>
<event>
 8    1  0.1123470E+005  0.1043930E+01  0.7957747E-01            NaN
         13   -1    0    0    0    0  0.00000000000E+00  0.00000000000E+00  0.74505805969E-08  0.10566000000E+00  0.10566000000E+00 0. -1.
     999900   -1    0    0    0    0 -0.00000000000E+00 -0.00000000000E+00 -0.74505805969E-08  0.93827000000E+00  0.93827000000E+00 0. -1.
     999902    2    1    2    0    0 -0.55902199926E-02 -0.20339388535E-01  0.12582316857E-01  0.10193687300E+01  0.10190727902E+01 0.  0.
     999903    2    3    3    0    0 -0.89136992213E-01  0.87968566060E-01 -0.18736367766E-01  0.12825059185E+00  0.20329555736E-01 0.  0.
         14    1    1    2    0    0  0.55902199926E-02  0.20339388535E-01 -0.12582316857E-01  0.24561269980E-01  0.00000000000E+00 0.  1.
     999901    1    3    3    0    0  0.83546772220E-01 -0.10830795459E+00  0.31318684623E-01  0.89111813817E+00  0.88000000000E+00 0.  1.
        -11    1    4    4    0    0 -0.63957860833E-01  0.54900759778E-01 -0.48653081466E-02  0.84431236701E-01  0.51100000000E-03 0. -1.
         11    1    4    4    0    0 -0.25179131379E-01  0.33067806282E-01 -0.13871059619E-01  0.43819355145E-01  0.51100000000E-03 0.  1.
</event>
<event>
 8    1  0.1123470E+005  0.1043930E+01  0.7957747E-01            NaN
         13   -1    0    0    0    0  0.00000000000E+00  0.00000000000E+00  0.74505805969E-08  0.10566000000E+00  0.10566000000E+00 0. -1.
     999900   -1    0    0    0    0 -0.00000000000E+00 -0.00000000000E+00 -0.74505805969E-08  0.93827000000E+00  0.93827000000E+00 0.  1.
     999902    2    1    2    0    0 -0.66507329109E-02 -0.47751035510E-02  0.22630332970E-01  0.10198641355E+01  0.10195801534E+01 0.  0.
     999903    2    3    3    0    0 -0.50616065932E-01 -0.75408830177E-02  0.12164118801E+00  0.13321665798E+00  0.18200227901E-01 0.  0.
         14    1    1    2    0    0  0.66507329109E-02  0.47751035510E-02 -0.22630332970E-01  0.24065864466E-01  0.00000000000E+00 0.  1.
     999901    1    3    3    0    0  0.43965333021E-01  0.27657794666E-02 -0.99010855037E-01  0.88664747756E+00  0.88000000000E+00 0.  1.
        -11    1    4    4    0    0 -0.30958811771E-01  0.25618820873E-03  0.52916165776E-01  0.61309831023E-01  0.51100000000E-03 0.  1.
         11    1    4    4    0    0 -0.19657254161E-01 -0.77970712264E-02  0.68725022231E-01  0.71906826954E-01  0.51100000000E-03 0. -1.
</event>
<event>
 8    1  0.1123470E+005  0.1043930E+01  0.7957747E-01            NaN
         13   -1    0    0    0    0  0.00000000000E+00  0.00000000000E+00  0.74505805969E-08  0.10566000000E+00  0.10566000000E+00 0.  1.
     999900   -1    0    0    0    0 -0.00000000000E+00 -0.00000000000E+00 -0.74505805969E-08  0.93827000000E+00  0.93827000000E+00 0. -1.
     999902    2    1    2    0    0 -0.24142499256E-01 -0.46062333585E-02  0.29145692534E-02  0.10191798006E+01  0.10188792341E+01 0.  0.
     999903    2    3    3    0    0 -0.73078425951E-01  0.38594162154E-01  0.10019303578E+00  0.13141626275E+00  0.20040558997E-01 0.  0.
         14    1    1    2    0    0  0.24142499256E-01  0.46062333585E-02 -0.29145692534E-02  0.24750199394E-01  0.00000000000E+00 0. -1.
     999901    1    3    3    0    0  0.48935926695E-01 -0.43200395513E-01 -0.97278466527E-01  0.88776353785E+00  0.88000000000E+00 0. -1.
        -11    1    4    4    0    0 -0.60392936566E-01  0.23756164994E-01  0.83284080366E-01  0.10558485368E+00  0.51100000000E-03 0.  1.
         11    1    4    4    0    0 -0.12685489385E-01  0.14837997160E-01  0.16908955414E-01  0.25831409076E-01  0.51100000000E-03 0. -1.
</event>
<event>
 8    1  0.1123470E+005  0.1043930E+01  0.7957747E-01            NaN
         13   -1    0    0    0    0  0.00000000000E+00  0.00000000000E+00  0.74505805969E-08  0.10566000000E+00  0.10566000000E+00 0. -1.
     999900   -1    0    0    0    0 -0.00000000000E+00 -0.00000000000E+00 -0.74505805969E-08  0.93827000000E+00  0.93827000000E+00 0. -1.
     999902    2    1    2    0    0 -0.42110350257E-02  0.12574709946E-01  0.19377810713E-01  0.10204490355E+01  0.10201788463E+01 0.  0.
     999903    2    3    3    0    0  0.11530794620E+00 -0.52246905005E-01  0.21463149675E-01  0.13000477711E+00  0.20369431464E-01 0.  0.
         14    1    1    2    0    0  0.42110350257E-02 -0.12574709946E-01 -0.19377810713E-01  0.23480964508E-01  0.00000000000E+00 0.  1.
     999901    1    3    3    0    0 -0.11951898123E+00  0.64821614951E-01 -0.20853389617E-02  0.89044425838E+00  0.88000000000E+00 0. -1.
        -11    1    4    4    0    0  0.43703285624E-01 -0.30808093499E-01  0.91603694406E-02  0.54252090178E-01  0.51100000000E-03 0. -1.
         11    1    4    4    0    0  0.71604660580E-01 -0.21438811505E-01  0.12302780234E-01  0.75752686936E-01  0.51100000000E-03 0.  1.
</event>
<event>
 8    1  0.1123470E+005  0.1043930E+01  0.7957747E-01            NaN
         13   -1    0    0    0    0  0.00000000000E+00  0.00000000000E+00  0.74505805969E-08  0.10566000000E+00  0.10566000000E+00 0.  1.
     999900   -1    0    0    0    0 -0.00000000000E+00 -0.00000000000E+00 -0.74505805969E-08  0.93827000000E+00  0.93827000000E+00 0.  1.
     999902    2    1    2    0    0  0.13320177530E-01 -0.19222917345E-01 -0.14887288482E-01  0.10162067419E+01  0.10158285108E+01 0.  0.
     999903    2    3    3    0    0  0.22308946540E-01  0.86643110741E-01  0.84127522463E-01  0.12430296534E+00  0.19211179625E-01 0.  0.
         14    1    1    2    0    0 -0.13320177530E-01  0.19222917345E-01  0.14887288482E-01  0.27723258088E-01  0.00000000000E+00 0.  1.
     999901    1    3    3    0    0 -0.89887690102E-02 -0.10586602809E+00 -0.99014810945E-01  0.89190377657E+00  0.88000000000E+00 0.  1.
        -11    1    4    4    0    0  0.10945642720E-01  0.47663718141E-01  0.58654322361E-01  0.76369023656E-01  0.51100000000E-03 0. -1.
         11    1    4    4    0    0  0.11363303820E-01  0.38979392600E-01  0.25473200103E-01  0.47933941687E-01  0.51100000000E-03 0.  1.
</event>
<event>
 8    1  0.1123470E+005  0.1043930E+01  0.7957747E-01            NaN
         13   -1    0    0    0    0  0.00000000000E+00  0.00000000000E+00  0.74505805969E-08  0.10566000000E+00  0.10566000000E+00 0.  1.
     999900   -1    0    0    0    0 -0.00000000000E+00 -0.00000000000E+00 -0.74505805969E-08  0.93827000000E+00  0.93827000000E+00 0.  1.
     999902    2    1    2    0    0  0.23549651548E-01  0.17839079726E-02  0.48618709538E-02  0.10198176338E+01  0.10195325399E+01 0.  0.
     999903    2    3    3    0    0  0.53289563449E-01 -0.90057585064E-01 -0.76018576120E-01  0.13085139768E+00  0.19827207553E-01 0.  0.
         14    1    1    2    0    0 -0.23549651548E-01 -0.17839079726E-02 -0.48618709538E-02  0.24112366223E-01  0.00000000000E+00 0. -1.
     999901    1    3    3    0    0 -0.29739911901E-01  0.91841493036E-01  0.80880447074E-01  0.88896623610E+00  0.88000000000E+00 0. -1.
        -11    1    4    4    0    0  0.32774549735E-01 -0.68876861871E-01 -0.47701037116E-01  0.89965789468E-01  0.51100000000E-03 0. -1.
         11    1    4    4    0    0  0.20515013713E-01 -0.21180723192E-01 -0.28317539004E-01  0.40885608212E-01  0.51100000000E-03 0.  1.
</event>
<event>
 8    1  0.1123470E+005  0.1043930E+01  0.7957747E-01            NaN
         13   -1    0    0    0    0  0.00000000000E+00  0.00000000000E+00  0.74505805969E-08  0.10566000000E+00  0.10566000000E+00 0.  1.
     999900   -1    0    0    0    0 -0.00000000000E+00 -0.00000000000E+00 -0.74505805969E-08  0.93827000000E+00  0.93827000000E+00 0. -1.
     999902    2    1    2    0    0 -0.61794921986E-02 -0.55193948414E-02 -0.22045041606E-01  0.10203793375E+01  0.10201075231E+01 0.  0.
     999903    2    3    3    0    0  0.85608633539E-01 -0.96387855191E-01 -0.10283333212E-01  0.13087359000E+00  0.20067208386E-01 0.  0.
         14    1    1    2    0    0  0.61794921986E-02  0.55193948414E-02  0.22045041606E-01  0.23550662467E-01  0.00000000000E+00 0.  1.
     999901    1    3    3    0    0 -0.91788125738E-01  0.90868460349E-01 -0.11761708394E-01  0.88950574753E+00  0.88000000000E+00 0.  1.
        -11    1    4    4    0    0  0.61796642053E-01 -0.77649106477E-01 -0.14440059970E-01  0.10028452103E+00  0.51100000000E-03 0.  1.
         11    1    4    4    0    0  0.23811991486E-01 -0.18738748714E-01  0.41567267580E-02  0.30589068966E-01  0.51100000000E-03 0. -1.
</event>
<event>
 8    1  0.1123470E+005  0.1043930E+01  0.7957747E-01            NaN
         13   -1    0    0    0    0  0.00000000000E+00  0.00000000000E+00  0.74505805969E-08  0.10566000000E+00  0.10566000000E+00 0.  1.
     999900   -1    0    0    0    0 -0.00000000000E+00 -0.00000000000E+00 -0.74505805969E-08  0.93827000000E+00  0.93827000000E+00 0.  1.
     999902    2    1    2    0    0  0.16340517651E-01  0.13664029752E-01  0.10985291957E-01  0.10199634636E+01  0.10196818486E+01 0.  0.
     999903    2    3    3    0    0 -0.92388295600E-01  0.88385145495E-01  0.14016702995E-01  0.13012393348E+00  0.19703781184E-01 0.  0.
         14    1    1    2    0    0 -0.16340517651E-01 -0.13664029752E-01 -0.10985291957E-01  0.23966536369E-01  0.00000000000E+00 0. -1.
     999901    1    3    3    0    0  0.10872881325E+00 -0.74721115743E-01 -0.30314110384E-02  0.88983953015E+00  0.88000000000E+00 0. -1.
        -11    1    4    4    0    0 -0.60335629831E-01  0.69696364219E-01  0.11985125517E-01  0.92961689782E-01  0.51100000000E-03 0.  1.
         11    1    4    4    0    0 -0.32052665769E-01  0.18688781276E-01  0.20315774780E-02  0.37162243696E-01  0.51100000000E-03 0. -1.
</event>
<event>
 7    1  0.1123470E+005  0.1043930E+01  0.7957747E-01            NaN
         13   -1    0    0    0    0  0.00000000000E+00  0.00000000000E+00  0.74505805969E-08  0.10566000000E+00  0.10566000000E+00 0.  1.
     999900   -1    0    0    0    0 -0.00000000000E+00 -0.00000000000E+00 -0.74505805969E-08  0.93827000000E+00  0.93827000000E+00 0. -1.
     999903    2    1    2    0    0  0.71579291826E-01 -0.38284585272E-01 -0.50595113632E-01  0.97686717495E-01  0.19837458602E-01 0.  0.
         14    1    1    2    0    0  0.15504014997E-01 -0.50969311838E-01 -0.14073038385E-01  0.55102591950E-01  0.00000000000E+00 0. -1.
     999901    1    1    2    0    0 -0.87083306823E-01  0.89253897110E-01  0.64668152017E-01  0.89114069055E+00  0.88000000000E+00 0.  1.
        -11    1    3    3    0    0  0.60682236951E-02 -0.44416306196E-02 -0.12731676300E-01  0.14795544052E-01  0.51100000000E-03 0. -1.
         11    1    3    3    0    0  0.65511068131E-01 -0.33842954653E-01 -0.37863437332E-01  0.82891173444E-01  0.51100000000E-03 0.  1.
</event>
<event>
 8    1  0.1123470E+005  0.1043930E+01  0.7957747E-01            NaN
         13   -1    0    0    0    0  0.00000000000E+00  0.00000000000E+00  0.74505805969E-08  0.10566000000E+00  0.10566000000E+00 0.  1.
     999900   -1    0    0    0    0 -0.00000000000E+00 -0.00000000000E+00 -0.74505805969E-08  0.93827000000E+00  0.93827000000E+00 0.  1.
     999902    2    1    2    0    0 -0.31567884083E-02  0.50371547397E-02  0.28050149264E-01  0.10152568573E+01  0.10148518794E+01 0.  0.
     999903    2    3    3    0    0 -0.83946523798E-01  0.75561064929E-02 -0.88618147016E-01  0.12388442229E+00  0.19749949437E-01 0.  0.
         14    1    1    2    0    0  0.31567884083E-02 -0.50371547397E-02 -0.28050149264E-01  0.28673142741E-01  0.00000000000E+00 0. -1.
     999901    1    3    3    0    0  0.80789735390E-01 -0.25189517532E-02  0.11666829628E+00  0.89137243497E+00  0.88000000000E+00 0. -1.
        -11    1    4    4    0    0 -0.29990251819E-01 -0.55471455639E-02 -0.38186202947E-01  0.48873645706E-01  0.51100000000E-03 0. -1.
         11    1    4    4    0    0 -0.53956271980E-01  0.13103252057E-01 -0.50431944070E-01  0.75010776586E-01  0.51100000000E-03 0.  1.
</event>
<event>
 8    1  0.1123470E+005  0.1043930E+01  0.7957747E-01            NaN
         13   -1    0    0    0    0  0.00000000000E+00  0.00000000000E+00  0.74505805969E-08  0.10566000000E+00  0.10566000000E+00 0.  1.
     999900   -1    0    0    0    0 -0.00000000000E+00 -0.00000000000E+00 -0.74505805969E-08  0.93827000000E+00  0.93827000000E+00 0.  1.
     999902    2    1    2    0    0 -0.81470870798E-02 -0.22912230027E-01 -0.33464271506E-02  0.10193832306E+01  0.10190876444E+01 0.  0.
     999903    2    3    3    0    0  0.12291373780E+00 -0.25951238704E-01  0.22788856282E-01  0.12928816354E+00  0.20367708044E-01 0.  0.
         14    1    1    2    0    0  0.81470870798E-02  0.22912230027E-01  0.33464271506E-02  0.24546769388E-01  0.00000000000E+00 0.  1.
     999901    1    3    3    0    0 -0.13106082488E+00  0.30390086770E-02 -0.26135283432E-01  0.89009506707E+00  0.88000000000E+00 0. -1.
        -11    1    4    4    0    0  0.27921844513E-01 -0.72322533067E-03 -0.17314900844E-02  0.27989491506E-01  0.51100000000E-03 0.  1.
         11    1    4    4    0    0  0.94991893283E-01 -0.25228013373E-01  0.24520346366E-01  0.10129867203E+00  0.51100000000E-03 0. -1.
</event>
<event>
 8    1  0.1123470E+005  0.1043930E+01  0.7957747E-01            NaN
         13   -1    0    0    0    0  0.00000000000E+00  0.00000000000E+00  0.74505805969E-08  0.10566000000E+00  0.10566000000E+00 0.  1.
     999900   -1    0    0    0    0 -0.00000000000E+00 -0.00000000000E+00 -0.74505805969E-08  0.93827000000E+00  0.93827000000E+00 0. -1.
     999902    2    1    2    0    0  0.52488321326E-02  0.20349977353E-01  0.12378926195E-01  0.10195392306E+01  0.10192474347E+01 0.  0.
     999903    2    3    3    0    0 -0.77612846649E-01  0.71753523761E-01 -0.73412966247E-01  0.13000641436E+00  0.18435889608E-01 0.  0.
         14    1    1    2    0    0 -0.52488321326E-02 -0.20349977353E-01 -0.12378926195E-01  0.24390769376E-01  0.00000000000E+00 0. -1.
     999901    1    3    3    0    0  0.82861678782E-01 -0.51403546408E-01  0.85791892441E-01  0.88953281626E+00  0.88000000000E+00 0. -1.
        -11    1    4    4    0    0 -0.28600371027E-01  0.38776987943E-01 -0.34590651504E-01  0.59316189268E-01  0.51100000000E-03 0. -1.
         11    1    4    4    0    0 -0.49012475623E-01  0.32976535817E-01 -0.38822314743E-01  0.70690225096E-01  0.51100000000E-03 0.  1.
</event>
<event>
 8    1  0.1123470E+005  0.1043930E+01  0.7957747E-01            NaN
         13   -1    0    0    0    0  0.00000000000E+00  0.00000000000E+00  0.74505805969E-08  0.10566000000E+00  0.10566000000E+00 0. -1.
     999900   -1    0    0    0    0 -0.00000000000E+00 -0.00000000000E+00 -0.74505805969E-08  0.93827000000E+00  0.93827000000E+00 0.  1.
     999902    2    1    2    0    0  0.32377732586E-02  0.14681393406E-01  0.17698264474E-01  0.10207081342E+01  0.10204439426E+01 0.  0.
     999903    2    3    3    0    0 -0.39714737239E-01 -0.36260251033E-01 -0.11475475408E+00  0.12830476604E+00  0.20034800870E-01 0.  0.
         14    1    1    2    0    0 -0.32377732586E-02 -0.14681393406E-01 -0.17698264474E-01  0.23221865847E-01  0.00000000000E+00 0.  1.
     999901    1    3    3    0    0  0.42952510497E-01  0.50941644440E-01  0.13245301855E+00  0.89240336811E+00  0.88000000000E+00 0. -1.
        -11    1    4    4    0    0 -0.21911496150E-01 -0.31162004169E-01 -0.86498206243E-01  0.94516585695E-01  0.51100000000E-03 0.  1.
         11    1    4    4    0    0 -0.17803241089E-01 -0.50982468645E-02 -0.28256547837E-01  0.33788180344E-01  0.51100000000E-03 0. -1.
</event>
<event>
 8    1  0.1123470E+005  0.1043930E+01  0.7957747E-01            NaN
         13   -1    0    0    0    0  0.00000000000E+00  0.00000000000E+00  0.74505805969E-08  0.10566000000E+00  0.10566000000E+00 0. -1.
     999900   -1    0    0    0    0 -0.00000000000E+00 -0.00000000000E+00 -0.74505805969E-08  0.93827000000E+00  0.93827000000E+00 0.  1.
     999902    2    1    2    0    0  0.99770600702E-02 -0.21673251988E-01  0.44985417433E-02  0.10196502048E+01  0.10193610899E+01 0.  0.
     999903    2    3    3    0    0 -0.81479466818E-01 -0.59983130062E-01 -0.79422426230E-01  0.13011399305E+00  0.19617593986E-01 0.  0.
         14    1    1    2    0    0 -0.99770600702E-02  0.21673251988E-01 -0.44985417433E-02  0.24279795246E-01  0.00000000000E+00 0.  1.
     999901    1    3    3    0    0  0.91456526888E-01  0.38309878074E-01  0.83920967974E-01  0.88953621170E+00  0.88000000000E+00 0.  1.
        -11    1    4    4    0    0 -0.34449072854E-01 -0.24229816088E-01 -0.21151170292E-01  0.47132321541E-01  0.51100000000E-03 0. -1.
         11    1    4    4    0    0 -0.47030393965E-01 -0.35753313974E-01 -0.58271255939E-01  0.82981671508E-01  0.51100000000E-03 0.  1.
</event>
<event>
 8    1  0.1123470E+005  0.1043930E+01  0.7957747E-01            NaN
         13   -1    0    0    0    0  0.00000000000E+00  0.00000000000E+00  0.74505805969E-08  0.10566000000E+00  0.10566000000E+00 0.  1.
     999900   -1    0    0    0    0 -0.00000000000E+00 -0.00000000000E+00 -0.74505805969E-08  0.93827000000E+00  0.93827000000E+00 0.  1.
     999902    2    1    2    0    0  0.15038479459E-01 -0.17024588070E-01  0.52156757977E-02  0.10206234400E+01  0.10203572956E+01 0.  0.
     999903    2    3    3    0    0  0.69474453556E-01  0.60835451789E-01  0.91296251733E-01  0.13133421451E+00  0.19647351700E-01 0.  0.
         14    1    1    2    0    0 -0.15038479459E-01  0.17024588070E-01 -0.52156757977E-02  0.23306559966E-01  0.00000000000E+00 0. -1.
     999901    1    3    3    0    0 -0.54435974097E-01 -0.77860039859E-01 -0.86080575935E-01  0.88928922553E+00  0.88000000000E+00 0.  1.
        -11    1    4    4    0    0  0.22784986938E-01  0.27151405900E-01  0.46019359715E-01  0.58089560695E-01  0.51100000000E-03 0. -1.
         11    1    4    4    0    0  0.46689466618E-01  0.33684045889E-01  0.45276892018E-01  0.73244653814E-01  0.51100000000E-03 0.  1.
</event>
<event>
 8    1  0.1123470E+005  0.1043930E+01  0.7957747E-01            NaN
         13   -1    0    0    0    0  0.00000000000E+00  0.00000000000E+00  0.74505805969E-08  0.10566000000E+00  0.10566000000E+00 0.  1.
     999900   -1    0    0    0    0 -0.00000000000E+00 -0.00000000000E+00 -0.74505805969E-08  0.93827000000E+00  0.93827000000E+00 0. -1.
     999902    2    1    2    0    0  0.13451265749E-01  0.78813835452E-02 -0.16934131221E-01  0.10209122339E+01  0.10206527185E+01 0.  0.
     999903    2    3    3    0    0 -0.90048581910E-01  0.73926936839E-01  0.53568254359E-01  0.12959589276E+00  0.18750958680E-01 0.  0.
         14    1    1    2    0    0 -0.13451265749E-01 -0.78813835452E-02  0.16934131221E-01  0.23017766118E-01  0.00000000000E+00 0.  1.
     999901    1    3    3    0    0  0.10349984766E+00 -0.66045553294E-01 -0.70502385580E-01  0.89131634112E+00  0.88000000000E+00 0. -1.
        -11    1    4    4    0    0 -0.14601500317E-01  0.65800243026E-02  0.12978290524E-01  0.20620321949E-01  0.51100000000E-03 0.  1.
         11    1    4    4    0    0 -0.75447081593E-01  0.67346912536E-01  0.40589963835E-01  0.10897557081E+00  0.51100000000E-03 0. -1.
</event>
<event>
 8    1  0.1123470E+005  0.1043930E+01  0.7957747E-01            NaN
         13   -1    0    0    0    0  0.00000000000E+00  0.00000000000E+00  0.74505805969E-08  0.10566000000E+00  0.10566000000E+00 0.  1.
     999900   -1    0    0    0    0 -0.00000000000E+00 -0.00000000000E+00 -0.74505805969E-08  0.93827000000E+00  0.93827000000E+00 0. -1.
     999902    2    1    2    0    0  0.13452787340E-01 -0.18948924517E-01 -0.22449608342E-02  0.10205830714E+01  0.10203159934E+01 0.  0.
     999903    2    3    3    0    0  0.87044364716E-01 -0.88048750286E-01  0.46068259879E-01  0.13349532290E+00  0.19220114763E-01 0.  0.
         14    1    1    2    0    0 -0.13452787340E-01  0.18948924517E-01  0.22449608342E-02  0.23346928636E-01  0.00000000000E+00 0. -1.
     999901    1    3    3    0    0 -0.73591577376E-01  0.69099825769E-01 -0.48313220714E-01  0.88708774847E+00  0.88000000000E+00 0. -1.
        -11    1    4    4    0    0  0.18111858375E-01 -0.11915909628E-01  0.14352885439E-01  0.26005667796E-01  0.51100000000E-03 0.  1.
         11    1    4    4    0    0  0.68932506341E-01 -0.76132840658E-01  0.31715374440E-01  0.10748965510E+00  0.51100000000E-03 0. -1.
</event>
<event>
 8    1  0.1123470E+005  0.1043930E+01  0.7957747E-01            NaN
         13   -1    0    0    0    0  0.00000000000E+00  0.00000000000E+00  0.74505805969E-08  0.10566000000E+00  0.10566000000E+00 0.  1.
     999900   -1    0    0    0    0 -0.00000000000E+00 -0.00000000000E+00 -0.74505805969E-08  0.93827000000E+00  0.93827000000E+00 0.  1.
     999902    2    1    2    0    0  0.15871682719E-01  0.11575881385E-01 -0.12907413718E-01  0.10204244119E+01  0.10201536491E+01 0.  0.
     999903    2    3    3    0    0  0.70130883631E-01  0.11112747279E+00 -0.78304727816E-02  0.13313620870E+00  0.19906725438E-01 0.  0.
         14    1    1    2    0    0 -0.15871682719E-01 -0.11575881385E-01  0.12907413718E-01  0.23505588082E-01  0.00000000000E+00 0. -1.
     999901    1    3    3    0    0 -0.54259200912E-01 -0.99551591400E-01 -0.50769409364E-02  0.88728820321E+00  0.88000000000E+00 0.  1.
        -11    1    4    4    0    0  0.13702911912E-01  0.13887436473E-01  0.45172735858E-02  0.20032412943E-01  0.51100000000E-03 0.  1.
         11    1    4    4    0    0  0.56427971718E-01  0.97240036312E-01 -0.12347746367E-01  0.11310379576E+00  0.51100000000E-03 0. -1.
</event>
<event>
 8    1  0.1123470E+005  0.1043930E+01  0.7957747E-01            NaN
         13   -1    0    0    0    0  0.00000000000E+00  0.00000000000E+00  0.74505805969E-08  0.10566000000E+00  0.10566000000E+00 0.  1.
     999900   -1    0    0    0    0 -0.00000000000E+00 -0.00000000000E+00 -0.74505805969E-08  0.93827000000E+00  0.93827000000E+00 0. -1.
     999902    2    1    2    0    0 -0.18537213876E-01 -0.12865000201E-02  0.30709841627E-01  0.10080360207E+01  0.10073967645E+01 0.  0.
     999903    2    3    3    0    0  0.49279339527E-01  0.73598354631E-01  0.79955668375E-01  0.12088779300E+00  0.19385006658E-01 0.  0.
         14    1    1    2    0    0  0.18537213876E-01  0.12865000201E-02 -0.30709841627E-01  0.35893979347E-01  0.00000000000E+00 0. -1.
     999901    1    3    3    0    0 -0.67816553403E-01 -0.74884854651E-01 -0.49245826748E-01  0.88714822765E+00  0.88000000000E+00 0.  1.
        -11    1    4    4    0    0  0.38660735326E-01  0.60538644174E-01  0.53658083453E-01  0.89660643179E-01  0.51100000000E-03 0. -1.
         11    1    4    4    0    0  0.10618604201E-01  0.13059710457E-01  0.26297584922E-01  0.31227149824E-01  0.51100000000E-03 0.  1.
</event>
<event>
 8    1  0.1123470E+005  0.1043930E+01  0.7957747E-01            NaN
         13   -1    0    0    0    0  0.00000000000E+00  0.00000000000E+00  0.74505805969E-08  0.10566000000E+00  0.10566000000E+00 0. -1.
     999900   -1    0    0    0    0 -0.00000000000E+00 -0.00000000000E+00 -0.74505805969E-08  0.93827000000E+00  0.93827000000E+00 0. -1.
     999902    2    1    2    0    0  0.12495157230E-02 -0.17038560588E-01  0.16512171806E-01  0.10201702514E+01  0.10198935318E+01 0.  0.
     999903    2    3    3    0    0 -0.10488430941E+00  0.68512110737E-01 -0.22802743914E-01  0.12880670670E+00  0.19405537387E-01 0.  0.
         14    1    1    2    0    0 -0.12495157230E-02  0.17038560588E-01 -0.16512171806E-01  0.23759748614E-01  0.00000000000E+00 0. -1.
     999901    1    3    3    0    0  0.10613382514E+00 -0.85550671325E-01  0.39314915720E-01  0.89136354469E+00  0.88000000000E+00 0.  1.
        -11    1    4    4    0    0 -0.32049657673E-01  0.12973786450E-01 -0.71995816625E-03  0.34587268649E-01  0.51100000000E-03 0.  1.
         11    1    4    4    0    0 -0.72834651741E-01  0.55538324287E-01 -0.22082785747E-01  0.94219438048E-01  0.51100000000E-03 0. -1.
</event>
<event>
 8    1  0.1123470E+005  0.1043930E+01  0.7957747E-01            NaN
         13   -1    0    0    0    0  0.00000000000E+00  0.00000000000E+00  0.74505805969E-08  0.10566000000E+00  0.10566000000E+00 0. -1.
     999900   -1    0    0    0    0 -0.00000000000E+00 -0.00000000000E+00 -0.74505805969E-08  0.93827000000E+00  0.93827000000E+00 0.  1.
     999902    2    1    2    0    0 -0.12031683318E-01  0.99862084265E-02 -0.16685276451E-01  0.10210633384E+01  0.10208072574E+01 0.  0.
     999903    2    3    3    0    0 -0.12716341652E+00  0.21481225022E-03  0.30254670135E-01  0.13226968701E+00  0.20232261202E-01 0.  0.
         14    1    1    2    0    0  0.12031683318E-01 -0.99862084265E-02  0.16685276451E-01  0.22866661593E-01  0.00000000000E+00 0. -1.
     999901    1    3    3    0    0  0.11513173320E+00  0.97713961763E-02 -0.46939946586E-01  0.88879365139E+00  0.88000000000E+00 0. -1.
        -11    1    4    4    0    0 -0.92282272007E-01  0.29583701004E-02  0.30617538503E-01  0.97275199642E-01  0.51100000000E-03 0. -1.
         11    1    4    4    0    0 -0.34881144509E-01 -0.27435578502E-02 -0.36286836800E-03  0.34994487371E-01  0.51100000000E-03 0.  1.
</event>
<event>
 8    1  0.1123470E+005  0.1043930E+01  0.7957747E-01            NaN
         13   -1    0    0    0    0  0.00000000000E+00  0.00000000000E+00  0.74505805969E-08  0.10566000000E+00  0.10566000000E+00 0.  1.
     999900   -1    0    0    0    0 -0.00000000000E+00 -0.00000000000E+00 -0.74505805969E-08  0.93827000000E+00  0.93827000000E+00 0. -1.
     999902    2    1    2    0    0  0.17181935258E-01 -0.73891887654E-03  0.16639123747E-01  0.10200004087E+01  0.10197196715E+01 0.  0.
     999903    2    3    3    0    0 -0.17610282895E-01 -0.11493981945E+00  0.56936818075E-01  0.13102557875E+00  0.20115090703E-01 0.  0.
         14    1    1    2    0    0 -0.17181935258E-01  0.73891887654E-03 -0.16639123747E-01  0.23929591292E-01  0.00000000000E+00 0. -1.
     999901    1    3    3    0    0  0.34792218153E-01  0.11420090058E+00 -0.40297694328E-01  0.88897482996E+00  0.88000000000E+00 0. -1.
        -11    1    4    4    0    0 -0.13104568367E-01 -0.10386709895E+00  0.44467729128E-01  0.11374420429E+00  0.51100000000E-03 0.  1.
         11    1    4    4    0    0 -0.45057145282E-02 -0.11072720506E-01  0.12469088947E-01  0.17281374453E-01  0.51100000000E-03 0. -1.
</event>
<event>
 8    1  0.1123470E+005  0.1043930E+01  0.7957747E-01            NaN
         13   -1    0    0    0    0  0.00000000000E+00  0.00000000000E+00  0.74505805969E-08  0.10566000000E+00  0.10566000000E+00 0.  1.
     999900   -1    0    0    0    0 -0.00000000000E+00 -0.00000000000E+00 -0.74505805969E-08  0.93827000000E+00  0.93827000000E+00 0.  1.
     999902    2    1    2    0    0  0.94597855175E-02 -0.22368989774E-01 -0.34542068696E-02  0.10193985754E+01  0.10191033632E+01 0.  0.
     999903    2    3    3    0    0  0.12287272411E+00  0.36150412014E-01 -0.11766501981E-01  0.13015389074E+00  0.19925513476E-01 0.  0.
         14    1    1    2    0    0 -0.94597855175E-02  0.22368989774E-01  0.34542068696E-02  0.24531424554E-01  0.00000000000E+00 0. -1.
     999901    1    3    3    0    0 -0.11341293859E+00 -0.58519401787E-01  0.83122951109E-02  0.88924468470E+00  0.88000000000E+00 0.  1.
        -11    1    4    4    0    0  0.77089985051E-01  0.26921748604E-01  0.12528296869E-02  0.81666866270E-01  0.51100000000E-03 0.  1.
         11    1    4    4    0    0  0.45782739058E-01  0.92286634099E-02 -0.13019331667E-01  0.48487024471E-01  0.51100000000E-03 0. -1.
</event>
<event>
 8    1  0.1123470E+005  0.1043930E+01  0.7957747E-01            NaN
         13   -1    0    0    0    0  0.00000000000E+00  0.00000000000E+00  0.74505805969E-08  0.10566000000E+00  0.10566000000E+00 0. -1.
     999900   -1    0    0    0    0 -0.00000000000E+00 -0.00000000000E+00 -0.74505805969E-08  0.93827000000E+00  0.93827000000E+00 0.  1.
     999902    2    1    2    0    0  0.30067783289E-02  0.67845310626E-02  0.22840822596E-01  0.10199138855E+01  0.10196310902E+01 0.  0.
     999903    2    3    3    0    0 -0.10331812392E+00 -0.65959476239E-01 -0.33709202368E-01  0.12873793165E+00  0.20294272221E-01 0.  0.
         14    1    1    2    0    0 -0.30067783289E-02 -0.67845310626E-02 -0.22840822596E-01  0.24016114476E-01  0.00000000000E+00 0.  1.
     999901    1    3    3    0    0  0.10632490225E+00  0.72744007302E-01  0.56550024964E-01  0.89117595387E+00  0.88000000000E+00 0. -1.
        -11    1    4    4    0    0 -0.52548291683E-01 -0.41286891669E-01 -0.10264523899E-01  0.67613252801E-01  0.51100000000E-03 0. -1.
         11    1    4    4    0    0 -0.50769832240E-01 -0.24672584570E-01 -0.23444678469E-01  0.61124678850E-01  0.51100000000E-03 0.  1.
</event>
<event>
 6    1  0.1123470E+005  0.1043930E+01  0.7957747E-01            NaN
         13   -1    0    0    0    0  0.00000000000E+00  0.00000000000E+00  0.74505805969E-08  0.10566000000E+00  0.10566000000E+00 0. -1.
     999900   -1    0    0    0    0 -0.00000000000E+00 -0.00000000000E+00 -0.74505805969E-08  0.93827000000E+00  0.93827000000E+00 0. -1.
         14    1    1    2    0    0 -0.44371325587E-01 -0.34664969823E-01 -0.61871742420E-02  0.56645880629E-01  0.00000000000E+00 0. -1.
     999901    1    1    2    0    0  0.10122924478E+00  0.69067504288E-01  0.65201308881E-01  0.89088096333E+00  0.88000000000E+00 0. -1.
        -11    1    1    2    0    0 -0.37323416951E-03 -0.81461262856E-02 -0.23095410832E-01  0.24498118289E-01  0.51100000000E-03 0. -1.
         11    1    1    2    0    0 -0.56484685025E-01 -0.26256408180E-01 -0.35918723807E-01  0.71905037750E-01  0.51100000000E-03 0.  1.
</event>
<event>
 8    1  0.1123470E+005  0.1043930E+01  0.7957747E-01            NaN
         13   -1    0    0    0    0  0.00000000000E+00  0.00000000000E+00  0.74505805969E-08  0.10566000000E+00  0.10566000000E+00 0.  1.
     999900   -1    0    0    0    0 -0.00000000000E+00 -0.00000000000E+00 -0.74505805969E-08  0.93827000000E+00  0.93827000000E+00 0.  1.
     999902    2    1    2    0    0  0.13179290603E-01  0.17006185492E-01 -0.68085882637E-02  0.10213631899E+01  0.10211138549E+01 0.  0.
     999903    2    3    3    0    0 -0.39744477235E-01 -0.10275852265E+00  0.63778359069E-01  0.12887956107E+00  0.20082946214E-01 0.  0.
         14    1    1    2    0    0 -0.13179290603E-01 -0.17006185492E-01  0.68085882637E-02  0.22566810141E-01  0.00000000000E+00 0.  1.
     999901    1    3    3    0    0  0.52923767837E-01  0.11976470814E+00 -0.70586947333E-01  0.89248362879E+00  0.88000000000E+00 0. -1.
        -11    1    4    4    0    0 -0.25655743170E-01 -0.80773967692E-01  0.40660234604E-01  0.94000887301E-01  0.51100000000E-03 0.  1.
         11    1    4    4    0    0 -0.14088734065E-01 -0.21984554959E-01  0.23118124465E-01  0.34878673771E-01  0.51100000000E-03 0. -1.
</event>
<event>
 8    1  0.1123470E+005  0.1043930E+01  0.7957747E-01            NaN
         13   -1    0    0    0    0  0.00000000000E+00  0.00000000000E+00  0.74505805969E-08  0.10566000000E+00  0.10566000000E+00 0. -1.
     999900   -1    0    0    0    0 -0.00000000000E+00 -0.00000000000E+00 -0.74505805969E-08  0.93827000000E+00  0.93827000000E+00 0. -1.
     999902    2    1    2    0    0  0.12931644149E-01 -0.15750264902E-01  0.10500121192E-01  0.10210051050E+01  0.10207477032E+01 0.  0.
     999903    2    3    3    0    0  0.56315858855E-01  0.11147307550E+00  0.32307052587E-01  0.13053134870E+00  0.19923976181E-01 0.  0.
         14    1    1    2    0    0 -0.12931644149E-01  0.15750264902E-01 -0.10500121192E-01  0.22924894982E-01  0.00000000000E+00 0.  1.
     999901    1    3    3    0    0 -0.43384214706E-01 -0.12722334040E+00 -0.21806931396E-01  0.89047375632E+00  0.88000000000E+00 0.  1.
        -11    1    4    4    0    0  0.40705332184E-01  0.85846989959E-01  0.32812230280E-01  0.10051633365E+00  0.51100000000E-03 0. -1.
         11    1    4    4    0    0  0.15610526672E-01  0.25626085543E-01 -0.50517769218E-03  0.30015015055E-01  0.51100000000E-03 0.  1.
</event>
<event>
 8    1  0.1123470E+005  0.1043930E+01  0.7957747E-01            NaN
         13   -1    0    0    0    0  0.00000000000E+00  0.00000000000E+00  0.74505805969E-08  0.10566000000E+00  0.10566000000E+00 0. -1.
     999900   -1    0    0    0    0 -0.00000000000E+00 -0.00000000000E+00 -0.74505805969E-08  0.93827000000E+00  0.93827000000E+00 0. -1.
     999902    2    1    2    0    0  0.90388026930E-02 -0.15322532029E-01  0.16783797659E-01  0.10194723671E+01  0.10191789497E+01 0.  0.
     999903    2    3    3    0    0 -0.10975746583E+00 -0.66417539416E-01 -0.93991462912E-03  0.12984470165E+00  0.20019297200E-01 0.  0.
         14    1    1    2    0    0 -0.90388026930E-02  0.15322532029E-01 -0.16783797659E-01  0.24457632874E-01  0.00000000000E+00 0. -1.
     999901    1    3    3    0    0  0.11879626852E+00  0.51095007387E-01  0.17723712289E-01  0.88962766547E+00  0.88000000000E+00 0.  1.
        -11    1    4    4    0    0 -0.56356473073E-01 -0.31498983023E-01  0.92725931097E-02  0.65226375744E-01  0.51100000000E-03 0.  1.
         11    1    4    4    0    0 -0.53400992759E-01 -0.34918556393E-01 -0.10212507739E-01  0.64618325911E-01  0.51100000000E-03 0. -1.
</event>
<event>
 8    1  0.1123470E+005  0.1043930E+01  0.7957747E-01            NaN
         13   -1    0    0    0    0  0.00000000000E+00  0.00000000000E+00  0.74505805969E-08  0.10566000000E+00  0.10566000000E+00 0.  1.
     999900   -1    0    0    0    0 -0.00000000000E+00 -0.00000000000E+00 -0.74505805969E-08  0.93827000000E+00  0.93827000000E+00 0. -1.
     999902    2    1    2    0    0  0.85154076170E-03 -0.21882579775E-01 -0.13763081247E-02  0.10219876518E+01  0.10217520706E+01 0.  0.
     999903    2    3    3    0    0 -0.68159692248E-02 -0.40747572044E-01 -0.12447462754E+00  0.13318628207E+00  0.23191178601E-01 0.  0.
         14    1    1    2    0    0 -0.85154076170E-03  0.21882579775E-01  0.13763081247E-02  0.21942348173E-01  0.00000000000E+00 0. -1.
     999901    1    3    3    0    0  0.76675099865E-02  0.18864992269E-01  0.12309831942E+00  0.88880136976E+00  0.88000000000E+00 0.  1.
        -11    1    4    4    0    0 -0.11340648428E-01 -0.71164493711E-02 -0.37789187060E-01  0.40094113509E-01  0.51100000000E-03 0.  1.
         11    1    4    4    0    0  0.45246792028E-02 -0.33631122673E-01 -0.86685440484E-01  0.93092168559E-01  0.51100000000E-03 0. -1.
</event>
<event>
 8    1  0.1123470E+005  0.1043930E+01  0.7957747E-01            NaN
         13   -1    0    0    0    0  0.00000000000E+00  0.00000000000E+00  0.74505805969E-08  0.10566000000E+00  0.10566000000E+00 0. -1.
     999900   -1    0    0    0    0 -0.00000000000E+00 -0.00000000000E+00 -0.74505805969E-08  0.93827000000E+00  0.93827000000E+00 0. -1.
     999902    2    1    2    0    0  0.32959874168E-02 -0.18855227151E-01 -0.12774103082E-01  0.10209178112E+01  0.10206584230E+01 0.  0.
     999903    2    3    3    0    0  0.79689148125E-01  0.98412750391E-01 -0.21157705427E-01  0.12981850228E+00  0.19229281514E-01 0.  0.
         14    1    1    2    0    0 -0.32959874168E-02  0.18855227151E-01  0.12774103082E-01  0.23012188803E-01  0.00000000000E+00 0. -1.
     999901    1    3    3    0    0 -0.76393160708E-01 -0.11726797754E+00  0.83836023448E-02  0.89109930891E+00  0.88000000000E+00 0.  1.
        -11    1    4    4    0    0  0.20985681361E-01  0.18681160372E-01  0.18720912709E-02  0.28162926371E-01  0.51100000000E-03 0.  1.
         11    1    4    4    0    0  0.58703466764E-01  0.79731590019E-01 -0.23029796697E-01  0.10165557591E+00  0.51100000000E-03 0. -1.
</event>
<event>
 8    1  0.1123470E+005  0.1043930E+01  0.7957747E-01            NaN
         13   -1    0    0    0    0  0.00000000000E+00  0.00000000000E+00  0.74505805969E-08  0.10566000000E+00  0.10566000000E+00 0.  1.
     999900   -1    0    0    0    0 -0.00000000000E+00 -0.00000000000E+00 -0.74505805969E-08  0.93827000000E+00  0.93827000000E+00 0.  1.
     999902    2    1    2    0    0  0.59416014064E-02 -0.16711368979E-01  0.52403390246E-02  0.10254358487E+01  0.10252690603E+01 0.  0.
     999903    2    3    3    0    0 -0.10386573930E+00  0.64896756422E-01  0.49794909498E-01  0.13375056340E+00  0.20248442009E-01 0.  0.
         14    1    1    2    0    0 -0.59416014064E-02  0.16711368979E-01 -0.52403390246E-02  0.18494151332E-01  0.00000000000E+00 0.  1.
     999901    1    3    3    0    0  0.10980734071E+00 -0.81608125400E-01 -0.44554570474E-01  0.89168528526E+00  0.88000000000E+00 0.  1.
        -11    1    4    4    0    0 -0.74788915048E-01  0.56004565573E-01  0.41444616535E-01  0.10221453194E+00  0.51100000000E-03 0.  1.
         11    1    4    4    0    0 -0.29076824256E-01  0.88921908488E-02  0.83502929628E-02  0.31536031464E-01  0.51100000000E-03 0. -1.
</event>
<event>
 8    1  0.1123470E+005  0.1043930E+01  0.7957747E-01            NaN
         13   -1    0    0    0    0  0.00000000000E+00  0.00000000000E+00  0.74505805969E-08  0.10566000000E+00  0.10566000000E+00 0. -1.
     999900   -1    0    0    0    0 -0.00000000000E+00 -0.00000000000E+00 -0.74505805969E-08  0.93827000000E+00  0.93827000000E+00 0.  1.
     999902    2    1    2    0    0  0.15444002556E-01  0.11127241373E-02 -0.20519825781E-01  0.10182236074E+01  0.10178990599E+01 0.  0.
     999903    2    3    3    0    0 -0.20851109157E-01  0.11946639648E+00  0.34811342686E-01  0.12783803638E+00  0.20585075274E-01 0.  0.
         14    1    1    2    0    0 -0.15444002556E-01 -0.11127241373E-02  0.20519825781E-01  0.25706392591E-01  0.00000000000E+00 0. -1.
     999901    1    3    3    0    0  0.36295111713E-01 -0.11835367235E+00 -0.55331168468E-01  0.89038557103E+00  0.88000000000E+00 0.  1.
        -11    1    4    4    0    0 -0.17576147752E-01  0.43628034041E-01  0.15232174542E-01  0.49442962961E-01  0.51100000000E-03 0. -1.
         11    1    4    4    0    0 -0.32749614052E-02  0.75838362443E-01  0.19579168144E-01  0.78395073419E-01  0.51100000000E-03 0.  1.
</event>
<event>
 8    1  0.1123470E+005  0.1043930E+01  0.7957747E-01            NaN
         13   -1    0    0    0    0  0.00000000000E+00  0.00000000000E+00  0.74505805969E-08  0.10566000000E+00  0.10566000000E+00 0.  1.
     999900   -1    0    0    0    0 -0.00000000000E+00 -0.00000000000E+00 -0.74505805969E-08  0.93827000000E+00  0.93827000000E+00 0. -1.
     999902    2    1    2    0    0 -0.22367319547E-01  0.52267855501E-02  0.60922976695E-02  0.10201659018E+01  0.10198890797E+01 0.  0.
     999903    2    3    3    0    0 -0.76295096988E-01 -0.62537651194E-02  0.10654379859E+00  0.13273674282E+00  0.20184411654E-01 0.  0.
         14    1    1    2    0    0  0.22367319547E-01 -0.52267855501E-02 -0.60922976695E-02  0.23764098169E-01  0.00000000000E+00 0. -1.
     999901    1    3    3    0    0  0.53927777441E-01  0.11480550669E-01 -0.10045150092E+00  0.88742915901E+00  0.88000000000E+00 0. -1.
        -11    1    4    4    0    0 -0.12209538386E-01 -0.84529415607E-02  0.16665671760E-01  0.22327802956E-01  0.51100000000E-03 0.  1.
         11    1    4    4    0    0 -0.64085558602E-01  0.21991764413E-02  0.89878126832E-01  0.11040893987E+00  0.51100000000E-03 0. -1.
</event>
<event>
 8    1  0.1123470E+005  0.1043930E+01  0.7957747E-01            NaN
         13   -1    0    0    0    0  0.00000000000E+00  0.00000000000E+00  0.74505805969E-08  0.10566000000E+00  0.10566000000E+00 0. -1.
     999900   -1    0    0    0    0 -0.00000000000E+00 -0.00000000000E+00 -0.74505805969E-08  0.93827000000E+00  0.93827000000E+00 0.  1.
     999902    2    1    2    0    0 -0.13528642492E-01  0.12641588989E-01  0.16030067547E-01  0.10194392465E+01  0.10191450242E+01 0.  0.
     999903    2    3    3    0    0  0.22360374058E-01  0.10732393979E+00 -0.66691488193E-01  0.12977884793E+00  0.19400525582E-01 0.  0.
         14    1    1    2    0    0  0.13528642492E-01 -0.12641588989E-01 -0.16030067547E-01  0.24490753468E-01  0.00000000000E+00 0.  1.
     999901    1    3    3    0    0 -0.35889016549E-01 -0.94682350796E-01  0.82721555740E-01  0.88966039860E+00  0.88000000000E+00 0. -1.
        -11    1    4    4    0    0  0.13315496063E-02  0.69083368444E-02 -0.10932088974E-01  0.13010374040E-01  0.51100000000E-03 0. -1.
         11    1    4    4    0    0  0.21028824451E-01  0.10041560294E+00 -0.55759399219E-01  0.11676847389E+00  0.51100000000E-03 0.  1.
</event>
<event>
 8    1  0.1123470E+005  0.1043930E+01  0.7957747E-01            NaN
         13   -1    0    0    0    0  0.00000000000E+00  0.00000000000E+00  0.74505805969E-08  0.10566000000E+00  0.10566000000E+00 0.  1.
     999900   -1    0    0    0    0 -0.00000000000E+00 -0.00000000000E+00 -0.74505805969E-08  0.93827000000E+00  0.93827000000E+00 0.  1.
     999902    2    1    2    0    0 -0.14789647498E-01 -0.11369871900E-02  0.15338154555E-01  0.10225925822E+01  0.10223699447E+01 0.  0.
     999903    2    3    3    0    0  0.51289926831E-01  0.45825665034E-01  0.11325214736E+00  0.13345864919E+00  0.15953494682E-01 0.  0.
         14    1    1    2    0    0  0.14789647498E-01  0.11369871900E-02 -0.15338154555E-01  0.21337417795E-01  0.00000000000E+00 0. -1.
     999901    1    3    3    0    0 -0.66079574329E-01 -0.46962652224E-01 -0.97913992806E-01  0.88913393301E+00  0.88000000000E+00 0.  1.
        -11    1    4    4    0    0  0.17780402281E-01  0.10542256824E-01  0.23035446587E-01  0.30954398794E-01  0.51100000000E-03 0.  1.
         11    1    4    4    0    0  0.33509524549E-01  0.35283408210E-01  0.90216700773E-01  0.10250425040E+00  0.51100000000E-03 0. -1.
</event>
<event>
 8    1  0.1123470E+005  0.1043930E+01  0.7957747E-01            NaN
         13   -1    0    0    0    0  0.00000000000E+00  0.00000000000E+00  0.74505805969E-08  0.10566000000E+00  0.10566000000E+00 0.  1.
     999900   -1    0    0    0    0 -0.00000000000E+00 -0.00000000000E+00 -0.74505805969E-08  0.93827000000E+00  0.93827000000E+00 0. -1.
     999902    2    1    2    0    0 -0.19361792821E-03  0.23450516278E-01 -0.43629436712E-02  0.10200762900E+01  0.10197973514E+01 0.  0.
     999903    2    3    3    0    0 -0.63277385872E-01 -0.10880270586E+00  0.74510498781E-02  0.12788233859E+00  0.21361601386E-01 0.  0.
         14    1    1    2    0    0  0.19361792821E-03 -0.23450516278E-01  0.43629436712E-02  0.23853709965E-01  0.00000000000E+00 0.  1.
     999901    1    3    3    0    0  0.63083767944E-01  0.13225322214E+00 -0.11813993549E-01  0.89219395144E+00  0.88000000000E+00 0. -1.
        -11    1    4    4    0    0 -0.34425815855E-01 -0.77799495400E-01  0.86131715715E-02  0.85512257176E-01  0.51100000000E-03 0.  1.
         11    1    4    4    0    0 -0.28851570017E-01 -0.31003210463E-01 -0.11621216934E-02  0.42370081417E-01  0.51100000000E-03 0. -1.
</event>
<event>
 8    1  0.1123470E+005  0.1043930E+01  0.7957747E-01            NaN
         13   -1    0    0    0    0  0.00000000000E+00  0.00000000000E+00  0.74505805969E-08  0.10566000000E+00  0.10566000000E+00 0. -1.
     999900   -1    0    0    0    0 -0.00000000000E+00 -0.00000000000E+00 -0.74505805969E-08  0.93827000000E+00  0.93827000000E+00 0.  1.
     999902    2    1    2    0    0  0.54171467756E-02 -0.16895474796E-01 -0.15706219824E-01  0.10202342643E+01  0.10199590512E+01 0.  0.
     999903    2    3    3    0    0 -0.10388611890E+00  0.62949214580E-01 -0.40247704871E-01  0.12954651725E+00  0.20186457525E-01 0.  0.
         14    1    1    2    0    0 -0.54171467756E-02  0.16895474796E-01  0.15706219824E-01  0.23695735670E-01  0.00000000000E+00 0. -1.
     999901    1    3    3    0    0  0.10930326568E+00 -0.79844689376E-01  0.24541485047E-01  0.89068774708E+00  0.88000000000E+00 0. -1.
        -11    1    4    4    0    0 -0.67580645011E-01  0.34639101196E-01 -0.16390577980E-01  0.77691203359E-01  0.51100000000E-03 0. -1.
         11    1    4    4    0    0 -0.36305473891E-01  0.28310113384E-01 -0.23857126891E-01  0.51855313892E-01  0.51100000000E-03 0.  1.
</event>
<event>
 8    1  0.1123470E+005  0.1043930E+01  0.7957747E-01            NaN
         13   -1    0    0    0    0  0.00000000000E+00  0.00000000000E+00  0.74505805969E-08  0.10566000000E+00  0.10566000000E+00 0. -1.
     999900   -1    0    0    0    0 -0.00000000000E+00 -0.00000000000E+00 -0.74505805969E-08  0.93827000000E+00  0.93827000000E+00 0. -1.
     999902    2    1    2    0    0  0.20918397994E-01 -0.33930308726E-02  0.12050930504E-01  0.10195513832E+01  0.10192598815E+01 0.  0.
     999903    2    3    3    0    0  0.45997186860E-01 -0.11564121675E+00 -0.35220910733E-01  0.13080888510E+00  0.19540206187E-01 0.  0.
         14    1    1    2    0    0 -0.20918397994E-01  0.33930308726E-02 -0.12050930504E-01  0.24378616842E-01  0.00000000000E+00 0.  1.
     999901    1    3    3    0    0 -0.25078788866E-01  0.11224818588E+00  0.47271841236E-01  0.88874249806E+00  0.88000000000E+00 0.  1.
        -11    1    4    4    0    0  0.21756204806E-01 -0.49789711560E-01 -0.25294773792E-01  0.59936921233E-01  0.51100000000E-03 0. -1.
         11    1    4    4    0    0  0.24240982053E-01 -0.65851505188E-01 -0.99261369409E-02  0.70871963865E-01  0.51100000000E-03 0.  1.
</event>
<event>
 8    1  0.1123470E+005  0.1043930E+01  0.7957747E-01            NaN
         13   -1    0    0    0    0  0.00000000000E+00  0.00000000000E+00  0.74505805969E-08  0.10566000000E+00  0.10566000000E+00 0.  1.
     999900   -1    0    0    0    0 -0.00000000000E+00 -0.00000000000E+00 -0.74505805969E-08  0.93827000000E+00  0.93827000000E+00 0.  1.
     999902    2    1    2    0    0  0.19253338338E-01  0.12754661374E-01  0.47829844829E-02  0.10203450606E+01  0.10200724452E+01 0.  0.
     999903    2    3    3    0    0 -0.78164370284E-01  0.12783418937E-01  0.10073164884E+00  0.12978548545E+00  0.20599091541E-01 0.  0.
         14    1    1    2    0    0 -0.19253338338E-01 -0.12754661374E-01 -0.47829844829E-02  0.23584939357E-01  0.00000000000E+00 0. -1.
     999901    1    3    3    0    0  0.97417708622E-01 -0.28757563430E-04 -0.95948664362E-01  0.89055957520E+00  0.88000000000E+00 0.  1.
        -11    1    4    4    0    0 -0.64130435459E-01  0.11983336636E-01  0.68395998159E-01  0.94522943216E-01  0.51100000000E-03 0.  1.
         11    1    4    4    0    0 -0.14033934825E-01  0.80008230116E-03  0.32335650685E-01  0.35262542231E-01  0.51100000000E-03 0. -1.
</event>
<event>
 8    1  0.1123470E+005  0.1043930E+01  0.7957747E-01            NaN
         13   -1    0    0    0    0  0.00000000000E+00  0.00000000000E+00  0.74505805969E-08  0.10566000000E+00  0.10566000000E+00 0.  1.
     999900   -1    0    0    0    0 -0.00000000000E+00 -0.00000000000E+00 -0.74505805969E-08  0.93827000000E+00  0.93827000000E+00 0. -1.
     999902    2    1    2    0    0  0.88719779410E-03  0.60148943468E-02 -0.22778823258E-01  0.10203537225E+01  0.10200813095E+01 0.  0.
     999903    2    3    3    0    0 -0.10546347919E+00 -0.64548392596E-01 -0.38448368655E-01  0.13100835725E+00  0.19896537042E-01 0.  0.
         14    1    1    2    0    0 -0.88719779410E-03 -0.60148943468E-02  0.22778823258E-01  0.23576277547E-01  0.00000000000E+00 0.  1.
     999901    1    3    3    0    0  0.10635067699E+00  0.70563286943E-01  0.15669545396E-01  0.88934536521E+00  0.88000000000E+00 0.  1.
        -11    1    4    4    0    0 -0.53984293843E-01 -0.28686878133E-01 -0.93418436291E-02  0.61844742074E-01  0.51100000000E-03 0. -1.
         11    1    4    4    0    0 -0.51479185350E-01 -0.35861514463E-01 -0.29106525026E-01  0.69163615174E-01  0.51100000000E-03 0.  1.
</event>
<event>
 8    1  0.1123470E+005  0.1043930E+01  0.7957747E-01            NaN
         13   -1    0    0    0    0  0.00000000000E+00  0.00000000000E+00  0.74505805969E-08  0.10566000000E+00  0.10566000000E+00 0. -1.
     999900   -1    0    0    0    0 -0.00000000000E+00 -0.00000000000E+00 -0.74505805969E-08  0.93827000000E+00  0.93827000000E+00 0. -1.
     999902    2    1    2    0    0 -0.22953112613E-01  0.74193976116E-03  0.72994177135E-02  0.10198327522E+01  0.10195480200E+01 0.  0.
     999903    2    3    3    0    0  0.33762701934E-01  0.16021565535E-01  0.12312840765E+00  0.13030113077E+00  0.20522409848E-01 0.  0.
         14    1    1    2    0    0  0.22953112613E-01 -0.74193976116E-03 -0.72994177135E-02  0.24097247814E-01  0.00000000000E+00 0. -1.
     999901    1    3    3    0    0 -0.56715814547E-01 -0.15279625774E-01 -0.11582898994E+00  0.88953162141E+00  0.88000000000E+00 0. -1.
        -11    1    4    4    0    0  0.21336916963E-01  0.12949101708E-01  0.48155064102E-01  0.54241262708E-01  0.51100000000E-03 0. -1.
         11    1    4    4    0    0  0.12425784972E-01  0.30724638269E-02  0.74973343549E-01  0.76059868065E-01  0.51100000000E-03 0.  1.
</event>
<event>
 8    1  0.1123470E+005  0.1043930E+01  0.7957747E-01            NaN
         13   -1    0    0    0    0  0.00000000000E+00  0.00000000000E+00  0.74505805969E-08  0.10566000000E+00  0.10566000000E+00 0.  1.
     999900   -1    0    0    0    0 -0.00000000000E+00 -0.00000000000E+00 -0.74505805969E-08  0.93827000000E+00  0.93827000000E+00 0. -1.
     999902    2    1    2    0    0  0.23046683296E-03  0.12929806598E-01 -0.20475403556E-01  0.10197127507E+01  0.10194251413E+01 0.  0.
     999903    2    3    3    0    0 -0.37820085351E-01 -0.10375896015E+00  0.60475347128E-01  0.12751482598E+00  0.20161412816E-01 0.  0.
         14    1    1    2    0    0 -0.23046683296E-03 -0.12929806598E-01  0.20475403556E-01  0.24217249316E-01  0.00000000000E+00 0.  1.
     999901    1    3    3    0    0  0.38050552184E-01  0.11668876675E+00 -0.80950750684E-01  0.89219792470E+00  0.88000000000E+00 0. -1.
        -11    1    4    4    0    0 -0.28372715445E-01 -0.88373335392E-01  0.42683284983E-01  0.10216154525E+00  0.51100000000E-03 0.  1.
         11    1    4    4    0    0 -0.94473699068E-02 -0.15385624761E-01  0.17792062145E-01  0.25353280731E-01  0.51100000000E-03 0. -1.
</event>
<event>
 8    1  0.1123470E+005  0.1043930E+01  0.7957747E-01            NaN
         13   -1    0    0    0    0  0.00000000000E+00  0.00000000000E+00  0.74505805969E-08  0.10566000000E+00  0.10566000000E+00 0. -1.
     999900   -1    0    0    0    0 -0.00000000000E+00 -0.00000000000E+00 -0.74505805969E-08  0.93827000000E+00  0.93827000000E+00 0.  1.
     999902    2    1    2    0    0  0.71952123813E-03  0.20877184771E-01  0.15059186000E-01  0.10181782304E+01  0.10178525213E+01 0.  0.
     999903    2    3    3    0    0 -0.58542692314E-01  0.89289271858E-01  0.75335953288E-01  0.13148464618E+00  0.14590593920E-01 0.  0.
         14    1    1    2    0    0 -0.71952123813E-03 -0.20877184771E-01 -0.15059186000E-01  0.25751769604E-01  0.00000000000E+00 0.  1.
     999901    1    3    3    0    0  0.59262213552E-01 -0.68412087087E-01 -0.60276767288E-01  0.88669358422E+00  0.88000000000E+00 0.  1.
        -11    1    4    4    0    0 -0.29097033490E-01  0.52366699694E-01  0.35061910458E-01  0.69415468599E-01  0.51100000000E-03 0. -1.
         11    1    4    4    0    0 -0.29445658824E-01  0.36922572164E-01  0.40274042829E-01  0.62069177581E-01  0.51100000000E-03 0.  1.
</event>
<event>
 8    1  0.1123470E+005  0.1043930E+01  0.7957747E-01            NaN
         13   -1    0    0    0    0  0.00000000000E+00  0.00000000000E+00  0.74505805969E-08  0.10566000000E+00  0.10566000000E+00 0. -1.
     999900   -1    0    0    0    0 -0.00000000000E+00 -0.00000000000E+00 -0.74505805969E-08  0.93827000000E+00  0.93827000000E+00 0.  1.
     999902    2    1    2    0    0  0.86222518758E-02 -0.21067942450E-01 -0.63917303271E-02  0.10202856425E+01  0.10200116355E+01 0.  0.
     999903    2    3    3    0    0 -0.82215202483E-01 -0.32666450641E-01 -0.95060655432E-01  0.13110166444E+00  0.18018925898E-01 0.  0.
         14    1    1    2    0    0 -0.86222518758E-02  0.21067942450E-01  0.63917303271E-02  0.23644357531E-01  0.00000000000E+00 0. -1.
     999901    1    3    3    0    0  0.90837454359E-01  0.11598508190E-01  0.88668925105E-01  0.88918397803E+00  0.88000000000E+00 0. -1.
        -11    1    4    4    0    0 -0.40378005936E-01 -0.25493656572E-01 -0.47609297993E-01  0.67433050244E-01  0.51100000000E-03 0. -1.
         11    1    4    4    0    0 -0.41837196546E-01 -0.71727940690E-02 -0.47451357439E-01  0.63668614194E-01  0.51100000000E-03 0.  1.
</event>
<event>
 8    1  0.1123470E+005  0.1043930E+01  0.7957747E-01            NaN
         13   -1    0    0    0    0  0.00000000000E+00  0.00000000000E+00  0.74505805969E-08  0.10566000000E+00  0.10566000000E+00 0. -1.
     999900   -1    0    0    0    0 -0.00000000000E+00 -0.00000000000E+00 -0.74505805969E-08  0.93827000000E+00  0.93827000000E+00 0.  1.
     999902    2    1    2    0    0 -0.23535876981E-01  0.33201583491E-02  0.14539148314E-03  0.10201606480E+01  0.10198837020E+01 0.  0.
     999903    2    3    3    0    0  0.30355831053E-03 -0.44751266295E-01 -0.12064817572E+00  0.13028972115E+00  0.20412279396E-01 0.  0.
         14    1    1    2    0    0  0.23535876981E-01 -0.33201583491E-02 -0.14539148314E-03  0.23769352019E-01  0.00000000000E+00 0. -1.
     999901    1    3    3    0    0 -0.23839435291E-01  0.48071424644E-01  0.12079356720E+00  0.88987092683E+00  0.88000000000E+00 0. -1.
        -11    1    4    4    0    0 -0.43045034885E-02 -0.39272083376E-01 -0.82511726314E-01  0.91483721958E-01  0.51100000000E-03 0.  1.
         11    1    4    4    0    0  0.46080617990E-02 -0.54791829194E-02 -0.38136449405E-01  0.38805999192E-01  0.51100000000E-03 0. -1.
</event>
<event>
 8    1  0.1123470E+005  0.1043930E+01  0.7957747E-01            NaN
         13   -1    0    0    0    0  0.00000000000E+00  0.00000000000E+00  0.74505805969E-08  0.10566000000E+00  0.10566000000E+00 0.  1.
     999900   -1    0    0    0    0 -0.00000000000E+00 -0.00000000000E+00 -0.74505805969E-08  0.93827000000E+00  0.93827000000E+00 0. -1.
     999902    2    1    2    0    0  0.22100248416E-01  0.29436272571E-02  0.46836045716E-02  0.10211479441E+01  0.10208937758E+01 0.  0.
     999903    2    3    3    0    0 -0.76741212162E-02  0.34787791802E-01  0.12548760340E+00  0.13182563463E+00  0.19020429650E-01 0.  0.
         14    1    1    2    0    0 -0.22100248416E-01 -0.29436272571E-02 -0.46836045716E-02  0.22782055949E-01  0.00000000000E+00 0.  1.
     999901    1    3    3    0    0  0.29774369632E-01 -0.31844164545E-01 -0.12080399883E+00  0.88932230942E+00  0.88000000000E+00 0. -1.
        -11    1    4    4    0    0 -0.31409926427E-02  0.52537168593E-03  0.31837501002E-01  0.32000460016E-01  0.51100000000E-03 0. -1.
         11    1    4    4    0    0 -0.45331285735E-02  0.34262420116E-01  0.93650102396E-01  0.99825174613E-01  0.51100000000E-03 0.  1.
</event>
<event>
 8    1  0.1123470E+005  0.1043930E+01  0.7957747E-01            NaN
         13   -1    0    0    0    0  0.00000000000E+00  0.00000000000E+00  0.74505805969E-08  0.10566000000E+00  0.10566000000E+00 0.  1.
     999900   -1    0    0    0    0 -0.00000000000E+00 -0.00000000000E+00 -0.74505805969E-08  0.93827000000E+00  0.93827000000E+00 0. -1.
     999902    2    1    2    0    0  0.18113101653E-01 -0.10109686707E-01  0.10609624358E-01  0.10206307651E+01  0.10203647899E+01 0.  0.
     999903    2    3    3    0    0  0.57574237385E-01 -0.81744780800E-01 -0.83507287320E-01  0.13184127317E+00  0.20289215795E-01 0.  0.
         14    1    1    2    0    0 -0.18113101653E-01  0.10109686707E-01 -0.10609624358E-01  0.23299234877E-01  0.00000000000E+00 0. -1.
     999901    1    3    3    0    0 -0.39461135732E-01  0.71635094092E-01  0.94116911678E-01  0.88878949195E+00  0.88000000000E+00 0.  1.
        -11    1    4    4    0    0  0.32173577714E-01 -0.53412476610E-01 -0.40206767112E-01  0.74194858334E-01  0.51100000000E-03 0. -1.
         11    1    4    4    0    0  0.25400659671E-01 -0.28332304189E-01 -0.43300520208E-01  0.57646414838E-01  0.51100000000E-03 0.  1.
</event>
<event>
 8    1  0.1123470E+005  0.1043930E+01  0.7957747E-01            NaN
         13   -1    0    0    0    0  0.00000000000E+00  0.00000000000E+00  0.74505805969E-08  0.10566000000E+00  0.10566000000E+00 0. -1.
     999900   -1    0    0    0    0 -0.00000000000E+00 -0.00000000000E+00 -0.74505805969E-08  0.93827000000E+00  0.93827000000E+00 0.  1.
     999902    2    1    2    0    0 -0.32774549991E-02  0.16138477702E-01 -0.17396711686E-01  0.10199750892E+01  0.10196937505E+01 0.  0.
     999903    2    3    3    0    0 -0.16046883125E-01  0.80151803237E-01  0.98995528311E-01  0.12991446336E+00  0.19895706697E-01 0.  0.
         14    1    1    2    0    0  0.32774549991E-02 -0.16138477702E-01  0.17396711686E-01  0.23954910797E-01  0.00000000000E+00 0. -1.
     999901    1    3    3    0    0  0.12769428126E-01 -0.64013325535E-01 -0.11639224000E+00  0.89006062584E+00  0.88000000000E+00 0.  1.
        -11    1    4    4    0    0 -0.10018335156E-01  0.11745842411E-01  0.18934628375E-01  0.24435898304E-01  0.51100000000E-03 0. -1.
         11    1    4    4    0    0 -0.60285479698E-02  0.68405960826E-01  0.80060899936E-01  0.10547856506E+00  0.51100000000E-03 0.  1.
</event>
<event>
 8    1  0.1123470E+005  0.1043930E+01  0.7957747E-01            NaN
         13   -1    0    0    0    0  0.00000000000E+00  0.00000000000E+00  0.74505805969E-08  0.10566000000E+00  0.10566000000E+00 0. -1.
     999900   -1    0    0    0    0 -0.00000000000E+00 -0.00000000000E+00 -0.74505805969E-08  0.93827000000E+00  0.93827000000E+00 0. -1.
     999902    2    1    2    0    0  0.12869088138E-01 -0.19401998107E-01  0.21733393011E-02  0.10205467931E+01  0.10202788749E+01 0.  0.
     999903    2    3    3    0    0  0.59259337282E-01 -0.10982867476E+00  0.43717798070E-01  0.13372382256E+00  0.19920040097E-01 0.  0.
         14    1    1    2    0    0 -0.12869088138E-01  0.19401998107E-01 -0.21733393011E-02  0.23383206875E-01  0.00000000000E+00 0.  1.
     999901    1    3    3    0    0 -0.46390249145E-01  0.90426676653E-01 -0.41544458769E-01  0.88682297056E+00  0.88000000000E+00 0. -1.
        -11    1    4    4    0    0  0.33615443311E-01 -0.45212309813E-01  0.13603393410E-01  0.57960886992E-01  0.51100000000E-03 0. -1.
         11    1    4    4    0    0  0.25643893971E-01 -0.64616364947E-01  0.30114404660E-01  0.75762935568E-01  0.51100000000E-03 0.  1.
</event>
<event>
 8    1  0.1123470E+005  0.1043930E+01  0.7957747E-01            NaN
         13   -1    0    0    0    0  0.00000000000E+00  0.00000000000E+00  0.74505805969E-08  0.10566000000E+00  0.10566000000E+00 0.  1.
     999900   -1    0    0    0    0 -0.00000000000E+00 -0.00000000000E+00 -0.74505805969E-08  0.93827000000E+00  0.93827000000E+00 0.  1.
     999902    2    1    2    0    0 -0.71080399820E-02  0.98392241908E-02  0.13913682532E-01  0.10254658421E+01  0.10252995992E+01 0.  0.
     999903    2    3    3    0    0 -0.91147771116E-01  0.82564117870E-01 -0.54275110727E-01  0.13585845787E+00  0.19671888331E-01 0.  0.
         14    1    1    2    0    0  0.71080399820E-02 -0.98392241908E-02 -0.13913682532E-01  0.18464157892E-01  0.00000000000E+00 0. -1.
     999901    1    3    3    0    0  0.84039731134E-01 -0.72724893679E-01  0.68188793259E-01  0.88960738424E+00  0.88000000000E+00 0.  1.
        -11    1    4    4    0    0 -0.80132220148E-01  0.67123116162E-01 -0.39259198760E-01  0.11166123426E+00  0.51100000000E-03 0.  1.
         11    1    4    4    0    0 -0.11015550968E-01  0.15441001708E-01 -0.15015911967E-01  0.24197223602E-01  0.51100000000E-03 0. -1.
</event>
<event>
 8    1  0.1123470E+005  0.1043930E+01  0.7957747E-01            NaN
         13   -1    0    0    0    0  0.00000000000E+00  0.00000000000E+00  0.74505805969E-08  0.10566000000E+00  0.10566000000E+00 0. -1.
     999900   -1    0    0    0    0 -0.00000000000E+00 -0.00000000000E+00 -0.74505805969E-08  0.93827000000E+00  0.93827000000E+00 0.  1.
     999902    2    1    2    0    0 -0.17046433172E-01  0.11583700485E-01 -0.13636368828E-01  0.10192173806E+01  0.10189177373E+01 0.  0.
     999903    2    3    3    0    0  0.11210047449E+00  0.39169186868E-01  0.41958082388E-01  0.12762855959E+00  0.20683978416E-01 0.  0.
         14    1    1    2    0    0  0.17046433172E-01 -0.11583700485E-01  0.13636368828E-01  0.24712619360E-01  0.00000000000E+00 0. -1.
     999901    1    3    3    0    0 -0.12914690767E+00 -0.27585486383E-01 -0.55594451216E-01  0.89158882105E+00  0.88000000000E+00 0. -1.
        -11    1    4    4    0    0  0.93625331868E-01  0.39565149415E-01  0.31621379102E-01  0.10644846900E+00  0.51100000000E-03 0.  1.
         11    1    4    4    0    0  0.18475142627E-01 -0.39596254717E-03  0.10336703286E-01  0.21180090586E-01  0.51100000000E-03 0. -1.
</event>
<event>
 8    1  0.1123470E+005  0.1043930E+01  0.7957747E-01            NaN
         13   -1    0    0    0    0  0.00000000000E+00  0.00000000000E+00  0.74505805969E-08  0.10566000000E+00  0.10566000000E+00 0. -1.
     999900   -1    0    0    0    0 -0.00000000000E+00 -0.00000000000E+00 -0.74505805969E-08  0.93827000000E+00  0.93827000000E+00 0. -1.
     999902    2    1    2    0    0 -0.10402999761E-01  0.43821528561E-03  0.20964263051E-01  0.10205224208E+01  0.10202539374E+01 0.  0.
     999903    2    3    3    0    0 -0.10382822739E+00 -0.78082664623E-01 -0.74652325378E-02  0.13164558013E+00  0.19940555498E-01 0.  0.
         14    1    1    2    0    0  0.10402999761E-01 -0.43821528561E-03 -0.20964263051E-01  0.23407579156E-01  0.00000000000E+00 0.  1.
     999901    1    3    3    0    0  0.93425227628E-01  0.78520879908E-01  0.28429495589E-01  0.88887684071E+00  0.88000000000E+00 0.  1.
        -11    1    4    4    0    0 -0.65179993767E-01 -0.41665194754E-01 -0.12252028553E-01  0.78324921743E-01  0.51100000000E-03 0.  1.
         11    1    4    4    0    0 -0.38648233622E-01 -0.36417469868E-01  0.47867960151E-02  0.53320658387E-01  0.51100000000E-03 0. -1.
</event>
<event>
 8    1  0.1123470E+005  0.1043930E+01  0.7957747E-01            NaN
         13   -1    0    0    0    0  0.00000000000E+00  0.00000000000E+00  0.74505805969E-08  0.10566000000E+00  0.10566000000E+00 0. -1.
     999900   -1    0    0    0    0 -0.00000000000E+00 -0.00000000000E+00 -0.74505805969E-08  0.93827000000E+00  0.93827000000E+00 0. -1.
     999902    2    1    2    0    0  0.74595273325E-02 -0.11179111051E-01  0.20536853950E-01  0.10193865805E+01  0.10190910759E+01 0.  0.
     999903    2    3    3    0    0 -0.66977259518E-01  0.43487306122E-01  0.10172257299E+00  0.13083699076E+00  0.19842812520E-01 0.  0.
         14    1    1    2    0    0 -0.74595273325E-02  0.11179111051E-01 -0.20536853950E-01  0.24543419527E-01  0.00000000000E+00 0.  1.
     999901    1    3    3    0    0  0.74436786851E-01 -0.54666417172E-01 -0.81185719042E-01  0.88854958971E+00  0.88000000000E+00 0. -1.
        -11    1    4    4    0    0 -0.32649345568E-01  0.12179553501E-01  0.33848750643E-01  0.48583128045E-01  0.51100000000E-03 0. -1.
         11    1    4    4    0    0 -0.34327913950E-01  0.31307752621E-01  0.67873822349E-01  0.82253862715E-01  0.51100000000E-03 0.  1.
</event>
<event>
 8    1  0.1123470E+005  0.1043930E+01  0.7957747E-01            NaN
         13   -1    0    0    0    0  0.00000000000E+00  0.00000000000E+00  0.74505805969E-08  0.10566000000E+00  0.10566000000E+00 0. -1.
     999900   -1    0    0    0    0 -0.00000000000E+00 -0.00000000000E+00 -0.74505805969E-08  0.93827000000E+00  0.93827000000E+00 0.  1.
     999902    2    1    2    0    0  0.25503643449E-02  0.20404440752E-01 -0.13420620077E-01  0.10193747846E+01  0.10190789924E+01 0.  0.
     999903    2    3    3    0    0  0.55183681178E-02 -0.11039417781E-01 -0.12892429283E+00  0.13126520593E+00  0.21371941270E-01 0.  0.
         14    1    1    2    0    0 -0.25503643449E-02 -0.20404440752E-01  0.13420620077E-01  0.24555215412E-01  0.00000000000E+00 0. -1.
     999901    1    3    3    0    0 -0.29680037729E-02  0.31443858532E-01  0.11550367275E+00  0.88810957866E+00  0.88000000000E+00 0. -1.
        -11    1    4    4    0    0  0.91238629398E-02  0.31670640886E-02 -0.62267152119E-01  0.63013764559E-01  0.51100000000E-03 0. -1.
         11    1    4    4    0    0 -0.36054948220E-02 -0.14206481869E-01 -0.66657140713E-01  0.68251441369E-01  0.51100000000E-03 0.  1.
</event>
<event>
 8    1  0.1123470E+005  0.1043930E+01  0.7957747E-01            NaN
         13   -1    0    0    0    0  0.00000000000E+00  0.00000000000E+00  0.74505805969E-08  0.10566000000E+00  0.10566000000E+00 0.  1.
     999900   -1    0    0    0    0 -0.00000000000E+00 -0.00000000000E+00 -0.74505805969E-08  0.93827000000E+00  0.93827000000E+00 0. -1.
     999902    2    1    2    0    0 -0.34825266118E-02  0.23024561661E-01  0.97934357933E-02  0.10186679768E+01  0.10183546912E+01 0.  0.
     999903    2    3    3    0    0 -0.43860600427E-01  0.12290318161E+00  0.73534906577E-02  0.13209475315E+00  0.19131274560E-01 0.  0.
         14    1    1    2    0    0  0.34825266118E-02 -0.23024561661E-01 -0.97934357933E-02  0.25262023195E-01  0.00000000000E+00 0.  1.
     999901    1    3    3    0    0  0.40378073815E-01 -0.99878619946E-01  0.24399451356E-02  0.88657322365E+00  0.88000000000E+00 0.  1.
        -11    1    4    4    0    0 -0.11221287389E-01  0.51782692863E-01 -0.34458421511E-02  0.53098959688E-01  0.51100000000E-03 0. -1.
         11    1    4    4    0    0 -0.32639313038E-01  0.71120488744E-01  0.10799332809E-01  0.78995793463E-01  0.51100000000E-03 0.  1.
</event>
<event>
 8    1  0.1123470E+005  0.1043930E+01  0.7957747E-01            NaN
         13   -1    0    0    0    0  0.00000000000E+00  0.00000000000E+00  0.74505805969E-08  0.10566000000E+00  0.10566000000E+00 0.  1.
     999900   -1    0    0    0    0 -0.00000000000E+00 -0.00000000000E+00 -0.74505805969E-08  0.93827000000E+00  0.93827000000E+00 0.  1.
     999902    2    1    2    0    0 -0.17037249890E-01 -0.14708455454E-01  0.30388101111E-02  0.10212178686E+01  0.10209652757E+01 0.  0.
     999903    2    3    3    0    0 -0.11006785574E+00  0.67463969759E-01  0.17715220381E-01  0.13238582704E+00  0.23363605980E-01 0.  0.
         14    1    1    2    0    0  0.17037249890E-01  0.14708455454E-01 -0.30388101111E-02  0.22712131396E-01  0.00000000000E+00 0.  1.
     999901    1    3    3    0    0  0.93030605854E-01 -0.82172425213E-01 -0.14676410270E-01  0.88883204156E+00  0.88000000000E+00 0. -1.
        -11    1    4    4    0    0 -0.52712060860E-01  0.40044564579E-01 -0.67988293918E-03  0.66203110760E-01  0.51100000000E-03 0. -1.
         11    1    4    4    0    0 -0.57355794884E-01  0.27419405180E-01  0.18395103320E-01  0.66182716281E-01  0.51100000000E-03 0.  1.
</event>
<event>
 8    1  0.1123470E+005  0.1043930E+01  0.7957747E-01            NaN
         13   -1    0    0    0    0  0.00000000000E+00  0.00000000000E+00  0.74505805969E-08  0.10566000000E+00  0.10566000000E+00 0.  1.
     999900   -1    0    0    0    0 -0.00000000000E+00 -0.00000000000E+00 -0.74505805969E-08  0.93827000000E+00  0.93827000000E+00 0. -1.
     999902    2    1    2    0    0 -0.84429432686E-02 -0.38409602784E-02 -0.21179519108E-01  0.10208084019E+01  0.10205465130E+01 0.  0.
     999903    2    3    3    0    0  0.51814163546E-01  0.10621465563E+00  0.48232824745E-01  0.12920241778E+00  0.20014963472E-01 0.  0.
         14    1    1    2    0    0  0.84429432686E-02  0.38409602784E-02  0.21179519108E-01  0.23121598053E-01  0.00000000000E+00 0.  1.
     999901    1    3    3    0    0 -0.60257106815E-01 -0.11005561591E+00 -0.69412343853E-01  0.89160598416E+00  0.88000000000E+00 0. -1.
        -11    1    4    4    0    0  0.16439082861E-01  0.52462037058E-01  0.16181003974E-01  0.57311384455E-01  0.51100000000E-03 0. -1.
         11    1    4    4    0    0  0.35375080686E-01  0.53752618577E-01  0.32051820771E-01  0.71891033329E-01  0.51100000000E-03 0.  1.
</event>
<event>
 8    1  0.1123470E+005  0.1043930E+01  0.7957747E-01            NaN
         13   -1    0    0    0    0  0.00000000000E+00  0.00000000000E+00  0.74505805969E-08  0.10566000000E+00  0.10566000000E+00 0. -1.
     999900   -1    0    0    0    0 -0.00000000000E+00 -0.00000000000E+00 -0.74505805969E-08  0.93827000000E+00  0.93827000000E+00 0.  1.
     999902    2    1    2    0    0  0.58380751679E-03  0.54457521092E-02  0.23716121022E-01  0.10195896745E+01  0.10192990989E+01 0.  0.
     999903    2    3    3    0    0  0.91920682410E-01  0.23905222659E-01  0.89612564027E-01  0.13221967394E+00  0.20754734856E-01 0.  0.
         14    1    1    2    0    0 -0.58380751679E-03 -0.54457521092E-02 -0.23716121022E-01  0.24340325462E-01  0.00000000000E+00 0.  1.
     999901    1    3    3    0    0 -0.91336874893E-01 -0.18459470550E-01 -0.65896443005E-01  0.88737000060E+00  0.88000000000E+00 0.  1.
        -11    1    4    4    0    0  0.13138141526E-01  0.95400091606E-02  0.89162310656E-02  0.18530591867E-01  0.51100000000E-03 0. -1.
         11    1    4    4    0    0  0.78782540884E-01  0.14365213499E-01  0.80696332962E-01  0.11368908207E+00  0.51100000000E-03 0.  1.
</event>
<event>
 8    1  0.1123470E+005  0.1043930E+01  0.7957747E-01            NaN
         13   -1    0    0    0    0  0.00000000000E+00  0.00000000000E+00  0.74505805969E-08  0.10566000000E+00  0.10566000000E+00 0.  1.
     999900   -1    0    0    0    0 -0.00000000000E+00 -0.00000000000E+00 -0.74505805969E-08  0.93827000000E+00  0.93827000000E+00 0.  1.
     999902    2    1    2    0    0 -0.10920564981E-01 -0.37151111910E-02  0.22887845555E-01  0.10182996612E+01  0.10179770556E+01 0.  0.
     999903    2    3    3    0    0  0.19222421088E-01 -0.11260030092E-01  0.12787722112E+00  0.13151429015E+00  0.21145568845E-01 0.  0.
         14    1    1    2    0    0  0.10920564981E-01  0.37151111910E-02 -0.22887845555E-01  0.25630338758E-01  0.00000000000E+00 0. -1.
     999901    1    3    3    0    0 -0.30142986069E-01  0.75449189013E-02 -0.10498937556E+00  0.88678537110E+00  0.88000000000E+00 0.  1.
        -11    1    4    4    0    0 -0.78336329691E-03 -0.10343962119E-01  0.52693260829E-01  0.53707095138E-01  0.51100000000E-03 0.  1.
         11    1    4    4    0    0  0.20005784384E-01 -0.91606797340E-03  0.75183960288E-01  0.77807195008E-01  0.51100000000E-03 0. -1.
</event>
<event>
 8    1  0.1123470E+005  0.1043930E+01  0.7957747E-01            NaN
         13   -1    0    0    0    0  0.00000000000E+00  0.00000000000E+00  0.74505805969E-08  0.10566000000E+00  0.10566000000E+00 0.  1.
     999900   -1    0    0    0    0 -0.00000000000E+00 -0.00000000000E+00 -0.74505805969E-08  0.93827000000E+00  0.93827000000E+00 0.  1.
     999902    2    1    2    0    0  0.27115514798E-02 -0.14585108347E-01 -0.18451169547E-01  0.10202546213E+01  0.10199798865E+01 0.  0.
     999903    2    3    3    0    0 -0.12161305110E+00 -0.15289009153E-01 -0.42106338315E-01  0.13120081572E+00  0.20426020670E-01 0.  0.
         14    1    1    2    0    0 -0.27115514798E-02  0.14585108347E-01  0.18451169547E-01  0.23675378658E-01  0.00000000000E+00 0. -1.
     999901    1    3    3    0    0  0.12432460258E+00  0.70390080605E-03  0.23655168768E-01  0.88905380562E+00  0.88000000000E+00 0.  1.
        -11    1    4    4    0    0 -0.35466678662E-01  0.39704072677E-03 -0.39763286534E-02  0.35694750975E-01  0.51100000000E-03 0.  1.
         11    1    4    4    0    0 -0.86146372439E-01 -0.15686049880E-01 -0.38130009662E-01  0.95506064745E-01  0.51100000000E-03 0. -1.
</event>
<event>
 8    1  0.1123470E+005  0.1043930E+01  0.7957747E-01            NaN
         13   -1    0    0    0    0  0.00000000000E+00  0.00000000000E+00  0.74505805969E-08  0.10566000000E+00  0.10566000000E+00 0. -1.
     999900   -1    0    0    0    0 -0.00000000000E+00 -0.00000000000E+00 -0.74505805969E-08  0.93827000000E+00  0.93827000000E+00 0.  1.
     999902    2    1    2    0    0 -0.84478969275E-02 -0.11871737887E-01  0.19289356973E-01  0.10197559558E+01  0.10194693840E+01 0.  0.
     999903    2    3    3    0    0  0.11533099823E+00  0.37636829791E-01  0.41290714588E-01  0.12944344158E+00  0.18245858350E-01 0.  0.
         14    1    1    2    0    0  0.84478969275E-02  0.11871737887E-01 -0.19289356973E-01  0.24174044249E-01  0.00000000000E+00 0.  1.
     999901    1    3    3    0    0 -0.12377889515E+00 -0.49508567678E-01 -0.22001357616E-01  0.89031251417E+00  0.88000000000E+00 0. -1.
        -11    1    4    4    0    0  0.51176080563E-01  0.20585748195E-01  0.10033811457E-01  0.56068732319E-01  0.51100000000E-03 0. -1.
         11    1    4    4    0    0  0.64154917664E-01  0.17051081595E-01  0.31256903131E-01  0.73374709256E-01  0.51100000000E-03 0.  1.
</event>
<event>
 8    1  0.1123470E+005  0.1043930E+01  0.7957747E-01            NaN
         13   -1    0    0    0    0  0.00000000000E+00  0.00000000000E+00  0.74505805969E-08  0.10566000000E+00  0.10566000000E+00 0. -1.
     999900   -1    0    0    0    0 -0.00000000000E+00 -0.00000000000E+00 -0.74505805969E-08  0.93827000000E+00  0.93827000000E+00 0.  1.
     999902    2    1    2    0    0 -0.10787149734E-01 -0.67227390971E-02  0.19622962894E-01  0.10205501263E+01  0.10202822854E+01 0.  0.
     999903    2    3    3    0    0  0.74464949832E-01  0.71488099154E-02  0.10698760662E+00  0.13201598442E+00  0.19640212225E-01 0.  0.
         14    1    1    2    0    0  0.10787149734E-01  0.67227390971E-02 -0.19622962894E-01  0.23379873676E-01  0.00000000000E+00 0.  1.
     999901    1    3    3    0    0 -0.85252099566E-01 -0.13871549013E-01 -0.87364643724E-01  0.88853414190E+00  0.88000000000E+00 0.  1.
        -11    1    4    4    0    0  0.49024074922E-01  0.58795486277E-02  0.53701661215E-01  0.72952440345E-01  0.51100000000E-03 0.  1.
         11    1    4    4    0    0  0.25440874910E-01  0.12692612877E-02  0.53285945404E-01  0.59063544077E-01  0.51100000000E-03 0. -1.
</event>
<event>
 8    1  0.1123470E+005  0.1043930E+01  0.7957747E-01            NaN
         13   -1    0    0    0    0  0.00000000000E+00  0.00000000000E+00  0.74505805969E-08  0.10566000000E+00  0.10566000000E+00 0. -1.
     999900   -1    0    0    0    0 -0.00000000000E+00 -0.00000000000E+00 -0.74505805969E-08  0.93827000000E+00  0.93827000000E+00 0.  1.
     999902    2    1    2    0    0 -0.10352388670E-01  0.21161249627E-01 -0.26863407062E-02  0.10202195200E+01  0.10199439603E+01 0.  0.
     999903    2    3    3    0    0 -0.64467938673E-01 -0.16741655956E-01  0.11047930853E+00  0.13051643063E+00  0.19810676193E-01 0.  0.
         14    1    1    2    0    0  0.10352388670E-01 -0.21161249627E-01  0.26863407062E-02  0.23710480031E-01  0.00000000000E+00 0.  1.
     999901    1    3    3    0    0  0.54115550003E-01  0.37902905583E-01 -0.11316564924E+00  0.88970308933E+00  0.88000000000E+00 0.  1.
        -11    1    4    4    0    0 -0.39946155880E-01 -0.14977439278E-01  0.53293630222E-01  0.68267790357E-01  0.51100000000E-03 0. -1.
         11    1    4    4    0    0 -0.24521782793E-01 -0.17642166783E-02  0.57185678308E-01  0.62248640278E-01  0.51100000000E-03 0.  1.
</event>
<event>
 8    1  0.1123470E+005  0.1043930E+01  0.7957747E-01            NaN
         13   -1    0    0    0    0  0.00000000000E+00  0.00000000000E+00  0.74505805969E-08  0.10566000000E+00  0.10566000000E+00 0.  1.
     999900   -1    0    0    0    0 -0.00000000000E+00 -0.00000000000E+00 -0.74505805969E-08  0.93827000000E+00  0.93827000000E+00 0. -1.
     999902    2    1    2    0    0  0.14824769319E-01  0.23532422999E-02 -0.16750996305E-01  0.10214376144E+01  0.10211899395E+01 0.  0.
     999903    2    3    3    0    0  0.12330914520E+00 -0.40208007078E-01  0.25077321246E-01  0.13277011303E+00  0.13311714853E-01 0.  0.
         14    1    1    2    0    0 -0.14824769319E-01 -0.23532422999E-02  0.16750996305E-01  0.22492385643E-01  0.00000000000E+00 0. -1.
     999901    1    3    3    0    0 -0.10848437588E+00  0.42561249378E-01 -0.41828317550E-01  0.88866750132E+00  0.88000000000E+00 0.  1.
        -11    1    4    4    0    0  0.50999427816E-01 -0.10074010560E-01  0.11873824207E-01  0.53326130074E-01  0.51100000000E-03 0. -1.
         11    1    4    4    0    0  0.72309717380E-01 -0.30133996518E-01  0.13203497039E-01  0.79443982961E-01  0.51100000000E-03 0.  1.
</event>
<event>
 8    1  0.1123470E+005  0.1043930E+01  0.7957747E-01            NaN
         13   -1    0    0    0    0  0.00000000000E+00  0.00000000000E+00  0.74505805969E-08  0.10566000000E+00  0.10566000000E+00 0. -1.
     999900   -1    0    0    0    0 -0.00000000000E+00 -0.00000000000E+00 -0.74505805969E-08  0.93827000000E+00  0.93827000000E+00 0. -1.
     999902    2    1    2    0    0  0.41719270644E-02  0.13398208347E-01  0.96512426962E-02  0.10268987508E+01  0.10267575084E+01 0.  0.
     999903    2    3    3    0    0  0.35796279490E-01  0.47455084245E-01  0.12336953539E+00  0.13836522837E+00  0.19787256361E-01 0.  0.
         14    1    1    2    0    0 -0.41719270644E-02 -0.13398208347E-01 -0.96512426962E-02  0.17031249159E-01  0.00000000000E+00 0.  1.
     999901    1    3    3    0    0 -0.31624352425E-01 -0.34056875898E-01 -0.11371829269E+00  0.88853352247E+00  0.88000000000E+00 0. -1.
        -11    1    4    4    0    0  0.96610158377E-02  0.13115195645E-01  0.56290120540E-01  0.58601897369E-01  0.51100000000E-03 0. -1.
         11    1    4    4    0    0  0.26135263652E-01  0.34339888600E-01  0.67079414847E-01  0.79763331001E-01  0.51100000000E-03 0.  1.
</event>
<event>
 8    1  0.1123470E+005  0.1043930E+01  0.7957747E-01            NaN
         13   -1    0    0    0    0  0.00000000000E+00  0.00000000000E+00  0.74505805969E-08  0.10566000000E+00  0.10566000000E+00 0.  1.
     999900   -1    0    0    0    0 -0.00000000000E+00 -0.00000000000E+00 -0.74505805969E-08  0.93827000000E+00  0.93827000000E+00 0. -1.
     999902    2    1    2    0    0 -0.17906048517E-01 -0.17122218718E-01  0.26575324913E-02  0.10190129491E+01  0.10187082659E+01 0.  0.
     999903    2    3    3    0    0  0.34003228091E-01 -0.83981213938E-01 -0.91117141651E-01  0.12999192135E+00  0.19659661732E-01 0.  0.
         14    1    1    2    0    0  0.17906048517E-01  0.17122218718E-01 -0.26575324913E-02  0.24917050914E-01  0.00000000000E+00 0.  1.
     999901    1    3    3    0    0 -0.51909276608E-01  0.66858995221E-01  0.93774674142E-01  0.88902102773E+00  0.88000000000E+00 0.  1.
        -11    1    4    4    0    0  0.22481373490E-01 -0.37793569470E-01 -0.53901543913E-01  0.69565822100E-01  0.51100000000E-03 0. -1.
         11    1    4    4    0    0  0.11521854601E-01 -0.46187644469E-01 -0.37215597737E-01  0.60426099253E-01  0.51100000000E-03 0.  1.
</event>
<event>
 8    1  0.1123470E+005  0.1043930E+01  0.7957747E-01            NaN
         13   -1    0    0    0    0  0.00000000000E+00  0.00000000000E+00  0.74505805969E-08  0.10566000000E+00  0.10566000000E+00 0. -1.
     999900   -1    0    0    0    0 -0.00000000000E+00 -0.00000000000E+00 -0.74505805969E-08  0.93827000000E+00  0.93827000000E+00 0. -1.
     999902    2    1    2    0    0  0.19043602312E-01 -0.12587773507E-02  0.13179205453E-01  0.10207365793E+01  0.10204730420E+01 0.  0.
     999903    2    3    3    0    0  0.89951626240E-01 -0.86781518145E-01  0.43446691763E-01  0.13323547628E+00  0.15548316961E-01 0.  0.
         14    1    1    2    0    0 -0.19043602312E-01  0.12587773507E-02 -0.13179205453E-01  0.23193420745E-01  0.00000000000E+00 0.  1.
     999901    1    3    3    0    0 -0.70908023928E-01  0.85522740794E-01 -0.30267486310E-01  0.88750110297E+00  0.88000000000E+00 0.  1.
        -11    1    4    4    0    0  0.43700431119E-01 -0.31534220393E-01  0.17906659901E-01  0.56789473722E-01  0.51100000000E-03 0.  1.
         11    1    4    4    0    0  0.46251195121E-01 -0.55247297752E-01  0.25540031862E-01  0.76446002561E-01  0.51100000000E-03 0. -1.
</event>
<event>
 8    1  0.1123470E+005  0.1043930E+01  0.7957747E-01            NaN
         13   -1    0    0    0    0  0.00000000000E+00  0.00000000000E+00  0.74505805969E-08  0.10566000000E+00  0.10566000000E+00 0.  1.
     999900   -1    0    0    0    0 -0.00000000000E+00 -0.00000000000E+00 -0.74505805969E-08  0.93827000000E+00  0.93827000000E+00 0.  1.
     999902    2    1    2    0    0  0.17541285895E-01 -0.81566412729E-02 -0.12219620913E-01  0.10210488584E+01  0.10207924493E+01 0.  0.
     999903    2    3    3    0    0 -0.13700014921E-01 -0.83862434576E-01 -0.10018315648E+00  0.13287940965E+00  0.19991856480E-01 0.  0.
         14    1    1    2    0    0 -0.17541285895E-01  0.81566412729E-02  0.12219620913E-01  0.22881141645E-01  0.00000000000E+00 0.  1.
     999901    1    3    3    0    0  0.31241300816E-01  0.75705793303E-01  0.87963535569E-01  0.88816944870E+00  0.88000000000E+00 0. -1.
        -11    1    4    4    0    0 -0.88935660411E-03 -0.31885150421E-01 -0.51149178263E-01  0.60282280402E-01  0.51100000000E-03 0.  1.
         11    1    4    4    0    0 -0.12810658317E-01 -0.51977284155E-01 -0.49033978219E-01  0.72597129252E-01  0.51100000000E-03 0. -1.
</event>
<event>
 8    1  0.1123470E+005  0.1043930E+01  0.7957747E-01            NaN
         13   -1    0    0    0    0  0.00000000000E+00  0.00000000000E+00  0.74505805969E-08  0.10566000000E+00  0.10566000000E+00 0.  1.
     999900   -1    0    0    0    0 -0.00000000000E+00 -0.00000000000E+00 -0.74505805969E-08  0.93827000000E+00  0.93827000000E+00 0. -1.
     999902    2    1    2    0    0  0.12869546328E-01 -0.89434667389E-02 -0.17503391941E-01  0.10204357550E+01  0.10201652565E+01 0.  0.
     999903    2    3    3    0    0 -0.50748577452E-02  0.12266407062E+00  0.33377354062E-01  0.12901475688E+00  0.21413344560E-01 0.  0.
         14    1    1    2    0    0 -0.12869546328E-01  0.89434667389E-02  0.17503391941E-01  0.23494245028E-01  0.00000000000E+00 0.  1.
     999901    1    3    3    0    0  0.17944404073E-01 -0.13160753736E+00 -0.50880746002E-01  0.89142099809E+00  0.88000000000E+00 0. -1.
        -11    1    4    4    0    0  0.29273572647E-02  0.56122582274E-01  0.24855853631E-01  0.61452324955E-01  0.51100000000E-03 0.  1.
         11    1    4    4    0    0 -0.80022150099E-02  0.66541488349E-01  0.85215004305E-02  0.67562431923E-01  0.51100000000E-03 0. -1.
</event>
<event>
 8    1  0.1123470E+005  0.1043930E+01  0.7957747E-01            NaN
         13   -1    0    0    0    0  0.00000000000E+00  0.00000000000E+00  0.74505805969E-08  0.10566000000E+00  0.10566000000E+00 0. -1.
     999900   -1    0    0    0    0 -0.00000000000E+00 -0.00000000000E+00 -0.74505805969E-08  0.93827000000E+00  0.93827000000E+00 0. -1.
     999902    2    1    2    0    0 -0.21407877176E-01  0.10339582652E-01  0.59174426784E-02  0.10194306061E+01  0.10191361736E+01 0.  0.
     999903    2    3    3    0    0 -0.10097954293E+00  0.79312983347E-01  0.16964611511E-01  0.13308359732E+00  0.30594581461E-01 0.  0.
         14    1    1    2    0    0  0.21407877176E-01 -0.10339582652E-01 -0.59174426784E-02  0.24499393920E-01  0.00000000000E+00 0.  1.
     999901    1    3    3    0    0  0.79571665754E-01 -0.68973400695E-01 -0.11047168833E-01  0.88634700876E+00  0.88000000000E+00 0. -1.
        -11    1    4    4    0    0 -0.66051406449E-01  0.67161535856E-01  0.18779280519E-01  0.96054061290E-01  0.51100000000E-03 0. -1.
         11    1    4    4    0    0 -0.34928136481E-01  0.12151447491E-01 -0.18146690081E-02  0.37029536033E-01  0.51100000000E-03 0.  1.
</event>
<event>
 8    1  0.1397406E+005  0.1043930E+01  0.7957747E-01            NaN
         13   -1    0    0    0    0  0.00000000000E+00  0.00000000000E+00  0.74505805969E-08  0.10566000000E+00  0.10566000000E+00 0.  1.
     999900   -1    0    0    0    0 -0.00000000000E+00 -0.00000000000E+00 -0.74505805969E-08  0.93827000000E+00  0.93827000000E+00 0.  1.
     999902    2    1    2    0    0  0.11744892501E-01 -0.32036249099E-02  0.23024616447E-01  0.10178850643E+01  0.10175517999E+01 0.  0.
     999903    2    3    3    0    0 -0.72769896359E-01  0.52638506352E-01  0.91045171427E-01  0.12946630660E+00  0.20150214313E-01 0.  0.
         14    1    1    2    0    0 -0.11744892501E-01  0.32036249099E-02 -0.23024616447E-01  0.26044935687E-01  0.00000000000E+00 0. -1.
     999901    1    3    3    0    0  0.84514788860E-01 -0.55842131262E-01 -0.68020554980E-01  0.88841875771E+00  0.88000000000E+00 0. -1.
        -11    1    4    4    0    0 -0.43450136947E-01  0.19480099056E-01  0.50994710721E-01  0.69771844625E-01  0.51100000000E-03 0. -1.
         11    1    4    4    0    0 -0.29319759412E-01  0.33158407296E-01  0.40050460706E-01  0.59694461972E-01  0.51100000000E-03 0.  1.
</event>
<event>
 8    1  0.1123470E+005  0.1043930E+01  0.7957747E-01            NaN
         13   -1    0    0    0    0  0.00000000000E+00  0.00000000000E+00  0.74505805969E-08  0.10566000000E+00  0.10566000000E+00 0. -1.
     999900   -1    0    0    0    0 -0.00000000000E+00 -0.00000000000E+00 -0.74505805969E-08  0.93827000000E+00  0.93827000000E+00 0. -1.
     999902    2    1    2    0    0 -0.11464037181E-01  0.20822228692E-01  0.77559009597E-02  0.10189271330E+01  0.10186203214E+01 0.  0.
     999903    2    3    3    0    0 -0.12793802942E+00  0.87695262379E-02 -0.15429442983E-01  0.13086800288E+00  0.21055225087E-01 0.  0.
         14    1    1    2    0    0  0.11464037181E-01 -0.20822228692E-01 -0.77559009597E-02  0.25002866953E-01  0.00000000000E+00 0. -1.
     999901    1    3    3    0    0  0.11647399224E+00  0.12052702454E-01  0.23185343943E-01  0.88805913017E+00  0.88000000000E+00 0.  1.
        -11    1    4    4    0    0 -0.74598782190E-01  0.51354820755E-02  0.14821178363E-02  0.74791772773E-01  0.51100000000E-03 0.  1.
         11    1    4    4    0    0 -0.53339247232E-01  0.36340441624E-02 -0.16911560820E-01  0.56076230103E-01  0.51100000000E-03 0. -1.
</event>
<event>
 7    1  0.2043453E+005  0.1043930E+01  0.7957747E-01            NaN
         13   -1    0    0    0    0  0.00000000000E+00  0.00000000000E+00  0.74505805969E-08  0.10566000000E+00  0.10566000000E+00 0. -1.
     999900   -1    0    0    0    0 -0.00000000000E+00 -0.00000000000E+00 -0.74505805969E-08  0.93827000000E+00  0.93827000000E+00 0.  1.
     999903    2    1    2    0    0 -0.57856121437E-01  0.76109885628E-01  0.19371592000E-01  0.99564864157E-01  0.19946381121E-01 0.  0.
         14    1    1    2    0    0 -0.43061305022E-01  0.21469659559E-01 -0.22769734660E-01  0.53232350016E-01  0.00000000000E+00 0. -1.
     999901    1    1    2    0    0  0.10091742646E+00 -0.97579545187E-01  0.33981426595E-02  0.89113278583E+00  0.88000000000E+00 0. -1.
        -11    1    3    3    0    0 -0.35066415166E-01  0.38238120798E-01  0.19309744929E-01  0.55361852615E-01  0.51100000000E-03 0. -1.
         11    1    3    3    0    0 -0.22789706272E-01  0.37871764830E-01  0.61847071218E-04  0.44203011542E-01  0.51100000000E-03 0.  1.
</event>
<event>
 8    1  0.1123470E+005  0.1043930E+01  0.7957747E-01            NaN
         13   -1    0    0    0    0  0.00000000000E+00  0.00000000000E+00  0.74505805969E-08  0.10566000000E+00  0.10566000000E+00 0.  1.
     999900   -1    0    0    0    0 -0.00000000000E+00 -0.00000000000E+00 -0.74505805969E-08  0.93827000000E+00  0.93827000000E+00 0. -1.
     999902    2    1    2    0    0  0.30933551797E-02  0.19420017200E-01 -0.15341476714E-01  0.10189887325E+01  0.10186834495E+01 0.  0.
     999903    2    3    3    0    0 -0.33809190964E-01  0.95312676040E-01  0.78889414785E-01  0.12994376491E+00  0.20839257794E-01 0.  0.
         14    1    1    2    0    0 -0.30933551797E-02 -0.19420017200E-01  0.15341476714E-01  0.24941267451E-01  0.00000000000E+00 0. -1.
     999901    1    3    3    0    0  0.36902546144E-01 -0.75892658840E-01 -0.94230891498E-01  0.88904496764E+00  0.88000000000E+00 0. -1.
        -11    1    4    4    0    0 -0.24881276083E-01  0.44343641083E-01  0.31776151070E-01  0.59961832042E-01  0.51100000000E-03 0. -1.
         11    1    4    4    0    0 -0.89279148810E-02  0.50969034957E-01  0.47113263715E-01  0.69981932865E-01  0.51100000000E-03 0.  1.
</event>
<event>
 8    1  0.1123470E+005  0.1043930E+01  0.7957747E-01            NaN
         13   -1    0    0    0    0  0.00000000000E+00  0.00000000000E+00  0.74505805969E-08  0.10566000000E+00  0.10566000000E+00 0.  1.
     999900   -1    0    0    0    0 -0.00000000000E+00 -0.00000000000E+00 -0.74505805969E-08  0.93827000000E+00  0.93827000000E+00 0. -1.
     999902    2    1    2    0    0  0.15273133090E-01  0.18433565915E-01 -0.18552108627E-02  0.10199194449E+01  0.10196367821E+01 0.  0.
     999903    2    3    3    0    0 -0.31393704267E-01 -0.10894260398E+00  0.55234612162E-01  0.12769652983E+00  0.20037108545E-01 0.  0.
         14    1    1    2    0    0 -0.15273133090E-01 -0.18433565915E-01  0.18552108627E-02  0.24010555056E-01  0.00000000000E+00 0.  1.
     999901    1    3    3    0    0  0.46666837357E-01  0.12737616990E+00 -0.57089823025E-01  0.89222291512E+00  0.88000000000E+00 0. -1.
        -11    1    4    4    0    0 -0.11174731806E-01 -0.14608899298E-01  0.12053115755E-01  0.21996210811E-01  0.51100000000E-03 0.  1.
         11    1    4    4    0    0 -0.20218972460E-01 -0.94333704687E-01  0.43181496407E-01  0.10570031902E+00  0.51100000000E-03 0. -1.
</event>
<event>
 8    1  0.1123470E+005  0.1043930E+01  0.7957747E-01            NaN
         13   -1    0    0    0    0  0.00000000000E+00  0.00000000000E+00  0.74505805969E-08  0.10566000000E+00  0.10566000000E+00 0. -1.
     999900   -1    0    0    0    0 -0.00000000000E+00 -0.00000000000E+00 -0.74505805969E-08  0.93827000000E+00  0.93827000000E+00 0. -1.
     999902    2    1    2    0    0  0.17321448805E-01  0.17025100500E-01 -0.99971907157E-03  0.10196218517E+01  0.10193320531E+01 0.  0.
     999903    2    3    3    0    0 -0.27643440372E-01  0.12675815821E+00  0.10213915031E-01  0.13159655318E+00  0.19533004891E-01 0.  0.
         14    1    1    2    0    0 -0.17321448805E-01 -0.17025100500E-01  0.99971907157E-03  0.24308148304E-01  0.00000000000E+00 0.  1.
     999901    1    3    3    0    0  0.44964889177E-01 -0.10973305771E+00 -0.11213634103E-01  0.88802529852E+00  0.88000000000E+00 0. -1.
        -11    1    4    4    0    0 -0.18338233213E-01  0.94740181023E-01  0.15801004911E-01  0.97785098941E-01  0.51100000000E-03 0. -1.
         11    1    4    4    0    0 -0.93052071589E-02  0.32017977188E-01 -0.55870898798E-02  0.33811454240E-01  0.51100000000E-03 0.  1.
</event>
<event>
 8    1  0.1123470E+005  0.1043930E+01  0.7957747E-01            NaN
         13   -1    0    0    0    0  0.00000000000E+00  0.00000000000E+00  0.74505805969E-08  0.10566000000E+00  0.10566000000E+00 0. -1.
     999900   -1    0    0    0    0 -0.00000000000E+00 -0.00000000000E+00 -0.74505805969E-08  0.93827000000E+00  0.93827000000E+00 0. -1.
     999902    2    1    2    0    0 -0.11428037560E-01 -0.34702565362E-02 -0.18476225301E-01  0.10219296904E+01  0.10216928494E+01 0.  0.
     999903    2    3    3    0    0  0.57750595421E-01 -0.11600875545E+00  0.10377299841E-01  0.13160215349E+00  0.20451793010E-01 0.  0.
         14    1    1    2    0    0  0.11428037560E-01  0.34702565362E-02  0.18476225301E-01  0.22000309640E-01  0.00000000000E+00 0. -1.
     999901    1    3    3    0    0 -0.69178632981E-01  0.11253849892E+00 -0.28853525142E-01  0.89032753687E+00  0.88000000000E+00 0.  1.
        -11    1    4    4    0    0  0.51413742316E-01 -0.96494741078E-01  0.15545585021E-01  0.11043792052E+00  0.51100000000E-03 0.  1.
         11    1    4    4    0    0  0.63368531056E-02 -0.19514014375E-01 -0.51682851802E-02  0.21164232966E-01  0.51100000000E-03 0. -1.
</event>
<event>
 8    1  0.1123470E+005  0.1043930E+01  0.7957747E-01            NaN
         13   -1    0    0    0    0  0.00000000000E+00  0.00000000000E+00  0.74505805969E-08  0.10566000000E+00  0.10566000000E+00 0.  1.
     999900   -1    0    0    0    0 -0.00000000000E+00 -0.00000000000E+00 -0.74505805969E-08  0.93827000000E+00  0.93827000000E+00 0. -1.
     999902    2    1    2    0    0 -0.22475569586E-01  0.67164652795E-03 -0.10794572839E-01  0.10189875635E+01  0.10186822514E+01 0.  0.
     999903    2    3    3    0    0  0.91241810060E-01 -0.86204667605E-01 -0.47372031032E-02  0.12740704096E+00  0.21302590758E-01 0.  0.
         14    1    1    2    0    0  0.22475569586E-01 -0.67164652795E-03  0.10794572839E-01  0.24942436530E-01  0.00000000000E+00 0.  1.
     999901    1    3    3    0    0 -0.11371737965E+00  0.86876314133E-01 -0.60573697362E-02  0.89158052251E+00  0.88000000000E+00 0. -1.
        -11    1    4    4    0    0  0.22827288958E-01 -0.13329645109E-01 -0.72585534323E-02  0.27417371844E-01  0.51100000000E-03 0. -1.
         11    1    4    4    0    0  0.68414521102E-01 -0.72875022496E-01  0.25213503291E-02  0.99989669115E-01  0.51100000000E-03 0.  1.
</event>
<event>
 8    1  0.1123470E+005  0.1043930E+01  0.7957747E-01            NaN
         13   -1    0    0    0    0  0.00000000000E+00  0.00000000000E+00  0.74505805969E-08  0.10566000000E+00  0.10566000000E+00 0.  1.
     999900   -1    0    0    0    0 -0.00000000000E+00 -0.00000000000E+00 -0.74505805969E-08  0.93827000000E+00  0.93827000000E+00 0. -1.
     999902    2    1    2    0    0  0.48508144795E-02  0.23796478220E-01  0.11783184957E-01  0.10169365522E+01  0.10165782336E+01 0.  0.
     999903    2    3    3    0    0  0.43973536508E-01 -0.22998328446E-01  0.11667829047E+00  0.12861041587E+00  0.21545778678E-01 0.  0.
         14    1    1    2    0    0 -0.48508144795E-02 -0.23796478220E-01 -0.11783184957E-01  0.26993447807E-01  0.00000000000E+00 0.  1.
     999901    1    3    3    0    0 -0.39122722028E-01  0.46794806665E-01 -0.10489510552E+00  0.88832613632E+00  0.88000000000E+00 0. -1.
        -11    1    4    4    0    0  0.12472906185E-01  0.31333647887E-02  0.22486861277E-01  0.25909678012E-01  0.51100000000E-03 0.  1.
         11    1    4    4    0    0  0.31500630323E-01 -0.26131693234E-01  0.94191429196E-01  0.10270073786E+00  0.51100000000E-03 0. -1.
</event>
<event>
 8    1  0.1123470E+005  0.1043930E+01  0.7957747E-01            NaN
         13   -1    0    0    0    0  0.00000000000E+00  0.00000000000E+00  0.74505805969E-08  0.10566000000E+00  0.10566000000E+00 0.  1.
     999900   -1    0    0    0    0 -0.00000000000E+00 -0.00000000000E+00 -0.74505805969E-08  0.93827000000E+00  0.93827000000E+00 0.  1.
     999902    2    1    2    0    0  0.15081888354E-01  0.82578073756E-02  0.16876355877E-01  0.10198371354E+01  0.10195525080E+01 0.  0.
     999903    2    3    3    0    0 -0.10307831597E+00 -0.24182771439E-01  0.72337493555E-01  0.12961796974E+00  0.18925101017E-01 0.  0.
         14    1    1    2    0    0 -0.15081888354E-01 -0.82578073756E-02 -0.16876355877E-01  0.24092864642E-01  0.00000000000E+00 0. -1.
     999901    1    3    3    0    0  0.11816020432E+00  0.32440578814E-01 -0.55461137678E-01  0.89021916562E+00  0.88000000000E+00 0.  1.
        -11    1    4    4    0    0 -0.60467965070E-01 -0.64258373449E-02  0.47723145564E-01  0.77300879224E-01  0.51100000000E-03 0. -1.
         11    1    4    4    0    0 -0.42610350899E-01 -0.17756934094E-01  0.24614347991E-01  0.52317090517E-01  0.51100000000E-03 0.  1.
</event>
<event>
 8    1  0.1123470E+005  0.1043930E+01  0.7957747E-01            NaN
         13   -1    0    0    0    0  0.00000000000E+00  0.00000000000E+00  0.74505805969E-08  0.10566000000E+00  0.10566000000E+00 0. -1.
     999900   -1    0    0    0    0 -0.00000000000E+00 -0.00000000000E+00 -0.74505805969E-08  0.93827000000E+00  0.93827000000E+00 0.  1.
     999902    2    1    2    0    0 -0.57151008168E-03 -0.15491743514E-01 -0.16986614086E-01  0.10209329176E+01  0.10206738737E+01 0.  0.
     999903    2    3    3    0    0  0.70195441537E-01  0.99013212172E-01  0.38549228913E-01  0.12896678810E+00  0.20380706202E-01 0.  0.
         14    1    1    2    0    0  0.57151008168E-03  0.15491743514E-01  0.16986614086E-01  0.22997082402E-01  0.00000000000E+00 0. -1.
     999901    1    3    3    0    0 -0.70766951619E-01 -0.11450495569E+00 -0.55535842999E-01  0.89196612950E+00  0.88000000000E+00 0.  1.
        -11    1    4    4    0    0  0.49038369278E-01  0.71625377027E-01  0.17799393144E-01  0.88611713746E-01  0.51100000000E-03 0. -1.
         11    1    4    4    0    0  0.21157072259E-01  0.27387835145E-01  0.20749835769E-01  0.40355074352E-01  0.51100000000E-03 0.  1.
</event>
<event>
 8    1  0.1123470E+005  0.1043930E+01  0.7957747E-01            NaN
         13   -1    0    0    0    0  0.00000000000E+00  0.00000000000E+00  0.74505805969E-08  0.10566000000E+00  0.10566000000E+00 0.  1.
     999900   -1    0    0    0    0 -0.00000000000E+00 -0.00000000000E+00 -0.74505805969E-08  0.93827000000E+00  0.93827000000E+00 0. -1.
     999902    2    1    2    0    0  0.21472823340E-01 -0.55853080845E-02  0.63240624114E-02  0.10208589884E+01  0.10205982573E+01 0.  0.
     999903    2    3    3    0    0 -0.48535825166E-01  0.10473489459E+00  0.56092998225E-01  0.12982099546E+00  0.19543335005E-01 0.  0.
         14    1    1    2    0    0 -0.21472823340E-01  0.55853080845E-02 -0.63240624114E-02  0.23071011551E-01  0.00000000000E+00 0.  1.
     999901    1    3    3    0    0  0.70008648506E-01 -0.11032020267E+00 -0.49768935814E-01  0.89103799299E+00  0.88000000000E+00 0. -1.
        -11    1    4    4    0    0 -0.10890540607E-01  0.16870134975E-01  0.25272440553E-02  0.20244836683E-01  0.51100000000E-03 0. -1.
         11    1    4    4    0    0 -0.37645284560E-01  0.87864759611E-01  0.53565754170E-01  0.10957615877E+00  0.51100000000E-03 0.  1.
</event>
<event>
 8    1  0.1123470E+005  0.1043930E+01  0.7957747E-01            NaN
         13   -1    0    0    0    0  0.00000000000E+00  0.00000000000E+00  0.74505805969E-08  0.10566000000E+00  0.10566000000E+00 0.  1.
     999900   -1    0    0    0    0 -0.00000000000E+00 -0.00000000000E+00 -0.74505805969E-08  0.93827000000E+00  0.93827000000E+00 0. -1.
     999902    2    1    2    0    0  0.14106271700E-01 -0.17134119434E-02 -0.19626608640E-01  0.10196993077E+01  0.10194113751E+01 0.  0.
     999903    2    3    3    0    0 -0.23496103379E-01 -0.12281002581E+00 -0.32503742578E-01  0.13051757765E+00  0.18546576031E-01 0.  0.
         14    1    1    2    0    0 -0.14106271700E-01  0.17134119434E-02  0.19626608640E-01  0.24230692282E-01  0.00000000000E+00 0.  1.
     999901    1    3    3    0    0  0.37602375079E-01  0.12109661386E+00  0.12877133938E-01  0.88918173006E+00  0.88000000000E+00 0.  1.
        -11    1    4    4    0    0 -0.18732923619E-01 -0.50251394763E-01 -0.15735119500E-01  0.55892577411E-01  0.51100000000E-03 0.  1.
         11    1    4    4    0    0 -0.47631797594E-02 -0.72558631044E-01 -0.16768623078E-01  0.74625000243E-01  0.51100000000E-03 0. -1.
</event>
<event>
 8    1  0.1123470E+005  0.1043930E+01  0.7957747E-01            NaN
         13   -1    0    0    0    0  0.00000000000E+00  0.00000000000E+00  0.74505805969E-08  0.10566000000E+00  0.10566000000E+00 0.  1.
     999900   -1    0    0    0    0 -0.00000000000E+00 -0.00000000000E+00 -0.74505805969E-08  0.93827000000E+00  0.93827000000E+00 0. -1.
     999902    2    1    2    0    0  0.18427143380E-01  0.64172587621E-02 -0.13797060844E-01  0.10200323074E+01  0.10197523270E+01 0.  0.
     999903    2    3    3    0    0 -0.32380349935E-01 -0.10619045017E+00 -0.64458579303E-01  0.12996012666E+00  0.20244191916E-01 0.  0.
         14    1    1    2    0    0 -0.18427143380E-01 -0.64172587621E-02  0.13797060844E-01  0.23897692589E-01  0.00000000000E+00 0.  1.
     999901    1    3    3    0    0  0.50807493314E-01  0.11260770894E+00  0.50661518459E-01  0.89007218075E+00  0.88000000000E+00 0.  1.
        -11    1    4    4    0    0 -0.18502486943E-01 -0.71611835122E-01 -0.32186747612E-01  0.80665015933E-01  0.51100000000E-03 0.  1.
         11    1    4    4    0    0 -0.13877862991E-01 -0.34578615052E-01 -0.32271831692E-01  0.49295110730E-01  0.51100000000E-03 0. -1.
</event>
<event>
 8    1  0.1123470E+005  0.1043930E+01  0.7957747E-01            NaN
         13   -1    0    0    0    0  0.00000000000E+00  0.00000000000E+00  0.74505805969E-08  0.10566000000E+00  0.10566000000E+00 0. -1.
     999900   -1    0    0    0    0 -0.00000000000E+00 -0.00000000000E+00 -0.74505805969E-08  0.93827000000E+00  0.93827000000E+00 0.  1.
     999902    2    1    2    0    0  0.22185179401E-01  0.33490271302E-02 -0.70370717234E-02  0.10204157799E+01  0.10201448159E+01 0.  0.
     999903    2    3    3    0    0 -0.12778225731E-01  0.89893671701E-01 -0.91496484412E-01  0.13145807136E+00  0.25796561824E-01 0.  0.
         14    1    1    2    0    0 -0.22185179401E-01 -0.33490271302E-02  0.70370717234E-02  0.23514220085E-01  0.00000000000E+00 0.  1.
     999901    1    3    3    0    0  0.34963405131E-01 -0.86544644571E-01  0.84459412689E-01  0.88895770855E+00  0.88000000000E+00 0. -1.
        -11    1    4    4    0    0 -0.16474884788E-01  0.71665419127E-01 -0.60141018198E-01  0.94997670068E-01  0.51100000000E-03 0. -1.
         11    1    4    4    0    0  0.36966590575E-02  0.18228252575E-01 -0.31355466214E-01  0.36460401296E-01  0.51100000000E-03 0.  1.
</event>
<event>
 8    1  0.1123470E+005  0.1043930E+01  0.7957747E-01            NaN
         13   -1    0    0    0    0  0.00000000000E+00  0.00000000000E+00  0.74505805969E-08  0.10566000000E+00  0.10566000000E+00 0.  1.
     999900   -1    0    0    0    0 -0.00000000000E+00 -0.00000000000E+00 -0.74505805969E-08  0.93827000000E+00  0.93827000000E+00 0. -1.
     999902    2    1    2    0    0  0.26178550852E-01 -0.58906653736E-02 -0.22833936183E-03  0.10170959060E+01  0.10167418617E+01 0.  0.
     999903    2    3    3    0    0 -0.89416036260E-01 -0.64962555568E-01 -0.57539043786E-01  0.12572835349E+00  0.16778442876E-01 0.  0.
         14    1    1    2    0    0 -0.26178550852E-01  0.58906653736E-02  0.22833936183E-03  0.26834094024E-01  0.00000000000E+00 0. -1.
     999901    1    3    3    0    0  0.11559458711E+00  0.59071890194E-01  0.57310704425E-01  0.89136755248E+00  0.88000000000E+00 0.  1.
        -11    1    4    4    0    0 -0.59268361458E-01 -0.38849781487E-01 -0.28474027942E-01  0.76374574171E-01  0.51100000000E-03 0.  1.
         11    1    4    4    0    0 -0.30147674802E-01 -0.26112774081E-01 -0.29065015845E-01  0.49353779321E-01  0.51100000000E-03 0. -1.
</event>
<event>
 8    1  0.1123470E+005  0.1043930E+01  0.7957747E-01            NaN
         13   -1    0    0    0    0  0.00000000000E+00  0.00000000000E+00  0.74505805969E-08  0.10566000000E+00  0.10566000000E+00 0. -1.
     999900   -1    0    0    0    0 -0.00000000000E+00 -0.00000000000E+00 -0.74505805969E-08  0.93827000000E+00  0.93827000000E+00 0. -1.
     999902    2    1    2    0    0  0.15776496772E-01 -0.44912276732E-02  0.19640301418E-01  0.10183407363E+01  0.10180191770E+01 0.  0.
     999903    2    3    3    0    0 -0.99861742586E-01  0.76864314125E-01  0.84606111834E-02  0.12698451568E+00  0.13152751139E-01 0.  0.
         14    1    1    2    0    0 -0.15776496772E-01  0.44912276732E-02 -0.19640301418E-01  0.25589263690E-01  0.00000000000E+00 0.  1.
     999901    1    3    3    0    0  0.11563823936E+00 -0.81355541798E-01  0.11179690235E-01  0.89135622063E+00  0.88000000000E+00 0.  1.
        -11    1    4    4    0    0 -0.11041249642E-01  0.10160392660E-01 -0.30155780531E-02  0.15313314620E-01  0.51100000000E-03 0.  1.
         11    1    4    4    0    0 -0.88820492944E-01  0.66703921465E-01  0.11476189236E-01  0.11167120106E+00  0.51100000000E-03 0. -1.
</event>
<event>
 8    1  0.1123470E+005  0.1043930E+01  0.7957747E-01            NaN
         13   -1    0    0    0    0  0.00000000000E+00  0.00000000000E+00  0.74505805969E-08  0.10566000000E+00  0.10566000000E+00 0.  1.
     999900   -1    0    0    0    0 -0.00000000000E+00 -0.00000000000E+00 -0.74505805969E-08  0.93827000000E+00  0.93827000000E+00 0.  1.
     999902    2    1    2    0    0  0.49122004636E-02  0.26394391341E-01 -0.99006661619E-02  0.10153150249E+01  0.10149117120E+01 0.  0.
     999903    2    3    3    0    0  0.91727183014E-01  0.59372635139E-01 -0.65309458559E-01  0.12869529809E+00  0.18925339233E-01 0.  0.
         14    1    1    2    0    0 -0.49122004636E-02 -0.26394391341E-01  0.99006661619E-02  0.28614975067E-01  0.00000000000E+00 0.  1.
     999901    1    3    3    0    0 -0.86814982551E-01 -0.32978243798E-01  0.55408792397E-01  0.88661972685E+00  0.88000000000E+00 0. -1.
        -11    1    4    4    0    0  0.81704486470E-01  0.51540755399E-01 -0.49973738322E-01  0.10876446212E+00  0.51100000000E-03 0. -1.
         11    1    4    4    0    0  0.10022696544E-01  0.78318797395E-02 -0.15335720237E-01  0.19930835970E-01  0.51100000000E-03 0.  1.
</event>
<event>
 8    1  0.1123470E+005  0.1043930E+01  0.7957747E-01            NaN
         13   -1    0    0    0    0  0.00000000000E+00  0.00000000000E+00  0.74505805969E-08  0.10566000000E+00  0.10566000000E+00 0. -1.
     999900   -1    0    0    0    0 -0.00000000000E+00 -0.00000000000E+00 -0.74505805969E-08  0.93827000000E+00  0.93827000000E+00 0. -1.
     999902    2    1    2    0    0 -0.14654175771E-01  0.12718357808E-01  0.13326951006E-01  0.10203904776E+01  0.10201189233E+01 0.  0.
     999903    2    3    3    0    0  0.57249172976E-01  0.85974017533E-01  0.79311621319E-01  0.13197027297E+00  0.21373351941E-01 0.  0.
         14    1    1    2    0    0  0.14654175771E-01 -0.12718357808E-01 -0.13326951006E-01  0.23539522425E-01  0.00000000000E+00 0.  1.
     999901    1    3    3    0    0 -0.71903348747E-01 -0.73255659725E-01 -0.65984670313E-01  0.88842020461E+00  0.88000000000E+00 0. -1.
        -11    1    4    4    0    0  0.36813666122E-01  0.39416061815E-01  0.48366548044E-01  0.72446228563E-01  0.51100000000E-03 0. -1.
         11    1    4    4    0    0  0.20435506854E-01  0.46557955718E-01  0.30945073275E-01  0.59524044402E-01  0.51100000000E-03 0.  1.
</event>
<event>
 8    1  0.1123470E+005  0.1043930E+01  0.7957747E-01            NaN
         13   -1    0    0    0    0  0.00000000000E+00  0.00000000000E+00  0.74505805969E-08  0.10566000000E+00  0.10566000000E+00 0. -1.
     999900   -1    0    0    0    0 -0.00000000000E+00 -0.00000000000E+00 -0.74505805969E-08  0.93827000000E+00  0.93827000000E+00 0.  1.
     999902    2    1    2    0    0 -0.19460177598E-02 -0.24538081953E-01 -0.93419161793E-03  0.10192971527E+01  0.10189994644E+01 0.  0.
     999903    2    3    3    0    0  0.53216767643E-01  0.58295658693E-01 -0.99230941955E-01  0.12824911103E+00  0.19252180576E-01 0.  0.
         14    1    1    2    0    0  0.19460177598E-02  0.24538081953E-01  0.93419161793E-03  0.24632847278E-01  0.00000000000E+00 0.  1.
     999901    1    3    3    0    0 -0.55162785403E-01 -0.82833740646E-01  0.98296750337E-01  0.89104804170E+00  0.88000000000E+00 0. -1.
        -11    1    4    4    0    0  0.35310608977E-01  0.43673531468E-01 -0.82092013901E-01  0.99466458289E-01  0.51100000000E-03 0. -1.
         11    1    4    4    0    0  0.17906158666E-01  0.14622127224E-01 -0.17138928054E-01  0.28782652737E-01  0.51100000000E-03 0.  1.
</event>
<event>
 8    1  0.1123470E+005  0.1043930E+01  0.7957747E-01            NaN
         13   -1    0    0    0    0  0.00000000000E+00  0.00000000000E+00  0.74505805969E-08  0.10566000000E+00  0.10566000000E+00 0. -1.
     999900   -1    0    0    0    0 -0.00000000000E+00 -0.00000000000E+00 -0.74505805969E-08  0.93827000000E+00  0.93827000000E+00 0. -1.
     999902    2    1    2    0    0  0.55559392619E-02  0.17575619629E-01 -0.15236291321E-01  0.10200152464E+01  0.10197348614E+01 0.  0.
     999903    2    3    3    0    0 -0.12582488542E+00 -0.13000886925E-01 -0.19957826123E-01  0.12972420593E+00  0.20715451485E-01 0.  0.
         14    1    1    2    0    0 -0.55559392619E-02 -0.17575619629E-01  0.15236291321E-01  0.23914753598E-01  0.00000000000E+00 0. -1.
     999901    1    3    3    0    0  0.13138082468E+00  0.30576506554E-01  0.47215348013E-02  0.89029104047E+00  0.88000000000E+00 0. -1.
        -11    1    4    4    0    0 -0.21342687190E-01 -0.35888984729E-02 -0.11406954534E-01  0.24469781803E-01  0.51100000000E-03 0. -1.
         11    1    4    4    0    0 -0.10448219823E+00 -0.94119884520E-02 -0.85508715889E-02  0.10525442413E+00  0.51100000000E-03 0.  1.
</event>
<event>
 8    1  0.1123470E+005  0.1043930E+01  0.7957747E-01            NaN
         13   -1    0    0    0    0  0.00000000000E+00  0.00000000000E+00  0.74505805969E-08  0.10566000000E+00  0.10566000000E+00 0. -1.
     999900   -1    0    0    0    0 -0.00000000000E+00 -0.00000000000E+00 -0.74505805969E-08  0.93827000000E+00  0.93827000000E+00 0.  1.
     999902    2    1    2    0    0  0.26067640268E-01 -0.70749290681E-02  0.10112078691E-02  0.10169004045E+01  0.10165411126E+01 0.  0.
     999903    2    3    3    0    0  0.89683114684E-01 -0.58349550451E-01 -0.70664606628E-01  0.13021362906E+00  0.22679758974E-01 0.  0.
         14    1    1    2    0    0 -0.26067640268E-01  0.70749290681E-02 -0.10112078691E-02  0.27029595480E-01  0.00000000000E+00 0. -1.
     999901    1    3    3    0    0 -0.63615474416E-01  0.51274621383E-01  0.71675814497E-01  0.88668677546E+00  0.88000000000E+00 0. -1.
        -11    1    4    4    0    0  0.37592432515E-01 -0.12253976683E-01 -0.30051809305E-01  0.49666118133E-01  0.51100000000E-03 0. -1.
         11    1    4    4    0    0  0.52090682169E-01 -0.46095573769E-01 -0.40612797323E-01  0.80547510932E-01  0.51100000000E-03 0.  1.
</event>
<event>
 8    1  0.1123470E+005  0.1043930E+01  0.7957747E-01            NaN
         13   -1    0    0    0    0  0.00000000000E+00  0.00000000000E+00  0.74505805969E-08  0.10566000000E+00  0.10566000000E+00 0.  1.
     999900   -1    0    0    0    0 -0.00000000000E+00 -0.00000000000E+00 -0.74505805969E-08  0.93827000000E+00  0.93827000000E+00 0. -1.
     999902    2    1    2    0    0 -0.17968275296E-01 -0.11782510746E-01  0.10782977645E-01  0.10198892204E+01  0.10196058370E+01 0.  0.
     999903    2    3    3    0    0 -0.12514138791E+00  0.36427955644E-01  0.48109673124E-02  0.13205703466E+00  0.20701499379E-01 0.  0.
         14    1    1    2    0    0  0.17968275296E-01  0.11782510746E-01 -0.10782977645E-01  0.24040779594E-01  0.00000000000E+00 0.  1.
     999901    1    3    3    0    0  0.10717311261E+00 -0.48210466390E-01  0.59720103325E-02  0.88783218574E+00  0.88000000000E+00 0.  1.
        -11    1    4    4    0    0 -0.73714858647E-01  0.20555980588E-01 -0.73390883514E-02  0.76880114868E-01  0.51100000000E-03 0. -1.
         11    1    4    4    0    0 -0.51426529264E-01  0.15871975056E-01  0.12150055664E-01  0.55176919794E-01  0.51100000000E-03 0.  1.
</event>
<event>
 8    1  0.1123470E+005  0.1043930E+01  0.7957747E-01            NaN
         13   -1    0    0    0    0  0.00000000000E+00  0.00000000000E+00  0.74505805969E-08  0.10566000000E+00  0.10566000000E+00 0. -1.
     999900   -1    0    0    0    0 -0.00000000000E+00 -0.00000000000E+00 -0.74505805969E-08  0.93827000000E+00  0.93827000000E+00 0. -1.
     999902    2    1    2    0    0  0.19724690128E-01  0.65247168795E-02  0.11100087755E-01  0.10203748036E+01  0.10201028833E+01 0.  0.
     999903    2    3    3    0    0  0.10540567270E-02  0.12863849042E+00  0.19295421237E-01  0.13170865155E+00  0.20636941611E-01 0.  0.
         14    1    1    2    0    0 -0.19724690128E-01 -0.65247168795E-02 -0.11100087755E-01  0.23555196437E-01  0.00000000000E+00 0.  1.
     999901    1    3    3    0    0  0.18670633401E-01 -0.12211377354E+00 -0.81953334824E-02  0.88866615201E+00  0.88000000000E+00 0. -1.
        -11    1    4    4    0    0 -0.28401504115E-02  0.28697266592E-02  0.24648140564E-02  0.47579633028E-02  0.51100000000E-03 0.  1.
         11    1    4    4    0    0  0.38942071385E-02  0.12576876376E+00  0.16830607181E-01  0.12695068825E+00  0.51100000000E-03 0. -1.
</event>
<event>
 8    1  0.1123470E+005  0.1043930E+01  0.7957747E-01            NaN
         13   -1    0    0    0    0  0.00000000000E+00  0.00000000000E+00  0.74505805969E-08  0.10566000000E+00  0.10566000000E+00 0.  1.
     999900   -1    0    0    0    0 -0.00000000000E+00 -0.00000000000E+00 -0.74505805969E-08  0.93827000000E+00  0.93827000000E+00 0. -1.
     999902    2    1    2    0    0 -0.60650173197E-02 -0.22182041903E-01 -0.93671629527E-02  0.10190991490E+01  0.10187965962E+01 0.  0.
     999903    2    3    3    0    0 -0.45325473160E-01  0.25285994872E-01  0.11547377534E+00  0.12815590854E+00  0.19898845409E-01 0.  0.
         14    1    1    2    0    0  0.60650173197E-02  0.22182041903E-01  0.93671629527E-02  0.24830850969E-01  0.00000000000E+00 0.  1.
     999901    1    3    3    0    0  0.39260455841E-01 -0.47468036775E-01 -0.12484093829E+00  0.89094324049E+00  0.88000000000E+00 0. -1.
        -11    1    4    4    0    0 -0.32819573380E-01  0.73313330079E-02  0.72983194356E-01  0.80359695245E-01  0.51100000000E-03 0. -1.
         11    1    4    4    0    0 -0.12505899781E-01  0.17954661864E-01  0.42490580981E-01  0.47796213292E-01  0.51100000000E-03 0.  1.
</event>
<event>
 8    1  0.1123470E+005  0.1043930E+01  0.7957747E-01            NaN
         13   -1    0    0    0    0  0.00000000000E+00  0.00000000000E+00  0.74505805969E-08  0.10566000000E+00  0.10566000000E+00 0.  1.
     999900   -1    0    0    0    0 -0.00000000000E+00 -0.00000000000E+00 -0.74505805969E-08  0.93827000000E+00  0.93827000000E+00 0. -1.
     999902    2    1    2    0    0  0.12877638647E-01  0.13219320188E-01 -0.15582063693E-01  0.10197766418E+01  0.10194905661E+01 0.  0.
     999903    2    3    3    0    0 -0.79510090831E-01  0.96857778512E-01  0.27976967709E-01  0.12992931024E+00  0.19890478502E-01 0.  0.
         14    1    1    2    0    0 -0.12877638647E-01 -0.13219320188E-01  0.15582063693E-01  0.24153358199E-01  0.00000000000E+00 0.  1.
     999901    1    3    3    0    0  0.92387729479E-01 -0.83638458324E-01 -0.43559031402E-01  0.88984733156E+00  0.88000000000E+00 0. -1.
        -11    1    4    4    0    0 -0.72386876719E-01  0.81353220445E-01  0.18665756563E-01  0.11048474097E+00  0.51100000000E-03 0.  1.
         11    1    4    4    0    0 -0.71232141127E-02  0.15504558067E-01  0.93112111462E-02  0.19444569271E-01  0.51100000000E-03 0. -1.
</event>
<event>
 8    1  0.1123470E+005  0.1043930E+01  0.7957747E-01            NaN
         13   -1    0    0    0    0  0.00000000000E+00  0.00000000000E+00  0.74505805969E-08  0.10566000000E+00  0.10566000000E+00 0.  1.
     999900   -1    0    0    0    0 -0.00000000000E+00 -0.00000000000E+00 -0.74505805969E-08  0.93827000000E+00  0.93827000000E+00 0.  1.
     999902    2    1    2    0    0 -0.13579481284E-01  0.17130877369E-01 -0.84234556995E-02  0.10205030096E+01  0.10202340755E+01 0.  0.
     999903    2    3    3    0    0 -0.11694534702E+00 -0.31362259968E-01 -0.50278260689E-01  0.13214052098E+00  0.16535061129E-01 0.  0.
         14    1    1    2    0    0  0.13579481284E-01 -0.17130877369E-01  0.84234556995E-02  0.23426990359E-01  0.00000000000E+00 0.  1.
     999901    1    3    3    0    0  0.10336586573E+00  0.48493137337E-01  0.41854804990E-01  0.88836248867E+00  0.88000000000E+00 0. -1.
        -11    1    4    4    0    0 -0.51477503621E-01 -0.12387769480E-01 -0.30765570086E-01  0.61238644951E-01  0.51100000000E-03 0.  1.
         11    1    4    4    0    0 -0.65467843396E-01 -0.18974490489E-01 -0.19512690603E-01  0.70901876024E-01  0.51100000000E-03 0. -1.
</event>
<event>
 8    1  0.1521509E+005  0.1043930E+01  0.7957747E-01            NaN
         13   -1    0    0    0    0  0.00000000000E+00  0.00000000000E+00  0.74505805969E-08  0.10566000000E+00  0.10566000000E+00 0. -1.
     999900   -1    0    0    0    0 -0.00000000000E+00 -0.00000000000E+00 -0.74505805969E-08  0.93827000000E+00  0.93827000000E+00 0.  1.
     999902    2    1    2    0    0 -0.13166727851E-01  0.21041070121E-02  0.21433277368E-01  0.10186876672E+01  0.10183748759E+01 0.  0.
     999903    2    3    3    0    0  0.81223221811E-02 -0.87348603977E-02 -0.12422340013E+00  0.12639479228E+00  0.20047954310E-01 0.  0.
         14    1    1    2    0    0  0.13166727851E-01 -0.21041070121E-02 -0.21433277368E-01  0.25242332843E-01  0.00000000000E+00 0.  1.
     999901    1    3    3    0    0 -0.21289050032E-01  0.10838967410E-01  0.14565667749E+00  0.89229287488E+00  0.88000000000E+00 0. -1.
        -11    1    4    4    0    0  0.11103701446E-01  0.27475356385E-02 -0.62117082465E-01  0.63163551142E-01  0.51100000000E-03 0. -1.
         11    1    4    4    0    0 -0.29813792645E-02 -0.11482396036E-01 -0.62106317660E-01  0.63231241134E-01  0.51100000000E-03 0.  1.
</event>
<event>
 8    1  0.1123470E+005  0.1043930E+01  0.7957747E-01            NaN
         13   -1    0    0    0    0  0.00000000000E+00  0.00000000000E+00  0.74505805969E-08  0.10566000000E+00  0.10566000000E+00 0.  1.
     999900   -1    0    0    0    0 -0.00000000000E+00 -0.00000000000E+00 -0.74505805969E-08  0.93827000000E+00  0.93827000000E+00 0. -1.
     999902    2    1    2    0    0  0.27664257853E-02 -0.23539667701E-01  0.99981439519E-03  0.10202072536E+01  0.10199314054E+01 0.  0.
     999903    2    3    3    0    0  0.92282429010E-02 -0.79774395564E-01  0.10366580926E+00  0.13243227864E+00  0.18509288513E-01 0.  0.
         14    1    1    2    0    0 -0.27664257853E-02  0.23539667701E-01 -0.99981439519E-03  0.23722746383E-01  0.00000000000E+00 0. -1.
     999901    1    3    3    0    0 -0.64618171158E-02  0.56234727862E-01 -0.10266599486E+00  0.88777497498E+00  0.88000000000E+00 0. -1.
        -11    1    4    4    0    0 -0.41096078249E-02 -0.41265628680E-01  0.47878323996E-01  0.63343002901E-01  0.51100000000E-03 0. -1.
         11    1    4    4    0    0  0.13337850726E-01 -0.38508766884E-01  0.55787485263E-01  0.69089275737E-01  0.51100000000E-03 0.  1.
</event>
<event>
 8    1  0.1123470E+005  0.1043930E+01  0.7957747E-01            NaN
         13   -1    0    0    0    0  0.00000000000E+00  0.00000000000E+00  0.74505805969E-08  0.10566000000E+00  0.10566000000E+00 0.  1.
     999900   -1    0    0    0    0 -0.00000000000E+00 -0.00000000000E+00 -0.74505805969E-08  0.93827000000E+00  0.93827000000E+00 0.  1.
     999902    2    1    2    0    0  0.65183150122E-03  0.23127204839E-01  0.21779812391E-02  0.10206913234E+01  0.10204267448E+01 0.  0.
     999903    2    3    3    0    0 -0.79931556976E-01 -0.58829726080E-01 -0.80870841236E-01  0.12933969360E+00  0.18403067887E-01 0.  0.
         14    1    1    2    0    0 -0.65183150122E-03 -0.23127204839E-01 -0.21779812391E-02  0.23238676602E-01  0.00000000000E+00 0.  1.
     999901    1    3    3    0    0  0.80583388477E-01  0.81956930918E-01  0.83048822476E-01  0.89135162980E+00  0.88000000000E+00 0. -1.
        -11    1    4    4    0    0 -0.30764726148E-01 -0.12602799125E-01 -0.30588715715E-01  0.45179968690E-01  0.51100000000E-03 0.  1.
         11    1    4    4    0    0 -0.49166830828E-01 -0.46226926955E-01 -0.50282125521E-01  0.84159724912E-01  0.51100000000E-03 0. -1.
</event>
<event>
 8    1  0.1123470E+005  0.1043930E+01  0.7957747E-01            NaN
         13   -1    0    0    0    0  0.00000000000E+00  0.00000000000E+00  0.74505805969E-08  0.10566000000E+00  0.10566000000E+00 0.  1.
     999900   -1    0    0    0    0 -0.00000000000E+00 -0.00000000000E+00 -0.74505805969E-08  0.93827000000E+00  0.93827000000E+00 0. -1.
     999902    2    1    2    0    0 -0.13311688187E-01  0.16880694407E-03 -0.19643251813E-01  0.10202005483E+01  0.10199245422E+01 0.  0.
     999903    2    3    3    0    0 -0.10544454510E+00  0.38427418509E-01 -0.68927611746E-01  0.13319370904E+00  0.19857741127E-01 0.  0.
         14    1    1    2    0    0  0.13311688187E-01 -0.16880694407E-03  0.19643251813E-01  0.23729451742E-01  0.00000000000E+00 0.  1.
     999901    1    3    3    0    0  0.92132856913E-01 -0.38258611565E-01  0.49284359932E-01  0.88700683922E+00  0.88000000000E+00 0.  1.
        -11    1    4    4    0    0 -0.64550841977E-01  0.15518033298E-01 -0.33050061281E-01  0.74163253900E-01  0.51100000000E-03 0. -1.
         11    1    4    4    0    0 -0.40893703123E-01  0.22909385211E-01 -0.35877550465E-01  0.59030455142E-01  0.51100000000E-03 0.  1.
</event>
<event>
 8    1  0.1123470E+005  0.1043930E+01  0.7957747E-01            NaN
         13   -1    0    0    0    0  0.00000000000E+00  0.00000000000E+00  0.74505805969E-08  0.10566000000E+00  0.10566000000E+00 0.  1.
     999900   -1    0    0    0    0 -0.00000000000E+00 -0.00000000000E+00 -0.74505805969E-08  0.93827000000E+00  0.93827000000E+00 0. -1.
     999902    2    1    2    0    0 -0.20960630816E-01  0.65354450655E-02  0.18572960215E-02  0.10218957168E+01  0.10216581358E+01 0.  0.
     999903    2    3    3    0    0 -0.55353712625E-02  0.66442303435E-01  0.11296444393E+00  0.13275480076E+00  0.20436523977E-01 0.  0.
         14    1    1    2    0    0  0.20960630816E-01 -0.65354450655E-02 -0.18572960215E-02  0.22034283172E-01  0.00000000000E+00 0.  1.
     999901    1    3    3    0    0 -0.15425259553E-01 -0.59906858370E-01 -0.11110714790E+00  0.88914091607E+00  0.88000000000E+00 0. -1.
        -11    1    4    4    0    0  0.23834778709E-02  0.31781030841E-01  0.36706936720E-01  0.48614557619E-01  0.51100000000E-03 0. -1.
         11    1    4    4    0    0 -0.79188491334E-02  0.34661272594E-01  0.76257507206E-01  0.84140243140E-01  0.51100000000E-03 0.  1.
</event>
<event>
 8    1  0.1123470E+005  0.1043930E+01  0.7957747E-01            NaN
         13   -1    0    0    0    0  0.00000000000E+00  0.00000000000E+00  0.74505805969E-08  0.10566000000E+00  0.10566000000E+00 0. -1.
     999900   -1    0    0    0    0 -0.00000000000E+00 -0.00000000000E+00 -0.74505805969E-08  0.93827000000E+00  0.93827000000E+00 0.  1.
     999902    2    1    2    0    0 -0.93464300881E-02 -0.25008289021E-01 -0.22366607122E-01  0.10091013424E+01  0.10085001159E+01 0.  0.
     999903    2    3    3    0    0 -0.64167052954E-01 -0.10355764970E+00 -0.85924478898E-02  0.12379629317E+00  0.20250791209E-01 0.  0.
         14    1    1    2    0    0  0.93464300881E-02  0.25008289021E-01  0.22366607122E-01  0.34828657587E-01  0.00000000000E+00 0. -1.
     999901    1    3    3    0    0  0.54820622865E-01  0.78549360683E-01 -0.13774159232E-01  0.88530504924E+00  0.88000000000E+00 0.  1.
        -11    1    4    4    0    0 -0.26548107314E-01 -0.41869724050E-01  0.64328030850E-02  0.49995178473E-01  0.51100000000E-03 0.  1.
         11    1    4    4    0    0 -0.37618945639E-01 -0.61687925654E-01 -0.15025250975E-01  0.73801114696E-01  0.51100000000E-03 0. -1.
</event>
<event>
 8    1  0.1123470E+005  0.1043930E+01  0.7957747E-01            NaN
         13   -1    0    0    0    0  0.00000000000E+00  0.00000000000E+00  0.74505805969E-08  0.10566000000E+00  0.10566000000E+00 0. -1.
     999900   -1    0    0    0    0 -0.00000000000E+00 -0.00000000000E+00 -0.74505805969E-08  0.93827000000E+00  0.93827000000E+00 0.  1.
     999902    2    1    2    0    0 -0.18525848925E-01 -0.13731844461E-02  0.13001414192E-01  0.10212555764E+01  0.10210038310E+01 0.  0.
     999903    2    3    3    0    0  0.87517465012E-01 -0.84830860660E-01 -0.37465830088E-01  0.12953964020E+00  0.22830864136E-01 0.  0.
         14    1    1    2    0    0  0.18525848925E-01  0.13731844461E-02 -0.13001414192E-01  0.22674423585E-01  0.00000000000E+00 0. -1.
     999901    1    3    3    0    0 -0.10604331394E+00  0.83457676214E-01  0.50467244280E-01  0.89171593621E+00  0.88000000000E+00 0. -1.
        -11    1    4    4    0    0  0.75306024968E-01 -0.63713532109E-01 -0.36304672460E-01  0.10511280575E+00  0.51100000000E-03 0.  1.
         11    1    4    4    0    0  0.12211440044E-01 -0.21117328552E-01 -0.11611576280E-02  0.24426834448E-01  0.51100000000E-03 0. -1.
</event>
<event>
 8    1  0.1123470E+005  0.1043930E+01  0.7957747E-01            NaN
         13   -1    0    0    0    0  0.00000000000E+00  0.00000000000E+00  0.74505805969E-08  0.10566000000E+00  0.10566000000E+00 0.  1.
     999900   -1    0    0    0    0 -0.00000000000E+00 -0.00000000000E+00 -0.74505805969E-08  0.93827000000E+00  0.93827000000E+00 0.  1.
     999902    2    1    2    0    0 -0.63139993479E-02 -0.19631746915E-01 -0.11733979686E-01  0.10202032566E+01  0.10199273143E+01 0.  0.
     999903    2    3    3    0    0  0.10352640360E+00  0.71457393147E-01 -0.37736578399E-02  0.12867338478E+00  0.26809031674E-01 0.  0.
         14    1    1    2    0    0  0.63139993479E-02  0.19631746915E-01  0.11733979686E-01  0.23726743434E-01  0.00000000000E+00 0.  1.
     999901    1    3    3    0    0 -0.10984040295E+00 -0.91089140062E-01 -0.79603218466E-02  0.89152987178E+00  0.88000000000E+00 0. -1.
        -11    1    4    4    0    0  0.89817877403E-01  0.53720171934E-01 -0.10702630316E-01  0.10520416052E+00  0.51100000000E-03 0.  1.
         11    1    4    4    0    0  0.13708526202E-01  0.17737221212E-01  0.69289724763E-02  0.23469224264E-01  0.51100000000E-03 0. -1.
</event>
<event>
 8    1  0.1123470E+005  0.1043930E+01  0.7957747E-01            NaN
         13   -1    0    0    0    0  0.00000000000E+00  0.00000000000E+00  0.74505805969E-08  0.10566000000E+00  0.10566000000E+00 0. -1.
     999900   -1    0    0    0    0 -0.00000000000E+00 -0.00000000000E+00 -0.74505805969E-08  0.93827000000E+00  0.93827000000E+00 0. -1.
     999902    2    1    2    0    0 -0.13719904344E-01 -0.18285319007E-01 -0.43907829796E-03  0.10210655854E+01  0.10208095553E+01 0.  0.
     999903    2    3    3    0    0 -0.72788622020E-01  0.10434338017E+00 -0.21008819120E-01  0.13036360070E+00  0.19172204513E-01 0.  0.
         14    1    1    2    0    0  0.13719904344E-01  0.18285319007E-01  0.43907829796E-03  0.22864414625E-01  0.00000000000E+00 0. -1.
     999901    1    3    3    0    0  0.59068717676E-01 -0.12262869917E+00  0.20569740822E-01  0.89070198468E+00  0.88000000000E+00 0.  1.
        -11    1    4    4    0    0 -0.57095825839E-01  0.93496032744E-01 -0.17002127080E-01  0.11086376736E+00  0.51100000000E-03 0. -1.
         11    1    4    4    0    0 -0.15692796181E-01  0.10847347424E-01 -0.40066920408E-02  0.19499833338E-01  0.51100000000E-03 0.  1.
</event>
<event>
 8    1  0.1123470E+005  0.1043930E+01  0.7957747E-01            NaN
         13   -1    0    0    0    0  0.00000000000E+00  0.00000000000E+00  0.74505805969E-08  0.10566000000E+00  0.10566000000E+00 0. -1.
     999900   -1    0    0    0    0 -0.00000000000E+00 -0.00000000000E+00 -0.74505805969E-08  0.93827000000E+00  0.93827000000E+00 0.  1.
     999902    2    1    2    0    0 -0.17221687323E-01  0.79598421446E-02 -0.12170487667E-01  0.10213896723E+01  0.10211409288E+01 0.  0.
     999903    2    3    3    0    0  0.63640694406E-01 -0.96481606968E-01 -0.57271767038E-01  0.13038974727E+00  0.19041859799E-01 0.  0.
         14    1    1    2    0    0  0.17221687323E-01 -0.79598421446E-02  0.12170487667E-01  0.22540327666E-01  0.00000000000E+00 0. -1.
     999901    1    3    3    0    0 -0.80862381730E-01  0.10444144911E+00  0.45101279371E-01  0.89099992507E+00  0.88000000000E+00 0. -1.
        -11    1    4    4    0    0  0.47956331627E-01 -0.57123065007E-01 -0.33019839103E-01  0.81568530662E-01  0.51100000000E-03 0. -1.
         11    1    4    4    0    0  0.15684362779E-01 -0.39358541960E-01 -0.24251927935E-01  0.48821216603E-01  0.51100000000E-03 0.  1.
</event>
<event>
 8    1  0.1123470E+005  0.1043930E+01  0.7957747E-01            NaN
         13   -1    0    0    0    0  0.00000000000E+00  0.00000000000E+00  0.74505805969E-08  0.10566000000E+00  0.10566000000E+00 0. -1.
     999900   -1    0    0    0    0 -0.00000000000E+00 -0.00000000000E+00 -0.74505805969E-08  0.93827000000E+00  0.93827000000E+00 0. -1.
     999902    2    1    2    0    0 -0.60281883379E-02  0.40247103148E-02  0.22675949186E-01  0.10201237819E+01  0.10198459660E+01 0.  0.
     999903    2    3    3    0    0 -0.12812135383E+00  0.12009835522E-01 -0.14270566228E-01  0.13089065822E+00  0.19219726654E-01 0.  0.
         14    1    1    2    0    0  0.60281883379E-02 -0.40247103148E-02 -0.22675949186E-01  0.23806218080E-01  0.00000000000E+00 0.  1.
     999901    1    3    3    0    0  0.12209316549E+00 -0.79851252070E-02  0.36946515415E-01  0.88923312370E+00  0.88000000000E+00 0.  1.
        -11    1    4    4    0    0 -0.79916159410E-01  0.31985071308E-02 -0.48939450088E-03  0.79983270818E-01  0.51100000000E-03 0.  1.
         11    1    4    4    0    0 -0.48205194419E-01  0.88113283911E-02 -0.13781171728E-01  0.50907387403E-01  0.51100000000E-03 0. -1.
</event>
<event>
 8    1  0.1123470E+005  0.1043930E+01  0.7957747E-01            NaN
         13   -1    0    0    0    0  0.00000000000E+00  0.00000000000E+00  0.74505805969E-08  0.10566000000E+00  0.10566000000E+00 0. -1.
     999900   -1    0    0    0    0 -0.00000000000E+00 -0.00000000000E+00 -0.74505805969E-08  0.93827000000E+00  0.93827000000E+00 0. -1.
     999902    2    1    2    0    0  0.18358081384E-01 -0.29428972551E-02 -0.19546526509E-01  0.10169532230E+01  0.10165953528E+01 0.  0.
     999903    2    3    3    0    0  0.11420516389E+00  0.24689581566E-01  0.49823475533E-01  0.12860508504E+00  0.20112043364E-01 0.  0.
         14    1    1    2    0    0 -0.18358081384E-01  0.29428972551E-02  0.19546526509E-01  0.26976776956E-01  0.00000000000E+00 0. -1.
     999901    1    3    3    0    0 -0.95847082502E-01 -0.27632478821E-01 -0.69370002042E-01  0.88834813800E+00  0.88000000000E+00 0.  1.
        -11    1    4    4    0    0  0.59053152129E-01  0.11513827764E-01  0.36436415549E-01  0.70340006435E-01  0.51100000000E-03 0. -1.
         11    1    4    4    0    0  0.55152011756E-01  0.13175753802E-01  0.13387059984E-01  0.58265078607E-01  0.51100000000E-03 0.  1.
</event>
<event>
 8    1  0.1123470E+005  0.1043930E+01  0.7957747E-01            NaN
         13   -1    0    0    0    0  0.00000000000E+00  0.00000000000E+00  0.74505805969E-08  0.10566000000E+00  0.10566000000E+00 0.  1.
     999900   -1    0    0    0    0 -0.00000000000E+00 -0.00000000000E+00 -0.74505805969E-08  0.93827000000E+00  0.93827000000E+00 0.  1.
     999902    2    1    2    0    0 -0.44870292775E-02 -0.78872553538E-02 -0.21461370183E-01  0.10206290850E+01  0.10203630709E+01 0.  0.
     999903    2    3    3    0    0  0.83635782005E-01  0.83816309311E-01 -0.52831643243E-01  0.13093291909E+00  0.18224407679E-01 0.  0.
         14    1    1    2    0    0  0.44870292775E-02  0.78872553538E-02  0.21461370183E-01  0.23300914980E-01  0.00000000000E+00 0.  1.
     999901    1    3    3    0    0 -0.88122811283E-01 -0.91703564665E-01  0.31370273059E-01  0.88969616593E+00  0.88000000000E+00 0. -1.
        -11    1    4    4    0    0  0.59181532428E-01  0.68450855092E-01 -0.35216936038E-01  0.97100293760E-01  0.51100000000E-03 0. -1.
         11    1    4    4    0    0  0.24454249577E-01  0.15365454219E-01 -0.17614707205E-01  0.33832625329E-01  0.51100000000E-03 0.  1.
</event>
<event>
 8    1  0.1123470E+005  0.1043930E+01  0.7957747E-01            NaN
         13   -1    0    0    0    0  0.00000000000E+00  0.00000000000E+00  0.74505805969E-08  0.10566000000E+00  0.10566000000E+00 0. -1.
     999900   -1    0    0    0    0 -0.00000000000E+00 -0.00000000000E+00 -0.74505805969E-08  0.93827000000E+00  0.93827000000E+00 0.  1.
     999902    2    1    2    0    0  0.11115299711E-01  0.76327055981E-03  0.20711743326E-01  0.10204117352E+01  0.10201406768E+01 0.  0.
     999903    2    3    3    0    0 -0.21567784517E-01 -0.56749026991E-01 -0.11104329133E+00  0.12814762766E+00  0.20139030061E-01 0.  0.
         14    1    1    2    0    0 -0.11115299711E-01 -0.76327055981E-03 -0.20711743326E-01  0.23518264843E-01  0.00000000000E+00 0.  1.
     999901    1    3    3    0    0  0.32683084228E-01  0.57512297550E-01  0.13175503466E+00  0.89226410749E+00  0.88000000000E+00 0. -1.
        -11    1    4    4    0    0 -0.14254509762E-01 -0.31578240213E-01 -0.42967982251E-01  0.55198595301E-01  0.51100000000E-03 0.  1.
         11    1    4    4    0    0 -0.73132747551E-02 -0.25170786778E-01 -0.68075309084E-01  0.72949032362E-01  0.51100000000E-03 0. -1.
</event>
<event>
 8    1  0.1123470E+005  0.1043930E+01  0.7957747E-01            NaN
         13   -1    0    0    0    0  0.00000000000E+00  0.00000000000E+00  0.74505805969E-08  0.10566000000E+00  0.10566000000E+00 0. -1.
     999900   -1    0    0    0    0 -0.00000000000E+00 -0.00000000000E+00 -0.74505805969E-08  0.93827000000E+00  0.93827000000E+00 0. -1.
     999902    2    1    2    0    0 -0.16636522522E-01 -0.27415344152E-02 -0.16480801523E-01  0.10203523260E+01  0.10200798804E+01 0.  0.
     999903    2    3    3    0    0  0.25776390094E-01  0.12123089767E+00 -0.36031299940E-01  0.13043646421E+00  0.18816582661E-01 0.  0.
         14    1    1    2    0    0  0.16636522522E-01  0.27415344152E-02  0.16480801523E-01  0.23577674003E-01  0.00000000000E+00 0. -1.
     999901    1    3    3    0    0 -0.42412912616E-01 -0.12397243209E+00  0.19550498417E-01  0.88991586179E+00  0.88000000000E+00 0.  1.
        -11    1    4    4    0    0  0.94273884147E-02  0.25115631937E-01 -0.14843323707E-01  0.30663594042E-01  0.51100000000E-03 0. -1.
         11    1    4    4    0    0  0.16349001680E-01  0.96115265736E-01 -0.21187976233E-01  0.99772870166E-01  0.51100000000E-03 0.  1.
</event>
<event>
 8    1  0.1123470E+005  0.1043930E+01  0.7957747E-01            NaN
         13   -1    0    0    0    0  0.00000000000E+00  0.00000000000E+00  0.74505805969E-08  0.10566000000E+00  0.10566000000E+00 0. -1.
     999900   -1    0    0    0    0 -0.00000000000E+00 -0.00000000000E+00 -0.74505805969E-08  0.93827000000E+00  0.93827000000E+00 0. -1.
     999902    2    1    2    0    0 -0.88364174161E-02  0.91816924253E-02  0.19172522845E-01  0.10209088927E+01  0.10206493011E+01 0.  0.
     999903    2    3    3    0    0 -0.49845198527E-01 -0.62270945012E-01  0.10451567620E+00  0.13295019246E+00  0.19748739067E-01 0.  0.
         14    1    1    2    0    0  0.88364174161E-02 -0.91816924253E-02 -0.19172522845E-01  0.23021107289E-01  0.00000000000E+00 0.  1.
     999901    1    3    3    0    0  0.41008781111E-01  0.71452637437E-01 -0.85343153356E-01  0.88795870025E+00  0.88000000000E+00 0. -1.
        -11    1    4    4    0    0 -0.24915066331E-01 -0.34718351641E-01  0.40207534510E-01  0.58677350173E-01  0.51100000000E-03 0.  1.
         11    1    4    4    0    0 -0.24930132196E-01 -0.27552593371E-01  0.64308141691E-01  0.74272842288E-01  0.51100000000E-03 0. -1.
</event>
<event>
 8    1  0.1123470E+005  0.1043930E+01  0.7957747E-01            NaN
         13   -1    0    0    0    0  0.00000000000E+00  0.00000000000E+00  0.74505805969E-08  0.10566000000E+00  0.10566000000E+00 0. -1.
     999900   -1    0    0    0    0 -0.00000000000E+00 -0.00000000000E+00 -0.74505805969E-08  0.93827000000E+00  0.93827000000E+00 0. -1.
     999902    2    1    2    0    0  0.68639626353E-02 -0.23362100992E-01  0.13681554836E-02  0.10195420195E+01  0.10192502911E+01 0.  0.
     999903    2    3    3    0    0 -0.12056906720E+00 -0.25940328869E-01  0.34837219582E-01  0.12972967822E+00  0.20158296452E-01 0.  0.
         14    1    1    2    0    0 -0.68639626353E-02  0.23362100992E-01 -0.13681554836E-02  0.24387980549E-01  0.00000000000E+00 0.  1.
     999901    1    3    3    0    0  0.12743302984E+00  0.25782278767E-02 -0.33469064098E-01  0.88981234123E+00  0.88000000000E+00 0. -1.
        -11    1    4    4    0    0 -0.87357337820E-01 -0.19855443934E-01  0.34382738099E-01  0.95958204052E-01  0.51100000000E-03 0. -1.
         11    1    4    4    0    0 -0.33211729381E-01 -0.60848849350E-02  0.45448148264E-03  0.33771474170E-01  0.51100000000E-03 0.  1.
</event>
<event>
 8    1  0.1123470E+005  0.1043930E+01  0.7957747E-01            NaN
         13   -1    0    0    0    0  0.00000000000E+00  0.00000000000E+00  0.74505805969E-08  0.10566000000E+00  0.10566000000E+00 0. -1.
     999900   -1    0    0    0    0 -0.00000000000E+00 -0.00000000000E+00 -0.74505805969E-08  0.93827000000E+00  0.93827000000E+00 0.  1.
     999902    2    1    2    0    0 -0.13645027842E-01 -0.21248933679E-02  0.18444189534E-01  0.10208889478E+01  0.10206289011E+01 0.  0.
     999903    2    3    3    0    0 -0.10918314340E+00 -0.14427032216E-01  0.73390569967E-01  0.13392898321E+00  0.20535304340E-01 0.  0.
         14    1    1    2    0    0  0.13645027842E-01  0.21248933679E-02 -0.18444189534E-01  0.23041052150E-01  0.00000000000E+00 0. -1.
     999901    1    3    3    0    0  0.95538115554E-01  0.12302138848E-01 -0.54946380433E-01  0.88695996464E+00  0.88000000000E+00 0. -1.
        -11    1    4    4    0    0 -0.60545288759E-01 -0.30382310733E-02  0.50836869004E-01  0.79117704783E-01  0.51100000000E-03 0. -1.
         11    1    4    4    0    0 -0.48637854637E-01 -0.11388801142E-01  0.22553700962E-01  0.54811278431E-01  0.51100000000E-03 0.  1.
</event>
<event>
 8    1  0.1123470E+005  0.1043930E+01  0.7957747E-01            NaN
         13   -1    0    0    0    0  0.00000000000E+00  0.00000000000E+00  0.74505805969E-08  0.10566000000E+00  0.10566000000E+00 0.  1.
     999900   -1    0    0    0    0 -0.00000000000E+00 -0.00000000000E+00 -0.74505805969E-08  0.93827000000E+00  0.93827000000E+00 0. -1.
     999902    2    1    2    0    0  0.62251797233E-02 -0.61703001762E-03  0.22425062954E-01  0.10206487406E+01  0.10203831804E+01 0.  0.
     999903    2    3    3    0    0  0.68873462408E-01  0.10931449286E+00 -0.84805117025E-02  0.13106181314E+00  0.20299448548E-01 0.  0.
         14    1    1    2    0    0 -0.62251797233E-02  0.61703001762E-03 -0.22425062954E-01  0.23281259354E-01  0.00000000000E+00 0. -1.
     999901    1    3    3    0    0 -0.62648282685E-01 -0.10993152288E+00  0.30905574656E-01  0.88958692751E+00  0.88000000000E+00 0.  1.
        -11    1    4    4    0    0  0.46094141412E-01  0.55056911688E-01 -0.17213093807E-02  0.71827274932E-01  0.51100000000E-03 0.  1.
         11    1    4    4    0    0  0.22779320997E-01  0.54257581172E-01 -0.67592023219E-02  0.59234538208E-01  0.51100000000E-03 0. -1.
</event>
<event>
 8    1  0.1123470E+005  0.1043930E+01  0.7957747E-01            NaN
         13   -1    0    0    0    0  0.00000000000E+00  0.00000000000E+00  0.74505805969E-08  0.10566000000E+00  0.10566000000E+00 0. -1.
     999900   -1    0    0    0    0 -0.00000000000E+00 -0.00000000000E+00 -0.74505805969E-08  0.93827000000E+00  0.93827000000E+00 0.  1.
     999902    2    1    2    0    0  0.13748676957E-01  0.73494882417E-02  0.11787199425E-01  0.10243857127E+01  0.10241992527E+01 0.  0.
     999903    2    3    3    0    0 -0.91589648943E-01  0.63554960288E-01 -0.69074025097E-01  0.13264934156E+00  0.19918084830E-01 0.  0.
         14    1    1    2    0    0 -0.13748676957E-01 -0.73494882417E-02 -0.11787199425E-01  0.19544287292E-01  0.00000000000E+00 0.  1.
     999901    1    3    3    0    0  0.10533832590E+00 -0.56205472046E-01  0.80861224522E-01  0.89173637114E+00  0.88000000000E+00 0. -1.
        -11    1    4    4    0    0 -0.50555181810E-01  0.23615727714E-01 -0.30354232956E-01  0.63522984680E-01  0.51100000000E-03 0. -1.
         11    1    4    4    0    0 -0.41034467133E-01  0.39939232574E-01 -0.38719792140E-01  0.69126356883E-01  0.51100000000E-03 0.  1.
</event>
<event>
 8    1  0.1123470E+005  0.1043930E+01  0.7957747E-01            NaN
         13   -1    0    0    0    0  0.00000000000E+00  0.00000000000E+00  0.74505805969E-08  0.10566000000E+00  0.10566000000E+00 0. -1.
     999900   -1    0    0    0    0 -0.00000000000E+00 -0.00000000000E+00 -0.74505805969E-08  0.93827000000E+00  0.93827000000E+00 0. -1.
     999902    2    1    2    0    0  0.73173104472E-02  0.17632083951E-01 -0.49035436779E-02  0.10242201508E+01  0.10240304874E+01 0.  0.
     999903    2    3    3    0    0  0.12152921553E+00  0.43878403869E-01  0.35874662809E-01  0.13551542437E+00  0.19564617476E-01 0.  0.
         14    1    1    2    0    0 -0.73173104472E-02 -0.17632083951E-01  0.49035436779E-02  0.19709849244E-01  0.00000000000E+00 0. -1.
     999901    1    3    3    0    0 -0.11421190509E+00 -0.26246319918E-01 -0.40778206487E-01  0.88870472638E+00  0.88000000000E+00 0. -1.
        -11    1    4    4    0    0  0.24141779011E-01  0.19531141985E-02  0.11002972643E-01  0.26607643204E-01  0.51100000000E-03 0. -1.
         11    1    4    4    0    0  0.97387436522E-01  0.41925289670E-01  0.24871690166E-01  0.10890778117E+00  0.51100000000E-03 0.  1.
</event>
<event>
 8    1  0.1123470E+005  0.1043930E+01  0.7957747E-01            NaN
         13   -1    0    0    0    0  0.00000000000E+00  0.00000000000E+00  0.74505805969E-08  0.10566000000E+00  0.10566000000E+00 0.  1.
     999900   -1    0    0    0    0 -0.00000000000E+00 -0.00000000000E+00 -0.74505805969E-08  0.93827000000E+00  0.93827000000E+00 0. -1.
     999902    2    1    2    0    0 -0.21846274875E-01  0.56902900572E-02 -0.63387657336E-02  0.10204817788E+01  0.10202123513E+01 0.  0.
     999903    2    3    3    0    0 -0.13103210993E+00 -0.15808821664E-01  0.63994295595E-03  0.13344600682E+00  0.19700115106E-01 0.  0.
         14    1    1    2    0    0  0.21846274875E-01 -0.56902900572E-02  0.63387657336E-02  0.23448221209E-01  0.00000000000E+00 0. -1.
     999901    1    3    3    0    0  0.10918583505E+00  0.21499111721E-01 -0.69787086896E-02  0.88703577197E+00  0.88000000000E+00 0.  1.
        -11    1    4    4    0    0 -0.77713233064E-01 -0.60932026181E-02 -0.87373531508E-02  0.78441546214E-01  0.51100000000E-03 0.  1.
         11    1    4    4    0    0 -0.53318876862E-01 -0.97156190455E-02  0.93772961068E-02  0.55004460606E-01  0.51100000000E-03 0. -1.
</event>
<event>
 8    1  0.1123470E+005  0.1043930E+01  0.7957747E-01            NaN
         13   -1    0    0    0    0  0.00000000000E+00  0.00000000000E+00  0.74505805969E-08  0.10566000000E+00  0.10566000000E+00 0.  1.
     999900   -1    0    0    0    0 -0.00000000000E+00 -0.00000000000E+00 -0.74505805969E-08  0.93827000000E+00  0.93827000000E+00 0. -1.
     999902    2    1    2    0    0  0.24216597991E-02 -0.13824124647E-01  0.18601491217E-01  0.10206279328E+01  0.10203618922E+01 0.  0.
     999903    2    3    3    0    0 -0.57767026752E-01  0.55540765107E-01 -0.98117504806E-01  0.12818326231E+00  0.19547327679E-01 0.  0.
         14    1    1    2    0    0 -0.24216597991E-02  0.13824124647E-01 -0.18601491217E-01  0.23302067160E-01  0.00000000000E+00 0. -1.
     999901    1    3    3    0    0  0.60188686551E-01 -0.69364889753E-01  0.11671899602E+00  0.89244467053E+00  0.88000000000E+00 0. -1.
        -11    1    4    4    0    0 -0.42468853528E-01  0.51303285442E-01 -0.79455728542E-01  0.10367788837E+00  0.51100000000E-03 0. -1.
         11    1    4    4    0    0 -0.15298173224E-01  0.42374796652E-02 -0.18661776264E-01  0.24505373946E-01  0.51100000000E-03 0.  1.
</event>
<event>
 8    1  0.1123470E+005  0.1043930E+01  0.7957747E-01            NaN
         13   -1    0    0    0    0  0.00000000000E+00  0.00000000000E+00  0.74505805969E-08  0.10566000000E+00  0.10566000000E+00 0. -1.
     999900   -1    0    0    0    0 -0.00000000000E+00 -0.00000000000E+00 -0.74505805969E-08  0.93827000000E+00  0.93827000000E+00 0.  1.
     999902    2    1    2    0    0 -0.16315204265E-01  0.18522151455E-01  0.10428328835E-01  0.10171343655E+01  0.10167813489E+01 0.  0.
     999903    2    3    3    0    0 -0.46503496000E-01  0.66829142062E-01 -0.97609140040E-01  0.12869922834E+00  0.20180133475E-01 0.  0.
         14    1    1    2    0    0  0.16315204265E-01 -0.18522151455E-01 -0.10428328835E-01  0.26795634477E-01  0.00000000000E+00 0. -1.
     999901    1    3    3    0    0  0.30188291735E-01 -0.48306990607E-01  0.10803746887E+00  0.88843513718E+00  0.88000000000E+00 0. -1.
        -11    1    4    4    0    0 -0.40072626492E-01  0.56990225520E-01 -0.92672328931E-01  0.11594016935E+00  0.51100000000E-03 0. -1.
         11    1    4    4    0    0 -0.64308695081E-02  0.98389165417E-02 -0.49368111086E-02  0.12759058988E-01  0.51100000000E-03 0.  1.
</event>
<event>
 8    1  0.1123470E+005  0.1043930E+01  0.7957747E-01            NaN
         13   -1    0    0    0    0  0.00000000000E+00  0.00000000000E+00  0.74505805969E-08  0.10566000000E+00  0.10566000000E+00 0. -1.
     999900   -1    0    0    0    0 -0.00000000000E+00 -0.00000000000E+00 -0.74505805969E-08  0.93827000000E+00  0.93827000000E+00 0. -1.
     999902    2    1    2    0    0  0.16617097621E-01  0.16607311729E-01 -0.34337378556E-02  0.10201871844E+01  0.10199108637E+01 0.  0.
     999903    2    3    3    0    0  0.18899082580E-01 -0.10345562538E+00 -0.72621870150E-01  0.12934078128E+00  0.19871082860E-01 0.  0.
         14    1    1    2    0    0 -0.16617097621E-01 -0.16607311729E-01  0.34337378556E-02  0.23742815584E-01  0.00000000000E+00 0.  1.
     999901    1    3    3    0    0 -0.22819849589E-02  0.12006293711E+00  0.69188132295E-01  0.89084640313E+00  0.88000000000E+00 0.  1.
        -11    1    4    4    0    0  0.71662117309E-02 -0.19519231065E-01 -0.63329699710E-02  0.21742184839E-01  0.51100000000E-03 0. -1.
         11    1    4    4    0    0  0.11732870849E-01 -0.83936394315E-01 -0.66288900179E-01  0.10759859645E+00  0.51100000000E-03 0.  1.
</event>
<event>
 8    1  0.1123470E+005  0.1043930E+01  0.7957747E-01            NaN
         13   -1    0    0    0    0  0.00000000000E+00  0.00000000000E+00  0.74505805969E-08  0.10566000000E+00  0.10566000000E+00 0.  1.
     999900   -1    0    0    0    0 -0.00000000000E+00 -0.00000000000E+00 -0.74505805969E-08  0.93827000000E+00  0.93827000000E+00 0.  1.
     999902    2    1    2    0    0 -0.98274114133E-02 -0.10090404805E-01 -0.19288601124E-01  0.10200460217E+01  0.10197663664E+01 0.  0.
     999903    2    3    3    0    0  0.54073497738E-01  0.11194361886E+00 -0.29505152366E-01  0.12927107427E+00  0.19624975539E-01 0.  0.
         14    1    1    2    0    0  0.98274114133E-02  0.10090404805E-01  0.19288601124E-01  0.23883978260E-01  0.00000000000E+00 0.  1.
     999901    1    3    3    0    0 -0.63900909151E-01 -0.12203402367E+00  0.10216551242E-01  0.89077494747E+00  0.88000000000E+00 0. -1.
        -11    1    4    4    0    0  0.36962459293E-01  0.56348679088E-01 -0.11410860339E-01  0.68351048907E-01  0.51100000000E-03 0. -1.
         11    1    4    4    0    0  0.17111038444E-01  0.55594939774E-01 -0.18094292028E-01  0.60920025362E-01  0.51100000000E-03 0.  1.
</event>
<event>
 7    1  0.1123470E+005  0.1043930E+01  0.7957747E-01            NaN
         13   -1    0    0    0    0  0.00000000000E+00  0.00000000000E+00  0.74505805969E-08  0.10566000000E+00  0.10566000000E+00 0. -1.
     999900   -1    0    0    0    0 -0.00000000000E+00 -0.00000000000E+00 -0.74505805969E-08  0.93827000000E+00  0.93827000000E+00 0. -1.
     999903    2    1    2    0    0 -0.37698346704E-01 -0.14267172750E-01 -0.64708234955E-01  0.78338083352E-01  0.18027259078E-01 0.  0.
         14    1    1    2    0    0 -0.45354115529E-02 -0.35331977282E-01 -0.64589646477E-01  0.73761378842E-01  0.00000000000E+00 0.  1.
     999901    1    1    2    0    0  0.42233758257E-01  0.49599150032E-01  0.12929788143E+00  0.89183053781E+00  0.88000000000E+00 0.  1.
        -11    1    3    3    0    0 -0.36673207538E-01 -0.91148158727E-02 -0.49754616555E-01  0.62480292966E-01  0.51100000000E-03 0.  1.
         11    1    3    3    0    0 -0.10251391657E-02 -0.51523568770E-02 -0.14953618400E-01  0.15857790386E-01  0.51100000000E-03 0. -1.
</event>
<event>
 8    1  0.1123470E+005  0.1043930E+01  0.7957747E-01            NaN
         13   -1    0    0    0    0  0.00000000000E+00  0.00000000000E+00  0.74505805969E-08  0.10566000000E+00  0.10566000000E+00 0.  1.
     999900   -1    0    0    0    0 -0.00000000000E+00 -0.00000000000E+00 -0.74505805969E-08  0.93827000000E+00  0.93827000000E+00 0.  1.
     999902    2    1    2    0    0 -0.19478025575E-01  0.33893266315E-02 -0.11963222224E-01  0.10208215664E+01  0.10205599790E+01 0.  0.
     999903    2    3    3    0    0  0.19801320959E-01  0.10378097232E+00  0.73411460823E-01  0.13014194610E+00  0.19623991161E-01 0.  0.
         14    1    1    2    0    0  0.19478025575E-01 -0.33893266315E-02  0.11963222224E-01  0.23108433553E-01  0.00000000000E+00 0.  1.
     999901    1    3    3    0    0 -0.39279346534E-01 -0.10039164568E+00 -0.85374683047E-01  0.89067962034E+00  0.88000000000E+00 0.  1.
        -11    1    4    4    0    0  0.18497015111E-02  0.61272287801E-01  0.42812216095E-01  0.74772064409E-01  0.51100000000E-03 0.  1.
         11    1    4    4    0    0  0.17951619448E-01  0.42508684515E-01  0.30599244728E-01  0.55369881695E-01  0.51100000000E-03 0. -1.
</event>
<event>
 8    1  0.1123470E+005  0.1043930E+01  0.7957747E-01            NaN
         13   -1    0    0    0    0  0.00000000000E+00  0.00000000000E+00  0.74505805969E-08  0.10566000000E+00  0.10566000000E+00 0.  1.
     999900   -1    0    0    0    0 -0.00000000000E+00 -0.00000000000E+00 -0.74505805969E-08  0.93827000000E+00  0.93827000000E+00 0.  1.
     999902    2    1    2    0    0 -0.32503329152E-02 -0.58839249221E-02 -0.22624989569E-01  0.10203275554E+01  0.10200545304E+01 0.  0.
     999903    2    3    3    0    0  0.61227850534E-02 -0.61321871148E-02 -0.13168373649E+00  0.13354588712E+00  0.20464732939E-01 0.  0.
         14    1    1    2    0    0  0.32503329152E-02  0.58839249221E-02  0.22624989569E-01  0.23602444568E-01  0.00000000000E+00 0.  1.
     999901    1    3    3    0    0 -0.93731179686E-02  0.24826219267E-03  0.10905874692E+00  0.88678166831E+00  0.88000000000E+00 0. -1.
        -11    1    4    4    0    0  0.13830243840E-02 -0.10800792800E-01 -0.11587569557E+00  0.11638731815E+00  0.51100000000E-03 0. -1.
         11    1    4    4    0    0  0.47397606694E-02  0.46686056851E-02 -0.15808040926E-01  0.17158568972E-01  0.51100000000E-03 0.  1.
</event>
<event>
 8    1  0.1123470E+005  0.1043930E+01  0.7957747E-01            NaN
         13   -1    0    0    0    0  0.00000000000E+00  0.00000000000E+00  0.74505805969E-08  0.10566000000E+00  0.10566000000E+00 0. -1.
     999900   -1    0    0    0    0 -0.00000000000E+00 -0.00000000000E+00 -0.74505805969E-08  0.93827000000E+00  0.93827000000E+00 0.  1.
     999902    2    1    2    0    0 -0.16217541997E-01 -0.23803382271E-02 -0.18874591932E-01  0.10189315021E+01  0.10186247989E+01 0.  0.
     999903    2    3    3    0    0 -0.29586154115E-01  0.92707022565E-01  0.79483816411E-01  0.12826057379E+00  0.25751993524E-01 0.  0.
         14    1    1    2    0    0  0.16217541997E-01  0.23803382271E-02  0.18874591932E-01  0.24998497937E-01  0.00000000000E+00 0. -1.
     999901    1    3    3    0    0  0.13368612117E-01 -0.95087360792E-01 -0.98358408343E-01  0.89067092827E+00  0.88000000000E+00 0.  1.
        -11    1    4    4    0    0 -0.15657274228E-01  0.80629827665E-01  0.66884258070E-01  0.10592490002E+00  0.51100000000E-03 0. -1.
         11    1    4    4    0    0 -0.13928879887E-01  0.12077194899E-01  0.12599558341E-01  0.22335673774E-01  0.51100000000E-03 0.  1.
</event>
<event>
 8    1  0.1123470E+005  0.1043930E+01  0.7957747E-01            NaN
         13   -1    0    0    0    0  0.00000000000E+00  0.00000000000E+00  0.74505805969E-08  0.10566000000E+00  0.10566000000E+00 0.  1.
     999900   -1    0    0    0    0 -0.00000000000E+00 -0.00000000000E+00 -0.74505805969E-08  0.93827000000E+00  0.93827000000E+00 0.  1.
     999902    2    1    2    0    0  0.12262299646E-01  0.11561904188E-01 -0.17403835178E-01  0.10197032565E+01  0.10194154189E+01 0.  0.
     999903    2    3    3    0    0  0.12121583410E+00 -0.10814561106E-01  0.43035351482E-01  0.13064506148E+00  0.20145903928E-01 0.  0.
         14    1    1    2    0    0 -0.12262299646E-01 -0.11561904188E-01  0.17403835178E-01  0.24226743486E-01  0.00000000000E+00 0.  1.
     999901    1    3    3    0    0 -0.10895353445E+00  0.22376465294E-01 -0.60439186660E-01  0.88905819503E+00  0.88000000000E+00 0.  1.
        -11    1    4    4    0    0  0.28389348615E-01  0.58052821433E-02  0.11971892829E-01  0.31356717852E-01  0.51100000000E-03 0.  1.
         11    1    4    4    0    0  0.92826485481E-01 -0.16619843249E-01  0.31063458654E-01  0.99288343631E-01  0.51100000000E-03 0. -1.
</event>
<event>
 8    1  0.1123470E+005  0.1043930E+01  0.7957747E-01            NaN
         13   -1    0    0    0    0  0.00000000000E+00  0.00000000000E+00  0.74505805969E-08  0.10566000000E+00  0.10566000000E+00 0. -1.
     999900   -1    0    0    0    0 -0.00000000000E+00 -0.00000000000E+00 -0.74505805969E-08  0.93827000000E+00  0.93827000000E+00 0.  1.
     999902    2    1    2    0    0  0.53629890695E-03  0.13267517795E-02  0.22921503932E-01  0.10209638678E+01  0.10207055286E+01 0.  0.
     999903    2    3    3    0    0 -0.79841869015E-01  0.15344917297E-01 -0.98147853483E-01  0.12893530985E+00  0.19522357680E-01 0.  0.
         14    1    1    2    0    0 -0.53629890695E-03 -0.13267517795E-02 -0.22921503932E-01  0.22966132224E-01  0.00000000000E+00 0.  1.
     999901    1    3    3    0    0  0.80378167922E-01 -0.14018165517E-01  0.12106935741E+00  0.89202855792E+00  0.88000000000E+00 0. -1.
        -11    1    4    4    0    0 -0.25523103341E-01  0.45250152890E-03 -0.43600465539E-01  0.50526184084E-01  0.51100000000E-03 0. -1.
         11    1    4    4    0    0 -0.54318765674E-01  0.14892415768E-01 -0.54547387943E-01  0.78409125771E-01  0.51100000000E-03 0.  1.
</event>
<event>
 8    1  0.1123470E+005  0.1043930E+01  0.7957747E-01            NaN
         13   -1    0    0    0    0  0.00000000000E+00  0.00000000000E+00  0.74505805969E-08  0.10566000000E+00  0.10566000000E+00 0.  1.
     999900   -1    0    0    0    0 -0.00000000000E+00 -0.00000000000E+00 -0.74505805969E-08  0.93827000000E+00  0.93827000000E+00 0.  1.
     999902    2    1    2    0    0  0.21988557263E-01 -0.96032425320E-03 -0.61715519185E-03  0.10219118313E+01  0.10216746014E+01 0.  0.
     999903    2    3    3    0    0  0.23285974331E-01 -0.12880401628E+00  0.32570805474E-02  0.13266456388E+00  0.21367422080E-01 0.  0.
         14    1    1    2    0    0 -0.21988557263E-01  0.96032425320E-03  0.61715519185E-03  0.22018168718E-01  0.00000000000E+00 0. -1.
     999901    1    3    3    0    0 -0.12974170686E-02  0.12784369202E+00 -0.38742357393E-02  0.88924726740E+00  0.88000000000E+00 0.  1.
        -11    1    4    4    0    0  0.16103799091E-01 -0.12073158436E+00  0.26580693725E-02  0.12183092490E+00  0.51100000000E-03 0. -1.
         11    1    4    4    0    0  0.71821752399E-02 -0.80724319109E-02  0.59901117493E-03  0.10833638979E-01  0.51100000000E-03 0.  1.
</event>
<event>
 8    1  0.1123470E+005  0.1043930E+01  0.7957747E-01            NaN
         13   -1    0    0    0    0  0.00000000000E+00  0.00000000000E+00  0.74505805969E-08  0.10566000000E+00  0.10566000000E+00 0.  1.
     999900   -1    0    0    0    0 -0.00000000000E+00 -0.00000000000E+00 -0.74505805969E-08  0.93827000000E+00  0.93827000000E+00 0.  1.
     999902    2    1    2    0    0  0.10057738219E-01 -0.13064075766E-01  0.12430053956E-01  0.10232821329E+01  0.10230737946E+01 0.  0.
     999903    2    3    3    0    0  0.62340729673E-01 -0.94543713647E-01  0.71455375145E-01  0.13600741158E+00  0.23817325652E-01 0.  0.
         14    1    1    2    0    0 -0.10057738219E-01  0.13064075766E-01 -0.12430053956E-01  0.20647867082E-01  0.00000000000E+00 0. -1.
     999901    1    3    3    0    0 -0.52282991454E-01  0.81479637881E-01 -0.59025321189E-01  0.88727472134E+00  0.88000000000E+00 0.  1.
        -11    1    4    4    0    0  0.17509440266E-01 -0.44335787256E-01  0.22128822948E-01  0.52556526294E-01  0.51100000000E-03 0. -1.
         11    1    4    4    0    0  0.44831289406E-01 -0.50207926391E-01  0.49326552196E-01  0.83450885285E-01  0.51100000000E-03 0.  1.
</event>
<event>
 8    1  0.1123470E+005  0.1043930E+01  0.7957747E-01            NaN
         13   -1    0    0    0    0  0.00000000000E+00  0.00000000000E+00  0.74505805969E-08  0.10566000000E+00  0.10566000000E+00 0. -1.
     999900   -1    0    0    0    0 -0.00000000000E+00 -0.00000000000E+00 -0.74505805969E-08  0.93827000000E+00  0.93827000000E+00 0. -1.
     999902    2    1    2    0    0  0.64109157396E-02  0.12628232473E-01 -0.21367056838E-01  0.10182955854E+01  0.10179728758E+01 0.  0.
     999903    2    3    3    0    0  0.10832689151E+00  0.67165694563E-01  0.15742280609E-01  0.12996101786E+00  0.19902281622E-01 0.  0.
         14    1    1    2    0    0 -0.64109157396E-02 -0.12628232473E-01  0.21367056838E-01  0.25634414640E-01  0.00000000000E+00 0. -1.
     999901    1    3    3    0    0 -0.10191597577E+00 -0.54537462090E-01 -0.37109337446E-01  0.88833456750E+00  0.88000000000E+00 0. -1.
        -11    1    4    4    0    0  0.73126864003E-01  0.45331096627E-01  0.11685049214E-02  0.86046923740E-01  0.51100000000E-03 0. -1.
         11    1    4    4    0    0  0.35200027509E-01  0.21834597936E-01  0.14573775687E-01  0.43914094121E-01  0.51100000000E-03 0.  1.
</event>
<event>
 8    1  0.1123470E+005  0.1043930E+01  0.7957747E-01            NaN
         13   -1    0    0    0    0  0.00000000000E+00  0.00000000000E+00  0.74505805969E-08  0.10566000000E+00  0.10566000000E+00 0.  1.
     999900   -1    0    0    0    0 -0.00000000000E+00 -0.00000000000E+00 -0.74505805969E-08  0.93827000000E+00  0.93827000000E+00 0.  1.
     999902    2    1    2    0    0 -0.22767456614E-01 -0.40405239559E-03  0.77224028489E-02  0.10198851285E+01  0.10196016475E+01 0.  0.
     999903    2    3    3    0    0 -0.41053455060E-01  0.12255299671E+00  0.88451191777E-02  0.13114778028E+00  0.20417663026E-01 0.  0.
         14    1    1    2    0    0  0.22767456614E-01  0.40405239559E-03 -0.77224028489E-02  0.24044871485E-01  0.00000000000E+00 0. -1.
     999901    1    3    3    0    0  0.18285998447E-01 -0.12295704910E+00 -0.11227163288E-02  0.88873734824E+00  0.88000000000E+00 0.  1.
        -11    1    4    4    0    0 -0.38144684438E-01  0.85427612588E-01  0.79317149042E-02  0.93893914423E-01  0.51100000000E-03 0. -1.
         11    1    4    4    0    0 -0.29087706222E-02  0.37125384120E-01  0.91340427344E-03  0.37253865852E-01  0.51100000000E-03 0.  1.
</event>
<event>
 8    1  0.1123470E+005  0.1043930E+01  0.7957747E-01            NaN
         13   -1    0    0    0    0  0.00000000000E+00  0.00000000000E+00  0.74505805969E-08  0.10566000000E+00  0.10566000000E+00 0. -1.
     999900   -1    0    0    0    0 -0.00000000000E+00 -0.00000000000E+00 -0.74505805969E-08  0.93827000000E+00  0.93827000000E+00 0.  1.
     999902    2    1    2    0    0  0.23121327151E-01  0.37721741838E-02  0.14582727608E-02  0.10204576412E+01  0.10201876523E+01 0.  0.
     999903    2    3    3    0    0 -0.11207663632E-01  0.12875198031E+00 -0.29576605640E-02  0.13095332307E+00  0.20912697312E-01 0.  0.
         14    1    1    2    0    0 -0.23121327151E-01 -0.37721741837E-02 -0.14582727608E-02  0.23472358781E-01  0.00000000000E+00 0. -1.
     999901    1    3    3    0    0  0.34328990783E-01 -0.12497980612E+00  0.44159333248E-02  0.88950431815E+00  0.88000000000E+00 0.  1.
        -11    1    4    4    0    0 -0.13763771969E-01  0.70361378570E-01  0.54470142518E-02  0.71903380298E-01  0.51100000000E-03 0.  1.
         11    1    4    4    0    0  0.25561083375E-02  0.58390601737E-01 -0.84046748158E-02  0.59049942767E-01  0.51100000000E-03 0. -1.
</event>
<event>
 8    1  0.1123470E+005  0.1043930E+01  0.7957747E-01            NaN
         13   -1    0    0    0    0  0.00000000000E+00  0.00000000000E+00  0.74505805969E-08  0.10566000000E+00  0.10566000000E+00 0.  1.
     999900   -1    0    0    0    0 -0.00000000000E+00 -0.00000000000E+00 -0.74505805969E-08  0.93827000000E+00  0.93827000000E+00 0. -1.
     999902    2    1    2    0    0 -0.44118321752E-02  0.21655057876E-01 -0.60863632658E-02  0.10210073123E+01  0.10207499606E+01 0.  0.
     999903    2    3    3    0    0  0.57255755045E-01 -0.95942686068E-01  0.60465499455E-01  0.12856052331E+00  0.19710683264E-01 0.  0.
         14    1    1    2    0    0  0.44118321752E-02 -0.21655057876E-01  0.60863632658E-02  0.22922687725E-01  0.00000000000E+00 0.  1.
     999901    1    3    3    0    0 -0.61667587220E-01  0.11759774394E+00 -0.66551862721E-01  0.89244678896E+00  0.88000000000E+00 0.  1.
        -11    1    4    4    0    0  0.36373270891E-01 -0.76837687527E-01  0.48012152223E-01  0.97634384014E-01  0.51100000000E-03 0.  1.
         11    1    4    4    0    0  0.20882484154E-01 -0.19104998541E-01  0.12453347232E-01  0.30926139300E-01  0.51100000000E-03 0. -1.
</event>
<event>
 8    1  0.1123470E+005  0.1043930E+01  0.7957747E-01            NaN
         13   -1    0    0    0    0  0.00000000000E+00  0.00000000000E+00  0.74505805969E-08  0.10566000000E+00  0.10566000000E+00 0.  1.
     999900   -1    0    0    0    0 -0.00000000000E+00 -0.00000000000E+00 -0.74505805969E-08  0.93827000000E+00  0.93827000000E+00 0. -1.
     999902    2    1    2    0    0 -0.13387957341E-01  0.18025748961E-01 -0.48486154246E-02  0.10209588420E+01  0.10207003885E+01 0.  0.
     999903    2    3    3    0    0  0.79729993607E-01 -0.23049663863E-01  0.97323390098E-01  0.12922050538E+00  0.18383086382E-01 0.  0.
         14    1    1    2    0    0  0.13387957341E-01 -0.18025748961E-01  0.48486154246E-02  0.22971157979E-01  0.00000000000E+00 0.  1.
     999901    1    3    3    0    0 -0.93117950948E-01  0.41075412823E-01 -0.10217200552E+00  0.89173833664E+00  0.88000000000E+00 0.  1.
        -11    1    4    4    0    0  0.47802558108E-01 -0.17626040995E-01  0.71502549774E-01  0.87798847532E-01  0.51100000000E-03 0. -1.
         11    1    4    4    0    0  0.31927435499E-01 -0.54236228673E-02  0.25820840325E-01  0.41421657845E-01  0.51100000000E-03 0.  1.
</event>
<event>
 8    1  0.1219530E+005  0.1043930E+01  0.7957747E-01            NaN
         13   -1    0    0    0    0  0.00000000000E+00  0.00000000000E+00  0.74505805969E-08  0.10566000000E+00  0.10566000000E+00 0.  1.
     999900   -1    0    0    0    0 -0.00000000000E+00 -0.00000000000E+00 -0.74505805969E-08  0.93827000000E+00  0.93827000000E+00 0.  1.
     999902    2    1    2    0    0 -0.20571066025E-01 -0.10702315967E-01 -0.65287614048E-02  0.10198398973E+01  0.10195553359E+01 0.  0.
     999903    2    3    3    0    0 -0.10496897052E+00  0.76163657586E-01  0.61183724422E-02  0.13145447773E+00  0.20578088444E-01 0.  0.
         14    1    1    2    0    0  0.20571066025E-01  0.10702315967E-01  0.65287614048E-02  0.24090102738E-01  0.00000000000E+00 0. -1.
     999901    1    3    3    0    0  0.84397904498E-01 -0.86865973552E-01 -0.12647133847E-01  0.88838541953E+00  0.88000000000E+00 0.  1.
        -11    1    4    4    0    0 -0.60494628244E-01  0.40601942536E-01  0.13282484038E-01  0.74059457785E-01  0.51100000000E-03 0.  1.
         11    1    4    4    0    0 -0.44474342279E-01  0.35561715050E-01 -0.71641115961E-02  0.57395019944E-01  0.51100000000E-03 0. -1.
</event>
<event>
 8    1  0.1123470E+005  0.1043930E+01  0.7957747E-01            NaN
         13   -1    0    0    0    0  0.00000000000E+00  0.00000000000E+00  0.74505805969E-08  0.10566000000E+00  0.10566000000E+00 0. -1.
     999900   -1    0    0    0    0 -0.00000000000E+00 -0.00000000000E+00 -0.74505805969E-08  0.93827000000E+00  0.93827000000E+00 0. -1.
     999902    2    1    2    0    0 -0.10445807778E-01 -0.21321106775E-01  0.27603998566E-02  0.10200276089E+01  0.10197475171E+01 0.  0.
     999903    2    3    3    0    0  0.59175361431E-01  0.32530053034E-01 -0.10778355111E+00  0.12875491227E+00  0.20015139114E-01 0.  0.
         14    1    1    2    0    0  0.10445807778E-01  0.21321106775E-01 -0.27603998566E-02  0.23902391127E-01  0.00000000000E+00 0.  1.
     999901    1    3    3    0    0 -0.69621169209E-01 -0.53851159809E-01  0.11054395096E+00  0.89127269660E+00  0.88000000000E+00 0.  1.
        -11    1    4    4    0    0  0.44492814172E-01  0.14477519159E-01 -0.65630305583E-01  0.80602774182E-01  0.51100000000E-03 0.  1.
         11    1    4    4    0    0  0.14682547259E-01  0.18052533875E-01 -0.42153245523E-01  0.48152138088E-01  0.51100000000E-03 0. -1.
</event>
<event>
 8    1  0.1123470E+005  0.1043930E+01  0.7957747E-01            NaN
         13   -1    0    0    0    0  0.00000000000E+00  0.00000000000E+00  0.74505805969E-08  0.10566000000E+00  0.10566000000E+00 0.  1.
     999900   -1    0    0    0    0 -0.00000000000E+00 -0.00000000000E+00 -0.74505805969E-08  0.93827000000E+00  0.93827000000E+00 0.  1.
     999902    2    1    2    0    0 -0.95593254956E-02  0.13719236046E-01 -0.16203218976E-01  0.10206460474E+01  0.10203804250E+01 0.  0.
     999903    2    3    3    0    0 -0.87622753520E-01  0.69718740332E-01  0.66171600557E-01  0.13159292520E+00  0.19989185928E-01 0.  0.
         14    1    1    2    0    0  0.95593254956E-02 -0.13719236046E-01  0.16203218976E-01  0.23283952560E-01  0.00000000000E+00 0.  1.
     999901    1    3    3    0    0  0.78063428024E-01 -0.55999504286E-01 -0.82374819533E-01  0.88905312224E+00  0.88000000000E+00 0. -1.
        -11    1    4    4    0    0 -0.22006990063E-01  0.15246553112E-01  0.26002012087E-01  0.37324666737E-01  0.51100000000E-03 0. -1.
         11    1    4    4    0    0 -0.65615763456E-01  0.54472187220E-01  0.40169588471E-01  0.94268258462E-01  0.51100000000E-03 0.  1.
</event>
<event>
 8    1  0.1123470E+005  0.1043930E+01  0.7957747E-01            NaN
         13   -1    0    0    0    0  0.00000000000E+00  0.00000000000E+00  0.74505805969E-08  0.10566000000E+00  0.10566000000E+00 0.  1.
     999900   -1    0    0    0    0 -0.00000000000E+00 -0.00000000000E+00 -0.74505805969E-08  0.93827000000E+00  0.93827000000E+00 0.  1.
     999902    2    1    2    0    0 -0.19644168817E-01 -0.35567214324E-02  0.90339872003E-02  0.10220175250E+01  0.10217825918E+01 0.  0.
     999903    2    3    3    0    0  0.78018493759E-01  0.50269969214E-01  0.90410874420E-01  0.13125520762E+00  0.20972556866E-01 0.  0.
         14    1    1    2    0    0  0.19644168817E-01  0.35567214324E-02 -0.90339872003E-02  0.21912474999E-01  0.00000000000E+00 0. -1.
     999901    1    3    3    0    0 -0.97662662576E-01 -0.53826690646E-01 -0.81376887220E-01  0.89076231738E+00  0.88000000000E+00 0.  1.
        -11    1    4    4    0    0  0.27603169825E-01  0.22812880332E-01  0.22351575737E-01  0.42216306712E-01  0.51100000000E-03 0.  1.
         11    1    4    4    0    0  0.50415323934E-01  0.27457088882E-01  0.68059298683E-01  0.89038900911E-01  0.51100000000E-03 0. -1.
</event>
<event>
 8    1  0.1123470E+005  0.1043930E+01  0.7957747E-01            NaN
         13   -1    0    0    0    0  0.00000000000E+00  0.00000000000E+00  0.74505805969E-08  0.10566000000E+00  0.10566000000E+00 0.  1.
     999900   -1    0    0    0    0 -0.00000000000E+00 -0.00000000000E+00 -0.74505805969E-08  0.93827000000E+00  0.93827000000E+00 0. -1.
     999902    2    1    2    0    0 -0.19419946947E-01 -0.10698652489E-01  0.81533071430E-02  0.10203064541E+01  0.10200329349E+01 0.  0.
     999903    2    3    3    0    0  0.47970913194E-01  0.21911699026E-01  0.11740779261E+00  0.13039550030E+00  0.20906115545E-01 0.  0.
         14    1    1    2    0    0  0.19419946947E-01  0.10698652489E-01 -0.81533071430E-02  0.23623545920E-01  0.00000000000E+00 0. -1.
     999901    1    3    3    0    0 -0.67390860140E-01 -0.32610351514E-01 -0.10925448547E+00  0.88991095378E+00  0.88000000000E+00 0. -1.
        -11    1    4    4    0    0  0.28057174839E-01  0.94590305865E-02  0.41833364846E-01  0.51253974041E-01  0.51100000000E-03 0. -1.
         11    1    4    4    0    0  0.19913738354E-01  0.12452668439E-01  0.75574427763E-01  0.79141526263E-01  0.51100000000E-03 0.  1.
</event>
<event>
 8    1  0.1123470E+005  0.1043930E+01  0.7957747E-01            NaN
         13   -1    0    0    0    0  0.00000000000E+00  0.00000000000E+00  0.74505805969E-08  0.10566000000E+00  0.10566000000E+00 0. -1.
     999900   -1    0    0    0    0 -0.00000000000E+00 -0.00000000000E+00 -0.74505805969E-08  0.93827000000E+00  0.93827000000E+00 0.  1.
     999902    2    1    2    0    0 -0.79996558833E-02 -0.17403013417E-01 -0.10795760105E-01  0.10219434631E+01  0.10217069217E+01 0.  0.
     999903    2    3    3    0    0 -0.54139621296E-01 -0.77328982040E-01 -0.94053606672E-01  0.13478401452E+00  0.20243013235E-01 0.  0.
         14    1    1    2    0    0  0.79996558833E-02  0.17403013417E-01  0.10795760105E-01  0.21986536937E-01  0.00000000000E+00 0. -1.
     999901    1    3    3    0    0  0.46139965413E-01  0.59925968623E-01  0.83257846567E-01  0.88715944854E+00  0.88000000000E+00 0. -1.
        -11    1    4    4    0    0 -0.39360867144E-01 -0.40365318234E-01 -0.60716374754E-01  0.82857564910E-01  0.51100000000E-03 0. -1.
         11    1    4    4    0    0 -0.14778754151E-01 -0.36963663805E-01 -0.33337231918E-01  0.51926449610E-01  0.51100000000E-03 0.  1.
</event>
<event>
 7    1  0.1123470E+005  0.1043930E+01  0.7957747E-01            NaN
         13   -1    0    0    0    0  0.00000000000E+00  0.00000000000E+00  0.74505805969E-08  0.10566000000E+00  0.10566000000E+00 0.  1.
     999900   -1    0    0    0    0 -0.00000000000E+00 -0.00000000000E+00 -0.74505805969E-08  0.93827000000E+00  0.93827000000E+00 0. -1.
     999903    2    1    2    0    0  0.54829298082E-01  0.35670239817E-01  0.52058055140E-02  0.68494460983E-01  0.19641100721E-01 0.  0.
         14    1    1    2    0    0  0.33932775783E-01 -0.49000945837E-01 -0.65818949352E-01  0.88795608332E-01  0.00000000000E+00 0. -1.
     999901    1    1    2    0    0 -0.88762073865E-01  0.13330706020E-01  0.60613143838E-01  0.88663993069E+00  0.88000000000E+00 0.  1.
        -11    1    3    3    0    0  0.32078596675E-01  0.30485312921E-01 -0.12639443900E-02  0.44274703217E-01  0.51100000000E-03 0. -1.
         11    1    3    3    0    0  0.22750701407E-01  0.51849268960E-02  0.64697499040E-02  0.24219757766E-01  0.51100000000E-03 0.  1.
</event>
<event>
 8    1  0.1123470E+005  0.1043930E+01  0.7957747E-01            NaN
         13   -1    0    0    0    0  0.00000000000E+00  0.00000000000E+00  0.74505805969E-08  0.10566000000E+00  0.10566000000E+00 0. -1.
     999900   -1    0    0    0    0 -0.00000000000E+00 -0.00000000000E+00 -0.74505805969E-08  0.93827000000E+00  0.93827000000E+00 0.  1.
     999902    2    1    2    0    0 -0.16431762205E-01 -0.80462240448E-02 -0.16351020905E-01  0.10193922655E+01  0.10190968995E+01 0.  0.
     999903    2    3    3    0    0  0.19916902774E-01  0.49267465866E-02  0.12416537601E+00  0.12740886810E+00  0.19875191142E-01 0.  0.
         14    1    1    2    0    0  0.16431762205E-01  0.80462240448E-02  0.16351020905E-01  0.24537734516E-01  0.00000000000E+00 0. -1.
     999901    1    3    3    0    0 -0.36348664980E-01 -0.12972970631E-01 -0.14051639691E+00  0.89198339739E+00  0.88000000000E+00 0.  1.
        -11    1    4    4    0    0  0.21491373191E-01  0.94814904517E-02  0.10832315901E+00  0.11084198519E+00  0.51100000000E-03 0. -1.
         11    1    4    4    0    0 -0.15744704163E-02 -0.45547438651E-02  0.15842216998E-01  0.16566882904E-01  0.51100000000E-03 0.  1.
</event>
<event>
 8    1  0.1123470E+005  0.1043930E+01  0.7957747E-01            NaN
         13   -1    0    0    0    0  0.00000000000E+00  0.00000000000E+00  0.74505805969E-08  0.10566000000E+00  0.10566000000E+00 0. -1.
     999900   -1    0    0    0    0 -0.00000000000E+00 -0.00000000000E+00 -0.74505805969E-08  0.93827000000E+00  0.93827000000E+00 0. -1.
     999902    2    1    2    0    0 -0.21263299182E-01  0.70612876483E-02 -0.60742526262E-02  0.10207160770E+01  0.10204520683E+01 0.  0.
     999903    2    3    3    0    0 -0.56800404125E-01  0.58164189334E-01  0.10194172278E+00  0.13192935157E+00  0.20096769232E-01 0.  0.
         14    1    1    2    0    0  0.21263299182E-01 -0.70612876483E-02  0.60742526262E-02  0.23213922984E-01  0.00000000000E+00 0.  1.
     999901    1    3    3    0    0  0.35537104943E-01 -0.51102901686E-01 -0.10801597540E+00  0.88878672545E+00  0.88000000000E+00 0.  1.
        -11    1    4    4    0    0 -0.41148966669E-01  0.46024959133E-01  0.62843194806E-01  0.88096893109E-01  0.51100000000E-03 0.  1.
         11    1    4    4    0    0 -0.15651437456E-01  0.12139230201E-01  0.39098527969E-01  0.43832458460E-01  0.51100000000E-03 0. -1.
</event>
<event>
 8    1  0.1123470E+005  0.1043930E+01  0.7957747E-01            NaN
         13   -1    0    0    0    0  0.00000000000E+00  0.00000000000E+00  0.74505805969E-08  0.10566000000E+00  0.10566000000E+00 0.  1.
     999900   -1    0    0    0    0 -0.00000000000E+00 -0.00000000000E+00 -0.74505805969E-08  0.93827000000E+00  0.93827000000E+00 0.  1.
     999902    2    1    2    0    0  0.16801601504E-01 -0.14109769722E-01 -0.85855812964E-02  0.10203696176E+01  0.10200975761E+01 0.  0.
     999903    2    3    3    0    0  0.10989742156E+00  0.10517064200E-01 -0.71228616427E-01  0.13290273789E+00  0.20039212455E-01 0.  0.
         14    1    1    2    0    0 -0.16801601504E-01  0.14109769722E-01  0.85855812964E-02  0.23560382444E-01  0.00000000000E+00 0.  1.
     999901    1    3    3    0    0 -0.93095820051E-01 -0.24626833921E-01  0.62643035130E-01  0.88746687967E+00  0.88000000000E+00 0. -1.
        -11    1    4    4    0    0  0.91308156725E-01  0.28010430632E-02 -0.63872714561E-01  0.11146752941E+00  0.51100000000E-03 0.  1.
         11    1    4    4    0    0  0.18589264830E-01  0.77160211365E-02 -0.73559018658E-02  0.21435208475E-01  0.51100000000E-03 0. -1.
</event>
<event>
 8    1  0.1123470E+005  0.1043930E+01  0.7957747E-01            NaN
         13   -1    0    0    0    0  0.00000000000E+00  0.00000000000E+00  0.74505805969E-08  0.10566000000E+00  0.10566000000E+00 0.  1.
     999900   -1    0    0    0    0 -0.00000000000E+00 -0.00000000000E+00 -0.74505805969E-08  0.93827000000E+00  0.93827000000E+00 0.  1.
     999902    2    1    2    0    0 -0.79142639469E-03  0.25340222868E-01 -0.28895054374E-02  0.10184132899E+01  0.10180935746E+01 0.  0.
     999903    2    3    3    0    0 -0.62965560951E-01 -0.13575288136E-01  0.10879690149E+00  0.12832683712E+00  0.21955888403E-01 0.  0.
         14    1    1    2    0    0  0.79142639469E-03 -0.25340222868E-01  0.28895054374E-02  0.25516710062E-01  0.00000000000E+00 0. -1.
     999901    1    3    3    0    0  0.62174134556E-01  0.38915511004E-01 -0.11168640693E+00  0.89008645282E+00  0.88000000000E+00 0.  1.
        -11    1    4    4    0    0 -0.26319774131E-01 -0.15521719505E-01  0.39834855159E-01  0.50206882927E-01  0.51100000000E-03 0.  1.
         11    1    4    4    0    0 -0.36645786820E-01  0.19464313692E-02  0.68962046335E-01  0.78119954188E-01  0.51100000000E-03 0. -1.
</event>
<event>
 8    1  0.1123470E+005  0.1043930E+01  0.7957747E-01            NaN
         13   -1    0    0    0    0  0.00000000000E+00  0.00000000000E+00  0.74505805969E-08  0.10566000000E+00  0.10566000000E+00 0. -1.
     999900   -1    0    0    0    0 -0.00000000000E+00 -0.00000000000E+00 -0.74505805969E-08  0.93827000000E+00  0.93827000000E+00 0.  1.
     999902    2    1    2    0    0  0.10034981163E-01  0.53412097058E-02 -0.20702049659E-01  0.10203121206E+01  0.10200387342E+01 0.  0.
     999903    2    3    3    0    0 -0.10674827063E-01  0.76009612831E-01 -0.10704140114E+00  0.13302558120E+00  0.18615330259E-01 0.  0.
         14    1    1    2    0    0 -0.10034981163E-01 -0.53412097058E-02  0.20702049659E-01  0.23617879416E-01  0.00000000000E+00 0. -1.
     999901    1    3    3    0    0  0.20709808226E-01 -0.70668403126E-01  0.86339351479E-01  0.88728653938E+00  0.88000000000E+00 0. -1.
        -11    1    4    4    0    0 -0.15976983670E-01  0.53311351948E-01 -0.76371635832E-01  0.94500011293E-01  0.51100000000E-03 0. -1.
         11    1    4    4    0    0  0.53021566065E-02  0.22698260884E-01 -0.30669765305E-01  0.38525569907E-01  0.51100000000E-03 0.  1.
</event>
<event>
 8    1  0.1123470E+005  0.1043930E+01  0.7957747E-01            NaN
         13   -1    0    0    0    0  0.00000000000E+00  0.00000000000E+00  0.74505805969E-08  0.10566000000E+00  0.10566000000E+00 0.  1.
     999900   -1    0    0    0    0 -0.00000000000E+00 -0.00000000000E+00 -0.74505805969E-08  0.93827000000E+00  0.93827000000E+00 0. -1.
     999902    2    1    2    0    0 -0.22410005859E-01 -0.71763761508E-02  0.11691715908E-02  0.10203699554E+01  0.10200979219E+01 0.  0.
     999903    2    3    3    0    0 -0.55165303124E-01 -0.98929953074E-01  0.64562591011E-01  0.13272680980E+00  0.24854206860E-01 0.  0.
         14    1    1    2    0    0  0.22410005859E-01  0.71763761508E-02 -0.11691715908E-02  0.23560044556E-01  0.00000000000E+00 0. -1.
     999901    1    3    3    0    0  0.32755297265E-01  0.91753576923E-01 -0.63393419420E-01  0.88764314564E+00  0.88000000000E+00 0. -1.
        -11    1    4    4    0    0 -0.41897915194E-01 -0.90117165959E-01  0.50515618397E-01  0.11148375541E+00  0.51100000000E-03 0. -1.
         11    1    4    4    0    0 -0.13267387929E-01 -0.88127871154E-02  0.14046972614E-01  0.21243054390E-01  0.51100000000E-03 0.  1.
</event>
<event>
 8    1  0.1123470E+005  0.1043930E+01  0.7957747E-01            NaN
         13   -1    0    0    0    0  0.00000000000E+00  0.00000000000E+00  0.74505805969E-08  0.10566000000E+00  0.10566000000E+00 0.  1.
     999900   -1    0    0    0    0 -0.00000000000E+00 -0.00000000000E+00 -0.74505805969E-08  0.93827000000E+00  0.93827000000E+00 0. -1.
     999902    2    1    2    0    0  0.14968496854E-01  0.92203284961E-02 -0.16702250602E-01  0.10196805561E+01  0.10193921723E+01 0.  0.
     999903    2    3    3    0    0 -0.63675311241E-01  0.87320448411E-01  0.67055928154E-01  0.12878218376E+00  0.20222447446E-01 0.  0.
         14    1    1    2    0    0 -0.14968496854E-01 -0.92203284961E-02  0.16702250602E-01  0.24249443928E-01  0.00000000000E+00 0.  1.
     999901    1    3    3    0    0  0.78643808095E-01 -0.78100119915E-01 -0.83758178756E-01  0.89089837231E+00  0.88000000000E+00 0. -1.
        -11    1    4    4    0    0 -0.31436409328E-01  0.31401565694E-01  0.35805534903E-01  0.57066659357E-01  0.51100000000E-03 0.  1.
         11    1    4    4    0    0 -0.32238901913E-01  0.55918882717E-01  0.31250393251E-01  0.71715524402E-01  0.51100000000E-03 0. -1.
</event>
<event>
 8    1  0.1123470E+005  0.1043930E+01  0.7957747E-01            NaN
         13   -1    0    0    0    0  0.00000000000E+00  0.00000000000E+00  0.74505805969E-08  0.10566000000E+00  0.10566000000E+00 0.  1.
     999900   -1    0    0    0    0 -0.00000000000E+00 -0.00000000000E+00 -0.74505805969E-08  0.93827000000E+00  0.93827000000E+00 0. -1.
     999902    2    1    2    0    0  0.24253737824E-02  0.21205410157E-01 -0.94869992871E-02  0.10205728809E+01  0.10203055671E+01 0.  0.
     999903    2    3    3    0    0  0.11878007747E+00  0.28254975437E-01 -0.46366542117E-01  0.13212017301E+00  0.19970814895E-01 0.  0.
         14    1    1    2    0    0 -0.24253737824E-02 -0.21205410157E-01  0.94869992871E-02  0.23357119116E-01  0.00000000000E+00 0.  1.
     999901    1    3    3    0    0 -0.11635470369E+00 -0.70495652799E-02  0.36879542830E-01  0.88845270787E+00  0.88000000000E+00 0.  1.
        -11    1    4    4    0    0  0.21777746569E-01  0.12575900766E-01 -0.58009695111E-02  0.25813482794E-01  0.51100000000E-03 0.  1.
         11    1    4    4    0    0  0.97002330906E-01  0.15679074671E-01 -0.40565572606E-01  0.10630669022E+00  0.51100000000E-03 0. -1.
</event>
<event>
 8    1  0.1123470E+005  0.1043930E+01  0.7957747E-01            NaN
         13   -1    0    0    0    0  0.00000000000E+00  0.00000000000E+00  0.74505805969E-08  0.10566000000E+00  0.10566000000E+00 0. -1.
     999900   -1    0    0    0    0 -0.00000000000E+00 -0.00000000000E+00 -0.74505805969E-08  0.93827000000E+00  0.93827000000E+00 0.  1.
     999902    2    1    2    0    0 -0.44422188522E-02  0.16651864847E-01  0.50043049068E-02  0.10259839425E+01  0.10258269783E+01 0.  0.
     999903    2    3    3    0    0  0.40526819823E-01  0.15663953117E-02 -0.12696946839E+00  0.13487964859E+00  0.20649382154E-01 0.  0.
         14    1    1    2    0    0  0.44422188522E-02 -0.16651864847E-01 -0.50043049068E-02  0.17946057473E-01  0.00000000000E+00 0.  1.
     999901    1    3    3    0    0 -0.44969038675E-01  0.15085469535E-01  0.13197377329E+00  0.89110429393E+00  0.88000000000E+00 0. -1.
        -11    1    4    4    0    0  0.16848797693E-01  0.10817338902E-01 -0.52639732672E-01  0.56321393639E-01  0.51100000000E-03 0. -1.
         11    1    4    4    0    0  0.23678022130E-01 -0.92509435901E-02 -0.74329735713E-01  0.78558254954E-01  0.51100000000E-03 0.  1.
</event>
<event>
 8    1  0.1123470E+005  0.1043930E+01  0.7957747E-01            NaN
         13   -1    0    0    0    0  0.00000000000E+00  0.00000000000E+00  0.74505805969E-08  0.10566000000E+00  0.10566000000E+00 0. -1.
     999900   -1    0    0    0    0 -0.00000000000E+00 -0.00000000000E+00 -0.74505805969E-08  0.93827000000E+00  0.93827000000E+00 0. -1.
     999902    2    1    2    0    0  0.13309831723E-01 -0.40016718825E-02 -0.19105764453E-01  0.10203038443E+01  0.10200302640E+01 0.  0.
     999903    2    3    3    0    0 -0.13481193175E-01  0.11163058416E+00 -0.64301400011E-01  0.13118561642E+00  0.20781386464E-01 0.  0.
         14    1    1    2    0    0 -0.13309831723E-01  0.40016718825E-02  0.19105764453E-01  0.23626155711E-01  0.00000000000E+00 0. -1.
     999901    1    3    3    0    0  0.26791024897E-01 -0.11563225604E+00  0.45195635558E-01  0.88911822787E+00  0.88000000000E+00 0.  1.
        -11    1    4    4    0    0 -0.47356558272E-02  0.10586855406E-01 -0.13325084254E-01  0.17672773831E-01  0.51100000000E-03 0. -1.
         11    1    4    4    0    0 -0.87455373475E-02  0.10104372875E+00 -0.50976315757E-01  0.11351284259E+00  0.51100000000E-03 0.  1.
</event>
<event>
 8    1  0.1123470E+005  0.1043930E+01  0.7957747E-01            NaN
         13   -1    0    0    0    0  0.00000000000E+00  0.00000000000E+00  0.74505805969E-08  0.10566000000E+00  0.10566000000E+00 0. -1.
     999900   -1    0    0    0    0 -0.00000000000E+00 -0.00000000000E+00 -0.74505805969E-08  0.93827000000E+00  0.93827000000E+00 0. -1.
     999902    2    1    2    0    0  0.12012323349E-01 -0.20060634280E-01 -0.31642702365E-02  0.10203347131E+01  0.10200618555E+01 0.  0.
     999903    2    3    3    0    0 -0.99745861428E-01 -0.55121976701E-01  0.59859896266E-01  0.13033963713E+00  0.20433909069E-01 0.  0.
         14    1    1    2    0    0 -0.12012323349E-01  0.20060634280E-01  0.31642702365E-02  0.23595286947E-01  0.00000000000E+00 0. -1.
     999901    1    3    3    0    0  0.11175818478E+00  0.35061342420E-01 -0.63024166503E-01  0.88999507592E+00  0.88000000000E+00 0. -1.
        -11    1    4    4    0    0 -0.77830303897E-01 -0.47758147838E-01  0.39365949199E-01  0.99440112464E-01  0.51100000000E-03 0. -1.
         11    1    4    4    0    0 -0.21915557531E-01 -0.73638288629E-02  0.20493947067E-01  0.30899524670E-01  0.51100000000E-03 0.  1.
</event>
<event>
 8    1  0.1123470E+005  0.1043930E+01  0.7957747E-01            NaN
         13   -1    0    0    0    0  0.00000000000E+00  0.00000000000E+00  0.74505805969E-08  0.10566000000E+00  0.10566000000E+00 0. -1.
     999900   -1    0    0    0    0 -0.00000000000E+00 -0.00000000000E+00 -0.74505805969E-08  0.93827000000E+00  0.93827000000E+00 0.  1.
     999902    2    1    2    0    0 -0.12443278447E-01  0.18876774965E-01  0.65383333282E-02  0.10203945456E+01  0.10201230862E+01 0.  0.
     999903    2    3    3    0    0  0.10659216843E+00  0.66863588135E-01 -0.27502460543E-01  0.13043333998E+00  0.20587400314E-01 0.  0.
         14    1    1    2    0    0  0.12443278447E-01 -0.18876774965E-01 -0.65383333282E-02  0.23535454410E-01  0.00000000000E+00 0.  1.
     999901    1    3    3    0    0 -0.11903544688E+00 -0.47986813171E-01  0.34040793871E-01  0.88996120561E+00  0.88000000000E+00 0. -1.
        -11    1    4    4    0    0  0.90356347129E-01  0.64634184948E-01 -0.23425604752E-01  0.11353795581E+00  0.51100000000E-03 0. -1.
         11    1    4    4    0    0  0.16235821304E-01  0.22294031878E-02 -0.40768557911E-02  0.16895384166E-01  0.51100000000E-03 0.  1.
</event>
<event>
 8    1  0.1123470E+005  0.1043930E+01  0.7957747E-01            NaN
         13   -1    0    0    0    0  0.00000000000E+00  0.00000000000E+00  0.74505805969E-08  0.10566000000E+00  0.10566000000E+00 0.  1.
     999900   -1    0    0    0    0 -0.00000000000E+00 -0.00000000000E+00 -0.74505805969E-08  0.93827000000E+00  0.93827000000E+00 0.  1.
     999902    2    1    2    0    0  0.54458370262E-02  0.18336721003E-01 -0.13946547463E-01  0.10202572590E+01  0.10199825861E+01 0.  0.
     999903    2    3    3    0    0  0.99071056935E-01 -0.80222401841E-01 -0.14146912201E-01  0.12981937652E+00  0.20055605577E-01 0.  0.
         14    1    1    2    0    0 -0.54458370262E-02 -0.18336721003E-01  0.13946547463E-01  0.23672740953E-01  0.00000000000E+00 0.  1.
     999901    1    3    3    0    0 -0.93625219909E-01  0.98559122845E-01  0.20036473750E-03  0.89043788253E+00  0.88000000000E+00 0. -1.
        -11    1    4    4    0    0  0.16921596776E-01 -0.22366316462E-01  0.16795368049E-02  0.28101147920E-01  0.51100000000E-03 0.  1.
         11    1    4    4    0    0  0.82149460159E-01 -0.57856085379E-01 -0.15826449006E-01  0.10171822860E+00  0.51100000000E-03 0. -1.
</event>
<event>
 8    1  0.1123470E+005  0.1043930E+01  0.7957747E-01            NaN
         13   -1    0    0    0    0  0.00000000000E+00  0.00000000000E+00  0.74505805969E-08  0.10566000000E+00  0.10566000000E+00 0.  1.
     999900   -1    0    0    0    0 -0.00000000000E+00 -0.00000000000E+00 -0.74505805969E-08  0.93827000000E+00  0.93827000000E+00 0. -1.
     999902    2    1    2    0    0  0.88874588166E-02 -0.60325800293E-02 -0.21632050719E-01  0.10197778870E+01  0.10194918411E+01 0.  0.
     999903    2    3    3    0    0  0.27610783135E-01 -0.10356244373E+00  0.69939856771E-01  0.12947004614E+00  0.19579943414E-01 0.  0.
         14    1    1    2    0    0 -0.88874588166E-02  0.60325800293E-02  0.21632050719E-01  0.24152113041E-01  0.00000000000E+00 0.  1.
     999901    1    3    3    0    0 -0.18723324319E-01  0.97529863704E-01 -0.91571907490E-01  0.89030784082E+00  0.88000000000E+00 0. -1.
        -11    1    4    4    0    0  0.21835353741E-01 -0.57585713136E-01  0.48586044896E-01  0.78445917102E-01  0.51100000000E-03 0. -1.
         11    1    4    4    0    0  0.57754293938E-02 -0.45976730598E-01  0.21353811875E-01  0.51024129035E-01  0.51100000000E-03 0.  1.
</event>
<event>
 8    1  0.1123470E+005  0.1043930E+01  0.7957747E-01            NaN
         13   -1    0    0    0    0  0.00000000000E+00  0.00000000000E+00  0.74505805969E-08  0.10566000000E+00  0.10566000000E+00 0. -1.
     999900   -1    0    0    0    0 -0.00000000000E+00 -0.00000000000E+00 -0.74505805969E-08  0.93827000000E+00  0.93827000000E+00 0.  1.
     999902    2    1    2    0    0 -0.25798678303E-02  0.23226996861E-01  0.60562716033E-02  0.10197881789E+01  0.10195023797E+01 0.  0.
     999903    2    3    3    0    0 -0.45485824105E-01 -0.81409069212E-01  0.86844878047E-01  0.12888053701E+00  0.19281162654E-01 0.  0.
         14    1    1    2    0    0  0.25798678303E-02 -0.23226996861E-01 -0.60562716033E-02  0.24141821119E-01  0.00000000000E+00 0. -1.
     999901    1    3    3    0    0  0.42905956274E-01  0.10463606607E+00 -0.80788606444E-01  0.89090764187E+00  0.88000000000E+00 0.  1.
        -11    1    4    4    0    0 -0.24329515104E-01 -0.33240603828E-01  0.49295347469E-01  0.64242940866E-01  0.51100000000E-03 0. -1.
         11    1    4    4    0    0 -0.21156309001E-01 -0.48168465385E-01  0.37549530578E-01  0.64637596147E-01  0.51100000000E-03 0.  1.
</event>
<event>
 8    1  0.1123470E+005  0.1043930E+01  0.7957747E-01            NaN
         13   -1    0    0    0    0  0.00000000000E+00  0.00000000000E+00  0.74505805969E-08  0.10566000000E+00  0.10566000000E+00 0.  1.
     999900   -1    0    0    0    0 -0.00000000000E+00 -0.00000000000E+00 -0.74505805969E-08  0.93827000000E+00  0.93827000000E+00 0.  1.
     999902    2    1    2    0    0  0.18984887559E-02 -0.19962856317E-01  0.12861308957E-01  0.10201070455E+01  0.10198288343E+01 0.  0.
     999903    2    3    3    0    0 -0.14966662914E-01 -0.12348840656E+00  0.42880995877E-01  0.13336968052E+00  0.21801475212E-01 0.  0.
         14    1    1    2    0    0 -0.18984887559E-02  0.19962856317E-01 -0.12861308957E-01  0.23822954476E-01  0.00000000000E+00 0. -1.
     999901    1    3    3    0    0  0.16865151669E-01  0.10352555024E+00 -0.30019686921E-01  0.88673736501E+00  0.88000000000E+00 0.  1.
        -11    1    4    4    0    0 -0.18562232903E-01 -0.84200909171E-01  0.23266760965E-01  0.89308190456E-01  0.51100000000E-03 0.  1.
         11    1    4    4    0    0  0.35955699898E-02 -0.39287497386E-01  0.19614234912E-01  0.44061490063E-01  0.51100000000E-03 0. -1.
</event>
<event>
 8    1  0.1123470E+005  0.1043930E+01  0.7957747E-01            NaN
         13   -1    0    0    0    0  0.00000000000E+00  0.00000000000E+00  0.74505805969E-08  0.10566000000E+00  0.10566000000E+00 0.  1.
     999900   -1    0    0    0    0 -0.00000000000E+00 -0.00000000000E+00 -0.74505805969E-08  0.93827000000E+00  0.93827000000E+00 0.  1.
     999902    2    1    2    0    0 -0.66985123326E-03  0.23535326083E-01 -0.43464540952E-02  0.10199873197E+01  0.10197062717E+01 0.  0.
     999903    2    3    3    0    0 -0.10902211470E+00 -0.52341106226E-01  0.40594558987E-01  0.12896703904E+00  0.18951676582E-01 0.  0.
         14    1    1    2    0    0  0.66985123326E-03 -0.23535326083E-01  0.43464540952E-02  0.23942680254E-01  0.00000000000E+00 0. -1.
     999901    1    3    3    0    0  0.10835226346E+00  0.75876432309E-01 -0.44941013082E-01  0.89102028071E+00  0.88000000000E+00 0. -1.
        -11    1    4    4    0    0 -0.67597383806E-01 -0.22256240923E-01  0.25300177534E-01  0.75532156475E-01  0.51100000000E-03 0. -1.
         11    1    4    4    0    0 -0.41424730889E-01 -0.30084865302E-01  0.15294381452E-01  0.53434882563E-01  0.51100000000E-03 0.  1.
</event>
<event>
 8    1  0.1123470E+005  0.1043930E+01  0.7957747E-01            NaN
         13   -1    0    0    0    0  0.00000000000E+00  0.00000000000E+00  0.74505805969E-08  0.10566000000E+00  0.10566000000E+00 0. -1.
     999900   -1    0    0    0    0 -0.00000000000E+00 -0.00000000000E+00 -0.74505805969E-08  0.93827000000E+00  0.93827000000E+00 0.  1.
     999902    2    1    2    0    0 -0.73848718372E-04  0.19274522496E-01 -0.13980935801E-01  0.10201186742E+01  0.10198407377E+01 0.  0.
     999903    2    3    3    0    0  0.87928124435E-01 -0.68036327999E-01  0.60835275455E-01  0.12828629231E+00  0.19903393220E-01 0.  0.
         14    1    1    2    0    0  0.73848718372E-04 -0.19274522496E-01  0.13980935801E-01  0.23811325813E-01  0.00000000000E+00 0. -1.
     999901    1    3    3    0    0 -0.88001973153E-01  0.87310850495E-01 -0.74816211255E-01  0.89183238187E+00  0.88000000000E+00 0.  1.
        -11    1    4    4    0    0  0.52824706686E-01 -0.52730484800E-01  0.39617007440E-01  0.84502793227E-01  0.51100000000E-03 0.  1.
         11    1    4    4    0    0  0.35103417749E-01 -0.15305843198E-01  0.21218268015E-01  0.43783499086E-01  0.51100000000E-03 0. -1.
</event>
<event>
 8    1  0.1123470E+005  0.1043930E+01  0.7957747E-01            NaN
         13   -1    0    0    0    0  0.00000000000E+00  0.00000000000E+00  0.74505805969E-08  0.10566000000E+00  0.10566000000E+00 0.  1.
     999900   -1    0    0    0    0 -0.00000000000E+00 -0.00000000000E+00 -0.74505805969E-08  0.93827000000E+00  0.93827000000E+00 0.  1.
     999902    2    1    2    0    0 -0.89697069070E-02 -0.43188887911E-02 -0.21893830854E-01  0.10198790484E+01  0.10195954223E+01 0.  0.
     999903    2    3    3    0    0 -0.69222921399E-01  0.82629839196E-01 -0.73447505080E-01  0.13204555475E+00  0.20542379477E-01 0.  0.
         14    1    1    2    0    0  0.89697069070E-02  0.43188887911E-02  0.21893830854E-01  0.24050951579E-01  0.00000000000E+00 0.  1.
     999901    1    3    3    0    0  0.60253214492E-01 -0.86948727987E-01  0.51553674226E-01  0.88783349367E+00  0.88000000000E+00 0. -1.
        -11    1    4    4    0    0 -0.36026188393E-01  0.48663494547E-01 -0.29575725579E-01  0.67386991446E-01  0.51100000000E-03 0.  1.
         11    1    4    4    0    0 -0.33196733006E-01  0.33966344649E-01 -0.43871779502E-01  0.64658563305E-01  0.51100000000E-03 0. -1.
</event>
<event>
 8    1  0.1123470E+005  0.1043930E+01  0.7957747E-01            NaN
         13   -1    0    0    0    0  0.00000000000E+00  0.00000000000E+00  0.74505805969E-08  0.10566000000E+00  0.10566000000E+00 0.  1.
     999900   -1    0    0    0    0 -0.00000000000E+00 -0.00000000000E+00 -0.74505805969E-08  0.93827000000E+00  0.93827000000E+00 0.  1.
     999902    2    1    2    0    0 -0.13542738487E-02  0.75384059914E-02  0.21411556805E-01  0.10211898068E+01  0.10209365823E+01 0.  0.
     999903    2    3    3    0    0  0.11578994387E-01 -0.10738336413E+00  0.73500347274E-01  0.13209615325E+00  0.19540538636E-01 0.  0.
         14    1    1    2    0    0  0.13542738487E-02 -0.75384059914E-02 -0.21411556805E-01  0.22740193213E-01  0.00000000000E+00 0. -1.
     999901    1    3    3    0    0 -0.12933268236E-01  0.11492177012E+00 -0.52088790470E-01  0.88909365354E+00  0.88000000000E+00 0. -1.
        -11    1    4    4    0    0  0.79946791881E-02 -0.74949396986E-01  0.61645425686E-01  0.97374260629E-01  0.51100000000E-03 0. -1.
         11    1    4    4    0    0  0.35843151992E-02 -0.32433967143E-01  0.11854921588E-01  0.34721892617E-01  0.51100000000E-03 0.  1.
</event>
<event>
 8    1  0.1123470E+005  0.1043930E+01  0.7957747E-01            NaN
         13   -1    0    0    0    0  0.00000000000E+00  0.00000000000E+00  0.74505805969E-08  0.10566000000E+00  0.10566000000E+00 0.  1.
     999900   -1    0    0    0    0 -0.00000000000E+00 -0.00000000000E+00 -0.74505805969E-08  0.93827000000E+00  0.93827000000E+00 0. -1.
     999902    2    1    2    0    0 -0.18198097743E-01  0.10360433440E-01 -0.69338304250E-02  0.10218712750E+01  0.10216331609E+01 0.  0.
     999903    2    3    3    0    0  0.10429198013E+00 -0.66478775862E-01 -0.33682346312E-01  0.12966974715E+00  0.19583107894E-01 0.  0.
         14    1    1    2    0    0  0.18198097743E-01 -0.10360433440E-01  0.69338304250E-02  0.22058724960E-01  0.00000000000E+00 0.  1.
     999901    1    3    3    0    0 -0.12249007787E+00  0.76839209302E-01  0.26748515887E-01  0.89220152789E+00  0.88000000000E+00 0.  1.
        -11    1    4    4    0    0  0.14388998836E-01 -0.76864827737E-02 -0.11543076343E-01  0.19990723784E-01  0.51100000000E-03 0.  1.
         11    1    4    4    0    0  0.89902981289E-01 -0.58792293088E-01 -0.22139269969E-01  0.10967902337E+00  0.51100000000E-03 0. -1.
</event>
<event>
 8    1  0.1123470E+005  0.1043930E+01  0.7957747E-01            NaN
         13   -1    0    0    0    0  0.00000000000E+00  0.00000000000E+00  0.74505805969E-08  0.10566000000E+00  0.10566000000E+00 0. -1.
     999900   -1    0    0    0    0 -0.00000000000E+00 -0.00000000000E+00 -0.74505805969E-08  0.93827000000E+00  0.93827000000E+00 0.  1.
     999902    2    1    2    0    0  0.16698988793E-01  0.74770331270E-02  0.14396630332E-01  0.10206485650E+01  0.10203830006E+01 0.  0.
     999903    2    3    3    0    0 -0.99122714563E-01  0.52777418981E-01 -0.59902423873E-01  0.12880376830E+00  0.19782362009E-01 0.  0.
         14    1    1    2    0    0 -0.16698988793E-01 -0.74770331270E-02 -0.14396630332E-01  0.23281435007E-01  0.00000000000E+00 0.  1.
     999901    1    3    3    0    0  0.11582170336E+00 -0.45300385854E-01  0.74299054205E-01  0.89184479669E+00  0.88000000000E+00 0. -1.
        -11    1    4    4    0    0 -0.74857222969E-01  0.46634562495E-01 -0.52742537102E-01  0.10276391677E+00  0.51100000000E-03 0.  1.
         11    1    4    4    0    0 -0.24265491594E-01  0.61428564853E-02 -0.71598867713E-02  0.26039851529E-01  0.51100000000E-03 0. -1.
</event>
<event>
 8    1  0.1123470E+005  0.1043930E+01  0.7957747E-01            NaN
         13   -1    0    0    0    0  0.00000000000E+00  0.00000000000E+00  0.74505805969E-08  0.10566000000E+00  0.10566000000E+00 0. -1.
     999900   -1    0    0    0    0 -0.00000000000E+00 -0.00000000000E+00 -0.74505805969E-08  0.93827000000E+00  0.93827000000E+00 0.  1.
     999902    2    1    2    0    0 -0.28549427771E-02  0.18871160220E-01 -0.13790770753E-01  0.10203830948E+01  0.10201113681E+01 0.  0.
     999903    2    3    3    0    0  0.11120564680E+00  0.25973068707E-01 -0.62425903352E-01  0.13166174853E+00  0.19912971604E-01 0.  0.
         14    1    1    2    0    0  0.28549427771E-02 -0.18871160220E-01  0.13790770753E-01  0.23546905196E-01  0.00000000000E+00 0.  1.
     999901    1    3    3    0    0 -0.11406058958E+00 -0.71019084867E-02  0.48635132599E-01  0.88872134627E+00  0.88000000000E+00 0. -1.
        -11    1    4    4    0    0  0.38592056661E-01  0.18621140930E-01 -0.25499816869E-01  0.49865774918E-01  0.51100000000E-03 0. -1.
         11    1    4    4    0    0  0.72613590142E-01  0.73519277770E-02 -0.36926086483E-01  0.81795973613E-01  0.51100000000E-03 0.  1.
</event>
<event>
 7    1  0.1123470E+005  0.1043930E+01  0.7957747E-01            NaN
         13   -1    0    0    0    0  0.00000000000E+00  0.00000000000E+00  0.74505805969E-08  0.10566000000E+00  0.10566000000E+00 0. -1.
     999900   -1    0    0    0    0 -0.00000000000E+00 -0.00000000000E+00 -0.74505805969E-08  0.93827000000E+00  0.93827000000E+00 0. -1.
     999903    2    1    2    0    0  0.10351301460E+00 -0.27645033519E-01  0.67448503437E-02  0.10916338658E+00  0.19797977002E-01 0.  0.
         14    1    1    2    0    0  0.41521280598E-02  0.44025645195E-01  0.17911488475E-01  0.47710785171E-01  0.00000000000E+00 0. -1.
     999901    1    1    2    0    0 -0.10766514266E+00 -0.16380611676E-01 -0.24656338819E-01  0.88705582825E+00  0.88000000000E+00 0. -1.
        -11    1    3    3    0    0  0.35217639100E-01 -0.13778140855E-01 -0.60693493805E-02  0.38304273810E-01  0.51100000000E-03 0. -1.
         11    1    3    3    0    0  0.68295375503E-01 -0.13866892664E-01  0.12814199724E-01  0.70859112772E-01  0.51100000000E-03 0.  1.
</event>
<event>
 8    1  0.1123470E+005  0.1043930E+01  0.7957747E-01            NaN
         13   -1    0    0    0    0  0.00000000000E+00  0.00000000000E+00  0.74505805969E-08  0.10566000000E+00  0.10566000000E+00 0. -1.
     999900   -1    0    0    0    0 -0.00000000000E+00 -0.00000000000E+00 -0.74505805969E-08  0.93827000000E+00  0.93827000000E+00 0. -1.
     999902    2    1    2    0    0 -0.12724783600E-01 -0.13204364342E-01  0.15224729859E-01  0.10200958280E+01  0.10198173516E+01 0.  0.
     999903    2    3    3    0    0  0.12446455876E+00  0.21053681415E-01  0.16269034466E-01  0.12880708695E+00  0.19796471362E-01 0.  0.
         14    1    1    2    0    0  0.12724783600E-01  0.13204364342E-01 -0.15224729859E-01  0.23834171994E-01  0.00000000000E+00 0.  1.
     999901    1    3    3    0    0 -0.13718934236E+00 -0.34258045757E-01 -0.10443046069E-02  0.89128874105E+00  0.88000000000E+00 0. -1.
        -11    1    4    4    0    0  0.37008152906E-01  0.11545069079E-01 -0.25105067772E-02  0.38851715108E-01  0.51100000000E-03 0.  1.
         11    1    4    4    0    0  0.87456405854E-01  0.95086123363E-02  0.18779541243E-01  0.89955371845E-01  0.51100000000E-03 0. -1.
</event>
<event>
 8    1  0.1123470E+005  0.1043930E+01  0.7957747E-01            NaN
         13   -1    0    0    0    0  0.00000000000E+00  0.00000000000E+00  0.74505805969E-08  0.10566000000E+00  0.10566000000E+00 0.  1.
     999900   -1    0    0    0    0 -0.00000000000E+00 -0.00000000000E+00 -0.74505805969E-08  0.93827000000E+00  0.93827000000E+00 0. -1.
     999902    2    1    2    0    0  0.99185077231E-02  0.20227112691E-01  0.73448277922E-02  0.10202348659E+01  0.10199596670E+01 0.  0.
     999903    2    3    3    0    0  0.21646841281E-01 -0.10309817971E+00 -0.70254662064E-01  0.12817636876E+00  0.19890791085E-01 0.  0.
         14    1    1    2    0    0 -0.99185077231E-02 -0.20227112691E-01 -0.73448277922E-02  0.23695134070E-01  0.00000000000E+00 0. -1.
     999901    1    3    3    0    0 -0.11728333558E-01  0.12332529240E+00  0.77599489856E-01  0.89205849717E+00  0.88000000000E+00 0.  1.
        -11    1    4    4    0    0  0.69408370228E-03 -0.11451830303E-01 -0.15796991454E-01  0.19530290051E-01  0.51100000000E-03 0. -1.
         11    1    4    4    0    0  0.20952757579E-01 -0.91646349403E-01 -0.54457670610E-01  0.10864607871E+00  0.51100000000E-03 0.  1.
</event>
<event>
 8    1  0.1123470E+005  0.1043930E+01  0.7957747E-01            NaN
         13   -1    0    0    0    0  0.00000000000E+00  0.00000000000E+00  0.74505805969E-08  0.10566000000E+00  0.10566000000E+00 0.  1.
     999900   -1    0    0    0    0 -0.00000000000E+00 -0.00000000000E+00 -0.74505805969E-08  0.93827000000E+00  0.93827000000E+00 0. -1.
     999902    2    1    2    0    0  0.18972302834E-01  0.82760782352E-02 -0.12089509789E-01  0.10199592263E+01  0.10196775104E+01 0.  0.
     999903    2    3    3    0    0  0.24983916423E-01  0.63408819375E-02 -0.12826655051E+00  0.13230107740E+00  0.19668864691E-01 0.  0.
         14    1    1    2    0    0 -0.18972302834E-01 -0.82760782352E-02  0.12089509789E-01  0.23970773720E-01  0.00000000000E+00 0.  1.
     999901    1    3    3    0    0 -0.60116135888E-02  0.19351962977E-02  0.11617704072E+00  0.88765814888E+00  0.88000000000E+00 0.  1.
        -11    1    4    4    0    0 -0.23662412075E-02 -0.25504593688E-02 -0.10518326678E-01  0.11090548117E-01  0.51100000000E-03 0.  1.
         11    1    4    4    0    0  0.27350157631E-01  0.88913413063E-02 -0.11774822383E+00  0.12121052928E+00  0.51100000000E-03 0. -1.
</event>
<event>
 8    1  0.1123470E+005  0.1043930E+01  0.7957747E-01            NaN
         13   -1    0    0    0    0  0.00000000000E+00  0.00000000000E+00  0.74505805969E-08  0.10566000000E+00  0.10566000000E+00 0. -1.
     999900   -1    0    0    0    0 -0.00000000000E+00 -0.00000000000E+00 -0.74505805969E-08  0.93827000000E+00  0.93827000000E+00 0.  1.
     999902    2    1    2    0    0 -0.16735436070E-01  0.12714347338E-01  0.10531875876E-01  0.10204214939E+01  0.10201506631E+01 0.  0.
     999903    2    3    3    0    0  0.45925408767E-03  0.11945467469E+00  0.53952463899E-01  0.13274221495E+00  0.20976106589E-01 0.  0.
         14    1    1    2    0    0  0.16735436070E-01 -0.12714347338E-01 -0.10531875876E-01  0.23508506081E-01  0.00000000000E+00 0.  1.
     999901    1    3    3    0    0 -0.17194690157E-01 -0.10674032736E+00 -0.43420588023E-01  0.88767927897E+00  0.88000000000E+00 0.  1.
        -11    1    4    4    0    0 -0.79833710844E-02  0.53785568796E-01  0.17300456221E-01  0.57063022449E-01  0.51100000000E-03 0. -1.
         11    1    4    4    0    0  0.84426251721E-02  0.65669105897E-01  0.36652007679E-01  0.75679192497E-01  0.51100000000E-03 0.  1.
</event>
<event>
 8    1  0.1123470E+005  0.1043930E+01  0.7957747E-01            NaN
         13   -1    0    0    0    0  0.00000000000E+00  0.00000000000E+00  0.74505805969E-08  0.10566000000E+00  0.10566000000E+00 0. -1.
     999900   -1    0    0    0    0 -0.00000000000E+00 -0.00000000000E+00 -0.74505805969E-08  0.93827000000E+00  0.93827000000E+00 0.  1.
     999902    2    1    2    0    0 -0.89020690856E-02  0.67275022052E-02  0.20713662844E-01  0.10204021028E+01  0.10201308197E+01 0.  0.
     999903    2    3    3    0    0  0.10633716913E+00  0.41194200310E-01 -0.56653581452E-01  0.12885640803E+00  0.19743098099E-01 0.  0.
         14    1    1    2    0    0  0.89020690856E-02 -0.67275022052E-02 -0.20713662844E-01  0.23527897236E-01  0.00000000000E+00 0.  1.
     999901    1    3    3    0    0 -0.11523923821E+00 -0.34466698105E-01  0.77367244296E-01  0.89154569473E+00  0.88000000000E+00 0. -1.
        -11    1    4    4    0    0  0.17760866469E-01  0.12209333084E-01 -0.17496820896E-01  0.27765375102E-01  0.51100000000E-03 0. -1.
         11    1    4    4    0    0  0.88576302660E-01  0.28984867226E-01 -0.39156760556E-01  0.10109103293E+00  0.51100000000E-03 0.  1.
</event>
<event>
 8    1  0.1123470E+005  0.1043930E+01  0.7957747E-01            NaN
         13   -1    0    0    0    0  0.00000000000E+00  0.00000000000E+00  0.74505805969E-08  0.10566000000E+00  0.10566000000E+00 0. -1.
     999900   -1    0    0    0    0 -0.00000000000E+00 -0.00000000000E+00 -0.74505805969E-08  0.93827000000E+00  0.93827000000E+00 0.  1.
     999902    2    1    2    0    0  0.18647753253E-01 -0.15209166000E-01  0.26625317836E-02  0.10197195372E+01  0.10194320910E+01 0.  0.
     999903    2    3    3    0    0 -0.12014545905E-03  0.65193531168E-01  0.11006766844E+00  0.12935293234E+00  0.19159293514E-01 0.  0.
         14    1    1    2    0    0 -0.18647753253E-01  0.15209166000E-01 -0.26625317836E-02  0.24210462765E-01  0.00000000000E+00 0. -1.
     999901    1    3    3    0    0  0.18767898712E-01 -0.80402697168E-01 -0.10740513666E+00  0.89036660490E+00  0.88000000000E+00 0. -1.
        -11    1    4    4    0    0  0.74027840239E-02  0.38814741070E-01  0.75542012975E-01  0.85253986306E-01  0.51100000000E-03 0.  1.
         11    1    4    4    0    0 -0.75229294829E-02  0.26378790098E-01  0.34525655464E-01  0.44098946034E-01  0.51100000000E-03 0. -1.
</event>
<event>
 8    1  0.1123470E+005  0.1043930E+01  0.7957747E-01            NaN
         13   -1    0    0    0    0  0.00000000000E+00  0.00000000000E+00  0.74505805969E-08  0.10566000000E+00  0.10566000000E+00 0. -1.
     999900   -1    0    0    0    0 -0.00000000000E+00 -0.00000000000E+00 -0.74505805969E-08  0.93827000000E+00  0.93827000000E+00 0. -1.
     999902    2    1    2    0    0 -0.13426862188E-01  0.16966967106E-01  0.10979331816E-01  0.10196667700E+01  0.10193780543E+01 0.  0.
     999903    2    3    3    0    0 -0.11231018714E+00  0.41554056418E-01 -0.50555663367E-01  0.13165269777E+00  0.20886358972E-01 0.  0.
         14    1    1    2    0    0  0.13426862188E-01 -0.16966967106E-01 -0.10979331816E-01  0.24263229960E-01  0.00000000000E+00 0.  1.
     999901    1    3    3    0    0  0.98883324954E-01 -0.24587089312E-01  0.61534995183E-01  0.88801407227E+00  0.88000000000E+00 0.  1.
        -11    1    4    4    0    0 -0.89634226036E-01  0.32481111827E-01 -0.48949142792E-01  0.10717087666E+00  0.51100000000E-03 0. -1.
         11    1    4    4    0    0 -0.22675961106E-01  0.90729445904E-02 -0.16065205754E-02  0.24481821113E-01  0.51100000000E-03 0.  1.
</event>
<event>
 8    1  0.1123470E+005  0.1043930E+01  0.7957747E-01            NaN
         13   -1    0    0    0    0  0.00000000000E+00  0.00000000000E+00  0.74505805969E-08  0.10566000000E+00  0.10566000000E+00 0. -1.
     999900   -1    0    0    0    0 -0.00000000000E+00 -0.00000000000E+00 -0.74505805969E-08  0.93827000000E+00  0.93827000000E+00 0.  1.
     999902    2    1    2    0    0  0.56790761242E-02 -0.54981914063E-02  0.24728453618E-01  0.10179689054E+01  0.10176378108E+01 0.  0.
     999903    2    3    3    0    0 -0.11272134689E+00  0.43515332740E-01 -0.33240788187E-01  0.12680033621E+00  0.19331038158E-01 0.  0.
         14    1    1    2    0    0 -0.56790761242E-02  0.54981914063E-02 -0.24728453618E-01  0.25961094598E-01  0.00000000000E+00 0.  1.
     999901    1    3    3    0    0  0.11840042301E+00 -0.49013524147E-01  0.57969241805E-01  0.89116856919E+00  0.88000000000E+00 0. -1.
        -11    1    4    4    0    0 -0.35985489398E-01  0.63073688366E-02 -0.45431882214E-02  0.36819017220E-01  0.51100000000E-03 0.  1.
         11    1    4    4    0    0 -0.76735857490E-01  0.37207963904E-01 -0.28697599965E-01  0.89981318991E-01  0.51100000000E-03 0. -1.
</event>
<event>
 8    1  0.1123470E+005  0.1043930E+01  0.7957747E-01            NaN
         13   -1    0    0    0    0  0.00000000000E+00  0.00000000000E+00  0.74505805969E-08  0.10566000000E+00  0.10566000000E+00 0. -1.
     999900   -1    0    0    0    0 -0.00000000000E+00 -0.00000000000E+00 -0.74505805969E-08  0.93827000000E+00  0.93827000000E+00 0. -1.
     999902    2    1    2    0    0 -0.10167273345E-01 -0.21704460114E-01  0.14640453718E-02  0.10199174936E+01  0.10196347842E+01 0.  0.
     999903    2    3    3    0    0 -0.15177068485E-01 -0.12156750686E+00 -0.47311649840E-01  0.13291309979E+00  0.20457217597E-01 0.  0.
         14    1    1    2    0    0  0.10167273345E-01  0.21704460114E-01 -0.14640453718E-02  0.24012506428E-01  0.00000000000E+00 0.  1.
     999901    1    3    3    0    0  0.50097951403E-02  0.99863046746E-01  0.48775695212E-01  0.88700439379E+00  0.88000000000E+00 0.  1.
        -11    1    4    4    0    0 -0.66204209120E-02 -0.59807507143E-01 -0.34139983712E-01  0.69185023615E-01  0.51100000000E-03 0.  1.
         11    1    4    4    0    0 -0.85566475731E-02 -0.61759999718E-01 -0.13171666128E-01  0.63728076171E-01  0.51100000000E-03 0. -1.
</event>
<event>
 8    1  0.1123470E+005  0.1043930E+01  0.7957747E-01            NaN
         13   -1    0    0    0    0  0.00000000000E+00  0.00000000000E+00  0.74505805969E-08  0.10566000000E+00  0.10566000000E+00 0. -1.
     999900   -1    0    0    0    0 -0.00000000000E+00 -0.00000000000E+00 -0.74505805969E-08  0.93827000000E+00  0.93827000000E+00 0. -1.
     999902    2    1    2    0    0 -0.84151461927E-02  0.54514599862E-02  0.21654428387E-01  0.10200669036E+01  0.10197877428E+01 0.  0.
     999903    2    3    3    0    0  0.10133450123E+00 -0.67735056456E-01  0.40422018630E-01  0.13003686267E+00  0.20467707507E-01 0.  0.
         14    1    1    2    0    0  0.84151461927E-02 -0.54514599862E-02 -0.21654428387E-01  0.23863096408E-01  0.00000000000E+00 0.  1.
     999901    1    3    3    0    0 -0.10974964742E+00  0.73186516442E-01 -0.18767590243E-01  0.89003004092E+00  0.88000000000E+00 0. -1.
        -11    1    4    4    0    0  0.53631030127E-01 -0.34735736884E-01  0.31858745746E-01  0.71400977660E-01  0.51100000000E-03 0.  1.
         11    1    4    4    0    0  0.47703471102E-01 -0.32999319573E-01  0.85632728836E-02  0.58635885010E-01  0.51100000000E-03 0. -1.
</event>
<event>
 8    1  0.1123470E+005  0.1043930E+01  0.7957747E-01            NaN
         13   -1    0    0    0    0  0.00000000000E+00  0.00000000000E+00  0.74505805969E-08  0.10566000000E+00  0.10566000000E+00 0. -1.
     999900   -1    0    0    0    0 -0.00000000000E+00 -0.00000000000E+00 -0.74505805969E-08  0.93827000000E+00  0.93827000000E+00 0. -1.
     999902    2    1    2    0    0  0.63050791936E-02  0.22711345090E-01 -0.10711546583E-03  0.10203594528E+01  0.10200871739E+01 0.  0.
     999903    2    3    3    0    0  0.12246809327E+00 -0.38429290061E-01 -0.12573486162E-01  0.13053506933E+00  0.20151118268E-01 0.  0.
         14    1    1    2    0    0 -0.63050791936E-02 -0.22711345090E-01  0.10711546583E-03  0.23570547154E-01  0.00000000000E+00 0. -1.
     999901    1    3    3    0    0 -0.11616301407E+00  0.61140635151E-01  0.12466370697E-01  0.88982438352E+00  0.88000000000E+00 0.  1.
        -11    1    4    4    0    0  0.82384911213E-01 -0.19752929749E-01 -0.15845963356E-01  0.86190530251E-01  0.51100000000E-03 0. -1.
         11    1    4    4    0    0  0.40083182053E-01 -0.18676360312E-01  0.32724771936E-02  0.44344539077E-01  0.51100000000E-03 0.  1.
</event>
<event>
 8    1  0.1123470E+005  0.1043930E+01  0.7957747E-01            NaN
         13   -1    0    0    0    0  0.00000000000E+00  0.00000000000E+00  0.74505805969E-08  0.10566000000E+00  0.10566000000E+00 0. -1.
     999900   -1    0    0    0    0 -0.00000000000E+00 -0.00000000000E+00 -0.74505805969E-08  0.93827000000E+00  0.93827000000E+00 0. -1.
     999902    2    1    2    0    0  0.45292816788E-03  0.20312917622E-01 -0.11184162828E-01  0.10207372153E+01  0.10204736926E+01 0.  0.
     999903    2    3    3    0    0  0.98613688786E-01  0.67821762847E-01  0.51235565004E-01  0.13181154472E+00  0.20609441270E-01 0.  0.
         14    1    1    2    0    0 -0.45292816788E-03 -0.20312917622E-01  0.11184162828E-01  0.23192784749E-01  0.00000000000E+00 0. -1.
     999901    1    3    3    0    0 -0.98160760618E-01 -0.47508845225E-01 -0.62419727832E-01  0.88892567053E+00  0.88000000000E+00 0. -1.
        -11    1    4    4    0    0  0.35657713659E-01  0.13166082302E-01  0.17970924194E-01  0.42047990487E-01  0.51100000000E-03 0.  1.
         11    1    4    4    0    0  0.62955975126E-01  0.54655680545E-01  0.33264640810E-01  0.89763554237E-01  0.51100000000E-03 0. -1.
</event>
<event>
 8    1  0.1123470E+005  0.1043930E+01  0.7957747E-01            NaN
         13   -1    0    0    0    0  0.00000000000E+00  0.00000000000E+00  0.74505805969E-08  0.10566000000E+00  0.10566000000E+00 0. -1.
     999900   -1    0    0    0    0 -0.00000000000E+00 -0.00000000000E+00 -0.74505805969E-08  0.93827000000E+00  0.93827000000E+00 0. -1.
     999902    2    1    2    0    0 -0.93537583758E-02 -0.79525386716E-02  0.16358535423E-01  0.10234767032E+01  0.10232723121E+01 0.  0.
     999903    2    3    3    0    0  0.58206104769E-01 -0.10373747670E+00  0.59442939533E-01  0.13465987434E+00  0.21222723503E-01 0.  0.
         14    1    1    2    0    0  0.93537583758E-02  0.79525386716E-02 -0.16358535423E-01  0.20453296758E-01  0.00000000000E+00 0.  1.
     999901    1    3    3    0    0 -0.67559863145E-01  0.95784938027E-01 -0.43084404110E-01  0.88881682890E+00  0.88000000000E+00 0.  1.
        -11    1    4    4    0    0  0.50367708159E-01 -0.76204767471E-01  0.51858143547E-01  0.10504094813E+00  0.51100000000E-03 0.  1.
         11    1    4    4    0    0  0.78383966097E-02 -0.27532709228E-01  0.75847959862E-02  0.29618926213E-01  0.51100000000E-03 0. -1.
</event>
<event>
 8    1  0.1123470E+005  0.1043930E+01  0.7957747E-01            NaN
         13   -1    0    0    0    0  0.00000000000E+00  0.00000000000E+00  0.74505805969E-08  0.10566000000E+00  0.10566000000E+00 0. -1.
     999900   -1    0    0    0    0 -0.00000000000E+00 -0.00000000000E+00 -0.74505805969E-08  0.93827000000E+00  0.93827000000E+00 0.  1.
     999902    2    1    2    0    0  0.84737784927E-02 -0.54288875564E-02 -0.16741738761E-01  0.10243963480E+01  0.10242100929E+01 0.  0.
     999903    2    3    3    0    0 -0.95266087878E-01  0.32433135068E-01 -0.87490198933E-01  0.13467682075E+00  0.18862009107E-01 0.  0.
         14    1    1    2    0    0 -0.84737784927E-02  0.54288875564E-02  0.16741738761E-01  0.19533651957E-01  0.00000000000E+00 0. -1.
     999901    1    3    3    0    0  0.10373986637E+00 -0.37862022624E-01  0.70748460172E-01  0.88971952729E+00  0.88000000000E+00 0. -1.
        -11    1    4    4    0    0 -0.22588596227E-01  0.15036873961E-01 -0.17540522072E-01  0.32315372403E-01  0.51100000000E-03 0. -1.
         11    1    4    4    0    0 -0.72677491652E-01  0.17396261107E-01 -0.69949676861E-01  0.10236144834E+00  0.51100000000E-03 0.  1.
</event>
<event>
 8    1  0.1123470E+005  0.1043930E+01  0.7957747E-01            NaN
         13   -1    0    0    0    0  0.00000000000E+00  0.00000000000E+00  0.74505805969E-08  0.10566000000E+00  0.10566000000E+00 0.  1.
     999900   -1    0    0    0    0 -0.00000000000E+00 -0.00000000000E+00 -0.74505805969E-08  0.93827000000E+00  0.93827000000E+00 0. -1.
     999902    2    1    2    0    0  0.11427375594E-01 -0.84601481712E-02 -0.19479147885E-01  0.10198136938E+01  0.10195285057E+01 0.  0.
     999903    2    3    3    0    0 -0.55589292138E-02 -0.27436797195E-01  0.12298008082E+00  0.12799348798E+00  0.21784240927E-01 0.  0.
         14    1    1    2    0    0 -0.11427375594E-01  0.84601481712E-02  0.19479147885E-01  0.24116306151E-01  0.00000000000E+00 0.  1.
     999901    1    3    3    0    0  0.16986304808E-01  0.18976649024E-01 -0.14245922870E+00  0.89182020587E+00  0.88000000000E+00 0. -1.
        -11    1    4    4    0    0 -0.10877787424E-01 -0.96875392292E-02  0.77891548197E-01  0.79243479713E-01  0.51100000000E-03 0. -1.
         11    1    4    4    0    0  0.53188582104E-02 -0.17749257965E-01  0.45088532618E-01  0.48750008263E-01  0.51100000000E-03 0.  1.
</event>
<event>
 8    1  0.1123470E+005  0.1043930E+01  0.7957747E-01            NaN
         13   -1    0    0    0    0  0.00000000000E+00  0.00000000000E+00  0.74505805969E-08  0.10566000000E+00  0.10566000000E+00 0.  1.
     999900   -1    0    0    0    0 -0.00000000000E+00 -0.00000000000E+00 -0.74505805969E-08  0.93827000000E+00  0.93827000000E+00 0. -1.
     999902    2    1    2    0    0 -0.19572858300E-01 -0.15173303315E-01  0.69073144066E-03  0.10191549516E+01  0.10188537737E+01 0.  0.
     999903    2    3    3    0    0  0.15903745963E-01 -0.12838483473E+00  0.30441757717E-02  0.13119043706E+00  0.21588627699E-01 0.  0.
         14    1    1    2    0    0  0.19572858300E-01  0.15173303315E-01 -0.69073144066E-03  0.24775048445E-01  0.00000000000E+00 0. -1.
     999901    1    3    3    0    0 -0.35476604263E-01  0.11321153142E+00 -0.23534443310E-02  0.88796451449E+00  0.88000000000E+00 0.  1.
        -11    1    4    4    0    0  0.12549785260E-01 -0.73756453845E-01  0.11856640872E-01  0.75751915142E-01  0.51100000000E-03 0.  1.
         11    1    4    4    0    0  0.33539607035E-02 -0.54628380887E-01 -0.88124651002E-02  0.55438521921E-01  0.51100000000E-03 0. -1.
</event>
<event>
 8    1  0.1123470E+005  0.1043930E+01  0.7957747E-01            NaN
         13   -1    0    0    0    0  0.00000000000E+00  0.00000000000E+00  0.74505805969E-08  0.10566000000E+00  0.10566000000E+00 0. -1.
     999900   -1    0    0    0    0 -0.00000000000E+00 -0.00000000000E+00 -0.74505805969E-08  0.93827000000E+00  0.93827000000E+00 0.  1.
     999902    2    1    2    0    0  0.94080716190E-02 -0.20044662604E-01 -0.91265579951E-02  0.10199801697E+01  0.10196989518E+01 0.  0.
     999903    2    3    3    0    0 -0.85866953526E-01 -0.81350554454E-01 -0.53966325167E-01  0.13158479178E+00  0.20276754124E-01 0.  0.
         14    1    1    2    0    0 -0.94080716190E-02  0.20044662604E-01  0.91265579951E-02  0.23949830299E-01  0.00000000000E+00 0.  1.
     999901    1    3    3    0    0  0.95275025145E-01  0.61305891850E-01  0.44839767172E-01  0.88839537792E+00  0.88000000000E+00 0.  1.
        -11    1    4    4    0    0 -0.11107019863E-01 -0.11792880593E-01 -0.26601649492E-03  0.16210176085E-01  0.51100000000E-03 0.  1.
         11    1    4    4    0    0 -0.74759933663E-01 -0.69557673861E-01 -0.53700308672E-01  0.11537461569E+00  0.51100000000E-03 0. -1.
</event>
<event>
 8    1  0.1123470E+005  0.1043930E+01  0.7957747E-01            NaN
         13   -1    0    0    0    0  0.00000000000E+00  0.00000000000E+00  0.74505805969E-08  0.10566000000E+00  0.10566000000E+00 0. -1.
     999900   -1    0    0    0    0 -0.00000000000E+00 -0.00000000000E+00 -0.74505805969E-08  0.93827000000E+00  0.93827000000E+00 0.  1.
     999902    2    1    2    0    0  0.78344668652E-02  0.22686185938E-02 -0.22223224562E-01  0.10202572897E+01  0.10199826175E+01 0.  0.
     999903    2    3    3    0    0 -0.20401059760E-01  0.10268751170E+00 -0.78027527071E-01  0.13234101033E+00  0.21561997493E-01 0.  0.
         14    1    1    2    0    0 -0.78344668652E-02 -0.22686185938E-02  0.22223224562E-01  0.23672710266E-01  0.00000000000E+00 0. -1.
     999901    1    3    3    0    0  0.28235526625E-01 -0.10041889310E+00  0.55804302508E-01  0.88791627941E+00  0.88000000000E+00 0. -1.
        -11    1    4    4    0    0 -0.15220765347E-01  0.27104150362E-01 -0.21077033312E-01  0.37560739061E-01  0.51100000000E-03 0.  1.
         11    1    4    4    0    0 -0.51802944128E-02  0.75583361336E-01 -0.56950493759E-01  0.94780271267E-01  0.51100000000E-03 0. -1.
</event>
<event>
 8    1  0.1123470E+005  0.1043930E+01  0.7957747E-01            NaN
         13   -1    0    0    0    0  0.00000000000E+00  0.00000000000E+00  0.74505805969E-08  0.10566000000E+00  0.10566000000E+00 0.  1.
     999900   -1    0    0    0    0 -0.00000000000E+00 -0.00000000000E+00 -0.74505805969E-08  0.93827000000E+00  0.93827000000E+00 0. -1.
     999902    2    1    2    0    0  0.56968899951E-02  0.52003800876E-02  0.21619704146E-01  0.10209754772E+01  0.10207174021E+01 0.  0.
     999903    2    3    3    0    0  0.12360896255E-01  0.76843561340E-01  0.10722533817E+00  0.13389854765E+00  0.19334509113E-01 0.  0.
         14    1    1    2    0    0 -0.56968899951E-02 -0.52003800876E-02 -0.21619704146E-01  0.22954522780E-01  0.00000000000E+00 0. -1.
     999901    1    3    3    0    0 -0.66640062603E-02 -0.71643181252E-01 -0.85605634019E-01  0.88707692957E+00  0.88000000000E+00 0. -1.
        -11    1    4    4    0    0  0.92747944546E-02  0.68590862444E-01  0.82758839327E-01  0.10788890041E+00  0.51100000000E-03 0. -1.
         11    1    4    4    0    0  0.30861018009E-02  0.82526988953E-02  0.24466498839E-01  0.26009647245E-01  0.51100000000E-03 0.  1.
</event>
<event>
 8    1  0.1123470E+005  0.1043930E+01  0.7957747E-01            NaN
         13   -1    0    0    0    0  0.00000000000E+00  0.00000000000E+00  0.74505805969E-08  0.10566000000E+00  0.10566000000E+00 0. -1.
     999900   -1    0    0    0    0 -0.00000000000E+00 -0.00000000000E+00 -0.74505805969E-08  0.93827000000E+00  0.93827000000E+00 0.  1.
     999902    2    1    2    0    0 -0.11236540022E-01  0.57883333221E-02 -0.19409195359E-01  0.10207679297E+01  0.10205051126E+01 0.  0.
     999903    2    3    3    0    0  0.31927381958E-01  0.13102672159E-01  0.12204059299E+00  0.12839767792E+00  0.20025474288E-01 0.  0.
         14    1    1    2    0    0  0.11236540022E-01 -0.57883333221E-02  0.19409195359E-01  0.23162070262E-01  0.00000000000E+00 0. -1.
     999901    1    3    3    0    0 -0.43163921980E-01 -0.73143388365E-02 -0.14144978835E+00  0.89237025182E+00  0.88000000000E+00 0.  1.
        -11    1    4    4    0    0  0.18188651349E-01  0.12475889246E-01  0.44767282619E-01  0.49908371687E-01  0.51100000000E-03 0. -1.
         11    1    4    4    0    0  0.13738730609E-01  0.62678291240E-03  0.77273310371E-01  0.78489306229E-01  0.51100000000E-03 0.  1.
</event>
<event>
 8    1  0.1123470E+005  0.1043930E+01  0.7957747E-01            NaN
         13   -1    0    0    0    0  0.00000000000E+00  0.00000000000E+00  0.74505805969E-08  0.10566000000E+00  0.10566000000E+00 0. -1.
     999900   -1    0    0    0    0 -0.00000000000E+00 -0.00000000000E+00 -0.74505805969E-08  0.93827000000E+00  0.93827000000E+00 0.  1.
     999902    2    1    2    0    0  0.24401072957E-02 -0.22027053691E-01 -0.69566949881E-02  0.10207019819E+01  0.10204376488E+01 0.  0.
     999903    2    3    3    0    0  0.62229955333E-01 -0.45353267679E-02 -0.11303833007E+00  0.13214466823E+00  0.28132059063E-01 0.  0.
         14    1    1    2    0    0 -0.24401072957E-02  0.22027053691E-01  0.69566949881E-02  0.23228018062E-01  0.00000000000E+00 0. -1.
     999901    1    3    3    0    0 -0.59789848037E-01 -0.17491726923E-01  0.10608163508E+00  0.88855731371E+00  0.88000000000E+00 0. -1.
        -11    1    4    4    0    0  0.33356689733E-01 -0.25226827727E-03 -0.32902922213E-01  0.46857185152E-01  0.51100000000E-03 0. -1.
         11    1    4    4    0    0  0.28873265600E-01 -0.42830584907E-02 -0.80135407859E-01  0.85287483080E-01  0.51100000000E-03 0.  1.
</event>
<event>
 8    1  0.1123470E+005  0.1043930E+01  0.7957747E-01            NaN
         13   -1    0    0    0    0  0.00000000000E+00  0.00000000000E+00  0.74505805969E-08  0.10566000000E+00  0.10566000000E+00 0.  1.
     999900   -1    0    0    0    0 -0.00000000000E+00 -0.00000000000E+00 -0.74505805969E-08  0.93827000000E+00  0.93827000000E+00 0.  1.
     999902    2    1    2    0    0 -0.19606746018E-01 -0.12033044764E-01 -0.45066284438E-02  0.10204879788E+01  0.10202186955E+01 0.  0.
     999903    2    3    3    0    0 -0.67321193107E-01  0.88675790261E-01  0.65140023691E-01  0.13072981279E+00  0.21249057536E-01 0.  0.
         14    1    1    2    0    0  0.19606746018E-01  0.12033044764E-01  0.45066284438E-02  0.23442021151E-01  0.00000000000E+00 0.  1.
     999901    1    3    3    0    0  0.47714447089E-01 -0.10070883503E+00 -0.69646652134E-01  0.88975816606E+00  0.88000000000E+00 0.  1.
        -11    1    4    4    0    0 -0.52370982430E-01  0.74261300789E-01  0.43550363560E-01  0.10076882396E+00  0.51100000000E-03 0. -1.
         11    1    4    4    0    0 -0.14950210677E-01  0.14414489472E-01  0.21589660131E-01  0.29960988829E-01  0.51100000000E-03 0.  1.
</event>
<event>
 8    1  0.1123470E+005  0.1043930E+01  0.7957747E-01            NaN
         13   -1    0    0    0    0  0.00000000000E+00  0.00000000000E+00  0.74505805969E-08  0.10566000000E+00  0.10566000000E+00 0. -1.
     999900   -1    0    0    0    0 -0.00000000000E+00 -0.00000000000E+00 -0.74505805969E-08  0.93827000000E+00  0.93827000000E+00 0. -1.
     999902    2    1    2    0    0  0.86980407350E-02  0.16158505621E-01  0.14647959453E-01  0.10204498822E+01  0.10201797127E+01 0.  0.
     999903    2    3    3    0    0  0.74677725416E-01 -0.92594271017E-01  0.50065514217E-01  0.13059883375E+00  0.19975934625E-01 0.  0.
         14    1    1    2    0    0 -0.86980407350E-02 -0.16158505621E-01 -0.14647959453E-01  0.23480117816E-01  0.00000000000E+00 0.  1.
     999901    1    3    3    0    0 -0.65979684681E-01  0.10875277664E+00 -0.35417554765E-01  0.88985104844E+00  0.88000000000E+00 0.  1.
        -11    1    4    4    0    0  0.50493872998E-01 -0.63213826841E-01  0.23718063174E-01  0.84311486500E-01  0.51100000000E-03 0. -1.
         11    1    4    4    0    0  0.24183852418E-01 -0.29380444176E-01  0.26347451043E-01  0.46287347248E-01  0.51100000000E-03 0.  1.
</event>
<event>
 8    1  0.1123470E+005  0.1043930E+01  0.7957747E-01            NaN
         13   -1    0    0    0    0  0.00000000000E+00  0.00000000000E+00  0.74505805969E-08  0.10566000000E+00  0.10566000000E+00 0. -1.
     999900   -1    0    0    0    0 -0.00000000000E+00 -0.00000000000E+00 -0.74505805969E-08  0.93827000000E+00  0.93827000000E+00 0.  1.
     999902    2    1    2    0    0 -0.18162168409E-01 -0.14339374971E-01 -0.40279139325E-02  0.10204415746E+01  0.10201712117E+01 0.  0.
     999903    2    3    3    0    0  0.30186518606E-01 -0.46634126605E-01 -0.11727137384E+00  0.13128206828E+00  0.19910767437E-01 0.  0.
         14    1    1    2    0    0  0.18162168409E-01  0.14339374971E-01  0.40279139325E-02  0.23488425373E-01  0.00000000000E+00 0.  1.
     999901    1    3    3    0    0 -0.48348687015E-01  0.32294751635E-01  0.11324345990E+00  0.88915950635E+00  0.88000000000E+00 0. -1.
        -11    1    4    4    0    0  0.17049668010E-01 -0.30439510277E-01 -0.50912123004E-01  0.61721636036E-01  0.51100000000E-03 0.  1.
         11    1    4    4    0    0  0.13136850596E-01 -0.16194616328E-01 -0.66359250833E-01  0.69560432242E-01  0.51100000000E-03 0. -1.
</event>
<event>
 8    1  0.1123470E+005  0.1043930E+01  0.7957747E-01            NaN
         13   -1    0    0    0    0  0.00000000000E+00  0.00000000000E+00  0.74505805969E-08  0.10566000000E+00  0.10566000000E+00 0. -1.
     999900   -1    0    0    0    0 -0.00000000000E+00 -0.00000000000E+00 -0.74505805969E-08  0.93827000000E+00  0.93827000000E+00 0.  1.
     999902    2    1    2    0    0 -0.57452448244E-02  0.13344905012E-01  0.20309737674E-01  0.10189584207E+01  0.10186523859E+01 0.  0.
     999903    2    3    3    0    0 -0.82518129728E-02 -0.10898144131E+00  0.66264910541E-01  0.12930573803E+00  0.19593074077E-01 0.  0.
         14    1    1    2    0    0  0.57452448244E-02 -0.13344905012E-01 -0.20309737674E-01  0.24971579290E-01  0.00000000000E+00 0.  1.
     999901    1    3    3    0    0  0.25065681484E-02  0.12232634632E+00 -0.45955172867E-01  0.88965268268E+00  0.88000000000E+00 0. -1.
        -11    1    4    4    0    0 -0.50136256648E-02 -0.33781700504E-01  0.31228690844E-01  0.46279930684E-01  0.51100000000E-03 0. -1.
         11    1    4    4    0    0 -0.32381873080E-02 -0.75199740802E-01  0.35036219697E-01  0.83025807346E-01  0.51100000000E-03 0.  1.
</event>
<event>
 8    1  0.1123470E+005  0.1043930E+01  0.7957747E-01            NaN
         13   -1    0    0    0    0  0.00000000000E+00  0.00000000000E+00  0.74505805969E-08  0.10566000000E+00  0.10566000000E+00 0. -1.
     999900   -1    0    0    0    0 -0.00000000000E+00 -0.00000000000E+00 -0.74505805969E-08  0.93827000000E+00  0.93827000000E+00 0. -1.
     999902    2    1    2    0    0 -0.22812447128E-01  0.26442353296E-03  0.41048965336E-03  0.10211123278E+01  0.10208573553E+01 0.  0.
     999903    2    3    3    0    0 -0.89560169056E-01  0.51735429949E-01 -0.81548946074E-01  0.13329372469E+00  0.20479449286E-01 0.  0.
         14    1    1    2    0    0  0.22812447128E-01 -0.26442353296E-03 -0.41048965336E-03  0.22817672220E-01  0.00000000000E+00 0. -1.
     999901    1    3    3    0    0  0.66747721928E-01 -0.51471006416E-01  0.81959435728E-01  0.88781860309E+00  0.88000000000E+00 0.  1.
        -11    1    4    4    0    0 -0.21990439258E-02  0.60055777665E-02 -0.81241296826E-02  0.10352070450E-01  0.51100000000E-03 0. -1.
         11    1    4    4    0    0 -0.87361125130E-01  0.45729852182E-01 -0.73424816392E-01  0.12294165424E+00  0.51100000000E-03 0.  1.
</event>
<event>
 8    1  0.1123470E+005  0.1043930E+01  0.7957747E-01            NaN
         13   -1    0    0    0    0  0.00000000000E+00  0.00000000000E+00  0.74505805969E-08  0.10566000000E+00  0.10566000000E+00 0.  1.
     999900   -1    0    0    0    0 -0.00000000000E+00 -0.00000000000E+00 -0.74505805969E-08  0.93827000000E+00  0.93827000000E+00 0.  1.
     999902    2    1    2    0    0  0.97192758303E-02 -0.22765419108E-02  0.21777625757E-01  0.10199735406E+01  0.10196921651E+01 0.  0.
     999903    2    3    3    0    0  0.11781128176E+00  0.13493344048E-01 -0.50193375432E-01  0.13030371637E+00  0.19952822323E-01 0.  0.
         14    1    1    2    0    0 -0.97192758303E-02  0.22765419108E-02 -0.21777625757E-01  0.23956459449E-01  0.00000000000E+00 0. -1.
     999901    1    3    3    0    0 -0.10809200593E+00 -0.15769885959E-01  0.71971001189E-01  0.88966982418E+00  0.88000000000E+00 0.  1.
        -11    1    4    4    0    0  0.47454135277E-01  0.15280870425E-01 -0.21654090160E-01  0.54355870865E-01  0.51100000000E-03 0. -1.
         11    1    4    4    0    0  0.70357146482E-01 -0.17875263774E-02 -0.28539285272E-01  0.75947845503E-01  0.51100000000E-03 0.  1.
</event>
<event>
 8    1  0.1123470E+005  0.1043930E+01  0.7957747E-01            NaN
         13   -1    0    0    0    0  0.00000000000E+00  0.00000000000E+00  0.74505805969E-08  0.10566000000E+00  0.10566000000E+00 0.  1.
     999900   -1    0    0    0    0 -0.00000000000E+00 -0.00000000000E+00 -0.74505805969E-08  0.93827000000E+00  0.93827000000E+00 0. -1.
     999902    2    1    2    0    0 -0.79453627541E-03  0.23578043702E-01  0.91165179164E-02  0.10186383743E+01  0.10183243448E+01 0.  0.
     999903    2    3    3    0    0 -0.74090306436E-01 -0.99206360921E-01  0.20045430799E-01  0.12702875058E+00  0.20080055326E-01 0.  0.
         14    1    1    2    0    0  0.79453627541E-03 -0.23578043702E-01 -0.91165179164E-02  0.25291625722E-01  0.00000000000E+00 0.  1.
     999901    1    3    3    0    0  0.73295770161E-01  0.12278440462E+00 -0.10928912883E-01  0.89160962370E+00  0.88000000000E+00 0.  1.
        -11    1    4    4    0    0 -0.47294200248E-01 -0.72763401384E-01  0.21292187959E-01  0.89358112934E-01  0.51100000000E-03 0.  1.
         11    1    4    4    0    0 -0.26796106188E-01 -0.26442959537E-01 -0.12467571594E-02  0.37670637642E-01  0.51100000000E-03 0. -1.
</event>
<event>
 8    1  0.1123470E+005  0.1043930E+01  0.7957747E-01            NaN
         13   -1    0    0    0    0  0.00000000000E+00  0.00000000000E+00  0.74505805969E-08  0.10566000000E+00  0.10566000000E+00 0.  1.
     999900   -1    0    0    0    0 -0.00000000000E+00 -0.00000000000E+00 -0.74505805969E-08  0.93827000000E+00  0.93827000000E+00 0.  1.
     999902    2    1    2    0    0 -0.14528539690E-01  0.18122032661E-01 -0.54070571166E-02  0.10200820902E+01  0.10198032889E+01 0.  0.
     999903    2    3    3    0    0  0.38316116073E-01  0.12485595008E+00 -0.30621140657E-03  0.13204453169E+00  0.19455887622E-01 0.  0.
         14    1    1    2    0    0  0.14528539690E-01 -0.18122032661E-01  0.54070571166E-02  0.23847909761E-01  0.00000000000E+00 0.  1.
     999901    1    3    3    0    0 -0.52844655763E-01 -0.10673391741E+00 -0.51008457100E-02  0.88803755855E+00  0.88000000000E+00 0. -1.
        -11    1    4    4    0    0  0.20666317176E-01  0.39829631745E-01 -0.45200612731E-02  0.45101976736E-01  0.51100000000E-03 0.  1.
         11    1    4    4    0    0  0.17649798897E-01  0.85026318331E-01  0.42138498665E-02  0.86942554953E-01  0.51100000000E-03 0. -1.
</event>
<event>
 8    1  0.1123470E+005  0.1043930E+01  0.7957747E-01            NaN
         13   -1    0    0    0    0  0.00000000000E+00  0.00000000000E+00  0.74505805969E-08  0.10566000000E+00  0.10566000000E+00 0. -1.
     999900   -1    0    0    0    0 -0.00000000000E+00 -0.00000000000E+00 -0.74505805969E-08  0.93827000000E+00  0.93827000000E+00 0.  1.
     999902    2    1    2    0    0 -0.21529647292E-02  0.36552999893E-02  0.23963249144E-01  0.10195941461E+01  0.10193036785E+01 0.  0.
     999903    2    3    3    0    0  0.94300450894E-01  0.85326116309E-01  0.20517115183E-01  0.13055800541E+00  0.21244283897E-01 0.  0.
         14    1    1    2    0    0  0.21529647292E-02 -0.36552999893E-02 -0.23963249144E-01  0.24335853893E-01  0.00000000000E+00 0.  1.
     999901    1    3    3    0    0 -0.96453415623E-01 -0.81670816320E-01  0.34461339611E-02  0.88903614070E+00  0.88000000000E+00 0.  1.
        -11    1    4    4    0    0  0.37041545340E-01  0.31337459045E-01  0.18204507324E-01  0.51824488694E-01  0.51100000000E-03 0. -1.
         11    1    4    4    0    0  0.57258905555E-01  0.53988657265E-01  0.23126078593E-02  0.78733516717E-01  0.51100000000E-03 0.  1.
</event>
<event>
 8    1  0.1123470E+005  0.1043930E+01  0.7957747E-01            NaN
         13   -1    0    0    0    0  0.00000000000E+00  0.00000000000E+00  0.74505805969E-08  0.10566000000E+00  0.10566000000E+00 0.  1.
     999900   -1    0    0    0    0 -0.00000000000E+00 -0.00000000000E+00 -0.74505805969E-08  0.93827000000E+00  0.93827000000E+00 0.  1.
     999902    2    1    2    0    0  0.60751117523E-02 -0.19950548050E-01 -0.12519131620E-01  0.10196059377E+01  0.10193157549E+01 0.  0.
     999903    2    3    3    0    0 -0.25471349311E-01  0.13591639459E-01 -0.12631658644E+00  0.13108462773E+00  0.19843823168E-01 0.  0.
         14    1    1    2    0    0 -0.60751117523E-02  0.19950548050E-01  0.12519131620E-01  0.24324062301E-01  0.00000000000E+00 0. -1.
     999901    1    3    3    0    0  0.31546461063E-01 -0.33542187510E-01  0.11379745482E+00  0.88852130997E+00  0.88000000000E+00 0. -1.
        -11    1    4    4    0    0 -0.97736799544E-02  0.57499979622E-02 -0.90374747397E-01  0.91084814236E-01  0.51100000000E-03 0. -1.
         11    1    4    4    0    0 -0.15697669356E-01  0.78416414972E-02 -0.35941839043E-01  0.39999813492E-01  0.51100000000E-03 0.  1.
</event>
<event>
 8    1  0.1123470E+005  0.1043930E+01  0.7957747E-01            NaN
         13   -1    0    0    0    0  0.00000000000E+00  0.00000000000E+00  0.74505805969E-08  0.10566000000E+00  0.10566000000E+00 0. -1.
     999900   -1    0    0    0    0 -0.00000000000E+00 -0.00000000000E+00 -0.74505805969E-08  0.93827000000E+00  0.93827000000E+00 0.  1.
     999902    2    1    2    0    0  0.18769142389E-01  0.17205828152E-01 -0.15306973358E-01  0.10142210003E+01  0.10137857825E+01 0.  0.
     999903    2    3    3    0    0 -0.78524545744E-01 -0.87614803291E-01  0.24138313679E-01  0.12180329700E+00  0.20271332810E-01 0.  0.
         14    1    1    2    0    0 -0.18769142389E-01 -0.17205828152E-01  0.15306973358E-01  0.29708999677E-01  0.00000000000E+00 0. -1.
     999901    1    3    3    0    0  0.97293688133E-01  0.10482063144E+00 -0.39445287037E-01  0.89241770332E+00  0.88000000000E+00 0.  1.
        -11    1    4    4    0    0 -0.66852336129E-01 -0.63154981530E-01  0.14908973692E-01  0.93168262598E-01  0.51100000000E-03 0.  1.
         11    1    4    4    0    0 -0.11672209615E-01 -0.24459821761E-01  0.92293399869E-02  0.28635034406E-01  0.51100000000E-03 0. -1.
</event>
<event>
 8    1  0.1123470E+005  0.1043930E+01  0.7957747E-01            NaN
         13   -1    0    0    0    0  0.00000000000E+00  0.00000000000E+00  0.74505805969E-08  0.10566000000E+00  0.10566000000E+00 0.  1.
     999900   -1    0    0    0    0 -0.00000000000E+00 -0.00000000000E+00 -0.74505805969E-08  0.93827000000E+00  0.93827000000E+00 0.  1.
     999902    2    1    2    0    0 -0.44535431236E-02  0.20916500826E-01 -0.97175143763E-02  0.10204403397E+01  0.10201699480E+01 0.  0.
     999903    2    3    3    0    0  0.10954149137E+00  0.40854295934E-01 -0.57037777913E-01  0.13160312692E+00  0.19941491399E-01 0.  0.
         14    1    1    2    0    0  0.44535431236E-02 -0.20916500826E-01  0.97175143763E-02  0.23489660254E-01  0.00000000000E+00 0.  1.
     999901    1    3    3    0    0 -0.11399503449E+00 -0.19937795108E-01  0.47320263537E-01  0.88883721283E+00  0.88000000000E+00 0. -1.
        -11    1    4    4    0    0  0.93824430862E-02  0.98531048620E-02 -0.86257994846E-02  0.16117675125E-01  0.51100000000E-03 0.  1.
         11    1    4    4    0    0  0.10015904828E+00  0.31001191072E-01 -0.48411978428E-01  0.11548545180E+00  0.51100000000E-03 0. -1.
</event>
<event>
 8    1  0.1123470E+005  0.1043930E+01  0.7957747E-01            NaN
         13   -1    0    0    0    0  0.00000000000E+00  0.00000000000E+00  0.74505805969E-08  0.10566000000E+00  0.10566000000E+00 0.  1.
     999900   -1    0    0    0    0 -0.00000000000E+00 -0.00000000000E+00 -0.74505805969E-08  0.93827000000E+00  0.93827000000E+00 0.  1.
     999902    2    1    2    0    0  0.16826858175E-01  0.15849157464E-01  0.66323020478E-02  0.10198815826E+01  0.10195980170E+01 0.  0.
     999903    2    3    3    0    0  0.87893281089E-01  0.11300398603E-02  0.96896988008E-01  0.13229226180E+00  0.19639511107E-01 0.  0.
         14    1    1    2    0    0 -0.16826858175E-01 -0.15849157464E-01 -0.66323020478E-02  0.24048417387E-01  0.00000000000E+00 0. -1.
     999901    1    3    3    0    0 -0.71066422914E-01  0.14719117603E-01 -0.90264685961E-01  0.88758932081E+00  0.88000000000E+00 0.  1.
        -11    1    4    4    0    0  0.13052157700E-01  0.38902723291E-03  0.26473842307E-01  0.29523475580E-01  0.51100000000E-03 0. -1.
         11    1    4    4    0    0  0.74841123389E-01  0.74101262741E-03  0.70423145702E-01  0.10276878622E+00  0.51100000000E-03 0.  1.
</event>
<event>
 8    1  0.1123470E+005  0.1043930E+01  0.7957747E-01            NaN
         13   -1    0    0    0    0  0.00000000000E+00  0.00000000000E+00  0.74505805969E-08  0.10566000000E+00  0.10566000000E+00 0.  1.
     999900   -1    0    0    0    0 -0.00000000000E+00 -0.00000000000E+00 -0.74505805969E-08  0.93827000000E+00  0.93827000000E+00 0.  1.
     999902    2    1    2    0    0  0.39011614743E-02  0.19403240102E-01  0.14385569055E-01  0.10194626874E+01  0.10191690349E+01 0.  0.
     999903    2    3    3    0    0 -0.59115028001E-01  0.10720246489E-01  0.11525154889E+00  0.13141968149E+00  0.19460291357E-01 0.  0.
         14    1    1    2    0    0 -0.39011614743E-02 -0.19403240102E-01 -0.14385569055E-01  0.24467312569E-01  0.00000000000E+00 0.  1.
     999901    1    3    3    0    0  0.63016189475E-01  0.86829936129E-02 -0.10086597984E+00  0.88804300594E+00  0.88000000000E+00 0.  1.
        -11    1    4    4    0    0 -0.51895725562E-01  0.45884471015E-02  0.10627938223E+00  0.11836295192E+00  0.51100000000E-03 0.  1.
         11    1    4    4    0    0 -0.72193024391E-02  0.61317993876E-02  0.89721666629E-02  0.13056729570E-01  0.51100000000E-03 0. -1.
</event>
<event>
 8    1  0.1123470E+005  0.1043930E+01  0.7957747E-01            NaN
         13   -1    0    0    0    0  0.00000000000E+00  0.00000000000E+00  0.74505805969E-08  0.10566000000E+00  0.10566000000E+00 0.  1.
     999900   -1    0    0    0    0 -0.00000000000E+00 -0.00000000000E+00 -0.74505805969E-08  0.93827000000E+00  0.93827000000E+00 0. -1.
     999902    2    1    2    0    0 -0.14880510963E-01  0.16565741798E-01  0.36449577574E-02  0.10213658886E+01  0.10211166139E+01 0.  0.
     999903    2    3    3    0    0 -0.98156420994E-01  0.26858286247E-01  0.83854250906E-01  0.13374302700E+00  0.22351987694E-01 0.  0.
         14    1    1    2    0    0  0.14880510963E-01 -0.16565741798E-01 -0.36449577574E-02  0.22564111436E-01  0.00000000000E+00 0.  1.
     999901    1    3    3    0    0  0.83275910031E-01 -0.10292544449E-01 -0.80209293148E-01  0.88762286156E+00  0.88000000000E+00 0. -1.
        -11    1    4    4    0    0 -0.46626678384E-01  0.68013345727E-02  0.50928272443E-01  0.69384835116E-01  0.51100000000E-03 0. -1.
         11    1    4    4    0    0 -0.51529742610E-01  0.20056951674E-01  0.32925978463E-01  0.64358191884E-01  0.51100000000E-03 0.  1.
</event>
<event>
 8    1  0.1123470E+005  0.1043930E+01  0.7957747E-01            NaN
         13   -1    0    0    0    0  0.00000000000E+00  0.00000000000E+00  0.74505805969E-08  0.10566000000E+00  0.10566000000E+00 0.  1.
     999900   -1    0    0    0    0 -0.00000000000E+00 -0.00000000000E+00 -0.74505805969E-08  0.93827000000E+00  0.93827000000E+00 0. -1.
     999902    2    1    2    0    0 -0.90971090428E-03 -0.22154969991E-01 -0.23557925420E-01  0.10115780894E+01  0.10110606237E+01 0.  0.
     999903    2    3    3    0    0 -0.11974264671E+00 -0.40677386569E-02 -0.23926144337E-01  0.12340662501E+00  0.17374889252E-01 0.  0.
         14    1    1    2    0    0  0.90971090428E-03  0.22154969991E-01  0.23557925420E-01  0.32351910597E-01  0.00000000000E+00 0.  1.
     999901    1    3    3    0    0  0.11883293580E+00 -0.18087231334E-01  0.36821891755E-03  0.88817146439E+00  0.88000000000E+00 0.  1.
        -11    1    4    4    0    0 -0.22548828585E-01 -0.75151682843E-02 -0.35244648794E-02  0.24033526553E-01  0.51100000000E-03 0.  1.
         11    1    4    4    0    0 -0.97193818122E-01  0.34474296274E-02 -0.20401679458E-01  0.99373098461E-01  0.51100000000E-03 0. -1.
</event>
<event>
 8    1  0.1123470E+005  0.1043930E+01  0.7957747E-01            NaN
         13   -1    0    0    0    0  0.00000000000E+00  0.00000000000E+00  0.74505805969E-08  0.10566000000E+00  0.10566000000E+00 0.  1.
     999900   -1    0    0    0    0 -0.00000000000E+00 -0.00000000000E+00 -0.74505805969E-08  0.93827000000E+00  0.93827000000E+00 0.  1.
     999902    2    1    2    0    0 -0.12616342571E-01 -0.96768613638E-02  0.19248721660E-01  0.10189634818E+01  0.10186575726E+01 0.  0.
     999903    2    3    3    0    0  0.90218381849E-01  0.86665372392E-01  0.16826621007E-01  0.12774932508E+00  0.19659900548E-01 0.  0.
         14    1    1    2    0    0  0.12616342571E-01  0.96768613638E-02 -0.19248721660E-01  0.24966518205E-01  0.00000000000E+00 0. -1.
     999901    1    3    3    0    0 -0.10283472442E+00 -0.96342233756E-01  0.24221006533E-02  0.89121415671E+00  0.88000000000E+00 0.  1.
        -11    1    4    4    0    0  0.53987342006E-01  0.57925632723E-01  0.19061062079E-01  0.81446898233E-01  0.51100000000E-03 0. -1.
         11    1    4    4    0    0  0.36231039843E-01  0.28739739670E-01 -0.22344410726E-02  0.46302426851E-01  0.51100000000E-03 0.  1.
</event>
<event>
 8    1  0.1123470E+005  0.1043930E+01  0.7957747E-01            NaN
         13   -1    0    0    0    0  0.00000000000E+00  0.00000000000E+00  0.74505805969E-08  0.10566000000E+00  0.10566000000E+00 0.  1.
     999900   -1    0    0    0    0 -0.00000000000E+00 -0.00000000000E+00 -0.74505805969E-08  0.93827000000E+00  0.93827000000E+00 0.  1.
     999902    2    1    2    0    0 -0.15319793450E-01 -0.45891483759E-02  0.17653142924E-01  0.10201100544E+01  0.10198319142E+01 0.  0.
     999903    2    3    3    0    0  0.34130219328E-01 -0.77801150967E-01  0.98925932284E-01  0.13195997282E+00  0.20228776169E-01 0.  0.
         14    1    1    2    0    0  0.15319793450E-01  0.45891483759E-02 -0.17653142924E-01  0.23819945618E-01  0.00000000000E+00 0. -1.
     999901    1    3    3    0    0 -0.49450012778E-01  0.73212002591E-01 -0.81272789360E-01  0.88815008156E+00  0.88000000000E+00 0.  1.
        -11    1    4    4    0    0  0.76876703631E-02 -0.42662847362E-01  0.48781742779E-01  0.65262074516E-01  0.51100000000E-03 0.  1.
         11    1    4    4    0    0  0.26442548965E-01 -0.35138303605E-01  0.50144189505E-01  0.66697898304E-01  0.51100000000E-03 0. -1.
</event>
<event>
 8    1  0.1123470E+005  0.1043930E+01  0.7957747E-01            NaN
         13   -1    0    0    0    0  0.00000000000E+00  0.00000000000E+00  0.74505805969E-08  0.10566000000E+00  0.10566000000E+00 0. -1.
     999900   -1    0    0    0    0 -0.00000000000E+00 -0.00000000000E+00 -0.74505805969E-08  0.93827000000E+00  0.93827000000E+00 0.  1.
     999902    2    1    2    0    0 -0.24896970480E-01  0.79058585432E-02 -0.13112663751E-02  0.10177750548E+01  0.10174389323E+01 0.  0.
     999903    2    3    3    0    0  0.58878277506E-01 -0.53821111381E-01  0.95879316155E-01  0.12632986843E+00  0.20075577155E-01 0.  0.
         14    1    1    2    0    0  0.24896970480E-01 -0.79058585432E-02  0.13112663751E-02  0.26154945190E-01  0.00000000000E+00 0.  1.
     999901    1    3    3    0    0 -0.83775247987E-01  0.61726969924E-01 -0.97190582530E-01  0.89144518638E+00  0.88000000000E+00 0.  1.
        -11    1    4    4    0    0  0.49842476404E-01 -0.34366702173E-01  0.66255521649E-01  0.89751868740E-01  0.51100000000E-03 0.  1.
         11    1    4    4    0    0  0.90358011021E-02 -0.19454409207E-01  0.29623794507E-01  0.36577999687E-01  0.51100000000E-03 0. -1.
</event>
<event>
 8    1  0.1123470E+005  0.1043930E+01  0.7957747E-01            NaN
         13   -1    0    0    0    0  0.00000000000E+00  0.00000000000E+00  0.74505805969E-08  0.10566000000E+00  0.10566000000E+00 0.  1.
     999900   -1    0    0    0    0 -0.00000000000E+00 -0.00000000000E+00 -0.74505805969E-08  0.93827000000E+00  0.93827000000E+00 0. -1.
     999902    2    1    2    0    0 -0.16488652635E-01  0.17460764744E-01 -0.31861885892E-02  0.10197038619E+01  0.10194160388E+01 0.  0.
     999903    2    3    3    0    0 -0.93150233670E-01  0.13172327681E-01 -0.90586605520E-01  0.13204727197E+00  0.19495452978E-01 0.  0.
         14    1    1    2    0    0  0.16488652635E-01 -0.17460764744E-01  0.31861885892E-02  0.24226138134E-01  0.00000000000E+00 0.  1.
     999901    1    3    3    0    0  0.76661581034E-01  0.42884370630E-02  0.87400416931E-01  0.88765658989E+00  0.88000000000E+00 0.  1.
        -11    1    4    4    0    0 -0.49937208438E-01  0.15745756082E-01 -0.43412721667E-01  0.68018961656E-01  0.51100000000E-03 0. -1.
         11    1    4    4    0    0 -0.43213025232E-01 -0.25734284010E-02 -0.47173883853E-01  0.64028310318E-01  0.51100000000E-03 0.  1.
</event>
<event>
 8    1  0.1123470E+005  0.1043930E+01  0.7957747E-01            NaN
         13   -1    0    0    0    0  0.00000000000E+00  0.00000000000E+00  0.74505805969E-08  0.10566000000E+00  0.10566000000E+00 0.  1.
     999900   -1    0    0    0    0 -0.00000000000E+00 -0.00000000000E+00 -0.74505805969E-08  0.93827000000E+00  0.93827000000E+00 0.  1.
     999902    2    1    2    0    0  0.14242557255E-01  0.18040101731E-01  0.36081612590E-02  0.10206638328E+01  0.10203986207E+01 0.  0.
     999903    2    3    3    0    0  0.46521396907E-01 -0.10591485575E+00 -0.54637855285E-01  0.12948520122E+00  0.19973108553E-01 0.  0.
         14    1    1    2    0    0 -0.14242557255E-01 -0.18040101731E-01 -0.36081612590E-02  0.23266167181E-01  0.00000000000E+00 0.  1.
     999901    1    3    3    0    0 -0.32278839652E-01  0.12395495749E+00  0.58246016544E-01  0.89117863160E+00  0.88000000000E+00 0. -1.
        -11    1    4    4    0    0  0.39437544256E-01 -0.73161193553E-01 -0.32107368354E-01  0.89101202925E-01  0.51100000000E-03 0. -1.
         11    1    4    4    0    0  0.70838526509E-02 -0.32753662202E-01 -0.22530486930E-01  0.40383998296E-01  0.51100000000E-03 0.  1.
</event>
<event>
 8    1  0.1123470E+005  0.1043930E+01  0.7957747E-01            NaN
         13   -1    0    0    0    0  0.00000000000E+00  0.00000000000E+00  0.74505805969E-08  0.10566000000E+00  0.10566000000E+00 0. -1.
     999900   -1    0    0    0    0 -0.00000000000E+00 -0.00000000000E+00 -0.74505805969E-08  0.93827000000E+00  0.93827000000E+00 0.  1.
     999902    2    1    2    0    0  0.18779724654E-01  0.99811233022E-02 -0.12032885289E-01  0.10194945502E+01  0.10192016712E+01 0.  0.
     999903    2    3    3    0    0 -0.23635573595E-01 -0.10915294963E+00  0.58493578863E-01  0.12766162466E+00  0.20074483596E-01 0.  0.
         14    1    1    2    0    0 -0.18779724654E-01 -0.99811233022E-02  0.12032885289E-01  0.24435449839E-01  0.00000000000E+00 0. -1.
     999901    1    3    3    0    0  0.42415298248E-01  0.11913407293E+00 -0.70526464152E-01  0.89183292550E+00  0.88000000000E+00 0.  1.
        -11    1    4    4    0    0 -0.14751602538E-01 -0.46196517725E-01  0.35288621788E-01  0.59977295504E-01  0.51100000000E-03 0.  1.
         11    1    4    4    0    0 -0.88839710565E-02 -0.62956431903E-01  0.23204957075E-01  0.67684329158E-01  0.51100000000E-03 0. -1.
</event>
<event>
 8    1  0.1123470E+005  0.1043930E+01  0.7957747E-01            NaN
         13   -1    0    0    0    0  0.00000000000E+00  0.00000000000E+00  0.74505805969E-08  0.10566000000E+00  0.10566000000E+00 0.  1.
     999900   -1    0    0    0    0 -0.00000000000E+00 -0.00000000000E+00 -0.74505805969E-08  0.93827000000E+00  0.93827000000E+00 0. -1.
     999902    2    1    2    0    0  0.10652863123E-01 -0.22659709284E-01  0.23707589262E-02  0.10187791269E+01  0.10184686265E+01 0.  0.
     999903    2    3    3    0    0 -0.46049404447E-01  0.33767424941E-01 -0.11251986421E+00  0.12771289826E+00  0.19725057748E-01 0.  0.
         14    1    1    2    0    0 -0.10652863123E-01  0.22659709284E-01 -0.23707589262E-02  0.25150873055E-01  0.00000000000E+00 0.  1.
     999901    1    3    3    0    0  0.56702267570E-01 -0.56427134224E-01  0.11489062313E+00  0.89106622869E+00  0.88000000000E+00 0.  1.
        -11    1    4    4    0    0 -0.32453782160E-01  0.15984070806E-01 -0.53469521892E-01  0.64559967382E-01  0.51100000000E-03 0. -1.
         11    1    4    4    0    0 -0.13595622287E-01  0.17783354134E-01 -0.59050342315E-01  0.63152930875E-01  0.51100000000E-03 0.  1.
</event>
<event>
 8    1  0.1123470E+005  0.1043930E+01  0.7957747E-01            NaN
         13   -1    0    0    0    0  0.00000000000E+00  0.00000000000E+00  0.74505805969E-08  0.10566000000E+00  0.10566000000E+00 0.  1.
     999900   -1    0    0    0    0 -0.00000000000E+00 -0.00000000000E+00 -0.74505805969E-08  0.93827000000E+00  0.93827000000E+00 0. -1.
     999902    2    1    2    0    0  0.13461721345E-01 -0.62406498341E-02 -0.17613951102E-01  0.10208992613E+01  0.10206394499E+01 0.  0.
     999903    2    3    3    0    0 -0.19320541334E-01 -0.12879326228E+00 -0.71820314040E-02  0.13174087017E+00  0.18522623227E-01 0.  0.
         14    1    1    2    0    0 -0.13461721345E-01  0.62406498341E-02  0.17613951102E-01  0.23030738706E-01  0.00000000000E+00 0. -1.
     999901    1    3    3    0    0  0.32782262679E-01  0.12255261245E+00 -0.10431919698E-01  0.88915839113E+00  0.88000000000E+00 0. -1.
        -11    1    4    4    0    0 -0.59117154128E-02 -0.39832012083E-01  0.63243608109E-02  0.40765134937E-01  0.51100000000E-03 0.  1.
         11    1    4    4    0    0 -0.13408825921E-01 -0.88961250196E-01 -0.13506392215E-01  0.90975735230E-01  0.51100000000E-03 0. -1.
</event>
<event>
 8    1  0.1123470E+005  0.1043930E+01  0.7957747E-01            NaN
         13   -1    0    0    0    0  0.00000000000E+00  0.00000000000E+00  0.74505805969E-08  0.10566000000E+00  0.10566000000E+00 0.  1.
     999900   -1    0    0    0    0 -0.00000000000E+00 -0.00000000000E+00 -0.74505805969E-08  0.93827000000E+00  0.93827000000E+00 0. -1.
     999902    2    1    2    0    0  0.22537562480E-01 -0.78749954125E-02 -0.75631162490E-02  0.10188868771E+01  0.10185790644E+01 0.  0.
     999903    2    3    3    0    0  0.90804861254E-01  0.33359234122E-01 -0.87217411487E-01  0.13169721730E+00  0.19465838037E-01 0.  0.
         14    1    1    2    0    0 -0.22537562480E-01  0.78749954125E-02  0.75631162490E-02  0.25043122862E-01  0.00000000000E+00 0.  1.
     999901    1    3    3    0    0 -0.68267298775E-01 -0.41234229535E-01  0.79654295238E-01  0.88718965983E+00  0.88000000000E+00 0. -1.
        -11    1    4    4    0    0  0.40808480195E-02  0.30930076718E-02 -0.11710008555E-01  0.12790834155E-01  0.51100000000E-03 0.  1.
         11    1    4    4    0    0  0.86724013235E-01  0.30266226450E-01 -0.75507402932E-01  0.11890638315E+00  0.51100000000E-03 0. -1.
</event>
