<event>
 8    1  0.1092667E+005  0.1043930E+01  0.7957747E-01            NaN
         13   -1    0    0    0    0  0.00000000000E+00  0.00000000000E+00  0.74505805969E-08  0.10566000000E+00  0.10566000000E+00 0. -1.
     999900   -1    0    0    0    0 -0.00000000000E+00 -0.00000000000E+00 -0.74505805969E-08  0.93827000000E+00  0.93827000000E+00 0.  1.
     999902    2    1    2    0    0  0.19592628443E-01  0.11987443348E-01 -0.13094349381E-01  0.10174907891E+01  0.10171472234E+01 0.  0.
     999903    2    3    3    0    0  0.72571590262E-01 -0.84670612343E-01 -0.62242820112E-01  0.12925370234E+00  0.19914883994E-01 0.  0.
         14    1    1    2    0    0 -0.19592628443E-01 -0.11987443348E-01  0.13094349381E-01  0.26439210901E-01  0.00000000000E+00 0.  1.
     999901    1    3    3    0    0 -0.52978961818E-01  0.96658055691E-01  0.49148470731E-01  0.88823708676E+00  0.88000000000E+00 0. -1.
        -11    1    4    4    0    0  0.18341508909E-01 -0.36016992569E-01 -0.22109041862E-01  0.46072828824E-01  0.51100000000E-03 0.  1.
         11    1    4    4    0    0  0.54230081353E-01 -0.48653619774E-01 -0.40133778250E-01  0.83180873513E-01  0.51100000000E-03 0. -1.
</event>
<event>
 8    1  0.1092667E+005  0.1043930E+01  0.7957747E-01            NaN
         13   -1    0    0    0    0  0.00000000000E+00  0.00000000000E+00  0.74505805969E-08  0.10566000000E+00  0.10566000000E+00 0. -1.
     999900   -1    0    0    0    0 -0.00000000000E+00 -0.00000000000E+00 -0.74505805969E-08  0.93827000000E+00  0.93827000000E+00 0.  1.
     999902    2    1    2    0    0  0.50256678718E-02 -0.57285862471E-02  0.22571200000E-01  0.10201070466E+01  0.10198288354E+01 0.  0.
     999903    2    3    3    0    0 -0.17786217503E-01  0.12519368772E+00 -0.15720323000E-01  0.12930557342E+00  0.21977119589E-01 0.  0.
         14    1    1    2    0    0 -0.50256678718E-02  0.57285862471E-02 -0.22571200000E-01  0.23822953372E-01  0.00000000000E+00 0.  1.
     999901    1    3    3    0    0  0.22811885375E-01 -0.13092227396E+00  0.38291523000E-01  0.89080147321E+00  0.88000000000E+00 0. -1.
        -11    1    4    4    0    0  0.26332804895E-02  0.37391045311E-01 -0.10855138976E-01  0.39027164883E-01  0.51100000000E-03 0.  1.
         11    1    4    4    0    0 -0.20419497993E-01  0.87802642405E-01 -0.48651840237E-02  0.90278408538E-01  0.51100000000E-03 0. -1.
</event>
<event>
 8    1  0.1092667E+005  0.1043930E+01  0.7957747E-01            NaN
         13   -1    0    0    0    0  0.00000000000E+00  0.00000000000E+00  0.74505805969E-08  0.10566000000E+00  0.10566000000E+00 0. -1.
     999900   -1    0    0    0    0 -0.00000000000E+00 -0.00000000000E+00 -0.74505805969E-08  0.93827000000E+00  0.93827000000E+00 0. -1.
     999902    2    1    2    0    0  0.79867865343E-02 -0.20127258843E-01  0.81912606635E-02  0.10207784977E+01  0.10205159231E+01 0.  0.
     999903    2    3    3    0    0  0.35608255202E-01 -0.30241849738E-01  0.12295923105E+00  0.13283878268E+00  0.18564815365E-01 0.  0.
         14    1    1    2    0    0 -0.79867865343E-02  0.20127258843E-01 -0.81912606635E-02  0.23151502304E-01  0.00000000000E+00 0. -1.
     999901    1    3    3    0    0 -0.27621468668E-01  0.10114590895E-01 -0.11476797038E+00  0.88793971502E+00  0.88000000000E+00 0. -1.
        -11    1    4    4    0    0  0.51525175838E-02 -0.10924363522E-01  0.50130600537E-01  0.51567706824E-01  0.51100000000E-03 0.  1.
         11    1    4    4    0    0  0.30455737619E-01 -0.19317486216E-01  0.72828630509E-01  0.81271075854E-01  0.51100000000E-03 0. -1.
</event>
<event>
 8    1  0.1092667E+005  0.1043930E+01  0.7957747E-01            NaN
         13   -1    0    0    0    0  0.00000000000E+00  0.00000000000E+00  0.74505805969E-08  0.10566000000E+00  0.10566000000E+00 0.  1.
     999900   -1    0    0    0    0 -0.00000000000E+00 -0.00000000000E+00 -0.74505805969E-08  0.93827000000E+00  0.93827000000E+00 0. -1.
     999902    2    1    2    0    0  0.27024260173E-02  0.19261240475E-02  0.25473760237E-01  0.10182409844E+01  0.10179168811E+01 0.  0.
     999903    2    3    3    0    0  0.42871010966E-01 -0.93561380641E-02 -0.11677935653E+00  0.12584154815E+00  0.16529253725E-01 0.  0.
         14    1    1    2    0    0 -0.27024260173E-02 -0.19261240475E-02 -0.25473760237E-01  0.25689015568E-01  0.00000000000E+00 0. -1.
     999901    1    3    3    0    0 -0.40168584949E-01  0.11282262112E-01  0.14225311676E+00  0.89239943629E+00  0.88000000000E+00 0.  1.
        -11    1    4    4    0    0  0.10826258414E-01  0.43415417623E-02 -0.22973937043E-01  0.25770521151E-01  0.51100000000E-03 0. -1.
         11    1    4    4    0    0  0.32044752552E-01 -0.13697679826E-01 -0.93805419482E-01  0.10007102700E+00  0.51100000000E-03 0.  1.
</event>
<event>
 8    1  0.1092667E+005  0.1043930E+01  0.7957747E-01            NaN
         13   -1    0    0    0    0  0.00000000000E+00  0.00000000000E+00  0.74505805969E-08  0.10566000000E+00  0.10566000000E+00 0.  1.
     999900   -1    0    0    0    0 -0.00000000000E+00 -0.00000000000E+00 -0.74505805969E-08  0.93827000000E+00  0.93827000000E+00 0. -1.
     999902    2    1    2    0    0 -0.12346390859E-01 -0.67925764244E-02  0.18919730595E-01  0.10203391402E+01  0.10200663862E+01 0.  0.
     999903    2    3    3    0    0  0.71784047220E-01  0.10504908504E+00 -0.51215019843E-03  0.12906808946E+00  0.21680629955E-01 0.  0.
         14    1    1    2    0    0  0.12346390859E-01  0.67925764244E-02 -0.18919730595E-01  0.23590859830E-01  0.00000000000E+00 0. -1.
     999901    1    3    3    0    0 -0.84130438079E-01 -0.11184166146E+00  0.19431880793E-01  0.89127105071E+00  0.88000000000E+00 0.  1.
        -11    1    4    4    0    0  0.50455788939E-01  0.69083156984E-01 -0.10167164736E-01  0.86150458943E-01  0.51100000000E-03 0. -1.
         11    1    4    4    0    0  0.21328258281E-01  0.35965928055E-01  0.96550145372E-02  0.42917630513E-01  0.51100000000E-03 0.  1.
</event>
<event>
 8    1  0.1092667E+005  0.1043930E+01  0.7957747E-01            NaN
         13   -1    0    0    0    0  0.00000000000E+00  0.00000000000E+00  0.74505805969E-08  0.10566000000E+00  0.10566000000E+00 0.  1.
     999900   -1    0    0    0    0 -0.00000000000E+00 -0.00000000000E+00 -0.74505805969E-08  0.93827000000E+00  0.93827000000E+00 0. -1.
     999902    2    1    2    0    0 -0.13051923059E-01 -0.11120981716E-01 -0.15608249399E-01  0.10207427971E+01  0.10204794027E+01 0.  0.
     999903    2    3    3    0    0 -0.43002716847E-01 -0.11251762233E+00 -0.54118247395E-01  0.13357801604E+00  0.20120951222E-01 0.  0.
         14    1    1    2    0    0  0.13051923059E-01  0.11120981716E-01  0.15608249399E-01  0.23187202918E-01  0.00000000000E+00 0.  1.
     999901    1    3    3    0    0  0.29950793789E-01  0.10139664061E+00  0.38509997996E-01  0.88716478104E+00  0.88000000000E+00 0. -1.
        -11    1    4    4    0    0 -0.15479961930E-01 -0.65888482867E-01 -0.25468659760E-01  0.72317599150E-01  0.51100000000E-03 0.  1.
         11    1    4    4    0    0 -0.27522754918E-01 -0.46629139459E-01 -0.28649587636E-01  0.61260416891E-01  0.51100000000E-03 0. -1.
</event>
<event>
 8    1  0.1092667E+005  0.1043930E+01  0.7957747E-01            NaN
         13   -1    0    0    0    0  0.00000000000E+00  0.00000000000E+00  0.74505805969E-08  0.10566000000E+00  0.10566000000E+00 0. -1.
     999900   -1    0    0    0    0 -0.00000000000E+00 -0.00000000000E+00 -0.74505805969E-08  0.93827000000E+00  0.93827000000E+00 0.  1.
     999902    2    1    2    0    0  0.89757006643E-02  0.80147852404E-02  0.21907180347E-01  0.10189355099E+01  0.10186289063E+01 0.  0.
     999903    2    3    3    0    0  0.32584728103E-01  0.10240566755E+00 -0.68540265107E-01  0.12896485576E+00  0.19633665648E-01 0.  0.
         14    1    1    2    0    0 -0.89757006643E-02 -0.80147852404E-02 -0.21907180347E-01  0.24994490105E-01  0.00000000000E+00 0.  1.
     999901    1    3    3    0    0 -0.23609027439E-01 -0.94390882311E-01  0.90447445454E-01  0.88997065414E+00  0.88000000000E+00 0. -1.
        -11    1    4    4    0    0  0.19280176822E-01  0.30332813850E-01 -0.23186831773E-01  0.42774935453E-01  0.51100000000E-03 0. -1.
         11    1    4    4    0    0  0.13304551281E-01  0.72072853702E-01 -0.45353433335E-01  0.86189920303E-01  0.51100000000E-03 0.  1.
</event>
<event>
 8    1  0.1092667E+005  0.1043930E+01  0.7957747E-01            NaN
         13   -1    0    0    0    0  0.00000000000E+00  0.00000000000E+00  0.74505805969E-08  0.10566000000E+00  0.10566000000E+00 0. -1.
     999900   -1    0    0    0    0 -0.00000000000E+00 -0.00000000000E+00 -0.74505805969E-08  0.93827000000E+00  0.93827000000E+00 0. -1.
     999902    2    1    2    0    0  0.46723086234E-02  0.19910246750E-01  0.10307732141E-01  0.10210280845E+01  0.10207712043E+01 0.  0.
     999903    2    3    3    0    0 -0.45772188807E-01  0.92007669863E-01  0.83254187956E-01  0.13363647353E+00  0.19155747505E-01 0.  0.
         14    1    1    2    0    0 -0.46723086234E-02 -0.19910246750E-01 -0.10307732141E-01  0.22901915540E-01  0.00000000000E+00 0.  1.
     999901    1    3    3    0    0  0.50444497431E-01 -0.72097423113E-01 -0.72946455815E-01  0.88739161093E+00  0.88000000000E+00 0. -1.
        -11    1    4    4    0    0 -0.34114636115E-01  0.53172597019E-01  0.58656702599E-01  0.86209067689E-01  0.51100000000E-03 0. -1.
         11    1    4    4    0    0 -0.11657552692E-01  0.38835072843E-01  0.24597485357E-01  0.47427405837E-01  0.51100000000E-03 0.  1.
</event>
<event>
 8    1  0.1092667E+005  0.1043930E+01  0.7957747E-01            NaN
         13   -1    0    0    0    0  0.00000000000E+00  0.00000000000E+00  0.74505805969E-08  0.10566000000E+00  0.10566000000E+00 0. -1.
     999900   -1    0    0    0    0 -0.00000000000E+00 -0.00000000000E+00 -0.74505805969E-08  0.93827000000E+00  0.93827000000E+00 0.  1.
     999902    2    1    2    0    0  0.11064759228E-01  0.18793962203E-02  0.20875482766E-01  0.10202288016E+01  0.10199534601E+01 0.  0.
     999903    2    3    3    0    0  0.96860215302E-01 -0.84209933200E-01 -0.17822146967E-01  0.13103268176E+00  0.19460745302E-01 0.  0.
         14    1    1    2    0    0 -0.11064759228E-01 -0.18793962203E-02 -0.20875482766E-01  0.23701198443E-01  0.00000000000E+00 0.  1.
     999901    1    3    3    0    0 -0.85795456074E-01  0.86089329420E-01  0.38697629732E-01  0.88919611980E+00  0.88000000000E+00 0.  1.
        -11    1    4    4    0    0  0.69233454273E-01 -0.54814680065E-01 -0.20309928584E-01  0.90612773168E-01  0.51100000000E-03 0.  1.
         11    1    4    4    0    0  0.27626761029E-01 -0.29395253135E-01  0.24877816174E-02  0.40419908587E-01  0.51100000000E-03 0. -1.
</event>
<event>
 8    1  0.1092667E+005  0.1043930E+01  0.7957747E-01            NaN
         13   -1    0    0    0    0  0.00000000000E+00  0.00000000000E+00  0.74505805969E-08  0.10566000000E+00  0.10566000000E+00 0. -1.
     999900   -1    0    0    0    0 -0.00000000000E+00 -0.00000000000E+00 -0.74505805969E-08  0.93827000000E+00  0.93827000000E+00 0. -1.
     999902    2    1    2    0    0  0.95144305678E-02  0.19093758141E-01  0.96157362853E-02  0.10205300348E+01  0.10202617279E+01 0.  0.
     999903    2    3    3    0    0 -0.61052865070E-01 -0.84574292445E-01  0.73626476817E-01  0.12933747261E+00  0.20665441125E-01 0.  0.
         14    1    1    2    0    0 -0.95144305678E-02 -0.19093758141E-01 -0.96157362853E-02  0.23399965241E-01  0.00000000000E+00 0.  1.
     999901    1    3    3    0    0  0.70567295638E-01  0.10366805059E+00 -0.64010740531E-01  0.89119256215E+00  0.88000000000E+00 0. -1.
        -11    1    4    4    0    0 -0.10519784816E-01 -0.54421547534E-02  0.12892367660E-01  0.17514485029E-01  0.51100000000E-03 0.  1.
         11    1    4    4    0    0 -0.50533080254E-01 -0.79132137691E-01  0.60734109156E-01  0.11182298758E+00  0.51100000000E-03 0. -1.
</event>
<event>
 8    1  0.1092667E+005  0.1043930E+01  0.7957747E-01            NaN
         13   -1    0    0    0    0  0.00000000000E+00  0.00000000000E+00  0.74505805969E-08  0.10566000000E+00  0.10566000000E+00 0.  1.
     999900   -1    0    0    0    0 -0.00000000000E+00 -0.00000000000E+00 -0.74505805969E-08  0.93827000000E+00  0.93827000000E+00 0.  1.
     999902    2    1    2    0    0 -0.20042133444E-01  0.12484378659E-01  0.61806072065E-02  0.10195220765E+01  0.10192298650E+01 0.  0.
     999903    2    3    3    0    0 -0.19331549045E-01  0.12662892088E+00  0.23845434315E-01  0.13197403411E+00  0.20974950569E-01 0.  0.
         14    1    1    2    0    0  0.20042133444E-01 -0.12484378659E-01 -0.61806072065E-02  0.24407923487E-01  0.00000000000E+00 0.  1.
     999901    1    3    3    0    0 -0.71058439889E-03 -0.11414454222E+00 -0.17664827109E-01  0.88754804240E+00  0.88000000000E+00 0.  1.
        -11    1    4    4    0    0 -0.22263159388E-01  0.83082657630E-01  0.18693571084E-01  0.88023218447E-01  0.51100000000E-03 0.  1.
         11    1    4    4    0    0  0.29316103428E-02  0.43546263249E-01  0.51518632314E-02  0.43950815668E-01  0.51100000000E-03 0. -1.
</event>
<event>
 8    1  0.1092667E+005  0.1043930E+01  0.7957747E-01            NaN
         13   -1    0    0    0    0  0.00000000000E+00  0.00000000000E+00  0.74505805969E-08  0.10566000000E+00  0.10566000000E+00 0.  1.
     999900   -1    0    0    0    0 -0.00000000000E+00 -0.00000000000E+00 -0.74505805969E-08  0.93827000000E+00  0.93827000000E+00 0.  1.
     999902    2    1    2    0    0 -0.17338350628E-01  0.78019013693E-02 -0.11735231012E-01  0.10215871328E+01  0.10213427761E+01 0.  0.
     999903    2    3    3    0    0 -0.15996060373E-01  0.12149102758E+00  0.47496687044E-01  0.13229784395E+00  0.15193436228E-01 0.  0.
         14    1    1    2    0    0  0.17338350628E-01 -0.78019013693E-02  0.11735231012E-01  0.22342867193E-01  0.00000000000E+00 0. -1.
     999901    1    3    3    0    0 -0.13422902551E-02 -0.11368912621E+00 -0.59231918056E-01  0.88928928886E+00  0.88000000000E+00 0. -1.
        -11    1    4    4    0    0 -0.73017442005E-02  0.16400580002E-01  0.53893903603E-02  0.18751030431E-01  0.51100000000E-03 0.  1.
         11    1    4    4    0    0 -0.86943161728E-02  0.10509044757E+00  0.42107296684E-01  0.11354681352E+00  0.51100000000E-03 0. -1.
</event>
<event>
 8    1  0.1092667E+005  0.1043930E+01  0.7957747E-01            NaN
         13   -1    0    0    0    0  0.00000000000E+00  0.00000000000E+00  0.74505805969E-08  0.10566000000E+00  0.10566000000E+00 0.  1.
     999900   -1    0    0    0    0 -0.00000000000E+00 -0.00000000000E+00 -0.74505805969E-08  0.93827000000E+00  0.93827000000E+00 0. -1.
     999902    2    1    2    0    0  0.12469540505E-01  0.17991462092E-01 -0.51041108203E-02  0.10214525870E+01  0.10212052455E+01 0.  0.
     999903    2    3    3    0    0  0.53660327123E-01  0.23613408474E-01  0.11669500916E+00  0.13209140455E+00  0.19834067340E-01 0.  0.
         14    1    1    2    0    0 -0.12469540505E-01 -0.17991462092E-01  0.51041108203E-02  0.22477413016E-01  0.00000000000E+00 0.  1.
     999901    1    3    3    0    0 -0.41190786618E-01 -0.56219463814E-02 -0.12179911998E+00  0.88936118243E+00  0.88000000000E+00 0. -1.
        -11    1    4    4    0    0  0.17034274185E-01  0.14242779621E-01  0.59682718920E-01  0.63681326361E-01  0.51100000000E-03 0. -1.
         11    1    4    4    0    0  0.36626052938E-01  0.93706288528E-02  0.57012290242E-01  0.68410078194E-01  0.51100000000E-03 0.  1.
</event>
<event>
 8    1  0.1092667E+005  0.1043930E+01  0.7957747E-01            NaN
         13   -1    0    0    0    0  0.00000000000E+00  0.00000000000E+00  0.74505805969E-08  0.10566000000E+00  0.10566000000E+00 0.  1.
     999900   -1    0    0    0    0 -0.00000000000E+00 -0.00000000000E+00 -0.74505805969E-08  0.93827000000E+00  0.93827000000E+00 0.  1.
     999902    2    1    2    0    0 -0.25262212575E-02  0.20188996034E-01  0.85155100312E-02  0.10218734530E+01  0.10216353864E+01 0.  0.
     999903    2    3    3    0    0 -0.19310059124E-01  0.12968043249E+00  0.27135587972E-01  0.13473379140E+00  0.15065240023E-01 0.  0.
         14    1    1    2    0    0  0.25262212575E-02 -0.20188996034E-01 -0.85155100312E-02  0.22056547005E-01  0.00000000000E+00 0.  1.
     999901    1    3    3    0    0  0.16783837867E-01 -0.10949143645E+00 -0.18620077941E-01  0.88713966159E+00  0.88000000000E+00 0. -1.
        -11    1    4    4    0    0 -0.11477156170E-01  0.10565219103E+00  0.26108561314E-01  0.10943504319E+00  0.51100000000E-03 0.  1.
         11    1    4    4    0    0 -0.78329029538E-02  0.24028241462E-01  0.10270266577E-02  0.25298748214E-01  0.51100000000E-03 0. -1.
</event>
<event>
 8    1  0.1092667E+005  0.1043930E+01  0.7957747E-01            NaN
         13   -1    0    0    0    0  0.00000000000E+00  0.00000000000E+00  0.74505805969E-08  0.10566000000E+00  0.10566000000E+00 0.  1.
     999900   -1    0    0    0    0 -0.00000000000E+00 -0.00000000000E+00 -0.74505805969E-08  0.93827000000E+00  0.93827000000E+00 0. -1.
     999902    2    1    2    0    0  0.87726322910E-02  0.19115549027E-01 -0.12012523805E-01  0.10197088518E+01  0.10194211487E+01 0.  0.
     999903    2    3    3    0    0  0.62396265915E-01  0.61409545017E-01  0.94875917654E-01  0.13061413519E+00  0.19854126585E-01 0.  0.
         14    1    1    2    0    0 -0.87726322910E-02 -0.19115549027E-01  0.12012523805E-01  0.24221148199E-01  0.00000000000E+00 0.  1.
     999901    1    3    3    0    0 -0.53623633624E-01 -0.42293995991E-01 -0.10688844146E+00  0.88909471661E+00  0.88000000000E+00 0. -1.
        -11    1    4    4    0    0  0.23285553876E-01  0.11185183724E-01  0.22891772421E-01  0.34519845304E-01  0.51100000000E-03 0. -1.
         11    1    4    4    0    0  0.39110712039E-01  0.50224361293E-01  0.71984145233E-01  0.96094289890E-01  0.51100000000E-03 0.  1.
</event>
<event>
 8    1  0.1092667E+005  0.1043930E+01  0.7957747E-01            NaN
         13   -1    0    0    0    0  0.00000000000E+00  0.00000000000E+00  0.74505805969E-08  0.10566000000E+00  0.10566000000E+00 0.  1.
     999900   -1    0    0    0    0 -0.00000000000E+00 -0.00000000000E+00 -0.74505805969E-08  0.93827000000E+00  0.93827000000E+00 0. -1.
     999902    2    1    2    0    0 -0.26746747401E-01 -0.12493853929E-02  0.30664513190E-02  0.10169790708E+01  0.10166218952E+01 0.  0.
     999903    2    3    3    0    0  0.55130336904E-01  0.90954419579E-01 -0.64134612361E-01  0.12584418678E+00  0.20284239066E-01 0.  0.
         14    1    1    2    0    0  0.26746747401E-01  0.12493853929E-02 -0.30664513190E-02  0.26950929188E-01  0.00000000000E+00 0.  1.
     999901    1    3    3    0    0 -0.81877084305E-01 -0.92203804972E-01  0.67201063680E-01  0.89113488404E+00  0.88000000000E+00 0.  1.
        -11    1    4    4    0    0  0.21826470754E-01  0.53165128440E-01 -0.39744209003E-01  0.69876955987E-01  0.51100000000E-03 0.  1.
         11    1    4    4    0    0  0.33303866150E-01  0.37789291139E-01 -0.24390403358E-01  0.55967230790E-01  0.51100000000E-03 0. -1.
</event>
<event>
 8    1  0.1092667E+005  0.1043930E+01  0.7957747E-01            NaN
         13   -1    0    0    0    0  0.00000000000E+00  0.00000000000E+00  0.74505805969E-08  0.10566000000E+00  0.10566000000E+00 0.  1.
     999900   -1    0    0    0    0 -0.00000000000E+00 -0.00000000000E+00 -0.74505805969E-08  0.93827000000E+00  0.93827000000E+00 0.  1.
     999902    2    1    2    0    0 -0.11778412449E-01 -0.76453032992E-02  0.27858803707E-01  0.10127323301E+01  0.10122516870E+01 0.  0.
     999903    2    3    3    0    0  0.44278596560E-01  0.14193653292E-01  0.11591710865E+00  0.12629361630E+00  0.18741598974E-01 0.  0.
         14    1    1    2    0    0  0.11778412449E-01  0.76453032992E-02 -0.27858803707E-01  0.31197669887E-01  0.00000000000E+00 0. -1.
     999901    1    3    3    0    0 -0.56057009010E-01 -0.21838956591E-01 -0.88058304943E-01  0.88643871382E+00  0.88000000000E+00 0.  1.
        -11    1    4    4    0    0  0.36620152056E-01  0.18618047270E-01  0.90876132069E-01  0.99731638518E-01  0.51100000000E-03 0.  1.
         11    1    4    4    0    0  0.76584445049E-02 -0.44243939783E-02  0.25040976582E-01  0.26561977778E-01  0.51100000000E-03 0. -1.
</event>
<event>
 8    1  0.1092667E+005  0.1043930E+01  0.7957747E-01            NaN
         13   -1    0    0    0    0  0.00000000000E+00  0.00000000000E+00  0.74505805969E-08  0.10566000000E+00  0.10566000000E+00 0. -1.
     999900   -1    0    0    0    0 -0.00000000000E+00 -0.00000000000E+00 -0.74505805969E-08  0.93827000000E+00  0.93827000000E+00 0.  1.
     999902    2    1    2    0    0  0.18432096592E-01  0.11463778122E-01  0.10743664697E-01  0.10197104475E+01  0.10194227827E+01 0.  0.
     999903    2    3    3    0    0  0.55484978988E-01 -0.11358652117E+00  0.23251259229E-01  0.13000997351E+00  0.19531806685E-01 0.  0.
         14    1    1    2    0    0 -0.18432096592E-01 -0.11463778122E-01 -0.10743664697E-01  0.24219552530E-01  0.00000000000E+00 0.  1.
     999901    1    3    3    0    0 -0.37052882395E-01  0.12505029929E+00 -0.12507594532E-01  0.88970047396E+00  0.88000000000E+00 0.  1.
        -11    1    4    4    0    0  0.45814431146E-01 -0.93108210452E-01  0.11261520556E-01  0.10437999771E+00  0.51100000000E-03 0. -1.
         11    1    4    4    0    0  0.96705478412E-02 -0.20478310714E-01  0.11989738673E-01  0.25629975804E-01  0.51100000000E-03 0.  1.
</event>
<event>
 8    1  0.1092667E+005  0.1043930E+01  0.7957747E-01            NaN
         13   -1    0    0    0    0  0.00000000000E+00  0.00000000000E+00  0.74505805969E-08  0.10566000000E+00  0.10566000000E+00 0.  1.
     999900   -1    0    0    0    0 -0.00000000000E+00 -0.00000000000E+00 -0.74505805969E-08  0.93827000000E+00  0.93827000000E+00 0. -1.
     999902    2    1    2    0    0  0.71364875538E-02  0.15995586727E-01  0.64115233888E-02  0.10252780328E+01  0.10251083594E+01 0.  0.
     999903    2    3    3    0    0 -0.10560731970E-01  0.20188861256E-01  0.13264495936E+00  0.13608420942E+00  0.20127285709E-01 0.  0.
         14    1    1    2    0    0 -0.71364875538E-02 -0.15995586727E-01 -0.64115233888E-02  0.18651967229E-01  0.00000000000E+00 0. -1.
     999901    1    3    3    0    0  0.17697219524E-01 -0.41932745291E-02 -0.12623343597E+00  0.88919382335E+00  0.88000000000E+00 0. -1.
        -11    1    4    4    0    0 -0.74701847187E-02  0.73745707597E-02  0.19314726373E-01  0.21988809187E-01  0.51100000000E-03 0. -1.
         11    1    4    4    0    0 -0.30905472518E-02  0.12814290496E-01  0.11333023299E+00  0.11409540023E+00  0.51100000000E-03 0.  1.
</event>
<event>
 8    1  0.1092667E+005  0.1043930E+01  0.7957747E-01            NaN
         13   -1    0    0    0    0  0.00000000000E+00  0.00000000000E+00  0.74505805969E-08  0.10566000000E+00  0.10566000000E+00 0. -1.
     999900   -1    0    0    0    0 -0.00000000000E+00 -0.00000000000E+00 -0.74505805969E-08  0.93827000000E+00  0.93827000000E+00 0.  1.
     999902    2    1    2    0    0  0.94007662047E-02  0.24737770451E-02 -0.22225214567E-01  0.10196719263E+01  0.10193833347E+01 0.  0.
     999903    2    3    3    0    0  0.87423066168E-01  0.18044773796E-01  0.90795865672E-01  0.12888367994E+00  0.19967658181E-01 0.  0.
         14    1    1    2    0    0 -0.94007662047E-02 -0.24737770451E-02  0.22225214567E-01  0.24258073721E-01  0.00000000000E+00 0. -1.
     999901    1    3    3    0    0 -0.78022299963E-01 -0.15570996751E-01 -0.11302108024E+00  0.89078824634E+00  0.88000000000E+00 0.  1.
        -11    1    4    4    0    0  0.39879336340E-01  0.41662845534E-02  0.53609212318E-01  0.66947204275E-01  0.51100000000E-03 0.  1.
         11    1    4    4    0    0  0.47543729828E-01  0.13878489242E-01  0.37186653353E-01  0.61936475669E-01  0.51100000000E-03 0. -1.
</event>
<event>
 8    1  0.1092667E+005  0.1043930E+01  0.7957747E-01            NaN
         13   -1    0    0    0    0  0.00000000000E+00  0.00000000000E+00  0.74505805969E-08  0.10566000000E+00  0.10566000000E+00 0.  1.
     999900   -1    0    0    0    0 -0.00000000000E+00 -0.00000000000E+00 -0.74505805969E-08  0.93827000000E+00  0.93827000000E+00 0.  1.
     999902    2    1    2    0    0  0.65287112011E-02  0.20287141682E-01 -0.59714167112E-02  0.10217974447E+01  0.10215577164E+01 0.  0.
     999903    2    3    3    0    0 -0.65510758795E-01 -0.85690188216E-01 -0.70046060077E-01  0.13021097124E+00  0.20346464685E-01 0.  0.
         14    1    1    2    0    0 -0.65287112011E-02 -0.20287141682E-01  0.59714167112E-02  0.22132555323E-01  0.00000000000E+00 0.  1.
     999901    1    3    3    0    0  0.72039469996E-01  0.10597732990E+00  0.64074643366E-01  0.89158647343E+00  0.88000000000E+00 0. -1.
        -11    1    4    4    0    0 -0.46006315508E-01 -0.43752235378E-01 -0.41748932358E-01  0.75987325530E-01  0.51100000000E-03 0. -1.
         11    1    4    4    0    0 -0.19504443287E-01 -0.41937952838E-01 -0.28297127719E-01  0.54223645712E-01  0.51100000000E-03 0.  1.
</event>
<event>
 8    1  0.1092667E+005  0.1043930E+01  0.7957747E-01            NaN
         13   -1    0    0    0    0  0.00000000000E+00  0.00000000000E+00  0.74505805969E-08  0.10566000000E+00  0.10566000000E+00 0. -1.
     999900   -1    0    0    0    0 -0.00000000000E+00 -0.00000000000E+00 -0.74505805969E-08  0.93827000000E+00  0.93827000000E+00 0.  1.
     999902    2    1    2    0    0 -0.23692631463E-01  0.10538941859E-02 -0.18770942966E-02  0.10201397717E+01  0.10198623333E+01 0.  0.
     999903    2    3    3    0    0 -0.12821119292E+00 -0.78045976324E-02 -0.30433272262E-01  0.13345039101E+00  0.19590841358E-01 0.  0.
         14    1    1    2    0    0  0.23692631463E-01 -0.10538941859E-02  0.18770942966E-02  0.23790228280E-01  0.00000000000E+00 0.  1.
     999901    1    3    3    0    0  0.10451856146E+00  0.88584918183E-02  0.28556177965E-01  0.88668938071E+00  0.88000000000E+00 0.  1.
        -11    1    4    4    0    0 -0.95639599623E-01 -0.19589368248E-02 -0.30330700689E-01  0.10035428728E+00  0.51100000000E-03 0. -1.
         11    1    4    4    0    0 -0.32571593298E-01 -0.58456608075E-02 -0.10257157307E-03  0.33096103731E-01  0.51100000000E-03 0.  1.
</event>
<event>
 8    1  0.1092667E+005  0.1043930E+01  0.7957747E-01            NaN
         13   -1    0    0    0    0  0.00000000000E+00  0.00000000000E+00  0.74505805969E-08  0.10566000000E+00  0.10566000000E+00 0. -1.
     999900   -1    0    0    0    0 -0.00000000000E+00 -0.00000000000E+00 -0.74505805969E-08  0.93827000000E+00  0.93827000000E+00 0.  1.
     999902    2    1    2    0    0 -0.11781888642E-01  0.25784282888E-02  0.19965500624E-01  0.10206044259E+01  0.10203378420E+01 0.  0.
     999903    2    3    3    0    0 -0.76118578614E-01  0.16775732395E-01 -0.10184549522E+00  0.12977408748E+00  0.19832944230E-01 0.  0.
         14    1    1    2    0    0  0.11781888642E-01 -0.25784282888E-02 -0.19965500624E-01  0.23325574110E-01  0.00000000000E+00 0.  1.
     999901    1    3    3    0    0  0.64336689973E-01 -0.14197304107E-01  0.12181099585E+00  0.89083033841E+00  0.88000000000E+00 0. -1.
        -11    1    4    4    0    0 -0.45088485552E-02  0.47027964079E-02 -0.16292506395E-01  0.17554284234E-01  0.51100000000E-03 0. -1.
         11    1    4    4    0    0 -0.71609730059E-01  0.12072935987E-01 -0.85552988827E-01  0.11221980325E+00  0.51100000000E-03 0.  1.
</event>
<event>
 8    1  0.1092667E+005  0.1043930E+01  0.7957747E-01            NaN
         13   -1    0    0    0    0  0.00000000000E+00  0.00000000000E+00  0.74505805969E-08  0.10566000000E+00  0.10566000000E+00 0. -1.
     999900   -1    0    0    0    0 -0.00000000000E+00 -0.00000000000E+00 -0.74505805969E-08  0.93827000000E+00  0.93827000000E+00 0. -1.
     999902    2    1    2    0    0  0.22071734190E-01 -0.40651525982E-02 -0.79546372116E-02  0.10201190116E+01  0.10198410830E+01 0.  0.
     999903    2    3    3    0    0  0.56443526846E-01  0.49237572689E-01 -0.10769169266E+00  0.13221694442E+00  0.16541143747E-01 0.  0.
         14    1    1    2    0    0 -0.22071734190E-01  0.40651525982E-02  0.79546372116E-02  0.23810988408E-01  0.00000000000E+00 0. -1.
     999901    1    3    3    0    0 -0.34371792656E-01 -0.53302725287E-01  0.99737055452E-01  0.88790206717E+00  0.88000000000E+00 0.  1.
        -11    1    4    4    0    0  0.19669329986E-01  0.80917456039E-02 -0.34846089698E-01  0.40827319006E-01  0.51100000000E-03 0.  1.
         11    1    4    4    0    0  0.36774196860E-01  0.41145827085E-01 -0.72845602966E-01  0.91389625416E-01  0.51100000000E-03 0. -1.
</event>
<event>
 8    1  0.1092667E+005  0.1043930E+01  0.7957747E-01            NaN
         13   -1    0    0    0    0  0.00000000000E+00  0.00000000000E+00  0.74505805969E-08  0.10566000000E+00  0.10566000000E+00 0. -1.
     999900   -1    0    0    0    0 -0.00000000000E+00 -0.00000000000E+00 -0.74505805969E-08  0.93827000000E+00  0.93827000000E+00 0.  1.
     999902    2    1    2    0    0 -0.34455075373E-02 -0.28882446978E-02  0.23610625827E-01  0.10198951268E+01  0.10196118842E+01 0.  0.
     999903    2    3    3    0    0 -0.90745829850E-01 -0.36087535514E-01  0.87561882814E-01  0.13264470977E+00  0.19759044832E-01 0.  0.
         14    1    1    2    0    0  0.34455075373E-02  0.28882446978E-02 -0.23610625827E-01  0.24034873238E-01  0.00000000000E+00 0.  1.
     999901    1    3    3    0    0  0.87300322313E-01  0.33199290816E-01 -0.63951256987E-01  0.88725041699E+00  0.88000000000E+00 0.  1.
        -11    1    4    4    0    0 -0.59987542681E-01 -0.23054964860E-01  0.44625730645E-01  0.78241636219E-01  0.51100000000E-03 0. -1.
         11    1    4    4    0    0 -0.30758287169E-01 -0.13032570653E-01  0.42936152169E-01  0.54403073548E-01  0.51100000000E-03 0.  1.
</event>
<event>
 8    1  0.1092667E+005  0.1043930E+01  0.7957747E-01            NaN
         13   -1    0    0    0    0  0.00000000000E+00  0.00000000000E+00  0.74505805969E-08  0.10566000000E+00  0.10566000000E+00 0.  1.
     999900   -1    0    0    0    0 -0.00000000000E+00 -0.00000000000E+00 -0.74505805969E-08  0.93827000000E+00  0.93827000000E+00 0.  1.
     999902    2    1    2    0    0  0.27352992031E-02  0.22372974548E-01  0.63410416315E-02  0.10205154605E+01  0.10202468154E+01 0.  0.
     999903    2    3    3    0    0  0.67257026787E-01  0.49208804176E-01  0.10138081484E+00  0.13264397565E+00  0.19270199779E-01 0.  0.
         14    1    1    2    0    0 -0.27352992031E-02 -0.22372974548E-01 -0.63410416315E-02  0.23414539517E-01  0.00000000000E+00 0. -1.
     999901    1    3    3    0    0 -0.64521727584E-01 -0.26835829628E-01 -0.95039773205E-01  0.88787148483E+00  0.88000000000E+00 0.  1.
        -11    1    4    4    0    0  0.43819513608E-01  0.25646883437E-01  0.48706652776E-01  0.70359871721E-01  0.51100000000E-03 0.  1.
         11    1    4    4    0    0  0.23437513179E-01  0.23561920738E-01  0.52674162061E-01  0.62284103933E-01  0.51100000000E-03 0. -1.
</event>
<event>
 8    1  0.1092667E+005  0.1043930E+01  0.7957747E-01            NaN
         13   -1    0    0    0    0  0.00000000000E+00  0.00000000000E+00  0.74505805969E-08  0.10566000000E+00  0.10566000000E+00 0. -1.
     999900   -1    0    0    0    0 -0.00000000000E+00 -0.00000000000E+00 -0.74505805969E-08  0.93827000000E+00  0.93827000000E+00 0. -1.
     999902    2    1    2    0    0  0.77058761368E-02 -0.21579587144E-01 -0.42597646329E-02  0.10206232477E+01  0.10203570988E+01 0.  0.
     999903    2    3    3    0    0 -0.77473372344E-01  0.73498506173E-01 -0.70043046022E-01  0.12898274373E+00  0.18065604104E-01 0.  0.
         14    1    1    2    0    0 -0.77058761368E-02  0.21579587144E-01  0.42597646329E-02  0.23306752306E-01  0.00000000000E+00 0. -1.
     999901    1    3    3    0    0  0.85179248481E-01 -0.95078093317E-01  0.65783281389E-01  0.89164050397E+00  0.88000000000E+00 0. -1.
        -11    1    4    4    0    0 -0.21519991317E-01  0.11289778789E-01 -0.11684511987E-01  0.26969576800E-01  0.51100000000E-03 0.  1.
         11    1    4    4    0    0 -0.55953381027E-01  0.62208727384E-01 -0.58358534035E-01  0.10201316693E+00  0.51100000000E-03 0. -1.
</event>
<event>
 8    1  0.1092667E+005  0.1043930E+01  0.7957747E-01            NaN
         13   -1    0    0    0    0  0.00000000000E+00  0.00000000000E+00  0.74505805969E-08  0.10566000000E+00  0.10566000000E+00 0.  1.
     999900   -1    0    0    0    0 -0.00000000000E+00 -0.00000000000E+00 -0.74505805969E-08  0.93827000000E+00  0.93827000000E+00 0. -1.
     999902    2    1    2    0    0  0.11852787349E-01 -0.45609851537E-02 -0.19826824707E-01  0.10203844244E+01  0.10201127288E+01 0.  0.
     999903    2    3    3    0    0 -0.31147837745E-01 -0.12442490876E+00  0.13818415019E-01  0.13058196535E+00  0.20222644841E-01 0.  0.
         14    1    1    2    0    0 -0.11852787349E-01  0.45609851537E-02  0.19826824707E-01  0.23545575624E-01  0.00000000000E+00 0.  1.
     999901    1    3    3    0    0  0.43000625094E-01  0.11986392360E+00 -0.33645239726E-01  0.88980245903E+00  0.88000000000E+00 0. -1.
        -11    1    4    4    0    0 -0.14501976088E-01 -0.88324139069E-01  0.38329776655E-02  0.89590254445E-01  0.51100000000E-03 0. -1.
         11    1    4    4    0    0 -0.16645861657E-01 -0.36100769689E-01  0.99854373536E-02  0.40991710901E-01  0.51100000000E-03 0.  1.
</event>
<event>
 8    1  0.1092667E+005  0.1043930E+01  0.7957747E-01            NaN
         13   -1    0    0    0    0  0.00000000000E+00  0.00000000000E+00  0.74505805969E-08  0.10566000000E+00  0.10566000000E+00 0.  1.
     999900   -1    0    0    0    0 -0.00000000000E+00 -0.00000000000E+00 -0.74505805969E-08  0.93827000000E+00  0.93827000000E+00 0.  1.
     999902    2    1    2    0    0  0.25763930991E-02  0.22343432980E-02  0.24007229994E-01  0.10196817592E+01  0.10193934043E+01 0.  0.
     999903    2    3    3    0    0 -0.88824490187E-01 -0.91543145510E-01 -0.84678878506E-02  0.12939923539E+00  0.20062887314E-01 0.  0.
         14    1    1    2    0    0 -0.25763930991E-02 -0.22343432980E-02 -0.24007229994E-01  0.24248240830E-01  0.00000000000E+00 0. -1.
     999901    1    3    3    0    0  0.91400883286E-01  0.93777488808E-01  0.32475117845E-01  0.89028252378E+00  0.88000000000E+00 0. -1.
        -11    1    4    4    0    0 -0.40434759109E-01 -0.49368566463E-01 -0.12704239698E-01  0.65068302007E-01  0.51100000000E-03 0. -1.
         11    1    4    4    0    0 -0.48389731078E-01 -0.42174579048E-01  0.42363518476E-02  0.64330933381E-01  0.51100000000E-03 0.  1.
</event>
<event>
 8    1  0.1092667E+005  0.1043930E+01  0.7957747E-01            NaN
         13   -1    0    0    0    0  0.00000000000E+00  0.00000000000E+00  0.74505805969E-08  0.10566000000E+00  0.10566000000E+00 0. -1.
     999900   -1    0    0    0    0 -0.00000000000E+00 -0.00000000000E+00 -0.74505805969E-08  0.93827000000E+00  0.93827000000E+00 0.  1.
     999902    2    1    2    0    0  0.16211812787E-01  0.20248013307E-01  0.62533419881E-02  0.10172483733E+01  0.10168983940E+01 0.  0.
     999903    2    3    3    0    0 -0.86691371655E-01  0.17970284728E-01 -0.87804084516E-01  0.12627079060E+00  0.19910556200E-01 0.  0.
         14    1    1    2    0    0 -0.16211812787E-01 -0.20248013307E-01 -0.62533419881E-02  0.26681626688E-01  0.00000000000E+00 0. -1.
     999901    1    3    3    0    0  0.10290318444E+00  0.22777285784E-02  0.94057426504E-01  0.89097758271E+00  0.88000000000E+00 0. -1.
        -11    1    4    4    0    0 -0.40992181805E-01  0.72002126418E-02 -0.27687748528E-01  0.49990744852E-01  0.51100000000E-03 0.  1.
         11    1    4    4    0    0 -0.45699189850E-01  0.10770072086E-01 -0.60116335988E-01  0.76280045748E-01  0.51100000000E-03 0. -1.
</event>
<event>
 8    1  0.1092667E+005  0.1043930E+01  0.7957747E-01            NaN
         13   -1    0    0    0    0  0.00000000000E+00  0.00000000000E+00  0.74505805969E-08  0.10566000000E+00  0.10566000000E+00 0.  1.
     999900   -1    0    0    0    0 -0.00000000000E+00 -0.00000000000E+00 -0.74505805969E-08  0.93827000000E+00  0.93827000000E+00 0.  1.
     999902    2    1    2    0    0  0.13558206564E-01 -0.10965982487E-01  0.15661053504E-01  0.10204918615E+01  0.10202226684E+01 0.  0.
     999903    2    3    3    0    0  0.43047332121E-01 -0.78408988883E-01 -0.93209200446E-01  0.13073296172E+00  0.20052677899E-01 0.  0.
         14    1    1    2    0    0 -0.13558206564E-01  0.10965982487E-01 -0.15661053504E-01  0.23438138450E-01  0.00000000000E+00 0. -1.
     999901    1    3    3    0    0 -0.29489125557E-01  0.67443006396E-01  0.10887025395E+00  0.88975889983E+00  0.88000000000E+00 0. -1.
        -11    1    4    4    0    0  0.30585850597E-01 -0.61118545613E-01 -0.58325409408E-01  0.89850349906E-01  0.51100000000E-03 0.  1.
         11    1    4    4    0    0  0.12461481524E-01 -0.17290443270E-01 -0.34883791038E-01  0.40882611810E-01  0.51100000000E-03 0. -1.
</event>
<event>
 8    1  0.1092667E+005  0.1043930E+01  0.7957747E-01            NaN
         13   -1    0    0    0    0  0.00000000000E+00  0.00000000000E+00  0.74505805969E-08  0.10566000000E+00  0.10566000000E+00 0.  1.
     999900   -1    0    0    0    0 -0.00000000000E+00 -0.00000000000E+00 -0.74505805969E-08  0.93827000000E+00  0.93827000000E+00 0. -1.
     999902    2    1    2    0    0 -0.12020347815E-01  0.80039184135E-02  0.16686223287E-01  0.10218623422E+01  0.10216240331E+01 0.  0.
     999903    2    3    3    0    0  0.26921562945E-01 -0.53235079716E-01 -0.11300954399E+00  0.12940075799E+00  0.20363076189E-01 0.  0.
         14    1    1    2    0    0  0.12020347815E-01 -0.80039184135E-02 -0.16686223287E-01  0.22067657763E-01  0.00000000000E+00 0. -1.
     999901    1    3    3    0    0 -0.38941910760E-01  0.61238998129E-01  0.12969576728E+00  0.89246158425E+00  0.88000000000E+00 0.  1.
        -11    1    4    4    0    0  0.21580492965E-01 -0.39015455823E-01 -0.99628434478E-01  0.10915131491E+00  0.51100000000E-03 0.  1.
         11    1    4    4    0    0  0.53410699798E-02 -0.14219623892E-01 -0.13381109513E-01  0.20249443078E-01  0.51100000000E-03 0. -1.
</event>
<event>
 8    1  0.1092667E+005  0.1043930E+01  0.7957747E-01            NaN
         13   -1    0    0    0    0  0.00000000000E+00  0.00000000000E+00  0.74505805969E-08  0.10566000000E+00  0.10566000000E+00 0.  1.
     999900   -1    0    0    0    0 -0.00000000000E+00 -0.00000000000E+00 -0.74505805969E-08  0.93827000000E+00  0.93827000000E+00 0.  1.
     999902    2    1    2    0    0 -0.84787961297E-02  0.16673936104E-01 -0.12361482132E-01  0.10215086626E+01  0.10212625673E+01 0.  0.
     999903    2    3    3    0    0  0.26922199523E-01 -0.56763467571E-01  0.11097479158E+00  0.12917569834E+00  0.20592731658E-01 0.  0.
         14    1    1    2    0    0  0.84787961297E-02 -0.16673936104E-01  0.12361482132E-01  0.22421337371E-01  0.00000000000E+00 0.  1.
     999901    1    3    3    0    0 -0.35400995653E-01  0.73437403675E-01 -0.12333627371E+00  0.89233296429E+00  0.88000000000E+00 0.  1.
        -11    1    4    4    0    0  0.20618802666E-01 -0.30163015129E-01  0.46472175968E-01  0.59117398160E-01  0.51100000000E-03 0. -1.
         11    1    4    4    0    0  0.63033968570E-02 -0.26600452442E-01  0.64502615609E-01  0.70058300175E-01  0.51100000000E-03 0.  1.
</event>
<event>
 8    1  0.1092667E+005  0.1043930E+01  0.7957747E-01            NaN
         13   -1    0    0    0    0  0.00000000000E+00  0.00000000000E+00  0.74505805969E-08  0.10566000000E+00  0.10566000000E+00 0.  1.
     999900   -1    0    0    0    0 -0.00000000000E+00 -0.00000000000E+00 -0.74505805969E-08  0.93827000000E+00  0.93827000000E+00 0.  1.
     999902    2    1    2    0    0 -0.60416172276E-02  0.22648356851E-01 -0.23634769222E-02  0.10203708143E+01  0.10200988008E+01 0.  0.
     999903    2    3    3    0    0 -0.43205456236E-02  0.13162585873E+00  0.90986571858E-02  0.13357295769E+00  0.20369478673E-01 0.  0.
         14    1    1    2    0    0  0.60416172276E-02 -0.22648356851E-01  0.23634769222E-02  0.23559185681E-01  0.00000000000E+00 0.  1.
     999901    1    3    3    0    0 -0.17210716040E-02 -0.10897750188E+00 -0.11462134108E-01  0.88679785663E+00  0.88000000000E+00 0.  1.
        -11    1    4    4    0    0 -0.11444593582E-02  0.74860702177E-01  0.15172984960E-01  0.76393161417E-01  0.51100000000E-03 0. -1.
         11    1    4    4    0    0 -0.31760862654E-02  0.56765156557E-01 -0.60743277738E-02  0.57179796273E-01  0.51100000000E-03 0.  1.
</event>
<event>
 8    1  0.1092667E+005  0.1043930E+01  0.7957747E-01            NaN
         13   -1    0    0    0    0  0.00000000000E+00  0.00000000000E+00  0.74505805969E-08  0.10566000000E+00  0.10566000000E+00 0. -1.
     999900   -1    0    0    0    0 -0.00000000000E+00 -0.00000000000E+00 -0.74505805969E-08  0.93827000000E+00  0.93827000000E+00 0.  1.
     999902    2    1    2    0    0 -0.77713846437E-02 -0.15276933966E-01  0.17779059910E-01  0.10192343708E+01  0.10189351444E+01 0.  0.
     999903    2    3    3    0    0  0.12342736077E+00 -0.16736903038E-01  0.29448754916E-01  0.12943022151E+00  0.19248786025E-01 0.  0.
         14    1    1    2    0    0  0.77713846437E-02  0.15276933966E-01 -0.17779059910E-01  0.24695629208E-01  0.00000000000E+00 0.  1.
     999901    1    3    3    0    0 -0.13119874541E+00  0.14599690718E-02 -0.11669695006E-01  0.88980414929E+00  0.88000000000E+00 0.  1.
        -11    1    4    4    0    0  0.76654613107E-01 -0.17789708895E-01  0.24302586539E-01  0.82360671966E-01  0.51100000000E-03 0.  1.
         11    1    4    4    0    0  0.46772747660E-01  0.10528058573E-02  0.51461683775E-02  0.47069549539E-01  0.51100000000E-03 0. -1.
</event>
<event>
 8    1  0.1092667E+005  0.1043930E+01  0.7957747E-01            NaN
         13   -1    0    0    0    0  0.00000000000E+00  0.00000000000E+00  0.74505805969E-08  0.10566000000E+00  0.10566000000E+00 0.  1.
     999900   -1    0    0    0    0 -0.00000000000E+00 -0.00000000000E+00 -0.74505805969E-08  0.93827000000E+00  0.93827000000E+00 0. -1.
     999902    2    1    2    0    0  0.51063200047E-02 -0.22255273733E-01  0.14434836430E-03  0.10210959782E+01  0.10208406361E+01 0.  0.
     999903    2    3    3    0    0 -0.10359581880E+00 -0.99605930465E-02  0.77110442812E-01  0.13098862863E+00  0.19511364671E-01 0.  0.
         14    1    1    2    0    0 -0.51063200047E-02  0.22255273733E-01 -0.14434836430E-03  0.22834021752E-01  0.00000000000E+00 0. -1.
     999901    1    3    3    0    0  0.10870213881E+00 -0.12294680687E-01 -0.76966094448E-01  0.89010734962E+00  0.88000000000E+00 0. -1.
        -11    1    4    4    0    0 -0.68975125809E-01 -0.51968966301E-02  0.62073310639E-01  0.92940479499E-01  0.51100000000E-03 0. -1.
         11    1    4    4    0    0 -0.34620692995E-01 -0.47636964164E-02  0.15037132173E-01  0.38048149127E-01  0.51100000000E-03 0.  1.
</event>
<event>
 8    1  0.1092667E+005  0.1043930E+01  0.7957747E-01            NaN
         13   -1    0    0    0    0  0.00000000000E+00  0.00000000000E+00  0.74505805969E-08  0.10566000000E+00  0.10566000000E+00 0. -1.
     999900   -1    0    0    0    0 -0.00000000000E+00 -0.00000000000E+00 -0.74505805969E-08  0.93827000000E+00  0.93827000000E+00 0. -1.
     999902    2    1    2    0    0 -0.96516336360E-02 -0.14785643772E-01 -0.17191099392E-01  0.10192864777E+01  0.10189885281E+01 0.  0.
     999903    2    3    3    0    0 -0.10501053716E+00 -0.31342425539E-01  0.67950493094E-01  0.12989537234E+00  0.15683675877E-01 0.  0.
         14    1    1    2    0    0  0.96516336360E-02  0.14785643772E-01  0.17191099392E-01  0.24643522311E-01  0.00000000000E+00 0.  1.
     999901    1    3    3    0    0  0.95358903529E-01  0.16556781766E-01 -0.85141592486E-01  0.88939110535E+00  0.88000000000E+00 0. -1.
        -11    1    4    4    0    0 -0.25636324181E-01 -0.17297788960E-02  0.19850965425E-01  0.32473607774E-01  0.51100000000E-03 0. -1.
         11    1    4    4    0    0 -0.79374212984E-01 -0.29612646643E-01  0.48099527669E-01  0.97421764565E-01  0.51100000000E-03 0.  1.
</event>
<event>
 8    1  0.1181347E+005  0.1043930E+01  0.7957747E-01            NaN
         13   -1    0    0    0    0  0.00000000000E+00  0.00000000000E+00  0.74505805969E-08  0.10566000000E+00  0.10566000000E+00 0. -1.
     999900   -1    0    0    0    0 -0.00000000000E+00 -0.00000000000E+00 -0.74505805969E-08  0.93827000000E+00  0.93827000000E+00 0.  1.
     999902    2    1    2    0    0 -0.23796864647E-01 -0.32502888553E-02  0.96246676235E-03  0.10198929143E+01  0.10196096190E+01 0.  0.
     999903    2    3    3    0    0 -0.59007297618E-01  0.46673625580E-01  0.10437156227E+00  0.13173436270E+00  0.28288351108E-01 0.  0.
         14    1    1    2    0    0  0.23796864647E-01  0.32502888553E-02 -0.96246676235E-03  0.24037085658E-01  0.00000000000E+00 0.  1.
     999901    1    3    3    0    0  0.35210432971E-01 -0.49923914435E-01 -0.10340909551E+00  0.88815855164E+00  0.88000000000E+00 0.  1.
        -11    1    4    4    0    0 -0.30753889428E-01  0.11447390381E-01  0.60193365588E-01  0.68559075572E-01  0.51100000000E-03 0.  1.
         11    1    4    4    0    0 -0.28253408190E-01  0.35226235199E-01  0.44178196681E-01  0.63175287127E-01  0.51100000000E-03 0. -1.
</event>
<event>
 8    1  0.1092667E+005  0.1043930E+01  0.7957747E-01            NaN
         13   -1    0    0    0    0  0.00000000000E+00  0.00000000000E+00  0.74505805969E-08  0.10566000000E+00  0.10566000000E+00 0.  1.
     999900   -1    0    0    0    0 -0.00000000000E+00 -0.00000000000E+00 -0.74505805969E-08  0.93827000000E+00  0.93827000000E+00 0. -1.
     999902    2    1    2    0    0 -0.23083592577E-01  0.33012081349E-02  0.57763560539E-02  0.10199067506E+01  0.10196237853E+01 0.  0.
     999903    2    3    3    0    0 -0.74777054948E-01 -0.81731357645E-01 -0.67491733585E-01  0.13127242524E+00  0.20141816100E-01 0.  0.
         14    1    1    2    0    0  0.23083592577E-01 -0.33012081349E-02 -0.57763560539E-02  0.24023249378E-01  0.00000000000E+00 0. -1.
     999901    1    3    3    0    0  0.51693462371E-01  0.85032565780E-01  0.73268089638E-01  0.88863432539E+00  0.88000000000E+00 0.  1.
        -11    1    4    4    0    0 -0.65792883170E-01 -0.63210648734E-01 -0.48834672557E-01  0.10348611479E+00  0.51100000000E-03 0.  1.
         11    1    4    4    0    0 -0.89841717780E-02 -0.18520708911E-01 -0.18657061027E-01  0.27786310447E-01  0.51100000000E-03 0. -1.
</event>
<event>
 8    1  0.1092667E+005  0.1043930E+01  0.7957747E-01            NaN
         13   -1    0    0    0    0  0.00000000000E+00  0.00000000000E+00  0.74505805969E-08  0.10566000000E+00  0.10566000000E+00 0. -1.
     999900   -1    0    0    0    0 -0.00000000000E+00 -0.00000000000E+00 -0.74505805969E-08  0.93827000000E+00  0.93827000000E+00 0.  1.
     999902    2    1    2    0    0  0.18663029689E-01 -0.14876245534E-01 -0.17977755029E-04  0.10200634610E+01  0.10197842188E+01 0.  0.
     999903    2    3    3    0    0 -0.15380178339E-01  0.84367838612E-01 -0.94274677656E-01  0.12883248441E+00  0.18857680483E-01 0.  0.
         14    1    1    2    0    0 -0.18663029689E-01  0.14876245534E-01  0.17977755029E-04  0.23866538952E-01  0.00000000000E+00 0. -1.
     999901    1    3    3    0    0  0.34043208028E-01 -0.99244084146E-01  0.94256699901E-01  0.89123097664E+00  0.88000000000E+00 0. -1.
        -11    1    4    4    0    0 -0.13637947994E-01  0.40506477237E-01 -0.56980446423E-01  0.71230616445E-01  0.51100000000E-03 0.  1.
         11    1    4    4    0    0 -0.17422303452E-02  0.43861361375E-01 -0.37294231233E-01  0.57601867960E-01  0.51100000000E-03 0. -1.
</event>
<event>
 8    1  0.1092667E+005  0.1043930E+01  0.7957747E-01            NaN
         13   -1    0    0    0    0  0.00000000000E+00  0.00000000000E+00  0.74505805969E-08  0.10566000000E+00  0.10566000000E+00 0. -1.
     999900   -1    0    0    0    0 -0.00000000000E+00 -0.00000000000E+00 -0.74505805969E-08  0.93827000000E+00  0.93827000000E+00 0. -1.
     999902    2    1    2    0    0  0.18370314577E-01  0.14401801962E-01  0.20965703822E-02  0.10204933628E+01  0.10202242045E+01 0.  0.
     999903    2    3    3    0    0  0.11585110468E+00  0.50375704881E-01  0.38477006847E-01  0.13363364314E+00  0.20451905176E-01 0.  0.
         14    1    1    2    0    0 -0.18370314577E-01 -0.14401801962E-01 -0.20965703822E-02  0.23436637233E-01  0.00000000000E+00 0. -1.
     999901    1    3    3    0    0 -0.97480790108E-01 -0.35973902919E-01 -0.36380436465E-01  0.88685971962E+00  0.88000000000E+00 0.  1.
        -11    1    4    4    0    0  0.45203696501E-01  0.27417037818E-01  0.23473972910E-01  0.57847702333E-01  0.51100000000E-03 0.  1.
         11    1    4    4    0    0  0.70647408183E-01  0.22958667063E-01  0.15003033938E-01  0.75785940811E-01  0.51100000000E-03 0. -1.
</event>
<event>
 8    1  0.1339305E+005  0.1043930E+01  0.7957747E-01            NaN
         13   -1    0    0    0    0  0.00000000000E+00  0.00000000000E+00  0.74505805969E-08  0.10566000000E+00  0.10566000000E+00 0.  1.
     999900   -1    0    0    0    0 -0.00000000000E+00 -0.00000000000E+00 -0.74505805969E-08  0.93827000000E+00  0.93827000000E+00 0.  1.
     999902    2    1    2    0    0 -0.20066143850E-01 -0.84242890052E-02  0.96353356516E-02  0.10201296120E+01  0.10198519338E+01 0.  0.
     999903    2    3    3    0    0  0.79870386299E-01 -0.83136922251E-02 -0.97587519440E-01  0.12800626689E+00  0.20344147257E-01 0.  0.
         14    1    1    2    0    0  0.20066143850E-01  0.84242890052E-02 -0.96353356516E-02  0.23800387967E-01  0.00000000000E+00 0. -1.
     999901    1    3    3    0    0 -0.99936530149E-01 -0.11059678004E-03  0.10722285509E+00  0.89212334514E+00  0.88000000000E+00 0. -1.
        -11    1    4    4    0    0  0.45589177035E-01  0.51917535441E-02 -0.57282761671E-01  0.73395526248E-01  0.51100000000E-03 0. -1.
         11    1    4    4    0    0  0.34281209264E-01 -0.13505445769E-01 -0.40304757768E-01  0.54610740645E-01  0.51100000000E-03 0.  1.
</event>
<event>
 8    1  0.1092667E+005  0.1043930E+01  0.7957747E-01            NaN
         13   -1    0    0    0    0  0.00000000000E+00  0.00000000000E+00  0.74505805969E-08  0.10566000000E+00  0.10566000000E+00 0. -1.
     999900   -1    0    0    0    0 -0.00000000000E+00 -0.00000000000E+00 -0.74505805969E-08  0.93827000000E+00  0.93827000000E+00 0.  1.
     999902    2    1    2    0    0 -0.35516529485E-02  0.13519844518E-01  0.19150509880E-01  0.10202204563E+01  0.10199449186E+01 0.  0.
     999903    2    3    3    0    0 -0.29864973849E-02 -0.73161180810E-01 -0.10255658925E+00  0.12762506221E+00  0.20219420398E-01 0.  0.
         14    1    1    2    0    0  0.35516529485E-02 -0.13519844518E-01 -0.19150509880E-01  0.23709543714E-01  0.00000000000E+00 0. -1.
     999901    1    3    3    0    0 -0.56515556363E-03  0.86681025328E-01  0.12170709913E+00  0.89259539408E+00  0.88000000000E+00 0. -1.
        -11    1    4    4    0    0 -0.22098336831E-02 -0.37762135782E-01 -0.35934821052E-01  0.52176956109E-01  0.51100000000E-03 0.  1.
         11    1    4    4    0    0 -0.77666370184E-03 -0.35399045028E-01 -0.66621768194E-01  0.75448106098E-01  0.51100000000E-03 0. -1.
</event>
<event>
 8    1  0.1092667E+005  0.1043930E+01  0.7957747E-01            NaN
         13   -1    0    0    0    0  0.00000000000E+00  0.00000000000E+00  0.74505805969E-08  0.10566000000E+00  0.10566000000E+00 0.  1.
     999900   -1    0    0    0    0 -0.00000000000E+00 -0.00000000000E+00 -0.74505805969E-08  0.93827000000E+00  0.93827000000E+00 0.  1.
     999902    2    1    2    0    0 -0.11039712175E-01  0.15810057438E-01  0.14421124138E-01  0.10198509223E+01  0.10195666245E+01 0.  0.
     999903    2    3    3    0    0 -0.24882572718E-01  0.64599862454E-01 -0.10891547234E+00  0.12980374047E+00  0.13933638166E-01 0.  0.
         14    1    1    2    0    0  0.11039712175E-01 -0.15810057438E-01 -0.14421124138E-01  0.24079077692E-01  0.00000000000E+00 0. -1.
     999901    1    3    3    0    0  0.13842860543E-01 -0.48789805016E-01  0.12333659647E+00  0.89004718183E+00  0.88000000000E+00 0. -1.
        -11    1    4    4    0    0 -0.72410447590E-02  0.11358657312E-01 -0.30951099050E-01  0.33759198429E-01  0.51100000000E-03 0.  1.
         11    1    4    4    0    0 -0.17641527959E-01  0.53241205142E-01 -0.77964373286E-01  0.96044542045E-01  0.51100000000E-03 0. -1.
</event>
<event>
 8    1  0.1092667E+005  0.1043930E+01  0.7957747E-01            NaN
         13   -1    0    0    0    0  0.00000000000E+00  0.00000000000E+00  0.74505805969E-08  0.10566000000E+00  0.10566000000E+00 0. -1.
     999900   -1    0    0    0    0 -0.00000000000E+00 -0.00000000000E+00 -0.74505805969E-08  0.93827000000E+00  0.93827000000E+00 0. -1.
     999902    2    1    2    0    0 -0.50661795550E-02 -0.20550089845E-01  0.12714631010E-01  0.10192392282E+01  0.10189401210E+01 0.  0.
     999903    2    3    3    0    0  0.82562778095E-01 -0.37839484342E-01  0.92654922745E-01  0.13111299419E+00  0.18900889787E-01 0.  0.
         14    1    1    2    0    0  0.50661795550E-02  0.20550089845E-01 -0.12714631010E-01  0.24690771751E-01  0.00000000000E+00 0.  1.
     999901    1    3    3    0    0 -0.87628957650E-01  0.17289394497E-01 -0.79940291735E-01  0.88812623406E+00  0.88000000000E+00 0. -1.
        -11    1    4    4    0    0  0.64285649617E-01 -0.27017629904E-01  0.80989183774E-01  0.10687425360E+00  0.51100000000E-03 0. -1.
         11    1    4    4    0    0  0.18277128478E-01 -0.10821854438E-01  0.11665738971E-01  0.24238740595E-01  0.51100000000E-03 0.  1.
</event>
<event>
 7    1  0.1092667E+005  0.1043930E+01  0.7957747E-01            NaN
         13   -1    0    0    0    0  0.00000000000E+00  0.00000000000E+00  0.74505805969E-08  0.10566000000E+00  0.10566000000E+00 0.  1.
     999900   -1    0    0    0    0 -0.00000000000E+00 -0.00000000000E+00 -0.74505805969E-08  0.93827000000E+00  0.93827000000E+00 0.  1.
     999903    2    1    2    0    0  0.17447000417E-01  0.66657666391E-01 -0.73355157269E-01  0.10256721574E+00  0.19784143487E-01 0.  0.
         14    1    1    2    0    0  0.26528808944E-01 -0.30088938829E-01 -0.34533524188E-01  0.52930957262E-01  0.00000000000E+00 0. -1.
     999901    1    1    2    0    0 -0.43975809361E-01 -0.36568727562E-01  0.10788868146E+00  0.88843182700E+00  0.88000000000E+00 0. -1.
        -11    1    3    3    0    0  0.12698118538E-01  0.29831537874E-01 -0.21967040383E-01  0.39165990994E-01  0.51100000000E-03 0.  1.
         11    1    3    3    0    0  0.47488818790E-02  0.36826128517E-01 -0.51388116886E-01  0.63401224741E-01  0.51100000000E-03 0. -1.
</event>
<event>
 8    1  0.1092667E+005  0.1043930E+01  0.7957747E-01            NaN
         13   -1    0    0    0    0  0.00000000000E+00  0.00000000000E+00  0.74505805969E-08  0.10566000000E+00  0.10566000000E+00 0.  1.
     999900   -1    0    0    0    0 -0.00000000000E+00 -0.00000000000E+00 -0.74505805969E-08  0.93827000000E+00  0.93827000000E+00 0. -1.
     999902    2    1    2    0    0  0.23010404278E-01 -0.34996636493E-02 -0.49424562953E-02  0.10201360044E+01  0.10198584771E+01 0.  0.
     999903    2    3    3    0    0 -0.49952442130E-01  0.87246579571E-01 -0.79026199779E-01  0.12937966364E+00  0.19665833089E-01 0.  0.
         14    1    1    2    0    0 -0.23010404278E-01  0.34996636493E-02  0.49424562953E-02  0.23793995565E-01  0.00000000000E+00 0.  1.
     999901    1    3    3    0    0  0.72962846408E-01 -0.90746243220E-01  0.74083743483E-01  0.89075634079E+00  0.88000000000E+00 0.  1.
        -11    1    4    4    0    0 -0.16586129096E-01  0.13212385630E-01 -0.17442050401E-01  0.27461847272E-01  0.51100000000E-03 0.  1.
         11    1    4    4    0    0 -0.33366313034E-01  0.74034193941E-01 -0.61584149377E-01  0.10191781637E+00  0.51100000000E-03 0. -1.
</event>
<event>
 8    1  0.1092667E+005  0.1043930E+01  0.7957747E-01            NaN
         13   -1    0    0    0    0  0.00000000000E+00  0.00000000000E+00  0.74505805969E-08  0.10566000000E+00  0.10566000000E+00 0. -1.
     999900   -1    0    0    0    0 -0.00000000000E+00 -0.00000000000E+00 -0.74505805969E-08  0.93827000000E+00  0.93827000000E+00 0. -1.
     999902    2    1    2    0    0  0.73201018937E-02  0.23283124919E-01 -0.38080795585E-03  0.10195203131E+01  0.10192280589E+01 0.  0.
     999903    2    3    3    0    0 -0.33733534400E-01 -0.21546628152E-01 -0.12116500976E+00  0.12919232233E+00  0.20186332794E-01 0.  0.
         14    1    1    2    0    0 -0.73201018937E-02 -0.23283124919E-01  0.38080795585E-03  0.24409686856E-01  0.00000000000E+00 0.  1.
     999901    1    3    3    0    0  0.41053636293E-01  0.44829753071E-01  0.12078420181E+00  0.89032799081E+00  0.88000000000E+00 0.  1.
        -11    1    4    4    0    0 -0.32584188813E-01 -0.19337513575E-01 -0.86523220781E-01  0.94457385350E-01  0.51100000000E-03 0.  1.
         11    1    4    4    0    0 -0.11493455869E-02 -0.22091145769E-02 -0.34641788981E-01  0.34734936984E-01  0.51100000000E-03 0. -1.
</event>
<event>
 8    1  0.1092667E+005  0.1043930E+01  0.7957747E-01            NaN
         13   -1    0    0    0    0  0.00000000000E+00  0.00000000000E+00  0.74505805969E-08  0.10566000000E+00  0.10566000000E+00 0. -1.
     999900   -1    0    0    0    0 -0.00000000000E+00 -0.00000000000E+00 -0.74505805969E-08  0.93827000000E+00  0.93827000000E+00 0.  1.
     999902    2    1    2    0    0 -0.13485462905E-02 -0.97496482831E-02 -0.22127922105E-01  0.10197118424E+01  0.10194242112E+01 0.  0.
     999903    2    3    3    0    0 -0.12277189464E+00  0.20405530193E-01 -0.35073637294E-01  0.13076833701E+00  0.19515997398E-01 0.  0.
         14    1    1    2    0    0  0.13485462905E-02  0.97496482831E-02  0.22127922105E-01  0.24218157557E-01  0.00000000000E+00 0. -1.
     999901    1    3    3    0    0  0.12142334835E+00 -0.30155178476E-01  0.12945715189E-01  0.88894350544E+00  0.88000000000E+00 0.  1.
        -11    1    4    4    0    0 -0.14745156619E-01  0.84402764665E-02 -0.17576010969E-02  0.17088247223E-01  0.51100000000E-03 0.  1.
         11    1    4    4    0    0 -0.10802673802E+00  0.11965253726E-01 -0.33316036197E-01  0.11368008978E+00  0.51100000000E-03 0. -1.
</event>
<event>
 8    1  0.1092667E+005  0.1043930E+01  0.7957747E-01            NaN
         13   -1    0    0    0    0  0.00000000000E+00  0.00000000000E+00  0.74505805969E-08  0.10566000000E+00  0.10566000000E+00 0.  1.
     999900   -1    0    0    0    0 -0.00000000000E+00 -0.00000000000E+00 -0.74505805969E-08  0.93827000000E+00  0.93827000000E+00 0. -1.
     999902    2    1    2    0    0  0.87896935406E-03  0.17419106996E-01 -0.14517558301E-01  0.10212373277E+01  0.10209851724E+01 0.  0.
     999903    2    3    3    0    0 -0.18695154396E-01  0.12481859339E+00  0.38835656630E-01  0.13288809374E+00  0.14894535167E-01 0.  0.
         14    1    1    2    0    0 -0.87896935406E-03 -0.17419106996E-01  0.14517558301E-01  0.22692672268E-01  0.00000000000E+00 0.  1.
     999901    1    3    3    0    0  0.19574123750E-01 -0.10739948639E+00 -0.53353214931E-01  0.88834923400E+00  0.88000000000E+00 0. -1.
        -11    1    4    4    0    0 -0.10107957609E-01  0.51348207623E-01  0.88971007023E-02  0.53086992334E-01  0.51100000000E-03 0.  1.
         11    1    4    4    0    0 -0.85871967870E-02  0.73470385764E-01  0.29938555928E-01  0.79801101402E-01  0.51100000000E-03 0. -1.
</event>
<event>
 8    1  0.1092667E+005  0.1043930E+01  0.7957747E-01            NaN
         13   -1    0    0    0    0  0.00000000000E+00  0.00000000000E+00  0.74505805969E-08  0.10566000000E+00  0.10566000000E+00 0. -1.
     999900   -1    0    0    0    0 -0.00000000000E+00 -0.00000000000E+00 -0.74505805969E-08  0.93827000000E+00  0.93827000000E+00 0. -1.
     999902    2    1    2    0    0  0.97376282916E-03 -0.24675119161E-01  0.66988090325E-02  0.10183432112E+01  0.10180217149E+01 0.  0.
     999903    2    3    3    0    0  0.99888096579E-01 -0.76674016396E-01  0.29122056538E-01  0.13099281096E+00  0.21318670660E-01 0.  0.
         14    1    1    2    0    0 -0.97376282916E-03  0.24675119161E-01 -0.66988090325E-02  0.25586788820E-01  0.00000000000E+00 0.  1.
     999901    1    3    3    0    0 -0.98914333750E-01  0.51998897235E-01 -0.22423247505E-01  0.88735040022E+00  0.88000000000E+00 0. -1.
        -11    1    4    4    0    0  0.82214294171E-01 -0.72310638031E-01  0.25594444375E-01  0.11244267536E+00  0.51100000000E-03 0.  1.
         11    1    4    4    0    0  0.17673802408E-01 -0.43633783654E-02  0.35276121624E-02  0.18550135603E-01  0.51100000000E-03 0. -1.
</event>
<event>
 8    1  0.1092667E+005  0.1043930E+01  0.7957747E-01            NaN
         13   -1    0    0    0    0  0.00000000000E+00  0.00000000000E+00  0.74505805969E-08  0.10566000000E+00  0.10566000000E+00 0.  1.
     999900   -1    0    0    0    0 -0.00000000000E+00 -0.00000000000E+00 -0.74505805969E-08  0.93827000000E+00  0.93827000000E+00 0.  1.
     999902    2    1    2    0    0 -0.22168013155E-01 -0.56437757556E-02  0.96046965745E-02  0.10191202598E+01  0.10188182275E+01 0.  0.
     999903    2    3    3    0    0 -0.37766178056E-01 -0.45671097998E-01 -0.11348755496E+00  0.12951518357E+00  0.19560783411E-01 0.  0.
         14    1    1    2    0    0  0.22168013155E-01  0.56437757556E-02 -0.96046965745E-02  0.24809740191E-01  0.00000000000E+00 0. -1.
     999901    1    3    3    0    0  0.15598164901E-01  0.40027322242E-01  0.12309225154E+00  0.88960507623E+00  0.88000000000E+00 0. -1.
        -11    1    4    4    0    0 -0.18735429280E-01 -0.24966847109E-01 -0.79430253103E-01  0.85345099413E-01  0.51100000000E-03 0. -1.
         11    1    4    4    0    0 -0.19030748776E-01 -0.20704250889E-01 -0.34057301860E-01  0.44170084161E-01  0.51100000000E-03 0.  1.
</event>
<event>
 8    1  0.1092667E+005  0.1043930E+01  0.7957747E-01            NaN
         13   -1    0    0    0    0  0.00000000000E+00  0.00000000000E+00  0.74505805969E-08  0.10566000000E+00  0.10566000000E+00 0.  1.
     999900   -1    0    0    0    0 -0.00000000000E+00 -0.00000000000E+00 -0.74505805969E-08  0.93827000000E+00  0.93827000000E+00 0. -1.
     999902    2    1    2    0    0  0.19296163374E-01  0.14011727556E-01  0.38868697672E-02  0.10197684978E+01  0.10194822269E+01 0.  0.
     999903    2    3    3    0    0 -0.38190918638E-01 -0.10013018335E+00  0.67447752141E-01  0.12826800643E+00  0.20466614731E-01 0.  0.
         14    1    1    2    0    0 -0.19296163374E-01 -0.14011727556E-01 -0.38868697672E-02  0.24161502160E-01  0.00000000000E+00 0. -1.
     999901    1    3    3    0    0  0.57487082011E-01  0.11414191091E+00 -0.63560882374E-01  0.89150049141E+00  0.88000000000E+00 0. -1.
        -11    1    4    4    0    0 -0.20862453771E-01 -0.79201565692E-01  0.49519225448E-01  0.95710735006E-01  0.51100000000E-03 0. -1.
         11    1    4    4    0    0 -0.17328464867E-01 -0.20928617662E-01  0.17928526693E-01  0.32557271419E-01  0.51100000000E-03 0.  1.
</event>
<event>
 8    1  0.1092667E+005  0.1043930E+01  0.7957747E-01            NaN
         13   -1    0    0    0    0  0.00000000000E+00  0.00000000000E+00  0.74505805969E-08  0.10566000000E+00  0.10566000000E+00 0.  1.
     999900   -1    0    0    0    0 -0.00000000000E+00 -0.00000000000E+00 -0.74505805969E-08  0.93827000000E+00  0.93827000000E+00 0.  1.
     999902    2    1    2    0    0  0.19879456049E-01  0.69811923684E-03  0.12944940559E-01  0.10201970771E+01  0.10199209893E+01 0.  0.
     999903    2    3    3    0    0 -0.10439869474E+00  0.55113760792E-01 -0.45123224975E-01  0.12790898872E+00  0.19697458530E-01 0.  0.
         14    1    1    2    0    0 -0.19879456049E-01 -0.69811923684E-03 -0.12944940559E-01  0.23732922900E-01  0.00000000000E+00 0.  1.
     999901    1    3    3    0    0  0.12427815079E+00 -0.54415641555E-01  0.58068165534E-01  0.89228808838E+00  0.88000000000E+00 0. -1.
        -11    1    4    4    0    0 -0.73016709456E-01  0.37215684100E-01 -0.40710235719E-01  0.91509733997E-01  0.51100000000E-03 0.  1.
         11    1    4    4    0    0 -0.31381985282E-01  0.17898076692E-01 -0.44129892556E-02  0.36399254727E-01  0.51100000000E-03 0. -1.
</event>
<event>
 8    1  0.1092667E+005  0.1043930E+01  0.7957747E-01            NaN
         13   -1    0    0    0    0  0.00000000000E+00  0.00000000000E+00  0.74505805969E-08  0.10566000000E+00  0.10566000000E+00 0. -1.
     999900   -1    0    0    0    0 -0.00000000000E+00 -0.00000000000E+00 -0.74505805969E-08  0.93827000000E+00  0.93827000000E+00 0. -1.
     999902    2    1    2    0    0 -0.14656490432E-02 -0.10035398582E-01 -0.21612878231E-01  0.10200558747E+01  0.10197764528E+01 0.  0.
     999903    2    3    3    0    0 -0.64717569890E-01  0.89190918768E-01  0.62963121188E-01  0.12820399957E+00  0.18125314727E-01 0.  0.
         14    1    1    2    0    0  0.14656490432E-02  0.10035398582E-01  0.21612878231E-01  0.23874125267E-01  0.00000000000E+00 0. -1.
     999901    1    3    3    0    0  0.63251920847E-01 -0.99226317350E-01 -0.84575999419E-01  0.89185187516E+00  0.88000000000E+00 0. -1.
        -11    1    4    4    0    0 -0.58749351492E-01  0.86954881477E-01  0.61533755451E-01  0.12165238138E+00  0.51100000000E-03 0.  1.
         11    1    4    4    0    0 -0.59682183981E-02  0.22360372912E-02  0.14293657366E-02  0.65516181989E-02  0.51100000000E-03 0. -1.
</event>
<event>
 8    1  0.1092667E+005  0.1043930E+01  0.7957747E-01            NaN
         13   -1    0    0    0    0  0.00000000000E+00  0.00000000000E+00  0.74505805969E-08  0.10566000000E+00  0.10566000000E+00 0. -1.
     999900   -1    0    0    0    0 -0.00000000000E+00 -0.00000000000E+00 -0.74505805969E-08  0.93827000000E+00  0.93827000000E+00 0. -1.
     999902    2    1    2    0    0  0.23023517046E-01  0.11447078442E-02 -0.24971184807E-02  0.10207431871E+01  0.10204798017E+01 0.  0.
     999903    2    3    3    0    0 -0.67528263918E-01  0.69383797995E-01 -0.83978666540E-01  0.12973508321E+00  0.20114609884E-01 0.  0.
         14    1    1    2    0    0 -0.23023517046E-01 -0.11447078442E-02  0.24971184807E-02  0.23186812931E-01  0.00000000000E+00 0.  1.
     999901    1    3    3    0    0  0.90551780964E-01 -0.68239090151E-01  0.81481548059E-01  0.89100810385E+00  0.88000000000E+00 0.  1.
        -11    1    4    4    0    0 -0.25705025074E-01  0.20709297033E-01 -0.40342003000E-01  0.52128318836E-01  0.51100000000E-03 0.  1.
         11    1    4    4    0    0 -0.41823238844E-01  0.48674500962E-01 -0.43636663540E-01  0.77606764378E-01  0.51100000000E-03 0. -1.
</event>
<event>
 8    1  0.1092667E+005  0.1043930E+01  0.7957747E-01            NaN
         13   -1    0    0    0    0  0.00000000000E+00  0.00000000000E+00  0.74505805969E-08  0.10566000000E+00  0.10566000000E+00 0.  1.
     999900   -1    0    0    0    0 -0.00000000000E+00 -0.00000000000E+00 -0.74505805969E-08  0.93827000000E+00  0.93827000000E+00 0.  1.
     999902    2    1    2    0    0  0.33649348568E-02  0.23281717676E-01  0.25862038236E-02  0.10202646326E+01  0.10199901327E+01 0.  0.
     999903    2    3    3    0    0  0.37345706826E-01  0.61967828679E-01  0.10900482227E+00  0.13235910248E+00  0.20054104851E-01 0.  0.
         14    1    1    2    0    0 -0.33649348568E-02 -0.23281717676E-01 -0.25862038236E-02  0.23665367412E-01  0.00000000000E+00 0. -1.
     999901    1    3    3    0    0 -0.33980771970E-01 -0.38686111004E-01 -0.10641861845E+00  0.88790553011E+00  0.88000000000E+00 0.  1.
        -11    1    4    4    0    0  0.28236026008E-01  0.34225765453E-01  0.78195536948E-01  0.89908171515E-01  0.51100000000E-03 0.  1.
         11    1    4    4    0    0  0.91096808184E-02  0.27742063226E-01  0.30809285321E-01  0.42450930963E-01  0.51100000000E-03 0. -1.
</event>
<event>
 8    1  0.1092667E+005  0.1043930E+01  0.7957747E-01            NaN
         13   -1    0    0    0    0  0.00000000000E+00  0.00000000000E+00  0.74505805969E-08  0.10566000000E+00  0.10566000000E+00 0. -1.
     999900   -1    0    0    0    0 -0.00000000000E+00 -0.00000000000E+00 -0.74505805969E-08  0.93827000000E+00  0.93827000000E+00 0.  1.
     999902    2    1    2    0    0  0.22162860536E-01 -0.40094548446E-02 -0.96250294474E-02  0.10194369539E+01  0.10191426758E+01 0.  0.
     999903    2    3    3    0    0 -0.97537931500E-01  0.54572009461E-01 -0.59324242005E-01  0.12801669426E+00  0.19420505183E-01 0.  0.
         14    1    1    2    0    0 -0.22162860536E-01  0.40094548446E-02  0.96250294474E-02  0.24493046098E-01  0.00000000000E+00 0.  1.
     999901    1    3    3    0    0  0.11970079204E+00 -0.58581464305E-01  0.49699212558E-01  0.89142025964E+00  0.88000000000E+00 0.  1.
        -11    1    4    4    0    0 -0.10422711322E-01  0.13580064465E-01 -0.10123443984E-01  0.19894629960E-01  0.51100000000E-03 0.  1.
         11    1    4    4    0    0 -0.87115220177E-01  0.40991944996E-01 -0.49200798021E-01  0.10812206430E+00  0.51100000000E-03 0. -1.
</event>
<event>
 8    1  0.1092667E+005  0.1043930E+01  0.7957747E-01            NaN
         13   -1    0    0    0    0  0.00000000000E+00  0.00000000000E+00  0.74505805969E-08  0.10566000000E+00  0.10566000000E+00 0. -1.
     999900   -1    0    0    0    0 -0.00000000000E+00 -0.00000000000E+00 -0.74505805969E-08  0.93827000000E+00  0.93827000000E+00 0.  1.
     999902    2    1    2    0    0 -0.20517014918E-01  0.32487056203E-02  0.10177746905E-01  0.10207980195E+01  0.10205358926E+01 0.  0.
     999903    2    3    3    0    0  0.85764841746E-01 -0.10554688089E-01  0.95305780512E-01  0.13021778795E+00  0.20161125466E-01 0.  0.
         14    1    1    2    0    0  0.20517014918E-01 -0.32487056203E-02 -0.10177746905E-01  0.23131980490E-01  0.00000000000E+00 0.  1.
     999901    1    3    3    0    0 -0.10628185666E+00  0.13803393709E-01 -0.85128033607E-01  0.89058023156E+00  0.88000000000E+00 0.  1.
        -11    1    4    4    0    0  0.21478895734E-01 -0.16020147710E-02  0.37756477759E-01  0.43470934509E-01  0.51100000000E-03 0.  1.
         11    1    4    4    0    0  0.64285946012E-01 -0.89526733177E-02  0.57549302752E-01  0.86746853444E-01  0.51100000000E-03 0. -1.
</event>
<event>
 8    1  0.1092667E+005  0.1043930E+01  0.7957747E-01            NaN
         13   -1    0    0    0    0  0.00000000000E+00  0.00000000000E+00  0.74505805969E-08  0.10566000000E+00  0.10566000000E+00 0. -1.
     999900   -1    0    0    0    0 -0.00000000000E+00 -0.00000000000E+00 -0.74505805969E-08  0.93827000000E+00  0.93827000000E+00 0. -1.
     999902    2    1    2    0    0 -0.22719855907E-01  0.31467834258E-02  0.73994967218E-02  0.10198292396E+01  0.10195444234E+01 0.  0.
     999903    2    3    3    0    0 -0.66888164992E-01 -0.17224159422E-01 -0.10927930379E+00  0.13079619338E+00  0.19874095756E-01 0.  0.
         14    1    1    2    0    0  0.22719855907E-01 -0.31467834258E-02 -0.73994967218E-02  0.24100760363E-01  0.00000000000E+00 0.  1.
     999901    1    3    3    0    0  0.44168309085E-01  0.20370942848E-01  0.11667880052E+00  0.88903304625E+00  0.88000000000E+00 0.  1.
        -11    1    4    4    0    0 -0.35462442375E-01 -0.71301216011E-02 -0.39261681937E-01  0.53386929513E-01  0.51100000000E-03 0.  1.
         11    1    4    4    0    0 -0.31425722617E-01 -0.10094037821E-01 -0.70017621857E-01  0.77409263871E-01  0.51100000000E-03 0. -1.
</event>
<event>
 8    1  0.1092667E+005  0.1043930E+01  0.7957747E-01            NaN
         13   -1    0    0    0    0  0.00000000000E+00  0.00000000000E+00  0.74505805969E-08  0.10566000000E+00  0.10566000000E+00 0. -1.
     999900   -1    0    0    0    0 -0.00000000000E+00 -0.00000000000E+00 -0.74505805969E-08  0.93827000000E+00  0.93827000000E+00 0. -1.
     999902    2    1    2    0    0 -0.82448180821E-03  0.69047037551E-02 -0.18063385238E-01  0.10245743654E+01  0.10243915217E+01 0.  0.
     999903    2    3    3    0    0 -0.13614021982E-01 -0.12955206949E+00 -0.23975903838E-01  0.13394594616E+00  0.19939714696E-01 0.  0.
         14    1    1    2    0    0  0.82448180821E-03 -0.69047037551E-02  0.18063385238E-01  0.19355634592E-01  0.00000000000E+00 0. -1.
     999901    1    3    3    0    0  0.12789540174E-01  0.13645677325E+00  0.59125186004E-02  0.89062841925E+00  0.88000000000E+00 0. -1.
        -11    1    4    4    0    0 -0.87283821720E-02 -0.18566912407E-01 -0.62024266202E-02  0.21439358868E-01  0.51100000000E-03 0. -1.
         11    1    4    4    0    0 -0.48856398104E-02 -0.11098515709E+00 -0.17773477218E-01  0.11250658729E+00  0.51100000000E-03 0.  1.
</event>
<event>
 8    1  0.1092667E+005  0.1043930E+01  0.7957747E-01            NaN
         13   -1    0    0    0    0  0.00000000000E+00  0.00000000000E+00  0.74505805969E-08  0.10566000000E+00  0.10566000000E+00 0.  1.
     999900   -1    0    0    0    0 -0.00000000000E+00 -0.00000000000E+00 -0.74505805969E-08  0.93827000000E+00  0.93827000000E+00 0. -1.
     999902    2    1    2    0    0  0.21071027894E-01  0.78084136839E-02 -0.64394948802E-02  0.10205542297E+01  0.10202864839E+01 0.  0.
     999903    2    3    3    0    0  0.12366961101E+00 -0.40635990180E-01 -0.19544588106E-01  0.13317321068E+00  0.20190510992E-01 0.  0.
         14    1    1    2    0    0 -0.21071027894E-01 -0.78084136839E-02  0.64394948802E-02  0.23375770256E-01  0.00000000000E+00 0. -1.
     999901    1    3    3    0    0 -0.10259858311E+00  0.48444403864E-01  0.13105093226E-01  0.88738101906E+00  0.88000000000E+00 0.  1.
        -11    1    4    4    0    0  0.15632178012E-01 -0.10702104959E-01  0.18485197246E-02  0.19041485922E-01  0.51100000000E-03 0.  1.
         11    1    4    4    0    0  0.10803743300E+00 -0.29933885221E-01 -0.21393107831E-01  0.11413172476E+00  0.51100000000E-03 0. -1.
</event>
<event>
 8    1  0.1092667E+005  0.1043930E+01  0.7957747E-01            NaN
         13   -1    0    0    0    0  0.00000000000E+00  0.00000000000E+00  0.74505805969E-08  0.10566000000E+00  0.10566000000E+00 0.  1.
     999900   -1    0    0    0    0 -0.00000000000E+00 -0.00000000000E+00 -0.74505805969E-08  0.93827000000E+00  0.93827000000E+00 0. -1.
     999902    2    1    2    0    0 -0.10365314970E-01  0.21756770567E-01 -0.12142593594E-02  0.10197997027E+01  0.10195141796E+01 0.  0.
     999903    2    3    3    0    0  0.10113666066E+00  0.67609515958E-01  0.42195818859E-01  0.13051931967E+00  0.21333890877E-01 0.  0.
         14    1    1    2    0    0  0.10365314970E-01 -0.21756770567E-01  0.12142593594E-02  0.24130297258E-01  0.00000000000E+00 0. -1.
     999901    1    3    3    0    0 -0.11150197563E+00 -0.45852745391E-01 -0.43410078218E-01  0.88928038307E+00  0.88000000000E+00 0.  1.
        -11    1    4    4    0    0  0.45574732319E-01  0.39994403007E-01  0.13329128798E-01  0.62084903909E-01  0.51100000000E-03 0.  1.
         11    1    4    4    0    0  0.55561928341E-01  0.27615112951E-01  0.28866690061E-01  0.68434415760E-01  0.51100000000E-03 0. -1.
</event>
<event>
 8    1  0.1092667E+005  0.1043930E+01  0.7957747E-01            NaN
         13   -1    0    0    0    0  0.00000000000E+00  0.00000000000E+00  0.74505805969E-08  0.10566000000E+00  0.10566000000E+00 0. -1.
     999900   -1    0    0    0    0 -0.00000000000E+00 -0.00000000000E+00 -0.74505805969E-08  0.93827000000E+00  0.93827000000E+00 0. -1.
     999902    2    1    2    0    0 -0.15302156105E-01 -0.27898258551E-02 -0.26253981069E-01  0.10134142560E+01  0.10129547096E+01 0.  0.
     999903    2    3    3    0    0 -0.79859861242E-01 -0.95236649339E-01 -0.23024173445E-02  0.12589648724E+00  0.19925048526E-01 0.  0.
         14    1    1    2    0    0  0.15302156105E-01  0.27898258551E-02  0.26253981069E-01  0.30515743998E-01  0.00000000000E+00 0. -1.
     999901    1    3    3    0    0  0.64557705137E-01  0.92446823484E-01 -0.23951563724E-01  0.88751776876E+00  0.88000000000E+00 0. -1.
        -11    1    4    4    0    0 -0.73052633275E-01 -0.82743371103E-01  0.37135636015E-02  0.11044095420E+00  0.51100000000E-03 0.  1.
         11    1    4    4    0    0 -0.68072279677E-02 -0.12493278235E-01 -0.60159809460E-02  0.15455533036E-01  0.51100000000E-03 0. -1.
</event>
<event>
 8    1  0.1092667E+005  0.1043930E+01  0.7957747E-01            NaN
         13   -1    0    0    0    0  0.00000000000E+00  0.00000000000E+00  0.74505805969E-08  0.10566000000E+00  0.10566000000E+00 0. -1.
     999900   -1    0    0    0    0 -0.00000000000E+00 -0.00000000000E+00 -0.74505805969E-08  0.93827000000E+00  0.93827000000E+00 0. -1.
     999902    2    1    2    0    0 -0.24042406191E-01  0.40762679653E-02  0.16988785430E-02  0.10194853801E+01  0.10191922786E+01 0.  0.
     999903    2    3    3    0    0  0.14433466288E-01 -0.10463380159E+00 -0.71050024507E-01  0.12898514149E+00  0.20796715106E-01 0.  0.
         14    1    1    2    0    0  0.24042406191E-01 -0.40762679653E-02 -0.16988785430E-02  0.24444619945E-01  0.00000000000E+00 0.  1.
     999901    1    3    3    0    0 -0.38475872479E-01  0.10871006955E+00  0.72748903050E-01  0.89050023856E+00  0.88000000000E+00 0.  1.
        -11    1    4    4    0    0  0.17449262468E-01 -0.68054121309E-01 -0.39609771983E-01  0.80653799324E-01  0.51100000000E-03 0. -1.
         11    1    4    4    0    0 -0.30157961803E-02 -0.36579680280E-01 -0.31440252524E-01  0.48331342168E-01  0.51100000000E-03 0.  1.
</event>
<event>
 8    1  0.1092667E+005  0.1043930E+01  0.7957747E-01            NaN
         13   -1    0    0    0    0  0.00000000000E+00  0.00000000000E+00  0.74505805969E-08  0.10566000000E+00  0.10566000000E+00 0.  1.
     999900   -1    0    0    0    0 -0.00000000000E+00 -0.00000000000E+00 -0.74505805969E-08  0.93827000000E+00  0.93827000000E+00 0. -1.
     999902    2    1    2    0    0 -0.11483073696E-01  0.66315748423E-02  0.19685872603E-01  0.10201945340E+01  0.10199183864E+01 0.  0.
     999903    2    3    3    0    0 -0.88222246295E-01  0.60316003809E-01 -0.72168551876E-01  0.13047089498E+00  0.19828502209E-01 0.  0.
         14    1    1    2    0    0  0.11483073696E-01 -0.66315748423E-02 -0.19685872603E-01  0.23735466006E-01  0.00000000000E+00 0. -1.
     999901    1    3    3    0    0  0.76739172599E-01 -0.53684428967E-01  0.91854424479E-01  0.88972363901E+00  0.88000000000E+00 0.  1.
        -11    1    4    4    0    0 -0.16176407679E-01  0.18068527602E-01 -0.23660261990E-01  0.33885350426E-01  0.51100000000E-03 0.  1.
         11    1    4    4    0    0 -0.72045838616E-01  0.42247476208E-01 -0.48508289887E-01  0.96585544553E-01  0.51100000000E-03 0. -1.
</event>
<event>
 8    1  0.1092667E+005  0.1043930E+01  0.7957747E-01            NaN
         13   -1    0    0    0    0  0.00000000000E+00  0.00000000000E+00  0.74505805969E-08  0.10566000000E+00  0.10566000000E+00 0.  1.
     999900   -1    0    0    0    0 -0.00000000000E+00 -0.00000000000E+00 -0.74505805969E-08  0.93827000000E+00  0.93827000000E+00 0. -1.
     999902    2    1    2    0    0  0.13062328420E-01  0.17392537416E-01 -0.89342071959E-02  0.10204152208E+01  0.10201442437E+01 0.  0.
     999903    2    3    3    0    0  0.77230180964E-01 -0.10135220693E+00  0.15214481707E-01  0.12979690371E+00  0.19467538526E-01 0.  0.
         14    1    1    2    0    0 -0.13062328420E-01 -0.17392537416E-01  0.89342071959E-02  0.23514779177E-01  0.00000000000E+00 0. -1.
     999901    1    3    3    0    0 -0.64167852544E-01  0.11874474435E+00 -0.24148688903E-01  0.89061831712E+00  0.88000000000E+00 0.  1.
        -11    1    4    4    0    0  0.48200135638E-01 -0.75119300415E-01  0.15903851251E-01  0.90660663885E-01  0.51100000000E-03 0.  1.
         11    1    4    4    0    0  0.29030045327E-01 -0.26232906516E-01 -0.68936954372E-03  0.39136239821E-01  0.51100000000E-03 0. -1.
</event>
<event>
 8    1  0.1092667E+005  0.1043930E+01  0.7957747E-01            NaN
         13   -1    0    0    0    0  0.00000000000E+00  0.00000000000E+00  0.74505805969E-08  0.10566000000E+00  0.10566000000E+00 0.  1.
     999900   -1    0    0    0    0 -0.00000000000E+00 -0.00000000000E+00 -0.74505805969E-08  0.93827000000E+00  0.93827000000E+00 0.  1.
     999902    2    1    2    0    0  0.21315410519E-01 -0.10141066045E-01  0.71421555328E-02  0.10192683226E+01  0.10189699285E+01 0.  0.
     999903    2    3    3    0    0  0.24381110589E-01  0.98063261870E-01 -0.77190377844E-01  0.12863396931E+00  0.19429404146E-01 0.  0.
         14    1    1    2    0    0 -0.21315410519E-01  0.10141066045E-01 -0.71421555328E-02  0.24661677392E-01  0.00000000000E+00 0.  1.
     999901    1    3    3    0    0 -0.30657000703E-02 -0.10820432792E+00  0.84332533377E-01  0.89063435330E+00  0.88000000000E+00 0. -1.
        -11    1    4    4    0    0  0.76738272711E-03  0.42663929832E-01 -0.32363681072E-01  0.53558087704E-01  0.51100000000E-03 0. -1.
         11    1    4    4    0    0  0.23613727862E-01  0.55399332038E-01 -0.44826696772E-01  0.75075881602E-01  0.51100000000E-03 0.  1.
</event>
<event>
 8    1  0.1092667E+005  0.1043930E+01  0.7957747E-01            NaN
         13   -1    0    0    0    0  0.00000000000E+00  0.00000000000E+00  0.74505805969E-08  0.10566000000E+00  0.10566000000E+00 0.  1.
     999900   -1    0    0    0    0 -0.00000000000E+00 -0.00000000000E+00 -0.74505805969E-08  0.93827000000E+00  0.93827000000E+00 0. -1.
     999902    2    1    2    0    0 -0.29867593905E-02 -0.17349841374E-01  0.14709419870E-01  0.10209886670E+01  0.10207308917E+01 0.  0.
     999903    2    3    3    0    0 -0.49474425314E-01 -0.17585355870E-01  0.12095036249E+00  0.13338047841E+00  0.20109657659E-01 0.  0.
         14    1    1    2    0    0  0.29867593905E-02  0.17349841374E-01 -0.14709419870E-01  0.22941333010E-01  0.00000000000E+00 0. -1.
     999901    1    3    3    0    0  0.46487665924E-01  0.23551449620E-03 -0.10624094262E+00  0.88760818858E+00  0.88000000000E+00 0. -1.
        -11    1    4    4    0    0 -0.45362597961E-01 -0.20816430607E-01  0.99781265659E-01  0.11156904219E+00  0.51100000000E-03 0.  1.
         11    1    4    4    0    0 -0.41118273537E-02  0.32310747369E-02  0.21169096836E-01  0.21811436220E-01  0.51100000000E-03 0. -1.
</event>
<event>
 8    1  0.1092667E+005  0.1043930E+01  0.7957747E-01            NaN
         13   -1    0    0    0    0  0.00000000000E+00  0.00000000000E+00  0.74505805969E-08  0.10566000000E+00  0.10566000000E+00 0.  1.
     999900   -1    0    0    0    0 -0.00000000000E+00 -0.00000000000E+00 -0.74505805969E-08  0.93827000000E+00  0.93827000000E+00 0. -1.
     999902    2    1    2    0    0  0.88116945971E-02  0.20223783711E-01 -0.10000023906E-01  0.10197091852E+01  0.10194214902E+01 0.  0.
     999903    2    3    3    0    0 -0.32937445121E-01  0.11246972426E+00 -0.59368790416E-01  0.13252849377E+00  0.17459502257E-01 0.  0.
         14    1    1    2    0    0 -0.88116945971E-02 -0.20223783711E-01  0.10000023906E-01  0.24220814754E-01  0.00000000000E+00 0.  1.
     999901    1    3    3    0    0  0.41749139718E-01 -0.92245940553E-01  0.49368766510E-01  0.88718069147E+00  0.88000000000E+00 0.  1.
        -11    1    4    4    0    0 -0.21637722604E-01  0.50035979970E-01 -0.33641371532E-01  0.64060856462E-01  0.51100000000E-03 0.  1.
         11    1    4    4    0    0 -0.11299722518E-01  0.62433744294E-01 -0.25727418884E-01  0.68467637311E-01  0.51100000000E-03 0. -1.
</event>
<event>
 8    1  0.1092667E+005  0.1043930E+01  0.7957747E-01            NaN
         13   -1    0    0    0    0  0.00000000000E+00  0.00000000000E+00  0.74505805969E-08  0.10566000000E+00  0.10566000000E+00 0. -1.
     999900   -1    0    0    0    0 -0.00000000000E+00 -0.00000000000E+00 -0.74505805969E-08  0.93827000000E+00  0.93827000000E+00 0. -1.
     999902    2    1    2    0    0  0.66449825899E-02  0.13232969585E-01  0.82964304185E-03  0.10290991003E+01  0.10289922267E+01 0.  0.
     999903    2    3    3    0    0  0.67986476740E-01 -0.35100333663E-01 -0.11335303115E+00  0.13829240401E+00  0.20534967572E-01 0.  0.
         14    1    1    2    0    0 -0.66449825899E-02 -0.13232969585E-01 -0.82964304185E-03  0.14830899677E-01  0.00000000000E+00 0. -1.
     999901    1    3    3    0    0 -0.61341494150E-01  0.48333303249E-01  0.11418267419E+00  0.89080669631E+00  0.88000000000E+00 0.  1.
        -11    1    4    4    0    0  0.43192802945E-01 -0.17915566121E-01 -0.52081380934E-01  0.69995121949E-01  0.51100000000E-03 0.  1.
         11    1    4    4    0    0  0.24793673796E-01 -0.17184767542E-01 -0.61271650217E-01  0.68297282062E-01  0.51100000000E-03 0. -1.
</event>
<event>
 8    1  0.1092667E+005  0.1043930E+01  0.7957747E-01            NaN
         13   -1    0    0    0    0  0.00000000000E+00  0.00000000000E+00  0.74505805969E-08  0.10566000000E+00  0.10566000000E+00 0.  1.
     999900   -1    0    0    0    0 -0.00000000000E+00 -0.00000000000E+00 -0.74505805969E-08  0.93827000000E+00  0.93827000000E+00 0. -1.
     999902    2    1    2    0    0 -0.75934458437E-02 -0.13409711862E-01 -0.17210207868E-01  0.10208286570E+01  0.10205672320E+01 0.  0.
     999903    2    3    3    0    0 -0.75309047091E-01 -0.50273217837E-01  0.93163316454E-01  0.13058900638E+00  0.13237675357E-01 0.  0.
         14    1    1    2    0    0  0.75934458437E-02  0.13409711862E-01  0.17210207868E-01  0.23101342967E-01  0.00000000000E+00 0.  1.
     999901    1    3    3    0    0  0.67715601247E-01  0.36863505975E-01 -0.11037352432E+00  0.89023965065E+00  0.88000000000E+00 0. -1.
        -11    1    4    4    0    0 -0.33840077392E-01 -0.15097266045E-01  0.40287288880E-01  0.54739428625E-01  0.51100000000E-03 0. -1.
         11    1    4    4    0    0 -0.41468969699E-01 -0.35175951792E-01  0.52876027574E-01  0.75849577754E-01  0.51100000000E-03 0.  1.
</event>
<event>
 8    1  0.1092667E+005  0.1043930E+01  0.7957747E-01            NaN
         13   -1    0    0    0    0  0.00000000000E+00  0.00000000000E+00  0.74505805969E-08  0.10566000000E+00  0.10566000000E+00 0.  1.
     999900   -1    0    0    0    0 -0.00000000000E+00 -0.00000000000E+00 -0.74505805969E-08  0.93827000000E+00  0.93827000000E+00 0.  1.
     999902    2    1    2    0    0 -0.15927409381E-01  0.83033311647E-02  0.15939514404E-01  0.10199155086E+01  0.10196327520E+01 0.  0.
     999903    2    3    3    0    0 -0.59647138273E-01 -0.10405223713E-01  0.11651482660E+00  0.13291110153E+00  0.20581698367E-01 0.  0.
         14    1    1    2    0    0  0.15927409381E-01 -0.83033311647E-02 -0.15939514404E-01  0.24014491405E-01  0.00000000000E+00 0.  1.
     999901    1    3    3    0    0  0.43719728892E-01  0.18708554878E-01 -0.10057531220E+00  0.88700440706E+00  0.88000000000E+00 0.  1.
        -11    1    4    4    0    0 -0.27458056436E-01  0.46068326443E-02  0.60215079604E-01  0.66342178914E-01  0.51100000000E-03 0.  1.
         11    1    4    4    0    0 -0.32189081837E-01 -0.15012056357E-01  0.56299747000E-01  0.66568922621E-01  0.51100000000E-03 0. -1.
</event>
<event>
 8    1  0.1092667E+005  0.1043930E+01  0.7957747E-01            NaN
         13   -1    0    0    0    0  0.00000000000E+00  0.00000000000E+00  0.74505805969E-08  0.10566000000E+00  0.10566000000E+00 0.  1.
     999900   -1    0    0    0    0 -0.00000000000E+00 -0.00000000000E+00 -0.74505805969E-08  0.93827000000E+00  0.93827000000E+00 0.  1.
     999902    2    1    2    0    0  0.14421772329E-01  0.17297945202E-02  0.19105509942E-01  0.10199299955E+01  0.10196475840E+01 0.  0.
     999903    2    3    3    0    0  0.41627054844E-01 -0.81606404995E-01  0.93617472579E-01  0.13244079436E+00  0.19593769628E-01 0.  0.
         14    1    1    2    0    0 -0.14421772329E-01 -0.17297945202E-02 -0.19105509942E-01  0.24000004507E-01  0.00000000000E+00 0. -1.
     999901    1    3    3    0    0 -0.27205282515E-01  0.83336199515E-01 -0.74511962638E-01  0.88748920113E+00  0.88000000000E+00 0.  1.
        -11    1    4    4    0    0  0.33012866514E-01 -0.76745031149E-01  0.80635520174E-01  0.11611200367E+00  0.51100000000E-03 0. -1.
         11    1    4    4    0    0  0.86141883297E-02 -0.48613738463E-02  0.12981952405E-01  0.16328790693E-01  0.51100000000E-03 0.  1.
</event>
<event>
 8    1  0.1092667E+005  0.1043930E+01  0.7957747E-01            NaN
         13   -1    0    0    0    0  0.00000000000E+00  0.00000000000E+00  0.74505805969E-08  0.10566000000E+00  0.10566000000E+00 0.  1.
     999900   -1    0    0    0    0 -0.00000000000E+00 -0.00000000000E+00 -0.74505805969E-08  0.93827000000E+00  0.93827000000E+00 0. -1.
     999902    2    1    2    0    0 -0.17460126363E-02  0.22552391623E-01 -0.92606846693E-02  0.10194878395E+01  0.10191947977E+01 0.  0.
     999903    2    3    3    0    0  0.85434653865E-01 -0.62737962523E-01 -0.69201092890E-01  0.12905661497E+00  0.25133375987E-01 0.  0.
         14    1    1    2    0    0  0.17460126363E-02 -0.22552391623E-01  0.92606846693E-02  0.24442160473E-01  0.00000000000E+00 0. -1.
     999901    1    3    3    0    0 -0.87180666502E-01  0.85290354147E-01  0.59940408221E-01  0.89043122455E+00  0.88000000000E+00 0.  1.
        -11    1    4    4    0    0  0.12622090518E-01 -0.12988221395E-01 -0.23672392721E-01  0.29810306309E-01  0.51100000000E-03 0.  1.
         11    1    4    4    0    0  0.72812563347E-01 -0.49749741128E-01 -0.45528700169E-01  0.99246308665E-01  0.51100000000E-03 0. -1.
</event>
<event>
 8    1  0.1092667E+005  0.1043930E+01  0.7957747E-01            NaN
         13   -1    0    0    0    0  0.00000000000E+00  0.00000000000E+00  0.74505805969E-08  0.10566000000E+00  0.10566000000E+00 0. -1.
     999900   -1    0    0    0    0 -0.00000000000E+00 -0.00000000000E+00 -0.74505805969E-08  0.93827000000E+00  0.93827000000E+00 0.  1.
     999902    2    1    2    0    0  0.11997421145E-01 -0.16376949303E-01  0.12735822750E-01  0.10199645298E+01  0.10196829400E+01 0.  0.
     999903    2    3    3    0    0  0.48506356298E-01  0.43484117576E-02  0.12164442966E+00  0.13225763692E+00  0.17970530605E-01 0.  0.
         14    1    1    2    0    0 -0.11997421145E-01  0.16376949303E-01 -0.12735822750E-01  0.23965470238E-01  0.00000000000E+00 0. -1.
     999901    1    3    3    0    0 -0.36508935153E-01 -0.20725361061E-01 -0.10890860691E+00  0.88770689284E+00  0.88000000000E+00 0.  1.
        -11    1    4    4    0    0  0.10897016669E-01  0.31064901395E-02  0.50660039995E-01  0.51914314274E-01  0.51100000000E-03 0. -1.
         11    1    4    4    0    0  0.37609339629E-01  0.12419216181E-02  0.70984389666E-01  0.80343322647E-01  0.51100000000E-03 0.  1.
</event>
<event>
 8    1  0.1092667E+005  0.1043930E+01  0.7957747E-01            NaN
         13   -1    0    0    0    0  0.00000000000E+00  0.00000000000E+00  0.74505805969E-08  0.10566000000E+00  0.10566000000E+00 0. -1.
     999900   -1    0    0    0    0 -0.00000000000E+00 -0.00000000000E+00 -0.74505805969E-08  0.93827000000E+00  0.93827000000E+00 0. -1.
     999902    2    1    2    0    0 -0.15798461687E-01 -0.50186827217E-02 -0.16894667560E-01  0.10202612789E+01  0.10199867003E+01 0.  0.
     999903    2    3    3    0    0  0.89339063259E-01 -0.13487770365E-01  0.88262729365E-01  0.12774589933E+00  0.19113273560E-01 0.  0.
         14    1    1    2    0    0  0.15798461687E-01  0.50186827217E-02  0.16894667560E-01  0.23668721129E-01  0.00000000000E+00 0.  1.
     999901    1    3    3    0    0 -0.10513752495E+00  0.84690876437E-02 -0.10515739692E+00  0.89251537955E+00  0.88000000000E+00 0. -1.
        -11    1    4    4    0    0  0.46933720025E-01 -0.14754215770E-01  0.39388481953E-01  0.63025190122E-01  0.51100000000E-03 0. -1.
         11    1    4    4    0    0  0.42405343234E-01  0.12664454042E-02  0.48874247412E-01  0.64720709204E-01  0.51100000000E-03 0.  1.
</event>
<event>
 8    1  0.1092667E+005  0.1043930E+01  0.7957747E-01            NaN
         13   -1    0    0    0    0  0.00000000000E+00  0.00000000000E+00  0.74505805969E-08  0.10566000000E+00  0.10566000000E+00 0.  1.
     999900   -1    0    0    0    0 -0.00000000000E+00 -0.00000000000E+00 -0.74505805969E-08  0.93827000000E+00  0.93827000000E+00 0.  1.
     999902    2    1    2    0    0  0.65266968892E-02 -0.16076249743E-01 -0.16071742847E-01  0.10202795350E+01  0.10200053848E+01 0.  0.
     999903    2    3    3    0    0  0.29861404248E-01 -0.45539924789E-01  0.11594260423E+00  0.12963908869E+00  0.19950379126E-01 0.  0.
         14    1    1    2    0    0 -0.65266968892E-02  0.16076249743E-01  0.16071742847E-01  0.23650465031E-01  0.00000000000E+00 0.  1.
     999901    1    3    3    0    0 -0.23334707358E-01  0.29463675047E-01 -0.13201434708E+00  0.89064044628E+00  0.88000000000E+00 0.  1.
        -11    1    4    4    0    0  0.21591782257E-01 -0.21311270657E-01  0.79555948997E-01  0.85145671997E-01  0.51100000000E-03 0.  1.
         11    1    4    4    0    0  0.82696219904E-02 -0.24228654133E-01  0.36386655233E-01  0.44493416692E-01  0.51100000000E-03 0. -1.
</event>
<event>
 8    1  0.1092667E+005  0.1043930E+01  0.7957747E-01            NaN
         13   -1    0    0    0    0  0.00000000000E+00  0.00000000000E+00  0.74505805969E-08  0.10566000000E+00  0.10566000000E+00 0.  1.
     999900   -1    0    0    0    0 -0.00000000000E+00 -0.00000000000E+00 -0.74505805969E-08  0.93827000000E+00  0.93827000000E+00 0. -1.
     999902    2    1    2    0    0  0.23096425178E-01  0.23613289309E-02 -0.71551407253E-02  0.10196356227E+01  0.10193461563E+01 0.  0.
     999903    2    3    3    0    0  0.10436359812E+00 -0.30994289521E-01  0.71486601236E-01  0.13177219047E+00  0.20029214422E-01 0.  0.
         14    1    1    2    0    0 -0.23096425178E-01 -0.23613289309E-02  0.71551407253E-02  0.24294377315E-01  0.00000000000E+00 0. -1.
     999901    1    3    3    0    0 -0.81267172942E-01  0.33355618452E-01 -0.78641741961E-01  0.88786343221E+00  0.88000000000E+00 0. -1.
        -11    1    4    4    0    0  0.15368252912E-01 -0.98797179339E-04  0.40058242696E-02  0.15890270845E-01  0.51100000000E-03 0. -1.
         11    1    4    4    0    0  0.88995345208E-01 -0.30895492342E-01  0.67480776966E-01  0.11588191963E+00  0.51100000000E-03 0.  1.
</event>
<event>
 8    1  0.1092667E+005  0.1043930E+01  0.7957747E-01            NaN
         13   -1    0    0    0    0  0.00000000000E+00  0.00000000000E+00  0.74505805969E-08  0.10566000000E+00  0.10566000000E+00 0. -1.
     999900   -1    0    0    0    0 -0.00000000000E+00 -0.00000000000E+00 -0.74505805969E-08  0.93827000000E+00  0.93827000000E+00 0. -1.
     999902    2    1    2    0    0 -0.70489028423E-02  0.54149102000E-02  0.22192842021E-01  0.10200232955E+01  0.10197431014E+01 0.  0.
     999903    2    3    3    0    0 -0.70150648789E-01 -0.20165142839E-01  0.10946174700E+00  0.13308923298E+00  0.20077932349E-01 0.  0.
         14    1    1    2    0    0  0.70489028423E-02 -0.54149102000E-02 -0.22192842021E-01  0.23906704514E-01  0.00000000000E+00 0.  1.
     999901    1    3    3    0    0  0.63101745947E-01  0.25580053039E-01 -0.87268904982E-01  0.88693406251E+00  0.88000000000E+00 0. -1.
        -11    1    4    4    0    0 -0.32244836902E-01 -0.19034103048E-01  0.60585565720E-01  0.71224282940E-01  0.51100000000E-03 0. -1.
         11    1    4    4    0    0 -0.37905811888E-01 -0.11310397902E-02  0.48876181282E-01  0.61864950041E-01  0.51100000000E-03 0.  1.
</event>
<event>
 8    1  0.1092667E+005  0.1043930E+01  0.7957747E-01            NaN
         13   -1    0    0    0    0  0.00000000000E+00  0.00000000000E+00  0.74505805969E-08  0.10566000000E+00  0.10566000000E+00 0. -1.
     999900   -1    0    0    0    0 -0.00000000000E+00 -0.00000000000E+00 -0.74505805969E-08  0.93827000000E+00  0.93827000000E+00 0. -1.
     999902    2    1    2    0    0  0.61253933664E-02 -0.21542151293E-01 -0.78407089021E-02  0.10202010843E+01  0.10199250908E+01 0.  0.
     999903    2    3    3    0    0  0.73365131567E-01 -0.10944370121E+00 -0.68035817866E-03  0.13324046760E+00  0.19803864687E-01 0.  0.
         14    1    1    2    0    0 -0.61253933664E-02  0.21542151293E-01  0.78407089021E-02  0.23728915742E-01  0.00000000000E+00 0. -1.
     999901    1    3    3    0    0 -0.67239738200E-01  0.87901549915E-01 -0.71603507235E-02  0.88696061665E+00  0.88000000000E+00 0.  1.
        -11    1    4    4    0    0  0.62213463694E-01 -0.84660970292E-01 -0.71300706558E-02  0.10530476715E+00  0.51100000000E-03 0. -1.
         11    1    4    4    0    0  0.11151667873E-01 -0.24782730915E-01  0.64497124772E-02  0.27935700456E-01  0.51100000000E-03 0.  1.
</event>
<event>
 8    1  0.1092667E+005  0.1043930E+01  0.7957747E-01            NaN
         13   -1    0    0    0    0  0.00000000000E+00  0.00000000000E+00  0.74505805969E-08  0.10566000000E+00  0.10566000000E+00 0. -1.
     999900   -1    0    0    0    0 -0.00000000000E+00 -0.00000000000E+00 -0.74505805969E-08  0.93827000000E+00  0.93827000000E+00 0.  1.
     999902    2    1    2    0    0  0.21040982424E-02  0.47325659224E-02 -0.23621365606E-01  0.10197474997E+01  0.10194607250E+01 0.  0.
     999903    2    3    3    0    0  0.93593392387E-01 -0.84369410565E-01 -0.27646466521E-01  0.13051993902E+00  0.19829443611E-01 0.  0.
         14    1    1    2    0    0 -0.21040982424E-02 -0.47325659224E-02  0.23621365606E-01  0.24182500341E-01  0.00000000000E+00 0. -1.
     999901    1    3    3    0    0 -0.91489294145E-01  0.89101976487E-01  0.40251009146E-02  0.88922756064E+00  0.88000000000E+00 0.  1.
        -11    1    4    4    0    0  0.41556092887E-01 -0.31846702081E-01 -0.20534669009E-01  0.56241044102E-01  0.51100000000E-03 0. -1.
         11    1    4    4    0    0  0.52037299501E-01 -0.52522708484E-01 -0.71117975123E-02  0.74278894921E-01  0.51100000000E-03 0.  1.
</event>
<event>
 8    1  0.1092667E+005  0.1043930E+01  0.7957747E-01            NaN
         13   -1    0    0    0    0  0.00000000000E+00  0.00000000000E+00  0.74505805969E-08  0.10566000000E+00  0.10566000000E+00 0. -1.
     999900   -1    0    0    0    0 -0.00000000000E+00 -0.00000000000E+00 -0.74505805969E-08  0.93827000000E+00  0.93827000000E+00 0.  1.
     999902    2    1    2    0    0 -0.30704887667E-03 -0.78254466978E-02  0.21733459450E-01  0.10208285898E+01  0.10205671632E+01 0.  0.
     999903    2    3    3    0    0  0.96345180202E-01 -0.17182865824E-01  0.87918031613E-01  0.13301689111E+00  0.19653712429E-01 0.  0.
         14    1    1    2    0    0  0.30704887667E-03  0.78254466978E-02 -0.21733459450E-01  0.23101410232E-01  0.00000000000E+00 0.  1.
     999901    1    3    3    0    0 -0.96652229079E-01  0.93574191264E-02 -0.66184572163E-01  0.88781169866E+00  0.88000000000E+00 0. -1.
        -11    1    4    4    0    0  0.46713948523E-01 -0.17307850211E-01  0.49727222580E-01  0.70390428696E-01  0.51100000000E-03 0.  1.
         11    1    4    4    0    0  0.49631231679E-01  0.12498438654E-03  0.38190809033E-01  0.62626462415E-01  0.51100000000E-03 0. -1.
</event>
<event>
 8    1  0.1092667E+005  0.1043930E+01  0.7957747E-01            NaN
         13   -1    0    0    0    0  0.00000000000E+00  0.00000000000E+00  0.74505805969E-08  0.10566000000E+00  0.10566000000E+00 0.  1.
     999900   -1    0    0    0    0 -0.00000000000E+00 -0.00000000000E+00 -0.74505805969E-08  0.93827000000E+00  0.93827000000E+00 0. -1.
     999902    2    1    2    0    0  0.35419460843E-02 -0.99385256719E-02  0.21361055533E-01  0.10201053412E+01  0.10198270896E+01 0.  0.
     999903    2    3    3    0    0  0.45851193867E-01  0.21863363648E-01  0.12106367019E+00  0.13289508200E+00  0.20599804142E-01 0.  0.
         14    1    1    2    0    0 -0.35419460843E-02  0.99385256719E-02 -0.21361055533E-01  0.23824658824E-01  0.00000000000E+00 0. -1.
     999901    1    3    3    0    0 -0.42309247782E-01 -0.31801889320E-01 -0.99702614661E-01  0.88721025917E+00  0.88000000000E+00 0. -1.
        -11    1    4    4    0    0  0.33584171442E-01  0.10566447148E-01  0.59762182149E-01  0.69363721880E-01  0.51100000000E-03 0. -1.
         11    1    4    4    0    0  0.12267022425E-01  0.11296916500E-01  0.61301488045E-01  0.63531360123E-01  0.51100000000E-03 0.  1.
</event>
<event>
 8    1  0.1092667E+005  0.1043930E+01  0.7957747E-01            NaN
         13   -1    0    0    0    0  0.00000000000E+00  0.00000000000E+00  0.74505805969E-08  0.10566000000E+00  0.10566000000E+00 0. -1.
     999900   -1    0    0    0    0 -0.00000000000E+00 -0.00000000000E+00 -0.74505805969E-08  0.93827000000E+00  0.93827000000E+00 0. -1.
     999902    2    1    2    0    0  0.66223267517E-02 -0.11608668336E-01  0.20755056698E-01  0.10192441990E+01  0.10189452137E+01 0.  0.
     999903    2    3    3    0    0  0.69421315565E-01  0.61468712706E-01 -0.85599246835E-01  0.12761913515E+00  0.19018172926E-01 0.  0.
         14    1    1    2    0    0 -0.66223267517E-02  0.11608668336E-01 -0.20755056698E-01  0.24685800993E-01  0.00000000000E+00 0.  1.
     999901    1    3    3    0    0 -0.62798988813E-01 -0.73077381042E-01  0.10635430353E+00  0.89162506386E+00  0.88000000000E+00 0.  1.
        -11    1    4    4    0    0  0.54573418479E-01  0.48422579647E-01 -0.55779880434E-01  0.91840407264E-01  0.51100000000E-03 0. -1.
         11    1    4    4    0    0  0.14847897085E-01  0.13046133059E-01 -0.29819366400E-01  0.35778727887E-01  0.51100000000E-03 0.  1.
</event>
<event>
 8    1  0.1092667E+005  0.1043930E+01  0.7957747E-01            NaN
         13   -1    0    0    0    0  0.00000000000E+00  0.00000000000E+00  0.74505805969E-08  0.10566000000E+00  0.10566000000E+00 0.  1.
     999900   -1    0    0    0    0 -0.00000000000E+00 -0.00000000000E+00 -0.74505805969E-08  0.93827000000E+00  0.93827000000E+00 0.  1.
     999902    2    1    2    0    0 -0.11226523434E-01  0.18211354680E-01  0.83131765034E-02  0.10209779375E+01  0.10207199184E+01 0.  0.
     999903    2    3    3    0    0  0.18420766806E-01 -0.84640198131E-01  0.95233683965E-01  0.13024083920E+00  0.19746742644E-01 0.  0.
         14    1    1    2    0    0  0.11226523434E-01 -0.18211354680E-01 -0.83131765034E-02  0.22952062462E-01  0.00000000000E+00 0. -1.
     999901    1    3    3    0    0 -0.29647290240E-01  0.10285155281E+00 -0.86920507461E-01  0.89073709834E+00  0.88000000000E+00 0.  1.
        -11    1    4    4    0    0 -0.38295293297E-02 -0.21026359473E-01  0.20752202155E-01  0.29794095101E-01  0.51100000000E-03 0.  1.
         11    1    4    4    0    0  0.22250296136E-01 -0.63613838658E-01  0.74481481809E-01  0.10044674410E+00  0.51100000000E-03 0. -1.
</event>
<event>
 8    1  0.1092667E+005  0.1043930E+01  0.7957747E-01            NaN
         13   -1    0    0    0    0  0.00000000000E+00  0.00000000000E+00  0.74505805969E-08  0.10566000000E+00  0.10566000000E+00 0.  1.
     999900   -1    0    0    0    0 -0.00000000000E+00 -0.00000000000E+00 -0.74505805969E-08  0.93827000000E+00  0.93827000000E+00 0.  1.
     999902    2    1    2    0    0  0.25206852905E-02  0.10670171577E-01 -0.18860972728E-01  0.10221138888E+01  0.10218810395E+01 0.  0.
     999903    2    3    3    0    0 -0.39591286957E-01  0.10020502111E+00 -0.78006165100E-01  0.13459596714E+00  0.20557147610E-01 0.  0.
         14    1    1    2    0    0 -0.25206852905E-02 -0.10670171577E-01  0.18860972728E-01  0.21816111204E-01  0.00000000000E+00 0.  1.
     999901    1    3    3    0    0  0.42111972247E-01 -0.89534849530E-01  0.59145192372E-01  0.88751792166E+00  0.88000000000E+00 0. -1.
        -11    1    4    4    0    0 -0.31985583936E-01  0.68244410253E-01 -0.43832974926E-01  0.87189264949E-01  0.51100000000E-03 0.  1.
         11    1    4    4    0    0 -0.76057030205E-02  0.31960610853E-01 -0.34173190174E-01  0.47406702187E-01  0.51100000000E-03 0. -1.
</event>
<event>
 8    1  0.1485368E+005  0.1043930E+01  0.7957747E-01            NaN
         13   -1    0    0    0    0  0.00000000000E+00  0.00000000000E+00  0.74505805969E-08  0.10566000000E+00  0.10566000000E+00 0. -1.
     999900   -1    0    0    0    0 -0.00000000000E+00 -0.00000000000E+00 -0.74505805969E-08  0.93827000000E+00  0.93827000000E+00 0. -1.
     999902    2    1    2    0    0 -0.23353468326E-01 -0.24144030683E-04  0.19648727052E-02  0.10204940065E+01  0.10202248632E+01 0.  0.
     999903    2    3    3    0    0  0.30947380823E-02 -0.11473421408E+00  0.59887040951E-01  0.13076770851E+00  0.18445016411E-01 0.  0.
         14    1    1    2    0    0  0.23353468326E-01  0.24144030683E-04 -0.19648727052E-02  0.23435993483E-01  0.00000000000E+00 0. -1.
     999901    1    3    3    0    0 -0.26448206409E-01  0.11471007005E+00 -0.57922168246E-01  0.88972629801E+00  0.88000000000E+00 0. -1.
        -11    1    4    4    0    0  0.45985538244E-02 -0.56082181240E-01  0.39089618369E-01  0.68517276180E-01  0.51100000000E-03 0.  1.
         11    1    4    4    0    0 -0.15038157421E-02 -0.58652032840E-01  0.20797422582E-01  0.62250432329E-01  0.51100000000E-03 0. -1.
</event>
<event>
 8    1  0.1092667E+005  0.1043930E+01  0.7957747E-01            NaN
         13   -1    0    0    0    0  0.00000000000E+00  0.00000000000E+00  0.74505805969E-08  0.10566000000E+00  0.10566000000E+00 0.  1.
     999900   -1    0    0    0    0 -0.00000000000E+00 -0.00000000000E+00 -0.74505805969E-08  0.93827000000E+00  0.93827000000E+00 0.  1.
     999902    2    1    2    0    0  0.36706899893E-02  0.21584932930E-01 -0.89644951003E-02  0.10202710595E+01  0.10199967104E+01 0.  0.
     999903    2    3    3    0    0 -0.10931321439E+00 -0.64732663425E-01  0.62935711604E-02  0.12872807191E+00  0.19789161275E-01 0.  0.
         14    1    1    2    0    0 -0.36706899893E-02 -0.21584932930E-01  0.89644951003E-02  0.23658940529E-01  0.00000000000E+00 0.  1.
     999901    1    3    3    0    0  0.11298390438E+00  0.86317596354E-01 -0.15258066261E-01  0.89154298756E+00  0.88000000000E+00 0. -1.
        -11    1    4    4    0    0 -0.76333879232E-01 -0.34382910738E-01  0.27602104567E-02  0.83767091105E-01  0.51100000000E-03 0.  1.
         11    1    4    4    0    0 -0.32979335160E-01 -0.30349752687E-01  0.35333607037E-02  0.44960980801E-01  0.51100000000E-03 0. -1.
</event>
<event>
 8    1  0.1092667E+005  0.1043930E+01  0.7957747E-01            NaN
         13   -1    0    0    0    0  0.00000000000E+00  0.00000000000E+00  0.74505805969E-08  0.10566000000E+00  0.10566000000E+00 0.  1.
     999900   -1    0    0    0    0 -0.00000000000E+00 -0.00000000000E+00 -0.74505805969E-08  0.93827000000E+00  0.93827000000E+00 0.  1.
     999902    2    1    2    0    0 -0.27359059674E-01 -0.20505983386E-01 -0.70669229083E-03  0.10097318580E+01  0.10091525713E+01 0.  0.
     999903    2    3    3    0    0 -0.24217776238E-01 -0.36892431011E-01 -0.11249260694E+00  0.12250332261E+00  0.20122755351E-01 0.  0.
         14    1    1    2    0    0  0.27359059674E-01  0.20505983386E-01  0.70669229083E-03  0.34198141979E-01  0.00000000000E+00 0.  1.
     999901    1    3    3    0    0 -0.31412834355E-02  0.16386447625E-01  0.11178591465E+00  0.88722853541E+00  0.88000000000E+00 0. -1.
        -11    1    4    4    0    0 -0.20078059722E-01 -0.27921276628E-01 -0.60638120934E-01  0.69713477909E-01  0.51100000000E-03 0.  1.
         11    1    4    4    0    0 -0.41397165165E-02 -0.89711543825E-02 -0.51854486007E-01  0.52789844704E-01  0.51100000000E-03 0. -1.
</event>
<event>
 8    1  0.1092667E+005  0.1043930E+01  0.7957747E-01            NaN
         13   -1    0    0    0    0  0.00000000000E+00  0.00000000000E+00  0.74505805969E-08  0.10566000000E+00  0.10566000000E+00 0.  1.
     999900   -1    0    0    0    0 -0.00000000000E+00 -0.00000000000E+00 -0.74505805969E-08  0.93827000000E+00  0.93827000000E+00 0. -1.
     999902    2    1    2    0    0 -0.21672951477E-01  0.26215801909E-02  0.10791361312E-01  0.10195775261E+01  0.10192866568E+01 0.  0.
     999903    2    3    3    0    0  0.56239473508E-01  0.10810775666E+00  0.38710225418E-01  0.12942184171E+00  0.20034124122E-01 0.  0.
         14    1    1    2    0    0  0.21672951477E-01 -0.26215801909E-02 -0.10791361312E-01  0.24352473948E-01  0.00000000000E+00 0. -1.
     999901    1    3    3    0    0 -0.77912424985E-01 -0.10548617647E+00 -0.27918864106E-01  0.89015568434E+00  0.88000000000E+00 0. -1.
        -11    1    4    4    0    0  0.42537049054E-01  0.64056768324E-01  0.29595625001E-01  0.82394370260E-01  0.51100000000E-03 0. -1.
         11    1    4    4    0    0  0.13702424455E-01  0.44050988335E-01  0.91146004168E-02  0.47027471450E-01  0.51100000000E-03 0.  1.
</event>
<event>
 8    1  0.1092667E+005  0.1043930E+01  0.7957747E-01            NaN
         13   -1    0    0    0    0  0.00000000000E+00  0.00000000000E+00  0.74505805969E-08  0.10566000000E+00  0.10566000000E+00 0.  1.
     999900   -1    0    0    0    0 -0.00000000000E+00 -0.00000000000E+00 -0.74505805969E-08  0.93827000000E+00  0.93827000000E+00 0.  1.
     999902    2    1    2    0    0 -0.17378943743E-01 -0.62890531782E-02  0.15915421191E-01  0.10195398277E+01  0.10192480462E+01 0.  0.
     999903    2    3    3    0    0  0.12786073758E-02 -0.69987980978E-01  0.11007756593E+00  0.13203086031E+00  0.20374622297E-01 0.  0.
         14    1    1    2    0    0  0.17378943743E-01  0.62890531782E-02 -0.15915421191E-01  0.24390172348E-01  0.00000000000E+00 0.  1.
     999901    1    3    3    0    0 -0.18657551119E-01  0.63698927800E-01 -0.94162144740E-01  0.88750896735E+00  0.88000000000E+00 0.  1.
        -11    1    4    4    0    0  0.81120439721E-02 -0.55201442863E-01  0.76275088736E-01  0.94504787362E-01  0.51100000000E-03 0.  1.
         11    1    4    4    0    0 -0.68334365963E-02 -0.14786538115E-01  0.33802477195E-01  0.37526072944E-01  0.51100000000E-03 0. -1.
</event>
<event>
 8    1  0.1092667E+005  0.1043930E+01  0.7957747E-01            NaN
         13   -1    0    0    0    0  0.00000000000E+00  0.00000000000E+00  0.74505805969E-08  0.10566000000E+00  0.10566000000E+00 0.  1.
     999900   -1    0    0    0    0 -0.00000000000E+00 -0.00000000000E+00 -0.74505805969E-08  0.93827000000E+00  0.93827000000E+00 0. -1.
     999902    2    1    2    0    0 -0.21023401876E-01  0.28289175131E-01 -0.13180676534E-01  0.10063003429E+01  0.10055965340E+01 0.  0.
     999903    2    3    3    0    0 -0.60071259847E-01 -0.63276020103E-01 -0.77203346452E-01  0.11837702280E+00  0.20984562060E-01 0.  0.
         14    1    1    2    0    0  0.21023401876E-01 -0.28289175131E-01  0.13180676534E-01  0.37629657053E-01  0.00000000000E+00 0.  1.
     999901    1    3    3    0    0  0.39047857971E-01  0.91565195234E-01  0.64022669918E-01  0.88792332014E+00  0.88000000000E+00 0. -1.
        -11    1    4    4    0    0 -0.21584467196E-01 -0.37951320371E-01 -0.37589871444E-01  0.57614681273E-01  0.51100000000E-03 0. -1.
         11    1    4    4    0    0 -0.38486792651E-01 -0.25324699732E-01 -0.39613475008E-01  0.60762341531E-01  0.51100000000E-03 0.  1.
</event>
<event>
 8    1  0.1092667E+005  0.1043930E+01  0.7957747E-01            NaN
         13   -1    0    0    0    0  0.00000000000E+00  0.00000000000E+00  0.74505805969E-08  0.10566000000E+00  0.10566000000E+00 0.  1.
     999900   -1    0    0    0    0 -0.00000000000E+00 -0.00000000000E+00 -0.74505805969E-08  0.93827000000E+00  0.93827000000E+00 0. -1.
     999902    2    1    2    0    0  0.13632401452E-01  0.20120735591E-01  0.99309962132E-03  0.10196056785E+01  0.10193154894E+01 0.  0.
     999903    2    3    3    0    0 -0.30544979493E-01 -0.19789844244E-01  0.12274148621E+00  0.12923094558E+00  0.17621894095E-01 0.  0.
         14    1    1    2    0    0 -0.13632401452E-01 -0.20120735591E-01 -0.99309962132E-03  0.24324321510E-01  0.00000000000E+00 0.  1.
     999901    1    3    3    0    0  0.44177380945E-01  0.39910579835E-01 -0.12174838659E+00  0.89037473291E+00  0.88000000000E+00 0. -1.
        -11    1    4    4    0    0 -0.85640106243E-02 -0.55478634100E-02  0.65344413057E-01  0.66138298324E-01  0.51100000000E-03 0.  1.
         11    1    4    4    0    0 -0.21980968869E-01 -0.14241980834E-01  0.57397073150E-01  0.63092647255E-01  0.51100000000E-03 0. -1.
</event>
<event>
 8    1  0.1092667E+005  0.1043930E+01  0.7957747E-01            NaN
         13   -1    0    0    0    0  0.00000000000E+00  0.00000000000E+00  0.74505805969E-08  0.10566000000E+00  0.10566000000E+00 0.  1.
     999900   -1    0    0    0    0 -0.00000000000E+00 -0.00000000000E+00 -0.74505805969E-08  0.93827000000E+00  0.93827000000E+00 0. -1.
     999902    2    1    2    0    0  0.13053108569E-01 -0.14815840137E-01 -0.16371588091E-01  0.10182800164E+01  0.10179569098E+01 0.  0.
     999903    2    3    3    0    0  0.11521971082E+00  0.12078853391E-01  0.53552662673E-01  0.12920704976E+00  0.20126936393E-01 0.  0.
         14    1    1    2    0    0 -0.13053108569E-01  0.14815840137E-01  0.16371588091E-01  0.25649983605E-01  0.00000000000E+00 0.  1.
     999901    1    3    3    0    0 -0.10216660225E+00 -0.26894693528E-01 -0.69924250764E-01  0.88907296663E+00  0.88000000000E+00 0. -1.
        -11    1    4    4    0    0  0.63711615880E-01  0.16564520020E-01  0.31846265210E-01  0.73130014703E-01  0.51100000000E-03 0. -1.
         11    1    4    4    0    0  0.51508094937E-01 -0.44856666294E-02  0.21706397463E-01  0.56077035058E-01  0.51100000000E-03 0.  1.
</event>
<event>
 8    1  0.1092667E+005  0.1043930E+01  0.7957747E-01            NaN
         13   -1    0    0    0    0  0.00000000000E+00  0.00000000000E+00  0.74505805969E-08  0.10566000000E+00  0.10566000000E+00 0. -1.
     999900   -1    0    0    0    0 -0.00000000000E+00 -0.00000000000E+00 -0.74505805969E-08  0.93827000000E+00  0.93827000000E+00 0.  1.
     999902    2    1    2    0    0  0.21098388107E-01  0.97445938840E-02 -0.38970767726E-02  0.10203654865E+01  0.10200933485E+01 0.  0.
     999903    2    3    3    0    0  0.10493872559E+00 -0.68482446434E-01 -0.38556095779E-01  0.13224954830E+00  0.17360556005E-01 0.  0.
         14    1    1    2    0    0 -0.21098388107E-01 -0.97445938840E-02  0.38970767726E-02  0.23564513533E-01  0.00000000000E+00 0.  1.
     999901    1    3    3    0    0 -0.83840337488E-01  0.78227040318E-01  0.34659019007E-01  0.88811593817E+00  0.88000000000E+00 0. -1.
        -11    1    4    4    0    0  0.15597321462E-01 -0.38444442929E-02 -0.71514319299E-02  0.17591483404E-01  0.51100000000E-03 0.  1.
         11    1    4    4    0    0  0.89341404133E-01 -0.64638002141E-01 -0.31404663850E-01  0.11465806490E+00  0.51100000000E-03 0. -1.
</event>
<event>
 8    1  0.1092667E+005  0.1043930E+01  0.7957747E-01            NaN
         13   -1    0    0    0    0  0.00000000000E+00  0.00000000000E+00  0.74505805969E-08  0.10566000000E+00  0.10566000000E+00 0. -1.
     999900   -1    0    0    0    0 -0.00000000000E+00 -0.00000000000E+00 -0.74505805969E-08  0.93827000000E+00  0.93827000000E+00 0.  1.
     999902    2    1    2    0    0 -0.21103817530E-01  0.20169324307E-01  0.28440194471E-02  0.10145997903E+01  0.10141757605E+01 0.  0.
     999903    2    3    3    0    0 -0.96709168575E-01  0.52015720691E-02 -0.79977526971E-01  0.12735708881E+00  0.21064273319E-01 0.  0.
         14    1    1    2    0    0  0.21103817530E-01 -0.20169324307E-01 -0.28440194471E-02  0.29330209750E-01  0.00000000000E+00 0.  1.
     999901    1    3    3    0    0  0.75605351045E-01  0.14967752238E-01  0.82821546418E-01  0.88724270144E+00  0.88000000000E+00 0. -1.
        -11    1    4    4    0    0 -0.18367179621E-01  0.41257212788E-02 -0.26442848306E-01  0.32463213193E-01  0.51100000000E-03 0. -1.
         11    1    4    4    0    0 -0.78341988954E-01  0.10758507903E-02 -0.53534678665E-01  0.94893875614E-01  0.51100000000E-03 0.  1.
</event>
<event>
 8    1  0.1092667E+005  0.1043930E+01  0.7957747E-01            NaN
         13   -1    0    0    0    0  0.00000000000E+00  0.00000000000E+00  0.74505805969E-08  0.10566000000E+00  0.10566000000E+00 0.  1.
     999900   -1    0    0    0    0 -0.00000000000E+00 -0.00000000000E+00 -0.74505805969E-08  0.93827000000E+00  0.93827000000E+00 0.  1.
     999902    2    1    2    0    0  0.10319093579E-01 -0.22587271795E-01 -0.19418052200E-02  0.10190213841E+01  0.10187169097E+01 0.  0.
     999903    2    3    3    0    0 -0.77120927316E-01  0.31443858591E-01 -0.95807849786E-01  0.12808033405E+00  0.17002182718E-01 0.  0.
         14    1    1    2    0    0 -0.10319093579E-01  0.22587271795E-01  0.19418052200E-02  0.24908615918E-01  0.00000000000E+00 0. -1.
     999901    1    3    3    0    0  0.87440020895E-01 -0.54031130386E-01  0.93866044566E-01  0.89094105003E+00  0.88000000000E+00 0.  1.
        -11    1    4    4    0    0 -0.65464166832E-01  0.25335604342E-01 -0.70155472117E-01  0.99244654140E-01  0.51100000000E-03 0. -1.
         11    1    4    4    0    0 -0.11656760484E-01  0.61082542483E-02 -0.25652377669E-01  0.28835679912E-01  0.51100000000E-03 0.  1.
</event>
<event>
 8    1  0.1092667E+005  0.1043930E+01  0.7957747E-01            NaN
         13   -1    0    0    0    0  0.00000000000E+00  0.00000000000E+00  0.74505805969E-08  0.10566000000E+00  0.10566000000E+00 0. -1.
     999900   -1    0    0    0    0 -0.00000000000E+00 -0.00000000000E+00 -0.74505805969E-08  0.93827000000E+00  0.93827000000E+00 0.  1.
     999902    2    1    2    0    0 -0.21859816780E-01 -0.74517500118E-02  0.66576515851E-02  0.10198945160E+01  0.10196112589E+01 0.  0.
     999903    2    3    3    0    0  0.93075779513E-01 -0.18239280508E-01 -0.83415522745E-01  0.12779601309E+00  0.19439635839E-01 0.  0.
         14    1    1    2    0    0  0.21859816780E-01  0.74517500118E-02 -0.66576515851E-02  0.24035484029E-01  0.00000000000E+00 0. -1.
     999901    1    3    3    0    0 -0.11493559629E+00  0.10787530496E-01  0.90073174330E-01  0.89209850288E+00  0.88000000000E+00 0. -1.
        -11    1    4    4    0    0  0.64844060246E-01 -0.20404725914E-01 -0.64722706833E-01  0.93863703792E-01  0.51100000000E-03 0.  1.
         11    1    4    4    0    0  0.28231719267E-01  0.21654454058E-02 -0.18692815911E-01  0.33932309298E-01  0.51100000000E-03 0. -1.
</event>
<event>
 8    1  0.1092667E+005  0.1043930E+01  0.7957747E-01            NaN
         13   -1    0    0    0    0  0.00000000000E+00  0.00000000000E+00  0.74505805969E-08  0.10566000000E+00  0.10566000000E+00 0.  1.
     999900   -1    0    0    0    0 -0.00000000000E+00 -0.00000000000E+00 -0.74505805969E-08  0.93827000000E+00  0.93827000000E+00 0. -1.
     999902    2    1    2    0    0 -0.10961235043E-01  0.12493813095E-01 -0.17193761712E-01  0.10200162073E+01  0.10197358451E+01 0.  0.
     999903    2    3    3    0    0  0.56732240249E-01 -0.10731930545E+00 -0.39123305370E-01  0.12905128383E+00  0.19688078367E-01 0.  0.
         14    1    1    2    0    0  0.10961235043E-01 -0.12493813095E-01  0.17193761712E-01  0.23913792697E-01  0.00000000000E+00 0. -1.
     999901    1    3    3    0    0 -0.67693475293E-01  0.11981311854E+00  0.21929543658E-01  0.89096492347E+00  0.88000000000E+00 0.  1.
        -11    1    4    4    0    0  0.41565290258E-01 -0.85724668356E-01 -0.38191006702E-01  0.10264115273E+00  0.51100000000E-03 0.  1.
         11    1    4    4    0    0  0.15166949992E-01 -0.21594637093E-01 -0.93229866801E-03  0.26410131106E-01  0.51100000000E-03 0. -1.
</event>
<event>
 7    1  0.1092667E+005  0.1043930E+01  0.7957747E-01            NaN
         13   -1    0    0    0    0  0.00000000000E+00  0.00000000000E+00  0.74505805969E-08  0.10566000000E+00  0.10566000000E+00 0. -1.
     999900   -1    0    0    0    0 -0.00000000000E+00 -0.00000000000E+00 -0.74505805969E-08  0.93827000000E+00  0.93827000000E+00 0. -1.
     999902    2    1    2    0    0  0.14296209749E-01  0.12784991196E-01 -0.13773625204E-01  0.10203174956E+01  0.10200442350E+01 0.  0.
         14    1    1    2    0    0 -0.14296209749E-01 -0.12784991196E-01  0.13773625204E-01  0.23612504406E-01  0.00000000000E+00 0. -1.
     999901    1    3    3    0    0  0.46084858093E-01  0.12860489090E+00 -0.36304006957E-01  0.89128054676E+00  0.88000000000E+00 0.  1.
        -11    1    3    3    0    0 -0.41006865030E-01 -0.10392433402E+00  0.22563644765E-01  0.11397898652E+00  0.51100000000E-03 0. -1.
         11    1    3    3    0    0  0.92182166853E-02 -0.11895565679E-01 -0.33263011601E-04  0.15057962316E-01  0.51100000000E-03 0.  1.
</event>
<event>
 8    1  0.1092667E+005  0.1043930E+01  0.7957747E-01            NaN
         13   -1    0    0    0    0  0.00000000000E+00  0.00000000000E+00  0.74505805969E-08  0.10566000000E+00  0.10566000000E+00 0.  1.
     999900   -1    0    0    0    0 -0.00000000000E+00 -0.00000000000E+00 -0.74505805969E-08  0.93827000000E+00  0.93827000000E+00 0.  1.
     999902    2    1    2    0    0  0.17713207434E-01  0.50900236094E-03 -0.16127386638E-01  0.10199694199E+01  0.10196879464E+01 0.  0.
     999903    2    3    3    0    0  0.35039849167E-01  0.11284698861E+00 -0.54693911377E-01  0.13182111439E+00  0.20570570966E-01 0.  0.
         14    1    1    2    0    0 -0.17713207434E-01 -0.50900236094E-03  0.16127386638E-01  0.23960580142E-01  0.00000000000E+00 0. -1.
     999901    1    3    3    0    0 -0.17326641733E-01 -0.11233798625E+00  0.38566524740E-01  0.88814830546E+00  0.88000000000E+00 0.  1.
        -11    1    4    4    0    0  0.25666605911E-01  0.10325944527E+00 -0.50376748777E-01  0.11772580701E+00  0.51100000000E-03 0. -1.
         11    1    4    4    0    0  0.93732432563E-02  0.95875433386E-02 -0.43171626002E-02  0.14095307387E-01  0.51100000000E-03 0.  1.
</event>
<event>
 8    1  0.1092667E+005  0.1043930E+01  0.7957747E-01            NaN
         13   -1    0    0    0    0  0.00000000000E+00  0.00000000000E+00  0.74505805969E-08  0.10566000000E+00  0.10566000000E+00 0.  1.
     999900   -1    0    0    0    0 -0.00000000000E+00 -0.00000000000E+00 -0.74505805969E-08  0.93827000000E+00  0.93827000000E+00 0.  1.
     999902    2    1    2    0    0 -0.11517462566E-01 -0.13671594668E-01 -0.12704086035E-01  0.10219992397E+01  0.10217639100E+01 0.  0.
     999903    2    3    3    0    0 -0.25707154599E-01 -0.10428082566E+00  0.75360097686E-01  0.13286107241E+00  0.20918217919E-01 0.  0.
         14    1    1    2    0    0  0.11517462566E-01  0.13671594668E-01  0.12704086035E-01  0.21930760286E-01  0.00000000000E+00 0.  1.
     999901    1    3    3    0    0  0.14189692032E-01  0.90609230993E-01 -0.88064183722E-01  0.88913816730E+00  0.88000000000E+00 0.  1.
        -11    1    4    4    0    0 -0.22044996269E-02 -0.45070454143E-01  0.38089747927E-01  0.59053329063E-01  0.51100000000E-03 0. -1.
         11    1    4    4    0    0 -0.23502654972E-01 -0.59210371517E-01  0.37270349759E-01  0.73807743348E-01  0.51100000000E-03 0.  1.
</event>
<event>
 8    1  0.1092667E+005  0.1043930E+01  0.7957747E-01            NaN
         13   -1    0    0    0    0  0.00000000000E+00  0.00000000000E+00  0.74505805969E-08  0.10566000000E+00  0.10566000000E+00 0. -1.
     999900   -1    0    0    0    0 -0.00000000000E+00 -0.00000000000E+00 -0.74505805969E-08  0.93827000000E+00  0.93827000000E+00 0.  1.
     999902    2    1    2    0    0  0.60448877915E-02 -0.20928555747E-01 -0.82284010731E-02  0.10206437015E+01  0.10203780249E+01 0.  0.
     999903    2    3    3    0    0  0.24209832980E-01  0.12395436935E+00 -0.22041366137E-01  0.12850479682E+00  0.87669430515E-02 0.  0.
         14    1    1    2    0    0 -0.60448877915E-02  0.20928555747E-01  0.82284010731E-02  0.23286298510E-01  0.00000000000E+00 0.  1.
     999901    1    3    3    0    0 -0.18164945189E-01 -0.14488292510E+00  0.13812965064E-01  0.89213890467E+00  0.88000000000E+00 0. -1.
        -11    1    4    4    0    0  0.22320801315E-01  0.10254806741E+00 -0.20662430301E-01  0.10696504779E+00  0.51100000000E-03 0.  1.
         11    1    4    4    0    0  0.18890316652E-02  0.21406301943E-01 -0.13789358361E-02  0.21539749037E-01  0.51100000000E-03 0. -1.
</event>
<event>
 8    1  0.1092667E+005  0.1043930E+01  0.7957747E-01            NaN
         13   -1    0    0    0    0  0.00000000000E+00  0.00000000000E+00  0.74505805969E-08  0.10566000000E+00  0.10566000000E+00 0.  1.
     999900   -1    0    0    0    0 -0.00000000000E+00 -0.00000000000E+00 -0.74505805969E-08  0.93827000000E+00  0.93827000000E+00 0. -1.
     999902    2    1    2    0    0  0.22864221290E-01 -0.41357793612E-02 -0.53356248104E-02  0.10200899879E+01  0.10198113733E+01 0.  0.
     999903    2    3    3    0    0  0.49996488508E-01 -0.95653649266E-01 -0.73796010337E-01  0.13228454476E+00  0.20101745184E-01 0.  0.
         14    1    1    2    0    0 -0.22864221290E-01  0.41357793612E-02  0.53356248104E-02  0.23840012127E-01  0.00000000000E+00 0.  1.
     999901    1    3    3    0    0 -0.27132267218E-01  0.91517869905E-01  0.68460385526E-01  0.88780544311E+00  0.88000000000E+00 0. -1.
        -11    1    4    4    0    0  0.36465960275E-01 -0.49296781281E-01 -0.44959190418E-01  0.76036365165E-01  0.51100000000E-03 0.  1.
         11    1    4    4    0    0  0.13530528233E-01 -0.46356867985E-01 -0.28836819919E-01  0.56248179594E-01  0.51100000000E-03 0. -1.
</event>
<event>
 8    1  0.1092667E+005  0.1043930E+01  0.7957747E-01            NaN
         13   -1    0    0    0    0  0.00000000000E+00  0.00000000000E+00  0.74505805969E-08  0.10566000000E+00  0.10566000000E+00 0. -1.
     999900   -1    0    0    0    0 -0.00000000000E+00 -0.00000000000E+00 -0.74505805969E-08  0.93827000000E+00  0.93827000000E+00 0.  1.
     999902    2    1    2    0    0 -0.97318134040E-02  0.91374351053E-02 -0.19644363840E-01  0.10201791696E+01  0.10199026602E+01 0.  0.
     999903    2    3    3    0    0 -0.15760731638E-01  0.12512188040E+00  0.29979912261E-01  0.13116212357E+00  0.20020537078E-01 0.  0.
         14    1    1    2    0    0  0.97318134040E-02 -0.91374351053E-02  0.19644363840E-01  0.23750830367E-01  0.00000000000E+00 0. -1.
     999901    1    3    3    0    0  0.60289182344E-02 -0.11598444529E+00 -0.49624276101E-01  0.88901704606E+00  0.88000000000E+00 0.  1.
        -11    1    4    4    0    0  0.46322282145E-02  0.23866805786E-01  0.38693182756E-02  0.24623458359E-01  0.51100000000E-03 0.  1.
         11    1    4    4    0    0 -0.20392959853E-01  0.10125507461E+00  0.26110593985E-01  0.10653866521E+00  0.51100000000E-03 0. -1.
</event>
<event>
 8    1  0.1092667E+005  0.1043930E+01  0.7957747E-01            NaN
         13   -1    0    0    0    0  0.00000000000E+00  0.00000000000E+00  0.74505805969E-08  0.10566000000E+00  0.10566000000E+00 0. -1.
     999900   -1    0    0    0    0 -0.00000000000E+00 -0.00000000000E+00 -0.74505805969E-08  0.93827000000E+00  0.93827000000E+00 0. -1.
     999902    2    1    2    0    0 -0.72961939469E-02  0.21636240466E-01 -0.71996033927E-02  0.10199884955E+01  0.10197074754E+01 0.  0.
     999903    2    3    3    0    0  0.58482942603E-01 -0.47391242023E-01  0.10187012141E+00  0.12814327744E+00  0.19416321037E-01 0.  0.
         14    1    1    2    0    0  0.72961939469E-02 -0.21636240466E-01  0.71996033927E-02  0.23941504477E-01  0.00000000000E+00 0. -1.
     999901    1    3    3    0    0 -0.65779136549E-01  0.69027482489E-01 -0.10906972480E+00  0.89184521808E+00  0.88000000000E+00 0. -1.
        -11    1    4    4    0    0  0.23518289428E-01 -0.75046474218E-02  0.32003826896E-01  0.40421970852E-01  0.51100000000E-03 0.  1.
         11    1    4    4    0    0  0.34964653174E-01 -0.39886594601E-01  0.69866294511E-01  0.87721306591E-01  0.51100000000E-03 0. -1.
</event>
<event>
 8    1  0.1092667E+005  0.1043930E+01  0.7957747E-01            NaN
         13   -1    0    0    0    0  0.00000000000E+00  0.00000000000E+00  0.74505805969E-08  0.10566000000E+00  0.10566000000E+00 0.  1.
     999900   -1    0    0    0    0 -0.00000000000E+00 -0.00000000000E+00 -0.74505805969E-08  0.93827000000E+00  0.93827000000E+00 0. -1.
     999902    2    1    2    0    0  0.68115820055E-02 -0.21840301108E-01 -0.63513475895E-02  0.10201868743E+01  0.10199105463E+01 0.  0.
     999903    2    3    3    0    0  0.79217443267E-01  0.66574512432E-01 -0.76979156497E-01  0.12999134780E+00  0.16260102877E-01 0.  0.
         14    1    1    2    0    0 -0.68115820055E-02  0.21840301108E-01  0.63513475895E-02  0.23743125702E-01  0.00000000000E+00 0. -1.
     999901    1    3    3    0    0 -0.72405861262E-01 -0.88414813540E-01  0.70627808908E-01  0.89019552649E+00  0.88000000000E+00 0.  1.
        -11    1    4    4    0    0  0.19334509360E-02  0.66403540614E-02 -0.46474873286E-02  0.83482210112E-02  0.51100000000E-03 0. -1.
         11    1    4    4    0    0  0.77283992331E-01  0.59934158370E-01 -0.72331669169E-01  0.12164312679E+00  0.51100000000E-03 0.  1.
</event>
<event>
 8    1  0.1092667E+005  0.1043930E+01  0.7957747E-01            NaN
         13   -1    0    0    0    0  0.00000000000E+00  0.00000000000E+00  0.74505805969E-08  0.10566000000E+00  0.10566000000E+00 0. -1.
     999900   -1    0    0    0    0 -0.00000000000E+00 -0.00000000000E+00 -0.74505805969E-08  0.93827000000E+00  0.93827000000E+00 0.  1.
     999902    2    1    2    0    0 -0.10881416002E-01  0.13527530857E-02  0.20850503637E-01  0.10203720150E+01  0.10201000296E+01 0.  0.
     999903    2    3    3    0    0 -0.12208779538E+00  0.45861121806E-01 -0.47487555238E-02  0.13188837657E+00  0.19060979021E-01 0.  0.
         14    1    1    2    0    0  0.10881416002E-01 -0.13527530857E-02 -0.20850503637E-01  0.23557984995E-01  0.00000000000E+00 0.  1.
     999901    1    3    3    0    0  0.11120637938E+00 -0.44508368721E-01  0.25599259161E-01  0.88848363844E+00  0.88000000000E+00 0.  1.
        -11    1    4    4    0    0 -0.44501926099E-01  0.90352052002E-02 -0.71453361056E-02  0.45971440141E-01  0.51100000000E-03 0.  1.
         11    1    4    4    0    0 -0.77585869278E-01  0.36825916606E-01  0.23965805818E-02  0.85916936427E-01  0.51100000000E-03 0. -1.
</event>
<event>
 7    1  0.1092667E+005  0.1043930E+01  0.7957747E-01            NaN
         13   -1    0    0    0    0  0.00000000000E+00  0.00000000000E+00  0.74505805969E-08  0.10566000000E+00  0.10566000000E+00 0.  1.
     999900   -1    0    0    0    0 -0.00000000000E+00 -0.00000000000E+00 -0.74505805969E-08  0.93827000000E+00  0.93827000000E+00 0.  1.
     999902    2    1    2    0    0  0.35895768141E-02 -0.21018066152E-01  0.89328008501E-02  0.10208120611E+01  0.10205502560E+01 0.  0.
         14    1    1    2    0    0 -0.35895768141E-02  0.21018066152E-01 -0.89328008501E-02  0.23117938868E-01  0.00000000000E+00 0. -1.
     999901    1    3    3    0    0  0.93668075911E-01 -0.10566366063E+00  0.20450087829E-01  0.89149129200E+00  0.88000000000E+00 0. -1.
        -11    1    3    3    0    0 -0.65392880110E-01  0.66139221057E-01 -0.23965205418E-01  0.96047995933E-01  0.51100000000E-03 0. -1.
         11    1    3    3    0    0 -0.24685618988E-01  0.18506373417E-01  0.12447918439E-01  0.33272773198E-01  0.51100000000E-03 0.  1.
</event>
<event>
 8    1  0.1092667E+005  0.1043930E+01  0.7957747E-01            NaN
         13   -1    0    0    0    0  0.00000000000E+00  0.00000000000E+00  0.74505805969E-08  0.10566000000E+00  0.10566000000E+00 0.  1.
     999900   -1    0    0    0    0 -0.00000000000E+00 -0.00000000000E+00 -0.74505805969E-08  0.93827000000E+00  0.93827000000E+00 0. -1.
     999902    2    1    2    0    0  0.12992438445E-01 -0.21616353941E-01  0.14615255728E-01  0.10147807991E+01  0.10143620627E+01 0.  0.
     999903    2    3    3    0    0  0.28356045648E-01  0.21345991217E-01  0.12074602619E+00  0.12723049404E+00  0.18662237492E-01 0.  0.
         14    1    1    2    0    0 -0.12992438445E-01  0.21616353941E-01 -0.14615255728E-01  0.29149200923E-01  0.00000000000E+00 0.  1.
     999901    1    3    3    0    0 -0.15363607203E-01 -0.42962345158E-01 -0.10613077046E+00  0.88755030503E+00  0.88000000000E+00 0. -1.
        -11    1    4    4    0    0  0.19923854457E-02  0.11847817999E-01  0.39152928042E-01  0.40957945339E-01  0.51100000000E-03 0.  1.
         11    1    4    4    0    0  0.26363660202E-01  0.94981732176E-02  0.81593098146E-01  0.86272548704E-01  0.51100000000E-03 0. -1.
</event>
<event>
 8    1  0.1092667E+005  0.1043930E+01  0.7957747E-01            NaN
         13   -1    0    0    0    0  0.00000000000E+00  0.00000000000E+00  0.74505805969E-08  0.10566000000E+00  0.10566000000E+00 0.  1.
     999900   -1    0    0    0    0 -0.00000000000E+00 -0.00000000000E+00 -0.74505805969E-08  0.93827000000E+00  0.93827000000E+00 0.  1.
     999902    2    1    2    0    0  0.39354082826E-02 -0.22153526004E-01 -0.83946451329E-02  0.10199146670E+01  0.10196318903E+01 0.  0.
     999903    2    3    3    0    0  0.11984398441E+00  0.69421555252E-03  0.49786581070E-01  0.13011588502E+00  0.94009225410E-02 0.  0.
         14    1    1    2    0    0 -0.39354082826E-02  0.22153526004E-01  0.83946451329E-02  0.24015333012E-01  0.00000000000E+00 0.  1.
     999901    1    3    3    0    0 -0.11590857613E+00 -0.22847741556E-01 -0.58181226203E-01  0.88979878197E+00  0.88000000000E+00 0.  1.
        -11    1    4    4    0    0  0.63816437530E-01  0.33514409807E-02  0.30388185054E-01  0.70763498836E-01  0.51100000000E-03 0.  1.
         11    1    4    4    0    0  0.56027546880E-01 -0.26572254282E-02  0.19398396017E-01  0.59352386181E-01  0.51100000000E-03 0. -1.
</event>
<event>
 8    1  0.1092667E+005  0.1043930E+01  0.7957747E-01            NaN
         13   -1    0    0    0    0  0.00000000000E+00  0.00000000000E+00  0.74505805969E-08  0.10566000000E+00  0.10566000000E+00 0.  1.
     999900   -1    0    0    0    0 -0.00000000000E+00 -0.00000000000E+00 -0.74505805969E-08  0.93827000000E+00  0.93827000000E+00 0. -1.
     999902    2    1    2    0    0  0.19786733111E-01 -0.11147378689E-01  0.44077969260E-02  0.10207954472E+01  0.10205332614E+01 0.  0.
     999903    2    3    3    0    0 -0.42127227032E-01 -0.12137098576E+00 -0.20134493198E-01  0.13142212514E+00  0.18993623099E-01 0.  0.
         14    1    1    2    0    0 -0.19786733111E-01  0.11147378689E-01 -0.44077969260E-02  0.23134552785E-01  0.00000000000E+00 0.  1.
     999901    1    3    3    0    0  0.61913960142E-01  0.11022360707E+00  0.24542290124E-01  0.88937332208E+00  0.88000000000E+00 0. -1.
        -11    1    4    4    0    0 -0.42814290220E-01 -0.10787240752E+00 -0.20670725564E-01  0.11788579120E+00  0.51100000000E-03 0.  1.
         11    1    4    4    0    0  0.68706318834E-03 -0.13498578238E-01  0.53623236602E-03  0.13536333936E-01  0.51100000000E-03 0. -1.
</event>
<event>
 8    1  0.1092667E+005  0.1043930E+01  0.7957747E-01            NaN
         13   -1    0    0    0    0  0.00000000000E+00  0.00000000000E+00  0.74505805969E-08  0.10566000000E+00  0.10566000000E+00 0.  1.
     999900   -1    0    0    0    0 -0.00000000000E+00 -0.00000000000E+00 -0.74505805969E-08  0.93827000000E+00  0.93827000000E+00 0. -1.
     999902    2    1    2    0    0 -0.44461609323E-02 -0.22495381934E-01  0.72962326417E-03  0.10209878356E+01  0.10207300415E+01 0.  0.
     999903    2    3    3    0    0  0.28320355379E-01 -0.11564534021E-01  0.12619048399E+00  0.13141852659E+00  0.20273379216E-01 0.  0.
         14    1    1    2    0    0  0.44461609323E-02  0.22495381934E-01 -0.72962326417E-03  0.22942164359E-01  0.00000000000E+00 0.  1.
     999901    1    3    3    0    0 -0.32766516312E-01 -0.10930847913E-01 -0.12546086073E+00  0.88956930905E+00  0.88000000000E+00 0. -1.
        -11    1    4    4    0    0  0.48474193530E-02 -0.11996736461E-01  0.52696722944E-01  0.54264397999E-01  0.51100000000E-03 0.  1.
         11    1    4    4    0    0  0.23472936026E-01  0.43220243972E-03  0.73493761050E-01  0.77154128593E-01  0.51100000000E-03 0. -1.
</event>
<event>
 8    1  0.1092667E+005  0.1043930E+01  0.7957747E-01            NaN
         13   -1    0    0    0    0  0.00000000000E+00  0.00000000000E+00  0.74505805969E-08  0.10566000000E+00  0.10566000000E+00 0. -1.
     999900   -1    0    0    0    0 -0.00000000000E+00 -0.00000000000E+00 -0.74505805969E-08  0.93827000000E+00  0.93827000000E+00 0.  1.
     999902    2    1    2    0    0  0.25109583022E-01  0.11460357904E-01  0.12040364754E-01  0.10138168576E+01  0.10133695374E+01 0.  0.
     999903    2    3    3    0    0  0.11330823378E+00 -0.52303050339E-01  0.14702653862E-01  0.12710841508E+00  0.19131550812E-01 0.  0.
         14    1    1    2    0    0 -0.25109583022E-01 -0.11460357904E-01 -0.12040364754E-01  0.30113142417E-01  0.00000000000E+00 0. -1.
     999901    1    3    3    0    0 -0.88198650756E-01  0.63763408243E-01 -0.26622891087E-02  0.88670844250E+00  0.88000000000E+00 0.  1.
        -11    1    4    4    0    0  0.30705589544E-01 -0.18022448246E-01 -0.37012796876E-02  0.35799475728E-01  0.51100000000E-03 0.  1.
         11    1    4    4    0    0  0.82602644233E-01 -0.34280602093E-01  0.18403933550E-01  0.91308939351E-01  0.51100000000E-03 0. -1.
</event>
<event>
 8    1  0.1092667E+005  0.1043930E+01  0.7957747E-01            NaN
         13   -1    0    0    0    0  0.00000000000E+00  0.00000000000E+00  0.74505805969E-08  0.10566000000E+00  0.10566000000E+00 0. -1.
     999900   -1    0    0    0    0 -0.00000000000E+00 -0.00000000000E+00 -0.74505805969E-08  0.93827000000E+00  0.93827000000E+00 0. -1.
     999902    2    1    2    0    0  0.12351492934E-01  0.16744874153E-01 -0.12886201264E-01  0.10194554342E+01  0.10191616054E+01 0.  0.
     999903    2    3    3    0    0  0.39114336495E-01 -0.31620347330E-01  0.11626580318E+00  0.12831252496E+00  0.20410521467E-01 0.  0.
         14    1    1    2    0    0 -0.12351492934E-01 -0.16744874153E-01  0.12886201264E-01  0.24474565800E-01  0.00000000000E+00 0. -1.
     999901    1    3    3    0    0 -0.26762843561E-01  0.48365221483E-01 -0.12915200444E+00  0.89114290924E+00  0.88000000000E+00 0. -1.
        -11    1    4    4    0    0  0.19020578804E-01 -0.27873927179E-01  0.68878477936E-01  0.76702308167E-01  0.51100000000E-03 0. -1.
         11    1    4    4    0    0  0.20093757691E-01 -0.37464201507E-02  0.47387325244E-01  0.51610216788E-01  0.51100000000E-03 0.  1.
</event>
<event>
 8    1  0.1092667E+005  0.1043930E+01  0.7957747E-01            NaN
         13   -1    0    0    0    0  0.00000000000E+00  0.00000000000E+00  0.74505805969E-08  0.10566000000E+00  0.10566000000E+00 0.  1.
     999900   -1    0    0    0    0 -0.00000000000E+00 -0.00000000000E+00 -0.74505805969E-08  0.93827000000E+00  0.93827000000E+00 0. -1.
     999902    2    1    2    0    0 -0.17484753314E-01  0.11906545500E-01 -0.99525852985E-02  0.10205518825E+01  0.10202840822E+01 0.  0.
     999903    2    3    3    0    0 -0.11501655921E+00  0.65029612454E-01 -0.34974513424E-02  0.13354783393E+00  0.19108437741E-01 0.  0.
         14    1    1    2    0    0  0.17484753314E-01 -0.11906545500E-01  0.99525852985E-02  0.23378117510E-01  0.00000000000E+00 0. -1.
     999901    1    3    3    0    0  0.97531805898E-01 -0.53123066955E-01 -0.64551339562E-02  0.88700404856E+00  0.88000000000E+00 0.  1.
        -11    1    4    4    0    0 -0.15902851773E-01  0.16988465195E-01 -0.23873721967E-02  0.23398062125E-01  0.51100000000E-03 0.  1.
         11    1    4    4    0    0 -0.99113707439E-01  0.48041147260E-01 -0.11100791457E-02  0.11014977181E+00  0.51100000000E-03 0. -1.
</event>
<event>
 8    1  0.1196471E+005  0.1043930E+01  0.7957747E-01            NaN
         13   -1    0    0    0    0  0.00000000000E+00  0.00000000000E+00  0.74505805969E-08  0.10566000000E+00  0.10566000000E+00 0.  1.
     999900   -1    0    0    0    0 -0.00000000000E+00 -0.00000000000E+00 -0.74505805969E-08  0.93827000000E+00  0.93827000000E+00 0. -1.
     999902    2    1    2    0    0 -0.21517130252E-01  0.64699305628E-05 -0.10192924312E-01  0.10201207026E+01  0.10198428140E+01 0.  0.
     999903    2    3    3    0    0  0.12489454602E+00 -0.17023261163E-01  0.47881380222E-02  0.12773579523E+00  0.20126302947E-01 0.  0.
         14    1    1    2    0    0  0.21517130252E-01 -0.64699305628E-05  0.10192924312E-01  0.23809297389E-01  0.00000000000E+00 0.  1.
     999901    1    3    3    0    0 -0.14641167628E+00  0.17029731094E-01 -0.14981062334E-01  0.89238490738E+00  0.88000000000E+00 0.  1.
        -11    1    4    4    0    0  0.72500027575E-01 -0.80722182470E-04  0.49044424256E-02  0.72667566293E-01  0.51100000000E-03 0.  1.
         11    1    4    4    0    0  0.52394518449E-01 -0.16942538981E-01 -0.11630440342E-03  0.55068228937E-01  0.51100000000E-03 0. -1.
</event>
<event>
 8    1  0.1092667E+005  0.1043930E+01  0.7957747E-01            NaN
         13   -1    0    0    0    0  0.00000000000E+00  0.00000000000E+00  0.74505805969E-08  0.10566000000E+00  0.10566000000E+00 0. -1.
     999900   -1    0    0    0    0 -0.00000000000E+00 -0.00000000000E+00 -0.74505805969E-08  0.93827000000E+00  0.93827000000E+00 0. -1.
     999902    2    1    2    0    0 -0.12786264168E-01  0.19803061812E-01  0.31485697865E-02  0.10201484252E+01  0.10198711909E+01 0.  0.
     999903    2    3    3    0    0 -0.14809376596E-01  0.83212710666E-01  0.99801000783E-01  0.13258627584E+00  0.21799264487E-01 0.  0.
         14    1    1    2    0    0  0.12786264168E-01 -0.19803061812E-01 -0.31485697865E-02  0.23781574805E-01  0.00000000000E+00 0.  1.
     999901    1    3    3    0    0  0.20231124288E-02 -0.63409648854E-01 -0.96652430997E-01  0.88756214936E+00  0.88000000000E+00 0. -1.
        -11    1    4    4    0    0 -0.79849631080E-02  0.66763488181E-02  0.10938066386E-01  0.15107471219E-01  0.51100000000E-03 0.  1.
         11    1    4    4    0    0 -0.68244134884E-02  0.76536361848E-01  0.88862934397E-01  0.11747880462E+00  0.51100000000E-03 0. -1.
</event>
<event>
 8    1  0.1092667E+005  0.1043930E+01  0.7957747E-01            NaN
         13   -1    0    0    0    0  0.00000000000E+00  0.00000000000E+00  0.74505805969E-08  0.10566000000E+00  0.10566000000E+00 0.  1.
     999900   -1    0    0    0    0 -0.00000000000E+00 -0.00000000000E+00 -0.74505805969E-08  0.93827000000E+00  0.93827000000E+00 0. -1.
     999902    2    1    2    0    0  0.15707470863E-01  0.92317995033E-02  0.11187805750E-01  0.10225496875E+01  0.10223261445E+01 0.  0.
     999903    2    3    3    0    0  0.55785900778E-01  0.90220243284E-03 -0.11815421946E+00  0.13215369575E+00  0.19781279775E-01 0.  0.
         14    1    1    2    0    0 -0.15707470863E-01 -0.92317995033E-02 -0.11187805750E-01  0.21380312450E-01  0.00000000000E+00 0. -1.
     999901    1    3    3    0    0 -0.40078429915E-01  0.83295970704E-02  0.12934202521E+00  0.89039599180E+00  0.88000000000E+00 0.  1.
        -11    1    4    4    0    0  0.27217956503E-01  0.10265380564E-01 -0.55846183920E-01  0.62970251498E-01  0.51100000000E-03 0.  1.
         11    1    4    4    0    0  0.28567944275E-01 -0.93631781307E-02 -0.62308035538E-01  0.69183444251E-01  0.51100000000E-03 0. -1.
</event>
<event>
 8    1  0.1092667E+005  0.1043930E+01  0.7957747E-01            NaN
         13   -1    0    0    0    0  0.00000000000E+00  0.00000000000E+00  0.74505805969E-08  0.10566000000E+00  0.10566000000E+00 0. -1.
     999900   -1    0    0    0    0 -0.00000000000E+00 -0.00000000000E+00 -0.74505805969E-08  0.93827000000E+00  0.93827000000E+00 0. -1.
     999902    2    1    2    0    0 -0.18001372696E-01  0.74067467631E-02 -0.13616654350E-01  0.10201745250E+01  0.10198979061E+01 0.  0.
     999903    2    3    3    0    0 -0.12041872223E+00  0.38540282669E-01  0.33907394466E-01  0.13241490340E+00  0.19949265379E-01 0.  0.
         14    1    1    2    0    0  0.18001372696E-01 -0.74067467631E-02  0.13616654350E-01  0.23755474995E-01  0.00000000000E+00 0. -1.
     999901    1    3    3    0    0  0.10241734954E+00 -0.31133535905E-01 -0.47524048816E-01  0.88775962161E+00  0.88000000000E+00 0. -1.
        -11    1    4    4    0    0 -0.63713671959E-01  0.26244618753E-01  0.26878329365E-01  0.73965652288E-01  0.51100000000E-03 0.  1.
         11    1    4    4    0    0 -0.56705050275E-01  0.12295663916E-01  0.70290651012E-02  0.58449251108E-01  0.51100000000E-03 0. -1.
</event>
<event>
 8    1  0.1092667E+005  0.1043930E+01  0.7957747E-01            NaN
         13   -1    0    0    0    0  0.00000000000E+00  0.00000000000E+00  0.74505805969E-08  0.10566000000E+00  0.10566000000E+00 0.  1.
     999900   -1    0    0    0    0 -0.00000000000E+00 -0.00000000000E+00 -0.74505805969E-08  0.93827000000E+00  0.93827000000E+00 0. -1.
     999902    2    1    2    0    0  0.11837437346E-01  0.32152118825E-02 -0.20583064503E-01  0.10199690932E+01  0.10196876120E+01 0.  0.
     999903    2    3    3    0    0 -0.16157278018E-01  0.11234050273E+00 -0.63826059760E-01  0.13173376975E+00  0.19964318202E-01 0.  0.
         14    1    1    2    0    0 -0.11837437346E-01 -0.32152118825E-02  0.20583064503E-01  0.23960906800E-01  0.00000000000E+00 0.  1.
     999901    1    3    3    0    0  0.27994715364E-01 -0.10912529084E+00  0.43242995258E-01  0.88823532345E+00  0.88000000000E+00 0.  1.
        -11    1    4    4    0    0 -0.19506644848E-01  0.10283017353E+00 -0.61417767878E-01  0.12135467487E+00  0.51100000000E-03 0. -1.
         11    1    4    4    0    0  0.33493668306E-02  0.95103292010E-02 -0.24082918827E-02  0.10379094877E-01  0.51100000000E-03 0.  1.
</event>
<event>
 8    1  0.1092667E+005  0.1043930E+01  0.7957747E-01            NaN
         13   -1    0    0    0    0  0.00000000000E+00  0.00000000000E+00  0.74505805969E-08  0.10566000000E+00  0.10566000000E+00 0.  1.
     999900   -1    0    0    0    0 -0.00000000000E+00 -0.00000000000E+00 -0.74505805969E-08  0.93827000000E+00  0.93827000000E+00 0.  1.
     999902    2    1    2    0    0  0.88065756041E-02  0.18722805274E-01  0.11677559468E-01  0.10201715361E+01  0.10198948468E+01 0.  0.
     999903    2    3    3    0    0 -0.12546159586E+00  0.23857273804E-01 -0.10821021877E-01  0.12968824553E+00  0.19803155484E-01 0.  0.
         14    1    1    2    0    0 -0.88065756041E-02 -0.18722805274E-01 -0.11677559468E-01  0.23758463888E-01  0.00000000000E+00 0.  1.
     999901    1    3    3    0    0  0.13426817146E+00 -0.51344685295E-02  0.22498581344E-01  0.89048329058E+00  0.88000000000E+00 0. -1.
        -11    1    4    4    0    0 -0.41687322420E-01  0.16924682176E-01 -0.52557951605E-03  0.44997945199E-01  0.51100000000E-03 0. -1.
         11    1    4    4    0    0 -0.83774273437E-01  0.69325916276E-02 -0.10295442361E-01  0.84690300336E-01  0.51100000000E-03 0.  1.
</event>
<event>
 8    1  0.1092667E+005  0.1043930E+01  0.7957747E-01            NaN
         13   -1    0    0    0    0  0.00000000000E+00  0.00000000000E+00  0.74505805969E-08  0.10566000000E+00  0.10566000000E+00 0.  1.
     999900   -1    0    0    0    0 -0.00000000000E+00 -0.00000000000E+00 -0.74505805969E-08  0.93827000000E+00  0.93827000000E+00 0.  1.
     999902    2    1    2    0    0 -0.16104704728E-01  0.77017779408E-02  0.15500974210E-01  0.10202876841E+01  0.10200137251E+01 0.  0.
     999903    2    3    3    0    0 -0.99204708428E-01  0.82651344470E-01  0.25732958237E-01  0.13314184402E+00  0.19792588843E-01 0.  0.
         14    1    1    2    0    0  0.16104704728E-01 -0.77017779408E-02 -0.15500974210E-01  0.23642315861E-01  0.00000000000E+00 0.  1.
     999901    1    3    3    0    0  0.83100003700E-01 -0.74949566530E-01 -0.10231984027E-01  0.88714584012E+00  0.88000000000E+00 0.  1.
        -11    1    4    4    0    0 -0.40897652052E-01  0.36619572546E-01  0.20737165639E-01  0.58684769716E-01  0.51100000000E-03 0. -1.
         11    1    4    4    0    0 -0.58307056375E-01  0.46031771924E-01  0.49957925985E-02  0.74457074307E-01  0.51100000000E-03 0.  1.
</event>
<event>
 8    1  0.1092667E+005  0.1043930E+01  0.7957747E-01            NaN
         13   -1    0    0    0    0  0.00000000000E+00  0.00000000000E+00  0.74505805969E-08  0.10566000000E+00  0.10566000000E+00 0. -1.
     999900   -1    0    0    0    0 -0.00000000000E+00 -0.00000000000E+00 -0.74505805969E-08  0.93827000000E+00  0.93827000000E+00 0. -1.
     999902    2    1    2    0    0  0.12288533577E-01 -0.13801897501E-01  0.14662665109E-01  0.10203398711E+01  0.10200671343E+01 0.  0.
     999903    2    3    3    0    0  0.10406594269E+00 -0.14516539909E-01  0.78292004182E-01  0.13328164512E+00  0.24370241029E-01 0.  0.
         14    1    1    2    0    0 -0.12288533577E-01  0.13801897501E-01 -0.14662665109E-01  0.23590128872E-01  0.00000000000E+00 0.  1.
     999901    1    3    3    0    0 -0.91777409114E-01  0.71464240831E-03 -0.63629339073E-01  0.88705822601E+00  0.88000000000E+00 0.  1.
        -11    1    4    4    0    0  0.70103237343E-01 -0.21478403592E-02  0.62074139227E-01  0.93661822457E-01  0.51100000000E-03 0.  1.
         11    1    4    4    0    0  0.33962705349E-01 -0.12368699550E-01  0.16217864955E-01  0.39619822663E-01  0.51100000000E-03 0. -1.
</event>
<event>
 8    1  0.1092667E+005  0.1043930E+01  0.7957747E-01            NaN
         13   -1    0    0    0    0  0.00000000000E+00  0.00000000000E+00  0.74505805969E-08  0.10566000000E+00  0.10566000000E+00 0.  1.
     999900   -1    0    0    0    0 -0.00000000000E+00 -0.00000000000E+00 -0.74505805969E-08  0.93827000000E+00  0.93827000000E+00 0. -1.
     999902    2    1    2    0    0 -0.11618571228E-01  0.17042864221E-01 -0.11546704738E-01  0.10202915396E+01  0.10200176709E+01 0.  0.
     999903    2    3    3    0    0  0.10755650910E+00 -0.33083701747E-01  0.57961290025E-01  0.12813307068E+00  0.19890668384E-01 0.  0.
         14    1    1    2    0    0  0.11618571228E-01 -0.17042864221E-01  0.11546704738E-01  0.23638460368E-01  0.00000000000E+00 0. -1.
     999901    1    3    3    0    0 -0.11917508033E+00  0.50126565968E-01 -0.69507994763E-01  0.89215846895E+00  0.88000000000E+00 0. -1.
        -11    1    4    4    0    0  0.34408378207E-01 -0.11287204013E-02  0.16414275513E-01  0.38143152232E-01  0.51100000000E-03 0.  1.
         11    1    4    4    0    0  0.73148130896E-01 -0.31954981346E-01  0.41547014512E-01  0.89989918448E-01  0.51100000000E-03 0. -1.
</event>
<event>
 8    1  0.1092667E+005  0.1043930E+01  0.7957747E-01            NaN
         13   -1    0    0    0    0  0.00000000000E+00  0.00000000000E+00  0.74505805969E-08  0.10566000000E+00  0.10566000000E+00 0. -1.
     999900   -1    0    0    0    0 -0.00000000000E+00 -0.00000000000E+00 -0.74505805969E-08  0.93827000000E+00  0.93827000000E+00 0.  1.
     999902    2    1    2    0    0  0.66508568052E-02 -0.10647932790E-01  0.19161015201E-01  0.10210224276E+01  0.10207654191E+01 0.  0.
     999903    2    3    3    0    0 -0.28648777108E-01  0.10938863460E+00 -0.58471424889E-01  0.12878835664E+00  0.19516850870E-01 0.  0.
         14    1    1    2    0    0 -0.66508568052E-02  0.10647932790E-01 -0.19161015201E-01  0.22907572383E-01  0.00000000000E+00 0.  1.
     999901    1    3    3    0    0  0.35299633913E-01 -0.12003656739E+00  0.77632440090E-01  0.89223407098E+00  0.88000000000E+00 0. -1.
        -11    1    4    4    0    0 -0.26453258933E-01  0.71117154544E-01 -0.32899843626E-01  0.82704808871E-01  0.51100000000E-03 0.  1.
         11    1    4    4    0    0 -0.21955181755E-02  0.38271480052E-01 -0.25571581262E-01  0.46083547766E-01  0.51100000000E-03 0. -1.
</event>
<event>
 8    1  0.1092667E+005  0.1043930E+01  0.7957747E-01            NaN
         13   -1    0    0    0    0  0.00000000000E+00  0.00000000000E+00  0.74505805969E-08  0.10566000000E+00  0.10566000000E+00 0. -1.
     999900   -1    0    0    0    0 -0.00000000000E+00 -0.00000000000E+00 -0.74505805969E-08  0.93827000000E+00  0.93827000000E+00 0.  1.
     999902    2    1    2    0    0 -0.38174792332E-03 -0.18920237906E-01 -0.14084759017E-01  0.10203397145E+01  0.10200669740E+01 0.  0.
     999903    2    3    3    0    0  0.42070050825E-01 -0.35400303880E-01 -0.11932435665E+00  0.13290007108E+00  0.20026385381E-01 0.  0.
         14    1    1    2    0    0  0.38174792332E-03  0.18920237906E-01  0.14084759017E-01  0.23590285510E-01  0.00000000000E+00 0. -1.
     999901    1    3    3    0    0 -0.42451798748E-01  0.16480065975E-01  0.10523959763E+00  0.88743964341E+00  0.88000000000E+00 0. -1.
        -11    1    4    4    0    0  0.34195762766E-01 -0.17599108773E-01 -0.87675630614E-01  0.95741089117E-01  0.51100000000E-03 0. -1.
         11    1    4    4    0    0  0.78742880590E-02 -0.17801195108E-01 -0.31648726034E-01  0.37158981960E-01  0.51100000000E-03 0.  1.
</event>
<event>
 8    1  0.1092667E+005  0.1043930E+01  0.7957747E-01            NaN
         13   -1    0    0    0    0  0.00000000000E+00  0.00000000000E+00  0.74505805969E-08  0.10566000000E+00  0.10566000000E+00 0.  1.
     999900   -1    0    0    0    0 -0.00000000000E+00 -0.00000000000E+00 -0.74505805969E-08  0.93827000000E+00  0.93827000000E+00 0. -1.
     999902    2    1    2    0    0 -0.26324477780E-03 -0.61962262627E-02 -0.22677735128E-01  0.10204195302E+01  0.10201486536E+01 0.  0.
     999903    2    3    3    0    0  0.76024935034E-01  0.91967309299E-01 -0.50739334898E-01  0.13123821045E+00  0.20278339394E-01 0.  0.
         14    1    1    2    0    0  0.26324477780E-03  0.61962262627E-02  0.22677735128E-01  0.23510469758E-01  0.00000000000E+00 0.  1.
     999901    1    3    3    0    0 -0.76288179812E-01 -0.98163535561E-01  0.28061599770E-01  0.88918131980E+00  0.88000000000E+00 0. -1.
        -11    1    4    4    0    0  0.56790663186E-01  0.61133424799E-01 -0.43788634289E-01  0.94234710520E-01  0.51100000000E-03 0.  1.
         11    1    4    4    0    0  0.19234271848E-01  0.30833884499E-01 -0.69507006085E-02  0.37003499926E-01  0.51100000000E-03 0. -1.
</event>
<event>
 7    1  0.1092667E+005  0.1043930E+01  0.7957747E-01            NaN
         13   -1    0    0    0    0  0.00000000000E+00  0.00000000000E+00  0.74505805969E-08  0.10566000000E+00  0.10566000000E+00 0.  1.
     999900   -1    0    0    0    0 -0.00000000000E+00 -0.00000000000E+00 -0.74505805969E-08  0.93827000000E+00  0.93827000000E+00 0.  1.
     999902    2    1    2    0    0  0.23193848404E-01  0.20458620721E-03 -0.52359713011E-02  0.10201516095E+01  0.10198744504E+01 0.  0.
         14    1    1    2    0    0 -0.23193848404E-01 -0.20458620721E-03  0.52359713011E-02  0.23778390500E-01  0.00000000000E+00 0.  1.
     999901    1    3    3    0    0 -0.81203844738E-01  0.55155345737E-01 -0.23542725270E-01  0.88577109711E+00  0.88000000000E+00 0. -1.
        -11    1    3    3    0    0  0.63668001007E-01 -0.41765995925E-01 -0.18000130392E-01  0.78244990785E-01  0.51100000000E-03 0.  1.
         11    1    3    3    0    0  0.40729692135E-01 -0.13184763605E-01  0.36306884361E-01  0.56135521604E-01  0.51100000000E-03 0. -1.
</event>
<event>
 8    1  0.1092667E+005  0.1043930E+01  0.7957747E-01            NaN
         13   -1    0    0    0    0  0.00000000000E+00  0.00000000000E+00  0.74505805969E-08  0.10566000000E+00  0.10566000000E+00 0. -1.
     999900   -1    0    0    0    0 -0.00000000000E+00 -0.00000000000E+00 -0.74505805969E-08  0.93827000000E+00  0.93827000000E+00 0. -1.
     999902    2    1    2    0    0 -0.37219342148E-02  0.10846751180E-01  0.20801169099E-01  0.10201772435E+01  0.10199006887E+01 0.  0.
     999903    2    3    3    0    0  0.31735033293E-01 -0.58864553166E-01  0.11220075262E+00  0.13199328374E+00  0.19001844817E-01 0.  0.
         14    1    1    2    0    0  0.37219342148E-02 -0.10846751180E-01 -0.20801169099E-01  0.23752756500E-01  0.00000000000E+00 0.  1.
     999901    1    3    3    0    0 -0.35456967508E-01  0.69711304347E-01 -0.91399583526E-01  0.88818395976E+00  0.88000000000E+00 0. -1.
        -11    1    4    4    0    0  0.14306551154E-01 -0.45055682576E-01  0.76980872320E-01  0.90338296212E-01  0.51100000000E-03 0.  1.
         11    1    4    4    0    0  0.17428482139E-01 -0.13808870591E-01  0.35219880305E-01  0.41654987533E-01  0.51100000000E-03 0. -1.
</event>
<event>
 8    1  0.1092667E+005  0.1043930E+01  0.7957747E-01            NaN
         13   -1    0    0    0    0  0.00000000000E+00  0.00000000000E+00  0.74505805969E-08  0.10566000000E+00  0.10566000000E+00 0. -1.
     999900   -1    0    0    0    0 -0.00000000000E+00 -0.00000000000E+00 -0.74505805969E-08  0.93827000000E+00  0.93827000000E+00 0. -1.
     999902    2    1    2    0    0 -0.99369642052E-02  0.71675592241E-02 -0.20368822917E-01  0.10201601428E+01  0.10198831849E+01 0.  0.
     999903    2    3    3    0    0  0.83249666669E-01 -0.84807611378E-01 -0.48949121617E-01  0.13001407973E+00  0.19616484712E-01 0.  0.
         14    1    1    2    0    0  0.99369642052E-02 -0.71675592241E-02  0.20368822917E-01  0.23769857170E-01  0.00000000000E+00 0. -1.
     999901    1    3    3    0    0 -0.93186630874E-01  0.91975170602E-01  0.28580298699E-01  0.89014606310E+00  0.88000000000E+00 0. -1.
        -11    1    4    4    0    0  0.35517791395E-01 -0.45916390979E-01 -0.31348025268E-01  0.65975664266E-01  0.51100000000E-03 0. -1.
         11    1    4    4    0    0  0.47731875274E-01 -0.38891220399E-01 -0.17601096348E-01  0.64038415462E-01  0.51100000000E-03 0.  1.
</event>
<event>
 8    1  0.1092667E+005  0.1043930E+01  0.7957747E-01            NaN
         13   -1    0    0    0    0  0.00000000000E+00  0.00000000000E+00  0.74505805969E-08  0.10566000000E+00  0.10566000000E+00 0. -1.
     999900   -1    0    0    0    0 -0.00000000000E+00 -0.00000000000E+00 -0.74505805969E-08  0.93827000000E+00  0.93827000000E+00 0.  1.
     999902    2    1    2    0    0  0.20732279376E-01 -0.13373771147E-01 -0.21597958499E-02  0.10191640984E+01  0.10188631457E+01 0.  0.
     999903    2    3    3    0    0 -0.49321829563E-01 -0.63960947117E-01 -0.99345667328E-01  0.12960705463E+00  0.20119179029E-01 0.  0.
         14    1    1    2    0    0 -0.20732279376E-01  0.13373771147E-01  0.21597958499E-02  0.24765901577E-01  0.00000000000E+00 0. -1.
     999901    1    3    3    0    0  0.70054108938E-01  0.50587175970E-01  0.97185871478E-01  0.88955704380E+00  0.88000000000E+00 0. -1.
        -11    1    4    4    0    0 -0.39309470838E-01 -0.39727671802E-01 -0.57233360390E-01  0.79996506592E-01  0.51100000000E-03 0.  1.
         11    1    4    4    0    0 -0.10012358724E-01 -0.24233275316E-01 -0.42112306938E-01  0.49610548036E-01  0.51100000000E-03 0. -1.
</event>
<event>
 8    1  0.1092667E+005  0.1043930E+01  0.7957747E-01            NaN
         13   -1    0    0    0    0  0.00000000000E+00  0.00000000000E+00  0.74505805969E-08  0.10566000000E+00  0.10566000000E+00 0.  1.
     999900   -1    0    0    0    0 -0.00000000000E+00 -0.00000000000E+00 -0.74505805969E-08  0.93827000000E+00  0.93827000000E+00 0.  1.
     999902    2    1    2    0    0  0.88854018561E-02  0.85207581400E-02  0.20525428531E-01  0.10199957797E+01  0.10197149326E+01 0.  0.
     999903    2    3    3    0    0  0.11120234050E+00 -0.11801709792E-01 -0.62791547539E-01  0.12992641322E+00  0.20805132090E-01 0.  0.
         14    1    1    2    0    0 -0.88854018561E-02 -0.85207581400E-02 -0.20525428531E-01  0.23934220309E-01  0.00000000000E+00 0. -1.
     999901    1    3    3    0    0 -0.10231693865E+00  0.20322467932E-01  0.83316976070E-01  0.89006936648E+00  0.88000000000E+00 0. -1.
        -11    1    4    4    0    0  0.42671331668E-01 -0.11019767078E-01 -0.33647543478E-01  0.55449942434E-01  0.51100000000E-03 0. -1.
         11    1    4    4    0    0  0.68531008836E-01 -0.78194271330E-03 -0.29144004061E-01  0.74476470782E-01  0.51100000000E-03 0.  1.
</event>
<event>
 8    1  0.1092667E+005  0.1043930E+01  0.7957747E-01            NaN
         13   -1    0    0    0    0  0.00000000000E+00  0.00000000000E+00  0.74505805969E-08  0.10566000000E+00  0.10566000000E+00 0. -1.
     999900   -1    0    0    0    0 -0.00000000000E+00 -0.00000000000E+00 -0.74505805969E-08  0.93827000000E+00  0.93827000000E+00 0.  1.
     999902    2    1    2    0    0  0.90562708693E-02 -0.10000347530E-01 -0.19407538466E-01  0.10202936817E+01  0.10200198632E+01 0.  0.
     999903    2    3    3    0    0 -0.73608901507E-01  0.23480376188E-01 -0.10481229253E+00  0.13167201779E+00  0.19552625317E-01 0.  0.
         14    1    1    2    0    0 -0.90562708693E-02  0.10000347530E-01  0.19407538466E-01  0.23636318285E-01  0.00000000000E+00 0. -1.
     999901    1    3    3    0    0  0.82665172376E-01 -0.33480723718E-01  0.85404754059E-01  0.88862166393E+00  0.88000000000E+00 0. -1.
        -11    1    4    4    0    0 -0.40564222662E-01  0.15682766149E-01 -0.43080723757E-01  0.61217768618E-01  0.51100000000E-03 0. -1.
         11    1    4    4    0    0 -0.33044678845E-01  0.77976100392E-02 -0.61731568769E-01  0.70454249169E-01  0.51100000000E-03 0.  1.
</event>
<event>
 8    1  0.1092667E+005  0.1043930E+01  0.7957747E-01            NaN
         13   -1    0    0    0    0  0.00000000000E+00  0.00000000000E+00  0.74505805969E-08  0.10566000000E+00  0.10566000000E+00 0. -1.
     999900   -1    0    0    0    0 -0.00000000000E+00 -0.00000000000E+00 -0.74505805969E-08  0.93827000000E+00  0.93827000000E+00 0.  1.
     999902    2    1    2    0    0 -0.19736232403E-01 -0.72316980053E-02 -0.10288578956E-01  0.10205276244E+01  0.10202592617E+01 0.  0.
     999903    2    3    3    0    0  0.13929884272E-01  0.13267963161E-02 -0.12885811470E+00  0.13189643544E+00  0.24422405557E-01 0.  0.
         14    1    1    2    0    0  0.19736232403E-01  0.72316980053E-02  0.10288578956E-01  0.23402375573E-01  0.00000000000E+00 0. -1.
     999901    1    3    3    0    0 -0.33666116675E-01 -0.85584943214E-02  0.11856953574E+00  0.88863118899E+00  0.88000000000E+00 0. -1.
        -11    1    4    4    0    0  0.27720840437E-02  0.10774078018E-01 -0.30769064766E-01  0.32722494933E-01  0.51100000000E-03 0. -1.
         11    1    4    4    0    0  0.11157800228E-01 -0.94472817019E-02 -0.98089049934E-01  0.99173940506E-01  0.51100000000E-03 0.  1.
</event>
<event>
 8    1  0.1092667E+005  0.1043930E+01  0.7957747E-01            NaN
         13   -1    0    0    0    0  0.00000000000E+00  0.00000000000E+00  0.74505805969E-08  0.10566000000E+00  0.10566000000E+00 0. -1.
     999900   -1    0    0    0    0 -0.00000000000E+00 -0.00000000000E+00 -0.74505805969E-08  0.93827000000E+00  0.93827000000E+00 0.  1.
     999902    2    1    2    0    0 -0.11221349422E-01  0.21100339686E-01  0.61458156654E-02  0.10192538158E+01  0.10189550662E+01 0.  0.
     999903    2    3    3    0    0  0.32896481822E-02  0.75711356092E-01  0.10506173655E+00  0.13191098937E+00  0.24889945836E-01 0.  0.
         14    1    1    2    0    0  0.11221349422E-01 -0.21100339686E-01 -0.61458156654E-02  0.24676184225E-01  0.00000000000E+00 0.  1.
     999901    1    3    3    0    0 -0.14510997605E-01 -0.54611016407E-01 -0.98915920885E-01  0.88734282640E+00  0.88000000000E+00 0.  1.
        -11    1    4    4    0    0  0.11480059566E-01  0.20275084433E-01  0.24922360846E-01  0.34121195870E-01  0.51100000000E-03 0.  1.
         11    1    4    4    0    0 -0.81904113840E-02  0.55436271659E-01  0.80139375703E-01  0.97789793502E-01  0.51100000000E-03 0. -1.
</event>
<event>
 8    1  0.1092667E+005  0.1043930E+01  0.7957747E-01            NaN
         13   -1    0    0    0    0  0.00000000000E+00  0.00000000000E+00  0.74505805969E-08  0.10566000000E+00  0.10566000000E+00 0.  1.
     999900   -1    0    0    0    0 -0.00000000000E+00 -0.00000000000E+00 -0.74505805969E-08  0.93827000000E+00  0.93827000000E+00 0.  1.
     999902    2    1    2    0    0  0.12009648464E-01  0.20179571697E-01  0.90681140044E-03  0.10204295941E+01  0.10201589521E+01 0.  0.
     999903    2    3    3    0    0  0.72961111581E-01  0.97958823549E-01 -0.49550034968E-01  0.13346252244E+00  0.20923288874E-01 0.  0.
         14    1    1    2    0    0 -0.12009648464E-01 -0.20179571697E-01 -0.90681140044E-03  0.23500405891E-01  0.00000000000E+00 0. -1.
     999901    1    3    3    0    0 -0.60951463117E-01 -0.77779251852E-01  0.50456846368E-01  0.88696707167E+00  0.88000000000E+00 0. -1.
        -11    1    4    4    0    0  0.27046965384E-01  0.50772790848E-01 -0.29408847761E-01  0.64610804627E-01  0.51100000000E-03 0. -1.
         11    1    4    4    0    0  0.45914146197E-01  0.47186032701E-01 -0.20141187207E-01  0.68851717816E-01  0.51100000000E-03 0.  1.
</event>
<event>
 8    1  0.1092667E+005  0.1043930E+01  0.7957747E-01            NaN
         13   -1    0    0    0    0  0.00000000000E+00  0.00000000000E+00  0.74505805969E-08  0.10566000000E+00  0.10566000000E+00 0. -1.
     999900   -1    0    0    0    0 -0.00000000000E+00 -0.00000000000E+00 -0.74505805969E-08  0.93827000000E+00  0.93827000000E+00 0. -1.
     999902    2    1    2    0    0  0.11293679105E-01 -0.35457277483E-02 -0.20657842280E-01  0.10201210559E+01  0.10198431756E+01 0.  0.
     999903    2    3    3    0    0 -0.10533661565E-01 -0.98074569325E-01 -0.86197525770E-01  0.13236681916E+00  0.19010054973E-01 0.  0.
         14    1    1    2    0    0 -0.11293679105E-01  0.35457277483E-02  0.20657842280E-01  0.23808944131E-01  0.00000000000E+00 0. -1.
     999901    1    3    3    0    0  0.21827340670E-01  0.94528841577E-01  0.65539683490E-01  0.88775423671E+00  0.88000000000E+00 0.  1.
        -11    1    4    4    0    0 -0.49157469578E-02 -0.82123171877E-01 -0.78728988773E-01  0.11387227372E+00  0.51100000000E-03 0.  1.
         11    1    4    4    0    0 -0.56179146072E-02 -0.15951397448E-01 -0.74685369970E-02  0.18494545438E-01  0.51100000000E-03 0. -1.
</event>
<event>
 8    1  0.1092667E+005  0.1043930E+01  0.7957747E-01            NaN
         13   -1    0    0    0    0  0.00000000000E+00  0.00000000000E+00  0.74505805969E-08  0.10566000000E+00  0.10566000000E+00 0.  1.
     999900   -1    0    0    0    0 -0.00000000000E+00 -0.00000000000E+00 -0.74505805969E-08  0.93827000000E+00  0.93827000000E+00 0.  1.
     999902    2    1    2    0    0  0.20140267804E-01  0.89410992178E-02  0.71885115522E-02  0.10207513818E+01  0.10204881847E+01 0.  0.
     999903    2    3    3    0    0  0.16565753178E-01 -0.12363761105E+00  0.32699176216E-01  0.13044767769E+00  0.19664115651E-01 0.  0.
         14    1    1    2    0    0 -0.20140267804E-01 -0.89410992178E-02 -0.71885115522E-02  0.23178618181E-01  0.00000000000E+00 0.  1.
     999901    1    3    3    0    0  0.35745146265E-02  0.13257871027E+00 -0.25510664664E-01  0.89030370413E+00  0.88000000000E+00 0.  1.
        -11    1    4    4    0    0 -0.19826279622E-02 -0.30078432255E-01  0.18631536030E-02  0.30205551855E-01  0.51100000000E-03 0.  1.
         11    1    4    4    0    0  0.18548381140E-01 -0.93559178799E-01  0.30836022613E-01  0.10024212584E+00  0.51100000000E-03 0. -1.
</event>
<event>
 8    1  0.1092667E+005  0.1043930E+01  0.7957747E-01            NaN
         13   -1    0    0    0    0  0.00000000000E+00  0.00000000000E+00  0.74505805969E-08  0.10566000000E+00  0.10566000000E+00 0. -1.
     999900   -1    0    0    0    0 -0.00000000000E+00 -0.00000000000E+00 -0.74505805969E-08  0.93827000000E+00  0.93827000000E+00 0.  1.
     999902    2    1    2    0    0 -0.17001966619E-01  0.15436913768E-02 -0.17387881124E-01  0.10195622290E+01  0.10192709898E+01 0.  0.
     999903    2    3    3    0    0 -0.79978639320E-01 -0.84546872844E-01 -0.59735864981E-01  0.13211025946E+00  0.18438834985E-01 0.  0.
         14    1    1    2    0    0  0.17001966619E-01 -0.15436913768E-02  0.17387881124E-01  0.24367770968E-01  0.00000000000E+00 0. -1.
     999901    1    3    3    0    0  0.62976672701E-01  0.86090564220E-01  0.42347983857E-01  0.88745196957E+00  0.88000000000E+00 0. -1.
        -11    1    4    4    0    0 -0.62535222310E-01 -0.74029430308E-01 -0.44330831274E-01  0.10656685368E+00  0.51100000000E-03 0.  1.
         11    1    4    4    0    0 -0.17443417009E-01 -0.10517442535E-01 -0.15405033708E-01  0.25543405783E-01  0.51100000000E-03 0. -1.
</event>
<event>
 8    1  0.1092667E+005  0.1043930E+01  0.7957747E-01            NaN
         13   -1    0    0    0    0  0.00000000000E+00  0.00000000000E+00  0.74505805969E-08  0.10566000000E+00  0.10566000000E+00 0. -1.
     999900   -1    0    0    0    0 -0.00000000000E+00 -0.00000000000E+00 -0.74505805969E-08  0.93827000000E+00  0.93827000000E+00 0. -1.
     999902    2    1    2    0    0  0.17832583642E-01  0.13015047977E-01 -0.72141114877E-02  0.10207042402E+01  0.10204399591E+01 0.  0.
     999903    2    3    3    0    0  0.73573365054E-01 -0.31230705829E-02  0.10683949462E+00  0.13144854096E+00  0.21005896697E-01 0.  0.
         14    1    1    2    0    0 -0.17832583642E-01 -0.13015047977E-01  0.72141114877E-02  0.23225759788E-01  0.00000000000E+00 0. -1.
     999901    1    3    3    0    0 -0.55740781412E-01  0.16138118560E-01 -0.11405360610E+00  0.88925569925E+00  0.88000000000E+00 0. -1.
        -11    1    4    4    0    0  0.36815751183E-01  0.44554299601E-02  0.38360637224E-01  0.53357754830E-01  0.51100000000E-03 0.  1.
         11    1    4    4    0    0  0.36757613871E-01 -0.75785005430E-02  0.68478857392E-01  0.78090786131E-01  0.51100000000E-03 0. -1.
</event>
<event>
 8    1  0.1092667E+005  0.1043930E+01  0.7957747E-01            NaN
         13   -1    0    0    0    0  0.00000000000E+00  0.00000000000E+00  0.74505805969E-08  0.10566000000E+00  0.10566000000E+00 0. -1.
     999900   -1    0    0    0    0 -0.00000000000E+00 -0.00000000000E+00 -0.74505805969E-08  0.93827000000E+00  0.93827000000E+00 0. -1.
     999902    2    1    2    0    0 -0.22273495924E-01  0.29065034399E-02  0.39989288436E-02  0.10211144830E+01  0.10208595592E+01 0.  0.
     999903    2    3    3    0    0  0.54683039198E-01 -0.11601998274E+00  0.33807260345E-02  0.12978614869E+00  0.19548501547E-01 0.  0.
         14    1    1    2    0    0  0.22273495924E-01 -0.29065034399E-02 -0.39989288436E-02  0.22815516975E-01  0.00000000000E+00 0.  1.
     999901    1    3    3    0    0 -0.76956535122E-01  0.11892648618E+00  0.61820280912E-03  0.89132833433E+00  0.88000000000E+00 0.  1.
        -11    1    4    4    0    0  0.22422913085E-01 -0.49455422687E-01 -0.81805985293E-02  0.54916383509E-01  0.51100000000E-03 0. -1.
         11    1    4    4    0    0  0.32260126113E-01 -0.66564560052E-01  0.11561324564E-01  0.74869765182E-01  0.51100000000E-03 0.  1.
</event>
<event>
 8    1  0.1092667E+005  0.1043930E+01  0.7957747E-01            NaN
         13   -1    0    0    0    0  0.00000000000E+00  0.00000000000E+00  0.74505805969E-08  0.10566000000E+00  0.10566000000E+00 0. -1.
     999900   -1    0    0    0    0 -0.00000000000E+00 -0.00000000000E+00 -0.74505805969E-08  0.93827000000E+00  0.93827000000E+00 0. -1.
     999902    2    1    2    0    0  0.99906779748E-02 -0.20978909815E-01 -0.58045244698E-02  0.10199796178E+01  0.10196983867E+01 0.  0.
     999903    2    3    3    0    0 -0.71902217864E-01 -0.69368924753E-01 -0.83067122428E-01  0.13148789078E+00  0.20172801930E-01 0.  0.
         14    1    1    2    0    0 -0.99906779748E-02  0.20978909815E-01  0.58045244698E-02  0.23950382205E-01  0.00000000000E+00 0. -1.
     999901    1    3    3    0    0  0.81892895839E-01  0.48390014938E-01  0.77262597958E-01  0.88849172702E+00  0.88000000000E+00 0. -1.
        -11    1    4    4    0    0 -0.38934809676E-01 -0.43986298334E-01 -0.59743271617E-01  0.83786833513E-01  0.51100000000E-03 0. -1.
         11    1    4    4    0    0 -0.32967408188E-01 -0.25382626420E-01 -0.23323850811E-01  0.47701057265E-01  0.51100000000E-03 0.  1.
</event>
<event>
 8    1  0.1092667E+005  0.1043930E+01  0.7957747E-01            NaN
         13   -1    0    0    0    0  0.00000000000E+00  0.00000000000E+00  0.74505805969E-08  0.10566000000E+00  0.10566000000E+00 0.  1.
     999900   -1    0    0    0    0 -0.00000000000E+00 -0.00000000000E+00 -0.74505805969E-08  0.93827000000E+00  0.93827000000E+00 0. -1.
     999902    2    1    2    0    0  0.10013096864E-02 -0.11571411203E-01  0.18703858642E-01  0.10219133130E+01  0.10216761154E+01 0.  0.
     999903    2    3    3    0    0 -0.14496639777E-01 -0.79025762851E-01  0.10646010101E+00  0.13484429986E+00  0.19849643299E-01 0.  0.
         14    1    1    2    0    0 -0.10013096864E-02  0.11571411203E-01 -0.18703858642E-01  0.22016686999E-01  0.00000000000E+00 0. -1.
     999901    1    3    3    0    0  0.15497949463E-01  0.67454351649E-01 -0.87756242370E-01  0.88706901314E+00  0.88000000000E+00 0. -1.
        -11    1    4    4    0    0 -0.13007141107E-01 -0.28300279427E-01  0.31337943721E-01  0.44186189846E-01  0.51100000000E-03 0.  1.
         11    1    4    4    0    0 -0.14894986700E-02 -0.50725483424E-01  0.75122157291E-01  0.90658110018E-01  0.51100000000E-03 0. -1.
</event>
<event>
 8    1  0.1092667E+005  0.1043930E+01  0.7957747E-01            NaN
         13   -1    0    0    0    0  0.00000000000E+00  0.00000000000E+00  0.74505805969E-08  0.10566000000E+00  0.10566000000E+00 0.  1.
     999900   -1    0    0    0    0 -0.00000000000E+00 -0.00000000000E+00 -0.74505805969E-08  0.93827000000E+00  0.93827000000E+00 0. -1.
     999902    2    1    2    0    0  0.13391814502E-01  0.78501316141E-02 -0.10657761021E-02  0.10283704004E+01  0.10282526826E+01 0.  0.
     999903    2    3    3    0    0  0.93548133956E-01 -0.23162933156E-01 -0.97882564064E-01  0.13889845805E+00  0.20591514333E-01 0.  0.
         14    1    1    2    0    0 -0.13391814502E-01 -0.78501316141E-02  0.10657761021E-02  0.15559599632E-01  0.00000000000E+00 0.  1.
     999901    1    3    3    0    0 -0.80156319455E-01  0.31013064770E-01  0.96816787962E-01  0.88947194232E+00  0.88000000000E+00 0.  1.
        -11    1    4    4    0    0  0.31785240147E-01 -0.17984617127E-01 -0.34331391514E-01  0.50126375380E-01  0.51100000000E-03 0.  1.
         11    1    4    4    0    0  0.61762893809E-01 -0.51783160289E-02 -0.63551172550E-01  0.88772082673E-01  0.51100000000E-03 0. -1.
</event>
<event>
 8    1  0.1092667E+005  0.1043930E+01  0.7957747E-01            NaN
         13   -1    0    0    0    0  0.00000000000E+00  0.00000000000E+00  0.74505805969E-08  0.10566000000E+00  0.10566000000E+00 0.  1.
     999900   -1    0    0    0    0 -0.00000000000E+00 -0.00000000000E+00 -0.74505805969E-08  0.93827000000E+00  0.93827000000E+00 0. -1.
     999902    2    1    2    0    0 -0.24498820329E-01  0.32171694942E-02  0.54527870955E-02  0.10186263389E+01  0.10183120067E+01 0.  0.
     999903    2    3    3    0    0  0.60259346209E-01 -0.23336124932E-01 -0.10759068467E+00  0.12696056591E+00  0.19169411482E-01 0.  0.
         14    1    1    2    0    0  0.24498820329E-01 -0.32171694942E-02 -0.54527870955E-02  0.25303661082E-01  0.00000000000E+00 0. -1.
     999901    1    3    3    0    0 -0.84758166538E-01  0.26553294426E-01  0.11304347177E+00  0.89166577301E+00  0.88000000000E+00 0. -1.
        -11    1    4    4    0    0  0.19232379920E-01 -0.15098414581E-01 -0.51166760211E-01  0.56711066220E-01  0.51100000000E-03 0. -1.
         11    1    4    4    0    0  0.41026966289E-01 -0.82377103505E-02 -0.56423924460E-01  0.70249499693E-01  0.51100000000E-03 0.  1.
</event>
<event>
 7    1  0.1092667E+005  0.1043930E+01  0.7957747E-01            NaN
         13   -1    0    0    0    0  0.00000000000E+00  0.00000000000E+00  0.74505805969E-08  0.10566000000E+00  0.10566000000E+00 0.  1.
     999900   -1    0    0    0    0 -0.00000000000E+00 -0.00000000000E+00 -0.74505805969E-08  0.93827000000E+00  0.93827000000E+00 0. -1.
     999902    2    1    2    0    0  0.22485288449E-01 -0.62163031841E-02 -0.45520222768E-03  0.10205968084E+01  0.10203300483E+01 0.  0.
         14    1    1    2    0    0 -0.22485288449E-01  0.62163031841E-02  0.45520222768E-03  0.23333191615E-01  0.00000000000E+00 0.  1.
     999901    1    3    3    0    0  0.69344011242E-01  0.43841811809E-01  0.95295079849E-01  0.88893860789E+00  0.88000000000E+00 0.  1.
        -11    1    3    3    0    0  0.25958463359E-02 -0.49097041276E-02 -0.50570180010E-01  0.50876790780E-01  0.51100000000E-03 0. -1.
         11    1    3    3    0    0 -0.49454569129E-01 -0.45148410865E-01 -0.45180102066E-01  0.80781409713E-01  0.51100000000E-03 0.  1.
</event>
<event>
 8    1  0.1092667E+005  0.1043930E+01  0.7957747E-01            NaN
         13   -1    0    0    0    0  0.00000000000E+00  0.00000000000E+00  0.74505805969E-08  0.10566000000E+00  0.10566000000E+00 0. -1.
     999900   -1    0    0    0    0 -0.00000000000E+00 -0.00000000000E+00 -0.74505805969E-08  0.93827000000E+00  0.93827000000E+00 0.  1.
     999902    2    1    2    0    0 -0.23399348666E-01 -0.14276696031E-03  0.10502557563E-01  0.10182813428E+01  0.10179582700E+01 0.  0.
     999903    2    3    3    0    0  0.11050227187E+00 -0.43095919823E-01 -0.36330395920E-01  0.12588684324E+00  0.21438032557E-01 0.  0.
         14    1    1    2    0    0  0.23399348666E-01  0.14276696031E-03 -0.10502557563E-01  0.25648657192E-01  0.00000000000E+00 0.  1.
     999901    1    3    3    0    0 -0.13390162054E+00  0.42953152863E-01  0.46832953483E-01  0.89239449957E+00  0.88000000000E+00 0. -1.
        -11    1    4    4    0    0  0.75731678257E-01 -0.38796842809E-01 -0.21029460941E-01  0.87652618055E-01  0.51100000000E-03 0.  1.
         11    1    4    4    0    0  0.34770593614E-01 -0.42990770147E-02 -0.15300934979E-01  0.38234225187E-01  0.51100000000E-03 0. -1.
</event>
<event>
 8    1  0.1092667E+005  0.1043930E+01  0.7957747E-01            NaN
         13   -1    0    0    0    0  0.00000000000E+00  0.00000000000E+00  0.74505805969E-08  0.10566000000E+00  0.10566000000E+00 0. -1.
     999900   -1    0    0    0    0 -0.00000000000E+00 -0.00000000000E+00 -0.74505805969E-08  0.93827000000E+00  0.93827000000E+00 0. -1.
     999902    2    1    2    0    0 -0.23403804806E-01  0.97332343744E-02 -0.63010653898E-02  0.10178114749E+01  0.10174763000E+01 0.  0.
     999903    2    3    3    0    0  0.28957402402E-02 -0.12504724753E+00  0.66313998867E-02  0.12706757618E+00  0.21377418596E-01 0.  0.
         14    1    1    2    0    0  0.23403804806E-01 -0.97332343744E-02  0.63010653898E-02  0.26118525146E-01  0.00000000000E+00 0.  1.
     999901    1    3    3    0    0 -0.26299545046E-01  0.13478048190E+00 -0.12932465276E-01  0.89074389868E+00  0.88000000000E+00 0.  1.
        -11    1    4    4    0    0  0.74374332171E-02 -0.69687223419E-01 -0.51847521235E-02  0.70276363710E-01  0.51100000000E-03 0.  1.
         11    1    4    4    0    0 -0.45416929769E-02 -0.55360024107E-01  0.11816152010E-01  0.56791212468E-01  0.51100000000E-03 0. -1.
</event>
<event>
 8    1  0.1092667E+005  0.1043930E+01  0.7957747E-01            NaN
         13   -1    0    0    0    0  0.00000000000E+00  0.00000000000E+00  0.74505805969E-08  0.10566000000E+00  0.10566000000E+00 0.  1.
     999900   -1    0    0    0    0 -0.00000000000E+00 -0.00000000000E+00 -0.74505805969E-08  0.93827000000E+00  0.93827000000E+00 0.  1.
     999902    2    1    2    0    0  0.77788101863E-02 -0.19344445253E-01 -0.85524721685E-02  0.10213942011E+01  0.10211455586E+01 0.  0.
     999903    2    3    3    0    0 -0.38712404585E-01  0.75756999616E-01 -0.97083481239E-01  0.13063976953E+00  0.20094123362E-01 0.  0.
         14    1    1    2    0    0 -0.77788101863E-02  0.19344445253E-01  0.85524721685E-02  0.22535798860E-01  0.00000000000E+00 0. -1.
     999901    1    3    3    0    0  0.46491214771E-01 -0.95101444868E-01  0.88531009071E-01  0.89075443161E+00  0.88000000000E+00 0. -1.
        -11    1    4    4    0    0 -0.18305206626E-01  0.39528869319E-01 -0.34835090916E-01  0.55779537282E-01  0.51100000000E-03 0.  1.
         11    1    4    4    0    0 -0.20407197959E-01  0.36228130296E-01 -0.62248390323E-01  0.74860232248E-01  0.51100000000E-03 0. -1.
</event>
<event>
 8    1  0.1092667E+005  0.1043930E+01  0.7957747E-01            NaN
         13   -1    0    0    0    0  0.00000000000E+00  0.00000000000E+00  0.74505805969E-08  0.10566000000E+00  0.10566000000E+00 0. -1.
     999900   -1    0    0    0    0 -0.00000000000E+00 -0.00000000000E+00 -0.74505805969E-08  0.93827000000E+00  0.93827000000E+00 0.  1.
     999902    2    1    2    0    0 -0.80939740647E-02 -0.11317770792E-01  0.19835403903E-01  0.10197009348E+01  0.10194130413E+01 0.  0.
     999903    2    3    3    0    0  0.56487124165E-01  0.10794400806E+00  0.37972945327E-01  0.12912636716E+00  0.19722323558E-01 0.  0.
         14    1    1    2    0    0  0.80939740647E-02  0.11317770792E-01 -0.19835403903E-01  0.24229065187E-01  0.00000000000E+00 0.  1.
     999901    1    3    3    0    0 -0.64581098230E-01 -0.11926177885E+00 -0.18137541425E-01  0.89057456765E+00  0.88000000000E+00 0.  1.
        -11    1    4    4    0    0  0.49828293571E-01  0.83264686494E-01  0.35940529812E-01  0.10347874014E+00  0.51100000000E-03 0.  1.
         11    1    4    4    0    0  0.66588305942E-02  0.24679321565E-01  0.20324155155E-02  0.25647627017E-01  0.51100000000E-03 0. -1.
</event>
<event>
 8    1  0.1092667E+005  0.1043930E+01  0.7957747E-01            NaN
         13   -1    0    0    0    0  0.00000000000E+00  0.00000000000E+00  0.74505805969E-08  0.10566000000E+00  0.10566000000E+00 0. -1.
     999900   -1    0    0    0    0 -0.00000000000E+00 -0.00000000000E+00 -0.74505805969E-08  0.93827000000E+00  0.93827000000E+00 0. -1.
     999902    2    1    2    0    0  0.21948868088E-01 -0.10151329495E-01 -0.10519375421E-01  0.10175584327E+01  0.10172166458E+01 0.  0.
     999903    2    3    3    0    0  0.77569787126E-01  0.97940011548E-01 -0.25739424183E-01  0.12907147474E+00  0.19687810875E-01 0.  0.
         14    1    1    2    0    0 -0.21948868088E-01  0.10151329495E-01  0.10519375421E-01  0.26371567267E-01  0.00000000000E+00 0.  1.
     999901    1    3    3    0    0 -0.55620919039E-01 -0.10809134104E+00  0.15220048762E-01  0.88848695800E+00  0.88000000000E+00 0. -1.
        -11    1    4    4    0    0  0.49615440202E-01  0.47778502776E-01 -0.10705521994E-01  0.69709013449E-01  0.51100000000E-03 0.  1.
         11    1    4    4    0    0  0.27954346925E-01  0.50161508772E-01 -0.15033902189E-01  0.59362461289E-01  0.51100000000E-03 0. -1.
</event>
<event>
 8    1  0.1092667E+005  0.1043930E+01  0.7957747E-01            NaN
         13   -1    0    0    0    0  0.00000000000E+00  0.00000000000E+00  0.74505805969E-08  0.10566000000E+00  0.10566000000E+00 0. -1.
     999900   -1    0    0    0    0 -0.00000000000E+00 -0.00000000000E+00 -0.74505805969E-08  0.93827000000E+00  0.93827000000E+00 0. -1.
     999902    2    1    2    0    0 -0.15425834979E-01  0.10389511486E-01  0.15638142455E-01  0.10196308265E+01  0.10193412444E+01 0.  0.
     999903    2    3    3    0    0  0.40248133099E-01 -0.18402016813E-01  0.12163179786E+00  0.13105713917E+00  0.20570197746E-01 0.  0.
         14    1    1    2    0    0  0.15425834979E-01 -0.10389511486E-01 -0.15638142455E-01  0.24299173507E-01  0.00000000000E+00 0.  1.
     999901    1    3    3    0    0 -0.55673968078E-01  0.28791528299E-01 -0.10599365540E+00  0.88857368733E+00  0.88000000000E+00 0. -1.
        -11    1    4    4    0    0  0.32652556669E-01 -0.45171489996E-02  0.82280677186E-01  0.88639523077E-01  0.51100000000E-03 0. -1.
         11    1    4    4    0    0  0.75955764304E-02 -0.13884867814E-01  0.39351120672E-01  0.42417616089E-01  0.51100000000E-03 0.  1.
</event>
<event>
 8    1  0.1092667E+005  0.1043930E+01  0.7957747E-01            NaN
         13   -1    0    0    0    0  0.00000000000E+00  0.00000000000E+00  0.74505805969E-08  0.10566000000E+00  0.10566000000E+00 0. -1.
     999900   -1    0    0    0    0 -0.00000000000E+00 -0.00000000000E+00 -0.74505805969E-08  0.93827000000E+00  0.93827000000E+00 0. -1.
     999902    2    1    2    0    0 -0.14956027918E-01 -0.35417042077E-02  0.17541428415E-01  0.10206077327E+01  0.10203412253E+01 0.  0.
     999903    2    3    3    0    0  0.67050132730E-02 -0.11100292265E+00 -0.64443923711E-01  0.13002437777E+00  0.19665031692E-01 0.  0.
         14    1    1    2    0    0  0.14956027918E-01  0.35417042077E-02 -0.17541428415E-01  0.23322267270E-01  0.00000000000E+00 0.  1.
     999901    1    3    3    0    0 -0.21661041191E-01  0.10746121844E+00  0.81985352126E-01  0.89058335496E+00  0.88000000000E+00 0.  1.
        -11    1    4    4    0    0  0.83489294355E-03 -0.24401640838E-01 -0.24081741322E-01  0.34297645807E-01  0.51100000000E-03 0.  1.
         11    1    4    4    0    0  0.58701203294E-02 -0.86601281808E-01 -0.40362182389E-01  0.95726731960E-01  0.51100000000E-03 0. -1.
</event>
<event>
 8    1  0.1092667E+005  0.1043930E+01  0.7957747E-01            NaN
         13   -1    0    0    0    0  0.00000000000E+00  0.00000000000E+00  0.74505805969E-08  0.10566000000E+00  0.10566000000E+00 0. -1.
     999900   -1    0    0    0    0 -0.00000000000E+00 -0.00000000000E+00 -0.74505805969E-08  0.93827000000E+00  0.93827000000E+00 0. -1.
     999902    2    1    2    0    0  0.53170671178E-02  0.18558682445E-01 -0.13724819770E-01  0.10202431561E+01  0.10199681519E+01 0.  0.
     999903    2    3    3    0    0  0.29835766531E-01 -0.92404780809E-01  0.80845261728E-01  0.12791050673E+00  0.19907910658E-01 0.  0.
         14    1    1    2    0    0 -0.53170671178E-02 -0.18558682445E-01  0.13724819770E-01  0.23686843913E-01  0.00000000000E+00 0. -1.
     999901    1    3    3    0    0 -0.24518699413E-01  0.11096346325E+00 -0.94570081497E-01  0.89233264936E+00  0.88000000000E+00 0. -1.
        -11    1    4    4    0    0  0.12438498898E-01 -0.52950571400E-01  0.33557018305E-01  0.63912548572E-01  0.51100000000E-03 0.  1.
         11    1    4    4    0    0  0.17397267633E-01 -0.39454209409E-01  0.47288243422E-01  0.63997958156E-01  0.51100000000E-03 0. -1.
</event>
<event>
 8    1  0.1092667E+005  0.1043930E+01  0.7957747E-01            NaN
         13   -1    0    0    0    0  0.00000000000E+00  0.00000000000E+00  0.74505805969E-08  0.10566000000E+00  0.10566000000E+00 0.  1.
     999900   -1    0    0    0    0 -0.00000000000E+00 -0.00000000000E+00 -0.74505805969E-08  0.93827000000E+00  0.93827000000E+00 0. -1.
     999902    2    1    2    0    0  0.19818831474E-01  0.64080795014E-02 -0.10701617894E-01  0.10205126093E+01  0.10202438980E+01 0.  0.
     999903    2    3    3    0    0 -0.22342065078E-01 -0.12277579404E+00 -0.19811193675E-01  0.13003577140E+00  0.30720595277E-01 0.  0.
         14    1    1    2    0    0 -0.19818831474E-01 -0.64080795014E-02  0.10701617894E-01  0.23417390748E-01  0.00000000000E+00 0. -1.
     999901    1    3    3    0    0  0.42160896552E-01  0.12918387354E+00  0.91095757813E-02  0.89047683785E+00  0.88000000000E+00 0. -1.
        -11    1    4    4    0    0 -0.21545421823E-01 -0.43281589777E-01 -0.13937998243E-01  0.50319281903E-01  0.51100000000E-03 0. -1.
         11    1    4    4    0    0 -0.79664325463E-03 -0.79494204264E-01 -0.58731954317E-02  0.79716489496E-01  0.51100000000E-03 0.  1.
</event>
<event>
 8    1  0.1092667E+005  0.1043930E+01  0.7957747E-01            NaN
         13   -1    0    0    0    0  0.00000000000E+00  0.00000000000E+00  0.74505805969E-08  0.10566000000E+00  0.10566000000E+00 0. -1.
     999900   -1    0    0    0    0 -0.00000000000E+00 -0.00000000000E+00 -0.74505805969E-08  0.93827000000E+00  0.93827000000E+00 0. -1.
     999902    2    1    2    0    0  0.18885456919E-01 -0.65878281980E-02 -0.96759790478E-02  0.10217109871E+01  0.10214693616E+01 0.  0.
     999903    2    3    3    0    0  0.72255443650E-01 -0.72498463440E-01 -0.84838340186E-01  0.13444442747E+00  0.20022082146E-01 0.  0.
         14    1    1    2    0    0 -0.18885456919E-01  0.65878281980E-02  0.96759790478E-02  0.22219012893E-01  0.00000000000E+00 0. -1.
     999901    1    3    3    0    0 -0.53369986731E-01  0.65910635242E-01  0.75162361138E-01  0.88726655964E+00  0.88000000000E+00 0.  1.
        -11    1    4    4    0    0  0.38348750188E-02 -0.10172454686E-01 -0.14832991343E-01  0.18397387150E-01  0.51100000000E-03 0.  1.
         11    1    4    4    0    0  0.68420568631E-01 -0.62326008754E-01 -0.70005348842E-01  0.11604704032E+00  0.51100000000E-03 0. -1.
</event>
<event>
 8    1  0.1092667E+005  0.1043930E+01  0.7957747E-01            NaN
         13   -1    0    0    0    0  0.00000000000E+00  0.00000000000E+00  0.74505805969E-08  0.10566000000E+00  0.10566000000E+00 0. -1.
     999900   -1    0    0    0    0 -0.00000000000E+00 -0.00000000000E+00 -0.74505805969E-08  0.93827000000E+00  0.93827000000E+00 0. -1.
     999902    2    1    2    0    0  0.34787162986E-02  0.73053171528E-02  0.22346486076E-01  0.10201637515E+01  0.10198868787E+01 0.  0.
     999903    2    3    3    0    0 -0.95997859666E-02  0.70523697283E-02 -0.12558101936E+00  0.12772122787E+00  0.20005694569E-01 0.  0.
         14    1    1    2    0    0 -0.34787162986E-02 -0.73053171528E-02 -0.22346486076E-01  0.23766248457E-01  0.00000000000E+00 0.  1.
     999901    1    3    3    0    0  0.13078502265E-01  0.25294742452E-03  0.14792750543E+00  0.89244252368E+00  0.88000000000E+00 0.  1.
        -11    1    4    4    0    0  0.53369496668E-03 -0.58931198394E-02 -0.51200739237E-01  0.51544063783E-01  0.51100000000E-03 0. -1.
         11    1    4    4    0    0 -0.10133480933E-01  0.12945489568E-01 -0.74380280120E-01  0.76177164083E-01  0.51100000000E-03 0.  1.
</event>
<event>
 8    1  0.1092667E+005  0.1043930E+01  0.7957747E-01            NaN
         13   -1    0    0    0    0  0.00000000000E+00  0.00000000000E+00  0.74505805969E-08  0.10566000000E+00  0.10566000000E+00 0.  1.
     999900   -1    0    0    0    0 -0.00000000000E+00 -0.00000000000E+00 -0.74505805969E-08  0.93827000000E+00  0.93827000000E+00 0. -1.
     999902    2    1    2    0    0 -0.21205641279E-01 -0.58715232121E-02 -0.76618361498E-02  0.10206306923E+01  0.10203647153E+01 0.  0.
     999903    2    3    3    0    0 -0.12003111344E+00 -0.34516249116E-01  0.41956489994E-01  0.13324747599E+00  0.19892288907E-01 0.  0.
         14    1    1    2    0    0  0.21205641279E-01  0.58715232121E-02  0.76618361498E-02  0.23299307717E-01  0.00000000000E+00 0.  1.
     999901    1    3    3    0    0  0.98825472162E-01  0.28644725904E-01 -0.49618326143E-01  0.88738321629E+00  0.88000000000E+00 0. -1.
        -11    1    4    4    0    0 -0.10021192136E+00 -0.32707528381E-01  0.28440893693E-01  0.10918496761E+00  0.51100000000E-03 0. -1.
         11    1    4    4    0    0 -0.19819192078E-01 -0.18087207348E-02  0.13515596301E-01  0.24062508383E-01  0.51100000000E-03 0.  1.
</event>
<event>
 8    1  0.1092667E+005  0.1043930E+01  0.7957747E-01            NaN
         13   -1    0    0    0    0  0.00000000000E+00  0.00000000000E+00  0.74505805969E-08  0.10566000000E+00  0.10566000000E+00 0.  1.
     999900   -1    0    0    0    0 -0.00000000000E+00 -0.00000000000E+00 -0.74505805969E-08  0.93827000000E+00  0.93827000000E+00 0.  1.
     999902    2    1    2    0    0 -0.14555160233E-01  0.14102643268E-01 -0.12035976009E-01  0.10203587897E+01  0.10200864952E+01 0.  0.
     999903    2    3    3    0    0  0.75860774587E-01  0.38887562148E-01 -0.97711622929E-01  0.13124144652E+00  0.20239970789E-01 0.  0.
         14    1    1    2    0    0  0.14555160233E-01 -0.14102643268E-01  0.12035976009E-01  0.23571210301E-01  0.00000000000E+00 0.  1.
     999901    1    3    3    0    0 -0.90415934820E-01 -0.24784918879E-01  0.85675646920E-01  0.88911734318E+00  0.88000000000E+00 0. -1.
        -11    1    4    4    0    0  0.34807939434E-01  0.10233238302E-01 -0.52257826198E-01  0.63619598661E-01  0.51100000000E-03 0. -1.
         11    1    4    4    0    0  0.41052835153E-01  0.28654323846E-01 -0.45453796731E-01  0.67621847855E-01  0.51100000000E-03 0.  1.
</event>
<event>
 8    1  0.1092667E+005  0.1043930E+01  0.7957747E-01            NaN
         13   -1    0    0    0    0  0.00000000000E+00  0.00000000000E+00  0.74505805969E-08  0.10566000000E+00  0.10566000000E+00 0. -1.
     999900   -1    0    0    0    0 -0.00000000000E+00 -0.00000000000E+00 -0.74505805969E-08  0.93827000000E+00  0.93827000000E+00 0. -1.
     999902    2    1    2    0    0 -0.16465676251E-01 -0.16138978669E-01 -0.54044936639E-02  0.10202489173E+01  0.10199740485E+01 0.  0.
     999903    2    3    3    0    0 -0.48217561943E-02 -0.13079800894E+00  0.54740915975E-02  0.13266758709E+00  0.20960785009E-01 0.  0.
         14    1    1    2    0    0  0.16465676251E-01  0.16138978669E-01  0.54044936639E-02  0.23681082717E-01  0.00000000000E+00 0. -1.
     999901    1    3    3    0    0 -0.11643920056E-01  0.11465903027E+00 -0.10878585261E-01  0.88758133020E+00  0.88000000000E+00 0.  1.
        -11    1    4    4    0    0 -0.40354465165E-02 -0.74843943550E-01 -0.71651881420E-02  0.75296093901E-01  0.51100000000E-03 0. -1.
         11    1    4    4    0    0 -0.78630967780E-03 -0.55954065393E-01  0.12639279739E-01  0.57371493185E-01  0.51100000000E-03 0.  1.
</event>
<event>
 8    1  0.1092667E+005  0.1043930E+01  0.7957747E-01            NaN
         13   -1    0    0    0    0  0.00000000000E+00  0.00000000000E+00  0.74505805969E-08  0.10566000000E+00  0.10566000000E+00 0. -1.
     999900   -1    0    0    0    0 -0.00000000000E+00 -0.00000000000E+00 -0.74505805969E-08  0.93827000000E+00  0.93827000000E+00 0.  1.
     999902    2    1    2    0    0  0.14694010066E-01  0.19041188023E-01  0.26767170381E-02  0.10197298846E+01  0.10194426869E+01 0.  0.
     999903    2    3    3    0    0 -0.97195746146E-01 -0.76334770184E-01  0.23063498324E-01  0.12729976864E+00  0.19982390582E-01 0.  0.
         14    1    1    2    0    0 -0.14694010066E-01 -0.19041188023E-01 -0.26767170381E-02  0.24200115439E-01  0.00000000000E+00 0.  1.
     999901    1    3    3    0    0  0.11188975621E+00  0.95375958207E-01 -0.20386781286E-01  0.89243011592E+00  0.88000000000E+00 0. -1.
        -11    1    4    4    0    0 -0.49418302713E-01 -0.39614973536E-01  0.21934285669E-01  0.67029014464E-01  0.51100000000E-03 0. -1.
         11    1    4    4    0    0 -0.47777443433E-01 -0.36719796648E-01  0.11292126553E-02  0.60270754177E-01  0.51100000000E-03 0.  1.
</event>
<event>
 8    1  0.1092667E+005  0.1043930E+01  0.7957747E-01            NaN
         13   -1    0    0    0    0  0.00000000000E+00  0.00000000000E+00  0.74505805969E-08  0.10566000000E+00  0.10566000000E+00 0. -1.
     999900   -1    0    0    0    0 -0.00000000000E+00 -0.00000000000E+00 -0.74505805969E-08  0.93827000000E+00  0.93827000000E+00 0. -1.
     999902    2    1    2    0    0 -0.61601207475E-02  0.79210051396E-02  0.20249461892E-01  0.10213306611E+01  0.10210805988E+01 0.  0.
     999903    2    3    3    0    0 -0.49871125046E-01 -0.63105779986E-01  0.10432269643E+00  0.13339836368E+00  0.21034016758E-01 0.  0.
         14    1    1    2    0    0  0.61601207475E-02 -0.79210051396E-02 -0.20249461892E-01  0.22599338861E-01  0.00000000000E+00 0. -1.
     999901    1    3    3    0    0  0.43711004299E-01  0.71026785126E-01 -0.84073234539E-01  0.88793229746E+00  0.88000000000E+00 0. -1.
        -11    1    4    4    0    0 -0.17636442243E-01 -0.32994868539E-01  0.61053678018E-01  0.71606690786E-01  0.51100000000E-03 0.  1.
         11    1    4    4    0    0 -0.32234682804E-01 -0.30110911447E-01  0.43269018414E-01  0.61791672895E-01  0.51100000000E-03 0. -1.
</event>
<event>
 8    1  0.1092667E+005  0.1043930E+01  0.7957747E-01            NaN
         13   -1    0    0    0    0  0.00000000000E+00  0.00000000000E+00  0.74505805969E-08  0.10566000000E+00  0.10566000000E+00 0.  1.
     999900   -1    0    0    0    0 -0.00000000000E+00 -0.00000000000E+00 -0.74505805969E-08  0.93827000000E+00  0.93827000000E+00 0.  1.
     999902    2    1    2    0    0  0.19744338268E-01 -0.80493538614E-02 -0.19690951589E-01  0.10149064825E+01  0.10144914015E+01 0.  0.
     999903    2    3    3    0    0 -0.98627403877E-01 -0.14344271085E-01 -0.73491999148E-01  0.12533015190E+00  0.19324857761E-01 0.  0.
         14    1    1    2    0    0 -0.19744338268E-01  0.80493538614E-02  0.19690951589E-01  0.29023517459E-01  0.00000000000E+00 0.  1.
     999901    1    3    3    0    0  0.11837174215E+00  0.62949172241E-02  0.53801047559E-01  0.88957633064E+00  0.88000000000E+00 0.  1.
        -11    1    4    4    0    0 -0.81171207138E-02 -0.42721976743E-02 -0.13304181397E-01  0.16167921489E-01  0.51100000000E-03 0. -1.
         11    1    4    4    0    0 -0.90510283163E-01 -0.10072073411E-01 -0.60187817751E-01  0.10916223041E+00  0.51100000000E-03 0.  1.
</event>
<event>
 8    1  0.1092667E+005  0.1043930E+01  0.7957747E-01            NaN
         13   -1    0    0    0    0  0.00000000000E+00  0.00000000000E+00  0.74505805969E-08  0.10566000000E+00  0.10566000000E+00 0.  1.
     999900   -1    0    0    0    0 -0.00000000000E+00 -0.00000000000E+00 -0.74505805969E-08  0.93827000000E+00  0.93827000000E+00 0. -1.
     999902    2    1    2    0    0  0.64813801468E-02  0.13263711674E-01 -0.18452653855E-01  0.10202987755E+01  0.10200250764E+01 0.  0.
     999903    2    3    3    0    0  0.74131839556E-01 -0.10367621650E+00 -0.14953772756E-01  0.12998210510E+00  0.20674738784E-01 0.  0.
         14    1    1    2    0    0 -0.64813801468E-02 -0.13263711674E-01  0.18452653855E-01  0.23631224477E-01  0.00000000000E+00 0.  1.
     999901    1    3    3    0    0 -0.67650459409E-01  0.11693992817E+00 -0.34988810986E-02  0.89031667042E+00  0.88000000000E+00 0. -1.
        -11    1    4    4    0    0  0.31335709669E-01 -0.41742910633E-01  0.39958293889E-02  0.52350979571E-01  0.51100000000E-03 0. -1.
         11    1    4    4    0    0  0.42796129887E-01 -0.61933305867E-01 -0.18949602145E-01  0.77631125532E-01  0.51100000000E-03 0.  1.
</event>
<event>
 8    1  0.1092667E+005  0.1043930E+01  0.7957747E-01            NaN
         13   -1    0    0    0    0  0.00000000000E+00  0.00000000000E+00  0.74505805969E-08  0.10566000000E+00  0.10566000000E+00 0. -1.
     999900   -1    0    0    0    0 -0.00000000000E+00 -0.00000000000E+00 -0.74505805969E-08  0.93827000000E+00  0.93827000000E+00 0. -1.
     999902    2    1    2    0    0 -0.14201373473E-01 -0.11742873172E-01  0.13340894768E-01  0.10211801967E+01  0.10209267557E+01 0.  0.
     999903    2    3    3    0    0 -0.56469366297E-02 -0.12405715096E+00  0.44336531753E-01  0.13345929182E+00  0.20581300420E-01 0.  0.
         14    1    1    2    0    0  0.14201373473E-01  0.11742873172E-01 -0.13340894768E-01  0.22749803341E-01  0.00000000000E+00 0.  1.
     999901    1    3    3    0    0 -0.85544368428E-02  0.11231427779E+00 -0.30995636985E-01  0.88772090484E+00  0.88000000000E+00 0.  1.
        -11    1    4    4    0    0 -0.59322189503E-02 -0.45446716214E-01  0.26151371782E-01  0.52770736241E-01  0.51100000000E-03 0.  1.
         11    1    4    4    0    0  0.28528232064E-03 -0.78610434743E-01  0.18185159971E-01  0.80688555575E-01  0.51100000000E-03 0. -1.
</event>
<event>
 8    1  0.1092667E+005  0.1043930E+01  0.7957747E-01            NaN
         13   -1    0    0    0    0  0.00000000000E+00  0.00000000000E+00  0.74505805969E-08  0.10566000000E+00  0.10566000000E+00 0. -1.
     999900   -1    0    0    0    0 -0.00000000000E+00 -0.00000000000E+00 -0.74505805969E-08  0.93827000000E+00  0.93827000000E+00 0. -1.
     999902    2    1    2    0    0 -0.21841754388E-01  0.63690797937E-02  0.11081221713E-01  0.10186234616E+01  0.10183090570E+01 0.  0.
     999903    2    3    3    0    0  0.11768945418E+00 -0.11207901731E-01 -0.37692917855E-01  0.12612313938E+00  0.22580202467E-01 0.  0.
         14    1    1    2    0    0  0.21841754388E-01 -0.63690797937E-02 -0.11081221713E-01  0.25306538421E-01  0.00000000000E+00 0. -1.
     999901    1    3    3    0    0 -0.13953120857E+00  0.17576981524E-01  0.48774139568E-01  0.89250032220E+00  0.88000000000E+00 0.  1.
        -11    1    4    4    0    0  0.34749536683E-01 -0.13149414199E-01 -0.80298102934E-02  0.38015475373E-01  0.51100000000E-03 0. -1.
         11    1    4    4    0    0  0.82939917495E-01  0.19415124684E-02 -0.29663107562E-01  0.88107664002E-01  0.51100000000E-03 0.  1.
</event>
<event>
 8    1  0.1092667E+005  0.1043930E+01  0.7957747E-01            NaN
         13   -1    0    0    0    0  0.00000000000E+00  0.00000000000E+00  0.74505805969E-08  0.10566000000E+00  0.10566000000E+00 0.  1.
     999900   -1    0    0    0    0 -0.00000000000E+00 -0.00000000000E+00 -0.74505805969E-08  0.93827000000E+00  0.93827000000E+00 0.  1.
     999902    2    1    2    0    0  0.18559605974E-01 -0.12335285924E-02  0.15255631665E-01  0.10198735068E+01  0.10195897484E+01 0.  0.
     999903    2    3    3    0    0 -0.44466998717E-01  0.46325255064E-01  0.11251756660E+00  0.13100114546E+00  0.19435896834E-01 0.  0.
         14    1    1    2    0    0 -0.18559605974E-01  0.12335285924E-02 -0.15255631665E-01  0.24056493181E-01  0.00000000000E+00 0. -1.
     999901    1    3    3    0    0  0.63026604691E-01 -0.47558783657E-01 -0.97261934937E-01  0.88887236136E+00  0.88000000000E+00 0.  1.
        -11    1    4    4    0    0 -0.34327211890E-02  0.14882304142E-01  0.22620646259E-01  0.27298741904E-01  0.51100000000E-03 0. -1.
         11    1    4    4    0    0 -0.41034277528E-01  0.31442950922E-01  0.89896920343E-01  0.10370240356E+00  0.51100000000E-03 0.  1.
</event>
<event>
 8    1  0.1092667E+005  0.1043930E+01  0.7957747E-01            NaN
         13   -1    0    0    0    0  0.00000000000E+00  0.00000000000E+00  0.74505805969E-08  0.10566000000E+00  0.10566000000E+00 0. -1.
     999900   -1    0    0    0    0 -0.00000000000E+00 -0.00000000000E+00 -0.74505805969E-08  0.93827000000E+00  0.93827000000E+00 0. -1.
     999902    2    1    2    0    0 -0.18192462155E-01 -0.30198224085E-02  0.81574516263E-02  0.10237649554E+01  0.10235663412E+01 0.  0.
     999903    2    3    3    0    0  0.35980553617E-01 -0.12369069123E+00 -0.27360138993E-01  0.13317095505E+00  0.19797442468E-01 0.  0.
         14    1    1    2    0    0  0.18192462155E-01  0.30198224085E-02 -0.81574516263E-02  0.20165044599E-01  0.00000000000E+00 0. -1.
     999901    1    3    3    0    0 -0.54173015772E-01  0.12067086882E+00  0.35517590619E-01  0.89059400035E+00  0.88000000000E+00 0.  1.
        -11    1    4    4    0    0  0.19285577323E-01 -0.59518076509E-01 -0.23201122620E-01  0.66729964303E-01  0.51100000000E-03 0. -1.
         11    1    4    4    0    0  0.16694976293E-01 -0.64172614718E-01 -0.41590163726E-02  0.66440990746E-01  0.51100000000E-03 0.  1.
</event>
<event>
 8    1  0.1092667E+005  0.1043930E+01  0.7957747E-01            NaN
         13   -1    0    0    0    0  0.00000000000E+00  0.00000000000E+00  0.74505805969E-08  0.10566000000E+00  0.10566000000E+00 0.  1.
     999900   -1    0    0    0    0 -0.00000000000E+00 -0.00000000000E+00 -0.74505805969E-08  0.93827000000E+00  0.93827000000E+00 0. -1.
     999902    2    1    2    0    0  0.21766174431E-01  0.46246048175E-02  0.85720209237E-02  0.10200839760E+01  0.10198052192E+01 0.  0.
     999903    2    3    3    0    0 -0.69077740590E-03  0.10915002433E+00  0.70494660562E-01  0.13145340520E+00  0.19907174267E-01 0.  0.
         14    1    1    2    0    0 -0.21766174431E-01 -0.46246048175E-02 -0.85720209237E-02  0.23846024025E-01  0.00000000000E+00 0. -1.
     999901    1    3    3    0    0  0.22456951837E-01 -0.10452541951E+00 -0.61922639638E-01  0.88863057077E+00  0.88000000000E+00 0. -1.
        -11    1    4    4    0    0 -0.94432817254E-02  0.54654652557E-01  0.30586174884E-01  0.63340996448E-01  0.51100000000E-03 0. -1.
         11    1    4    4    0    0  0.87525043195E-02  0.54495371772E-01  0.39908485678E-01  0.68112408756E-01  0.51100000000E-03 0.  1.
</event>
<event>
 8    1  0.1092667E+005  0.1043930E+01  0.7957747E-01            NaN
         13   -1    0    0    0    0  0.00000000000E+00  0.00000000000E+00  0.74505805969E-08  0.10566000000E+00  0.10566000000E+00 0. -1.
     999900   -1    0    0    0    0 -0.00000000000E+00 -0.00000000000E+00 -0.74505805969E-08  0.93827000000E+00  0.93827000000E+00 0.  1.
     999902    2    1    2    0    0  0.38993496926E-02  0.21812068123E-02 -0.23334368167E-01  0.10201717314E+01  0.10198950466E+01 0.  0.
     999903    2    3    3    0    0 -0.11818421892E+00  0.39113449605E-01  0.29380138532E-01  0.12941519475E+00  0.19690824043E-01 0.  0.
         14    1    1    2    0    0 -0.38993496926E-02 -0.21812068123E-02  0.23334368167E-01  0.23758268644E-01  0.00000000000E+00 0. -1.
     999901    1    3    3    0    0  0.12208356861E+00 -0.36932242793E-01 -0.52714506699E-01  0.89075653660E+00  0.88000000000E+00 0. -1.
        -11    1    4    4    0    0 -0.82559872229E-01  0.20808784976E-01  0.26864897870E-01  0.89281139627E-01  0.51100000000E-03 0. -1.
         11    1    4    4    0    0 -0.35624346691E-01  0.18304664629E-01  0.25152406618E-02  0.40134055127E-01  0.51100000000E-03 0.  1.
</event>
<event>
 8    1  0.1092667E+005  0.1043930E+01  0.7957747E-01            NaN
         13   -1    0    0    0    0  0.00000000000E+00  0.00000000000E+00  0.74505805969E-08  0.10566000000E+00  0.10566000000E+00 0. -1.
     999900   -1    0    0    0    0 -0.00000000000E+00 -0.00000000000E+00 -0.74505805969E-08  0.93827000000E+00  0.93827000000E+00 0. -1.
     999902    2    1    2    0    0 -0.20790436304E-01  0.12067392144E-01  0.12466163468E-02  0.10198588919E+01  0.10195747844E+01 0.  0.
     999903    2    3    3    0    0 -0.18249909634E-01  0.30148516890E-01  0.12475911643E+00  0.13104579619E+00  0.19135602833E-01 0.  0.
         14    1    1    2    0    0  0.20790436304E-01 -0.12067392144E-01 -0.12466163468E-02  0.24071108142E-01  0.00000000000E+00 0. -1.
     999901    1    3    3    0    0 -0.25405266701E-02 -0.18081124745E-01 -0.12351250008E+00  0.88881309566E+00  0.88000000000E+00 0. -1.
        -11    1    4    4    0    0 -0.60367524244E-02 -0.36003061839E-03  0.33580405716E-01  0.34124430705E-01  0.51100000000E-03 0. -1.
         11    1    4    4    0    0 -0.12213157210E-01  0.30508547508E-01  0.91178710712E-01  0.96921365489E-01  0.51100000000E-03 0.  1.
</event>
<event>
 8    1  0.1092667E+005  0.1043930E+01  0.7957747E-01            NaN
         13   -1    0    0    0    0  0.00000000000E+00  0.00000000000E+00  0.74505805969E-08  0.10566000000E+00  0.10566000000E+00 0. -1.
     999900   -1    0    0    0    0 -0.00000000000E+00 -0.00000000000E+00 -0.74505805969E-08  0.93827000000E+00  0.93827000000E+00 0. -1.
     999902    2    1    2    0    0 -0.12655478735E-01  0.10792862972E-01 -0.17369410518E-01  0.10198812276E+01  0.10195976534E+01 0.  0.
     999903    2    3    3    0    0 -0.10566888230E+00  0.47382584979E-01  0.57818113380E-01  0.13103733535E+00  0.20416340917E-01 0.  0.
         14    1    1    2    0    0  0.12655478735E-01 -0.10792862972E-01  0.17369410518E-01  0.24048772420E-01  0.00000000000E+00 0. -1.
     999901    1    3    3    0    0  0.93013403562E-01 -0.36589722007E-01 -0.75187523899E-01  0.88884389223E+00  0.88000000000E+00 0. -1.
        -11    1    4    4    0    0 -0.41193489414E-01  0.23647281850E-01  0.33612975949E-01  0.58190985403E-01  0.51100000000E-03 0. -1.
         11    1    4    4    0    0 -0.64475392884E-01  0.23735303129E-01  0.24205137432E-01  0.72846349951E-01  0.51100000000E-03 0.  1.
</event>
<event>
 8    1  0.1092667E+005  0.1043930E+01  0.7957747E-01            NaN
         13   -1    0    0    0    0  0.00000000000E+00  0.00000000000E+00  0.74505805969E-08  0.10566000000E+00  0.10566000000E+00 0. -1.
     999900   -1    0    0    0    0 -0.00000000000E+00 -0.00000000000E+00 -0.74505805969E-08  0.93827000000E+00  0.93827000000E+00 0.  1.
     999902    2    1    2    0    0  0.17281834260E-01 -0.94072259548E-02  0.13171934184E-01  0.10202517918E+01  0.10199769904E+01 0.  0.
     999903    2    3    3    0    0  0.12264368131E+00 -0.21754049134E-01  0.43205244069E-01  0.13337211414E+00  0.20167213428E-01 0.  0.
         14    1    1    2    0    0 -0.17281834260E-01  0.94072259548E-02 -0.13171934184E-01  0.23678208246E-01  0.00000000000E+00 0.  1.
     999901    1    3    3    0    0 -0.10536184705E+00  0.12346823179E-01 -0.30033309884E-01  0.88687967761E+00  0.88000000000E+00 0. -1.
        -11    1    4    4    0    0  0.91961143824E-01 -0.77939027672E-02  0.34726689742E-01  0.98609335234E-01  0.51100000000E-03 0.  1.
         11    1    4    4    0    0  0.30682537485E-01 -0.13960146367E-01  0.84785543263E-02  0.34762778910E-01  0.51100000000E-03 0. -1.
</event>
<event>
 8    1  0.1092667E+005  0.1043930E+01  0.7957747E-01            NaN
         13   -1    0    0    0    0  0.00000000000E+00  0.00000000000E+00  0.74505805969E-08  0.10566000000E+00  0.10566000000E+00 0.  1.
     999900   -1    0    0    0    0 -0.00000000000E+00 -0.00000000000E+00 -0.74505805969E-08  0.93827000000E+00  0.93827000000E+00 0. -1.
     999902    2    1    2    0    0  0.20494874082E-01 -0.27210061037E-02 -0.11209892179E-01  0.10204118066E+01  0.10201407499E+01 0.  0.
     999903    2    3    3    0    0 -0.11344783900E+00 -0.30253861529E-01  0.46795466653E-01  0.12796386405E+00  0.19980652970E-01 0.  0.
         14    1    1    2    0    0 -0.20494874082E-01  0.27210061037E-02  0.11209892179E-01  0.23518193394E-01  0.00000000000E+00 0.  1.
     999901    1    3    3    0    0  0.13394271308E+00  0.27532855425E-01 -0.58005358832E-01  0.89244794255E+00  0.88000000000E+00 0. -1.
        -11    1    4    4    0    0 -0.55382250793E-01 -0.56098740931E-02  0.17042356603E-01  0.58218274019E-01  0.51100000000E-03 0.  1.
         11    1    4    4    0    0 -0.58065588206E-01 -0.24643987436E-01  0.29753110050E-01  0.69745590033E-01  0.51100000000E-03 0. -1.
</event>
<event>
 8    1  0.1092667E+005  0.1043930E+01  0.7957747E-01            NaN
         13   -1    0    0    0    0  0.00000000000E+00  0.00000000000E+00  0.74505805969E-08  0.10566000000E+00  0.10566000000E+00 0. -1.
     999900   -1    0    0    0    0 -0.00000000000E+00 -0.00000000000E+00 -0.74505805969E-08  0.93827000000E+00  0.93827000000E+00 0. -1.
     999902    2    1    2    0    0  0.18025624086E-01 -0.15420552527E-01 -0.38469817643E-02  0.10198984409E+01  0.10196152774E+01 0.  0.
     999903    2    3    3    0    0 -0.55313451103E-01  0.86796492886E-01  0.72936498689E-01  0.12764138871E+00  0.19477736518E-01 0.  0.
         14    1    1    2    0    0 -0.18025624086E-01  0.15420552527E-01  0.38469817643E-02  0.24031559097E-01  0.00000000000E+00 0.  1.
     999901    1    3    3    0    0  0.73339075189E-01 -0.10221704541E+00 -0.76783480453E-01  0.89225705220E+00  0.88000000000E+00 0.  1.
        -11    1    4    4    0    0 -0.18898880225E-01  0.16134254036E-01  0.22277103728E-01  0.33376822775E-01  0.51100000000E-03 0.  1.
         11    1    4    4    0    0 -0.36414570878E-01  0.70662238850E-01  0.50659394961E-01  0.94264565932E-01  0.51100000000E-03 0. -1.
</event>
<event>
 8    1  0.1092667E+005  0.1043930E+01  0.7957747E-01            NaN
         13   -1    0    0    0    0  0.00000000000E+00  0.00000000000E+00  0.74505805969E-08  0.10566000000E+00  0.10566000000E+00 0.  1.
     999900   -1    0    0    0    0 -0.00000000000E+00 -0.00000000000E+00 -0.74505805969E-08  0.93827000000E+00  0.93827000000E+00 0. -1.
     999902    2    1    2    0    0  0.20020696784E-01 -0.90287469070E-02 -0.75768023325E-02  0.10206973828E+01  0.10204329437E+01 0.  0.
     999903    2    3    3    0    0 -0.12329814531E+00  0.23520906502E-02 -0.30945035464E-01  0.12872435161E+00  0.20109662118E-01 0.  0.
         14    1    1    2    0    0 -0.20020696784E-01  0.90287469070E-02  0.75768023325E-02  0.23232617244E-01  0.00000000000E+00 0. -1.
     999901    1    3    3    0    0  0.14331884210E+00 -0.11380837557E-01  0.23368233132E-01  0.89197303114E+00  0.88000000000E+00 0.  1.
        -11    1    4    4    0    0 -0.30348913777E-01  0.81168377232E-02 -0.12332627589E-01  0.33753436067E-01  0.51100000000E-03 0. -1.
         11    1    4    4    0    0 -0.92949231537E-01 -0.57647470730E-02 -0.18612407875E-01  0.94970915548E-01  0.51100000000E-03 0.  1.
</event>
<event>
 8    1  0.1092667E+005  0.1043930E+01  0.7957747E-01            NaN
         13   -1    0    0    0    0  0.00000000000E+00  0.00000000000E+00  0.74505805969E-08  0.10566000000E+00  0.10566000000E+00 0. -1.
     999900   -1    0    0    0    0 -0.00000000000E+00 -0.00000000000E+00 -0.74505805969E-08  0.93827000000E+00  0.93827000000E+00 0.  1.
     999902    2    1    2    0    0  0.46318395935E-02  0.11737756979E-01 -0.20642671986E-01  0.10197360176E+01  0.10194489673E+01 0.  0.
     999903    2    3    3    0    0  0.21167191074E-01  0.10362098195E+00  0.72365322440E-01  0.12992343515E+00  0.21400963347E-01 0.  0.
         14    1    1    2    0    0 -0.46318395935E-02 -0.11737756979E-01  0.20642671986E-01  0.24193982385E-01  0.00000000000E+00 0. -1.
     999901    1    3    3    0    0 -0.16535351481E-01 -0.91883224970E-01 -0.93007994426E-01  0.88981258246E+00  0.88000000000E+00 0.  1.
        -11    1    4    4    0    0  0.19429292431E-01  0.74320359899E-01  0.62242328067E-01  0.98870530615E-01  0.51100000000E-03 0. -1.
         11    1    4    4    0    0  0.17378986434E-02  0.29300622050E-01  0.10122994374E-01  0.31052904539E-01  0.51100000000E-03 0.  1.
</event>
<event>
 8    1  0.1092667E+005  0.1043930E+01  0.7957747E-01            NaN
         13   -1    0    0    0    0  0.00000000000E+00  0.00000000000E+00  0.74505805969E-08  0.10566000000E+00  0.10566000000E+00 0.  1.
     999900   -1    0    0    0    0 -0.00000000000E+00 -0.00000000000E+00 -0.74505805969E-08  0.93827000000E+00  0.93827000000E+00 0. -1.
     999902    2    1    2    0    0  0.13422794600E-01 -0.17156928596E-01 -0.89970337457E-02  0.10203614143E+01  0.10200891812E+01 0.  0.
     999903    2    3    3    0    0 -0.90756386894E-01  0.60440362187E-01  0.63927443223E-01  0.12784103881E+00  0.19153434789E-01 0.  0.
         14    1    1    2    0    0 -0.13422794600E-01  0.17156928596E-01  0.89970337457E-02  0.23568585658E-01  0.00000000000E+00 0.  1.
     999901    1    3    3    0    0  0.10417918149E+00 -0.77597290783E-01 -0.72924476969E-01  0.89252037553E+00  0.88000000000E+00 0. -1.
        -11    1    4    4    0    0 -0.77296718069E-01  0.56610250790E-01  0.49926309457E-01  0.10803888474E+00  0.51100000000E-03 0. -1.
         11    1    4    4    0    0 -0.13459668825E-01  0.38301113971E-02  0.14001133766E-01  0.19802154072E-01  0.51100000000E-03 0.  1.
</event>
<event>
 8    1  0.1092667E+005  0.1043930E+01  0.7957747E-01            NaN
         13   -1    0    0    0    0  0.00000000000E+00  0.00000000000E+00  0.74505805969E-08  0.10566000000E+00  0.10566000000E+00 0. -1.
     999900   -1    0    0    0    0 -0.00000000000E+00 -0.00000000000E+00 -0.74505805969E-08  0.93827000000E+00  0.93827000000E+00 0.  1.
     999902    2    1    2    0    0  0.15086738314E-01 -0.19421094442E-01  0.73895230725E-03  0.10193264508E+01  0.10190294788E+01 0.  0.
     999903    2    3    3    0    0 -0.55454488238E-01 -0.34964839284E-01 -0.11000352852E+00  0.12944917292E+00  0.18935993004E-01 0.  0.
         14    1    1    2    0    0 -0.15086738314E-01  0.19421094442E-01 -0.73895230725E-03  0.24603549191E-01  0.00000000000E+00 0. -1.
     999901    1    3    3    0    0  0.70541226552E-01  0.15543744843E-01  0.11074248083E+00  0.88987727789E+00  0.88000000000E+00 0. -1.
        -11    1    4    4    0    0 -0.30291857326E-01 -0.93575339946E-02 -0.60366984427E-01  0.68187931428E-01  0.51100000000E-03 0. -1.
         11    1    4    4    0    0 -0.25162630912E-01 -0.25607305290E-01 -0.49636544091E-01  0.61261241490E-01  0.51100000000E-03 0.  1.
</event>
<event>
 8    1  0.1092667E+005  0.1043930E+01  0.7957747E-01            NaN
         13   -1    0    0    0    0  0.00000000000E+00  0.00000000000E+00  0.74505805969E-08  0.10566000000E+00  0.10566000000E+00 0.  1.
     999900   -1    0    0    0    0 -0.00000000000E+00 -0.00000000000E+00 -0.74505805969E-08  0.93827000000E+00  0.93827000000E+00 0. -1.
     999902    2    1    2    0    0 -0.21374713858E-01  0.82261106676E-02  0.69962991654E-02  0.10199822341E+01  0.10197010652E+01 0.  0.
     999903    2    3    3    0    0  0.20021919617E-01  0.83526900650E-01 -0.95447472160E-01  0.12988189341E+00  0.19531151920E-01 0.  0.
         14    1    1    2    0    0  0.21374713858E-01 -0.82261106676E-02 -0.69962991654E-02  0.23947765893E-01  0.00000000000E+00 0.  1.
     999901    1    3    3    0    0 -0.41396633475E-01 -0.75300789983E-01  0.10244377133E+00  0.89010034070E+00  0.88000000000E+00 0.  1.
        -11    1    4    4    0    0  0.12499348761E-01  0.42719028876E-01 -0.63319666991E-01  0.77400197005E-01  0.51100000000E-03 0.  1.
         11    1    4    4    0    0  0.75225708552E-02  0.40807871775E-01 -0.32127805169E-01  0.52481696400E-01  0.51100000000E-03 0. -1.
</event>
<event>
 8    1  0.1092667E+005  0.1043930E+01  0.7957747E-01            NaN
         13   -1    0    0    0    0  0.00000000000E+00  0.00000000000E+00  0.74505805969E-08  0.10566000000E+00  0.10566000000E+00 0.  1.
     999900   -1    0    0    0    0 -0.00000000000E+00 -0.00000000000E+00 -0.74505805969E-08  0.93827000000E+00  0.93827000000E+00 0.  1.
     999902    2    1    2    0    0  0.55617901588E-02 -0.35313567573E-02  0.21197206028E-01  0.10217325782E+01  0.10214914272E+01 0.  0.
     999903    2    3    3    0    0  0.10415535481E+00 -0.74116723309E-01  0.33774146850E-01  0.13332886121E+00  0.17154172226E-01 0.  0.
         14    1    1    2    0    0 -0.55617901588E-02  0.35313567573E-02 -0.21197206028E-01  0.22197421781E-01  0.00000000000E+00 0. -1.
     999901    1    3    3    0    0 -0.98593564654E-01  0.70585366552E-01 -0.12576940821E-01  0.88840371701E+00  0.88000000000E+00 0.  1.
        -11    1    4    4    0    0  0.50026813533E-01 -0.41169328807E-01  0.95679058106E-02  0.65493523720E-01  0.51100000000E-03 0.  1.
         11    1    4    4    0    0  0.54128541280E-01 -0.32947394502E-01  0.24206241039E-01  0.67835337486E-01  0.51100000000E-03 0. -1.
</event>
<event>
 8    1  0.1422664E+005  0.1043930E+01  0.7957747E-01            NaN
         13   -1    0    0    0    0  0.00000000000E+00  0.00000000000E+00  0.74505805969E-08  0.10566000000E+00  0.10566000000E+00 0.  1.
     999900   -1    0    0    0    0 -0.00000000000E+00 -0.00000000000E+00 -0.74505805969E-08  0.93827000000E+00  0.93827000000E+00 0. -1.
     999902    2    1    2    0    0 -0.17183488807E-01 -0.17469990962E-01  0.27788536922E-02  0.10192683922E+01  0.10189699998E+01 0.  0.
     999903    2    3    3    0    0  0.10526260941E+00  0.56435623082E-01 -0.41040037770E-01  0.12664574964E+00  0.94691450316E-02 0.  0.
         14    1    1    2    0    0  0.17183488807E-01  0.17469990962E-01 -0.27788536922E-02  0.24661607807E-01  0.00000000000E+00 0.  1.
     999901    1    3    3    0    0 -0.12244609822E+00 -0.73905614044E-01  0.43818891462E-01  0.89262264256E+00  0.88000000000E+00 0.  1.
        -11    1    4    4    0    0  0.31609689030E-01  0.21558116427E-01 -0.14858530166E-01  0.41048286982E-01  0.51100000000E-03 0. -1.
         11    1    4    4    0    0  0.73652920383E-01  0.34877506655E-01 -0.26181507604E-01  0.85597462654E-01  0.51100000000E-03 0.  1.
</event>
<event>
 8    1  0.1092667E+005  0.1043930E+01  0.7957747E-01            NaN
         13   -1    0    0    0    0  0.00000000000E+00  0.00000000000E+00  0.74505805969E-08  0.10566000000E+00  0.10566000000E+00 0. -1.
     999900   -1    0    0    0    0 -0.00000000000E+00 -0.00000000000E+00 -0.74505805969E-08  0.93827000000E+00  0.93827000000E+00 0.  1.
     999902    2    1    2    0    0  0.21946681518E-01  0.76222582966E-02  0.91126332760E-02  0.10189741242E+01  0.10186684790E+01 0.  0.
     999903    2    3    3    0    0 -0.82836615046E-01 -0.55960646702E-01  0.75348155261E-01  0.12801426573E+00  0.26773288142E-01 0.  0.
         14    1    1    2    0    0 -0.21946681518E-01 -0.76222582966E-02 -0.91126332760E-02  0.24955875790E-01  0.00000000000E+00 0.  1.
     999901    1    3    3    0    0  0.10478329656E+00  0.63582904999E-01 -0.66235521985E-01  0.89095985848E+00  0.88000000000E+00 0.  1.
        -11    1    4    4    0    0 -0.40780551869E-01 -0.40469726959E-01  0.51921727774E-01  0.77440164946E-01  0.51100000000E-03 0. -1.
         11    1    4    4    0    0 -0.42056063177E-01 -0.15490919743E-01  0.23426427488E-01  0.50574100786E-01  0.51100000000E-03 0.  1.
</event>
<event>
 8    1  0.1092667E+005  0.1043930E+01  0.7957747E-01            NaN
         13   -1    0    0    0    0  0.00000000000E+00  0.00000000000E+00  0.74505805969E-08  0.10566000000E+00  0.10566000000E+00 0. -1.
     999900   -1    0    0    0    0 -0.00000000000E+00 -0.00000000000E+00 -0.74505805969E-08  0.93827000000E+00  0.93827000000E+00 0.  1.
     999902    2    1    2    0    0  0.99628663119E-02 -0.12618110207E-01  0.13416397400E-01  0.10229902023E+01  0.10227758693E+01 0.  0.
     999903    2    3    3    0    0 -0.33970735099E-01 -0.11668828759E+00 -0.51221532240E-01  0.13341793139E+00  0.20162632417E-01 0.  0.
         14    1    1    2    0    0 -0.99628663119E-02  0.12618110207E-01 -0.13416397400E-01  0.20939797743E-01  0.00000000000E+00 0. -1.
     999901    1    3    3    0    0  0.43933601411E-01  0.10407017739E+00  0.64637929641E-01  0.88957227087E+00  0.88000000000E+00 0. -1.
        -11    1    4    4    0    0  0.26127879350E-02 -0.12083588755E-01 -0.49303938032E-02  0.13319522591E-01  0.51100000000E-03 0. -1.
         11    1    4    4    0    0 -0.36583523034E-01 -0.10460469884E+00 -0.46291138437E-01  0.12009840879E+00  0.51100000000E-03 0.  1.
</event>
<event>
 8    1  0.1092667E+005  0.1043930E+01  0.7957747E-01            NaN
         13   -1    0    0    0    0  0.00000000000E+00  0.00000000000E+00  0.74505805969E-08  0.10566000000E+00  0.10566000000E+00 0. -1.
     999900   -1    0    0    0    0 -0.00000000000E+00 -0.00000000000E+00 -0.74505805969E-08  0.93827000000E+00  0.93827000000E+00 0.  1.
     999902    2    1    2    0    0  0.13535701121E-01 -0.18729407586E-01 -0.53721670549E-02  0.10202052009E+01  0.10199293043E+01 0.  0.
     999903    2    3    3    0    0 -0.27098636055E-01  0.12315721178E+00  0.68073718823E-02  0.12783123037E+00  0.19810306812E-01 0.  0.
         14    1    1    2    0    0 -0.13535701121E-01  0.18729407586E-01  0.53721670549E-02  0.23724799098E-01  0.00000000000E+00 0. -1.
     999901    1    3    3    0    0  0.40634337176E-01 -0.14188661937E+00 -0.12179538937E-01  0.89237397053E+00  0.88000000000E+00 0.  1.
        -11    1    4    4    0    0 -0.45037728679E-02  0.63682780406E-01 -0.31675372148E-05  0.63843884760E-01  0.51100000000E-03 0.  1.
         11    1    4    4    0    0 -0.22594863187E-01  0.59474431377E-01  0.68105394196E-02  0.63987345610E-01  0.51100000000E-03 0. -1.
</event>
<event>
 8    1  0.1092667E+005  0.1043930E+01  0.7957747E-01            NaN
         13   -1    0    0    0    0  0.00000000000E+00  0.00000000000E+00  0.74505805969E-08  0.10566000000E+00  0.10566000000E+00 0.  1.
     999900   -1    0    0    0    0 -0.00000000000E+00 -0.00000000000E+00 -0.74505805969E-08  0.93827000000E+00  0.93827000000E+00 0.  1.
     999902    2    1    2    0    0 -0.19174456581E-01 -0.11351927701E-01 -0.71621712066E-02  0.10205243865E+01  0.10202559486E+01 0.  0.
     999903    2    3    3    0    0  0.51497603371E-01 -0.27234428608E-01  0.11436715697E+00  0.12922411637E+00  0.15010276597E-01 0.  0.
         14    1    1    2    0    0  0.19174456581E-01  0.11351927701E-01  0.71621712066E-02  0.23405613517E-01  0.00000000000E+00 0. -1.
     999901    1    3    3    0    0 -0.70672059952E-01  0.15882500906E-01 -0.12152932818E+00  0.89130027011E+00  0.88000000000E+00 0.  1.
        -11    1    4    4    0    0  0.91320991541E-02 -0.97686793111E-02  0.17204239897E-01  0.21796085012E-01  0.51100000000E-03 0.  1.
         11    1    4    4    0    0  0.42365504217E-01 -0.17465749297E-01  0.97162917076E-01  0.10742803136E+00  0.51100000000E-03 0. -1.
</event>
<event>
 7    1  0.1092667E+005  0.1043930E+01  0.7957747E-01            NaN
         13   -1    0    0    0    0  0.00000000000E+00  0.00000000000E+00  0.74505805969E-08  0.10566000000E+00  0.10566000000E+00 0.  1.
     999900   -1    0    0    0    0 -0.00000000000E+00 -0.00000000000E+00 -0.74505805969E-08  0.93827000000E+00  0.93827000000E+00 0. -1.
     999902    2    1    2    0    0  0.82989105350E-02  0.14511892911E-01 -0.15390836016E-01  0.10212067787E+01  0.10209539363E+01 0.  0.
         14    1    1    2    0    0 -0.82989105350E-02 -0.14511892911E-01  0.15390836016E-01  0.22723221277E-01  0.00000000000E+00 0.  1.
     999901    1    3    3    0    0  0.35197713325E-01  0.10756614291E+00  0.63586798522E-01  0.88952382490E+00  0.88000000000E+00 0. -1.
        -11    1    3    3    0    0 -0.70254295642E-02  0.26964399477E-02 -0.47978101802E-02  0.89391024425E-02  0.51100000000E-03 0.  1.
         11    1    3    3    0    0 -0.19873373226E-01 -0.95750689945E-01 -0.74179824358E-01  0.12274385138E+00  0.51100000000E-03 0. -1.
</event>
<event>
 8    1  0.1092667E+005  0.1043930E+01  0.7957747E-01            NaN
         13   -1    0    0    0    0  0.00000000000E+00  0.00000000000E+00  0.74505805969E-08  0.10566000000E+00  0.10566000000E+00 0.  1.
     999900   -1    0    0    0    0 -0.00000000000E+00 -0.00000000000E+00 -0.74505805969E-08  0.93827000000E+00  0.93827000000E+00 0. -1.
     999902    2    1    2    0    0 -0.31537139693E-02 -0.33909433535E-02  0.20178330629E-01  0.10232271153E+01  0.10230176538E+01 0.  0.
     999903    2    3    3    0    0  0.39877967648E-01  0.10033910590E+00 -0.72054708847E-01  0.13130863116E+00  0.19796137878E-01 0.  0.
         14    1    1    2    0    0  0.31537139693E-02  0.33909433535E-02 -0.20178330629E-01  0.20702884717E-01  0.00000000000E+00 0. -1.
     999901    1    3    3    0    0 -0.43031681617E-01 -0.10373004925E+00  0.92233039476E-01  0.89191848412E+00  0.88000000000E+00 0.  1.
        -11    1    4    4    0    0  0.26027827208E-01  0.52035228487E-01 -0.48783867698E-01  0.75929175298E-01  0.51100000000E-03 0.  1.
         11    1    4    4    0    0  0.13850140439E-01  0.48303877413E-01 -0.23270841149E-01  0.55379455866E-01  0.51100000000E-03 0. -1.
</event>
<event>
 8    1  0.1092667E+005  0.1043930E+01  0.7957747E-01            NaN
         13   -1    0    0    0    0  0.00000000000E+00  0.00000000000E+00  0.74505805969E-08  0.10566000000E+00  0.10566000000E+00 0. -1.
     999900   -1    0    0    0    0 -0.00000000000E+00 -0.00000000000E+00 -0.74505805969E-08  0.93827000000E+00  0.93827000000E+00 0.  1.
     999902    2    1    2    0    0  0.12932455971E-01  0.14831028839E-01 -0.13002295806E-01  0.10203446755E+01  0.10200720511E+01 0.  0.
     999903    2    3    3    0    0  0.88506837118E-01 -0.35048348113E-01 -0.89781837733E-01  0.13237252654E+00  0.19996511554E-01 0.  0.
         14    1    1    2    0    0 -0.12932455971E-01 -0.14831028839E-01  0.13002295806E-01  0.23585324464E-01  0.00000000000E+00 0. -1.
     999901    1    3    3    0    0 -0.75574381147E-01  0.49879376951E-01  0.76779541927E-01  0.88797214899E+00  0.88000000000E+00 0. -1.
        -11    1    4    4    0    0  0.45836052369E-01 -0.97664070178E-02 -0.52122574443E-01  0.70095294353E-01  0.51100000000E-03 0.  1.
         11    1    4    4    0    0  0.42670784749E-01 -0.25281941095E-01 -0.37659263290E-01  0.62277232189E-01  0.51100000000E-03 0. -1.
</event>
<event>
 8    1  0.1092667E+005  0.1043930E+01  0.7957747E-01            NaN
         13   -1    0    0    0    0  0.00000000000E+00  0.00000000000E+00  0.74505805969E-08  0.10566000000E+00  0.10566000000E+00 0. -1.
     999900   -1    0    0    0    0 -0.00000000000E+00 -0.00000000000E+00 -0.74505805969E-08  0.93827000000E+00  0.93827000000E+00 0.  1.
     999902    2    1    2    0    0  0.72643608858E-02 -0.67061568671E-02 -0.20776622908E-01  0.10209210553E+01  0.10206617410E+01 0.  0.
     999903    2    3    3    0    0 -0.13167952228E-01  0.94773869475E-01  0.83640580494E-01  0.12872229515E+00  0.20449969712E-01 0.  0.
         14    1    1    2    0    0 -0.72643608858E-02  0.67061568671E-02  0.20776622908E-01  0.23008944749E-01  0.00000000000E+00 0. -1.
     999901    1    3    3    0    0  0.20432313114E-01 -0.10148002634E+00 -0.10441720340E+00  0.89219876010E+00  0.88000000000E+00 0.  1.
        -11    1    4    4    0    0  0.25234813703E-03  0.27719397466E-01  0.13777739629E-01  0.30959908038E-01  0.51100000000E-03 0.  1.
         11    1    4    4    0    0 -0.13420300366E-01  0.67054472009E-01  0.69862840865E-01  0.97762387108E-01  0.51100000000E-03 0. -1.
</event>
<event>
 8    1  0.1092667E+005  0.1043930E+01  0.7957747E-01            NaN
         13   -1    0    0    0    0  0.00000000000E+00  0.00000000000E+00  0.74505805969E-08  0.10566000000E+00  0.10566000000E+00 0.  1.
     999900   -1    0    0    0    0 -0.00000000000E+00 -0.00000000000E+00 -0.74505805969E-08  0.93827000000E+00  0.93827000000E+00 0. -1.
     999902    2    1    2    0    0 -0.60447269539E-02  0.22112083835E-01 -0.67989811057E-02  0.10200195604E+01  0.10197392777E+01 0.  0.
     999903    2    3    3    0    0  0.57783330456E-01 -0.70114018433E-01  0.87853879101E-01  0.12786551613E+00  0.19400960859E-01 0.  0.
         14    1    1    2    0    0  0.60447269539E-02 -0.22112083835E-01  0.67989811057E-02  0.23910439551E-01  0.00000000000E+00 0.  1.
     999901    1    3    3    0    0 -0.63828057410E-01  0.92226102268E-01 -0.94652860207E-01  0.89215404432E+00  0.88000000000E+00 0. -1.
        -11    1    4    4    0    0  0.29760242013E-01 -0.45373914990E-01  0.62097297122E-01  0.82466960639E-01  0.51100000000E-03 0.  1.
         11    1    4    4    0    0  0.28023088443E-01 -0.24740103443E-01  0.25756581979E-01  0.45398555489E-01  0.51100000000E-03 0. -1.
</event>
<event>
 8    1  0.1092667E+005  0.1043930E+01  0.7957747E-01            NaN
         13   -1    0    0    0    0  0.00000000000E+00  0.00000000000E+00  0.74505805969E-08  0.10566000000E+00  0.10566000000E+00 0.  1.
     999900   -1    0    0    0    0 -0.00000000000E+00 -0.00000000000E+00 -0.74505805969E-08  0.93827000000E+00  0.93827000000E+00 0.  1.
     999902    2    1    2    0    0  0.31377894776E-02  0.14227145797E-02 -0.23783896601E-01  0.10198978637E+01  0.10196146864E+01 0.  0.
     999903    2    3    3    0    0  0.68013559519E-01  0.84343030030E-01 -0.73173597189E-01  0.13224703885E+00  0.19882478896E-01 0.  0.
         14    1    1    2    0    0 -0.31377894776E-02 -0.14227145797E-02  0.23783896601E-01  0.24032136341E-01  0.00000000000E+00 0.  1.
     999901    1    3    3    0    0 -0.64875770041E-01 -0.82920315450E-01  0.49389700588E-01  0.88765082481E+00  0.88000000000E+00 0. -1.
        -11    1    4    4    0    0  0.22757696733E-01  0.17088475488E-01 -0.13012994185E-01  0.31297410336E-01  0.51100000000E-03 0. -1.
         11    1    4    4    0    0  0.45255862786E-01  0.67254554542E-01 -0.60160603004E-01  0.10094962852E+00  0.51100000000E-03 0.  1.
</event>
<event>
 8    1  0.1092667E+005  0.1043930E+01  0.7957747E-01            NaN
         13   -1    0    0    0    0  0.00000000000E+00  0.00000000000E+00  0.74505805969E-08  0.10566000000E+00  0.10566000000E+00 0.  1.
     999900   -1    0    0    0    0 -0.00000000000E+00 -0.00000000000E+00 -0.74505805969E-08  0.93827000000E+00  0.93827000000E+00 0.  1.
     999902    2    1    2    0    0  0.39775618236E-02  0.82940251823E-03  0.21994555160E-01  0.10215632979E+01  0.10213184137E+01 0.  0.
     999903    2    3    3    0    0 -0.12064887496E+00 -0.30639781360E-01  0.39897044053E-01  0.13204513765E+00  0.18686814131E-01 0.  0.
         14    1    1    2    0    0 -0.39775618236E-02 -0.82940251823E-03 -0.21994555160E-01  0.22366702110E-01  0.00000000000E+00 0. -1.
     999901    1    3    3    0    0  0.12462643679E+00  0.31469183879E-01 -0.17902488893E-01  0.88951816024E+00  0.88000000000E+00 0.  1.
        -11    1    4    4    0    0 -0.69463067542E-01 -0.19719527266E-01  0.13634680426E-01  0.73485666217E-01  0.51100000000E-03 0.  1.
         11    1    4    4    0    0 -0.51185807421E-01 -0.10920254094E-01  0.26262363627E-01  0.58559471438E-01  0.51100000000E-03 0. -1.
</event>
<event>
 8    1  0.1092667E+005  0.1043930E+01  0.7957747E-01            NaN
         13   -1    0    0    0    0  0.00000000000E+00  0.00000000000E+00  0.74505805969E-08  0.10566000000E+00  0.10566000000E+00 0. -1.
     999900   -1    0    0    0    0 -0.00000000000E+00 -0.00000000000E+00 -0.74505805969E-08  0.93827000000E+00  0.93827000000E+00 0.  1.
     999902    2    1    2    0    0  0.97240590223E-02 -0.77877982050E-02  0.19270725720E-01  0.10209829306E+01  0.10207250250E+01 0.  0.
     999903    2    3    3    0    0 -0.36794567634E-01  0.66977882703E-01  0.10614019198E+00  0.13233215901E+00  0.20153981643E-01 0.  0.
         14    1    1    2    0    0 -0.97240590223E-02  0.77877982050E-02 -0.19270725720E-01  0.22947069410E-01  0.00000000000E+00 0.  1.
     999901    1    3    3    0    0  0.46518626656E-01 -0.74765680908E-01 -0.86869466256E-01  0.88865077158E+00  0.88000000000E+00 0.  1.
        -11    1    4    4    0    0 -0.19548689024E-01  0.50120669691E-01  0.82961382942E-01  0.98879143168E-01  0.51100000000E-03 0. -1.
         11    1    4    4    0    0 -0.17245878609E-01  0.16857213012E-01  0.23178809033E-01  0.33453015839E-01  0.51100000000E-03 0.  1.
</event>
<event>
 8    1  0.1092667E+005  0.1043930E+01  0.7957747E-01            NaN
         13   -1    0    0    0    0  0.00000000000E+00  0.00000000000E+00  0.74505805969E-08  0.10566000000E+00  0.10566000000E+00 0. -1.
     999900   -1    0    0    0    0 -0.00000000000E+00 -0.00000000000E+00 -0.74505805969E-08  0.93827000000E+00  0.93827000000E+00 0. -1.
     999902    2    1    2    0    0 -0.27469679735E-01 -0.20501424356E-01  0.16579181759E-01  0.10058542732E+01  0.10051333533E+01 0.  0.
     999903    2    3    3    0    0  0.48446639572E-01  0.79152642629E-01  0.65996066127E-01  0.11560922317E+00  0.19944774162E-01 0.  0.
         14    1    1    2    0    0  0.27469679735E-01  0.20501424356E-01 -0.16579181759E-01  0.38075726824E-01  0.00000000000E+00 0.  1.
     999901    1    3    3    0    0 -0.75916319307E-01 -0.99654066984E-01 -0.49416884368E-01  0.89024505001E+00  0.88000000000E+00 0.  1.
        -11    1    4    4    0    0  0.36580798162E-01  0.72205136098E-01  0.53540639784E-01  0.97049460084E-01  0.51100000000E-03 0.  1.
         11    1    4    4    0    0  0.11865841410E-01  0.69475065309E-02  0.12455426344E-01  0.18559763085E-01  0.51100000000E-03 0. -1.
</event>
<event>
 8    1  0.1092667E+005  0.1043930E+01  0.7957747E-01            NaN
         13   -1    0    0    0    0  0.00000000000E+00  0.00000000000E+00  0.74505805969E-08  0.10566000000E+00  0.10566000000E+00 0. -1.
     999900   -1    0    0    0    0 -0.00000000000E+00 -0.00000000000E+00 -0.74505805969E-08  0.93827000000E+00  0.93827000000E+00 0. -1.
     999902    2    1    2    0    0 -0.11013015417E-01  0.15313416903E-01  0.14481526680E-01  0.10201497170E+01  0.10198725132E+01 0.  0.
     999903    2    3    3    0    0 -0.46225799058E-01 -0.10411310806E+00  0.59846739860E-01  0.13022801392E+00  0.20033461275E-01 0.  0.
         14    1    1    2    0    0  0.11013015417E-01 -0.15313416903E-01 -0.14481526680E-01  0.23780283026E-01  0.00000000000E+00 0. -1.
     999901    1    3    3    0    0  0.35212783640E-01  0.11942652496E+00 -0.45365213180E-01  0.88992170305E+00  0.88000000000E+00 0. -1.
        -11    1    4    4    0    0 -0.44229489642E-01 -0.10457841092E+00  0.58665605211E-01  0.12780769202E+00  0.51100000000E-03 0. -1.
         11    1    4    4    0    0 -0.19963094161E-02  0.46530286324E-03  0.11811346497E-02  0.24203219001E-02  0.51100000000E-03 0.  1.
</event>
<event>
 8    1  0.1092667E+005  0.1043930E+01  0.7957747E-01            NaN
         13   -1    0    0    0    0  0.00000000000E+00  0.00000000000E+00  0.74505805969E-08  0.10566000000E+00  0.10566000000E+00 0. -1.
     999900   -1    0    0    0    0 -0.00000000000E+00 -0.00000000000E+00 -0.74505805969E-08  0.93827000000E+00  0.93827000000E+00 0. -1.
     999902    2    1    2    0    0 -0.41138365248E-02  0.70665688557E-02 -0.21845190584E-01  0.10206046405E+01  0.10203380615E+01 0.  0.
     999903    2    3    3    0    0 -0.21367604296E-02 -0.65444972171E-01  0.10823871946E+00  0.12808928705E+00  0.20090667955E-01 0.  0.
         14    1    1    2    0    0  0.41138365248E-02 -0.70665688557E-02  0.21845190584E-01  0.23325359547E-01  0.00000000000E+00 0. -1.
     999901    1    3    3    0    0 -0.19770760952E-02  0.72511541027E-01 -0.13008391004E+00  0.89251535341E+00  0.88000000000E+00 0. -1.
        -11    1    4    4    0    0 -0.70625721865E-02 -0.43089188477E-01  0.84445875726E-01  0.95068002701E-01  0.51100000000E-03 0. -1.
         11    1    4    4    0    0  0.49258117569E-02 -0.22355783694E-01  0.23792843733E-01  0.33021284347E-01  0.51100000000E-03 0.  1.
</event>
<event>
 8    1  0.1092667E+005  0.1043930E+01  0.7957747E-01            NaN
         13   -1    0    0    0    0  0.00000000000E+00  0.00000000000E+00  0.74505805969E-08  0.10566000000E+00  0.10566000000E+00 0.  1.
     999900   -1    0    0    0    0 -0.00000000000E+00 -0.00000000000E+00 -0.74505805969E-08  0.93827000000E+00  0.93827000000E+00 0. -1.
     999902    2    1    2    0    0 -0.14164101118E-01  0.17050036635E-01 -0.93993184808E-02  0.10198536070E+01  0.10195693734E+01 0.  0.
     999903    2    3    3    0    0 -0.76326028546E-02  0.41899087071E-01  0.12071951578E+00  0.12991481881E+00  0.22155553082E-01 0.  0.
         14    1    1    2    0    0  0.14164101118E-01 -0.17050036635E-01  0.93993184808E-02  0.24076392953E-01  0.00000000000E+00 0.  1.
     999901    1    3    3    0    0 -0.65314982636E-02 -0.24849050436E-01 -0.13011883426E+00  0.88993878824E+00  0.88000000000E+00 0. -1.
        -11    1    4    4    0    0  0.53699573492E-02  0.41003482868E-02  0.90490369603E-02  0.11304666687E-01  0.51100000000E-03 0.  1.
         11    1    4    4    0    0 -0.13002560204E-01  0.37798738784E-01  0.11167047882E+00  0.11861015212E+00  0.51100000000E-03 0. -1.
</event>
<event>
 8    1  0.1092667E+005  0.1043930E+01  0.7957747E-01            NaN
         13   -1    0    0    0    0  0.00000000000E+00  0.00000000000E+00  0.74505805969E-08  0.10566000000E+00  0.10566000000E+00 0.  1.
     999900   -1    0    0    0    0 -0.00000000000E+00 -0.00000000000E+00 -0.74505805969E-08  0.93827000000E+00  0.93827000000E+00 0. -1.
     999902    2    1    2    0    0 -0.17204108642E-01  0.15997240491E-01 -0.45194073444E-02  0.10200068292E+01  0.10197262444E+01 0.  0.
     999903    2    3    3    0    0  0.60716917759E-01 -0.11027711540E+00 -0.40444700768E-02  0.12758477387E+00  0.20345282029E-01 0.  0.
         14    1    1    2    0    0  0.17204108642E-01 -0.15997240491E-01  0.45194073444E-02  0.23923170782E-01  0.00000000000E+00 0. -1.
     999901    1    3    3    0    0 -0.77921026402E-01  0.12627435589E+00 -0.47493726767E-03  0.89242205535E+00  0.88000000000E+00 0.  1.
        -11    1    4    4    0    0  0.32179959940E-01 -0.66331621163E-01 -0.11627138419E-01  0.74638363170E-01  0.51100000000E-03 0.  1.
         11    1    4    4    0    0  0.28536957819E-01 -0.43945494240E-01  0.75826683425E-02  0.52946410698E-01  0.51100000000E-03 0. -1.
</event>
<event>
 8    1  0.1092667E+005  0.1043930E+01  0.7957747E-01            NaN
         13   -1    0    0    0    0  0.00000000000E+00  0.00000000000E+00  0.74505805969E-08  0.10566000000E+00  0.10566000000E+00 0. -1.
     999900   -1    0    0    0    0 -0.00000000000E+00 -0.00000000000E+00 -0.74505805969E-08  0.93827000000E+00  0.93827000000E+00 0.  1.
     999902    2    1    2    0    0 -0.78227657264E-03 -0.22930923775E-01  0.36393475416E-02  0.10206988986E+01  0.10204344945E+01 0.  0.
     999903    2    3    3    0    0  0.87721270902E-01  0.65784116123E-01  0.66150334407E-01  0.12962602857E+00  0.20111420593E-01 0.  0.
         14    1    1    2    0    0  0.78227657264E-03  0.22930923775E-01 -0.36393475416E-02  0.23231101401E-01  0.00000000000E+00 0.  1.
     999901    1    3    3    0    0 -0.88503547475E-01 -0.88715039898E-01 -0.62510986866E-01  0.89107287003E+00  0.88000000000E+00 0.  1.
        -11    1    4    4    0    0  0.49271721036E-01  0.33932202302E-01  0.24678530041E-01  0.64717755005E-01  0.51100000000E-03 0. -1.
         11    1    4    4    0    0  0.38449549866E-01  0.31851913821E-01  0.41471804366E-01  0.64908273566E-01  0.51100000000E-03 0.  1.
</event>
<event>
 8    1  0.1092667E+005  0.1043930E+01  0.7957747E-01            NaN
         13   -1    0    0    0    0  0.00000000000E+00  0.00000000000E+00  0.74505805969E-08  0.10566000000E+00  0.10566000000E+00 0.  1.
     999900   -1    0    0    0    0 -0.00000000000E+00 -0.00000000000E+00 -0.74505805969E-08  0.93827000000E+00  0.93827000000E+00 0. -1.
     999902    2    1    2    0    0  0.10600000693E-01  0.91287115531E-02  0.18950822513E-01  0.10203752327E+01  0.10201033224E+01 0.  0.
     999903    2    3    3    0    0 -0.15958519302E-01  0.12096615761E+00 -0.43035950725E-01  0.13073748091E+00  0.18780581339E-01 0.  0.
         14    1    1    2    0    0 -0.10600000693E-01 -0.91287115531E-02 -0.18950822513E-01  0.23554767314E-01  0.00000000000E+00 0.  1.
     999901    1    3    3    0    0  0.26558519995E-01 -0.11183744606E+00  0.61986773238E-01  0.88963775177E+00  0.88000000000E+00 0.  1.
        -11    1    4    4    0    0 -0.46598295571E-02  0.43133461598E-01 -0.24894872211E-01  0.50022248094E-01  0.51100000000E-03 0.  1.
         11    1    4    4    0    0 -0.11298689745E-01  0.77832696011E-01 -0.18141078514E-01  0.80715232818E-01  0.51100000000E-03 0. -1.
</event>
<event>
 8    1  0.1092667E+005  0.1043930E+01  0.7957747E-01            NaN
         13   -1    0    0    0    0  0.00000000000E+00  0.00000000000E+00  0.74505805969E-08  0.10566000000E+00  0.10566000000E+00 0.  1.
     999900   -1    0    0    0    0 -0.00000000000E+00 -0.00000000000E+00 -0.74505805969E-08  0.93827000000E+00  0.93827000000E+00 0. -1.
     999902    2    1    2    0    0  0.19715943572E-01  0.11218836840E-01  0.53306847201E-02  0.10206277055E+01  0.10203616595E+01 0.  0.
     999903    2    3    3    0    0 -0.10557467815E+00  0.99550432308E-02  0.70931176822E-01  0.12933495803E+00  0.21241091572E-01 0.  0.
         14    1    1    2    0    0 -0.19715943572E-01 -0.11218836840E-01 -0.53306847201E-02  0.23302294534E-01  0.00000000000E+00 0.  1.
     999901    1    3    3    0    0  0.12529062172E+00  0.12637936090E-02 -0.65600492102E-01  0.89129274743E+00  0.88000000000E+00 0.  1.
        -11    1    4    4    0    0 -0.27819373273E-01  0.69751012907E-02  0.95745722534E-02  0.30240752672E-01  0.51100000000E-03 0. -1.
         11    1    4    4    0    0 -0.77755304878E-01  0.29799419401E-02  0.61356604569E-01  0.99094205360E-01  0.51100000000E-03 0.  1.
</event>
<event>
 8    1  0.1092667E+005  0.1043930E+01  0.7957747E-01            NaN
         13   -1    0    0    0    0  0.00000000000E+00  0.00000000000E+00  0.74505805969E-08  0.10566000000E+00  0.10566000000E+00 0.  1.
     999900   -1    0    0    0    0 -0.00000000000E+00 -0.00000000000E+00 -0.74505805969E-08  0.93827000000E+00  0.93827000000E+00 0.  1.
     999902    2    1    2    0    0  0.82762326878E-02 -0.18310848480E-01  0.13599062215E-01  0.10196664946E+01  0.10193777723E+01 0.  0.
     999903    2    3    3    0    0 -0.14049732554E-01 -0.55950859917E-01  0.11496350862E+00  0.13276741910E+00  0.32904187406E-01 0.  0.
         14    1    1    2    0    0 -0.82762326878E-02  0.18310848480E-01 -0.13599062215E-01  0.24263505367E-01  0.00000000000E+00 0.  1.
     999901    1    3    3    0    0  0.22325965242E-01  0.37640011437E-01 -0.10136444641E+00  0.88689907553E+00  0.88000000000E+00 0.  1.
        -11    1    4    4    0    0 -0.10254680489E-01 -0.41075215996E-01  0.47733795832E-01  0.63805236671E-01  0.51100000000E-03 0.  1.
         11    1    4    4    0    0 -0.37950520647E-02 -0.14875643921E-01  0.67229712793E-01  0.68962182429E-01  0.51100000000E-03 0. -1.
</event>
<event>
 8    1  0.1092667E+005  0.1043930E+01  0.7957747E-01            NaN
         13   -1    0    0    0    0  0.00000000000E+00  0.00000000000E+00  0.74505805969E-08  0.10566000000E+00  0.10566000000E+00 0.  1.
     999900   -1    0    0    0    0 -0.00000000000E+00 -0.00000000000E+00 -0.74505805969E-08  0.93827000000E+00  0.93827000000E+00 0.  1.
     999902    2    1    2    0    0  0.19051667052E-03 -0.12785316512E-01 -0.19128470451E-01  0.10209213278E+01  0.10206620197E+01 0.  0.
     999903    2    3    3    0    0 -0.70115232787E-01  0.10312664742E-02 -0.11146963077E+00  0.13319350562E+00  0.19945475065E-01 0.  0.
         14    1    1    2    0    0 -0.19051667052E-03  0.12785316512E-01  0.19128470451E-01  0.23008672207E-01  0.00000000000E+00 0.  1.
     999901    1    3    3    0    0  0.70305749457E-01 -0.13816582986E-01  0.92341160320E-01  0.88772782217E+00  0.88000000000E+00 0. -1.
        -11    1    4    4    0    0 -0.65002115326E-01  0.96553670339E-03 -0.89432448922E-01  0.11056505460E+00  0.51100000000E-03 0.  1.
         11    1    4    4    0    0 -0.51131174603E-02  0.65729770824E-04 -0.22037181849E-01  0.22628451017E-01  0.51100000000E-03 0. -1.
</event>
<event>
 8    1  0.1092667E+005  0.1043930E+01  0.7957747E-01            NaN
         13   -1    0    0    0    0  0.00000000000E+00  0.00000000000E+00  0.74505805969E-08  0.10566000000E+00  0.10566000000E+00 0. -1.
     999900   -1    0    0    0    0 -0.00000000000E+00 -0.00000000000E+00 -0.74505805969E-08  0.93827000000E+00  0.93827000000E+00 0. -1.
     999902    2    1    2    0    0 -0.15314613312E-01  0.14788448919E-01 -0.11138153454E-01  0.10199030554E+01  0.10196200020E+01 0.  0.
     999903    2    3    3    0    0 -0.25160513170E-01  0.12139918884E+00 -0.43518783583E-01  0.13282284666E+00  0.19421884493E-01 0.  0.
         14    1    1    2    0    0  0.15314613312E-01 -0.14788448919E-01  0.11138153454E-01  0.24026944556E-01  0.00000000000E+00 0. -1.
     999901    1    3    3    0    0  0.98458998586E-02 -0.10661073992E+00  0.32380630130E-01  0.88708020878E+00  0.88000000000E+00 0.  1.
        -11    1    4    4    0    0 -0.18301492169E-01  0.43312657807E-01 -0.18604916094E-01  0.50570099524E-01  0.51100000000E-03 0.  1.
         11    1    4    4    0    0 -0.68590210007E-02  0.78086531029E-01 -0.24913867489E-01  0.82252747136E-01  0.51100000000E-03 0. -1.
</event>
<event>
 8    1  0.1092667E+005  0.1043930E+01  0.7957747E-01            NaN
         13   -1    0    0    0    0  0.00000000000E+00  0.00000000000E+00  0.74505805969E-08  0.10566000000E+00  0.10566000000E+00 0.  1.
     999900   -1    0    0    0    0 -0.00000000000E+00 -0.00000000000E+00 -0.74505805969E-08  0.93827000000E+00  0.93827000000E+00 0.  1.
     999902    2    1    2    0    0 -0.12316590240E-01 -0.19919148058E-01 -0.96699000856E-03  0.10204905904E+01  0.10202213677E+01 0.  0.
     999903    2    3    3    0    0 -0.79015262040E-01 -0.33276717085E-01 -0.98915687054E-01  0.13244718786E+00  0.20179021088E-01 0.  0.
         14    1    1    2    0    0  0.12316590240E-01  0.19919148058E-01  0.96699000856E-03  0.23439409638E-01  0.00000000000E+00 0. -1.
     999901    1    3    3    0    0  0.66698671801E-01  0.13357569026E-01  0.97948697045E-01  0.88804340250E+00  0.88000000000E+00 0. -1.
        -11    1    4    4    0    0 -0.18395476286E-01  0.94208834035E-03 -0.22346738569E-01  0.28964097153E-01  0.51100000000E-03 0. -1.
         11    1    4    4    0    0 -0.60619785754E-01 -0.34218805425E-01 -0.76568948485E-01  0.10348309071E+00  0.51100000000E-03 0.  1.
</event>
<event>
 8    1  0.1092667E+005  0.1043930E+01  0.7957747E-01            NaN
         13   -1    0    0    0    0  0.00000000000E+00  0.00000000000E+00  0.74505805969E-08  0.10566000000E+00  0.10566000000E+00 0.  1.
     999900   -1    0    0    0    0 -0.00000000000E+00 -0.00000000000E+00 -0.74505805969E-08  0.93827000000E+00  0.93827000000E+00 0. -1.
     999902    2    1    2    0    0  0.19824111307E-01  0.68270221456E-02 -0.12066425170E-01  0.10197390464E+01  0.10194520688E+01 0.  0.
     999903    2    3    3    0    0  0.67606959855E-01 -0.41610303734E-01 -0.10406965685E+00  0.13233047656E+00  0.19461324551E-01 0.  0.
         14    1    1    2    0    0 -0.19824111307E-01 -0.68270221456E-02  0.12066425170E-01  0.24190953616E-01  0.00000000000E+00 0. -1.
     999901    1    3    3    0    0 -0.47782848549E-01  0.48437325880E-01  0.92003231677E-01  0.88740856982E+00  0.88000000000E+00 0.  1.
        -11    1    4    4    0    0  0.50366346407E-01 -0.22696481269E-01 -0.79791419795E-01  0.97050661545E-01  0.51100000000E-03 0.  1.
         11    1    4    4    0    0  0.17240613448E-01 -0.18913822465E-01 -0.24278237051E-01  0.35279815017E-01  0.51100000000E-03 0. -1.
</event>
<event>
 8    1  0.1092667E+005  0.1043930E+01  0.7957747E-01            NaN
         13   -1    0    0    0    0  0.00000000000E+00  0.00000000000E+00  0.74505805969E-08  0.10566000000E+00  0.10566000000E+00 0.  1.
     999900   -1    0    0    0    0 -0.00000000000E+00 -0.00000000000E+00 -0.74505805969E-08  0.93827000000E+00  0.93827000000E+00 0.  1.
     999902    2    1    2    0    0  0.11950262474E-01 -0.68442862100E-02  0.21838016654E-01  0.10181123317E+01  0.10177849320E+01 0.  0.
     999903    2    3    3    0    0 -0.72132474740E-01 -0.72370147749E-01 -0.72041034465E-01  0.12672194498E+00  0.20688366205E-01 0.  0.
         14    1    1    2    0    0 -0.11950262474E-01  0.68442862100E-02 -0.21838016654E-01  0.25817668336E-01  0.00000000000E+00 0. -1.
     999901    1    3    3    0    0  0.84082737214E-01  0.65525861539E-01  0.93879051119E-01  0.89139038668E+00  0.88000000000E+00 0. -1.
        -11    1    4    4    0    0 -0.28521282878E-01 -0.19533721531E-01 -0.15485131502E-01  0.37882453359E-01  0.51100000000E-03 0. -1.
         11    1    4    4    0    0 -0.43611191862E-01 -0.52836426217E-01 -0.56555902963E-01  0.88839491624E-01  0.51100000000E-03 0.  1.
</event>
<event>
 8    1  0.1092667E+005  0.1043930E+01  0.7957747E-01            NaN
         13   -1    0    0    0    0  0.00000000000E+00  0.00000000000E+00  0.74505805969E-08  0.10566000000E+00  0.10566000000E+00 0. -1.
     999900   -1    0    0    0    0 -0.00000000000E+00 -0.00000000000E+00 -0.74505805969E-08  0.93827000000E+00  0.93827000000E+00 0.  1.
     999902    2    1    2    0    0  0.21274222960E-01 -0.22714448519E-02  0.91732213903E-02  0.10206512540E+01  0.10203857517E+01 0.  0.
     999903    2    3    3    0    0 -0.40571338220E-01  0.10494729661E+00  0.61529133322E-01  0.13044797752E+00  0.23892928677E-01 0.  0.
         14    1    1    2    0    0 -0.21274222960E-01  0.22714448519E-02 -0.91732213903E-02  0.23278745991E-01  0.00000000000E+00 0.  1.
     999901    1    3    3    0    0  0.61845561180E-01 -0.10721874146E+00 -0.52355911931E-01  0.89020327649E+00  0.88000000000E+00 0. -1.
        -11    1    4    4    0    0 -0.38535070026E-01  0.72282488124E-01  0.39094494695E-01  0.90765358743E-01  0.51100000000E-03 0. -1.
         11    1    4    4    0    0 -0.20362681935E-02  0.32664808486E-01  0.22434638627E-01  0.39682618776E-01  0.51100000000E-03 0.  1.
</event>
<event>
 8    1  0.1092667E+005  0.1043930E+01  0.7957747E-01            NaN
         13   -1    0    0    0    0  0.00000000000E+00  0.00000000000E+00  0.74505805969E-08  0.10566000000E+00  0.10566000000E+00 0. -1.
     999900   -1    0    0    0    0 -0.00000000000E+00 -0.00000000000E+00 -0.74505805969E-08  0.93827000000E+00  0.93827000000E+00 0. -1.
     999902    2    1    2    0    0 -0.85159407760E-02  0.17049083074E-01  0.78176638014E-02  0.10233312537E+01  0.10231239155E+01 0.  0.
     999903    2    3    3    0    0  0.37505342971E-01 -0.44678444837E-02  0.12656605615E+00  0.13390328170E+00  0.22011585482E-01 0.  0.
         14    1    1    2    0    0  0.85159407760E-02 -0.17049083074E-01 -0.78176638014E-02  0.20598746279E-01  0.00000000000E+00 0. -1.
     999901    1    3    3    0    0 -0.46021283747E-01  0.21516927557E-01 -0.11874839235E+00  0.88942797202E+00  0.88000000000E+00 0. -1.
        -11    1    4    4    0    0  0.18530522774E-01  0.34816886139E-02  0.89895576630E-01  0.91853025255E-01  0.51100000000E-03 0.  1.
         11    1    4    4    0    0  0.18974820197E-01 -0.79495330977E-02  0.36670479518E-01  0.42050256445E-01  0.51100000000E-03 0. -1.
</event>
<event>
 8    1  0.1092667E+005  0.1043930E+01  0.7957747E-01            NaN
         13   -1    0    0    0    0  0.00000000000E+00  0.00000000000E+00  0.74505805969E-08  0.10566000000E+00  0.10566000000E+00 0.  1.
     999900   -1    0    0    0    0 -0.00000000000E+00 -0.00000000000E+00 -0.74505805969E-08  0.93827000000E+00  0.93827000000E+00 0.  1.
     999902    2    1    2    0    0 -0.68265212303E-02  0.20402128153E-01 -0.12604392675E-02  0.10223792011E+01  0.10221520405E+01 0.  0.
     999903    2    3    3    0    0  0.12734814048E+00  0.28871974560E-01  0.60020008745E-02  0.13213916541E+00  0.19328611463E-01 0.  0.
         14    1    1    2    0    0  0.68265212303E-02 -0.20402128153E-01  0.12604392675E-02  0.21550798882E-01  0.00000000000E+00 0.  1.
     999901    1    3    3    0    0 -0.13417466171E+00 -0.84698464068E-02 -0.72624401420E-02  0.89024003571E+00  0.88000000000E+00 0. -1.
        -11    1    4    4    0    0  0.31917078723E-01  0.14613204559E-01  0.61820882486E-02  0.35647229876E-01  0.51100000000E-03 0. -1.
         11    1    4    4    0    0  0.95431061759E-01  0.14258770001E-01 -0.18008737409E-03  0.96491935533E-01  0.51100000000E-03 0.  1.
</event>
<event>
 8    1  0.1092667E+005  0.1043930E+01  0.7957747E-01            NaN
         13   -1    0    0    0    0  0.00000000000E+00  0.00000000000E+00  0.74505805969E-08  0.10566000000E+00  0.10566000000E+00 0.  1.
     999900   -1    0    0    0    0 -0.00000000000E+00 -0.00000000000E+00 -0.74505805969E-08  0.93827000000E+00  0.93827000000E+00 0. -1.
     999902    2    1    2    0    0  0.58012216670E-02  0.22320637223E-01  0.77561493379E-02  0.10195984799E+01  0.10193081170E+01 0.  0.
     999903    2    3    3    0    0  0.26340323964E-01  0.48666089708E-01 -0.11624452731E+00  0.13027733125E+00  0.19929675232E-01 0.  0.
         14    1    1    2    0    0 -0.58012216670E-02 -0.22320637223E-01 -0.77561493379E-02  0.24331520121E-01  0.00000000000E+00 0.  1.
     999901    1    3    3    0    0 -0.20539102297E-01 -0.26345452486E-01  0.12400067664E+00  0.88932114863E+00  0.88000000000E+00 0.  1.
        -11    1    4    4    0    0  0.29181563745E-01  0.41249578795E-01 -0.95222341957E-01  0.10779910455E+00  0.51100000000E-03 0.  1.
         11    1    4    4    0    0 -0.28412397814E-02  0.74165109139E-02 -0.21022185350E-01  0.22478226699E-01  0.51100000000E-03 0. -1.
</event>
<event>
 8    1  0.1092667E+005  0.1043930E+01  0.7957747E-01            NaN
         13   -1    0    0    0    0  0.00000000000E+00  0.00000000000E+00  0.74505805969E-08  0.10566000000E+00  0.10566000000E+00 0.  1.
     999900   -1    0    0    0    0 -0.00000000000E+00 -0.00000000000E+00 -0.74505805969E-08  0.93827000000E+00  0.93827000000E+00 0. -1.
     999902    2    1    2    0    0 -0.98980409103E-02 -0.30665083420E-02  0.21617975281E-01  0.10199568579E+01  0.10196750857E+01 0.  0.
     999903    2    3    3    0    0 -0.12326095464E+00  0.31507922327E-01 -0.23652728718E-01  0.13085845046E+00  0.19454315021E-01 0.  0.
         14    1    1    2    0    0  0.98980409103E-02  0.30665083420E-02 -0.21617975281E-01  0.23973142108E-01  0.00000000000E+00 0. -1.
     999901    1    3    3    0    0  0.11336291373E+00 -0.34574430669E-01  0.45270704000E-01  0.88909840744E+00  0.88000000000E+00 0.  1.
        -11    1    4    4    0    0 -0.44964392026E-01  0.21068194050E-01 -0.72895868819E-02  0.50190283409E-01  0.51100000000E-03 0.  1.
         11    1    4    4    0    0 -0.78296562609E-01  0.10439728277E-01 -0.16363141837E-01  0.80668167047E-01  0.51100000000E-03 0. -1.
</event>
<event>
 8    1  0.1092667E+005  0.1043930E+01  0.7957747E-01            NaN
         13   -1    0    0    0    0  0.00000000000E+00  0.00000000000E+00  0.74505805969E-08  0.10566000000E+00  0.10566000000E+00 0. -1.
     999900   -1    0    0    0    0 -0.00000000000E+00 -0.00000000000E+00 -0.74505805969E-08  0.93827000000E+00  0.93827000000E+00 0. -1.
     999902    2    1    2    0    0 -0.12995392923E-02 -0.70524700981E-02  0.20844370778E-01  0.10218865445E+01  0.10216487635E+01 0.  0.
     999903    2    3    3    0    0  0.90424920031E-01  0.61977360157E-01 -0.67324543817E-01  0.13006130860E+00  0.19117804788E-01 0.  0.
         14    1    1    2    0    0  0.12995392923E-02  0.70524700981E-02 -0.20844370778E-01  0.22043455491E-01  0.00000000000E+00 0.  1.
     999901    1    3    3    0    0 -0.91724459323E-01 -0.69029830255E-01  0.88168914595E-01  0.89182523591E+00  0.88000000000E+00 0.  1.
        -11    1    4    4    0    0  0.20856617236E-01  0.83304492141E-02 -0.71434231657E-02  0.23572960827E-01  0.51100000000E-03 0. -1.
         11    1    4    4    0    0  0.69568302795E-01  0.53646910943E-01 -0.60181120651E-01  0.10648834777E+00  0.51100000000E-03 0.  1.
</event>
<event>
 8    1  0.1092667E+005  0.1043930E+01  0.7957747E-01            NaN
         13   -1    0    0    0    0  0.00000000000E+00  0.00000000000E+00  0.74505805969E-08  0.10566000000E+00  0.10566000000E+00 0.  1.
     999900   -1    0    0    0    0 -0.00000000000E+00 -0.00000000000E+00 -0.74505805969E-08  0.93827000000E+00  0.93827000000E+00 0. -1.
     999902    2    1    2    0    0 -0.32329872251E-02  0.70900461895E-02  0.23842030522E-01  0.10188468706E+01  0.10185380613E+01 0.  0.
     999903    2    3    3    0    0  0.91895121710E-01 -0.19661200624E-01 -0.82919888600E-01  0.12690343422E+00  0.19937339027E-01 0.  0.
         14    1    1    2    0    0  0.32329872251E-02 -0.70900461895E-02 -0.23842030522E-01  0.25083129406E-01  0.00000000000E+00 0. -1.
     999901    1    3    3    0    0 -0.95128108935E-01  0.26751246813E-01  0.10676191912E+00  0.89194343637E+00  0.88000000000E+00 0.  1.
        -11    1    4    4    0    0  0.51146413126E-01 -0.22314576015E-02 -0.51148425754E-01  0.72369590000E-01  0.51100000000E-03 0.  1.
         11    1    4    4    0    0  0.40748708584E-01 -0.17429743022E-01 -0.31771462846E-01  0.54533844221E-01  0.51100000000E-03 0. -1.
</event>
<event>
 8    1  0.1092667E+005  0.1043930E+01  0.7957747E-01            NaN
         13   -1    0    0    0    0  0.00000000000E+00  0.00000000000E+00  0.74505805969E-08  0.10566000000E+00  0.10566000000E+00 0.  1.
     999900   -1    0    0    0    0 -0.00000000000E+00 -0.00000000000E+00 -0.74505805969E-08  0.93827000000E+00  0.93827000000E+00 0. -1.
     999902    2    1    2    0    0 -0.11991805052E-01  0.13411426637E-01  0.14588333056E-01  0.10207677632E+01  0.10205049422E+01 0.  0.
     999903    2    3    3    0    0 -0.23404848357E-01  0.12630880009E+00 -0.26609061654E-01  0.13252607320E+00  0.18799415155E-01 0.  0.
         14    1    1    2    0    0  0.11991805052E-01 -0.13411426637E-01 -0.14588333056E-01  0.23162236814E-01  0.00000000000E+00 0. -1.
     999901    1    3    3    0    0  0.11413043305E-01 -0.11289737345E+00  0.41197394711E-01  0.88824168998E+00  0.88000000000E+00 0.  1.
        -11    1    4    4    0    0 -0.41440322633E-02  0.57674175189E-01 -0.50283811046E-02  0.58043339193E-01  0.51100000000E-03 0. -1.
         11    1    4    4    0    0 -0.19260816093E-01  0.68634624902E-01 -0.21580680550E-01  0.74482734012E-01  0.51100000000E-03 0.  1.
</event>
<event>
 8    1  0.1092667E+005  0.1043930E+01  0.7957747E-01            NaN
         13   -1    0    0    0    0  0.00000000000E+00  0.00000000000E+00  0.74505805969E-08  0.10566000000E+00  0.10566000000E+00 0.  1.
     999900   -1    0    0    0    0 -0.00000000000E+00 -0.00000000000E+00 -0.74505805969E-08  0.93827000000E+00  0.93827000000E+00 0. -1.
     999902    2    1    2    0    0  0.58548742801E-02 -0.19170456794E-01  0.12928836270E-01  0.10200775206E+01  0.10197986111E+01 0.  0.
     999903    2    3    3    0    0  0.73204694142E-01  0.63601330714E-01 -0.81991697305E-01  0.12856359769E+00  0.20047536261E-01 0.  0.
         14    1    1    2    0    0 -0.58548742801E-02  0.19170456794E-01 -0.12928836270E-01  0.23852479406E-01  0.00000000000E+00 0. -1.
     999901    1    3    3    0    0 -0.67349819861E-01 -0.82771787509E-01  0.94920533575E-01  0.89151392291E+00  0.88000000000E+00 0.  1.
        -11    1    4    4    0    0  0.52629390776E-01  0.52858215451E-01 -0.53421039471E-01  0.91749181431E-01  0.51100000000E-03 0.  1.
         11    1    4    4    0    0  0.20575303366E-01  0.10743115263E-01 -0.28570657834E-01  0.36814416255E-01  0.51100000000E-03 0. -1.
</event>
<event>
 8    1  0.1092667E+005  0.1043930E+01  0.7957747E-01            NaN
         13   -1    0    0    0    0  0.00000000000E+00  0.00000000000E+00  0.74505805969E-08  0.10566000000E+00  0.10566000000E+00 0. -1.
     999900   -1    0    0    0    0 -0.00000000000E+00 -0.00000000000E+00 -0.74505805969E-08  0.93827000000E+00  0.93827000000E+00 0.  1.
     999902    2    1    2    0    0 -0.10952171377E-01 -0.21331460984E-01  0.25320310208E-03  0.10199498958E+01  0.10196679580E+01 0.  0.
     999903    2    3    3    0    0  0.87823228493E-01  0.26647447096E-01 -0.87924574368E-01  0.12875189553E+00  0.20574594195E-01 0.  0.
         14    1    1    2    0    0  0.10952171377E-01  0.21331460984E-01 -0.25320310208E-03  0.23980104199E-01  0.00000000000E+00 0.  1.
     999901    1    3    3    0    0 -0.98775399870E-01 -0.47978908080E-01  0.88177777470E-01  0.89119800027E+00  0.88000000000E+00 0. -1.
        -11    1    4    4    0    0  0.48883973845E-01  0.46579036989E-02 -0.50450082839E-01  0.70404623038E-01  0.51100000000E-03 0. -1.
         11    1    4    4    0    0  0.38939254647E-01  0.21989543397E-01 -0.37474491530E-01  0.58347272496E-01  0.51100000000E-03 0.  1.
</event>
<event>
 8    1  0.1092667E+005  0.1043930E+01  0.7957747E-01            NaN
         13   -1    0    0    0    0  0.00000000000E+00  0.00000000000E+00  0.74505805969E-08  0.10566000000E+00  0.10566000000E+00 0.  1.
     999900   -1    0    0    0    0 -0.00000000000E+00 -0.00000000000E+00 -0.74505805969E-08  0.93827000000E+00  0.93827000000E+00 0.  1.
     999902    2    1    2    0    0 -0.19044455862E-01 -0.10360087906E-01  0.75684726763E-02  0.10209668883E+01  0.10207086178E+01 0.  0.
     999903    2    3    3    0    0 -0.77357585011E-01 -0.97252018132E-01 -0.43332255418E-01  0.13330619147E+00  0.21229821831E-01 0.  0.
         14    1    1    2    0    0  0.19044455862E-01  0.10360087906E-01 -0.75684726763E-02  0.22963111705E-01  0.00000000000E+00 0. -1.
     999901    1    3    3    0    0  0.58313129148E-01  0.86891930227E-01  0.50900728094E-01  0.88766069683E+00  0.88000000000E+00 0.  1.
        -11    1    4    4    0    0 -0.28331408834E-01 -0.22332243897E-01 -0.74058257335E-02  0.36830764583E-01  0.51100000000E-03 0.  1.
         11    1    4    4    0    0 -0.49026176177E-01 -0.74919774236E-01 -0.35926429684E-01  0.96475426886E-01  0.51100000000E-03 0. -1.
</event>
<event>
 8    1  0.1092667E+005  0.1043930E+01  0.7957747E-01            NaN
         13   -1    0    0    0    0  0.00000000000E+00  0.00000000000E+00  0.74505805969E-08  0.10566000000E+00  0.10566000000E+00 0.  1.
     999900   -1    0    0    0    0 -0.00000000000E+00 -0.00000000000E+00 -0.74505805969E-08  0.93827000000E+00  0.93827000000E+00 0. -1.
     999902    2    1    2    0    0  0.98258853632E-02 -0.11234357531E-01 -0.20622404789E-01  0.10184733232E+01  0.10181551295E+01 0.  0.
     999903    2    3    3    0    0  0.83071326526E-01  0.51853237878E-01 -0.85287027178E-01  0.13082110940E+00  0.15832943229E-01 0.  0.
         14    1    1    2    0    0 -0.98258853632E-02  0.11234357531E-01  0.20622404789E-01  0.25456676758E-01  0.00000000000E+00 0.  1.
     999901    1    3    3    0    0 -0.73245441162E-01 -0.63087595409E-01  0.64664622389E-01  0.88765221384E+00  0.88000000000E+00 0.  1.
        -11    1    4    4    0    0  0.33387544843E-01  0.21760205266E-01 -0.45092705530E-01  0.60181790409E-01  0.51100000000E-03 0.  1.
         11    1    4    4    0    0  0.49683781683E-01  0.30093032612E-01 -0.40194321648E-01  0.70639318993E-01  0.51100000000E-03 0. -1.
</event>
<event>
 8    1  0.1092667E+005  0.1043930E+01  0.7957747E-01            NaN
         13   -1    0    0    0    0  0.00000000000E+00  0.00000000000E+00  0.74505805969E-08  0.10566000000E+00  0.10566000000E+00 0. -1.
     999900   -1    0    0    0    0 -0.00000000000E+00 -0.00000000000E+00 -0.74505805969E-08  0.93827000000E+00  0.93827000000E+00 0. -1.
     999902    2    1    2    0    0  0.26098172045E-02  0.17487532006E-01  0.16741112876E-01  0.10195806718E+01  0.10192898786E+01 0.  0.
     999903    2    3    3    0    0  0.12793978757E+00 -0.11053271505E-01 -0.76594149077E-02  0.12990794286E+00  0.18073265505E-01 0.  0.
         14    1    1    2    0    0 -0.26098172045E-02 -0.17487532006E-01 -0.16741112876E-01  0.24349328160E-01  0.00000000000E+00 0.  1.
     999901    1    3    3    0    0 -0.12532997037E+00  0.28540803511E-01  0.24400527784E-01  0.88967272898E+00  0.88000000000E+00 0.  1.
        -11    1    4    4    0    0  0.60316981371E-01 -0.12904904702E-01 -0.84022348810E-02  0.62253782849E-01  0.51100000000E-03 0. -1.
         11    1    4    4    0    0  0.67622806201E-01  0.18516331968E-02  0.74281997326E-03  0.67654160009E-01  0.51100000000E-03 0.  1.
</event>
<event>
 8    1  0.1092667E+005  0.1043930E+01  0.7957747E-01            NaN
         13   -1    0    0    0    0  0.00000000000E+00  0.00000000000E+00  0.74505805969E-08  0.10566000000E+00  0.10566000000E+00 0.  1.
     999900   -1    0    0    0    0 -0.00000000000E+00 -0.00000000000E+00 -0.74505805969E-08  0.93827000000E+00  0.93827000000E+00 0. -1.
     999902    2    1    2    0    0  0.64604211645E-02 -0.21342221109E-01 -0.94874568082E-02  0.10196969795E+01  0.10194089909E+01 0.  0.
     999903    2    3    3    0    0 -0.69787898226E-01 -0.10652266979E+00  0.27999411631E-01  0.13151074888E+00  0.17137097207E-01 0.  0.
         14    1    1    2    0    0 -0.64604211645E-02  0.21342221109E-01  0.94874568082E-02  0.24233020451E-01  0.00000000000E+00 0. -1.
     999901    1    3    3    0    0  0.76248319391E-01  0.85180448682E-01 -0.37486868439E-01  0.88818623067E+00  0.88000000000E+00 0. -1.
        -11    1    4    4    0    0 -0.52112134916E-01 -0.85582653953E-01  0.15521896990E-01  0.10139652691E+00  0.51100000000E-03 0. -1.
         11    1    4    4    0    0 -0.17675763310E-01 -0.20940015838E-01  0.12477514641E-01  0.30114221964E-01  0.51100000000E-03 0.  1.
</event>
<event>
 8    1  0.1092667E+005  0.1043930E+01  0.7957747E-01            NaN
         13   -1    0    0    0    0  0.00000000000E+00  0.00000000000E+00  0.74505805969E-08  0.10566000000E+00  0.10566000000E+00 0. -1.
     999900   -1    0    0    0    0 -0.00000000000E+00 -0.00000000000E+00 -0.74505805969E-08  0.93827000000E+00  0.93827000000E+00 0.  1.
     999902    2    1    2    0    0  0.13402369928E-01 -0.21249457445E-02 -0.19014846147E-01  0.10205697070E+01  0.10203023197E+01 0.  0.
     999903    2    3    3    0    0  0.25026108570E-01 -0.98749388631E-01 -0.82823110691E-01  0.13290823501E+00  0.20668415620E-01 0.  0.
         14    1    1    2    0    0 -0.13402369928E-01  0.21249457445E-02  0.19014846147E-01  0.23360292980E-01  0.00000000000E+00 0. -1.
     999901    1    3    3    0    0 -0.11623738642E-01  0.96624442887E-01  0.63808264544E-01  0.88766147201E+00  0.88000000000E+00 0.  1.
        -11    1    4    4    0    0  0.15738764115E-01 -0.56470334470E-01 -0.34469359987E-01  0.68007391289E-01  0.51100000000E-03 0. -1.
         11    1    4    4    0    0  0.92873444550E-02 -0.42279054161E-01 -0.48353750704E-01  0.64900843723E-01  0.51100000000E-03 0.  1.
</event>
<event>
 8    1  0.1092667E+005  0.1043930E+01  0.7957747E-01            NaN
         13   -1    0    0    0    0  0.00000000000E+00  0.00000000000E+00  0.74505805969E-08  0.10566000000E+00  0.10566000000E+00 0.  1.
     999900   -1    0    0    0    0 -0.00000000000E+00 -0.00000000000E+00 -0.74505805969E-08  0.93827000000E+00  0.93827000000E+00 0. -1.
     999902    2    1    2    0    0  0.18812557012E-01 -0.13207867130E-02 -0.14858205365E-01  0.10199211882E+01  0.10196385669E+01 0.  0.
     999903    2    3    3    0    0 -0.40892143748E-01  0.71007973198E-02 -0.12291050838E+00  0.13126440709E+00  0.20019059825E-01 0.  0.
         14    1    1    2    0    0 -0.18812557012E-01  0.13207867130E-02  0.14858205365E-01  0.24008811831E-01  0.00000000000E+00 0. -1.
     999901    1    3    3    0    0  0.59704700760E-01 -0.84215840328E-02  0.10805230301E+00  0.88865678108E+00  0.88000000000E+00 0.  1.
        -11    1    4    4    0    0 -0.20722154846E-01 -0.55164027664E-02 -0.45973644482E-01  0.50731405548E-01  0.51100000000E-03 0. -1.
         11    1    4    4    0    0 -0.20169988903E-01  0.12617200086E-01 -0.76936863896E-01  0.80533001543E-01  0.51100000000E-03 0.  1.
</event>
<event>
 8    1  0.1092667E+005  0.1043930E+01  0.7957747E-01            NaN
         13   -1    0    0    0    0  0.00000000000E+00  0.00000000000E+00  0.74505805969E-08  0.10566000000E+00  0.10566000000E+00 0. -1.
     999900   -1    0    0    0    0 -0.00000000000E+00 -0.00000000000E+00 -0.74505805969E-08  0.93827000000E+00  0.93827000000E+00 0. -1.
     999902    2    1    2    0    0  0.12699102067E-01 -0.96093247624E-03 -0.19308884534E-01  0.10207994227E+01  0.10205373280E+01 0.  0.
     999903    2    3    3    0    0  0.60920395692E-02 -0.10358105492E+00  0.75353036367E-01  0.12976888333E+00  0.19893091970E-01 0.  0.
         14    1    1    2    0    0 -0.12699102067E-01  0.96093247624E-03  0.19308884534E-01  0.23130577305E-01  0.00000000000E+00 0. -1.
     999901    1    3    3    0    0  0.66070624975E-02  0.10262012244E+00 -0.94661920901E-01  0.89103053936E+00  0.88000000000E+00 0. -1.
        -11    1    4    4    0    0 -0.70182201031E-02 -0.28668561131E-01  0.23325276377E-01  0.37622751757E-01  0.51100000000E-03 0. -1.
         11    1    4    4    0    0  0.13110259672E-01 -0.74912493786E-01  0.52027759991E-01  0.92146131577E-01  0.51100000000E-03 0.  1.
</event>
<event>
 8    1  0.1092667E+005  0.1043930E+01  0.7957747E-01            NaN
         13   -1    0    0    0    0  0.00000000000E+00  0.00000000000E+00  0.74505805969E-08  0.10566000000E+00  0.10566000000E+00 0. -1.
     999900   -1    0    0    0    0 -0.00000000000E+00 -0.00000000000E+00 -0.74505805969E-08  0.93827000000E+00  0.93827000000E+00 0.  1.
     999902    2    1    2    0    0 -0.23959916454E-01 -0.79915169785E-03  0.40000250527E-04  0.10199567265E+01  0.10196749512E+01 0.  0.
     999903    2    3    3    0    0 -0.50546460165E-01  0.93621828994E-01  0.74476737291E-01  0.13138315406E+00  0.19868499552E-01 0.  0.
         14    1    1    2    0    0  0.23959916454E-01  0.79915169785E-03 -0.40000250527E-04  0.23973273451E-01  0.00000000000E+00 0.  1.
     999901    1    3    3    0    0  0.26586543711E-01 -0.94420980692E-01 -0.74436737041E-01  0.88857357249E+00  0.88000000000E+00 0.  1.
        -11    1    4    4    0    0 -0.29056951921E-01  0.40396585811E-01  0.43822360028E-01  0.66308754773E-01  0.51100000000E-03 0.  1.
         11    1    4    4    0    0 -0.21489508244E-01  0.53225243183E-01  0.30654377263E-01  0.65074399289E-01  0.51100000000E-03 0. -1.
</event>
<event>
 8    1  0.1092667E+005  0.1043930E+01  0.7957747E-01            NaN
         13   -1    0    0    0    0  0.00000000000E+00  0.00000000000E+00  0.74505805969E-08  0.10566000000E+00  0.10566000000E+00 0.  1.
     999900   -1    0    0    0    0 -0.00000000000E+00 -0.00000000000E+00 -0.74505805969E-08  0.93827000000E+00  0.93827000000E+00 0. -1.
     999902    2    1    2    0    0 -0.20952614505E-01  0.95611383284E-02  0.93865724475E-03  0.10208798699E+01  0.10206196158E+01 0.  0.
     999903    2    3    3    0    0  0.49807832712E-01 -0.16768989672E-01 -0.11692868757E+00  0.12981700594E+00  0.20447929969E-01 0.  0.
         14    1    1    2    0    0  0.20952614505E-01 -0.95611383284E-02 -0.93865724475E-03  0.23050130112E-01  0.00000000000E+00 0. -1.
     999901    1    3    3    0    0 -0.70760447217E-01  0.26330128001E-01  0.11786734482E+00  0.89106286395E+00  0.88000000000E+00 0.  1.
        -11    1    4    4    0    0  0.47282368096E-01 -0.89566723281E-02 -0.98061761318E-01  0.10923467611E+00  0.51100000000E-03 0. -1.
         11    1    4    4    0    0  0.25254646153E-02 -0.78123173442E-02 -0.18866926255E-01  0.20582329827E-01  0.51100000000E-03 0.  1.
</event>
<event>
 8    1  0.1092667E+005  0.1043930E+01  0.7957747E-01            NaN
         13   -1    0    0    0    0  0.00000000000E+00  0.00000000000E+00  0.74505805969E-08  0.10566000000E+00  0.10566000000E+00 0. -1.
     999900   -1    0    0    0    0 -0.00000000000E+00 -0.00000000000E+00 -0.74505805969E-08  0.93827000000E+00  0.93827000000E+00 0. -1.
     999902    2    1    2    0    0 -0.16206652242E-01  0.15230092446E-01 -0.71717688237E-02  0.10205623822E+01  0.10202948253E+01 0.  0.
     999903    2    3    3    0    0  0.16546252497E-01  0.11644201596E+00 -0.57593719137E-01  0.13272288135E+00  0.21582520641E-01 0.  0.
         14    1    1    2    0    0  0.16206652242E-01 -0.15230092446E-01  0.71717688237E-02  0.23367617783E-01  0.00000000000E+00 0. -1.
     999901    1    3    3    0    0 -0.32752904738E-01 -0.10121192351E+00  0.50421950313E-01  0.88783950087E+00  0.88000000000E+00 0.  1.
        -11    1    4    4    0    0  0.34957251018E-02  0.42043777161E-01 -0.97307590152E-02  0.43299515978E-01  0.51100000000E-03 0.  1.
         11    1    4    4    0    0  0.13050527395E-01  0.74398238797E-01 -0.47862960122E-01  0.89423365370E-01  0.51100000000E-03 0. -1.
</event>
<event>
 8    1  0.1092667E+005  0.1043930E+01  0.7957747E-01            NaN
         13   -1    0    0    0    0  0.00000000000E+00  0.00000000000E+00  0.74505805969E-08  0.10566000000E+00  0.10566000000E+00 0. -1.
     999900   -1    0    0    0    0 -0.00000000000E+00 -0.00000000000E+00 -0.74505805969E-08  0.93827000000E+00  0.93827000000E+00 0.  1.
     999902    2    1    2    0    0  0.12004255067E-01 -0.11150039701E-01 -0.17582813079E-01  0.10198970884E+01  0.10196138926E+01 0.  0.
     999903    2    3    3    0    0 -0.77980369335E-01 -0.97724734297E-01  0.28818675047E-01  0.12987152219E+00  0.20125470178E-01 0.  0.
         14    1    1    2    0    0 -0.12004255067E-01  0.11150039701E-01  0.17582813079E-01  0.24032911617E-01  0.00000000000E+00 0.  1.
     999901    1    3    3    0    0  0.89984624402E-01  0.86574694596E-01 -0.46401488125E-01  0.89002556619E+00  0.88000000000E+00 0. -1.
        -11    1    4    4    0    0 -0.30188298962E-01 -0.23142864403E-01  0.93937851425E-02  0.39184561849E-01  0.51100000000E-03 0.  1.
         11    1    4    4    0    0 -0.47792070373E-01 -0.74581869894E-01  0.19424889904E-01  0.90686960343E-01  0.51100000000E-03 0. -1.
</event>
<event>
 8    1  0.1092667E+005  0.1043930E+01  0.7957747E-01            NaN
         13   -1    0    0    0    0  0.00000000000E+00  0.00000000000E+00  0.74505805969E-08  0.10566000000E+00  0.10566000000E+00 0.  1.
     999900   -1    0    0    0    0 -0.00000000000E+00 -0.00000000000E+00 -0.74505805969E-08  0.93827000000E+00  0.93827000000E+00 0.  1.
     999902    2    1    2    0    0 -0.17304174660E-01 -0.68573293925E-02  0.11090416107E-01  0.10222630954E+01  0.10220334541E+01 0.  0.
     999903    2    3    3    0    0 -0.95209970877E-01 -0.60958851350E-01 -0.68254896134E-01  0.13361695300E+00  0.20343037399E-01 0.  0.
         14    1    1    2    0    0  0.17304174660E-01  0.68573293925E-02 -0.11090416107E-01  0.21666904636E-01  0.00000000000E+00 0. -1.
     999901    1    3    3    0    0  0.77905796217E-01  0.54101521958E-01  0.79345312242E-01  0.88864614236E+00  0.88000000000E+00 0. -1.
        -11    1    4    4    0    0 -0.52134196722E-01 -0.29546015629E-01 -0.47247209628E-01  0.76311869628E-01  0.51100000000E-03 0.  1.
         11    1    4    4    0    0 -0.43075774155E-01 -0.31412835721E-01 -0.21007686506E-01  0.57305083373E-01  0.51100000000E-03 0. -1.
</event>
<event>
 8    1  0.1092667E+005  0.1043930E+01  0.7957747E-01            NaN
         13   -1    0    0    0    0  0.00000000000E+00  0.00000000000E+00  0.74505805969E-08  0.10566000000E+00  0.10566000000E+00 0.  1.
     999900   -1    0    0    0    0 -0.00000000000E+00 -0.00000000000E+00 -0.74505805969E-08  0.93827000000E+00  0.93827000000E+00 0.  1.
     999902    2    1    2    0    0 -0.19719485242E-01  0.98146509622E-02 -0.93155474288E-02  0.10200142124E+01  0.10197338028E+01 0.  0.
     999903    2    3    3    0    0  0.65702200788E-01  0.10741017707E+00 -0.27908511158E-01  0.13031344842E+00  0.18681127281E-01 0.  0.
         14    1    1    2    0    0  0.19719485242E-01 -0.98146509622E-02  0.93155474288E-02  0.23915787581E-01  0.00000000000E+00 0.  1.
     999901    1    3    3    0    0 -0.85421686031E-01 -0.97595526111E-01  0.18592963729E-01  0.88970076400E+00  0.88000000000E+00 0. -1.
        -11    1    4    4    0    0  0.48111862743E-02  0.14077926056E-01 -0.86642227999E-02  0.17223977274E-01  0.51100000000E-03 0. -1.
         11    1    4    4    0    0  0.60891014514E-01  0.93332251018E-01 -0.19244288358E-01  0.11308947115E+00  0.51100000000E-03 0.  1.
</event>
<event>
 7    1  0.1092667E+005  0.1043930E+01  0.7957747E-01            NaN
         13   -1    0    0    0    0  0.00000000000E+00  0.00000000000E+00  0.74505805969E-08  0.10566000000E+00  0.10566000000E+00 0.  1.
     999900   -1    0    0    0    0 -0.00000000000E+00 -0.00000000000E+00 -0.74505805969E-08  0.93827000000E+00  0.93827000000E+00 0. -1.
     999902    2    1    2    0    0  0.22589638726E-01 -0.60620658382E-02  0.59693211834E-02  0.10197913750E+01  0.10195056524E+01 0.  0.
         14    1    1    2    0    0 -0.22589638726E-01  0.60620658382E-02 -0.59693211834E-02  0.24138624969E-01  0.00000000000E+00 0. -1.
     999901    1    3    3    0    0  0.97008579225E-01  0.28871027888E-01 -0.77584618303E-01  0.88919265274E+00  0.88000000000E+00 0. -1.
        -11    1    3    3    0    0 -0.44342663994E-01  0.98232128392E-02  0.28989732321E-01  0.53883513820E-01  0.51100000000E-03 0.  1.
         11    1    3    3    0    0 -0.30076276506E-01 -0.44756306565E-01  0.54564207165E-01  0.76715208468E-01  0.51100000000E-03 0. -1.
</event>
<event>
 8    1  0.1092667E+005  0.1043930E+01  0.7957747E-01            NaN
         13   -1    0    0    0    0  0.00000000000E+00  0.00000000000E+00  0.74505805969E-08  0.10566000000E+00  0.10566000000E+00 0. -1.
     999900   -1    0    0    0    0 -0.00000000000E+00 -0.00000000000E+00 -0.74505805969E-08  0.93827000000E+00  0.93827000000E+00 0. -1.
     999902    2    1    2    0    0  0.43108396636E-02  0.20586989820E-01 -0.11148091098E-01  0.10201248026E+01  0.10198470108E+01 0.  0.
     999903    2    3    3    0    0 -0.99929532682E-02  0.12684453028E+00 -0.34200220595E-01  0.13331779762E+00  0.20361387392E-01 0.  0.
         14    1    1    2    0    0 -0.43108396636E-02 -0.20586989820E-01  0.11148091098E-01  0.23805197407E-01  0.00000000000E+00 0.  1.
     999901    1    3    3    0    0  0.14303792932E-01 -0.10625754046E+00  0.23052129497E-01  0.88680700497E+00  0.88000000000E+00 0. -1.
        -11    1    4    4    0    0 -0.13603268144E-01  0.49232440523E-01 -0.15852843354E-01  0.53483229778E-01  0.51100000000E-03 0.  1.
         11    1    4    4    0    0  0.36103148761E-02  0.77612089755E-01 -0.18347377242E-01  0.79834567841E-01  0.51100000000E-03 0. -1.
</event>
<event>
 8    1  0.1092667E+005  0.1043930E+01  0.7957747E-01            NaN
         13   -1    0    0    0    0  0.00000000000E+00  0.00000000000E+00  0.74505805969E-08  0.10566000000E+00  0.10566000000E+00 0. -1.
     999900   -1    0    0    0    0 -0.00000000000E+00 -0.00000000000E+00 -0.74505805969E-08  0.93827000000E+00  0.93827000000E+00 0. -1.
     999902    2    1    2    0    0  0.18199633105E-02 -0.22477324535E-01 -0.14049221239E-02  0.10213353947E+01  0.10210854382E+01 0.  0.
     999903    2    3    3    0    0 -0.10675433429E-01  0.78015342576E-01  0.10070651614E+00  0.12966187990E+00  0.21680455511E-01 0.  0.
         14    1    1    2    0    0 -0.18199633105E-02  0.22477324535E-01  0.14049221239E-02  0.22594605349E-01  0.00000000000E+00 0.  1.
     999901    1    3    3    0    0  0.12495396740E-01 -0.10049266711E+00 -0.10211143826E+00  0.89167351475E+00  0.88000000000E+00 0. -1.
        -11    1    4    4    0    0 -0.16730272599E-01  0.45310921156E-01  0.62840012923E-01  0.79259762442E-01  0.51100000000E-03 0. -1.
         11    1    4    4    0    0  0.60548391696E-02  0.32704421420E-01  0.37866503212E-01  0.50402117459E-01  0.51100000000E-03 0.  1.
</event>
<event>
 8    1  0.1092667E+005  0.1043930E+01  0.7957747E-01            NaN
         13   -1    0    0    0    0  0.00000000000E+00  0.00000000000E+00  0.74505805969E-08  0.10566000000E+00  0.10566000000E+00 0. -1.
     999900   -1    0    0    0    0 -0.00000000000E+00 -0.00000000000E+00 -0.74505805969E-08  0.93827000000E+00  0.93827000000E+00 0. -1.
     999902    2    1    2    0    0 -0.18312807125E-01  0.15089545664E-01 -0.13299960981E-02  0.10201640121E+01  0.10198871454E+01 0.  0.
     999903    2    3    3    0    0 -0.50421350470E-02  0.12542533368E+00 -0.37334604658E-01  0.13244422029E+00  0.19765154408E-01 0.  0.
         14    1    1    2    0    0  0.18312807125E-01 -0.15089545664E-01  0.13299960981E-02  0.23765987940E-01  0.00000000000E+00 0. -1.
     999901    1    3    3    0    0 -0.13270672078E-01 -0.11033578802E+00  0.36004608560E-01  0.88771979177E+00  0.88000000000E+00 0.  1.
        -11    1    4    4    0    0  0.71030086830E-02  0.28048297518E-01 -0.88253993288E-02  0.30254066179E-01  0.51100000000E-03 0.  1.
         11    1    4    4    0    0 -0.12145143730E-01  0.97377036165E-01 -0.28509205329E-01  0.10219015412E+00  0.51100000000E-03 0. -1.
</event>
<event>
 7    1  0.1092667E+005  0.1043930E+01  0.7957747E-01            NaN
         13   -1    0    0    0    0  0.00000000000E+00  0.00000000000E+00  0.74505805969E-08  0.10566000000E+00  0.10566000000E+00 0. -1.
     999900   -1    0    0    0    0 -0.00000000000E+00 -0.00000000000E+00 -0.74505805969E-08  0.93827000000E+00  0.93827000000E+00 0.  1.
     999902    2    1    2    0    0 -0.93231833348E-03  0.30718042707E-02  0.22424702478E-01  0.10212766894E+01  0.10210254178E+01 0.  0.
         14    1    1    2    0    0  0.93231833348E-03 -0.30718042707E-02 -0.22424702478E-01  0.22653310578E-01  0.00000000000E+00 0.  1.
     999901    1    3    3    0    0 -0.11319282701E+00  0.45940289065E-01  0.59588728134E-01  0.89043469315E+00  0.88000000000E+00 0.  1.
        -11    1    3    3    0    0  0.89007322848E-01 -0.47972280719E-01 -0.34703878155E-01  0.10690305663E+00  0.51100000000E-03 0.  1.
         11    1    3    3    0    0  0.23253185831E-01  0.51037959242E-02 -0.24601475018E-02  0.23938939636E-01  0.51100000000E-03 0. -1.
</event>
<event>
 8    1  0.1092667E+005  0.1043930E+01  0.7957747E-01            NaN
         13   -1    0    0    0    0  0.00000000000E+00  0.00000000000E+00  0.74505805969E-08  0.10566000000E+00  0.10566000000E+00 0.  1.
     999900   -1    0    0    0    0 -0.00000000000E+00 -0.00000000000E+00 -0.74505805969E-08  0.93827000000E+00  0.93827000000E+00 0.  1.
     999902    2    1    2    0    0 -0.12079948744E-01  0.11583544363E-02 -0.21585725633E-01  0.10191669126E+01  0.10188660291E+01 0.  0.
     999903    2    3    3    0    0 -0.87113679855E-02 -0.38249349363E-02  0.12523969536E+00  0.12698201878E+00  0.18679768186E-01 0.  0.
         14    1    1    2    0    0  0.12079948744E-01 -0.11583544363E-02  0.21585725633E-01  0.24763087404E-01  0.00000000000E+00 0.  1.
     999901    1    3    3    0    0 -0.33685807586E-02  0.49832893726E-02 -0.14682542099E+00  0.89218489382E+00  0.88000000000E+00 0.  1.
        -11    1    4    4    0    0 -0.15030525812E-04 -0.62287586553E-02  0.99608735094E-01  0.99804603542E-01  0.51100000000E-03 0. -1.
         11    1    4    4    0    0 -0.86963374597E-02  0.24038237190E-02  0.25630960266E-01  0.27177415235E-01  0.51100000000E-03 0.  1.
</event>
<event>
 8    1  0.1092667E+005  0.1043930E+01  0.7957747E-01            NaN
         13   -1    0    0    0    0  0.00000000000E+00  0.00000000000E+00  0.74505805969E-08  0.10566000000E+00  0.10566000000E+00 0.  1.
     999900   -1    0    0    0    0 -0.00000000000E+00 -0.00000000000E+00 -0.74505805969E-08  0.93827000000E+00  0.93827000000E+00 0. -1.
     999902    2    1    2    0    0  0.11593962003E-01  0.13313947033E-01  0.15449976314E-01  0.10204697590E+01  0.10202000520E+01 0.  0.
     999903    2    3    3    0    0  0.10434849521E+00  0.57324882738E-02  0.79779768223E-01  0.13322728701E+00  0.21522748702E-01 0.  0.
         14    1    1    2    0    0 -0.11593962003E-01 -0.13313947033E-01 -0.15449976314E-01  0.23460241018E-01  0.00000000000E+00 0. -1.
     999901    1    3    3    0    0 -0.92754533206E-01  0.75814587596E-02 -0.64329791910E-01  0.88724247197E+00  0.88000000000E+00 0. -1.
        -11    1    4    4    0    0  0.86375102149E-01 -0.34771790049E-02  0.66250409372E-01  0.10891339178E+00  0.51100000000E-03 0. -1.
         11    1    4    4    0    0  0.17973393060E-01  0.92096672787E-02  0.13529358851E-01  0.24313895233E-01  0.51100000000E-03 0.  1.
</event>
<event>
 8    1  0.1092667E+005  0.1043930E+01  0.7957747E-01            NaN
         13   -1    0    0    0    0  0.00000000000E+00  0.00000000000E+00  0.74505805969E-08  0.10566000000E+00  0.10566000000E+00 0.  1.
     999900   -1    0    0    0    0 -0.00000000000E+00 -0.00000000000E+00 -0.74505805969E-08  0.93827000000E+00  0.93827000000E+00 0.  1.
     999902    2    1    2    0    0  0.22557572241E-01  0.56461141848E-02  0.51007478657E-02  0.10201236920E+01  0.10198458740E+01 0.  0.
     999903    2    3    3    0    0  0.47277523379E-01  0.12190901110E+00 -0.88371880804E-03  0.13211245841E+00  0.18866624035E-01 0.  0.
         14    1    1    2    0    0 -0.22557572241E-01 -0.56461141848E-02 -0.51007478657E-02  0.23806307979E-01  0.00000000000E+00 0.  1.
     999901    1    3    3    0    0 -0.24719951138E-01 -0.11626289692E+00  0.59844666737E-02  0.88801123361E+00  0.88000000000E+00 0.  1.
        -11    1    4    4    0    0  0.39731620733E-01  0.78396893119E-01  0.11833048413E-02  0.87899578316E-01  0.51100000000E-03 0. -1.
         11    1    4    4    0    0  0.75459026464E-02  0.43512117984E-01 -0.20670236493E-02  0.44212880091E-01  0.51100000000E-03 0.  1.
</event>
<event>
 8    1  0.1092667E+005  0.1043930E+01  0.7957747E-01            NaN
         13   -1    0    0    0    0  0.00000000000E+00  0.00000000000E+00  0.74505805969E-08  0.10566000000E+00  0.10566000000E+00 0.  1.
     999900   -1    0    0    0    0 -0.00000000000E+00 -0.00000000000E+00 -0.74505805969E-08  0.93827000000E+00  0.93827000000E+00 0. -1.
     999902    2    1    2    0    0 -0.20363972750E-01  0.11885711511E-01  0.32922598513E-02  0.10201224277E+01  0.10198445798E+01 0.  0.
     999903    2    3    3    0    0 -0.36355791442E-01  0.10844187936E+00  0.64086330786E-01  0.13261200472E+00  0.19937432934E-01 0.  0.
         14    1    1    2    0    0  0.20363972750E-01 -0.11885711511E-01 -0.32922598513E-02  0.23807572308E-01  0.00000000000E+00 0.  1.
     999901    1    3    3    0    0  0.15991818692E-01 -0.96556167852E-01 -0.60794070935E-01  0.88751042297E+00  0.88000000000E+00 0. -1.
        -11    1    4    4    0    0 -0.55775691960E-02  0.23373323713E-01  0.22948373345E-01  0.33231167595E-01  0.51100000000E-03 0. -1.
         11    1    4    4    0    0 -0.30778222246E-01  0.85068555650E-01  0.41137957441E-01  0.99380837129E-01  0.51100000000E-03 0.  1.
</event>
<event>
 8    1  0.1092667E+005  0.1043930E+01  0.7957747E-01            NaN
         13   -1    0    0    0    0  0.00000000000E+00  0.00000000000E+00  0.74505805969E-08  0.10566000000E+00  0.10566000000E+00 0.  1.
     999900   -1    0    0    0    0 -0.00000000000E+00 -0.00000000000E+00 -0.74505805969E-08  0.93827000000E+00  0.93827000000E+00 0. -1.
     999902    2    1    2    0    0  0.99707935550E-02 -0.12615365991E-01  0.17576508053E-01  0.10201077873E+01  0.10198295935E+01 0.  0.
     999903    2    3    3    0    0 -0.31354692140E-01  0.11526091677E-01  0.12627663858E+00  0.13212900144E+00  0.19907688496E-01 0.  0.
         14    1    1    2    0    0 -0.99707935550E-02  0.12615365991E-01 -0.17576508053E-01  0.23822212713E-01  0.00000000000E+00 0. -1.
     999901    1    3    3    0    0  0.41325485695E-01 -0.24141457668E-01 -0.10870013052E+00  0.88797878585E+00  0.88000000000E+00 0. -1.
        -11    1    4    4    0    0 -0.65158720591E-04  0.66441405500E-02  0.31603884264E-01  0.32298846278E-01  0.51100000000E-03 0. -1.
         11    1    4    4    0    0 -0.31289533419E-01  0.48819511275E-02  0.94672754314E-01  0.99830155158E-01  0.51100000000E-03 0.  1.
</event>
<event>
 8    1  0.1092667E+005  0.1043930E+01  0.7957747E-01            NaN
         13   -1    0    0    0    0  0.00000000000E+00  0.00000000000E+00  0.74505805969E-08  0.10566000000E+00  0.10566000000E+00 0. -1.
     999900   -1    0    0    0    0 -0.00000000000E+00 -0.00000000000E+00 -0.74505805969E-08  0.93827000000E+00  0.93827000000E+00 0.  1.
     999902    2    1    2    0    0  0.61696762430E-03 -0.15964481664E-01  0.17091268552E-01  0.10205343426E+01  0.10202661357E+01 0.  0.
     999903    2    3    3    0    0 -0.38537959884E-01  0.17506117865E-01  0.12401081850E+00  0.13256746286E+00  0.20095038894E-01 0.  0.
         14    1    1    2    0    0 -0.61696762430E-03  0.15964481664E-01 -0.17091268552E-01  0.23395657387E-01  0.00000000000E+00 0.  1.
     999901    1    3    3    0    0  0.39154927508E-01 -0.33470599529E-01 -0.10691954995E+00  0.88796687976E+00  0.88000000000E+00 0.  1.
        -11    1    4    4    0    0 -0.96822887724E-02  0.90160932749E-02  0.64957999383E-01  0.66293585351E-01  0.51100000000E-03 0. -1.
         11    1    4    4    0    0 -0.28855671112E-01  0.84900245904E-02  0.59052819119E-01  0.66273877507E-01  0.51100000000E-03 0.  1.
</event>
<event>
 8    1  0.1092667E+005  0.1043930E+01  0.7957747E-01            NaN
         13   -1    0    0    0    0  0.00000000000E+00  0.00000000000E+00  0.74505805969E-08  0.10566000000E+00  0.10566000000E+00 0. -1.
     999900   -1    0    0    0    0 -0.00000000000E+00 -0.00000000000E+00 -0.74505805969E-08  0.93827000000E+00  0.93827000000E+00 0.  1.
     999902    2    1    2    0    0  0.78121355663E-02 -0.22867768613E-01  0.25912631772E-03  0.10197632574E+01  0.10194768608E+01 0.  0.
     999903    2    3    3    0    0  0.93550138429E-02  0.12881502271E-01 -0.12728179343E+00  0.12984917327E+00  0.20166890605E-01 0.  0.
         14    1    1    2    0    0 -0.78121355663E-02  0.22867768613E-01 -0.25912631772E-03  0.24166742641E-01  0.00000000000E+00 0. -1.
     999901    1    3    3    0    0 -0.15428782766E-02 -0.35749270884E-01  0.12754091975E+00  0.88991408408E+00  0.88000000000E+00 0. -1.
        -11    1    4    4    0    0 -0.52463025112E-02  0.87175770812E-03 -0.50094404459E-01  0.50378508618E-01  0.51100000000E-03 0. -1.
         11    1    4    4    0    0  0.14601316354E-01  0.12009744563E-01 -0.77187388971E-01  0.79470664656E-01  0.51100000000E-03 0.  1.
</event>
<event>
 8    1  0.1092667E+005  0.1043930E+01  0.7957747E-01            NaN
         13   -1    0    0    0    0  0.00000000000E+00  0.00000000000E+00  0.74505805969E-08  0.10566000000E+00  0.10566000000E+00 0.  1.
     999900   -1    0    0    0    0 -0.00000000000E+00 -0.00000000000E+00 -0.74505805969E-08  0.93827000000E+00  0.93827000000E+00 0. -1.
     999902    2    1    2    0    0  0.15021330623E-02 -0.15510724756E-01  0.16733000810E-01  0.10210644735E+01  0.10208084182E+01 0.  0.
     999903    2    3    3    0    0  0.94209498307E-01  0.83804647756E-01 -0.22138082285E-01  0.12979057626E+00  0.21374060043E-01 0.  0.
         14    1    1    2    0    0 -0.15021330623E-02  0.15510724756E-01 -0.16733000810E-01  0.22865526504E-01  0.00000000000E+00 0. -1.
     999901    1    3    3    0    0 -0.92707365245E-01 -0.99315372512E-01  0.38871083094E-01  0.89127389723E+00  0.88000000000E+00 0.  1.
        -11    1    4    4    0    0  0.35812800716E-01  0.31845845713E-01  0.20372252518E-02  0.47970053075E-01  0.51100000000E-03 0.  1.
         11    1    4    4    0    0  0.58396697592E-01  0.51958802043E-01 -0.24175307537E-01  0.81820523189E-01  0.51100000000E-03 0. -1.
</event>
<event>
 8    1  0.1092667E+005  0.1043930E+01  0.7957747E-01            NaN
         13   -1    0    0    0    0  0.00000000000E+00  0.00000000000E+00  0.74505805969E-08  0.10566000000E+00  0.10566000000E+00 0.  1.
     999900   -1    0    0    0    0 -0.00000000000E+00 -0.00000000000E+00 -0.74505805969E-08  0.93827000000E+00  0.93827000000E+00 0.  1.
     999902    2    1    2    0    0  0.48679416143E-02 -0.19671432661E-01 -0.10921938760E-01  0.10209093383E+01  0.10206497569E+01 0.  0.
     999903    2    3    3    0    0 -0.12603450640E+00  0.10391606002E-01 -0.25870500609E-01  0.13059327269E+00  0.19815090040E-01 0.  0.
         14    1    1    2    0    0 -0.48679416143E-02  0.19671432661E-01  0.10921938760E-01  0.23020661692E-01  0.00000000000E+00 0.  1.
     999901    1    3    3    0    0  0.13090244801E+00 -0.30063038663E-01  0.14948561850E-01  0.89031606561E+00  0.88000000000E+00 0.  1.
        -11    1    4    4    0    0 -0.47438268734E-01  0.45665316055E-02 -0.57481912650E-04  0.47660329170E-01  0.51100000000E-03 0. -1.
         11    1    4    4    0    0 -0.78596237662E-01  0.58250743966E-02 -0.25813018697E-01  0.82932943524E-01  0.51100000000E-03 0.  1.
</event>
<event>
 8    1  0.1092667E+005  0.1043930E+01  0.7957747E-01            NaN
         13   -1    0    0    0    0  0.00000000000E+00  0.00000000000E+00  0.74505805969E-08  0.10566000000E+00  0.10566000000E+00 0.  1.
     999900   -1    0    0    0    0 -0.00000000000E+00 -0.00000000000E+00 -0.74505805969E-08  0.93827000000E+00  0.93827000000E+00 0. -1.
     999902    2    1    2    0    0 -0.71408965284E-02 -0.20843203009E-01  0.59769567138E-02  0.10211011690E+01  0.10208459442E+01 0.  0.
     999903    2    3    3    0    0  0.11921340678E+00  0.30401338601E-01 -0.31816417998E-01  0.12979889017E+00  0.26445976846E-01 0.  0.
         14    1    1    2    0    0  0.71408965284E-02  0.20843203009E-01 -0.59769567138E-02  0.22828831036E-01  0.00000000000E+00 0. -1.
     999901    1    3    3    0    0 -0.12635430331E+00 -0.51244541609E-01  0.37793374712E-01  0.89130227879E+00  0.88000000000E+00 0.  1.
        -11    1    4    4    0    0  0.32755635137E-01  0.12852099026E-01  0.21681161888E-02  0.35257196874E-01  0.51100000000E-03 0. -1.
         11    1    4    4    0    0  0.86457771641E-01  0.17549239574E-01 -0.33984534187E-01  0.94541693298E-01  0.51100000000E-03 0.  1.
</event>
<event>
 8    1  0.1092667E+005  0.1043930E+01  0.7957747E-01            NaN
         13   -1    0    0    0    0  0.00000000000E+00  0.00000000000E+00  0.74505805969E-08  0.10566000000E+00  0.10566000000E+00 0. -1.
     999900   -1    0    0    0    0 -0.00000000000E+00 -0.00000000000E+00 -0.74505805969E-08  0.93827000000E+00  0.93827000000E+00 0. -1.
     999902    2    1    2    0    0 -0.27245154957E-02 -0.13247157919E-01 -0.19925646419E-01  0.10198480241E+01  0.10195636570E+01 0.  0.
     999903    2    3    3    0    0 -0.54708365750E-01  0.50800171936E-01 -0.10655809582E+00  0.13175480691E+00  0.20761469270E-01 0.  0.
         14    1    1    2    0    0  0.27245154957E-02  0.13247157919E-01  0.19925646419E-01  0.24081975891E-01  0.00000000000E+00 0. -1.
     999901    1    3    3    0    0  0.51983850255E-01 -0.64047329855E-01  0.86632449404E-01  0.88809321720E+00  0.88000000000E+00 0.  1.
        -11    1    4    4    0    0 -0.13342809917E-01  0.21925226950E-01 -0.48227103744E-01  0.54633879689E-01  0.51100000000E-03 0.  1.
         11    1    4    4    0    0 -0.41365555833E-01  0.28874944986E-01 -0.58330992079E-01  0.77120927220E-01  0.51100000000E-03 0. -1.
</event>
<event>
 8    1  0.1092667E+005  0.1043930E+01  0.7957747E-01            NaN
         13   -1    0    0    0    0  0.00000000000E+00  0.00000000000E+00  0.74505805969E-08  0.10566000000E+00  0.10566000000E+00 0. -1.
     999900   -1    0    0    0    0 -0.00000000000E+00 -0.00000000000E+00 -0.74505805969E-08  0.93827000000E+00  0.93827000000E+00 0.  1.
     999902    2    1    2    0    0 -0.20279292880E-01  0.37013807294E-02  0.12256816525E-01  0.10199471000E+01  0.10196650957E+01 0.  0.
     999903    2    3    3    0    0  0.24945235342E-02  0.27034482706E-01  0.12717908977E+00  0.13187603912E+00  0.21901664690E-01 0.  0.
         14    1    1    2    0    0  0.20279292880E-01 -0.37013807294E-02 -0.12256816525E-01  0.23982899957E-01  0.00000000000E+00 0.  1.
     999901    1    3    3    0    0 -0.22773816415E-01 -0.23333101976E-01 -0.11492227325E+00  0.88807106092E+00  0.88000000000E+00 0.  1.
        -11    1    4    4    0    0  0.30815560340E-02  0.15427766503E-01  0.11005170780E+00  0.11117172067E+00  0.51100000000E-03 0.  1.
         11    1    4    4    0    0 -0.58703249972E-03  0.11606716203E-01  0.17127381974E-01  0.20704318450E-01  0.51100000000E-03 0. -1.
</event>
<event>
 8    1  0.1092667E+005  0.1043930E+01  0.7957747E-01            NaN
         13   -1    0    0    0    0  0.00000000000E+00  0.00000000000E+00  0.74505805969E-08  0.10566000000E+00  0.10566000000E+00 0. -1.
     999900   -1    0    0    0    0 -0.00000000000E+00 -0.00000000000E+00 -0.74505805969E-08  0.93827000000E+00  0.93827000000E+00 0. -1.
     999902    2    1    2    0    0 -0.24786533057E-01  0.17328667247E-01 -0.10401680955E-01  0.10119479754E+01  0.10114424626E+01 0.  0.
     999903    2    3    3    0    0 -0.11660457481E+00 -0.22115343400E-01  0.34316892662E-01  0.12516382266E+00  0.20065345724E-01 0.  0.
         14    1    1    2    0    0  0.24786533057E-01 -0.17328667247E-01  0.10401680955E-01  0.31982024580E-01  0.00000000000E+00 0.  1.
     999901    1    3    3    0    0  0.91818041755E-01  0.39444010647E-01 -0.44718573617E-01  0.88678415276E+00  0.88000000000E+00 0. -1.
        -11    1    4    4    0    0 -0.98777631559E-01 -0.11132546467E-01  0.27510604167E-01  0.10314091598E+00  0.51100000000E-03 0. -1.
         11    1    4    4    0    0 -0.17826943253E-01 -0.10982796933E-01  0.68062884950E-02  0.22022906672E-01  0.51100000000E-03 0.  1.
</event>
<event>
 8    1  0.1092667E+005  0.1043930E+01  0.7957747E-01            NaN
         13   -1    0    0    0    0  0.00000000000E+00  0.00000000000E+00  0.74505805969E-08  0.10566000000E+00  0.10566000000E+00 0.  1.
     999900   -1    0    0    0    0 -0.00000000000E+00 -0.00000000000E+00 -0.74505805969E-08  0.93827000000E+00  0.93827000000E+00 0. -1.
     999902    2    1    2    0    0 -0.11235827784E-01  0.18712876153E-01 -0.94486394839E-02  0.10201457122E+01  0.10198684139E+01 0.  0.
     999903    2    3    3    0    0  0.79499531493E-01  0.10107523412E+00 -0.17951147170E-01  0.13161391415E+00  0.21531378341E-01 0.  0.
         14    1    1    2    0    0  0.11235827784E-01 -0.18712876153E-01  0.94486394839E-02  0.23784287839E-01  0.00000000000E+00 0.  1.
     999901    1    3    3    0    0 -0.90735359277E-01 -0.82362357971E-01  0.85025076861E-02  0.88853179801E+00  0.88000000000E+00 0.  1.
        -11    1    4    4    0    0  0.30163736256E-01  0.28689252172E-01 -0.14003369674E-01  0.43923566093E-01  0.51100000000E-03 0.  1.
         11    1    4    4    0    0  0.49335795237E-01  0.72385981952E-01 -0.39477774963E-02  0.87690348060E-01  0.51100000000E-03 0. -1.
</event>
<event>
 8    1  0.1092667E+005  0.1043930E+01  0.7957747E-01            NaN
         13   -1    0    0    0    0  0.00000000000E+00  0.00000000000E+00  0.74505805969E-08  0.10566000000E+00  0.10566000000E+00 0.  1.
     999900   -1    0    0    0    0 -0.00000000000E+00 -0.00000000000E+00 -0.74505805969E-08  0.93827000000E+00  0.93827000000E+00 0. -1.
     999902    2    1    2    0    0 -0.16889588876E-01 -0.39578249135E-02  0.15637364517E-01  0.10205751341E+01  0.10203078725E+01 0.  0.
     999903    2    3    3    0    0 -0.21941203010E-01 -0.35000906870E-01  0.12508611015E+00  0.13323741959E+00  0.19979868698E-01 0.  0.
         14    1    1    2    0    0  0.16889588876E-01  0.39578249135E-02 -0.15637364517E-01  0.23354865863E-01  0.00000000000E+00 0. -1.
     999901    1    3    3    0    0  0.50516141341E-02  0.31043081956E-01 -0.10944874564E+00  0.88733771455E+00  0.88000000000E+00 0. -1.
        -11    1    4    4    0    0 -0.46960459029E-02 -0.22427290584E-01  0.47074438045E-01  0.52357425914E-01  0.51100000000E-03 0.  1.
         11    1    4    4    0    0 -0.17245157108E-01 -0.12573616286E-01  0.78011672109E-01  0.80879993672E-01  0.51100000000E-03 0. -1.
</event>
<event>
 8    1  0.1092667E+005  0.1043930E+01  0.7957747E-01            NaN
         13   -1    0    0    0    0  0.00000000000E+00  0.00000000000E+00  0.74505805969E-08  0.10566000000E+00  0.10566000000E+00 0.  1.
     999900   -1    0    0    0    0 -0.00000000000E+00 -0.00000000000E+00 -0.74505805969E-08  0.93827000000E+00  0.93827000000E+00 0.  1.
     999902    2    1    2    0    0  0.69468456086E-04  0.10854374832E-01 -0.15794658676E-01  0.10247650966E+01  0.10245858723E+01 0.  0.
     999903    2    3    3    0    0 -0.58524459026E-01 -0.55651231086E-01  0.10241495750E+00  0.13244802444E+00  0.23053933112E-01 0.  0.
         14    1    1    2    0    0 -0.69468456086E-04 -0.10854374832E-01  0.15794658676E-01  0.19164903380E-01  0.00000000000E+00 0.  1.
     999901    1    3    3    0    0  0.58593927482E-01  0.66505605919E-01 -0.11820961617E+00  0.89231707218E+00  0.88000000000E+00 0.  1.
        -11    1    4    4    0    0 -0.50707921751E-01 -0.47222671755E-01  0.71992474362E-01  0.99922227466E-01  0.51100000000E-03 0. -1.
         11    1    4    4    0    0 -0.78165372748E-02 -0.84285593315E-02  0.30422483136E-01  0.32525796970E-01  0.51100000000E-03 0.  1.
</event>
<event>
 8    1  0.1092667E+005  0.1043930E+01  0.7957747E-01            NaN
         13   -1    0    0    0    0  0.00000000000E+00  0.00000000000E+00  0.74505805969E-08  0.10566000000E+00  0.10566000000E+00 0.  1.
     999900   -1    0    0    0    0 -0.00000000000E+00 -0.00000000000E+00 -0.74505805969E-08  0.93827000000E+00  0.93827000000E+00 0. -1.
     999902    2    1    2    0    0  0.21927205917E-02 -0.19573024796E-01 -0.10142393816E-01  0.10217764568E+01  0.10215362687E+01 0.  0.
     999903    2    3    3    0    0  0.94112063518E-01  0.16465302446E-01  0.87167075648E-01  0.13092458390E+00  0.20370589287E-01 0.  0.
         14    1    1    2    0    0 -0.21927205917E-02  0.19573024796E-01  0.10142393816E-01  0.22153543183E-01  0.00000000000E+00 0. -1.
     999901    1    3    3    0    0 -0.91919342926E-01 -0.36038327242E-01 -0.97309469464E-01  0.89085187292E+00  0.88000000000E+00 0. -1.
        -11    1    4    4    0    0  0.68558376576E-01  0.72315986934E-02  0.72493185892E-01  0.10004034256E+00  0.51100000000E-03 0.  1.
         11    1    4    4    0    0  0.25553686942E-01  0.92337037528E-02  0.14673889756E-01  0.30884241336E-01  0.51100000000E-03 0. -1.
</event>
<event>
 8    1  0.1092667E+005  0.1043930E+01  0.7957747E-01            NaN
         13   -1    0    0    0    0  0.00000000000E+00  0.00000000000E+00  0.74505805969E-08  0.10566000000E+00  0.10566000000E+00 0. -1.
     999900   -1    0    0    0    0 -0.00000000000E+00 -0.00000000000E+00 -0.74505805969E-08  0.93827000000E+00  0.93827000000E+00 0.  1.
     999902    2    1    2    0    0 -0.22969948650E-01 -0.65679260834E-02  0.75786982399E-03  0.10200274779E+01  0.10197473830E+01 0.  0.
     999903    2    3    3    0    0  0.11946538439E+00  0.53660049265E-02 -0.39452126422E-01  0.12758863600E+00  0.20533330963E-01 0.  0.
         14    1    1    2    0    0  0.22969948650E-01  0.65679260834E-02 -0.75786982399E-03  0.23902522057E-01  0.00000000000E+00 0.  1.
     999901    1    3    3    0    0 -0.14243533304E+00 -0.11933931010E-01  0.40209996246E-01  0.89243884194E+00  0.88000000000E+00 0. -1.
        -11    1    4    4    0    0  0.47438121381E-01 -0.78982758356E-04 -0.54549252165E-02  0.47753522682E-01  0.51100000000E-03 0. -1.
         11    1    4    4    0    0  0.72027263012E-01  0.54449876849E-02 -0.33997201206E-01  0.79835113319E-01  0.51100000000E-03 0.  1.
</event>
<event>
 8    1  0.1092667E+005  0.1043930E+01  0.7957747E-01            NaN
         13   -1    0    0    0    0  0.00000000000E+00  0.00000000000E+00  0.74505805969E-08  0.10566000000E+00  0.10566000000E+00 0. -1.
     999900   -1    0    0    0    0 -0.00000000000E+00 -0.00000000000E+00 -0.74505805969E-08  0.93827000000E+00  0.93827000000E+00 0.  1.
     999902    2    1    2    0    0 -0.21425783559E-01 -0.59448281920E-02  0.12051238262E-01  0.10186389437E+01  0.10183249286E+01 0.  0.
     999903    2    3    3    0    0  0.79797781345E-01 -0.98070341917E-01  0.41282788016E-02  0.12802337366E+00  0.19684096285E-01 0.  0.
         14    1    1    2    0    0  0.21425783559E-01  0.59448281920E-02 -0.12051238262E-01  0.25291056265E-01  0.00000000000E+00 0.  1.
     999901    1    3    3    0    0 -0.10122356490E+00  0.92125513725E-01  0.79229594607E-02  0.89061557007E+00  0.88000000000E+00 0. -1.
        -11    1    4    4    0    0  0.23468347531E-01 -0.16008315238E-01  0.32937868311E-03  0.28414769116E-01  0.51100000000E-03 0.  1.
         11    1    4    4    0    0  0.56329433814E-01 -0.82062026679E-01  0.37989001185E-02  0.99608604546E-01  0.51100000000E-03 0. -1.
</event>
<event>
 8    1  0.1092667E+005  0.1043930E+01  0.7957747E-01            NaN
         13   -1    0    0    0    0  0.00000000000E+00  0.00000000000E+00  0.74505805969E-08  0.10566000000E+00  0.10566000000E+00 0.  1.
     999900   -1    0    0    0    0 -0.00000000000E+00 -0.00000000000E+00 -0.74505805969E-08  0.93827000000E+00  0.93827000000E+00 0.  1.
     999902    2    1    2    0    0 -0.54164397463E-03  0.20348492481E-01 -0.12192409916E-01  0.10202021812E+01  0.10199262136E+01 0.  0.
     999903    2    3    3    0    0  0.21780771764E-01  0.10501505677E+00  0.73764824789E-01  0.13168917425E+00  0.19955577498E-01 0.  0.
         14    1    1    2    0    0  0.54164397463E-03 -0.20348492481E-01  0.12192409916E-01  0.23727818779E-01  0.00000000000E+00 0.  1.
     999901    1    3    3    0    0 -0.22322415739E-01 -0.84666564286E-01 -0.85957234705E-01  0.88851300697E+00  0.88000000000E+00 0.  1.
        -11    1    4    4    0    0  0.13068645324E-01  0.82591661774E-01  0.65593748404E-01  0.10627781065E+00  0.51100000000E-03 0. -1.
         11    1    4    4    0    0  0.87121264403E-02  0.22423394993E-01  0.81710763854E-02  0.25411363608E-01  0.51100000000E-03 0.  1.
</event>
<event>
 8    1  0.1092667E+005  0.1043930E+01  0.7957747E-01            NaN
         13   -1    0    0    0    0  0.00000000000E+00  0.00000000000E+00  0.74505805969E-08  0.10566000000E+00  0.10566000000E+00 0.  1.
     999900   -1    0    0    0    0 -0.00000000000E+00 -0.00000000000E+00 -0.74505805969E-08  0.93827000000E+00  0.93827000000E+00 0.  1.
     999902    2    1    2    0    0 -0.27881691331E-03 -0.21729298368E-01  0.74211780757E-02  0.10209666808E+01  0.10207084056E+01 0.  0.
     999903    2    3    3    0    0 -0.59364608084E-01 -0.11401329880E+00 -0.29782273523E-01  0.13339045065E+00  0.19566285042E-01 0.  0.
         14    1    1    2    0    0  0.27881691331E-03  0.21729298368E-01 -0.74211780757E-02  0.22963319239E-01  0.00000000000E+00 0.  1.
     999901    1    3    3    0    0  0.59085791170E-01  0.92284000436E-01  0.37203451599E-01  0.88757623012E+00  0.88000000000E+00 0. -1.
        -11    1    4    4    0    0 -0.38773827587E-01 -0.87133705573E-01 -0.15438737602E-01  0.96614223034E-01  0.51100000000E-03 0. -1.
         11    1    4    4    0    0 -0.20590780496E-01 -0.26879593231E-01 -0.14343535921E-01  0.36776227613E-01  0.51100000000E-03 0.  1.
</event>
<event>
 8    1  0.1092667E+005  0.1043930E+01  0.7957747E-01            NaN
         13   -1    0    0    0    0  0.00000000000E+00  0.00000000000E+00  0.74505805969E-08  0.10566000000E+00  0.10566000000E+00 0.  1.
     999900   -1    0    0    0    0 -0.00000000000E+00 -0.00000000000E+00 -0.74505805969E-08  0.93827000000E+00  0.93827000000E+00 0. -1.
     999902    2    1    2    0    0 -0.97917490771E-02  0.14774399999E-01  0.17234837323E-01  0.10192075231E+01  0.10189076378E+01 0.  0.
     999903    2    3    3    0    0  0.92602089765E-01  0.64674499511E-01  0.62747055020E-01  0.13069985286E+00  0.19680465122E-01 0.  0.
         14    1    1    2    0    0  0.97917490771E-02 -0.14774399999E-01 -0.17234837323E-01  0.24722476876E-01  0.00000000000E+00 0. -1.
     999901    1    3    3    0    0 -0.10239383884E+00 -0.49900099512E-01 -0.45512217697E-01  0.88850767027E+00  0.88000000000E+00 0.  1.
        -11    1    4    4    0    0  0.51522508832E-01  0.37301154620E-01  0.24167032249E-01  0.68045952275E-01  0.51100000000E-03 0. -1.
         11    1    4    4    0    0  0.41079580933E-01  0.27373344890E-01  0.38580022771E-01  0.62653900582E-01  0.51100000000E-03 0.  1.
</event>
<event>
 8    1  0.1092667E+005  0.1043930E+01  0.7957747E-01            NaN
         13   -1    0    0    0    0  0.00000000000E+00  0.00000000000E+00  0.74505805969E-08  0.10566000000E+00  0.10566000000E+00 0.  1.
     999900   -1    0    0    0    0 -0.00000000000E+00 -0.00000000000E+00 -0.74505805969E-08  0.93827000000E+00  0.93827000000E+00 0.  1.
     999902    2    1    2    0    0  0.23556961432E-01  0.87611437332E-02  0.39784200984E-02  0.10184836663E+01  0.10181657344E+01 0.  0.
     999903    2    3    3    0    0 -0.73574595791E-01  0.96605562211E-01 -0.35279521188E-01  0.12792633115E+00  0.19355768918E-01 0.  0.
         14    1    1    2    0    0 -0.23556961432E-01 -0.87611437332E-02 -0.39784200984E-02  0.25446333683E-01  0.00000000000E+00 0. -1.
     999901    1    3    3    0    0  0.97131557223E-01 -0.87844418477E-01  0.39257941286E-01  0.89055733517E+00  0.88000000000E+00 0. -1.
        -11    1    4    4    0    0 -0.55158943806E-01  0.64417049715E-01 -0.16665302403E-01  0.86429501913E-01  0.51100000000E-03 0. -1.
         11    1    4    4    0    0 -0.18415651984E-01  0.32188512496E-01 -0.18614218785E-01  0.41496829237E-01  0.51100000000E-03 0.  1.
</event>
<event>
 8    1  0.1092667E+005  0.1043930E+01  0.7957747E-01            NaN
         13   -1    0    0    0    0  0.00000000000E+00  0.00000000000E+00  0.74505805969E-08  0.10566000000E+00  0.10566000000E+00 0. -1.
     999900   -1    0    0    0    0 -0.00000000000E+00 -0.00000000000E+00 -0.74505805969E-08  0.93827000000E+00  0.93827000000E+00 0. -1.
     999902    2    1    2    0    0 -0.10406552413E-01  0.45237865408E-03 -0.21557692381E-01  0.10199876718E+01  0.10197066321E+01 0.  0.
     999903    2    3    3    0    0 -0.25760283544E-01 -0.12576418126E+00 -0.15103245554E-01  0.13082625959E+00  0.20178718352E-01 0.  0.
         14    1    1    2    0    0  0.10406552413E-01 -0.45237865408E-03  0.21557692381E-01  0.23942328215E-01  0.00000000000E+00 0. -1.
     999901    1    3    3    0    0  0.15353731131E-01  0.12621655992E+00 -0.64544468273E-02  0.88916141220E+00  0.88000000000E+00 0. -1.
        -11    1    4    4    0    0 -0.18719094420E-01 -0.47650036428E-01 -0.10468864473E-01  0.52256948934E-01  0.51100000000E-03 0. -1.
         11    1    4    4    0    0 -0.70411891237E-02 -0.78114144835E-01 -0.46343810802E-02  0.78569310654E-01  0.51100000000E-03 0.  1.
</event>
<event>
 8    1  0.1092667E+005  0.1043930E+01  0.7957747E-01            NaN
         13   -1    0    0    0    0  0.00000000000E+00  0.00000000000E+00  0.74505805969E-08  0.10566000000E+00  0.10566000000E+00 0. -1.
     999900   -1    0    0    0    0 -0.00000000000E+00 -0.00000000000E+00 -0.74505805969E-08  0.93827000000E+00  0.93827000000E+00 0. -1.
     999902    2    1    2    0    0  0.12201535389E-01  0.79158849643E-02 -0.19154235947E-01  0.10198795643E+01  0.10195959505E+01 0.  0.
     999903    2    3    3    0    0  0.11279988113E+00  0.47140860107E-02 -0.67302413265E-01  0.13283473703E+00  0.19220217000E-01 0.  0.
         14    1    1    2    0    0 -0.12201535389E-01 -0.79158849643E-02  0.19154235947E-01  0.24050435658E-01  0.00000000000E+00 0. -1.
     999901    1    3    3    0    0 -0.10059834574E+00  0.32017989536E-02  0.48148177318E-01  0.88704482731E+00  0.88000000000E+00 0.  1.
        -11    1    4    4    0    0  0.66701938026E-01  0.75482186351E-02 -0.30291392023E-01  0.73647496174E-01  0.51100000000E-03 0. -1.
         11    1    4    4    0    0  0.46097943101E-01 -0.28341326244E-02 -0.37011021242E-01  0.59187240856E-01  0.51100000000E-03 0.  1.
</event>
<event>
 8    1  0.1092667E+005  0.1043930E+01  0.7957747E-01            NaN
         13   -1    0    0    0    0  0.00000000000E+00  0.00000000000E+00  0.74505805969E-08  0.10566000000E+00  0.10566000000E+00 0. -1.
     999900   -1    0    0    0    0 -0.00000000000E+00 -0.00000000000E+00 -0.74505805969E-08  0.93827000000E+00  0.93827000000E+00 0.  1.
     999902    2    1    2    0    0  0.52291293695E-02 -0.16475677410E-01 -0.17922416207E-01  0.10190301056E+01  0.10187258470E+01 0.  0.
     999903    2    3    3    0    0 -0.55507278851E-01 -0.10341605806E+00  0.51482185226E-01  0.12994937820E+00  0.21458947563E-01 0.  0.
         14    1    1    2    0    0 -0.52291293695E-02  0.16475677410E-01  0.17922416207E-01  0.24899894433E-01  0.00000000000E+00 0. -1.
     999901    1    3    3    0    0  0.60736408221E-01  0.86940380645E-01 -0.69404601433E-01  0.88908072736E+00  0.88000000000E+00 0.  1.
        -11    1    4    4    0    0 -0.50745240437E-01 -0.80839287848E-01  0.47182503138E-01  0.10647309336E+00  0.51100000000E-03 0.  1.
         11    1    4    4    0    0 -0.47620384141E-02 -0.22576770207E-01  0.42996820877E-02  0.23476284840E-01  0.51100000000E-03 0. -1.
</event>
<event>
 8    1  0.1092667E+005  0.1043930E+01  0.7957747E-01            NaN
         13   -1    0    0    0    0  0.00000000000E+00  0.00000000000E+00  0.74505805969E-08  0.10566000000E+00  0.10566000000E+00 0.  1.
     999900   -1    0    0    0    0 -0.00000000000E+00 -0.00000000000E+00 -0.74505805969E-08  0.93827000000E+00  0.93827000000E+00 0.  1.
     999902    2    1    2    0    0 -0.13193412966E-01  0.16471383309E-02 -0.20574616642E-01  0.10194331826E+01  0.10191388128E+01 0.  0.
     999903    2    3    3    0    0 -0.60598356642E-01 -0.95246058688E-01 -0.65039470913E-01  0.13173242024E+00  0.19476273843E-01 0.  0.
         14    1    1    2    0    0  0.13193412966E-01 -0.16471383309E-02  0.20574616642E-01  0.24496817351E-01  0.00000000000E+00 0.  1.
     999901    1    3    3    0    0  0.47404943676E-01  0.96893197019E-01  0.44464854271E-01  0.88770076241E+00  0.88000000000E+00 0. -1.
        -11    1    4    4    0    0 -0.16099870160E-01 -0.23827050780E-01 -0.26764041972E-01  0.39287520050E-01  0.51100000000E-03 0. -1.
         11    1    4    4    0    0 -0.44498486482E-01 -0.71419007908E-01 -0.38275428941E-01  0.92444900191E-01  0.51100000000E-03 0.  1.
</event>
<event>
 7    1  0.1092667E+005  0.1043930E+01  0.7957747E-01            NaN
         13   -1    0    0    0    0  0.00000000000E+00  0.00000000000E+00  0.74505805969E-08  0.10566000000E+00  0.10566000000E+00 0. -1.
     999900   -1    0    0    0    0 -0.00000000000E+00 -0.00000000000E+00 -0.74505805969E-08  0.93827000000E+00  0.93827000000E+00 0. -1.
     999903    2    1    2    0    0 -0.68724535510E-01 -0.11706832491E-02 -0.32532076912E-01  0.78607263644E-01  0.19908128716E-01 0.  0.
         14    1    1    2    0    0  0.71494186709E-02  0.78860825712E-01  0.45437001967E-02  0.79314495717E-01  0.00000000000E+00 0.  1.
     999901    1    1    2    0    0  0.61575116839E-01 -0.77690142463E-01  0.27988376716E-01  0.88600824064E+00  0.88000000000E+00 0. -1.
        -11    1    3    3    0    0 -0.22317351785E-01  0.18507341977E-02 -0.20969208259E-01  0.30683191226E-01  0.51100000000E-03 0. -1.
         11    1    3    3    0    0 -0.46407183725E-01 -0.30214174468E-02 -0.11562868653E-01  0.47924072418E-01  0.51100000000E-03 0.  1.
</event>
<event>
 8    1  0.1092667E+005  0.1043930E+01  0.7957747E-01            NaN
         13   -1    0    0    0    0  0.00000000000E+00  0.00000000000E+00  0.74505805969E-08  0.10566000000E+00  0.10566000000E+00 0.  1.
     999900   -1    0    0    0    0 -0.00000000000E+00 -0.00000000000E+00 -0.74505805969E-08  0.93827000000E+00  0.93827000000E+00 0.  1.
     999902    2    1    2    0    0 -0.24997596096E-01 -0.18591405727E-02 -0.23727093336E-02  0.10187513193E+01  0.10184401232E+01 0.  0.
     999903    2    3    3    0    0 -0.19015829315E-01 -0.10792363088E+00  0.66337606585E-01  0.12970319618E+00  0.20325579556E-01 0.  0.
         14    1    1    2    0    0  0.24997596096E-01  0.18591405727E-02  0.23727093336E-02  0.25178680740E-01  0.00000000000E+00 0. -1.
     999901    1    3    3    0    0 -0.59817667812E-02  0.10606449031E+00 -0.68710315918E-01  0.88904812308E+00  0.88000000000E+00 0.  1.
        -11    1    4    4    0    0 -0.19999014708E-01 -0.85554187538E-01  0.60110968364E-01  0.10645688908E+00  0.51100000000E-03 0. -1.
         11    1    4    4    0    0  0.98318539332E-03 -0.22369443345E-01  0.62266382203E-02  0.23246307097E-01  0.51100000000E-03 0.  1.
</event>
<event>
 8    1  0.1092667E+005  0.1043930E+01  0.7957747E-01            NaN
         13   -1    0    0    0    0  0.00000000000E+00  0.00000000000E+00  0.74505805969E-08  0.10566000000E+00  0.10566000000E+00 0. -1.
     999900   -1    0    0    0    0 -0.00000000000E+00 -0.00000000000E+00 -0.74505805969E-08  0.93827000000E+00  0.93827000000E+00 0. -1.
     999902    2    1    2    0    0  0.30860143562E-02 -0.12168731791E-01 -0.13363664178E-01  0.10255945415E+01  0.10254306288E+01 0.  0.
     999903    2    3    3    0    0  0.58120929820E-01  0.11190203713E+00 -0.42714125495E-01  0.13470518406E+00  0.20515401527E-01 0.  0.
         14    1    1    2    0    0 -0.30860143562E-02  0.12168731791E-01  0.13363664178E-01  0.18335458496E-01  0.00000000000E+00 0. -1.
     999901    1    3    3    0    0 -0.55034915464E-01 -0.12407076892E+00  0.29350461317E-01  0.89088935744E+00  0.88000000000E+00 0. -1.
        -11    1    4    4    0    0  0.51616356932E-01  0.84233224666E-01 -0.27933786499E-01  0.10266470664E+00  0.51100000000E-03 0. -1.
         11    1    4    4    0    0  0.65045728881E-02  0.27668812464E-01 -0.14780338996E-01  0.32040477422E-01  0.51100000000E-03 0.  1.
</event>
<event>
 7    1  0.1573008E+005  0.1043930E+01  0.7957747E-01            NaN
         13   -1    0    0    0    0  0.00000000000E+00  0.00000000000E+00  0.74505805969E-08  0.10566000000E+00  0.10566000000E+00 0. -1.
     999900   -1    0    0    0    0 -0.00000000000E+00 -0.00000000000E+00 -0.74505805969E-08  0.93827000000E+00  0.93827000000E+00 0.  1.
     999903    2    1    2    0    0 -0.54998256930E-01 -0.10076865541E+00  0.11722060410E-02  0.11645269380E+00  0.19512192247E-01 0.  0.
         14    1    1    2    0    0  0.15574785492E-01 -0.95632820689E-02  0.34449661517E-01  0.38997557432E-01  0.00000000000E+00 0. -1.
     999901    1    1    2    0    0  0.39423471437E-01  0.11033193748E+00 -0.35621867558E-01  0.88847974877E+00  0.88000000000E+00 0. -1.
        -11    1    3    3    0    0 -0.34532636842E-01 -0.54518616637E-01  0.93716357438E-02  0.65214041777E-01  0.51100000000E-03 0.  1.
         11    1    3    3    0    0 -0.20465620087E-01 -0.46250038776E-01 -0.81994297027E-02  0.51238652020E-01  0.51100000000E-03 0. -1.
</event>
<event>
 8    1  0.1092667E+005  0.1043930E+01  0.7957747E-01            NaN
         13   -1    0    0    0    0  0.00000000000E+00  0.00000000000E+00  0.74505805969E-08  0.10566000000E+00  0.10566000000E+00 0. -1.
     999900   -1    0    0    0    0 -0.00000000000E+00 -0.00000000000E+00 -0.74505805969E-08  0.93827000000E+00  0.93827000000E+00 0. -1.
     999902    2    1    2    0    0 -0.12547907965E-01 -0.20214009778E-01 -0.14647850309E-02  0.10200930165E+01  0.10198144736E+01 0.  0.
     999903    2    3    3    0    0  0.83675944780E-01 -0.15639464370E-01 -0.96020917434E-01  0.12980046996E+00  0.19541976286E-01 0.  0.
         14    1    1    2    0    0  0.12547907965E-01  0.20214009778E-01  0.14647850309E-02  0.23836983467E-01  0.00000000000E+00 0.  1.
     999901    1    3    3    0    0 -0.96223852745E-01 -0.45745454078E-02  0.94556132403E-01  0.89029254657E+00  0.88000000000E+00 0.  1.
        -11    1    4    4    0    0  0.82154345624E-01 -0.17146384581E-01 -0.88511323414E-01  0.12197479454E+00  0.51100000000E-03 0. -1.
         11    1    4    4    0    0  0.15215991556E-02  0.15069202103E-02 -0.75095940199E-02  0.78256754248E-02  0.51100000000E-03 0.  1.
</event>
<event>
 8    1  0.1092667E+005  0.1043930E+01  0.7957747E-01            NaN
         13   -1    0    0    0    0  0.00000000000E+00  0.00000000000E+00  0.74505805969E-08  0.10566000000E+00  0.10566000000E+00 0.  1.
     999900   -1    0    0    0    0 -0.00000000000E+00 -0.00000000000E+00 -0.74505805969E-08  0.93827000000E+00  0.93827000000E+00 0. -1.
     999902    2    1    2    0    0  0.20339820445E-01 -0.94253223671E-02 -0.48220719533E-02  0.10209997280E+01  0.10207422041E+01 0.  0.
     999903    2    3    3    0    0 -0.95529004995E-01 -0.43414684535E-01 -0.74302388625E-01  0.13004048319E+00  0.19469378135E-01 0.  0.
         14    1    1    2    0    0 -0.20339820445E-01  0.94253223671E-02  0.48220719533E-02  0.22930272030E-01  0.00000000000E+00 0.  1.
     999901    1    3    3    0    0  0.11586882544E+00  0.33989362168E-01  0.69480316672E-01  0.89095924478E+00  0.88000000000E+00 0.  1.
        -11    1    4    4    0    0 -0.57373730502E-01 -0.19812760909E-01 -0.33172877805E-01  0.69173632184E-01  0.51100000000E-03 0. -1.
         11    1    4    4    0    0 -0.38155274492E-01 -0.23601923627E-01 -0.41129510820E-01  0.60866851009E-01  0.51100000000E-03 0.  1.
</event>
<event>
 8    1  0.1092667E+005  0.1043930E+01  0.7957747E-01            NaN
         13   -1    0    0    0    0  0.00000000000E+00  0.00000000000E+00  0.74505805969E-08  0.10566000000E+00  0.10566000000E+00 0. -1.
     999900   -1    0    0    0    0 -0.00000000000E+00 -0.00000000000E+00 -0.74505805969E-08  0.93827000000E+00  0.93827000000E+00 0.  1.
     999902    2    1    2    0    0  0.19477102839E-01 -0.83931798172E-02 -0.11514289768E-01  0.10197974106E+01  0.10195118326E+01 0.  0.
     999903    2    3    3    0    0  0.11801638477E+00  0.28285955412E-01 -0.49591383856E-01  0.13272063030E+00  0.20676024918E-01 0.  0.
         14    1    1    2    0    0 -0.19477102839E-01  0.83931798172E-02  0.11514289768E-01  0.24132589403E-01  0.00000000000E+00 0. -1.
     999901    1    3    3    0    0 -0.98539281934E-01 -0.36679135230E-01  0.38077094088E-01  0.88707678030E+00  0.88000000000E+00 0. -1.
        -11    1    4    4    0    0  0.34299368641E-01 -0.12529280612E-02 -0.14339089392E-01  0.37200633375E-01  0.51100000000E-03 0.  1.
         11    1    4    4    0    0  0.83717016132E-01  0.29538883474E-01 -0.35252294464E-01  0.95519996927E-01  0.51100000000E-03 0. -1.
</event>
<event>
 8    1  0.1092667E+005  0.1043930E+01  0.7957747E-01            NaN
         13   -1    0    0    0    0  0.00000000000E+00  0.00000000000E+00  0.74505805969E-08  0.10566000000E+00  0.10566000000E+00 0.  1.
     999900   -1    0    0    0    0 -0.00000000000E+00 -0.00000000000E+00 -0.74505805969E-08  0.93827000000E+00  0.93827000000E+00 0.  1.
     999902    2    1    2    0    0  0.34556835100E-02 -0.23330444135E-01 -0.23082284446E-02  0.10202323358E+01  0.10199570773E+01 0.  0.
     999903    2    3    3    0    0  0.85057079109E-02 -0.12015833046E+00  0.53100811469E-01  0.13317466907E+00  0.20135164734E-01 0.  0.
         14    1    1    2    0    0 -0.34556835100E-02  0.23330444135E-01  0.23082284446E-02  0.23697664244E-01  0.00000000000E+00 0.  1.
     999901    1    3    3    0    0 -0.50500244009E-02  0.96827886322E-01 -0.55409039913E-01  0.88705766668E+00  0.88000000000E+00 0.  1.
        -11    1    4    4    0    0  0.11081904469E-01 -0.91599150028E-01  0.48130837656E-01  0.10406753359E+00  0.51100000000E-03 0. -1.
         11    1    4    4    0    0 -0.25761965583E-02 -0.28559180429E-01  0.49699738126E-02  0.29107135486E-01  0.51100000000E-03 0.  1.
</event>
<event>
 8    1  0.1092667E+005  0.1043930E+01  0.7957747E-01            NaN
         13   -1    0    0    0    0  0.00000000000E+00  0.00000000000E+00  0.74505805969E-08  0.10566000000E+00  0.10566000000E+00 0.  1.
     999900   -1    0    0    0    0 -0.00000000000E+00 -0.00000000000E+00 -0.74505805969E-08  0.93827000000E+00  0.93827000000E+00 0. -1.
     999902    2    1    2    0    0  0.21060514248E-01  0.23291312723E-02 -0.12904898571E-01  0.10191205961E+01  0.10188185721E+01 0.  0.
     999903    2    3    3    0    0 -0.52534700627E-01 -0.11042562787E+00 -0.34436440651E-01  0.12861877207E+00  0.20079990621E-01 0.  0.
         14    1    1    2    0    0 -0.21060514248E-01 -0.23291312723E-02  0.12904898571E-01  0.24809403862E-01  0.00000000000E+00 0.  1.
     999901    1    3    3    0    0  0.73595214875E-01  0.11275475914E+00  0.21531542080E-01  0.89050182407E+00  0.88000000000E+00 0.  1.
        -11    1    4    4    0    0 -0.34930069924E-01 -0.75135232299E-01 -0.13456572054E-01  0.83944942492E-01  0.51100000000E-03 0. -1.
         11    1    4    4    0    0 -0.17604630703E-01 -0.35290395573E-01 -0.20979868597E-01  0.44673829579E-01  0.51100000000E-03 0.  1.
</event>
<event>
 8    1  0.1092667E+005  0.1043930E+01  0.7957747E-01            NaN
         13   -1    0    0    0    0  0.00000000000E+00  0.00000000000E+00  0.74505805969E-08  0.10566000000E+00  0.10566000000E+00 0. -1.
     999900   -1    0    0    0    0 -0.00000000000E+00 -0.00000000000E+00 -0.74505805969E-08  0.93827000000E+00  0.93827000000E+00 0. -1.
     999902    2    1    2    0    0  0.14816060576E-01 -0.33182223013E-02  0.19525384868E-01  0.10191960779E+01  0.10188959114E+01 0.  0.
     999903    2    3    3    0    0 -0.10468752460E+00 -0.70191738318E-01 -0.11037190061E-01  0.12808034744E+00  0.19909743867E-01 0.  0.
         14    1    1    2    0    0 -0.14816060576E-01  0.33182223013E-02 -0.19525384868E-01  0.24733922141E-01  0.00000000000E+00 0.  1.
     999901    1    3    3    0    0  0.11950358518E+00  0.66873516017E-01  0.30562574929E-01  0.89111573042E+00  0.88000000000E+00 0.  1.
        -11    1    4    4    0    0 -0.62275196915E-01 -0.45027474962E-01  0.26570010534E-02  0.76895997476E-01  0.51100000000E-03 0.  1.
         11    1    4    4    0    0 -0.42412327685E-01 -0.25164263356E-01 -0.13694191114E-01  0.51184349964E-01  0.51100000000E-03 0. -1.
</event>
<event>
 8    1  0.1092667E+005  0.1043930E+01  0.7957747E-01            NaN
         13   -1    0    0    0    0  0.00000000000E+00  0.00000000000E+00  0.74505805969E-08  0.10566000000E+00  0.10566000000E+00 0.  1.
     999900   -1    0    0    0    0 -0.00000000000E+00 -0.00000000000E+00 -0.74505805969E-08  0.93827000000E+00  0.93827000000E+00 0.  1.
     999902    2    1    2    0    0  0.16225898646E-01 -0.27936530698E-02  0.17122467092E-01  0.10201757759E+01  0.10198991865E+01 0.  0.
     999903    2    3    3    0    0 -0.38467161069E-01  0.27362129915E-02  0.12449346478E+00  0.13194695325E+00  0.20595299373E-01 0.  0.
         14    1    1    2    0    0 -0.16225898646E-01  0.27936530698E-02 -0.17122467092E-01  0.23754224122E-01  0.00000000000E+00 0. -1.
     999901    1    3    3    0    0  0.54693059715E-01 -0.55298660613E-02 -0.10737099769E+00  0.88822882263E+00  0.88000000000E+00 0.  1.
        -11    1    4    4    0    0 -0.23417755442E-01  0.42624403683E-02  0.10263373975E+00  0.10535893567E+00  0.51100000000E-03 0.  1.
         11    1    4    4    0    0 -0.15049405627E-01 -0.15262273768E-02  0.21859725029E-01  0.26588017585E-01  0.51100000000E-03 0. -1.
</event>
<event>
 8    1  0.1092667E+005  0.1043930E+01  0.7957747E-01            NaN
         13   -1    0    0    0    0  0.00000000000E+00  0.00000000000E+00  0.74505805969E-08  0.10566000000E+00  0.10566000000E+00 0. -1.
     999900   -1    0    0    0    0 -0.00000000000E+00 -0.00000000000E+00 -0.74505805969E-08  0.93827000000E+00  0.93827000000E+00 0. -1.
     999902    2    1    2    0    0  0.40146588904E-02  0.16302665547E-01 -0.17018560582E-01  0.10200233943E+01  0.10197432026E+01 0.  0.
     999903    2    3    3    0    0 -0.24549292841E-01 -0.10497817810E+00 -0.69392732158E-01  0.12970435252E+00  0.19615864278E-01 0.  0.
         14    1    1    2    0    0 -0.40146588904E-02 -0.16302665547E-01  0.17018560582E-01  0.23906605661E-01  0.00000000000E+00 0. -1.
     999901    1    3    3    0    0  0.28563951731E-01  0.12128084364E+00  0.52374171576E-01  0.89031904182E+00  0.88000000000E+00 0.  1.
        -11    1    4    4    0    0 -0.77529481494E-02 -0.14338842971E-01 -0.17487469299E-01  0.23911991264E-01  0.51100000000E-03 0. -1.
         11    1    4    4    0    0 -0.16796344692E-01 -0.90639335126E-01 -0.51905262859E-01  0.10579236126E+00  0.51100000000E-03 0.  1.
</event>
<event>
 8    1  0.1092667E+005  0.1043930E+01  0.7957747E-01            NaN
         13   -1    0    0    0    0  0.00000000000E+00  0.00000000000E+00  0.74505805969E-08  0.10566000000E+00  0.10566000000E+00 0. -1.
     999900   -1    0    0    0    0 -0.00000000000E+00 -0.00000000000E+00 -0.74505805969E-08  0.93827000000E+00  0.93827000000E+00 0. -1.
     999902    2    1    2    0    0  0.19768960255E-01 -0.19754149890E-01  0.72911607058E-02  0.10150474923E+01  0.10146364927E+01 0.  0.
     999903    2    3    3    0    0  0.10031520267E+00 -0.29712850743E-01 -0.70814127255E-01  0.12786808039E+00  0.19738591082E-01 0.  0.
         14    1    1    2    0    0 -0.19768960255E-01  0.19754149890E-01 -0.72911607058E-02  0.28882507715E-01  0.00000000000E+00 0. -1.
     999901    1    3    3    0    0 -0.80546242410E-01  0.99587008530E-02  0.78105287961E-01  0.88717941190E+00  0.88000000000E+00 0.  1.
        -11    1    4    4    0    0  0.58459635398E-01 -0.77551796865E-02 -0.35148484479E-01  0.68653833578E-01  0.51100000000E-03 0. -1.
         11    1    4    4    0    0  0.41855567268E-01 -0.21957671056E-01 -0.35665642776E-01  0.59214246809E-01  0.51100000000E-03 0.  1.
</event>
<event>
 8    1  0.1092667E+005  0.1043930E+01  0.7957747E-01            NaN
         13   -1    0    0    0    0  0.00000000000E+00  0.00000000000E+00  0.74505805969E-08  0.10566000000E+00  0.10566000000E+00 0. -1.
     999900   -1    0    0    0    0 -0.00000000000E+00 -0.00000000000E+00 -0.74505805969E-08  0.93827000000E+00  0.93827000000E+00 0.  1.
     999902    2    1    2    0    0  0.20500926360E-01 -0.71581412753E-02  0.88613899317E-02  0.10204768296E+01  0.10202072871E+01 0.  0.
     999903    2    3    3    0    0  0.65725005996E-01  0.36267072801E-01  0.10747535872E+00  0.13275182637E+00  0.20904968110E-01 0.  0.
         14    1    1    2    0    0 -0.20500926360E-01  0.71581412753E-02 -0.88613899317E-02  0.23453170354E-01  0.00000000000E+00 0.  1.
     999901    1    3    3    0    0 -0.45224079636E-01 -0.43425214076E-01 -0.98613968784E-01  0.88772500327E+00  0.88000000000E+00 0.  1.
        -11    1    4    4    0    0  0.55308177291E-01  0.20515514783E-01  0.83191823757E-01  0.10198539838E+00  0.51100000000E-03 0.  1.
         11    1    4    4    0    0  0.10416828704E-01  0.15751558018E-01  0.24283534958E-01  0.30766427991E-01  0.51100000000E-03 0. -1.
</event>
<event>
 8    1  0.1092667E+005  0.1043930E+01  0.7957747E-01            NaN
         13   -1    0    0    0    0  0.00000000000E+00  0.00000000000E+00  0.74505805969E-08  0.10566000000E+00  0.10566000000E+00 0. -1.
     999900   -1    0    0    0    0 -0.00000000000E+00 -0.00000000000E+00 -0.74505805969E-08  0.93827000000E+00  0.93827000000E+00 0. -1.
     999902    2    1    2    0    0 -0.80265697124E-02  0.10859483371E-01  0.20473882421E-01  0.10194038087E+01  0.10191087239E+01 0.  0.
     999903    2    3    3    0    0  0.10612809087E+00 -0.66971074153E-01 -0.80019096039E-02  0.12816884920E+00  0.24797719737E-01 0.  0.
         14    1    1    2    0    0  0.80265697124E-02 -0.10859483371E-01 -0.20473882421E-01  0.24526191344E-01  0.00000000000E+00 0.  1.
     999901    1    3    3    0    0 -0.11415466058E+00  0.77830557524E-01  0.28475792025E-01  0.89123495945E+00  0.88000000000E+00 0.  1.
        -11    1    4    4    0    0  0.63052423338E-01 -0.31753297415E-01 -0.14737711774E-01  0.72120324838E-01  0.51100000000E-03 0. -1.
         11    1    4    4    0    0  0.43075667533E-01 -0.35217776738E-01  0.67358021700E-02  0.56048524366E-01  0.51100000000E-03 0.  1.
</event>
<event>
 8    1  0.1092667E+005  0.1043930E+01  0.7957747E-01            NaN
         13   -1    0    0    0    0  0.00000000000E+00  0.00000000000E+00  0.74505805969E-08  0.10566000000E+00  0.10566000000E+00 0.  1.
     999900   -1    0    0    0    0 -0.00000000000E+00 -0.00000000000E+00 -0.74505805969E-08  0.93827000000E+00  0.93827000000E+00 0. -1.
     999902    2    1    2    0    0 -0.15515232659E-01  0.85366187957E-02 -0.13207363388E-01  0.10218385819E+01  0.10215997537E+01 0.  0.
     999903    2    3    3    0    0 -0.10031616950E-01  0.74609735708E-01 -0.10923254018E+00  0.13413561280E+00  0.19833526795E-01 0.  0.
         14    1    1    2    0    0  0.15515232659E-01 -0.85366187957E-02  0.13207363388E-01  0.22091418075E-01  0.00000000000E+00 0.  1.
     999901    1    3    3    0    0 -0.54836157093E-02 -0.66073116912E-01  0.96025176793E-01  0.88770296913E+00  0.88000000000E+00 0. -1.
        -11    1    4    4    0    0  0.10423943047E-02  0.43912045301E-01 -0.50400957857E-01  0.66857101211E-01  0.51100000000E-03 0.  1.
         11    1    4    4    0    0 -0.11074011254E-01  0.30697690407E-01 -0.58831582323E-01  0.67278511586E-01  0.51100000000E-03 0. -1.
</event>
<event>
 8    1  0.1092667E+005  0.1043930E+01  0.7957747E-01            NaN
         13   -1    0    0    0    0  0.00000000000E+00  0.00000000000E+00  0.74505805969E-08  0.10566000000E+00  0.10566000000E+00 0. -1.
     999900   -1    0    0    0    0 -0.00000000000E+00 -0.00000000000E+00 -0.74505805969E-08  0.93827000000E+00  0.93827000000E+00 0.  1.
     999902    2    1    2    0    0  0.14878938227E-01 -0.68122717616E-02 -0.12300165739E-01  0.10234584606E+01  0.10232537010E+01 0.  0.
     999903    2    3    3    0    0 -0.44374263031E-01  0.90499768262E-01 -0.84748397536E-01  0.13316113873E+00  0.19756383964E-01 0.  0.
         14    1    1    2    0    0 -0.14878938227E-01  0.68122717616E-02  0.12300165739E-01  0.20471539428E-01  0.00000000000E+00 0. -1.
     999901    1    3    3    0    0  0.59253201258E-01 -0.97312040024E-01  0.72448231797E-01  0.89029732184E+00  0.88000000000E+00 0. -1.
        -11    1    4    4    0    0 -0.85380906933E-02  0.34943353469E-01 -0.37013689041E-01  0.51615997925E-01  0.51100000000E-03 0. -1.
         11    1    4    4    0    0 -0.35836172337E-01  0.55556414793E-01 -0.47734708495E-01  0.81545140803E-01  0.51100000000E-03 0.  1.
</event>
<event>
 8    1  0.1092667E+005  0.1043930E+01  0.7957747E-01            NaN
         13   -1    0    0    0    0  0.00000000000E+00  0.00000000000E+00  0.74505805969E-08  0.10566000000E+00  0.10566000000E+00 0. -1.
     999900   -1    0    0    0    0 -0.00000000000E+00 -0.00000000000E+00 -0.74505805969E-08  0.93827000000E+00  0.93827000000E+00 0.  1.
     999902    2    1    2    0    0  0.21158224554E-01 -0.40238038216E-02  0.59269224487E-02  0.10215919188E+01  0.10213476678E+01 0.  0.
     999903    2    3    3    0    0 -0.53581537950E-01  0.10562302499E+00  0.51039612652E-01  0.13050066980E+00  0.19954401580E-01 0.  0.
         14    1    1    2    0    0 -0.21158224554E-01  0.40238038216E-02 -0.59269224487E-02  0.22338081233E-01  0.00000000000E+00 0. -1.
     999901    1    3    3    0    0  0.74739762504E-01 -0.10964682881E+00 -0.45112690203E-01  0.89109124897E+00  0.88000000000E+00 0. -1.
        -11    1    4    4    0    0 -0.25217841776E-01  0.35163765823E-01  0.26193471154E-01  0.50584474128E-01  0.51100000000E-03 0.  1.
         11    1    4    4    0    0 -0.28363696175E-01  0.70459259163E-01  0.24846141498E-01  0.79916195673E-01  0.51100000000E-03 0. -1.
</event>
<event>
 8    1  0.1092667E+005  0.1043930E+01  0.7957747E-01            NaN
         13   -1    0    0    0    0  0.00000000000E+00  0.00000000000E+00  0.74505805969E-08  0.10566000000E+00  0.10566000000E+00 0.  1.
     999900   -1    0    0    0    0 -0.00000000000E+00 -0.00000000000E+00 -0.74505805969E-08  0.93827000000E+00  0.93827000000E+00 0.  1.
     999902    2    1    2    0    0 -0.19338569779E-01  0.95988375291E-02  0.10850954223E-01  0.10197667806E+01  0.10194804685E+01 0.  0.
     999903    2    3    3    0    0 -0.74465880649E-01  0.36632400786E-01 -0.98899439332E-01  0.13082640983E+00  0.21150655788E-01 0.  0.
         14    1    1    2    0    0  0.19338569779E-01 -0.95988375291E-02 -0.10850954223E-01  0.24163219375E-01  0.00000000000E+00 0. -1.
     999901    1    3    3    0    0  0.55127310870E-01 -0.27033563257E-01  0.10975039356E+00  0.88894037080E+00  0.88000000000E+00 0. -1.
        -11    1    4    4    0    0 -0.25135182586E-01  0.11646805182E-01 -0.18766340482E-01  0.33464341181E-01  0.51100000000E-03 0. -1.
         11    1    4    4    0    0 -0.49330698062E-01  0.24985595604E-01 -0.80133098850E-01  0.97362068647E-01  0.51100000000E-03 0.  1.
</event>
<event>
 8    1  0.1092667E+005  0.1043930E+01  0.7957747E-01            NaN
         13   -1    0    0    0    0  0.00000000000E+00  0.00000000000E+00  0.74505805969E-08  0.10566000000E+00  0.10566000000E+00 0.  1.
     999900   -1    0    0    0    0 -0.00000000000E+00 -0.00000000000E+00 -0.74505805969E-08  0.93827000000E+00  0.93827000000E+00 0. -1.
     999902    2    1    2    0    0 -0.17893414525E-01 -0.38350103872E-03 -0.14635840622E-01  0.10208101127E+01  0.10205482630E+01 0.  0.
     999903    2    3    3    0    0  0.12464069537E+00 -0.55459499506E-02  0.23456886164E-01  0.12851325675E+00  0.19984272563E-01 0.  0.
         14    1    1    2    0    0  0.17893414525E-01  0.38350103872E-03  0.14635840622E-01  0.23119887264E-01  0.00000000000E+00 0.  1.
     999901    1    3    3    0    0 -0.14253410989E+00  0.51624489118E-02 -0.38092726786E-01  0.89229685598E+00  0.88000000000E+00 0.  1.
        -11    1    4    4    0    0  0.83578208767E-01 -0.49021394007E-02  0.25114584771E-01  0.87409103877E-01  0.51100000000E-03 0.  1.
         11    1    4    4    0    0  0.41062486603E-01 -0.64381054991E-03 -0.16576986075E-02  0.41104152876E-01  0.51100000000E-03 0. -1.
</event>
<event>
 8    1  0.1092667E+005  0.1043930E+01  0.7957747E-01            NaN
         13   -1    0    0    0    0  0.00000000000E+00  0.00000000000E+00  0.74505805969E-08  0.10566000000E+00  0.10566000000E+00 0.  1.
     999900   -1    0    0    0    0 -0.00000000000E+00 -0.00000000000E+00 -0.74505805969E-08  0.93827000000E+00  0.93827000000E+00 0. -1.
     999902    2    1    2    0    0 -0.17640694898E-01 -0.33421927645E-02  0.18175656589E-01  0.10183816368E+01  0.10180611177E+01 0.  0.
     999903    2    3    3    0    0 -0.80510488232E-01 -0.54269006509E-01 -0.82689120653E-01  0.12893245077E+00  0.18947886528E-01 0.  0.
         14    1    1    2    0    0  0.17640694898E-01  0.33421927645E-02 -0.18175656589E-01  0.25548363185E-01  0.00000000000E+00 0. -1.
     999901    1    3    3    0    0  0.62869793334E-01  0.50926813744E-01  0.10086477724E+00  0.88944918605E+00  0.88000000000E+00 0.  1.
        -11    1    4    4    0    0 -0.45769533516E-01 -0.40170519921E-01 -0.57540798196E-01  0.83783801818E-01  0.51100000000E-03 0. -1.
         11    1    4    4    0    0 -0.34740954716E-01 -0.14098486588E-01 -0.25148322457E-01  0.45148648951E-01  0.51100000000E-03 0.  1.
</event>
<event>
 8    1  0.1092667E+005  0.1043930E+01  0.7957747E-01            NaN
         13   -1    0    0    0    0  0.00000000000E+00  0.00000000000E+00  0.74505805969E-08  0.10566000000E+00  0.10566000000E+00 0. -1.
     999900   -1    0    0    0    0 -0.00000000000E+00 -0.00000000000E+00 -0.74505805969E-08  0.93827000000E+00  0.93827000000E+00 0.  1.
     999902    2    1    2    0    0  0.72416321002E-03  0.22786871809E-01  0.13940324538E-02  0.10210890441E+01  0.10208335451E+01 0.  0.
     999903    2    3    3    0    0 -0.32970701469E-01 -0.77753340970E-01  0.96351957107E-01  0.12965161740E+00  0.19829096533E-01 0.  0.
         14    1    1    2    0    0 -0.72416321002E-03 -0.22786871809E-01 -0.13940324538E-02  0.22840955884E-01  0.00000000000E+00 0. -1.
     999901    1    3    3    0    0  0.33694864679E-01  0.10054021278E+00 -0.94957924653E-01  0.89143742671E+00  0.88000000000E+00 0.  1.
        -11    1    4    4    0    0 -0.66397716173E-02 -0.34849428364E-01  0.30686591109E-01  0.46909457674E-01  0.51100000000E-03 0. -1.
         11    1    4    4    0    0 -0.26330929851E-01 -0.42903912606E-01  0.65665365999E-01  0.82742159728E-01  0.51100000000E-03 0.  1.
</event>
<event>
 8    1  0.1092667E+005  0.1043930E+01  0.7957747E-01            NaN
         13   -1    0    0    0    0  0.00000000000E+00  0.00000000000E+00  0.74505805969E-08  0.10566000000E+00  0.10566000000E+00 0. -1.
     999900   -1    0    0    0    0 -0.00000000000E+00 -0.00000000000E+00 -0.74505805969E-08  0.93827000000E+00  0.93827000000E+00 0.  1.
     999902    2    1    2    0    0  0.14494107338E-01 -0.18513035518E-01 -0.18539188000E-02  0.10203450759E+01  0.10200724608E+01 0.  0.
     999903    2    3    3    0    0  0.99512769614E-01 -0.76559459968E-01  0.40377751512E-01  0.13333826963E+00  0.19610943473E-01 0.  0.
         14    1    1    2    0    0 -0.14494107338E-01  0.18513035518E-01  0.18539188000E-02  0.23584924137E-01  0.00000000000E+00 0. -1.
     999901    1    3    3    0    0 -0.85018662275E-01  0.58046424450E-01 -0.42231670312E-01  0.88700680623E+00  0.88000000000E+00 0. -1.
        -11    1    4    4    0    0  0.67069106544E-01 -0.61185699112E-01  0.33561651093E-01  0.96791530485E-01  0.51100000000E-03 0.  1.
         11    1    4    4    0    0  0.32443663069E-01 -0.15373760857E-01  0.68161004184E-02  0.36546739145E-01  0.51100000000E-03 0. -1.
</event>
<event>
 8    1  0.1092667E+005  0.1043930E+01  0.7957747E-01            NaN
         13   -1    0    0    0    0  0.00000000000E+00  0.00000000000E+00  0.74505805969E-08  0.10566000000E+00  0.10566000000E+00 0.  1.
     999900   -1    0    0    0    0 -0.00000000000E+00 -0.00000000000E+00 -0.74505805969E-08  0.93827000000E+00  0.93827000000E+00 0.  1.
     999902    2    1    2    0    0 -0.12039725874E-01  0.13376203560E-01 -0.15335576340E-01  0.10202855985E+01  0.10200115905E+01 0.  0.
     999903    2    3    3    0    0 -0.50206636534E-01 -0.21670509049E-01  0.11501813934E+00  0.12917557368E+00  0.21606460681E-01 0.  0.
         14    1    1    2    0    0  0.12039725874E-01 -0.13376203560E-01  0.15335576340E-01  0.23644401503E-01  0.00000000000E+00 0. -1.
     999901    1    3    3    0    0  0.38166910660E-01  0.35046712609E-01 -0.13035371568E+00  0.89111002482E+00  0.88000000000E+00 0.  1.
        -11    1    4    4    0    0 -0.46281026832E-01 -0.14563364116E-01  0.83018298569E-01  0.96157807989E-01  0.51100000000E-03 0.  1.
         11    1    4    4    0    0 -0.39256097012E-02 -0.71071449330E-02  0.31999840776E-01  0.33017765692E-01  0.51100000000E-03 0. -1.
</event>
<event>
 8    1  0.1092667E+005  0.1043930E+01  0.7957747E-01            NaN
         13   -1    0    0    0    0  0.00000000000E+00  0.00000000000E+00  0.74505805969E-08  0.10566000000E+00  0.10566000000E+00 0.  1.
     999900   -1    0    0    0    0 -0.00000000000E+00 -0.00000000000E+00 -0.74505805969E-08  0.93827000000E+00  0.93827000000E+00 0.  1.
     999902    2    1    2    0    0 -0.89266572822E-02  0.17749039449E-01  0.13509975214E-01  0.10199043254E+01  0.10196213022E+01 0.  0.
     999903    2    3    3    0    0 -0.16191526461E-01 -0.43511163203E-03  0.12952461465E+00  0.13207391462E+00  0.20113136761E-01 0.  0.
         14    1    1    2    0    0  0.89266572822E-02 -0.17749039449E-01 -0.13509975214E-01  0.24025674639E-01  0.00000000000E+00 0. -1.
     999901    1    3    3    0    0  0.72648691789E-02  0.18184151082E-01 -0.11601463944E+00  0.88783041074E+00  0.88000000000E+00 0.  1.
        -11    1    4    4    0    0  0.34437973764E-02 -0.39996049107E-02  0.40042033238E-01  0.40391609607E-01  0.51100000000E-03 0. -1.
         11    1    4    4    0    0 -0.19635323837E-01  0.35644932787E-02  0.89482581415E-01  0.91682305011E-01  0.51100000000E-03 0.  1.
</event>
<event>
 8    1  0.1092667E+005  0.1043930E+01  0.7957747E-01            NaN
         13   -1    0    0    0    0  0.00000000000E+00  0.00000000000E+00  0.74505805969E-08  0.10566000000E+00  0.10566000000E+00 0. -1.
     999900   -1    0    0    0    0 -0.00000000000E+00 -0.00000000000E+00 -0.74505805969E-08  0.93827000000E+00  0.93827000000E+00 0.  1.
     999902    2    1    2    0    0  0.85372502867E-02 -0.15547257684E-01  0.15398247383E-01  0.10204415372E+01  0.10201711733E+01 0.  0.
     999903    2    3    3    0    0 -0.65066436181E-01  0.27743512320E-01 -0.10489150543E+00  0.12816287102E+00  0.20497560886E-01 0.  0.
         14    1    1    2    0    0 -0.85372502867E-02  0.15547257684E-01 -0.15398247383E-01  0.23488462836E-01  0.00000000000E+00 0.  1.
     999901    1    3    3    0    0  0.73603686468E-01 -0.43290770004E-01  0.12028975281E+00  0.89227866615E+00  0.88000000000E+00 0. -1.
        -11    1    4    4    0    0 -0.20952573183E-01  0.56263389639E-02 -0.49070487606E-01  0.53654821666E-01  0.51100000000E-03 0.  1.
         11    1    4    4    0    0 -0.44113862999E-01  0.22117173356E-01 -0.55821017825E-01  0.74508049350E-01  0.51100000000E-03 0. -1.
</event>
<event>
 8    1  0.1092667E+005  0.1043930E+01  0.7957747E-01            NaN
         13   -1    0    0    0    0  0.00000000000E+00  0.00000000000E+00  0.74505805969E-08  0.10566000000E+00  0.10566000000E+00 0.  1.
     999900   -1    0    0    0    0 -0.00000000000E+00 -0.00000000000E+00 -0.74505805969E-08  0.93827000000E+00  0.93827000000E+00 0. -1.
     999902    2    1    2    0    0  0.19341263348E-02  0.20662125071E-01 -0.13021191845E-01  0.10194307001E+01  0.10191362699E+01 0.  0.
     999903    2    3    3    0    0  0.44376349457E-01  0.60407199501E-01 -0.10739049781E+00  0.13247716180E+00  0.19979720644E-01 0.  0.
         14    1    1    2    0    0 -0.19341263348E-02 -0.20662125071E-01  0.13021191845E-01  0.24499299872E-01  0.00000000000E+00 0.  1.
     999901    1    3    3    0    0 -0.42442223122E-01 -0.39745074430E-01  0.94369305961E-01  0.88695353833E+00  0.88000000000E+00 0. -1.
        -11    1    4    4    0    0  0.37753105729E-01  0.39255182856E-01 -0.85107379545E-01  0.10104352303E+00  0.51100000000E-03 0. -1.
         11    1    4    4    0    0  0.66232437280E-02  0.21152016645E-01 -0.22283118261E-01  0.31433638766E-01  0.51100000000E-03 0.  1.
</event>
<event>
 8    1  0.1092667E+005  0.1043930E+01  0.7957747E-01            NaN
         13   -1    0    0    0    0  0.00000000000E+00  0.00000000000E+00  0.74505805969E-08  0.10566000000E+00  0.10566000000E+00 0.  1.
     999900   -1    0    0    0    0 -0.00000000000E+00 -0.00000000000E+00 -0.74505805969E-08  0.93827000000E+00  0.93827000000E+00 0.  1.
     999902    2    1    2    0    0 -0.94061657636E-03 -0.22749735679E-01 -0.35660563208E-02  0.10208832651E+01  0.10206230886E+01 0.  0.
     999903    2    3    3    0    0  0.65310392417E-01  0.10135709676E+00 -0.40732359153E-01  0.12893425526E+00  0.20644822022E-01 0.  0.
         14    1    1    2    0    0  0.94061657636E-03  0.22749735679E-01  0.35660563208E-02  0.23046734924E-01  0.00000000000E+00 0. -1.
     999901    1    3    3    0    0 -0.66251008993E-01 -0.12410683243E+00  0.37166302832E-01  0.89194900982E+00  0.88000000000E+00 0.  1.
        -11    1    4    4    0    0  0.53977734830E-01  0.80014608043E-01 -0.40735008475E-01  0.10476418946E+00  0.51100000000E-03 0.  1.
         11    1    4    4    0    0  0.11332657587E-01  0.21342488712E-01  0.26493225687E-05  0.24170065793E-01  0.51100000000E-03 0. -1.
</event>
<event>
 8    1  0.1092667E+005  0.1043930E+01  0.7957747E-01            NaN
         13   -1    0    0    0    0  0.00000000000E+00  0.00000000000E+00  0.74505805969E-08  0.10566000000E+00  0.10566000000E+00 0.  1.
     999900   -1    0    0    0    0 -0.00000000000E+00 -0.00000000000E+00 -0.74505805969E-08  0.93827000000E+00  0.93827000000E+00 0.  1.
     999902    2    1    2    0    0 -0.14042946499E-01  0.21314168400E-01 -0.47859544332E-03  0.10184010522E+01  0.10180810262E+01 0.  0.
     999903    2    3    3    0    0  0.22375269814E-01  0.70525221606E-01 -0.10492313657E+00  0.13011242998E+00  0.21116824226E-01 0.  0.
         14    1    1    2    0    0  0.14042946499E-01 -0.21314168400E-01  0.47859544332E-03  0.25528947776E-01  0.00000000000E+00 0. -1.
     999901    1    3    3    0    0 -0.36418216313E-01 -0.49211053206E-01  0.10444454113E+00  0.88828862224E+00  0.88000000000E+00 0. -1.
        -11    1    4    4    0    0  0.11117311065E-01  0.32365763474E-01 -0.31079121028E-01  0.46231051637E-01  0.51100000000E-03 0.  1.
         11    1    4    4    0    0  0.11257958749E-01  0.38159458132E-01 -0.73844015544E-01  0.83881378343E-01  0.51100000000E-03 0. -1.
</event>
<event>
 8    1  0.1092667E+005  0.1043930E+01  0.7957747E-01            NaN
         13   -1    0    0    0    0  0.00000000000E+00  0.00000000000E+00  0.74505805969E-08  0.10566000000E+00  0.10566000000E+00 0. -1.
     999900   -1    0    0    0    0 -0.00000000000E+00 -0.00000000000E+00 -0.74505805969E-08  0.93827000000E+00  0.93827000000E+00 0.  1.
     999902    2    1    2    0    0  0.16855631372E-01  0.62715238684E-02 -0.15147087106E-01  0.10204166300E+01  0.10201456858E+01 0.  0.
     999903    2    3    3    0    0  0.97463810593E-01 -0.86476713583E-01 -0.32122835690E-02  0.13179840285E+00  0.19572528187E-01 0.  0.
         14    1    1    2    0    0 -0.16855631372E-01 -0.62715238684E-02  0.15147087106E-01  0.23513369993E-01  0.00000000000E+00 0. -1.
     999901    1    3    3    0    0 -0.80608179221E-01  0.92748237452E-01 -0.11934803537E-01  0.88861822716E+00  0.88000000000E+00 0.  1.
        -11    1    4    4    0    0  0.67921137366E-01 -0.68737356580E-01 -0.81718165993E-02  0.96980125790E-01  0.51100000000E-03 0.  1.
         11    1    4    4    0    0  0.29542673227E-01 -0.17739357003E-01  0.49595330303E-02  0.34818277056E-01  0.51100000000E-03 0. -1.
</event>
<event>
 8    1  0.1092667E+005  0.1043930E+01  0.7957747E-01            NaN
         13   -1    0    0    0    0  0.00000000000E+00  0.00000000000E+00  0.74505805969E-08  0.10566000000E+00  0.10566000000E+00 0.  1.
     999900   -1    0    0    0    0 -0.00000000000E+00 -0.00000000000E+00 -0.74505805969E-08  0.93827000000E+00  0.93827000000E+00 0. -1.
     999902    2    1    2    0    0 -0.91827805851E-02  0.98833149154E-02  0.18426065656E-01  0.10210931160E+01  0.10208377091E+01 0.  0.
     999903    2    3    3    0    0  0.34848717895E-01 -0.10028715566E+00  0.74786829798E-01  0.13134436433E+00  0.19655162213E-01 0.  0.
         14    1    1    2    0    0  0.91827805851E-02 -0.98833149154E-02 -0.18426065656E-01  0.22836883950E-01  0.00000000000E+00 0. -1.
     999901    1    3    3    0    0 -0.44031498480E-01  0.11017047058E+00 -0.56360764142E-01  0.88974875172E+00  0.88000000000E+00 0.  1.
        -11    1    4    4    0    0  0.12335578114E-02 -0.28416315569E-01  0.16447301797E-01  0.32860059537E-01  0.51100000000E-03 0. -1.
         11    1    4    4    0    0  0.33615160083E-01 -0.71870840092E-01  0.58339528000E-01  0.98484304797E-01  0.51100000000E-03 0.  1.
</event>
<event>
 8    1  0.1092667E+005  0.1043930E+01  0.7957747E-01            NaN
         13   -1    0    0    0    0  0.00000000000E+00  0.00000000000E+00  0.74505805969E-08  0.10566000000E+00  0.10566000000E+00 0. -1.
     999900   -1    0    0    0    0 -0.00000000000E+00 -0.00000000000E+00 -0.74505805969E-08  0.93827000000E+00  0.93827000000E+00 0.  1.
     999902    2    1    2    0    0 -0.58062104767E-02  0.17051501112E-01 -0.14224201965E-01  0.10209780133E+01  0.10207199959E+01 0.  0.
     999903    2    3    3    0    0 -0.39724514567E-01 -0.10805424930E+00 -0.57926635358E-01  0.13040976619E+00  0.19936253054E-01 0.  0.
         14    1    1    2    0    0  0.58062104767E-02 -0.17051501112E-01  0.14224201965E-01  0.22951986664E-01  0.00000000000E+00 0.  1.
     999901    1    3    3    0    0  0.33918304090E-01  0.12510575041E+00  0.43702433394E-01  0.89056824714E+00  0.88000000000E+00 0.  1.
        -11    1    4    4    0    0 -0.66861324151E-02 -0.27149857185E-01 -0.55084754706E-02  0.28503044308E-01  0.51100000000E-03 0.  1.
         11    1    4    4    0    0 -0.33038382152E-01 -0.80904392111E-01 -0.52418159888E-01  0.10190672188E+00  0.51100000000E-03 0. -1.
</event>
<event>
 8    1  0.1092667E+005  0.1043930E+01  0.7957747E-01            NaN
         13   -1    0    0    0    0  0.00000000000E+00  0.00000000000E+00  0.74505805969E-08  0.10566000000E+00  0.10566000000E+00 0. -1.
     999900   -1    0    0    0    0 -0.00000000000E+00 -0.00000000000E+00 -0.74505805969E-08  0.93827000000E+00  0.93827000000E+00 0.  1.
     999902    2    1    2    0    0 -0.18862820264E-02 -0.17306985331E-01  0.17647406054E-01  0.10191404711E+01  0.10188389368E+01 0.  0.
     999903    2    3    3    0    0  0.33176971908E-01 -0.94358161419E-01  0.84658143532E-01  0.13254205333E+00  0.19905289314E-01 0.  0.
         14    1    1    2    0    0  0.18862820264E-02  0.17306985331E-01 -0.17647406054E-01  0.24789528869E-01  0.00000000000E+00 0. -1.
     999901    1    3    3    0    0 -0.35063253934E-01  0.77051176088E-01 -0.67010737478E-01  0.88659841780E+00  0.88000000000E+00 0.  1.
        -11    1    4    4    0    0 -0.19614837631E-03 -0.20524709152E-01  0.22178981577E-01  0.30223674574E-01  0.51100000000E-03 0.  1.
         11    1    4    4    0    0  0.33373120284E-01 -0.73833452267E-01  0.62479161955E-01  0.10231837875E+00  0.51100000000E-03 0. -1.
</event>
<event>
 8    1  0.1092667E+005  0.1043930E+01  0.7957747E-01            NaN
         13   -1    0    0    0    0  0.00000000000E+00  0.00000000000E+00  0.74505805969E-08  0.10566000000E+00  0.10566000000E+00 0.  1.
     999900   -1    0    0    0    0 -0.00000000000E+00 -0.00000000000E+00 -0.74505805969E-08  0.93827000000E+00  0.93827000000E+00 0. -1.
     999902    2    1    2    0    0 -0.98797468632E-02 -0.20273530708E-01 -0.81765566814E-02  0.10199408040E+01  0.10196586498E+01 0.  0.
     999903    2    3    3    0    0 -0.75440799771E-01  0.98200043991E-01  0.29029338902E-01  0.12880752653E+00  0.20349777952E-01 0.  0.
         14    1    1    2    0    0  0.98797468632E-02  0.20273530708E-01  0.81765566814E-02  0.23989195998E-01  0.00000000000E+00 0.  1.
     999901    1    3    3    0    0  0.65561052908E-01 -0.11847357470E+00 -0.37205895583E-01  0.89113327748E+00  0.88000000000E+00 0.  1.
        -11    1    4    4    0    0 -0.53491446142E-01  0.82976926596E-01  0.24349122164E-01  0.10168405002E+00  0.51100000000E-03 0.  1.
         11    1    4    4    0    0 -0.21949353628E-01  0.15223117394E-01  0.46802167374E-02  0.27123476503E-01  0.51100000000E-03 0. -1.
</event>
<event>
 8    1  0.1092667E+005  0.1043930E+01  0.7957747E-01            NaN
         13   -1    0    0    0    0  0.00000000000E+00  0.00000000000E+00  0.74505805969E-08  0.10566000000E+00  0.10566000000E+00 0.  1.
     999900   -1    0    0    0    0 -0.00000000000E+00 -0.00000000000E+00 -0.74505805969E-08  0.93827000000E+00  0.93827000000E+00 0. -1.
     999902    2    1    2    0    0 -0.20802941318E-01  0.66869114983E-02 -0.87109458454E-02  0.10204064431E+01  0.10201352613E+01 0.  0.
     999903    2    3    3    0    0 -0.82054702196E-01  0.33587248102E-01  0.95490984791E-01  0.13173696083E+00  0.19365466319E-01 0.  0.
         14    1    1    2    0    0  0.20802941318E-01 -0.66869114983E-02  0.87109458454E-02  0.23523556925E-01  0.00000000000E+00 0. -1.
     999901    1    3    3    0    0  0.61251760878E-01 -0.26900336604E-01 -0.10420193064E+00  0.88866948224E+00  0.88000000000E+00 0.  1.
        -11    1    4    4    0    0 -0.39360045704E-01  0.23960114541E-01  0.58206905725E-01  0.74240186433E-01  0.51100000000E-03 0.  1.
         11    1    4    4    0    0 -0.42694656492E-01  0.96271335617E-02  0.37284079066E-01  0.57496774400E-01  0.51100000000E-03 0. -1.
</event>
<event>
 8    1  0.1092667E+005  0.1043930E+01  0.7957747E-01            NaN
         13   -1    0    0    0    0  0.00000000000E+00  0.00000000000E+00  0.74505805969E-08  0.10566000000E+00  0.10566000000E+00 0.  1.
     999900   -1    0    0    0    0 -0.00000000000E+00 -0.00000000000E+00 -0.74505805969E-08  0.93827000000E+00  0.93827000000E+00 0.  1.
     999902    2    1    2    0    0 -0.13228110036E-01  0.96258607574E-02  0.14447202517E-01  0.10221042869E+01  0.10218712304E+01 0.  0.
     999903    2    3    3    0    0  0.57545895943E-01  0.11609510188E+00 -0.17303288535E-01  0.13229939095E+00  0.20349993414E-01 0.  0.
         14    1    1    2    0    0  0.13228110036E-01 -0.96258607574E-02 -0.14447202517E-01  0.21825713070E-01  0.00000000000E+00 0. -1.
     999901    1    3    3    0    0 -0.70774005979E-01 -0.10646924112E+00  0.31750491052E-01  0.88980489598E+00  0.88000000000E+00 0. -1.
        -11    1    4    4    0    0  0.36676554910E-03  0.96971067879E-02  0.21509456020E-02  0.99526923497E-02  0.51100000000E-03 0. -1.
         11    1    4    4    0    0  0.57179130394E-01  0.10639799509E+00 -0.19454234137E-01  0.12234669860E+00  0.51100000000E-03 0.  1.
</event>
<event>
 8    1  0.1092667E+005  0.1043930E+01  0.7957747E-01            NaN
         13   -1    0    0    0    0  0.00000000000E+00  0.00000000000E+00  0.74505805969E-08  0.10566000000E+00  0.10566000000E+00 0. -1.
     999900   -1    0    0    0    0 -0.00000000000E+00 -0.00000000000E+00 -0.74505805969E-08  0.93827000000E+00  0.93827000000E+00 0.  1.
     999902    2    1    2    0    0 -0.54593073167E-02  0.14063512676E-01 -0.19182174907E-01  0.10195262655E+01  0.10192341555E+01 0.  0.
     999903    2    3    3    0    0 -0.91983728956E-01 -0.55251391973E-01  0.67591813242E-01  0.12833562561E+00  0.19689003920E-01 0.  0.
         14    1    1    2    0    0  0.54593073167E-02 -0.14063512676E-01  0.19182174907E-01  0.24403734536E-01  0.00000000000E+00 0. -1.
     999901    1    3    3    0    0  0.86524421640E-01  0.69314904649E-01 -0.86773988149E-01  0.89119063986E+00  0.88000000000E+00 0.  1.
        -11    1    4    4    0    0 -0.61155172142E-01 -0.46406613114E-01  0.51540057256E-01  0.92467115471E-01  0.51100000000E-03 0. -1.
         11    1    4    4    0    0 -0.30828556814E-01 -0.88447788587E-02  0.16051755985E-01  0.35868510137E-01  0.51100000000E-03 0.  1.
</event>
<event>
 8    1  0.1092667E+005  0.1043930E+01  0.7957747E-01            NaN
         13   -1    0    0    0    0  0.00000000000E+00  0.00000000000E+00  0.74505805969E-08  0.10566000000E+00  0.10566000000E+00 0. -1.
     999900   -1    0    0    0    0 -0.00000000000E+00 -0.00000000000E+00 -0.74505805969E-08  0.93827000000E+00  0.93827000000E+00 0.  1.
     999902    2    1    2    0    0  0.16803587016E-01  0.14936617913E-01 -0.90988618097E-02  0.10196760853E+01  0.10193875939E+01 0.  0.
     999903    2    3    3    0    0  0.12866557485E-01  0.74428380626E-01 -0.10659989642E+00  0.13228596717E+00  0.20758300709E-01 0.  0.
         14    1    1    2    0    0 -0.16803587016E-01 -0.14936617913E-01  0.90988618097E-02  0.24253914684E-01  0.00000000000E+00 0. -1.
     999901    1    3    3    0    0  0.39370295309E-02 -0.59491762713E-01  0.97501034614E-01  0.88739011815E+00  0.88000000000E+00 0.  1.
        -11    1    4    4    0    0  0.16029598393E-01  0.47486827406E-01 -0.79189026710E-01  0.93718247284E-01  0.51100000000E-03 0.  1.
         11    1    4    4    0    0 -0.31630409086E-02  0.26941553220E-01 -0.27410869714E-01  0.38567719886E-01  0.51100000000E-03 0. -1.
</event>
<event>
 8    1  0.1092667E+005  0.1043930E+01  0.7957747E-01            NaN
         13   -1    0    0    0    0  0.00000000000E+00  0.00000000000E+00  0.74505805969E-08  0.10566000000E+00  0.10566000000E+00 0.  1.
     999900   -1    0    0    0    0 -0.00000000000E+00 -0.00000000000E+00 -0.74505805969E-08  0.93827000000E+00  0.93827000000E+00 0. -1.
     999902    2    1    2    0    0 -0.75193713835E-02  0.18815286381E-01  0.13069338235E-01  0.10198185183E+01  0.10195334456E+01 0.  0.
     999903    2    3    3    0    0  0.77420922785E-01 -0.89616622568E-01 -0.42208318638E-01  0.12739039694E+00  0.20533697798E-01 0.  0.
         14    1    1    2    0    0  0.75193713835E-02 -0.18815286381E-01 -0.13069338235E-01  0.24111481694E-01  0.00000000000E+00 0. -1.
     999901    1    3    3    0    0 -0.84940294169E-01  0.10843190895E+00  0.55277656872E-01  0.89242812136E+00  0.88000000000E+00 0. -1.
        -11    1    4    4    0    0  0.75550587901E-02 -0.20765340335E-01 -0.77477620943E-02  0.23421511715E-01  0.51100000000E-03 0. -1.
         11    1    4    4    0    0  0.69865863995E-01 -0.68851282233E-01 -0.34460556543E-01  0.10396888523E+00  0.51100000000E-03 0.  1.
</event>
<event>
 8    1  0.1092667E+005  0.1043930E+01  0.7957747E-01            NaN
         13   -1    0    0    0    0  0.00000000000E+00  0.00000000000E+00  0.74505805969E-08  0.10566000000E+00  0.10566000000E+00 0. -1.
     999900   -1    0    0    0    0 -0.00000000000E+00 -0.00000000000E+00 -0.74505805969E-08  0.93827000000E+00  0.93827000000E+00 0.  1.
     999902    2    1    2    0    0  0.22723411629E-01  0.57938129717E-02 -0.92974811531E-02  0.10187037268E+01  0.10183913384E+01 0.  0.
     999903    2    3    3    0    0 -0.95010225147E-01 -0.77323493903E-01 -0.26112432281E-01  0.12682232294E+00  0.19904192647E-01 0.  0.
         14    1    1    2    0    0 -0.22723411629E-01 -0.57938129717E-02  0.92974811531E-02  0.25226273221E-01  0.00000000000E+00 0. -1.
     999901    1    3    3    0    0  0.11773363678E+00  0.83117306874E-01  0.16814951128E-01  0.89188140384E+00  0.88000000000E+00 0.  1.
        -11    1    4    4    0    0 -0.44346002629E-01 -0.45985585037E-01 -0.19951387125E-01  0.66929522257E-01  0.51100000000E-03 0. -1.
         11    1    4    4    0    0 -0.50664222518E-01 -0.31337908866E-01 -0.61610451559E-02  0.59892800685E-01  0.51100000000E-03 0.  1.
</event>
<event>
 8    1  0.1092667E+005  0.1043930E+01  0.7957747E-01            NaN
         13   -1    0    0    0    0  0.00000000000E+00  0.00000000000E+00  0.74505805969E-08  0.10566000000E+00  0.10566000000E+00 0. -1.
     999900   -1    0    0    0    0 -0.00000000000E+00 -0.00000000000E+00 -0.74505805969E-08  0.93827000000E+00  0.93827000000E+00 0. -1.
     999902    2    1    2    0    0  0.36955621482E-02  0.14266202915E-01  0.13811367489E-01  0.10237325844E+01  0.10235333257E+01 0.  0.
     999903    2    3    3    0    0 -0.66801181524E-01  0.31421467024E-03 -0.11183877241E+00  0.13190726153E+00  0.20715164655E-01 0.  0.
         14    1    1    2    0    0 -0.36955621482E-02 -0.14266202915E-01 -0.13811367489E-01  0.20197415605E-01  0.00000000000E+00 0.  1.
     999901    1    3    3    0    0  0.70496743672E-01  0.13951988245E-01  0.12565013990E+00  0.89182532286E+00  0.88000000000E+00 0.  1.
        -11    1    4    4    0    0 -0.12568400509E-01  0.78048598698E-02 -0.29841807840E-01  0.33311786879E-01  0.51100000000E-03 0.  1.
         11    1    4    4    0    0 -0.54232781015E-01 -0.74906451996E-02 -0.81996964570E-01  0.98595474652E-01  0.51100000000E-03 0. -1.
</event>
<event>
 8    1  0.1092667E+005  0.1043930E+01  0.7957747E-01            NaN
         13   -1    0    0    0    0  0.00000000000E+00  0.00000000000E+00  0.74505805969E-08  0.10566000000E+00  0.10566000000E+00 0. -1.
     999900   -1    0    0    0    0 -0.00000000000E+00 -0.00000000000E+00 -0.74505805969E-08  0.93827000000E+00  0.93827000000E+00 0.  1.
     999902    2    1    2    0    0  0.66284819885E-02  0.69950981640E-02  0.22264424243E-01  0.10196694815E+01  0.10193808310E+01 0.  0.
     999903    2    3    3    0    0  0.61822551502E-02 -0.12367817762E+00  0.34567342040E-01  0.12993521446E+00  0.18808161110E-01 0.  0.
         14    1    1    2    0    0 -0.66284819885E-02 -0.69950981640E-02 -0.22264424243E-01  0.24260518516E-01  0.00000000000E+00 0.  1.
     999901    1    3    3    0    0  0.44622683831E-03  0.13067327578E+00 -0.12302917797E-01  0.88973426702E+00  0.88000000000E+00 0. -1.
        -11    1    4    4    0    0  0.60492747354E-02 -0.68395464529E-01  0.98167807057E-02  0.69362551837E-01  0.51100000000E-03 0. -1.
         11    1    4    4    0    0  0.13298041473E-03 -0.55282713090E-01  0.24750561335E-01  0.60572662627E-01  0.51100000000E-03 0.  1.
</event>
<event>
 8    1  0.1092667E+005  0.1043930E+01  0.7957747E-01            NaN
         13   -1    0    0    0    0  0.00000000000E+00  0.00000000000E+00  0.74505805969E-08  0.10566000000E+00  0.10566000000E+00 0.  1.
     999900   -1    0    0    0    0 -0.00000000000E+00 -0.00000000000E+00 -0.74505805969E-08  0.93827000000E+00  0.93827000000E+00 0. -1.
     999902    2    1    2    0    0 -0.15239941829E-01 -0.69060187026E-02 -0.17059924335E-01  0.10200346042E+01  0.10197546783E+01 0.  0.
     999903    2    3    3    0    0 -0.31523496104E-01  0.11514810191E-01 -0.12694341968E+00  0.13285995195E+00  0.20268531537E-01 0.  0.
         14    1    1    2    0    0  0.15239941829E-01  0.69060187026E-02  0.17059924335E-01  0.23895395782E-01  0.00000000000E+00 0.  1.
     999901    1    3    3    0    0  0.16283554275E-01 -0.18420828894E-01  0.10988349535E+00  0.88717465227E+00  0.88000000000E+00 0.  1.
        -11    1    4    4    0    0 -0.96677784360E-03  0.55399855114E-02 -0.42205044458E-01  0.42581134292E-01  0.51100000000E-03 0. -1.
         11    1    4    4    0    0 -0.30556718261E-01  0.59748246801E-02 -0.84738375226E-01  0.90278817658E-01  0.51100000000E-03 0.  1.
</event>
<event>
 8    1  0.1092667E+005  0.1043930E+01  0.7957747E-01            NaN
         13   -1    0    0    0    0  0.00000000000E+00  0.00000000000E+00  0.74505805969E-08  0.10566000000E+00  0.10566000000E+00 0.  1.
     999900   -1    0    0    0    0 -0.00000000000E+00 -0.00000000000E+00 -0.74505805969E-08  0.93827000000E+00  0.93827000000E+00 0.  1.
     999902    2    1    2    0    0  0.18911242597E-01 -0.12741963420E-01 -0.11483389623E-02  0.10210977550E+01  0.10208424530E+01 0.  0.
     999903    2    3    3    0    0  0.11355050944E-01  0.98649628121E-01  0.80634375051E-01  0.13028150292E+00  0.24711965783E-01 0.  0.
         14    1    1    2    0    0 -0.18911242597E-01  0.12741963420E-01  0.11483389623E-02  0.22832244978E-01  0.00000000000E+00 0. -1.
     999901    1    3    3    0    0  0.75561916523E-02 -0.11139159154E+00 -0.81782714013E-01  0.89081625210E+00  0.88000000000E+00 0.  1.
        -11    1    4    4    0    0 -0.12094758639E-02  0.77759333139E-01  0.58055058959E-01  0.97049614702E-01  0.51100000000E-03 0. -1.
         11    1    4    4    0    0  0.12564526808E-01  0.20890294982E-01  0.22579316092E-01  0.33231888218E-01  0.51100000000E-03 0.  1.
</event>
<event>
 8    1  0.1092667E+005  0.1043930E+01  0.7957747E-01            NaN
         13   -1    0    0    0    0  0.00000000000E+00  0.00000000000E+00  0.74505805969E-08  0.10566000000E+00  0.10566000000E+00 0. -1.
     999900   -1    0    0    0    0 -0.00000000000E+00 -0.00000000000E+00 -0.74505805969E-08  0.93827000000E+00  0.93827000000E+00 0.  1.
     999902    2    1    2    0    0  0.26095893963E-02 -0.13589630766E-01 -0.19655194805E-01  0.10198922234E+01  0.10196089116E+01 0.  0.
     999903    2    3    3    0    0 -0.11464007808E+00  0.93265749643E-02  0.53794424762E-01  0.12878758104E+00  0.21519024007E-01 0.  0.
         14    1    1    2    0    0 -0.26095893963E-02  0.13589630766E-01  0.19655194805E-01  0.24037776603E-01  0.00000000000E+00 0. -1.
     999901    1    3    3    0    0  0.11724966747E+00 -0.22916205730E-01 -0.73449619568E-01  0.89110464235E+00  0.88000000000E+00 0.  1.
        -11    1    4    4    0    0 -0.67366510570E-01 -0.45283177500E-02  0.27104669002E-01  0.72757656716E-01  0.51100000000E-03 0. -1.
         11    1    4    4    0    0 -0.47273567505E-01  0.13854892714E-01  0.26689755760E-01  0.56029924329E-01  0.51100000000E-03 0.  1.
</event>
<event>
 8    1  0.1092667E+005  0.1043930E+01  0.7957747E-01            NaN
         13   -1    0    0    0    0  0.00000000000E+00  0.00000000000E+00  0.74505805969E-08  0.10566000000E+00  0.10566000000E+00 0.  1.
     999900   -1    0    0    0    0 -0.00000000000E+00 -0.00000000000E+00 -0.74505805969E-08  0.93827000000E+00  0.93827000000E+00 0. -1.
     999902    2    1    2    0    0  0.16091617930E-01 -0.12112177578E-01 -0.12174489263E-01  0.10203957016E+01  0.10201242692E+01 0.  0.
     999903    2    3    3    0    0 -0.55228936145E-01  0.11360593226E+00 -0.96853648874E-03  0.12853403184E+00  0.23738492923E-01 0.  0.
         14    1    1    2    0    0 -0.16091617930E-01  0.12112177578E-01  0.12174489263E-01  0.23534298420E-01  0.00000000000E+00 0.  1.
     999901    1    3    3    0    0  0.71320554075E-01 -0.12571810984E+00 -0.11205952775E-01  0.89186166974E+00  0.88000000000E+00 0.  1.
        -11    1    4    4    0    0 -0.74836803258E-02  0.35066198510E-01  0.59886781097E-02  0.36356143025E-01  0.51100000000E-03 0.  1.
         11    1    4    4    0    0 -0.47745255819E-01  0.78539733748E-01 -0.69572145985E-02  0.92177888815E-01  0.51100000000E-03 0. -1.
</event>
<event>
 8    1  0.1092667E+005  0.1043930E+01  0.7957747E-01            NaN
         13   -1    0    0    0    0  0.00000000000E+00  0.00000000000E+00  0.74505805969E-08  0.10566000000E+00  0.10566000000E+00 0. -1.
     999900   -1    0    0    0    0 -0.00000000000E+00 -0.00000000000E+00 -0.74505805969E-08  0.93827000000E+00  0.93827000000E+00 0.  1.
     999902    2    1    2    0    0  0.14288870423E-01  0.99596414254E-02 -0.16904462486E-01  0.10196580588E+01  0.10193691333E+01 0.  0.
     999903    2    3    3    0    0  0.61247040660E-01 -0.18987833558E-01 -0.11424405500E+00  0.13257405926E+00  0.20308600939E-01 0.  0.
         14    1    1    2    0    0 -0.14288870423E-01 -0.99596414254E-02  0.16904462486E-01  0.24271941151E-01  0.00000000000E+00 0. -1.
     999901    1    3    3    0    0 -0.46958170237E-01  0.28947474984E-01  0.97339592516E-01  0.88708399959E+00  0.88000000000E+00 0.  1.
        -11    1    4    4    0    0  0.23415801276E-01  0.21770794059E-02 -0.47167074587E-01  0.52707053325E-01  0.51100000000E-03 0.  1.
         11    1    4    4    0    0  0.37831239384E-01 -0.21164912964E-01 -0.67076980415E-01  0.79867005933E-01  0.51100000000E-03 0. -1.
</event>
<event>
 8    1  0.1092667E+005  0.1043930E+01  0.7957747E-01            NaN
         13   -1    0    0    0    0  0.00000000000E+00  0.00000000000E+00  0.74505805969E-08  0.10566000000E+00  0.10566000000E+00 0.  1.
     999900   -1    0    0    0    0 -0.00000000000E+00 -0.00000000000E+00 -0.74505805969E-08  0.93827000000E+00  0.93827000000E+00 0.  1.
     999902    2    1    2    0    0  0.75227671776E-02 -0.87750807832E-02  0.92106532489E-02  0.10291506156E+01  0.10290444886E+01 0.  0.
     999903    2    3    3    0    0  0.80641616655E-02  0.15823582834E-01 -0.13457697730E+00  0.13714149570E+00  0.19529734969E-01 0.  0.
         14    1    1    2    0    0 -0.75227671776E-02  0.87750807832E-02 -0.92106532489E-02  0.14779384359E-01  0.00000000000E+00 0. -1.
     999901    1    3    3    0    0 -0.54139448793E-03 -0.24598663618E-01  0.14378763054E+00  0.89200911994E+00  0.88000000000E+00 0. -1.
        -11    1    4    4    0    0 -0.44657951389E-03  0.16161050546E-01 -0.10862613860E+00  0.10982385031E+00  0.51100000000E-03 0. -1.
         11    1    4    4    0    0  0.85107411794E-02 -0.33746771178E-03 -0.25950838696E-01  0.27317645395E-01  0.51100000000E-03 0.  1.
</event>
<event>
 8    1  0.1092667E+005  0.1043930E+01  0.7957747E-01            NaN
         13   -1    0    0    0    0  0.00000000000E+00  0.00000000000E+00  0.74505805969E-08  0.10566000000E+00  0.10566000000E+00 0.  1.
     999900   -1    0    0    0    0 -0.00000000000E+00 -0.00000000000E+00 -0.74505805969E-08  0.93827000000E+00  0.93827000000E+00 0. -1.
     999902    2    1    2    0    0 -0.69321532839E-02 -0.11835892688E-01 -0.18034244006E-01  0.10212721744E+01  0.10210208015E+01 0.  0.
     999903    2    3    3    0    0  0.37248964958E-01 -0.12445577116E+00 -0.20868064870E-01  0.13299111595E+00  0.19350359745E-01 0.  0.
         14    1    1    2    0    0  0.69321532839E-02  0.11835892688E-01  0.18034244006E-01  0.22657825618E-01  0.00000000000E+00 0.  1.
     999901    1    3    3    0    0 -0.44181118242E-01  0.11261987848E+00  0.28338208645E-02  0.88828105844E+00  0.88000000000E+00 0.  1.
        -11    1    4    4    0    0  0.12595038316E-01 -0.73772109611E-01 -0.88801546807E-02  0.75366288318E-01  0.51100000000E-03 0. -1.
         11    1    4    4    0    0  0.24653926643E-01 -0.50683661553E-01 -0.11987910189E-01  0.57624827627E-01  0.51100000000E-03 0.  1.
</event>
<event>
 8    1  0.1092667E+005  0.1043930E+01  0.7957747E-01            NaN
         13   -1    0    0    0    0  0.00000000000E+00  0.00000000000E+00  0.74505805969E-08  0.10566000000E+00  0.10566000000E+00 0.  1.
     999900   -1    0    0    0    0 -0.00000000000E+00 -0.00000000000E+00 -0.74505805969E-08  0.93827000000E+00  0.93827000000E+00 0.  1.
     999902    2    1    2    0    0  0.12164281620E-01 -0.18066821025E-01  0.10728105249E-01  0.10196509553E+01  0.10193618585E+01 0.  0.
     999903    2    3    3    0    0 -0.12111051771E+00 -0.16298192608E-01 -0.34954044736E-01  0.12844269737E+00  0.18502774950E-01 0.  0.
         14    1    1    2    0    0 -0.12164281620E-01  0.18066821025E-01 -0.10728105249E-01  0.24279044700E-01  0.00000000000E+00 0. -1.
     999901    1    3    3    0    0  0.13327479933E+00 -0.17686284172E-02  0.45682149986E-01  0.89120825793E+00  0.88000000000E+00 0.  1.
        -11    1    4    4    0    0 -0.41506042613E-01 -0.56449652783E-02 -0.21226734883E-01  0.46962246552E-01  0.51100000000E-03 0.  1.
         11    1    4    4    0    0 -0.79604475097E-01 -0.10653227330E-01 -0.13727309853E-01  0.81480450814E-01  0.51100000000E-03 0. -1.
</event>
<event>
 8    1  0.1092667E+005  0.1043930E+01  0.7957747E-01            NaN
         13   -1    0    0    0    0  0.00000000000E+00  0.00000000000E+00  0.74505805969E-08  0.10566000000E+00  0.10566000000E+00 0.  1.
     999900   -1    0    0    0    0 -0.00000000000E+00 -0.00000000000E+00 -0.74505805969E-08  0.93827000000E+00  0.93827000000E+00 0. -1.
     999902    2    1    2    0    0 -0.14376106889E-01  0.13939336881E-01 -0.12400167853E-01  0.10203770442E+01  0.10201051763E+01 0.  0.
     999903    2    3    3    0    0  0.10682132728E+00  0.67237227901E-01 -0.25290365796E-01  0.13037949344E+00  0.20677739974E-01 0.  0.
         14    1    1    2    0    0  0.14376106889E-01 -0.13939336881E-01  0.12400167853E-01  0.23552955754E-01  0.00000000000E+00 0.  1.
     999901    1    3    3    0    0 -0.12119743417E+00 -0.53297891020E-01  0.12890197942E-01  0.88999755081E+00  0.88000000000E+00 0. -1.
        -11    1    4    4    0    0  0.42945212628E-01  0.32176679547E-01 -0.20178754043E-01  0.57333002974E-01  0.51100000000E-03 0.  1.
         11    1    4    4    0    0  0.63876114651E-01  0.35060548354E-01 -0.51116117525E-02  0.73046490467E-01  0.51100000000E-03 0. -1.
</event>
<event>
 8    1  0.1092667E+005  0.1043930E+01  0.7957747E-01            NaN
         13   -1    0    0    0    0  0.00000000000E+00  0.00000000000E+00  0.74505805969E-08  0.10566000000E+00  0.10566000000E+00 0.  1.
     999900   -1    0    0    0    0 -0.00000000000E+00 -0.00000000000E+00 -0.74505805969E-08  0.93827000000E+00  0.93827000000E+00 0.  1.
     999902    2    1    2    0    0  0.16594732165E-01  0.43459820476E-02  0.19167156604E-01  0.10182073915E+01  0.10178824291E+01 0.  0.
     999903    2    3    3    0    0  0.54231221152E-01 -0.10687349707E+00 -0.41382391909E-01  0.12834643289E+00  0.19933257457E-01 0.  0.
         14    1    1    2    0    0 -0.16594732165E-01 -0.43459820476E-02 -0.19167156604E-01  0.25722608497E-01  0.00000000000E+00 0. -1.
     999901    1    3    3    0    0 -0.37636488986E-01  0.11121947911E+00  0.60549548513E-01  0.88986095861E+00  0.88000000000E+00 0. -1.
        -11    1    4    4    0    0  0.15786955399E-01 -0.51403034621E-01 -0.22235711690E-01  0.58190960848E-01  0.51100000000E-03 0. -1.
         11    1    4    4    0    0  0.38444265752E-01 -0.55470462445E-01 -0.19146680220E-01  0.70155472043E-01  0.51100000000E-03 0.  1.
</event>
<event>
 8    1  0.1092667E+005  0.1043930E+01  0.7957747E-01            NaN
         13   -1    0    0    0    0  0.00000000000E+00  0.00000000000E+00  0.74505805969E-08  0.10566000000E+00  0.10566000000E+00 0.  1.
     999900   -1    0    0    0    0 -0.00000000000E+00 -0.00000000000E+00 -0.74505805969E-08  0.93827000000E+00  0.93827000000E+00 0. -1.
     999902    2    1    2    0    0 -0.86685346271E-02 -0.14965959425E-01  0.18028624241E-01  0.10189469112E+01  0.10186405907E+01 0.  0.
     999903    2    3    3    0    0  0.52491665125E-01 -0.10406288229E+00  0.58058439145E-01  0.13143284495E+00  0.17870422444E-01 0.  0.
         14    1    1    2    0    0  0.86685346271E-02  0.14965959425E-01 -0.18028624241E-01  0.24983088803E-01  0.00000000000E+00 0. -1.
     999901    1    3    3    0    0 -0.61160199753E-01  0.89096922867E-01 -0.40029814904E-01  0.88751406624E+00  0.88000000000E+00 0. -1.
        -11    1    4    4    0    0  0.85727581259E-02 -0.19750351973E-01  0.18766773845E-01  0.28566090151E-01  0.51100000000E-03 0.  1.
         11    1    4    4    0    0  0.43918906999E-01 -0.84312530319E-01  0.39291665300E-01  0.10286675480E+00  0.51100000000E-03 0. -1.
</event>
<event>
 8    1  0.1092667E+005  0.1043930E+01  0.7957747E-01            NaN
         13   -1    0    0    0    0  0.00000000000E+00  0.00000000000E+00  0.74505805969E-08  0.10566000000E+00  0.10566000000E+00 0. -1.
     999900   -1    0    0    0    0 -0.00000000000E+00 -0.00000000000E+00 -0.74505805969E-08  0.93827000000E+00  0.93827000000E+00 0. -1.
     999902    2    1    2    0    0 -0.20689285757E-01 -0.29534959197E-03 -0.12473806771E-01  0.10197695027E+01  0.10194832558E+01 0.  0.
     999903    2    3    3    0    0  0.48663139413E-01  0.75443033155E-01 -0.93564681955E-01  0.13009439817E+00  0.10509535563E-01 0.  0.
         14    1    1    2    0    0  0.20689285757E-01  0.29534959197E-03  0.12473806771E-01  0.24160497343E-01  0.00000000000E+00 0. -1.
     999901    1    3    3    0    0 -0.69352425170E-01 -0.75738382747E-01  0.81090875184E-01  0.88967510448E+00  0.88000000000E+00 0.  1.
        -11    1    4    4    0    0  0.35354640310E-01  0.62441339118E-01 -0.75370355611E-01  0.10406643574E+00  0.51100000000E-03 0. -1.
         11    1    4    4    0    0  0.13308499103E-01  0.13001694037E-01 -0.18194326344E-01  0.26027962431E-01  0.51100000000E-03 0.  1.
</event>
<event>
 8    1  0.1092667E+005  0.1043930E+01  0.7957747E-01            NaN
         13   -1    0    0    0    0  0.00000000000E+00  0.00000000000E+00  0.74505805969E-08  0.10566000000E+00  0.10566000000E+00 0.  1.
     999900   -1    0    0    0    0 -0.00000000000E+00 -0.00000000000E+00 -0.74505805969E-08  0.93827000000E+00  0.93827000000E+00 0.  1.
     999902    2    1    2    0    0  0.22016929383E-01  0.88647477116E-02  0.64505610327E-03  0.10201866845E+01  0.10199103521E+01 0.  0.
     999903    2    3    3    0    0 -0.59202700249E-01  0.11349097348E+00  0.10865817459E-01  0.13021604496E+00  0.21283599257E-01 0.  0.
         14    1    1    2    0    0 -0.22016929383E-01 -0.88647477116E-02 -0.64505610327E-03  0.23743315456E-01  0.00000000000E+00 0. -1.
     999901    1    3    3    0    0  0.81219629632E-01 -0.10462622577E+00 -0.10220761355E-01  0.88997063958E+00  0.88000000000E+00 0. -1.
        -11    1    4    4    0    0 -0.23476233599E-01  0.28234095838E-01 -0.25276305842E-02  0.36809614901E-01  0.51100000000E-03 0.  1.
         11    1    4    4    0    0 -0.35726466650E-01  0.85256877645E-01  0.13393448043E-01  0.93406430060E-01  0.51100000000E-03 0. -1.
</event>
<event>
 8    1  0.1092667E+005  0.1043930E+01  0.7957747E-01            NaN
         13   -1    0    0    0    0  0.00000000000E+00  0.00000000000E+00  0.74505805969E-08  0.10566000000E+00  0.10566000000E+00 0.  1.
     999900   -1    0    0    0    0 -0.00000000000E+00 -0.00000000000E+00 -0.74505805969E-08  0.93827000000E+00  0.93827000000E+00 0.  1.
     999902    2    1    2    0    0 -0.23580002286E-01  0.58116442409E-02 -0.43870100340E-02  0.10192513134E+01  0.10189525024E+01 0.  0.
     999903    2    3    3    0    0  0.12284970344E+00 -0.13038804091E-01 -0.19424162148E-01  0.12682590245E+00  0.21105719837E-01 0.  0.
         14    1    1    2    0    0  0.23580002286E-01 -0.58116442409E-02  0.43870100340E-02  0.24678686627E-01  0.00000000000E+00 0.  1.
     999901    1    3    3    0    0 -0.14642970572E+00  0.18850448332E-01  0.15037152114E-01  0.89242541092E+00  0.88000000000E+00 0. -1.
        -11    1    4    4    0    0  0.76620136339E-01 -0.17650526493E-01 -0.84149120688E-02  0.79077545765E-01  0.51100000000E-03 0.  1.
         11    1    4    4    0    0  0.46229567099E-01  0.46117224025E-02 -0.11009250080E-01  0.47748356683E-01  0.51100000000E-03 0. -1.
</event>
<event>
 8    1  0.1092667E+005  0.1043930E+01  0.7957747E-01            NaN
         13   -1    0    0    0    0  0.00000000000E+00  0.00000000000E+00  0.74505805969E-08  0.10566000000E+00  0.10566000000E+00 0. -1.
     999900   -1    0    0    0    0 -0.00000000000E+00 -0.00000000000E+00 -0.74505805969E-08  0.93827000000E+00  0.93827000000E+00 0. -1.
     999902    2    1    2    0    0 -0.15248866247E-01 -0.54911421343E-03 -0.18121935811E-01  0.10202396221E+01  0.10199645349E+01 0.  0.
     999903    2    3    3    0    0  0.15437589147E-01  0.54079045771E-01  0.11343381322E+00  0.12825710571E+00  0.20488846568E-01 0.  0.
         14    1    1    2    0    0  0.15248866247E-01  0.54911421343E-03  0.18121935811E-01  0.23690377916E-01  0.00000000000E+00 0. -1.
     999901    1    3    3    0    0 -0.30686455395E-01 -0.54628159984E-01 -0.13155574903E+00  0.89198251637E+00  0.88000000000E+00 0. -1.
        -11    1    4    4    0    0  0.16763797234E-01  0.33615081607E-01  0.87257048732E-01  0.95000275176E-01  0.51100000000E-03 0.  1.
         11    1    4    4    0    0 -0.13262080868E-02  0.20463964164E-01  0.26176764490E-01  0.33256830537E-01  0.51100000000E-03 0. -1.
</event>
<event>
 8    1  0.1092667E+005  0.1043930E+01  0.7957747E-01            NaN
         13   -1    0    0    0    0  0.00000000000E+00  0.00000000000E+00  0.74505805969E-08  0.10566000000E+00  0.10566000000E+00 0.  1.
     999900   -1    0    0    0    0 -0.00000000000E+00 -0.00000000000E+00 -0.74505805969E-08  0.93827000000E+00  0.93827000000E+00 0. -1.
     999902    2    1    2    0    0 -0.18881764672E-01  0.32773673697E-02  0.13986550035E-01  0.10202047865E+01  0.10199288802E+01 0.  0.
     999903    2    3    3    0    0 -0.90096813248E-01  0.62505685294E-01  0.70779759312E-01  0.13352274348E+00  0.28180706986E-01 0.  0.
         14    1    1    2    0    0  0.18881764672E-01 -0.32773673697E-02 -0.13986550035E-01  0.23725213505E-01  0.00000000000E+00 0. -1.
     999901    1    3    3    0    0  0.71215048576E-01 -0.59228317924E-01 -0.56793209278E-01  0.88668204302E+00  0.88000000000E+00 0. -1.
        -11    1    4    4    0    0 -0.49994300160E-02  0.14556722209E-01  0.74110765863E-02  0.17090279083E-01  0.51100000000E-03 0.  1.
         11    1    4    4    0    0 -0.85097383232E-01  0.47948963084E-01  0.63368682726E-01  0.11643246440E+00  0.51100000000E-03 0. -1.
</event>
<event>
 8    1  0.1092667E+005  0.1043930E+01  0.7957747E-01            NaN
         13   -1    0    0    0    0  0.00000000000E+00  0.00000000000E+00  0.74505805969E-08  0.10566000000E+00  0.10566000000E+00 0. -1.
     999900   -1    0    0    0    0 -0.00000000000E+00 -0.00000000000E+00 -0.74505805969E-08  0.93827000000E+00  0.93827000000E+00 0.  1.
     999902    2    1    2    0    0  0.55357746189E-02 -0.12691016959E-01  0.19388382803E-01  0.10201053048E+01  0.10198270524E+01 0.  0.
     999903    2    3    3    0    0  0.10833366718E+00  0.61910962241E-01 -0.30209806830E-01  0.12960384923E+00  0.17758789852E-01 0.  0.
         14    1    1    2    0    0 -0.55357746189E-02  0.12691016959E-01 -0.19388382803E-01  0.23824695167E-01  0.00000000000E+00 0.  1.
     999901    1    3    3    0    0 -0.10279789256E+00 -0.74601979200E-01  0.49598189634E-01  0.89050145560E+00  0.88000000000E+00 0. -1.
        -11    1    4    4    0    0  0.57326255247E-01  0.28721186595E-01 -0.71242595213E-02  0.64515287296E-01  0.51100000000E-03 0. -1.
         11    1    4    4    0    0  0.51007411930E-01  0.33189775646E-01 -0.23085547309E-01  0.65088561935E-01  0.51100000000E-03 0.  1.
</event>
<event>
 8    1  0.1092667E+005  0.1043930E+01  0.7957747E-01            NaN
         13   -1    0    0    0    0  0.00000000000E+00  0.00000000000E+00  0.74505805969E-08  0.10566000000E+00  0.10566000000E+00 0. -1.
     999900   -1    0    0    0    0 -0.00000000000E+00 -0.00000000000E+00 -0.74505805969E-08  0.93827000000E+00  0.93827000000E+00 0. -1.
     999902    2    1    2    0    0 -0.19603269842E-01  0.98545371330E-02  0.84153827180E-02  0.10204306648E+01  0.10201600476E+01 0.  0.
     999903    2    3    3    0    0  0.12228569476E+00  0.92077164128E-02 -0.31577905583E-01  0.12816816988E+00  0.19782377645E-01 0.  0.
         14    1    1    2    0    0  0.19603269842E-01 -0.98545371330E-02 -0.84153827180E-02  0.23499335244E-01  0.00000000000E+00 0.  1.
     999901    1    3    3    0    0 -0.14188896460E+00  0.64682072022E-03  0.39993288301E-01  0.89226249488E+00  0.88000000000E+00 0.  1.
        -11    1    4    4    0    0  0.15049315185E-01  0.77933612305E-02 -0.49990566790E-02  0.17676822550E-01  0.51100000000E-03 0.  1.
         11    1    4    4    0    0  0.10723637957E+00  0.14143551823E-02 -0.26578848904E-01  0.11049134733E+00  0.51100000000E-03 0. -1.
</event>
<event>
 8    1  0.1092667E+005  0.1043930E+01  0.7957747E-01            NaN
         13   -1    0    0    0    0  0.00000000000E+00  0.00000000000E+00  0.74505805969E-08  0.10566000000E+00  0.10566000000E+00 0.  1.
     999900   -1    0    0    0    0 -0.00000000000E+00 -0.00000000000E+00 -0.74505805969E-08  0.93827000000E+00  0.93827000000E+00 0. -1.
     999902    2    1    2    0    0 -0.15724354163E-01 -0.12909835169E-01  0.12716418148E-01  0.10199377836E+01  0.10196555575E+01 0.  0.
     999903    2    3    3    0    0  0.10858152315E+00 -0.20244190741E-02  0.67594886181E-01  0.12944236548E+00  0.19804340472E-01 0.  0.
         14    1    1    2    0    0  0.15724354163E-01  0.12909835169E-01 -0.12716418148E-01  0.23992216414E-01  0.00000000000E+00 0.  1.
     999901    1    3    3    0    0 -0.12430587731E+00 -0.10885416095E-01 -0.54878468033E-01  0.89049541811E+00  0.88000000000E+00 0.  1.
        -11    1    4    4    0    0  0.74470996073E-01 -0.93104956906E-02  0.51513441166E-01  0.91030271492E-01  0.51100000000E-03 0. -1.
         11    1    4    4    0    0  0.34110527073E-01  0.72860766165E-02  0.16081445015E-01  0.38412093987E-01  0.51100000000E-03 0.  1.
</event>
<event>
 8    1  0.1092667E+005  0.1043930E+01  0.7957747E-01            NaN
         13   -1    0    0    0    0  0.00000000000E+00  0.00000000000E+00  0.74505805969E-08  0.10566000000E+00  0.10566000000E+00 0.  1.
     999900   -1    0    0    0    0 -0.00000000000E+00 -0.00000000000E+00 -0.74505805969E-08  0.93827000000E+00  0.93827000000E+00 0. -1.
     999902    2    1    2    0    0 -0.96993585933E-02 -0.19548630669E-01 -0.71652816805E-02  0.10209611563E+01  0.10207027554E+01 0.  0.
     999903    2    3    3    0    0  0.10717264218E+00 -0.52175081645E-01 -0.54137245740E-01  0.13139389340E+00  0.11193724588E-01 0.  0.
         14    1    1    2    0    0  0.96993585933E-02  0.19548630669E-01  0.71652816805E-02  0.22968843674E-01  0.00000000000E+00 0. -1.
     999901    1    3    3    0    0 -0.11687200077E+00  0.32626450976E-01  0.46971964059E-01  0.88956726293E+00  0.88000000000E+00 0.  1.
        -11    1    4    4    0    0  0.24120534613E-01 -0.16268873586E-01 -0.10470439573E-01  0.30925194641E-01  0.51100000000E-03 0.  1.
         11    1    4    4    0    0  0.83052107563E-01 -0.35906208060E-01 -0.43666806167E-01  0.10046869876E+00  0.51100000000E-03 0. -1.
</event>
<event>
 8    1  0.1092667E+005  0.1043930E+01  0.7957747E-01            NaN
         13   -1    0    0    0    0  0.00000000000E+00  0.00000000000E+00  0.74505805969E-08  0.10566000000E+00  0.10566000000E+00 0.  1.
     999900   -1    0    0    0    0 -0.00000000000E+00 -0.00000000000E+00 -0.74505805969E-08  0.93827000000E+00  0.93827000000E+00 0.  1.
     999902    2    1    2    0    0 -0.99366835331E-02  0.20963933254E-02  0.21657064819E-01  0.10200101129E+01  0.10197296060E+01 0.  0.
     999903    2    3    3    0    0  0.92760596501E-01 -0.50805901870E-01  0.74461788142E-01  0.13089047919E+00  0.20049731176E-01 0.  0.
         14    1    1    2    0    0  0.99366835331E-02 -0.20963933254E-02 -0.21657064819E-01  0.23919887148E-01  0.00000000000E+00 0. -1.
     999901    1    3    3    0    0 -0.10269728003E+00  0.52902295196E-01 -0.52804723323E-01  0.88911963367E+00  0.88000000000E+00 0. -1.
        -11    1    4    4    0    0  0.20751083371E-01 -0.11887345207E-01  0.73024454988E-02  0.25010063342E-01  0.51100000000E-03 0.  1.
         11    1    4    4    0    0  0.72009513131E-01 -0.38918556663E-01  0.67159342643E-01  0.10588041584E+00  0.51100000000E-03 0. -1.
</event>
<event>
 8    1  0.1092667E+005  0.1043930E+01  0.7957747E-01            NaN
         13   -1    0    0    0    0  0.00000000000E+00  0.00000000000E+00  0.74505805969E-08  0.10566000000E+00  0.10566000000E+00 0.  1.
     999900   -1    0    0    0    0 -0.00000000000E+00 -0.00000000000E+00 -0.74505805969E-08  0.93827000000E+00  0.93827000000E+00 0.  1.
     999902    2    1    2    0    0 -0.75321047461E-02 -0.22379503166E-01 -0.22474546577E-02  0.10202102653E+01  0.10199344879E+01 0.  0.
     999903    2    3    3    0    0 -0.55673365939E-01 -0.40347600602E-01 -0.11086926952E+00  0.13204410275E+00  0.20400921529E-01 0.  0.
         14    1    1    2    0    0  0.75321047461E-02  0.22379503166E-01  0.22474546577E-02  0.23719734744E-01  0.00000000000E+00 0.  1.
     999901    1    3    3    0    0  0.48141261193E-01  0.17968097436E-01  0.10862181486E+00  0.88816616250E+00  0.88000000000E+00 0. -1.
        -11    1    4    4    0    0 -0.27965918955E-01 -0.31218017139E-01 -0.56626413495E-01  0.70451891695E-01  0.51100000000E-03 0. -1.
         11    1    4    4    0    0 -0.27707446985E-01 -0.91295834632E-02 -0.54242856020E-01  0.61592211057E-01  0.51100000000E-03 0.  1.
</event>
<event>
 8    1  0.1092667E+005  0.1043930E+01  0.7957747E-01            NaN
         13   -1    0    0    0    0  0.00000000000E+00  0.00000000000E+00  0.74505805969E-08  0.10566000000E+00  0.10566000000E+00 0. -1.
     999900   -1    0    0    0    0 -0.00000000000E+00 -0.00000000000E+00 -0.74505805969E-08  0.93827000000E+00  0.93827000000E+00 0.  1.
     999902    2    1    2    0    0 -0.74083857802E-02 -0.23544895934E-01 -0.25122627263E-02  0.10191195633E+01  0.10188175139E+01 0.  0.
     999903    2    3    3    0    0 -0.10181258152E+00  0.73899210087E-01 -0.15416418550E-01  0.12862867442E+00  0.21926580111E-01 0.  0.
         14    1    1    2    0    0  0.74083857802E-02  0.23544895934E-01  0.25122627263E-02  0.24810436684E-01  0.00000000000E+00 0.  1.
     999901    1    3    3    0    0  0.94404195737E-01 -0.97444106021E-01  0.12904155824E-01  0.89049088890E+00  0.88000000000E+00 0. -1.
        -11    1    4    4    0    0 -0.53115743678E-01  0.37924728122E-01  0.30224255355E-02  0.65337304863E-01  0.51100000000E-03 0. -1.
         11    1    4    4    0    0 -0.48696837839E-01  0.35974481965E-01 -0.18438844086E-01  0.63291369556E-01  0.51100000000E-03 0.  1.
</event>
<event>
 8    1  0.1092667E+005  0.1043930E+01  0.7957747E-01            NaN
         13   -1    0    0    0    0  0.00000000000E+00  0.00000000000E+00  0.74505805969E-08  0.10566000000E+00  0.10566000000E+00 0.  1.
     999900   -1    0    0    0    0 -0.00000000000E+00 -0.00000000000E+00 -0.74505805969E-08  0.93827000000E+00  0.93827000000E+00 0. -1.
     999902    2    1    2    0    0 -0.19754714812E-01 -0.10701249106E-01  0.69098973183E-02  0.10204244226E+01  0.10201536600E+01 0.  0.
     999903    2    3    3    0    0  0.68416575225E-01  0.71320417881E-01  0.80638042385E-01  0.12916824748E+00  0.20359580195E-01 0.  0.
         14    1    1    2    0    0  0.19754714812E-01  0.10701249106E-01 -0.69098973183E-02  0.23505577438E-01  0.00000000000E+00 0. -1.
     999901    1    3    3    0    0 -0.88171290037E-01 -0.82021666987E-01 -0.73728145067E-01  0.89125617508E+00  0.88000000000E+00 0. -1.
        -11    1    4    4    0    0  0.53813179691E-01  0.50160487102E-01  0.69288993622E-01  0.10106017283E+00  0.51100000000E-03 0. -1.
         11    1    4    4    0    0  0.14603395534E-01  0.21159930779E-01  0.11349048763E-01  0.28108074650E-01  0.51100000000E-03 0.  1.
</event>
<event>
 8    1  0.1092667E+005  0.1043930E+01  0.7957747E-01            NaN
         13   -1    0    0    0    0  0.00000000000E+00  0.00000000000E+00  0.74505805969E-08  0.10566000000E+00  0.10566000000E+00 0. -1.
     999900   -1    0    0    0    0 -0.00000000000E+00 -0.00000000000E+00 -0.74505805969E-08  0.93827000000E+00  0.93827000000E+00 0. -1.
     999902    2    1    2    0    0 -0.20049067929E-01  0.13361578517E-01 -0.45058566285E-03  0.10198322837E+01  0.10195475403E+01 0.  0.
     999903    2    3    3    0    0  0.10893589363E+00  0.11410720009E-01 -0.63493564239E-01  0.12819595460E+00  0.20137939895E-01 0.  0.
         14    1    1    2    0    0  0.20049067929E-01 -0.13361578517E-01  0.45058566285E-03  0.24097716338E-01  0.00000000000E+00 0. -1.
     999901    1    3    3    0    0 -0.12898496156E+00  0.19508585080E-02  0.63042978576E-01  0.89163632906E+00  0.88000000000E+00 0.  1.
        -11    1    4    4    0    0  0.24999304478E-01  0.72614217583E-02 -0.23706445828E-01  0.35212926109E-01  0.51100000000E-03 0. -1.
         11    1    4    4    0    0  0.83936589153E-01  0.41492982511E-02 -0.39787118411E-01  0.92983028490E-01  0.51100000000E-03 0.  1.
</event>
<event>
 8    1  0.1092667E+005  0.1043930E+01  0.7957747E-01            NaN
         13   -1    0    0    0    0  0.00000000000E+00  0.00000000000E+00  0.74505805969E-08  0.10566000000E+00  0.10566000000E+00 0.  1.
     999900   -1    0    0    0    0 -0.00000000000E+00 -0.00000000000E+00 -0.74505805969E-08  0.93827000000E+00  0.93827000000E+00 0.  1.
     999902    2    1    2    0    0  0.64879052271E-02 -0.17235909395E-02 -0.20522242122E-01  0.10223377305E+01  0.10221096855E+01 0.  0.
     999903    2    3    3    0    0 -0.61296606758E-01 -0.56523619459E-01  0.97881545871E-01  0.13013974789E+00  0.20083909004E-01 0.  0.
         14    1    1    2    0    0 -0.64879052271E-02  0.17235909395E-02  0.20522242122E-01  0.21592269488E-01  0.00000000000E+00 0.  1.
     999901    1    3    3    0    0  0.67784511985E-01  0.54800028519E-01 -0.11840378799E+00  0.89219798263E+00  0.88000000000E+00 0.  1.
        -11    1    4    4    0    0 -0.22429505689E-01 -0.12696947854E-01  0.19691647297E-01  0.32439440570E-01  0.51100000000E-03 0. -1.
         11    1    4    4    0    0 -0.38867101069E-01 -0.43826671605E-01  0.78189898574E-01  0.97700307315E-01  0.51100000000E-03 0.  1.
</event>
<event>
 8    1  0.1092667E+005  0.1043930E+01  0.7957747E-01            NaN
         13   -1    0    0    0    0  0.00000000000E+00  0.00000000000E+00  0.74505805969E-08  0.10566000000E+00  0.10566000000E+00 0. -1.
     999900   -1    0    0    0    0 -0.00000000000E+00 -0.00000000000E+00 -0.74505805969E-08  0.93827000000E+00  0.93827000000E+00 0.  1.
     999902    2    1    2    0    0 -0.16594882129E-01  0.70904982621E-02  0.18375495574E-01  0.10181749206E+01  0.10178491267E+01 0.  0.
     999903    2    3    3    0    0  0.40696731444E-01 -0.98196145776E-01 -0.64625067913E-01  0.12617901255E+00  0.21119583562E-01 0.  0.
         14    1    1    2    0    0  0.16594882129E-01 -0.70904982621E-02 -0.18375495574E-01  0.25755079423E-01  0.00000000000E+00 0.  1.
     999901    1    3    3    0    0 -0.57291613572E-01  0.10528664404E+00  0.83000563487E-01  0.89199590803E+00  0.88000000000E+00 0. -1.
        -11    1    4    4    0    0  0.21015244847E-01 -0.54909464948E-01 -0.47671278866E-01  0.75693472682E-01  0.51100000000E-03 0. -1.
         11    1    4    4    0    0  0.19681486596E-01 -0.43286680828E-01 -0.16953789047E-01  0.50485539868E-01  0.51100000000E-03 0.  1.
</event>
<event>
 8    1  0.1092667E+005  0.1043930E+01  0.7957747E-01            NaN
         13   -1    0    0    0    0  0.00000000000E+00  0.00000000000E+00  0.74505805969E-08  0.10566000000E+00  0.10566000000E+00 0.  1.
     999900   -1    0    0    0    0 -0.00000000000E+00 -0.00000000000E+00 -0.74505805969E-08  0.93827000000E+00  0.93827000000E+00 0.  1.
     999902    2    1    2    0    0 -0.15180762751E-03  0.23421300975E-01 -0.66368848841E-02  0.10195860351E+01  0.10192953715E+01 0.  0.
     999903    2    3    3    0    0 -0.49205336857E-01 -0.10687235926E+00 -0.46511532921E-01  0.12774934930E+00  0.17711781483E-01 0.  0.
         14    1    1    2    0    0  0.15180762751E-03 -0.23421300975E-01  0.66368848841E-02  0.24343964876E-01  0.00000000000E+00 0.  1.
     999901    1    3    3    0    0  0.49053529229E-01  0.13029366023E+00  0.39874648037E-01  0.89183668582E+00  0.88000000000E+00 0.  1.
        -11    1    4    4    0    0 -0.34999465661E-01 -0.91859575294E-01 -0.38818935763E-01  0.10568971125E+00  0.51100000000E-03 0. -1.
         11    1    4    4    0    0 -0.14205871195E-01 -0.15012783964E-01 -0.76925971587E-02  0.22059638048E-01  0.51100000000E-03 0.  1.
</event>
<event>
 8    1  0.1092667E+005  0.1043930E+01  0.7957747E-01            NaN
         13   -1    0    0    0    0  0.00000000000E+00  0.00000000000E+00  0.74505805969E-08  0.10566000000E+00  0.10566000000E+00 0. -1.
     999900   -1    0    0    0    0 -0.00000000000E+00 -0.00000000000E+00 -0.74505805969E-08  0.93827000000E+00  0.93827000000E+00 0.  1.
     999902    2    1    2    0    0 -0.22849983691E-04 -0.28676448326E-01 -0.77103188532E-02  0.10142350808E+01  0.10138002815E+01 0.  0.
     999903    2    3    3    0    0 -0.48783836315E-01 -0.55579856367E-01 -0.10040057432E+00  0.12761627283E+00  0.27141382562E-01 0.  0.
         14    1    1    2    0    0  0.22849983691E-04  0.28676448326E-01  0.77103188532E-02  0.29694919220E-01  0.00000000000E+00 0.  1.
     999901    1    3    3    0    0  0.48760986331E-01  0.26903408042E-01  0.92690255468E-01  0.88661880795E+00  0.88000000000E+00 0. -1.
        -11    1    4    4    0    0  0.14512765844E-02 -0.54485173293E-02 -0.17977783053E-01  0.18848192203E-01  0.51100000000E-03 0. -1.
         11    1    4    4    0    0 -0.50235112899E-01 -0.50131339038E-01 -0.82422791269E-01  0.10876808063E+00  0.51100000000E-03 0.  1.
</event>
<event>
 8    1  0.1092667E+005  0.1043930E+01  0.7957747E-01            NaN
         13   -1    0    0    0    0  0.00000000000E+00  0.00000000000E+00  0.74505805969E-08  0.10566000000E+00  0.10566000000E+00 0. -1.
     999900   -1    0    0    0    0 -0.00000000000E+00 -0.00000000000E+00 -0.74505805969E-08  0.93827000000E+00  0.93827000000E+00 0.  1.
     999902    2    1    2    0    0 -0.22660544371E-01 -0.35217456593E-02  0.65007169114E-02  0.10200938450E+01  0.10198153217E+01 0.  0.
     999903    2    3    3    0    0 -0.22917073542E-02 -0.12778724976E+00 -0.18577922290E-01  0.13077627341E+00  0.20553865043E-01 0.  0.
         14    1    1    2    0    0  0.22660544371E-01  0.35217456593E-02 -0.65007169114E-02  0.23836154976E-01  0.00000000000E+00 0.  1.
     999901    1    3    3    0    0 -0.20368837017E-01  0.12426550410E+00  0.25078639201E-01  0.88931757161E+00  0.88000000000E+00 0. -1.
        -11    1    4    4    0    0  0.66167374347E-02 -0.91566594089E-01 -0.88963301319E-02  0.92236804900E-01  0.51100000000E-03 0.  1.
         11    1    4    4    0    0 -0.89084447889E-02 -0.36220655669E-01 -0.96815921581E-02  0.38539468514E-01  0.51100000000E-03 0. -1.
</event>
<event>
 8    1  0.1092667E+005  0.1043930E+01  0.7957747E-01            NaN
         13   -1    0    0    0    0  0.00000000000E+00  0.00000000000E+00  0.74505805969E-08  0.10566000000E+00  0.10566000000E+00 0.  1.
     999900   -1    0    0    0    0 -0.00000000000E+00 -0.00000000000E+00 -0.74505805969E-08  0.93827000000E+00  0.93827000000E+00 0. -1.
     999902    2    1    2    0    0 -0.33916106523E-02 -0.15310868901E-01  0.17275970704E-01  0.10205979428E+01  0.10203312090E+01 0.  0.
     999903    2    3    3    0    0 -0.15119754956E-01 -0.89268044033E-01  0.96569952842E-01  0.13386531753E+00  0.19919256250E-01 0.  0.
         14    1    1    2    0    0  0.33916106523E-02  0.15310868901E-01 -0.17275970704E-01  0.23332057198E-01  0.00000000000E+00 0. -1.
     999901    1    3    3    0    0  0.11728144303E-01  0.73957175132E-01 -0.79293982138E-01  0.88673262527E+00  0.88000000000E+00 0. -1.
        -11    1    4    4    0    0 -0.12440160135E-01 -0.57924616398E-01  0.75622318188E-01  0.96067762013E-01  0.51100000000E-03 0.  1.
         11    1    4    4    0    0 -0.26795948212E-02 -0.31343427635E-01  0.20947634654E-01  0.37797555515E-01  0.51100000000E-03 0. -1.
</event>
<event>
 8    1  0.1092667E+005  0.1043930E+01  0.7957747E-01            NaN
         13   -1    0    0    0    0  0.00000000000E+00  0.00000000000E+00  0.74505805969E-08  0.10566000000E+00  0.10566000000E+00 0. -1.
     999900   -1    0    0    0    0 -0.00000000000E+00 -0.00000000000E+00 -0.74505805969E-08  0.93827000000E+00  0.93827000000E+00 0. -1.
     999902    2    1    2    0    0 -0.16794780052E-01  0.53979024212E-02 -0.14678585733E-01  0.10209808635E+01  0.10207229109E+01 0.  0.
     999903    2    3    3    0    0  0.46766654316E-01  0.36081281807E-01  0.11294639449E+00  0.12897769013E+00  0.19732654893E-01 0.  0.
         14    1    1    2    0    0  0.16794780052E-01 -0.53979024212E-02  0.14678585733E-01  0.22949136512E-01  0.00000000000E+00 0. -1.
     999901    1    3    3    0    0 -0.63561434368E-01 -0.30683379386E-01 -0.12762498022E+00  0.89200317336E+00  0.88000000000E+00 0. -1.
        -11    1    4    4    0    0  0.40812584883E-01  0.26594532503E-01  0.75192796168E-01  0.89594385765E-01  0.51100000000E-03 0.  1.
         11    1    4    4    0    0  0.59540694328E-02  0.94867493040E-02  0.37753598323E-01  0.39383304362E-01  0.51100000000E-03 0. -1.
</event>
<event>
 8    1  0.1092667E+005  0.1043930E+01  0.7957747E-01            NaN
         13   -1    0    0    0    0  0.00000000000E+00  0.00000000000E+00  0.74505805969E-08  0.10566000000E+00  0.10566000000E+00 0.  1.
     999900   -1    0    0    0    0 -0.00000000000E+00 -0.00000000000E+00 -0.74505805969E-08  0.93827000000E+00  0.93827000000E+00 0.  1.
     999902    2    1    2    0    0  0.16843699102E-01  0.14523159883E-01 -0.77123060825E-02  0.10203904155E+01  0.10201188598E+01 0.  0.
     999903    2    3    3    0    0 -0.88840180414E-01  0.17164848455E-01  0.90260770172E-01  0.12866468157E+00  0.14845335095E-01 0.  0.
         14    1    1    2    0    0 -0.16843699102E-01 -0.14523159883E-01  0.77123060825E-02  0.23539584481E-01  0.00000000000E+00 0. -1.
     999901    1    3    3    0    0  0.10568387952E+00 -0.26416885725E-02 -0.97973076255E-01  0.89172573394E+00  0.88000000000E+00 0.  1.
        -11    1    4    4    0    0 -0.69659507292E-01  0.18465521867E-01  0.75894002529E-01  0.10465936745E+00  0.51100000000E-03 0.  1.
         11    1    4    4    0    0 -0.19180673122E-01 -0.13006734123E-02  0.14366767644E-01  0.24005314125E-01  0.51100000000E-03 0. -1.
</event>
<event>
 8    1  0.1092667E+005  0.1043930E+01  0.7957747E-01            NaN
         13   -1    0    0    0    0  0.00000000000E+00  0.00000000000E+00  0.74505805969E-08  0.10566000000E+00  0.10566000000E+00 0. -1.
     999900   -1    0    0    0    0 -0.00000000000E+00 -0.00000000000E+00 -0.74505805969E-08  0.93827000000E+00  0.93827000000E+00 0. -1.
     999902    2    1    2    0    0  0.65263688770E-02 -0.20245611206E-01 -0.99048432967E-02  0.10204654696E+01  0.10201956629E+01 0.  0.
     999903    2    3    3    0    0  0.38336473360E-01  0.11143039742E+00  0.47331297755E-01  0.12826233704E+00  0.18015457157E-01 0.  0.
         14    1    1    2    0    0 -0.65263688770E-02  0.20245611206E-01  0.99048432967E-02  0.23464530350E-01  0.00000000000E+00 0. -1.
     999901    1    3    3    0    0 -0.31810104483E-01 -0.13167600863E+00 -0.57236141052E-01  0.89220313261E+00  0.88000000000E+00 0.  1.
        -11    1    4    4    0    0  0.19089952527E-01  0.36651420823E-01  0.10135230026E-01  0.42552754840E-01  0.51100000000E-03 0.  1.
         11    1    4    4    0    0  0.19246520833E-01  0.74778976600E-01  0.37196067729E-01  0.85709582200E-01  0.51100000000E-03 0. -1.
</event>
<event>
 8    1  0.1092667E+005  0.1043930E+01  0.7957747E-01            NaN
         13   -1    0    0    0    0  0.00000000000E+00  0.00000000000E+00  0.74505805969E-08  0.10566000000E+00  0.10566000000E+00 0. -1.
     999900   -1    0    0    0    0 -0.00000000000E+00 -0.00000000000E+00 -0.74505805969E-08  0.93827000000E+00  0.93827000000E+00 0.  1.
     999902    2    1    2    0    0  0.22334297518E-01 -0.61327048345E-02 -0.69866697952E-02  0.10197381735E+01  0.10194511749E+01 0.  0.
     999903    2    3    3    0    0  0.26543280983E-01  0.12091974094E+00  0.33316796764E-01  0.12969075402E+00  0.19584514724E-01 0.  0.
         14    1    1    2    0    0 -0.22334297518E-01  0.61327048345E-02  0.69866697952E-02  0.24191826493E-01  0.00000000000E+00 0. -1.
     999901    1    3    3    0    0 -0.42089834650E-02 -0.12705244578E+00 -0.40303466560E-01  0.89004741949E+00  0.88000000000E+00 0. -1.
        -11    1    4    4    0    0  0.27976049144E-01  0.94672214311E-01  0.22444351398E-01  0.10123980205E+00  0.51100000000E-03 0.  1.
         11    1    4    4    0    0 -0.14327681605E-02  0.26247526630E-01  0.10872445367E-01  0.28450951971E-01  0.51100000000E-03 0. -1.
</event>
<event>
 8    1  0.1092667E+005  0.1043930E+01  0.7957747E-01            NaN
         13   -1    0    0    0    0  0.00000000000E+00  0.00000000000E+00  0.74505805969E-08  0.10566000000E+00  0.10566000000E+00 0. -1.
     999900   -1    0    0    0    0 -0.00000000000E+00 -0.00000000000E+00 -0.74505805969E-08  0.93827000000E+00  0.93827000000E+00 0. -1.
     999902    2    1    2    0    0  0.21552193830E-01 -0.45265717805E-02  0.54559138581E-02  0.10212418113E+01  0.10209897567E+01 0.  0.
     999903    2    3    3    0    0 -0.12014886835E+00  0.24515118572E-01  0.31924767445E-01  0.12904048255E+00  0.24403150519E-01 0.  0.
         14    1    1    2    0    0 -0.21552193830E-01  0.45265717805E-02 -0.54559138581E-02  0.22688188712E-01  0.00000000000E+00 0.  1.
     999901    1    3    3    0    0  0.14170106218E+00 -0.29041690352E-01 -0.26468853586E-01  0.89220132874E+00  0.88000000000E+00 0. -1.
        -11    1    4    4    0    0 -0.99428965803E-01  0.13006239666E-01  0.32235622738E-01  0.10533127743E+00  0.51100000000E-03 0.  1.
         11    1    4    4    0    0 -0.20719902545E-01  0.11508878906E-01 -0.31085529381E-03  0.23709205114E-01  0.51100000000E-03 0. -1.
</event>
<event>
 8    1  0.1092667E+005  0.1043930E+01  0.7957747E-01            NaN
         13   -1    0    0    0    0  0.00000000000E+00  0.00000000000E+00  0.74505805969E-08  0.10566000000E+00  0.10566000000E+00 0.  1.
     999900   -1    0    0    0    0 -0.00000000000E+00 -0.00000000000E+00 -0.74505805969E-08  0.93827000000E+00  0.93827000000E+00 0.  1.
     999902    2    1    2    0    0  0.11527530027E-01  0.11152660934E-01  0.18445660357E-01  0.10194860195E+01  0.10191929336E+01 0.  0.
     999903    2    3    3    0    0 -0.94844777360E-01  0.13483054867E-02  0.87252832073E-01  0.13035969554E+00  0.19576613494E-01 0.  0.
         14    1    1    2    0    0 -0.11527530027E-01 -0.11152660934E-01 -0.18445660357E-01  0.24443980454E-01  0.00000000000E+00 0. -1.
     999901    1    3    3    0    0  0.10637230739E+00  0.98043554472E-02 -0.68807171716E-01  0.88912632401E+00  0.88000000000E+00 0.  1.
        -11    1    4    4    0    0 -0.79036300552E-01 -0.18791548720E-02  0.80593211128E-01  0.11289727556E+00  0.51100000000E-03 0.  1.
         11    1    4    4    0    0 -0.15808476808E-01  0.32274603587E-02  0.66596209449E-02  0.17462419978E-01  0.51100000000E-03 0. -1.
</event>
<event>
 8    1  0.1092667E+005  0.1043930E+01  0.7957747E-01            NaN
         13   -1    0    0    0    0  0.00000000000E+00  0.00000000000E+00  0.74505805969E-08  0.10566000000E+00  0.10566000000E+00 0. -1.
     999900   -1    0    0    0    0 -0.00000000000E+00 -0.00000000000E+00 -0.74505805969E-08  0.93827000000E+00  0.93827000000E+00 0. -1.
     999902    2    1    2    0    0 -0.13065932306E-01  0.62525449657E-02  0.18124376058E-01  0.10207285795E+01  0.10204648583E+01 0.  0.
     999903    2    3    3    0    0  0.22879449464E-01  0.12746920955E+00  0.12477569893E-01  0.13167434231E+00  0.20262627751E-01 0.  0.
         14    1    1    2    0    0  0.13065932306E-01 -0.62525449657E-02 -0.18124376058E-01  0.23201420497E-01  0.00000000000E+00 0.  1.
     999901    1    3    3    0    0 -0.35945381770E-01 -0.12121666458E+00  0.56468061653E-02  0.88905423719E+00  0.88000000000E+00 0.  1.
        -11    1    4    4    0    0  0.14642007580E-01  0.10968575761E+00  0.15823747920E-01  0.11178553541E+00  0.51100000000E-03 0.  1.
         11    1    4    4    0    0  0.82374418834E-02  0.17783451939E-01 -0.33461780277E-02  0.19888806904E-01  0.51100000000E-03 0. -1.
</event>
<event>
 8    1  0.1092667E+005  0.1043930E+01  0.7957747E-01            NaN
         13   -1    0    0    0    0  0.00000000000E+00  0.00000000000E+00  0.74505805969E-08  0.10566000000E+00  0.10566000000E+00 0. -1.
     999900   -1    0    0    0    0 -0.00000000000E+00 -0.00000000000E+00 -0.74505805969E-08  0.93827000000E+00  0.93827000000E+00 0.  1.
     999902    2    1    2    0    0  0.22884865653E-01 -0.46747610000E-02 -0.76838977519E-02  0.10193411255E+01  0.10190445119E+01 0.  0.
     999903    2    3    3    0    0  0.34963333907E-01  0.50823195623E-01  0.11187733738E+00  0.12944180445E+00  0.20813701976E-01 0.  0.
         14    1    1    2    0    0 -0.22884865653E-01  0.46747610000E-02  0.76838977519E-02  0.24588874538E-01  0.00000000000E+00 0. -1.
     999901    1    3    3    0    0 -0.12078468254E-01 -0.55497956623E-01 -0.11956123513E+00  0.88989932101E+00  0.88000000000E+00 0.  1.
        -11    1    4    4    0    0  0.69199696902E-02  0.27792261823E-02  0.26539193264E-01  0.27571724262E-01  0.51100000000E-03 0.  1.
         11    1    4    4    0    0  0.28043364217E-01  0.48043969441E-01  0.85338144116E-01  0.10187008019E+00  0.51100000000E-03 0. -1.
</event>
<event>
 8    1  0.1092667E+005  0.1043930E+01  0.7957747E-01            NaN
         13   -1    0    0    0    0  0.00000000000E+00  0.00000000000E+00  0.74505805969E-08  0.10566000000E+00  0.10566000000E+00 0. -1.
     999900   -1    0    0    0    0 -0.00000000000E+00 -0.00000000000E+00 -0.74505805969E-08  0.93827000000E+00  0.93827000000E+00 0.  1.
     999902    2    1    2    0    0 -0.14450751007E-01  0.62265157321E-02 -0.17442955324E-01  0.10204385038E+01  0.10201680693E+01 0.  0.
     999903    2    3    3    0    0 -0.10502518530E+00  0.59555125755E-01  0.48851574429E-01  0.13170759208E+00  0.19578328229E-01 0.  0.
         14    1    1    2    0    0  0.14450751007E-01 -0.62265157321E-02  0.17442955324E-01  0.23491496190E-01  0.00000000000E+00 0. -1.
     999901    1    3    3    0    0  0.90574434289E-01 -0.53328610023E-01 -0.66294529753E-01  0.88873091173E+00  0.88000000000E+00 0.  1.
        -11    1    4    4    0    0 -0.52773353498E-01  0.34768694694E-01  0.34973486678E-01  0.72230844253E-01  0.51100000000E-03 0.  1.
         11    1    4    4    0    0 -0.52251831799E-01  0.24786431062E-01  0.13878087751E-01  0.59476747824E-01  0.51100000000E-03 0. -1.
</event>
<event>
 8    1  0.1092667E+005  0.1043930E+01  0.7957747E-01            NaN
         13   -1    0    0    0    0  0.00000000000E+00  0.00000000000E+00  0.74505805969E-08  0.10566000000E+00  0.10566000000E+00 0.  1.
     999900   -1    0    0    0    0 -0.00000000000E+00 -0.00000000000E+00 -0.74505805969E-08  0.93827000000E+00  0.93827000000E+00 0.  1.
     999902    2    1    2    0    0  0.28079276601E-02  0.15720137456E-01  0.17930607786E-01  0.10199192967E+01  0.10196366303E+01 0.  0.
     999903    2    3    3    0    0 -0.48231635615E-01 -0.11057808518E+00  0.41327735543E-01  0.12913104817E+00  0.20323441634E-01 0.  0.
         14    1    1    2    0    0 -0.28079276601E-02 -0.15720137456E-01 -0.17930607786E-01  0.24010703341E-01  0.00000000000E+00 0. -1.
     999901    1    3    3    0    0  0.51039563275E-01  0.12629822264E+00 -0.23397127757E-01  0.89078824849E+00  0.88000000000E+00 0. -1.
        -11    1    4    4    0    0 -0.45208329060E-01 -0.89316013179E-01  0.28393511156E-01  0.10405573422E+00  0.51100000000E-03 0. -1.
         11    1    4    4    0    0 -0.30233065547E-02 -0.21262072002E-01  0.12934224387E-01  0.25075313953E-01  0.51100000000E-03 0.  1.
</event>
<event>
 8    1  0.1092667E+005  0.1043930E+01  0.7957747E-01            NaN
         13   -1    0    0    0    0  0.00000000000E+00  0.00000000000E+00  0.74505805969E-08  0.10566000000E+00  0.10566000000E+00 0. -1.
     999900   -1    0    0    0    0 -0.00000000000E+00 -0.00000000000E+00 -0.74505805969E-08  0.93827000000E+00  0.93827000000E+00 0. -1.
     999902    2    1    2    0    0  0.17119398896E-02 -0.19723688706E-01  0.13455414533E-01  0.10199925228E+01  0.10197115983E+01 0.  0.
     999903    2    3    3    0    0 -0.16618480221E-01  0.10224442135E+00  0.73181805531E-01  0.12938628773E+00  0.25595687329E-01 0.  0.
         14    1    1    2    0    0 -0.17119398896E-02  0.19723688706E-01 -0.13455414533E-01  0.23937477198E-01  0.00000000000E+00 0.  1.
     999901    1    3    3    0    0  0.18330420111E-01 -0.12196811005E+00 -0.59726390999E-01  0.89060623507E+00  0.88000000000E+00 0. -1.
        -11    1    4    4    0    0 -0.45642145650E-02  0.76578162759E-01  0.42893642705E-01  0.87892962014E-01  0.51100000000E-03 0.  1.
         11    1    4    4    0    0 -0.12054265656E-01  0.25666258588E-01  0.30288162827E-01  0.41493325714E-01  0.51100000000E-03 0. -1.
</event>
<event>
 8    1  0.1092667E+005  0.1043930E+01  0.7957747E-01            NaN
         13   -1    0    0    0    0  0.00000000000E+00  0.00000000000E+00  0.74505805969E-08  0.10566000000E+00  0.10566000000E+00 0. -1.
     999900   -1    0    0    0    0 -0.00000000000E+00 -0.00000000000E+00 -0.74505805969E-08  0.93827000000E+00  0.93827000000E+00 0. -1.
     999902    2    1    2    0    0  0.22929727968E-01  0.11086601637E-03 -0.48146768446E-02  0.10204999802E+01  0.10202309757E+01 0.  0.
     999903    2    3    3    0    0  0.28792544696E-01 -0.27703999653E-01 -0.12424321237E+00  0.13197805334E+00  0.19629276985E-01 0.  0.
         14    1    1    2    0    0 -0.22929727968E-01 -0.11086601637E-03  0.48146768446E-02  0.23430019827E-01  0.00000000000E+00 0. -1.
     999901    1    3    3    0    0 -0.58628167277E-02  0.27814865670E-01  0.11942853553E+00  0.88852192684E+00  0.88000000000E+00 0.  1.
        -11    1    4    4    0    0  0.11798469610E-01 -0.22644978793E-03 -0.25992755736E-01  0.28550650367E-01  0.51100000000E-03 0. -1.
         11    1    4    4    0    0  0.16994075086E-01 -0.27477549865E-01 -0.98250456636E-01  0.10342740297E+00  0.51100000000E-03 0.  1.
</event>
<event>
 8    1  0.1092667E+005  0.1043930E+01  0.7957747E-01            NaN
         13   -1    0    0    0    0  0.00000000000E+00  0.00000000000E+00  0.74505805969E-08  0.10566000000E+00  0.10566000000E+00 0.  1.
     999900   -1    0    0    0    0 -0.00000000000E+00 -0.00000000000E+00 -0.74505805969E-08  0.93827000000E+00  0.93827000000E+00 0. -1.
     999902    2    1    2    0    0 -0.14460705884E-02  0.19616136698E-01  0.11574103645E-01  0.10211079971E+01  0.10208529267E+01 0.  0.
     999903    2    3    3    0    0  0.12528314059E+00  0.26235104043E-01  0.22649132935E-01  0.13193604529E+00  0.22582976385E-01 0.  0.
         14    1    1    2    0    0  0.14460705884E-02 -0.19616136698E-01 -0.11574103645E-01  0.22822002854E-01  0.00000000000E+00 0. -1.
     999901    1    3    3    0    0 -0.12672921118E+00 -0.66189673455E-02 -0.11075029291E-01  0.88917195186E+00  0.88000000000E+00 0.  1.
        -11    1    4    4    0    0  0.92560885077E-01  0.29291260986E-01  0.15852141317E-01  0.98371982402E-01  0.51100000000E-03 0. -1.
         11    1    4    4    0    0  0.32722255517E-01 -0.30561569431E-02  0.67969916184E-02  0.33564062887E-01  0.51100000000E-03 0.  1.
</event>
<event>
 8    1  0.1092667E+005  0.1043930E+01  0.7957747E-01            NaN
         13   -1    0    0    0    0  0.00000000000E+00  0.00000000000E+00  0.74505805969E-08  0.10566000000E+00  0.10566000000E+00 0. -1.
     999900   -1    0    0    0    0 -0.00000000000E+00 -0.00000000000E+00 -0.74505805969E-08  0.93827000000E+00  0.93827000000E+00 0. -1.
     999902    2    1    2    0    0  0.67225049474E-02  0.96903709200E-02 -0.14852966758E-01  0.10249640837E+01  0.10247885961E+01 0.  0.
     999903    2    3    3    0    0 -0.12783857162E-01 -0.85026973301E-01 -0.10247441196E+00  0.13534090999E+00  0.20570455004E-01 0.  0.
         14    1    1    2    0    0 -0.67225049474E-02 -0.96903709200E-02  0.14852966758E-01  0.18965916346E-01  0.00000000000E+00 0. -1.
     999901    1    3    3    0    0  0.19506362110E-01  0.94717344221E-01  0.87621445198E-01  0.88962317366E+00  0.88000000000E+00 0. -1.
        -11    1    4    4    0    0 -0.17676226818E-01 -0.65361514753E-01 -0.72997674264E-01  0.99566551483E-01  0.51100000000E-03 0.  1.
         11    1    4    4    0    0  0.48923696555E-02 -0.19665458548E-01 -0.29476737692E-01  0.35774358508E-01  0.51100000000E-03 0. -1.
</event>
<event>
 8    1  0.1092667E+005  0.1043930E+01  0.7957747E-01            NaN
         13   -1    0    0    0    0  0.00000000000E+00  0.00000000000E+00  0.74505805969E-08  0.10566000000E+00  0.10566000000E+00 0.  1.
     999900   -1    0    0    0    0 -0.00000000000E+00 -0.00000000000E+00 -0.74505805969E-08  0.93827000000E+00  0.93827000000E+00 0. -1.
     999902    2    1    2    0    0 -0.11164339772E-01 -0.17255306740E-01  0.11388111457E-01  0.10204336774E+01  0.10201631305E+01 0.  0.
     999903    2    3    3    0    0  0.12018589684E+00  0.24755860817E-01 -0.33253302238E-01  0.12857568496E+00  0.19194327515E-01 0.  0.
         14    1    1    2    0    0  0.11164339772E-01  0.17255306740E-01 -0.11388111457E-01  0.23496322601E-01  0.00000000000E+00 0. -1.
     999901    1    3    3    0    0 -0.13135023661E+00 -0.42011167557E-01  0.44641413695E-01  0.89185799244E+00  0.88000000000E+00 0.  1.
        -11    1    4    4    0    0  0.70027678280E-01  0.23504549503E-01 -0.16633259361E-01  0.75718333385E-01  0.51100000000E-03 0.  1.
         11    1    4    4    0    0  0.50158218564E-01  0.12513113140E-02 -0.16620042876E-01  0.52857351577E-01  0.51100000000E-03 0. -1.
</event>
<event>
 8    1  0.1092667E+005  0.1043930E+01  0.7957747E-01            NaN
         13   -1    0    0    0    0  0.00000000000E+00  0.00000000000E+00  0.74505805969E-08  0.10566000000E+00  0.10566000000E+00 0.  1.
     999900   -1    0    0    0    0 -0.00000000000E+00 -0.00000000000E+00 -0.74505805969E-08  0.93827000000E+00  0.93827000000E+00 0.  1.
     999902    2    1    2    0    0  0.25178823621E-02 -0.17493760062E-01  0.51201907908E-02  0.10255292466E+01  0.10253641538E+01 0.  0.
     999903    2    3    3    0    0  0.44122141741E-01  0.11449326522E+00  0.49152044471E-01  0.13362662108E+00  0.19613240714E-01 0.  0.
         14    1    1    2    0    0 -0.25178823621E-02  0.17493760062E-01 -0.51201907908E-02  0.18400753420E-01  0.00000000000E+00 0. -1.
     999901    1    3    3    0    0 -0.41604259379E-01 -0.13198702528E+00 -0.44031853681E-01  0.89190262550E+00  0.88000000000E+00 0.  1.
        -11    1    4    4    0    0  0.23181601565E-01  0.44853862224E-01  0.11712477850E-01  0.51833375984E-01  0.51100000000E-03 0. -1.
         11    1    4    4    0    0  0.20940540176E-01  0.69639402999E-01  0.37439566621E-01  0.81793245092E-01  0.51100000000E-03 0.  1.
</event>
<event>
 7    1  0.1092667E+005  0.1043930E+01  0.7957747E-01            NaN
         13   -1    0    0    0    0  0.00000000000E+00  0.00000000000E+00  0.74505805969E-08  0.10566000000E+00  0.10566000000E+00 0. -1.
     999900   -1    0    0    0    0 -0.00000000000E+00 -0.00000000000E+00 -0.74505805969E-08  0.93827000000E+00  0.93827000000E+00 0.  1.
     999902    2    1    2    0    0 -0.58833015577E-02 -0.20275241296E-03 -0.23350225248E-01  0.10198491494E+01  0.10195648092E+01 0.  0.
         14    1    1    2    0    0  0.58833015577E-02  0.20275241296E-03  0.23350225248E-01  0.24080850585E-01  0.00000000000E+00 0. -1.
     999901    1    3    3    0    0 -0.82057789166E-01  0.96302768088E-01 -0.11136831321E-01  0.88911851455E+00  0.88000000000E+00 0.  1.
        -11    1    3    3    0    0  0.23006726159E-01 -0.43312372938E-01 -0.23998315699E-01  0.54602668208E-01  0.51100000000E-03 0.  1.
         11    1    3    3    0    0  0.53167761449E-01 -0.53193147563E-01  0.11784921772E-01  0.76127966657E-01  0.51100000000E-03 0. -1.
</event>
<event>
 8    1  0.1092667E+005  0.1043930E+01  0.7957747E-01            NaN
         13   -1    0    0    0    0  0.00000000000E+00  0.00000000000E+00  0.74505805969E-08  0.10566000000E+00  0.10566000000E+00 0. -1.
     999900   -1    0    0    0    0 -0.00000000000E+00 -0.00000000000E+00 -0.74505805969E-08  0.93827000000E+00  0.93827000000E+00 0. -1.
     999902    2    1    2    0    0 -0.16991571526E-01  0.14216802689E-01 -0.97235016566E-02  0.10197354249E+01  0.10194483603E+01 0.  0.
     999903    2    3    3    0    0 -0.23044836586E-01 -0.10367608079E+00 -0.71822010945E-01  0.12968396632E+00  0.19486806897E-01 0.  0.
         14    1    1    2    0    0  0.16991571526E-01 -0.14216802689E-01  0.97235016566E-02  0.24194575138E-01  0.00000000000E+00 0. -1.
     999901    1    3    3    0    0  0.60532650596E-02  0.11789288348E+00  0.62098509289E-01  0.89005145854E+00  0.88000000000E+00 0.  1.
        -11    1    4    4    0    0 -0.49643687819E-02 -0.35912248825E-01 -0.14296868520E-01  0.38974301066E-01  0.51100000000E-03 0. -1.
         11    1    4    4    0    0 -0.18080467804E-01 -0.67763831968E-01 -0.57525142425E-01  0.90709665256E-01  0.51100000000E-03 0.  1.
</event>
<event>
 8    1  0.1092667E+005  0.1043930E+01  0.7957747E-01            NaN
         13   -1    0    0    0    0  0.00000000000E+00  0.00000000000E+00  0.74505805969E-08  0.10566000000E+00  0.10566000000E+00 0. -1.
     999900   -1    0    0    0    0 -0.00000000000E+00 -0.00000000000E+00 -0.74505805969E-08  0.93827000000E+00  0.93827000000E+00 0.  1.
     999902    2    1    2    0    0  0.17830364847E-01 -0.14645039586E-01  0.65848192642E-02  0.10199350226E+01  0.10196527308E+01 0.  0.
     999903    2    3    3    0    0 -0.10995974373E+00 -0.56974255022E-01 -0.29371536964E-01  0.12897209753E+00  0.20830357190E-01 0.  0.
         14    1    1    2    0    0 -0.17830364847E-01  0.14645039586E-01 -0.65848192642E-02  0.23994977387E-01  0.00000000000E+00 0.  1.
     999901    1    3    3    0    0  0.12779010857E+00  0.42329215436E-01  0.35956356228E-01  0.89096292509E+00  0.88000000000E+00 0. -1.
        -11    1    4    4    0    0 -0.19346378468E-01 -0.10013061365E-01 -0.13637231093E-01  0.25705620993E-01  0.51100000000E-03 0.  1.
         11    1    4    4    0    0 -0.90613365259E-01 -0.46961193656E-01 -0.15734305871E-01  0.10326647653E+00  0.51100000000E-03 0. -1.
</event>
<event>
 8    1  0.1092667E+005  0.1043930E+01  0.7957747E-01            NaN
         13   -1    0    0    0    0  0.00000000000E+00  0.00000000000E+00  0.74505805969E-08  0.10566000000E+00  0.10566000000E+00 0.  1.
     999900   -1    0    0    0    0 -0.00000000000E+00 -0.00000000000E+00 -0.74505805969E-08  0.93827000000E+00  0.93827000000E+00 0.  1.
     999902    2    1    2    0    0  0.40326202024E-02 -0.77718266434E-02  0.22417672104E-01  0.10198631070E+01  0.10195791003E+01 0.  0.
     999903    2    3    3    0    0 -0.19776009339E-01  0.12219866771E+00  0.33769991592E-01  0.12992599947E+00  0.20414408412E-01 0.  0.
         14    1    1    2    0    0 -0.40326202024E-02  0.77718266434E-02 -0.22417672104E-01  0.24066892978E-01  0.00000000000E+00 0. -1.
     999901    1    3    3    0    0  0.23808629541E-01 -0.12997049435E+00 -0.11352319488E-01  0.88993710755E+00  0.88000000000E+00 0. -1.
        -11    1    4    4    0    0 -0.26590011208E-02  0.78186928954E-01  0.20825288197E-01  0.80958136687E-01  0.51100000000E-03 0.  1.
         11    1    4    4    0    0 -0.17117008218E-01  0.44011738753E-01  0.12944703394E-01  0.48967862782E-01  0.51100000000E-03 0. -1.
</event>
<event>
 8    1  0.1092667E+005  0.1043930E+01  0.7957747E-01            NaN
         13   -1    0    0    0    0  0.00000000000E+00  0.00000000000E+00  0.74505805969E-08  0.10566000000E+00  0.10566000000E+00 0.  1.
     999900   -1    0    0    0    0 -0.00000000000E+00 -0.00000000000E+00 -0.74505805969E-08  0.93827000000E+00  0.93827000000E+00 0. -1.
     999902    2    1    2    0    0 -0.85632171434E-02  0.67304795516E-02  0.21799472325E-01  0.10195610641E+01  0.10192697967E+01 0.  0.
     999903    2    3    3    0    0  0.87943002307E-01  0.25041981333E-01 -0.86588627671E-01  0.12748666042E+00  0.19854109400E-01 0.  0.
         14    1    1    2    0    0  0.85632171434E-02 -0.67304795516E-02 -0.21799472325E-01  0.24368935892E-01  0.00000000000E+00 0. -1.
     999901    1    3    3    0    0 -0.96506219450E-01 -0.18311501781E-01  0.10838810000E+00  0.89207440369E+00  0.88000000000E+00 0. -1.
        -11    1    4    4    0    0  0.44284428241E-01  0.24118287277E-02 -0.42894365589E-01  0.61701825117E-01  0.51100000000E-03 0.  1.
         11    1    4    4    0    0  0.43658574066E-01  0.22630152605E-01 -0.43694262082E-01  0.65784835306E-01  0.51100000000E-03 0. -1.
</event>
<event>
 8    1  0.1092667E+005  0.1043930E+01  0.7957747E-01            NaN
         13   -1    0    0    0    0  0.00000000000E+00  0.00000000000E+00  0.74505805969E-08  0.10566000000E+00  0.10566000000E+00 0.  1.
     999900   -1    0    0    0    0 -0.00000000000E+00 -0.00000000000E+00 -0.74505805969E-08  0.93827000000E+00  0.93827000000E+00 0.  1.
     999902    2    1    2    0    0  0.61229621389E-02  0.18357243597E-01 -0.18222412034E-01  0.10173492672E+01  0.10170019646E+01 0.  0.
     999903    2    3    3    0    0  0.50739810620E-01 -0.54648241894E-01  0.98903267247E-01  0.12547545948E+00  0.20031873007E-01 0.  0.
         14    1    1    2    0    0 -0.61229621389E-02 -0.18357243597E-01  0.18222412034E-01  0.26580732837E-01  0.00000000000E+00 0.  1.
     999901    1    3    3    0    0 -0.44616848481E-01  0.73005485491E-01 -0.11712567928E+00  0.89187380768E+00  0.88000000000E+00 0.  1.
        -11    1    4    4    0    0  0.32611140796E-01 -0.26408006287E-01  0.41749019153E-01  0.59195532106E-01  0.51100000000E-03 0. -1.
         11    1    4    4    0    0  0.18128669824E-01 -0.28240235608E-01  0.57154248094E-01  0.66279927376E-01  0.51100000000E-03 0.  1.
</event>
<event>
 8    1  0.1092667E+005  0.1043930E+01  0.7957747E-01            NaN
         13   -1    0    0    0    0  0.00000000000E+00  0.00000000000E+00  0.74505805969E-08  0.10566000000E+00  0.10566000000E+00 0. -1.
     999900   -1    0    0    0    0 -0.00000000000E+00 -0.00000000000E+00 -0.74505805969E-08  0.93827000000E+00  0.93827000000E+00 0. -1.
     999902    2    1    2    0    0  0.22819821817E-01 -0.80057689310E-02  0.12108756177E-02  0.10197163092E+01  0.10194287853E+01 0.  0.
     999903    2    3    3    0    0 -0.60332583240E-01 -0.10631236127E+00 -0.36533333063E-01  0.12954602554E+00  0.22475532251E-01 0.  0.
         14    1    1    2    0    0 -0.22819821817E-01  0.80057689310E-02 -0.12108756177E-02  0.24213690832E-01  0.00000000000E+00 0.  1.
     999901    1    3    3    0    0  0.83152405056E-01  0.98306592338E-01  0.37744208681E-01  0.89017028363E+00  0.88000000000E+00 0. -1.
        -11    1    4    4    0    0 -0.50969193018E-01 -0.68861350156E-01 -0.25817161226E-01  0.89479221705E-01  0.51100000000E-03 0. -1.
         11    1    4    4    0    0 -0.93633902220E-02 -0.37451011113E-01 -0.10716171838E-01  0.40066803837E-01  0.51100000000E-03 0.  1.
</event>
<event>
 8    1  0.1092667E+005  0.1043930E+01  0.7957747E-01            NaN
         13   -1    0    0    0    0  0.00000000000E+00  0.00000000000E+00  0.74505805969E-08  0.10566000000E+00  0.10566000000E+00 0.  1.
     999900   -1    0    0    0    0 -0.00000000000E+00 -0.00000000000E+00 -0.74505805969E-08  0.93827000000E+00  0.93827000000E+00 0. -1.
     999902    2    1    2    0    0 -0.14224743713E-01  0.19473817585E-01  0.10213811768E-02  0.10197925576E+01  0.10195068634E+01 0.  0.
     999903    2    3    3    0    0  0.77012058986E-01 -0.42738363035E-01  0.92549672692E-01  0.12818056929E+00  0.10362988205E-01 0.  0.
         14    1    1    2    0    0  0.14224743713E-01 -0.19473817585E-01 -0.10213811768E-02  0.24137442378E-01  0.00000000000E+00 0. -1.
     999901    1    3    3    0    0 -0.91236802700E-01  0.62212180621E-01 -0.91528291515E-01  0.89161198833E+00  0.88000000000E+00 0. -1.
        -11    1    4    4    0    0  0.29857505170E-01 -0.22375417247E-01  0.38416138922E-01  0.53555492366E-01  0.51100000000E-03 0.  1.
         11    1    4    4    0    0  0.47154553817E-01 -0.20362945788E-01  0.54133533770E-01  0.74625076926E-01  0.51100000000E-03 0. -1.
</event>
<event>
 8    1  0.1119501E+005  0.1043930E+01  0.7957747E-01            NaN
         13   -1    0    0    0    0  0.00000000000E+00  0.00000000000E+00  0.74505805969E-08  0.10566000000E+00  0.10566000000E+00 0. -1.
     999900   -1    0    0    0    0 -0.00000000000E+00 -0.00000000000E+00 -0.74505805969E-08  0.93827000000E+00  0.93827000000E+00 0. -1.
     999902    2    1    2    0    0 -0.10894491131E-01 -0.23749277544E-01  0.98824819029E-02  0.10159946896E+01  0.10156105689E+01 0.  0.
     999903    2    3    3    0    0 -0.83527108833E-01 -0.69504502868E-01  0.68278835567E-01  0.12989132543E+00  0.20052511236E-01 0.  0.
         14    1    1    2    0    0  0.10894491131E-01  0.23749277544E-01 -0.98824819029E-02  0.27935310441E-01  0.00000000000E+00 0.  1.
     999901    1    3    3    0    0  0.72632617701E-01  0.45755225325E-01 -0.58396353664E-01  0.88610336413E+00  0.88000000000E+00 0.  1.
        -11    1    4    4    0    0 -0.37048656583E-01 -0.43269404717E-01  0.38716512660E-01  0.68877237261E-01  0.51100000000E-03 0.  1.
         11    1    4    4    0    0 -0.46478452249E-01 -0.26235098151E-01  0.29562322907E-01  0.61014088169E-01  0.51100000000E-03 0. -1.
</event>
<event>
 7    1  0.1092667E+005  0.1043930E+01  0.7957747E-01            NaN
         13   -1    0    0    0    0  0.00000000000E+00  0.00000000000E+00  0.74505805969E-08  0.10566000000E+00  0.10566000000E+00 0.  1.
     999900   -1    0    0    0    0 -0.00000000000E+00 -0.00000000000E+00 -0.74505805969E-08  0.93827000000E+00  0.93827000000E+00 0. -1.
     999903    2    1    2    0    0  0.92093193712E-01  0.21052965196E-01 -0.32588377339E-01  0.10158396859E+00  0.18246004061E-01 0.  0.
         14    1    1    2    0    0 -0.72581219671E-03 -0.49464598795E-01 -0.24727704984E-01  0.55305811007E-01  0.00000000000E+00 0. -1.
     999901    1    1    2    0    0 -0.91367381516E-01  0.28411633599E-01  0.57316082323E-01  0.88704022041E+00  0.88000000000E+00 0.  1.
        -11    1    3    3    0    0  0.63816203338E-01  0.19037866878E-01 -0.30216266234E-01  0.73131607735E-01  0.51100000000E-03 0. -1.
         11    1    3    3    0    0  0.28276990374E-01  0.20150983180E-02 -0.23721111051E-02  0.28452360850E-01  0.51100000000E-03 0.  1.
</event>
<event>
 8    1  0.1092667E+005  0.1043930E+01  0.7957747E-01            NaN
         13   -1    0    0    0    0  0.00000000000E+00  0.00000000000E+00  0.74505805969E-08  0.10566000000E+00  0.10566000000E+00 0. -1.
     999900   -1    0    0    0    0 -0.00000000000E+00 -0.00000000000E+00 -0.74505805969E-08  0.93827000000E+00  0.93827000000E+00 0.  1.
     999902    2    1    2    0    0 -0.81410978690E-02 -0.13664203330E-01  0.16361335437E-01  0.10211115596E+01  0.10208565697E+01 0.  0.
     999903    2    3    3    0    0  0.51767240026E-01  0.76851433382E-01  0.90877846544E-01  0.13131675182E+00  0.19982901780E-01 0.  0.
         14    1    1    2    0    0  0.81410978690E-02  0.13664203330E-01 -0.16361335437E-01  0.22818440447E-01  0.00000000000E+00 0.  1.
     999901    1    3    3    0    0 -0.59908337895E-01 -0.90515636713E-01 -0.74516511108E-01  0.88979480773E+00  0.88000000000E+00 0.  1.
        -11    1    4    4    0    0  0.16185089071E-02  0.11235928616E-01  0.58421709208E-02  0.12777235422E-01  0.51100000000E-03 0. -1.
         11    1    4    4    0    0  0.50148731118E-01  0.65615504766E-01  0.85035675624E-01  0.11853951640E+00  0.51100000000E-03 0.  1.
</event>
<event>
 8    1  0.1092667E+005  0.1043930E+01  0.7957747E-01            NaN
         13   -1    0    0    0    0  0.00000000000E+00  0.00000000000E+00  0.74505805969E-08  0.10566000000E+00  0.10566000000E+00 0.  1.
     999900   -1    0    0    0    0 -0.00000000000E+00 -0.00000000000E+00 -0.74505805969E-08  0.93827000000E+00  0.93827000000E+00 0. -1.
     999902    2    1    2    0    0 -0.13428803615E-01  0.12632252645E-01 -0.15020884491E-01  0.10201490508E+01  0.10198718313E+01 0.  0.
     999903    2    3    3    0    0 -0.42555950937E-01 -0.81848420638E-01 -0.91536835466E-01  0.13131291344E+00  0.18812657153E-01 0.  0.
         14    1    1    2    0    0  0.13428803615E-01 -0.12632252645E-01  0.15020884491E-01  0.23780949188E-01  0.00000000000E+00 0.  1.
     999901    1    3    3    0    0  0.29127147323E-01  0.94480673283E-01  0.76515950975E-01  0.88883613737E+00  0.88000000000E+00 0. -1.
        -11    1    4    4    0    0 -0.17575352223E-01 -0.47456838981E-01 -0.59313422092E-01  0.77970428581E-01  0.51100000000E-03 0.  1.
         11    1    4    4    0    0 -0.24980598714E-01 -0.34391581657E-01 -0.32223413375E-01  0.53342484864E-01  0.51100000000E-03 0. -1.
</event>
<event>
 8    1  0.1092667E+005  0.1043930E+01  0.7957747E-01            NaN
         13   -1    0    0    0    0  0.00000000000E+00  0.00000000000E+00  0.74505805969E-08  0.10566000000E+00  0.10566000000E+00 0.  1.
     999900   -1    0    0    0    0 -0.00000000000E+00 -0.00000000000E+00 -0.74505805969E-08  0.93827000000E+00  0.93827000000E+00 0.  1.
     999902    2    1    2    0    0 -0.11353283918E-01 -0.16343515481E-01 -0.11159584320E-01  0.10211145693E+01  0.10208596475E+01 0.  0.
     999903    2    3    3    0    0  0.99010355713E-01  0.14728539865E-01 -0.82036499578E-01  0.13085104504E+00  0.19288035180E-01 0.  0.
         14    1    1    2    0    0  0.11353283918E-01  0.16343515481E-01  0.11159584320E-01  0.22815430660E-01  0.00000000000E+00 0.  1.
     999901    1    3    3    0    0 -0.11036363963E+00 -0.31072055345E-01  0.70876915258E-01  0.89026352430E+00  0.88000000000E+00 0.  1.
        -11    1    4    4    0    0  0.47634359487E-01  0.15727374822E-01 -0.34834809059E-01  0.61074606554E-01  0.51100000000E-03 0. -1.
         11    1    4    4    0    0  0.51375996226E-01 -0.99883495781E-03 -0.47201690519E-01  0.69776438490E-01  0.51100000000E-03 0.  1.
</event>
<event>
 8    1  0.1092667E+005  0.1043930E+01  0.7957747E-01            NaN
         13   -1    0    0    0    0  0.00000000000E+00  0.00000000000E+00  0.74505805969E-08  0.10566000000E+00  0.10566000000E+00 0.  1.
     999900   -1    0    0    0    0 -0.00000000000E+00 -0.00000000000E+00 -0.74505805969E-08  0.93827000000E+00  0.93827000000E+00 0. -1.
     999902    2    1    2    0    0 -0.43897997057E-02 -0.17010914698E-01  0.15806035849E-01  0.10202979808E+01  0.10200242631E+01 0.  0.
     999903    2    3    3    0    0 -0.44251083443E-01  0.23917021581E-01 -0.11657457225E+00  0.12856447619E+00  0.20224028677E-01 0.  0.
         14    1    1    2    0    0  0.43897997057E-02  0.17010914698E-01 -0.15806035849E-01  0.23632019160E-01  0.00000000000E+00 0. -1.
     999901    1    3    3    0    0  0.39861283738E-01 -0.40927936279E-01  0.13238060810E+00  0.89173350465E+00  0.88000000000E+00 0.  1.
        -11    1    4    4    0    0 -0.14391096540E-01  0.50711287447E-02 -0.16681163440E-01  0.22612879983E-01  0.51100000000E-03 0.  1.
         11    1    4    4    0    0 -0.29859986903E-01  0.18845892837E-01 -0.99893408811E-01  0.10595159621E+00  0.51100000000E-03 0. -1.
</event>
<event>
 8    1  0.1092667E+005  0.1043930E+01  0.7957747E-01            NaN
         13   -1    0    0    0    0  0.00000000000E+00  0.00000000000E+00  0.74505805969E-08  0.10566000000E+00  0.10566000000E+00 0.  1.
     999900   -1    0    0    0    0 -0.00000000000E+00 -0.00000000000E+00 -0.74505805969E-08  0.93827000000E+00  0.93827000000E+00 0.  1.
     999902    2    1    2    0    0  0.34153222763E-03  0.11562752407E-01 -0.22374638158E-01  0.10187419409E+01  0.10184305101E+01 0.  0.
     999903    2    3    3    0    0  0.52837167792E-01 -0.89812262041E-01 -0.74471492933E-01  0.12983993981E+00  0.21316613146E-01 0.  0.
         14    1    1    2    0    0 -0.34153222763E-03 -0.11562752407E-01  0.22374638158E-01  0.25188059080E-01  0.00000000000E+00 0.  1.
     999901    1    3    3    0    0 -0.52495635564E-01  0.10137501445E+00  0.52096854775E-01  0.88890200111E+00  0.88000000000E+00 0. -1.
        -11    1    4    4    0    0  0.33656906002E-02 -0.20445054589E-01 -0.19395664169E-01  0.28386282601E-01  0.51100000000E-03 0.  1.
         11    1    4    4    0    0  0.49471477192E-01 -0.69367207452E-01 -0.55075828764E-01  0.10145365720E+00  0.51100000000E-03 0. -1.
</event>
<event>
 8    1  0.1092667E+005  0.1043930E+01  0.7957747E-01            NaN
         13   -1    0    0    0    0  0.00000000000E+00  0.00000000000E+00  0.74505805969E-08  0.10566000000E+00  0.10566000000E+00 0. -1.
     999900   -1    0    0    0    0 -0.00000000000E+00 -0.00000000000E+00 -0.74505805969E-08  0.93827000000E+00  0.93827000000E+00 0. -1.
     999902    2    1    2    0    0 -0.11683571887E-01  0.15641506221E-01  0.14523387771E-01  0.10195970725E+01  0.10193066756E+01 0.  0.
     999903    2    3    3    0    0 -0.80657122078E-02  0.55675648095E-01  0.11821185302E+00  0.13259813266E+00  0.21056806183E-01 0.  0.
         14    1    1    2    0    0  0.11683571887E-01 -0.15641506221E-01 -0.14523387771E-01  0.24332927511E-01  0.00000000000E+00 0. -1.
     999901    1    3    3    0    0 -0.36178596794E-02 -0.40034141874E-01 -0.10368846525E+00  0.88699893982E+00  0.88000000000E+00 0. -1.
        -11    1    4    4    0    0 -0.12699534697E-01  0.51541201523E-01  0.11117682702E+00  0.12320033126E+00  0.51100000000E-03 0.  1.
         11    1    4    4    0    0  0.46338224892E-02  0.41344465720E-02  0.70350260023E-02  0.93978014009E-02  0.51100000000E-03 0. -1.
</event>
<event>
 8    1  0.1092667E+005  0.1043930E+01  0.7957747E-01            NaN
         13   -1    0    0    0    0  0.00000000000E+00  0.00000000000E+00  0.74505805969E-08  0.10566000000E+00  0.10566000000E+00 0. -1.
     999900   -1    0    0    0    0 -0.00000000000E+00 -0.00000000000E+00 -0.74505805969E-08  0.93827000000E+00  0.93827000000E+00 0. -1.
     999902    2    1    2    0    0  0.39937747578E-03 -0.15759791999E-01 -0.14010591646E-01  0.10228390725E+01  0.10226216020E+01 0.  0.
     999903    2    3    3    0    0  0.45504015910E-01 -0.12299847167E+00 -0.25244305012E-01  0.13511120924E+00  0.20457869589E-01 0.  0.
         14    1    1    2    0    0 -0.39937747578E-03  0.15759791999E-01  0.14010591646E-01  0.21090927540E-01  0.00000000000E+00 0. -1.
     999901    1    3    3    0    0 -0.45104638435E-01  0.10723867967E+00  0.11233713365E-01  0.88772786322E+00  0.88000000000E+00 0. -1.
        -11    1    4    4    0    0  0.81835112787E-02 -0.37229721969E-01 -0.15180811364E-01  0.41033403581E-01  0.51100000000E-03 0. -1.
         11    1    4    4    0    0  0.37320504632E-01 -0.85768749703E-01 -0.10063493648E-01  0.94077805656E-01  0.51100000000E-03 0.  1.
</event>
<event>
 8    1  0.1092667E+005  0.1043930E+01  0.7957747E-01            NaN
         13   -1    0    0    0    0  0.00000000000E+00  0.00000000000E+00  0.74505805969E-08  0.10566000000E+00  0.10566000000E+00 0. -1.
     999900   -1    0    0    0    0 -0.00000000000E+00 -0.00000000000E+00 -0.74505805969E-08  0.93827000000E+00  0.93827000000E+00 0.  1.
     999902    2    1    2    0    0  0.16125730584E-01 -0.13804389567E-01  0.83789677546E-02  0.10211087937E+01  0.10208537413E+01 0.  0.
     999903    2    3    3    0    0 -0.76107274055E-01  0.99310911963E-01 -0.23463013499E-01  0.12851935256E+00  0.17656063607E-01 0.  0.
         14    1    1    2    0    0 -0.16125730584E-01  0.13804389567E-01 -0.83789677546E-02  0.22821206340E-01  0.00000000000E+00 0.  1.
     999901    1    3    3    0    0  0.92233004639E-01 -0.11311530153E+00  0.31841981253E-01  0.89258944110E+00  0.88000000000E+00 0.  1.
        -11    1    4    4    0    0 -0.65567411895E-01  0.74065842787E-01 -0.20232782264E-01  0.10096762436E+00  0.51100000000E-03 0. -1.
         11    1    4    4    0    0 -0.10539862160E-01  0.25245069176E-01 -0.32302312350E-02  0.27551728202E-01  0.51100000000E-03 0.  1.
</event>
<event>
 8    1  0.1092667E+005  0.1043930E+01  0.7957747E-01            NaN
         13   -1    0    0    0    0  0.00000000000E+00  0.00000000000E+00  0.74505805969E-08  0.10566000000E+00  0.10566000000E+00 0.  1.
     999900   -1    0    0    0    0 -0.00000000000E+00 -0.00000000000E+00 -0.74505805969E-08  0.93827000000E+00  0.93827000000E+00 0.  1.
     999902    2    1    2    0    0  0.41742017659E-02  0.23602167339E-01 -0.30046030163E-03  0.10199596738E+01  0.10196779686E+01 0.  0.
     999903    2    3    3    0    0  0.22638613256E-01  0.10077505735E+00  0.81263664890E-01  0.13263262247E+00  0.17874851517E-01 0.  0.
         14    1    1    2    0    0 -0.41742017659E-02 -0.23602167339E-01  0.30046030163E-03  0.23970326237E-01  0.00000000000E+00 0. -1.
     999901    1    3    3    0    0 -0.18464411490E-01 -0.77172890012E-01 -0.81564125191E-01  0.88732705130E+00  0.88000000000E+00 0.  1.
        -11    1    4    4    0    0  0.51120539146E-02  0.35587285359E-01  0.18403746746E-01  0.40392412527E-01  0.51100000000E-03 0.  1.
         11    1    4    4    0    0  0.17526559341E-01  0.65187771992E-01  0.62859918144E-01  0.92240209940E-01  0.51100000000E-03 0. -1.
</event>
<event>
 8    1  0.1092667E+005  0.1043930E+01  0.7957747E-01            NaN
         13   -1    0    0    0    0  0.00000000000E+00  0.00000000000E+00  0.74505805969E-08  0.10566000000E+00  0.10566000000E+00 0.  1.
     999900   -1    0    0    0    0 -0.00000000000E+00 -0.00000000000E+00 -0.74505805969E-08  0.93827000000E+00  0.93827000000E+00 0. -1.
     999902    2    1    2    0    0  0.10226326437E-01  0.11152335941E-01  0.18798661749E-01  0.10197982360E+01  0.10195126778E+01 0.  0.
     999903    2    3    3    0    0 -0.18442655067E-01 -0.12727950408E-01 -0.12386812309E+00  0.12752810311E+00  0.20444385959E-01 0.  0.
         14    1    1    2    0    0 -0.10226326437E-01 -0.11152335941E-01 -0.18798661749E-01  0.24131763982E-01  0.00000000000E+00 0. -1.
     999901    1    3    3    0    0  0.28668981504E-01  0.23880286348E-01  0.14266678484E+00  0.89227013290E+00  0.88000000000E+00 0.  1.
        -11    1    4    4    0    0 -0.12758166836E-01  0.21501557800E-02 -0.36743709243E-01  0.38958378827E-01  0.51100000000E-03 0.  1.
         11    1    4    4    0    0 -0.56844882305E-02 -0.14878106188E-01 -0.87124413851E-01  0.88569724286E-01  0.51100000000E-03 0. -1.
</event>
<event>
 8    1  0.1092667E+005  0.1043930E+01  0.7957747E-01            NaN
         13   -1    0    0    0    0  0.00000000000E+00  0.00000000000E+00  0.74505805969E-08  0.10566000000E+00  0.10566000000E+00 0. -1.
     999900   -1    0    0    0    0 -0.00000000000E+00 -0.00000000000E+00 -0.74505805969E-08  0.93827000000E+00  0.93827000000E+00 0.  1.
     999902    2    1    2    0    0  0.32278706516E-02  0.11383245658E-01  0.21249742576E-01  0.10196082198E+01  0.10193180921E+01 0.  0.
     999903    2    3    3    0    0  0.11871857668E+00 -0.48367773969E-01  0.72057203211E-02  0.12994225888E+00  0.19988152226E-01 0.  0.
         14    1    1    2    0    0 -0.32278706516E-02 -0.11383245658E-01 -0.21249742576E-01  0.24321780161E-01  0.00000000000E+00 0.  1.
     999901    1    3    3    0    0 -0.11549070603E+00  0.59751019627E-01  0.14044022255E-01  0.88966596096E+00  0.88000000000E+00 0. -1.
        -11    1    4    4    0    0  0.57944573344E-01 -0.14727393044E-01  0.89496091395E-02  0.60455159504E-01  0.51100000000E-03 0. -1.
         11    1    4    4    0    0  0.60774003339E-01 -0.33640380926E-01 -0.17438888184E-02  0.69487099378E-01  0.51100000000E-03 0.  1.
</event>
<event>
 8    1  0.1092667E+005  0.1043930E+01  0.7957747E-01            NaN
         13   -1    0    0    0    0  0.00000000000E+00  0.00000000000E+00  0.74505805969E-08  0.10566000000E+00  0.10566000000E+00 0. -1.
     999900   -1    0    0    0    0 -0.00000000000E+00 -0.00000000000E+00 -0.74505805969E-08  0.93827000000E+00  0.93827000000E+00 0.  1.
     999902    2    1    2    0    0 -0.19471050341E-01  0.94793027964E-02  0.91854342425E-02  0.10204065822E+01  0.10201354037E+01 0.  0.
     999903    2    3    3    0    0 -0.84306838985E-01 -0.99316449686E-01  0.10438876091E-01  0.13133866220E+00  0.13018209455E-01 0.  0.
         14    1    1    2    0    0  0.19471050341E-01 -0.94793027964E-02 -0.91854342425E-02  0.23523417802E-01  0.00000000000E+00 0. -1.
     999901    1    3    3    0    0  0.64835788644E-01  0.10879575248E+00 -0.12534418488E-02  0.88906791999E+00  0.88000000000E+00 0. -1.
        -11    1    4    4    0    0 -0.53131296549E-01 -0.52820055142E-01  0.48606784825E-02  0.75078493689E-01  0.51100000000E-03 0.  1.
         11    1    4    4    0    0 -0.31175542436E-01 -0.46496394544E-01  0.55781976088E-02  0.56260168514E-01  0.51100000000E-03 0. -1.
</event>
<event>
 8    1  0.1092667E+005  0.1043930E+01  0.7957747E-01            NaN
         13   -1    0    0    0    0  0.00000000000E+00  0.00000000000E+00  0.74505805969E-08  0.10566000000E+00  0.10566000000E+00 0.  1.
     999900   -1    0    0    0    0 -0.00000000000E+00 -0.00000000000E+00 -0.74505805969E-08  0.93827000000E+00  0.93827000000E+00 0. -1.
     999902    2    1    2    0    0  0.19606263092E-01 -0.13935145966E-01  0.28536813238E-02  0.10197073382E+01  0.10194195988E+01 0.  0.
     999903    2    3    3    0    0  0.97306907621E-01  0.71880267765E-01  0.46262241048E-01  0.13106456499E+00  0.20057868406E-01 0.  0.
         14    1    1    2    0    0 -0.19606263092E-01  0.13935145966E-01 -0.28536813238E-02  0.24222661757E-01  0.00000000000E+00 0.  1.
     999901    1    3    3    0    0 -0.77700644530E-01 -0.85815413730E-01 -0.43408559724E-01  0.88864277325E+00  0.88000000000E+00 0. -1.
        -11    1    4    4    0    0  0.29995715804E-01  0.32909627010E-01  0.12345095646E-01  0.46210918883E-01  0.51100000000E-03 0.  1.
         11    1    4    4    0    0  0.67311191818E-01  0.38970640755E-01  0.33917145402E-01  0.84853646109E-01  0.51100000000E-03 0. -1.
</event>
<event>
 8    1  0.1092667E+005  0.1043930E+01  0.7957747E-01            NaN
         13   -1    0    0    0    0  0.00000000000E+00  0.00000000000E+00  0.74505805969E-08  0.10566000000E+00  0.10566000000E+00 0.  1.
     999900   -1    0    0    0    0 -0.00000000000E+00 -0.00000000000E+00 -0.74505805969E-08  0.93827000000E+00  0.93827000000E+00 0. -1.
     999902    2    1    2    0    0 -0.28424996132E-02  0.14865373901E-01  0.19102853936E-01  0.10195583326E+01  0.10192669990E+01 0.  0.
     999903    2    3    3    0    0 -0.10657795315E+00  0.37723478590E-02  0.74518275009E-01  0.13166477563E+00  0.20237320123E-01 0.  0.
         14    1    1    2    0    0  0.28424996132E-02 -0.14865373901E-01 -0.19102853936E-01  0.24371667439E-01  0.00000000000E+00 0. -1.
     999901    1    3    3    0    0  0.10373545353E+00  0.11093026042E-01 -0.55415421074E-01  0.88789355693E+00  0.88000000000E+00 0. -1.
        -11    1    4    4    0    0 -0.19787259694E-01 -0.12317280814E-02  0.23934126466E-01  0.31083055367E-01  0.51100000000E-03 0.  1.
         11    1    4    4    0    0 -0.86790693453E-01  0.50040759403E-02  0.50584148544E-01  0.10058172026E+00  0.51100000000E-03 0. -1.
</event>
<event>
 8    1  0.1092667E+005  0.1043930E+01  0.7957747E-01            NaN
         13   -1    0    0    0    0  0.00000000000E+00  0.00000000000E+00  0.74505805969E-08  0.10566000000E+00  0.10566000000E+00 0. -1.
     999900   -1    0    0    0    0 -0.00000000000E+00 -0.00000000000E+00 -0.74505805969E-08  0.93827000000E+00  0.93827000000E+00 0.  1.
     999902    2    1    2    0    0 -0.14446950065E-01 -0.54799844806E-02 -0.17706778980E-01  0.10204294762E+01  0.10201588314E+01 0.  0.
     999903    2    3    3    0    0 -0.46348038136E-01  0.11965554239E+00  0.13337692203E-01  0.13046299444E+00  0.19419305381E-01 0.  0.
         14    1    1    2    0    0  0.14446950065E-01  0.54799844806E-02  0.17706778980E-01  0.23500523780E-01  0.00000000000E+00 0. -1.
     999901    1    3    3    0    0  0.31901088071E-01 -0.12513552687E+00 -0.31044471182E-01  0.88996648178E+00  0.88000000000E+00 0.  1.
        -11    1    4    4    0    0 -0.28952107441E-01  0.48729552895E-01  0.37713185939E-02  0.56809134965E-01  0.51100000000E-03 0.  1.
         11    1    4    4    0    0 -0.17395930696E-01  0.70925989492E-01  0.95663736087E-02  0.73653859473E-01  0.51100000000E-03 0. -1.
</event>
<event>
 7    1  0.1092667E+005  0.1043930E+01  0.7957747E-01            NaN
         13   -1    0    0    0    0  0.00000000000E+00  0.00000000000E+00  0.74505805969E-08  0.10566000000E+00  0.10566000000E+00 0. -1.
     999900   -1    0    0    0    0 -0.00000000000E+00 -0.00000000000E+00 -0.74505805969E-08  0.93827000000E+00  0.93827000000E+00 0.  1.
     999903    2    1    2    0    0 -0.98848616870E-01 -0.38588084060E-01 -0.51600867885E-01  0.11988420868E+00  0.21201052696E-01 0.  0.
         14    1    1    2    0    0  0.82627158556E-02 -0.32721904107E-02  0.37243871221E-01  0.38289497867E-01  0.00000000000E+00 0. -1.
     999901    1    1    2    0    0  0.90585901014E-01  0.41860274470E-01  0.14356996664E-01  0.88575629345E+00  0.88000000000E+00 0. -1.
        -11    1    3    3    0    0 -0.76017769555E-01 -0.19588380646E-01 -0.37693748919E-01  0.87083211775E-01  0.51100000000E-03 0.  1.
         11    1    3    3    0    0 -0.22830847315E-01 -0.18999703413E-01 -0.13907118966E-01  0.32800996903E-01  0.51100000000E-03 0. -1.
</event>
<event>
 8    1  0.1092667E+005  0.1043930E+01  0.7957747E-01            NaN
         13   -1    0    0    0    0  0.00000000000E+00  0.00000000000E+00  0.74505805969E-08  0.10566000000E+00  0.10566000000E+00 0. -1.
     999900   -1    0    0    0    0 -0.00000000000E+00 -0.00000000000E+00 -0.74505805969E-08  0.93827000000E+00  0.93827000000E+00 0. -1.
     999902    2    1    2    0    0  0.12113931148E-03  0.12664184315E-01  0.20109915528E-01  0.10201643748E+01  0.10198875167E+01 0.  0.
     999903    2    3    3    0    0  0.87793593329E-01  0.53646783220E-01  0.81477050577E-01  0.13273440129E+00  0.19854952399E-01 0.  0.
         14    1    1    2    0    0 -0.12113931148E-03 -0.12664184315E-01 -0.20109915528E-01  0.23765625210E-01  0.00000000000E+00 0.  1.
     999901    1    3    3    0    0 -0.87672454018E-01 -0.40982598905E-01 -0.61367135049E-01  0.88742997350E+00  0.88000000000E+00 0. -1.
        -11    1    4    4    0    0  0.56122087243E-01  0.22846339446E-01  0.47890251085E-01  0.77235880086E-01  0.51100000000E-03 0.  1.
         11    1    4    4    0    0  0.31671506086E-01  0.30800443773E-01  0.33586799493E-01  0.55498521201E-01  0.51100000000E-03 0. -1.
</event>
<event>
 8    1  0.1092667E+005  0.1043930E+01  0.7957747E-01            NaN
         13   -1    0    0    0    0  0.00000000000E+00  0.00000000000E+00  0.74505805969E-08  0.10566000000E+00  0.10566000000E+00 0.  1.
     999900   -1    0    0    0    0 -0.00000000000E+00 -0.00000000000E+00 -0.74505805969E-08  0.93827000000E+00  0.93827000000E+00 0. -1.
     999902    2    1    2    0    0 -0.89577598914E-02  0.15022738113E-01 -0.23353318292E-01  0.10147529268E+01  0.10143333776E+01 0.  0.
     999903    2    3    3    0    0 -0.90029783552E-02  0.11323483112E+00 -0.57871709120E-01  0.12861685571E+00  0.17028806716E-01 0.  0.
         14    1    1    2    0    0  0.89577598914E-02 -0.15022738113E-01  0.23353318292E-01  0.29177073156E-01  0.00000000000E+00 0. -1.
     999901    1    3    3    0    0  0.45218463822E-04 -0.98212093008E-01  0.34518390828E-01  0.88613607113E+00  0.88000000000E+00 0. -1.
        -11    1    4    4    0    0  0.23239151769E-02  0.17946552544E-01 -0.15019839475E-01  0.23523095647E-01  0.51100000000E-03 0. -1.
         11    1    4    4    0    0 -0.11326893532E-01  0.95288278577E-01 -0.42851869645E-01  0.10509376006E+00  0.51100000000E-03 0.  1.
</event>
<event>
 8    1  0.1092667E+005  0.1043930E+01  0.7957747E-01            NaN
         13   -1    0    0    0    0  0.00000000000E+00  0.00000000000E+00  0.74505805969E-08  0.10566000000E+00  0.10566000000E+00 0. -1.
     999900   -1    0    0    0    0 -0.00000000000E+00 -0.00000000000E+00 -0.74505805969E-08  0.93827000000E+00  0.93827000000E+00 0.  1.
     999902    2    1    2    0    0  0.56473827712E-02 -0.19206798206E-02 -0.23386761266E-01  0.10197944962E+01  0.10195088483E+01 0.  0.
     999903    2    3    3    0    0 -0.50766715412E-02 -0.12027623263E+00 -0.48843582187E-01  0.13144147401E+00  0.19975505997E-01 0.  0.
         14    1    1    2    0    0 -0.56473827712E-02  0.19206798206E-02  0.23386761266E-01  0.24135503841E-01  0.00000000000E+00 0. -1.
     999901    1    3    3    0    0  0.10724054312E-01  0.11835555281E+00  0.25456820920E-01  0.88835302214E+00  0.88000000000E+00 0.  1.
        -11    1    4    4    0    0 -0.16583465903E-03 -0.49327544670E-01 -0.30484996987E-01  0.57989915732E-01  0.51100000000E-03 0. -1.
         11    1    4    4    0    0 -0.49108368822E-02 -0.70948687963E-01 -0.18358585200E-01  0.73451558282E-01  0.51100000000E-03 0.  1.
</event>
<event>
 8    1  0.1092667E+005  0.1043930E+01  0.7957747E-01            NaN
         13   -1    0    0    0    0  0.00000000000E+00  0.00000000000E+00  0.74505805969E-08  0.10566000000E+00  0.10566000000E+00 0.  1.
     999900   -1    0    0    0    0 -0.00000000000E+00 -0.00000000000E+00 -0.74505805969E-08  0.93827000000E+00  0.93827000000E+00 0. -1.
     999902    2    1    2    0    0  0.17702852771E-01  0.12787520672E-01  0.10920525305E-01  0.10195134164E+01  0.10192209950E+01 0.  0.
     999903    2    3    3    0    0  0.73815307942E-01 -0.48929236305E-01  0.95520124201E-01  0.13152993805E+00  0.18255427226E-01 0.  0.
         14    1    1    2    0    0 -0.17702852771E-01 -0.12787520672E-01 -0.10920525305E-01  0.24416583588E-01  0.00000000000E+00 0. -1.
     999901    1    3    3    0    0 -0.56112455172E-01  0.61716756977E-01 -0.84599598896E-01  0.88798347837E+00  0.88000000000E+00 0. -1.
        -11    1    4    4    0    0  0.51312831837E-01 -0.24254015602E-01  0.64913611263E-01  0.86228197430E-01  0.51100000000E-03 0. -1.
         11    1    4    4    0    0  0.22502476106E-01 -0.24675220703E-01  0.30606512937E-01  0.45301740616E-01  0.51100000000E-03 0.  1.
</event>
<event>
 8    1  0.1092667E+005  0.1043930E+01  0.7957747E-01            NaN
         13   -1    0    0    0    0  0.00000000000E+00  0.00000000000E+00  0.74505805969E-08  0.10566000000E+00  0.10566000000E+00 0.  1.
     999900   -1    0    0    0    0 -0.00000000000E+00 -0.00000000000E+00 -0.74505805969E-08  0.93827000000E+00  0.93827000000E+00 0. -1.
     999902    2    1    2    0    0 -0.21066790521E-01 -0.94450398116E-02  0.48354123931E-02  0.10203418747E+01  0.10200691848E+01 0.  0.
     999903    2    3    3    0    0  0.12375344405E+00 -0.14344804227E-01  0.22336103072E-01  0.12831991190E+00  0.21128416123E-01 0.  0.
         14    1    1    2    0    0  0.21066790521E-01  0.94450398116E-02 -0.48354123931E-02  0.23588125252E-01  0.00000000000E+00 0.  1.
     999901    1    3    3    0    0 -0.14482023457E+00  0.48997644157E-02 -0.17500690679E-01  0.89202196285E+00  0.88000000000E+00 0.  1.
        -11    1    4    4    0    0  0.78410646361E-01 -0.33588672492E-02  0.53490083380E-02  0.78666285429E-01  0.51100000000E-03 0.  1.
         11    1    4    4    0    0  0.45342797684E-01 -0.10985936978E-01  0.16987094734E-01  0.49653626470E-01  0.51100000000E-03 0. -1.
</event>
<event>
 8    1  0.1092667E+005  0.1043930E+01  0.7957747E-01            NaN
         13   -1    0    0    0    0  0.00000000000E+00  0.00000000000E+00  0.74505805969E-08  0.10566000000E+00  0.10566000000E+00 0. -1.
     999900   -1    0    0    0    0 -0.00000000000E+00 -0.00000000000E+00 -0.74505805969E-08  0.93827000000E+00  0.93827000000E+00 0. -1.
     999902    2    1    2    0    0 -0.19653151279E-01  0.81018588843E-02  0.18651258144E-01  0.10156500441E+01  0.10152562515E+01 0.  0.
     999903    2    3    3    0    0  0.16491770559E-01  0.10636682464E+00 -0.61827857989E-01  0.12579649047E+00  0.20400811507E-01 0.  0.
         14    1    1    2    0    0  0.19653151279E-01 -0.81018588843E-02 -0.18651258144E-01  0.28279955851E-01  0.00000000000E+00 0.  1.
     999901    1    3    3    0    0 -0.36144921838E-01 -0.98264965755E-01  0.80479116132E-01  0.88985355368E+00  0.88000000000E+00 0.  1.
        -11    1    4    4    0    0 -0.17210042766E-03  0.45830285972E-01 -0.18088997899E-01  0.49273904826E-01  0.51100000000E-03 0. -1.
         11    1    4    4    0    0  0.16663870987E-01  0.60536538667E-01 -0.43738860090E-01  0.76522585640E-01  0.51100000000E-03 0.  1.
</event>
<event>
 8    1  0.1092667E+005  0.1043930E+01  0.7957747E-01            NaN
         13   -1    0    0    0    0  0.00000000000E+00  0.00000000000E+00  0.74505805969E-08  0.10566000000E+00  0.10566000000E+00 0.  1.
     999900   -1    0    0    0    0 -0.00000000000E+00 -0.00000000000E+00 -0.74505805969E-08  0.93827000000E+00  0.93827000000E+00 0.  1.
     999902    2    1    2    0    0  0.13119155778E-01  0.11396076886E-01  0.17212307620E-01  0.10194709250E+01  0.10191774725E+01 0.  0.
     999903    2    3    3    0    0 -0.88359905474E-01  0.25245551788E-01 -0.86152319438E-01  0.12752134460E+00  0.19866061619E-01 0.  0.
         14    1    1    2    0    0 -0.13119155778E-01 -0.11396076886E-01 -0.17212307620E-01  0.24459075010E-01  0.00000000000E+00 0. -1.
     999901    1    3    3    0    0  0.10147906125E+00 -0.13849474902E-01  0.10336462706E+00  0.89194958039E+00  0.88000000000E+00 0. -1.
        -11    1    4    4    0    0 -0.36945189823E-01  0.18749616787E-01 -0.46387706566E-01  0.62197874740E-01  0.51100000000E-03 0.  1.
         11    1    4    4    0    0 -0.51414715651E-01  0.64959350009E-02 -0.39764612871E-01  0.65323469862E-01  0.51100000000E-03 0. -1.
</event>
<event>
 8    1  0.1092667E+005  0.1043930E+01  0.7957747E-01            NaN
         13   -1    0    0    0    0  0.00000000000E+00  0.00000000000E+00  0.74505805969E-08  0.10566000000E+00  0.10566000000E+00 0. -1.
     999900   -1    0    0    0    0 -0.00000000000E+00 -0.00000000000E+00 -0.74505805969E-08  0.93827000000E+00  0.93827000000E+00 0.  1.
     999902    2    1    2    0    0  0.22572518227E-02 -0.55138199569E-02  0.20075122688E-01  0.10229894187E+01  0.10227750695E+01 0.  0.
     999903    2    3    3    0    0 -0.45349178219E-01 -0.12273347125E+00  0.19669881090E-01  0.13394106054E+00  0.20814671413E-01 0.  0.
         14    1    1    2    0    0 -0.22572518227E-02  0.55138199569E-02 -0.20075122688E-01  0.20940581350E-01  0.00000000000E+00 0.  1.
     999901    1    3    3    0    0  0.47606430042E-01  0.11721965130E+00  0.40524159868E-03  0.88904835811E+00  0.88000000000E+00 0. -1.
        -11    1    4    4    0    0 -0.88995633283E-02 -0.32756373163E-01 -0.35174797781E-02  0.34129400745E-01  0.51100000000E-03 0. -1.
         11    1    4    4    0    0 -0.36449614891E-01 -0.89977098091E-01  0.23187360868E-01  0.99811659798E-01  0.51100000000E-03 0.  1.
</event>
<event>
 8    1  0.1092667E+005  0.1043930E+01  0.7957747E-01            NaN
         13   -1    0    0    0    0  0.00000000000E+00  0.00000000000E+00  0.74505805969E-08  0.10566000000E+00  0.10566000000E+00 0. -1.
     999900   -1    0    0    0    0 -0.00000000000E+00 -0.00000000000E+00 -0.74505805969E-08  0.93827000000E+00  0.93827000000E+00 0. -1.
     999902    2    1    2    0    0 -0.74172020276E-03 -0.74788664387E-02 -0.21953918744E-01  0.10207252992E+01  0.10204615026E+01 0.  0.
     999903    2    3    3    0    0  0.83122078671E-02  0.71422137260E-01 -0.10994700193E+00  0.13277815847E+00  0.19273859093E-01 0.  0.
         14    1    1    2    0    0  0.74172020276E-03  0.74788664387E-02  0.21953918744E-01  0.23204700823E-01  0.00000000000E+00 0. -1.
     999901    1    3    3    0    0 -0.90539280699E-02 -0.78901003698E-01  0.87993083181E-01  0.88794714070E+00  0.88000000000E+00 0.  1.
        -11    1    4    4    0    0 -0.52787372700E-02  0.37413621375E-01 -0.57640958230E-01  0.68923039096E-01  0.51100000000E-03 0. -1.
         11    1    4    4    0    0  0.13590945137E-01  0.34008515885E-01 -0.52306043696E-01  0.63855119376E-01  0.51100000000E-03 0.  1.
</event>
<event>
 8    1  0.1092667E+005  0.1043930E+01  0.7957747E-01            NaN
         13   -1    0    0    0    0  0.00000000000E+00  0.00000000000E+00  0.74505805969E-08  0.10566000000E+00  0.10566000000E+00 0. -1.
     999900   -1    0    0    0    0 -0.00000000000E+00 -0.00000000000E+00 -0.74505805969E-08  0.93827000000E+00  0.93827000000E+00 0. -1.
     999902    2    1    2    0    0 -0.15612779891E-02  0.16931329999E-01 -0.16274805786E-01  0.10203932877E+01  0.10201217989E+01 0.  0.
     999903    2    3    3    0    0 -0.12933986518E+00  0.61715806373E-02 -0.17664732695E-03  0.13095397536E+00  0.19545417004E-01 0.  0.
         14    1    1    2    0    0  0.15612779891E-02 -0.16931329999E-01  0.16274805786E-01  0.23536712342E-01  0.00000000000E+00 0. -1.
     999901    1    3    3    0    0  0.12777858719E+00  0.10759749362E-01 -0.16098158459E-01  0.88943931230E+00  0.88000000000E+00 0. -1.
        -11    1    4    4    0    0 -0.43001591518E-01 -0.67056811086E-02 -0.28577416522E-02  0.43618010507E-01  0.51100000000E-03 0.  1.
         11    1    4    4    0    0 -0.86338273664E-01  0.12877261746E-01  0.26810943253E-02  0.87335964855E-01  0.51100000000E-03 0. -1.
</event>
<event>
 8    1  0.1092667E+005  0.1043930E+01  0.7957747E-01            NaN
         13   -1    0    0    0    0  0.00000000000E+00  0.00000000000E+00  0.74505805969E-08  0.10566000000E+00  0.10566000000E+00 0. -1.
     999900   -1    0    0    0    0 -0.00000000000E+00 -0.00000000000E+00 -0.74505805969E-08  0.93827000000E+00  0.93827000000E+00 0. -1.
     999902    2    1    2    0    0 -0.15555107748E-01 -0.22347473423E-01 -0.57150095333E-02  0.10161085644E+01  0.10157276123E+01 0.  0.
     999903    2    3    3    0    0 -0.12273190478E+00  0.86692443355E-02  0.29935150379E-01  0.12834742731E+00  0.20944512889E-01 0.  0.
         14    1    1    2    0    0  0.15555107748E-01  0.22347473423E-01  0.57150095333E-02  0.27821435610E-01  0.00000000000E+00 0.  1.
     999901    1    3    3    0    0  0.10717679704E+00 -0.31016717758E-01 -0.35650159913E-01  0.88776113708E+00  0.88000000000E+00 0.  1.
        -11    1    4    4    0    0 -0.50301410942E-01  0.13134057218E-01  0.85201213278E-02  0.52683858915E-01  0.51100000000E-03 0.  1.
         11    1    4    4    0    0 -0.72430493842E-01 -0.44648128824E-02  0.21415029051E-01  0.75663568397E-01  0.51100000000E-03 0. -1.
</event>
<event>
 8    1  0.1092667E+005  0.1043930E+01  0.7957747E-01            NaN
         13   -1    0    0    0    0  0.00000000000E+00  0.00000000000E+00  0.74505805969E-08  0.10566000000E+00  0.10566000000E+00 0. -1.
     999900   -1    0    0    0    0 -0.00000000000E+00 -0.00000000000E+00 -0.74505805969E-08  0.93827000000E+00  0.93827000000E+00 0.  1.
     999902    2    1    2    0    0 -0.67065277397E-02 -0.13077498127E-02  0.22210613663E-01  0.10206921196E+01  0.10204275594E+01 0.  0.
     999903    2    3    3    0    0 -0.60024114095E-01  0.42723429390E-01  0.10989941685E+00  0.13363471679E+00  0.18766193478E-01 0.  0.
         14    1    1    2    0    0  0.67065277397E-02  0.13077498127E-02 -0.22210613663E-01  0.23237880351E-01  0.00000000000E+00 0.  1.
     999901    1    3    3    0    0  0.53317586356E-01 -0.44031179202E-01 -0.87688803184E-01  0.88705740286E+00  0.88000000000E+00 0.  1.
        -11    1    4    4    0    0 -0.20162329611E-01  0.93112774286E-02  0.47213379803E-01  0.52178384185E-01  0.51100000000E-03 0. -1.
         11    1    4    4    0    0 -0.39861784484E-01  0.33412151961E-01  0.62686037043E-01  0.81456332609E-01  0.51100000000E-03 0.  1.
</event>
<event>
 8    1  0.1092667E+005  0.1043930E+01  0.7957747E-01            NaN
         13   -1    0    0    0    0  0.00000000000E+00  0.00000000000E+00  0.74505805969E-08  0.10566000000E+00  0.10566000000E+00 0. -1.
     999900   -1    0    0    0    0 -0.00000000000E+00 -0.00000000000E+00 -0.74505805969E-08  0.93827000000E+00  0.93827000000E+00 0.  1.
     999902    2    1    2    0    0 -0.84550525241E-02 -0.13195770356E-01  0.17728248884E-01  0.10202676443E+01  0.10199932151E+01 0.  0.
     999903    2    3    3    0    0 -0.93114687417E-01  0.49929023947E-01 -0.71820721862E-01  0.12944161662E+00  0.20824590757E-01 0.  0.
         14    1    1    2    0    0  0.84550525241E-02  0.13195770356E-01 -0.17728248884E-01  0.23662355694E-01  0.00000000000E+00 0.  1.
     999901    1    3    3    0    0  0.84659634893E-01 -0.63124794304E-01  0.89548970746E-01  0.89082602768E+00  0.88000000000E+00 0. -1.
        -11    1    4    4    0    0 -0.77240171346E-01  0.31960422321E-01 -0.58248635851E-01  0.10188560921E+00  0.51100000000E-03 0.  1.
         11    1    4    4    0    0 -0.15874516070E-01  0.17968601627E-01 -0.13572086011E-01  0.27556007414E-01  0.51100000000E-03 0. -1.
</event>
<event>
 8    1  0.1092667E+005  0.1043930E+01  0.7957747E-01            NaN
         13   -1    0    0    0    0  0.00000000000E+00  0.00000000000E+00  0.74505805969E-08  0.10566000000E+00  0.10566000000E+00 0.  1.
     999900   -1    0    0    0    0 -0.00000000000E+00 -0.00000000000E+00 -0.74505805969E-08  0.93827000000E+00  0.93827000000E+00 0.  1.
     999902    2    1    2    0    0 -0.10683357244E-01 -0.18758089993E-01 -0.10568206175E-01  0.10198948789E+01  0.10196116305E+01 0.  0.
     999903    2    3    3    0    0 -0.65473851955E-02  0.32324683258E-01  0.12241595614E+00  0.12842903921E+00  0.20508495711E-01 0.  0.
         14    1    1    2    0    0  0.10683357244E-01  0.18758089993E-01  0.10568206175E-01  0.24035121051E-01  0.00000000000E+00 0.  1.
     999901    1    3    3    0    0 -0.41359720481E-02 -0.51082773251E-01 -0.13298416231E+00  0.89146583973E+00  0.88000000000E+00 0.  1.
        -11    1    4    4    0    0 -0.56026557409E-02  0.17685824924E-01  0.33390343559E-01  0.38201496287E-01  0.51100000000E-03 0. -1.
         11    1    4    4    0    0 -0.94472945457E-03  0.14638858334E-01  0.89025612577E-01  0.90227542927E-01  0.51100000000E-03 0.  1.
</event>
<event>
 8    1  0.1092667E+005  0.1043930E+01  0.7957747E-01            NaN
         13   -1    0    0    0    0  0.00000000000E+00  0.00000000000E+00  0.74505805969E-08  0.10566000000E+00  0.10566000000E+00 0. -1.
     999900   -1    0    0    0    0 -0.00000000000E+00 -0.00000000000E+00 -0.74505805969E-08  0.93827000000E+00  0.93827000000E+00 0. -1.
     999902    2    1    2    0    0  0.50862713972E-02 -0.21201379776E-01 -0.10520378948E-01  0.10197215917E+01  0.10194341948E+01 0.  0.
     999903    2    3    3    0    0 -0.12524515664E+00  0.15515753686E-01 -0.12291966900E-01  0.12936347969E+00  0.25626735130E-01 0.  0.
         14    1    1    2    0    0 -0.50862713972E-02  0.21201379776E-01  0.10520378948E-01  0.24208408340E-01  0.00000000000E+00 0. -1.
     999901    1    3    3    0    0  0.13033142804E+00 -0.36717133463E-01  0.17715879517E-02  0.89035811197E+00  0.88000000000E+00 0. -1.
        -11    1    4    4    0    0 -0.10355687146E+00  0.42084131770E-02 -0.47072016998E-02  0.10375044692E+00  0.51100000000E-03 0.  1.
         11    1    4    4    0    0 -0.21688285183E-01  0.11307340509E-01 -0.75847651999E-02  0.25613032770E-01  0.51100000000E-03 0. -1.
</event>
<event>
 8    1  0.1092667E+005  0.1043930E+01  0.7957747E-01            NaN
         13   -1    0    0    0    0  0.00000000000E+00  0.00000000000E+00  0.74505805969E-08  0.10566000000E+00  0.10566000000E+00 0.  1.
     999900   -1    0    0    0    0 -0.00000000000E+00 -0.00000000000E+00 -0.74505805969E-08  0.93827000000E+00  0.93827000000E+00 0.  1.
     999902    2    1    2    0    0  0.42745673770E-02 -0.23532495482E-01  0.26515671060E-02  0.10198658965E+01  0.10195819564E+01 0.  0.
     999903    2    3    3    0    0  0.15404615312E-01  0.36062009526E-01  0.12214004459E+00  0.12972384083E+00  0.19295431700E-01 0.  0.
         14    1    1    2    0    0 -0.42745673770E-02  0.23532495482E-01 -0.26515671060E-02  0.24064103515E-01  0.00000000000E+00 0.  1.
     999901    1    3    3    0    0 -0.11130047935E-01 -0.59594505008E-01 -0.11948847748E+00  0.89014205565E+00  0.88000000000E+00 0.  1.
        -11    1    4    4    0    0  0.13232229835E-01  0.19397920230E-01  0.94474144301E-01  0.97349865321E-01  0.51100000000E-03 0. -1.
         11    1    4    4    0    0  0.21723854769E-02  0.16664089296E-01  0.27665900284E-01  0.32373975509E-01  0.51100000000E-03 0.  1.
</event>
<event>
 8    1  0.1092667E+005  0.1043930E+01  0.7957747E-01            NaN
         13   -1    0    0    0    0  0.00000000000E+00  0.00000000000E+00  0.74505805969E-08  0.10566000000E+00  0.10566000000E+00 0. -1.
     999900   -1    0    0    0    0 -0.00000000000E+00 -0.00000000000E+00 -0.74505805969E-08  0.93827000000E+00  0.93827000000E+00 0.  1.
     999902    2    1    2    0    0 -0.18553142632E-01  0.84580965956E-02  0.17508231637E-01  0.10170544223E+01  0.10166992679E+01 0.  0.
     999903    2    3    3    0    0 -0.12081406595E+00  0.19109250890E-01 -0.37364198713E-01  0.12937107388E+00  0.19483054433E-01 0.  0.
         14    1    1    2    0    0  0.18553142632E-01 -0.84580965956E-02 -0.17508231637E-01  0.26875577661E-01  0.00000000000E+00 0.  1.
     999901    1    3    3    0    0  0.10226092332E+00 -0.10651154295E-01  0.54872430350E-01  0.88768334846E+00  0.88000000000E+00 0. -1.
        -11    1    4    4    0    0 -0.61566506429E-01  0.17067597326E-01 -0.12596360643E-01  0.65120403982E-01  0.51100000000E-03 0. -1.
         11    1    4    4    0    0 -0.59247559519E-01  0.20416535647E-02 -0.24767838070E-01  0.64250669894E-01  0.51100000000E-03 0.  1.
</event>
<event>
 8    1  0.1092667E+005  0.1043930E+01  0.7957747E-01            NaN
         13   -1    0    0    0    0  0.00000000000E+00  0.00000000000E+00  0.74505805969E-08  0.10566000000E+00  0.10566000000E+00 0. -1.
     999900   -1    0    0    0    0 -0.00000000000E+00 -0.00000000000E+00 -0.74505805969E-08  0.93827000000E+00  0.93827000000E+00 0. -1.
     999902    2    1    2    0    0 -0.20854904988E-02  0.50024094263E-02 -0.21946213052E-01  0.10213244777E+01  0.10210742770E+01 0.  0.
     999903    2    3    3    0    0  0.10605642353E+00  0.86126633645E-03 -0.77767967903E-01  0.13293948743E+00  0.19399580803E-01 0.  0.
         14    1    1    2    0    0  0.20854904988E-02 -0.50024094263E-02  0.21946213052E-01  0.22605522291E-01  0.00000000000E+00 0. -1.
     999901    1    3    3    0    0 -0.10814191403E+00  0.41411430899E-02  0.55821754850E-01  0.88838499028E+00  0.88000000000E+00 0. -1.
        -11    1    4    4    0    0  0.65323094642E-01 -0.74561324131E-02 -0.53751155417E-01  0.84924368904E-01  0.51100000000E-03 0.  1.
         11    1    4    4    0    0  0.40733328888E-01  0.83173987495E-02 -0.24016812486E-01  0.48015118527E-01  0.51100000000E-03 0. -1.
</event>
<event>
 8    1  0.1092667E+005  0.1043930E+01  0.7957747E-01            NaN
         13   -1    0    0    0    0  0.00000000000E+00  0.00000000000E+00  0.74505805969E-08  0.10566000000E+00  0.10566000000E+00 0. -1.
     999900   -1    0    0    0    0 -0.00000000000E+00 -0.00000000000E+00 -0.74505805969E-08  0.93827000000E+00  0.93827000000E+00 0.  1.
     999902    2    1    2    0    0  0.23318170314E-02 -0.11417144168E-01 -0.20343831563E-01  0.10204851704E+01  0.10202158218E+01 0.  0.
     999903    2    3    3    0    0  0.69635510252E-01  0.40338781570E-01 -0.10334350086E+00  0.13251140500E+00  0.20076645568E-01 0.  0.
         14    1    1    2    0    0 -0.23318170314E-02  0.11417144168E-01  0.20343831563E-01  0.23444829585E-01  0.00000000000E+00 0.  1.
     999901    1    3    3    0    0 -0.67303693221E-01 -0.51755925737E-01  0.82999669296E-01  0.88797376542E+00  0.88000000000E+00 0. -1.
        -11    1    4    4    0    0  0.48268246746E-01  0.17504425374E-01 -0.69757258188E-01  0.86617346660E-01  0.51100000000E-03 0.  1.
         11    1    4    4    0    0  0.21367263506E-01  0.22834356196E-01 -0.33586242671E-01  0.45894058335E-01  0.51100000000E-03 0. -1.
</event>
<event>
 8    1  0.1092667E+005  0.1043930E+01  0.7957747E-01            NaN
         13   -1    0    0    0    0  0.00000000000E+00  0.00000000000E+00  0.74505805969E-08  0.10566000000E+00  0.10566000000E+00 0.  1.
     999900   -1    0    0    0    0 -0.00000000000E+00 -0.00000000000E+00 -0.74505805969E-08  0.93827000000E+00  0.93827000000E+00 0. -1.
     999902    2    1    2    0    0  0.99744999754E-02  0.15182710953E-02  0.27914127819E-01  0.10142484514E+01  0.10138140494E+01 0.  0.
     999903    2    3    3    0    0 -0.37217017431E-01 -0.49960886445E-01 -0.10276153138E+00  0.12186217241E+00  0.20230179722E-01 0.  0.
         14    1    1    2    0    0 -0.99744999754E-02 -0.15182710953E-02 -0.27914127819E-01  0.29681548625E-01  0.00000000000E+00 0. -1.
     999901    1    3    3    0    0  0.47191517406E-01  0.51479157541E-01  0.13067565920E+00  0.89238627896E+00  0.88000000000E+00 0.  1.
        -11    1    4    4    0    0 -0.15001129815E-01 -0.18236485072E-01 -0.58257886795E-01  0.62863707958E-01  0.51100000000E-03 0.  1.
         11    1    4    4    0    0 -0.22215887616E-01 -0.31724401373E-01 -0.44503644588E-01  0.58998464452E-01  0.51100000000E-03 0. -1.
</event>
<event>
 8    1  0.1092667E+005  0.1043930E+01  0.7957747E-01            NaN
         13   -1    0    0    0    0  0.00000000000E+00  0.00000000000E+00  0.74505805969E-08  0.10566000000E+00  0.10566000000E+00 0.  1.
     999900   -1    0    0    0    0 -0.00000000000E+00 -0.00000000000E+00 -0.74505805969E-08  0.93827000000E+00  0.93827000000E+00 0. -1.
     999902    2    1    2    0    0 -0.10916941434E-01  0.96439077285E-02 -0.19167755373E-01  0.10198553782E+01  0.10195711869E+01 0.  0.
     999903    2    3    3    0    0  0.12069524706E-01  0.95415874747E-01  0.84209788681E-01  0.12936555542E+00  0.19856883892E-01 0.  0.
         14    1    1    2    0    0  0.10916941434E-01 -0.96439077285E-02  0.19167755373E-01  0.24074621753E-01  0.00000000000E+00 0.  1.
     999901    1    3    3    0    0 -0.22986466140E-01 -0.85771967018E-01 -0.10337754405E+00  0.89048982283E+00  0.88000000000E+00 0. -1.
        -11    1    4    4    0    0 -0.23533630387E-02  0.51909939374E-01  0.50554995000E-01  0.72499991474E-01  0.51100000000E-03 0. -1.
         11    1    4    4    0    0  0.14422887745E-01  0.43505935373E-01  0.33654793681E-01  0.56865563941E-01  0.51100000000E-03 0.  1.
</event>
<event>
 8    1  0.1092667E+005  0.1043930E+01  0.7957747E-01            NaN
         13   -1    0    0    0    0  0.00000000000E+00  0.00000000000E+00  0.74505805969E-08  0.10566000000E+00  0.10566000000E+00 0. -1.
     999900   -1    0    0    0    0 -0.00000000000E+00 -0.00000000000E+00 -0.74505805969E-08  0.93827000000E+00  0.93827000000E+00 0. -1.
     999902    2    1    2    0    0 -0.69891046797E-02 -0.22489406617E-01  0.13768062287E-02  0.10203393962E+01  0.10200666482E+01 0.  0.
     999903    2    3    3    0    0  0.27549196997E-01  0.24846338186E-01  0.12301936820E+00  0.13004142362E+00  0.20017695372E-01 0.  0.
         14    1    1    2    0    0  0.69891046797E-02  0.22489406617E-01 -0.13768062287E-02  0.23590603841E-01  0.00000000000E+00 0.  1.
     999901    1    3    3    0    0 -0.34538301677E-01 -0.47335744802E-01 -0.12164256198E+00  0.89029797254E+00  0.88000000000E+00 0. -1.
        -11    1    4    4    0    0  0.23470918452E-02  0.13874194513E-01  0.52420932199E-01  0.54279069328E-01  0.51100000000E-03 0.  1.
         11    1    4    4    0    0  0.25202105152E-01  0.10972143673E-01  0.70598436005E-01  0.75762354295E-01  0.51100000000E-03 0. -1.
</event>
<event>
 8    1  0.1092667E+005  0.1043930E+01  0.7957747E-01            NaN
         13   -1    0    0    0    0  0.00000000000E+00  0.00000000000E+00  0.74505805969E-08  0.10566000000E+00  0.10566000000E+00 0. -1.
     999900   -1    0    0    0    0 -0.00000000000E+00 -0.00000000000E+00 -0.74505805969E-08  0.93827000000E+00  0.93827000000E+00 0.  1.
     999902    2    1    2    0    0  0.37701148825E-02  0.10634598562E-01 -0.22662516277E-01  0.10186140347E+01  0.10182993929E+01 0.  0.
     999903    2    3    3    0    0  0.11561106372E+00  0.95332003922E-02  0.51398640999E-01  0.12844850748E+00  0.20009967865E-01 0.  0.
         14    1    1    2    0    0 -0.37701148825E-02 -0.10634598562E-01  0.22662516277E-01  0.25315965255E-01  0.00000000000E+00 0. -1.
     999901    1    3    3    0    0 -0.11184094883E+00  0.11013981698E-02 -0.74061157276E-01  0.89016552726E+00  0.88000000000E+00 0. -1.
        -11    1    4    4    0    0  0.44079926844E-01  0.12712137341E-01  0.24042921505E-01  0.51797312496E-01  0.51100000000E-03 0.  1.
         11    1    4    4    0    0  0.71531136873E-01 -0.31789369492E-02  0.27355719494E-01  0.76651194984E-01  0.51100000000E-03 0. -1.
</event>
<event>
 8    1  0.1092667E+005  0.1043930E+01  0.7957747E-01            NaN
         13   -1    0    0    0    0  0.00000000000E+00  0.00000000000E+00  0.74505805969E-08  0.10566000000E+00  0.10566000000E+00 0. -1.
     999900   -1    0    0    0    0 -0.00000000000E+00 -0.00000000000E+00 -0.74505805969E-08  0.93827000000E+00  0.93827000000E+00 0. -1.
     999902    2    1    2    0    0  0.21388137494E-01 -0.29081268357E-02  0.69330846564E-02  0.10212589328E+01  0.10210072627E+01 0.  0.
     999903    2    3    3    0    0  0.10964034917E-02 -0.13004447893E+00 -0.93512224102E-02  0.13174188112E+00  0.18860256581E-01 0.  0.
         14    1    1    2    0    0 -0.21388137494E-01  0.29081268357E-02 -0.69330846564E-02  0.22671067245E-01  0.00000000000E+00 0. -1.
     999901    1    3    3    0    0  0.20291734002E-01  0.12713635210E+00  0.16284307067E-01  0.88951705164E+00  0.88000000000E+00 0. -1.
        -11    1    4    4    0    0  0.76231785928E-02 -0.46114918076E-01  0.20520123475E-02  0.46788571219E-01  0.51100000000E-03 0.  1.
         11    1    4    4    0    0 -0.65267751011E-02 -0.83929560859E-01 -0.11403234758E-01  0.84953309901E-01  0.51100000000E-03 0. -1.
</event>
<event>
 8    1  0.1092667E+005  0.1043930E+01  0.7957747E-01            NaN
         13   -1    0    0    0    0  0.00000000000E+00  0.00000000000E+00  0.74505805969E-08  0.10566000000E+00  0.10566000000E+00 0.  1.
     999900   -1    0    0    0    0 -0.00000000000E+00 -0.00000000000E+00 -0.74505805969E-08  0.93827000000E+00  0.93827000000E+00 0.  1.
     999902    2    1    2    0    0  0.11634459133E-01 -0.15919966433E-02 -0.19497479729E-01  0.10211693583E+01  0.10209156731E+01 0.  0.
     999903    2    3    3    0    0 -0.37009510040E-01  0.30968059396E-01  0.11741557832E+00  0.12866077102E+00  0.20939231883E-01 0.  0.
         14    1    1    2    0    0 -0.11634459133E-01  0.15919966433E-02  0.19497479729E-01  0.22760641652E-01  0.00000000000E+00 0.  1.
     999901    1    3    3    0    0  0.48643969174E-01 -0.32560056040E-01 -0.13691305805E+00  0.89250858733E+00  0.88000000000E+00 0.  1.
        -11    1    4    4    0    0 -0.30462955991E-01  0.13864212275E-01  0.64592261998E-01  0.72750460484E-01  0.51100000000E-03 0.  1.
         11    1    4    4    0    0 -0.65465540498E-02  0.17103847121E-01  0.52823316322E-01  0.55910310538E-01  0.51100000000E-03 0. -1.
</event>
<event>
 8    1  0.1092667E+005  0.1043930E+01  0.7957747E-01            NaN
         13   -1    0    0    0    0  0.00000000000E+00  0.00000000000E+00  0.74505805969E-08  0.10566000000E+00  0.10566000000E+00 0.  1.
     999900   -1    0    0    0    0 -0.00000000000E+00 -0.00000000000E+00 -0.74505805969E-08  0.93827000000E+00  0.93827000000E+00 0. -1.
     999902    2    1    2    0    0  0.14143488069E-01  0.96267384135E-02 -0.18113521813E-01  0.10190139004E+01  0.10187092407E+01 0.  0.
     999903    2    3    3    0    0  0.12926444791E+00 -0.94916564547E-02 -0.52587561164E-02  0.13121685522E+00  0.19769156341E-01 0.  0.
         14    1    1    2    0    0 -0.14143488069E-01 -0.96267384135E-02  0.18113521813E-01  0.24916099609E-01  0.00000000000E+00 0.  1.
     999901    1    3    3    0    0 -0.11512095984E+00  0.19118394868E-01 -0.12854765697E-01  0.88779704517E+00  0.88000000000E+00 0. -1.
        -11    1    4    4    0    0  0.96758122811E-01 -0.77442206059E-02  0.46644951531E-02  0.97180892766E-01  0.51100000000E-03 0. -1.
         11    1    4    4    0    0  0.32506325096E-01 -0.17474358488E-02 -0.99232512696E-02  0.34035962452E-01  0.51100000000E-03 0.  1.
</event>
<event>
 8    1  0.1092667E+005  0.1043930E+01  0.7957747E-01            NaN
         13   -1    0    0    0    0  0.00000000000E+00  0.00000000000E+00  0.74505805969E-08  0.10566000000E+00  0.10566000000E+00 0. -1.
     999900   -1    0    0    0    0 -0.00000000000E+00 -0.00000000000E+00 -0.74505805969E-08  0.93827000000E+00  0.93827000000E+00 0. -1.
     999902    2    1    2    0    0  0.10591988333E-01  0.92310690546E-02 -0.29234255163E-01  0.10114947641E+01  0.10109745859E+01 0.  0.
     999903    2    3    3    0    0  0.22475582567E-01  0.78161397496E-01  0.87241504895E-01  0.12106834228E+00  0.20787194544E-01 0.  0.
         14    1    1    2    0    0 -0.10591988333E-01 -0.92310690546E-02  0.29234255163E-01  0.32435235897E-01  0.00000000000E+00 0. -1.
     999901    1    3    3    0    0 -0.11883594234E-01 -0.68930328441E-01 -0.11647576006E+00  0.89042642182E+00  0.88000000000E+00 0. -1.
        -11    1    4    4    0    0  0.22188236755E-01  0.41682851926E-01  0.53691117211E-01  0.71503672517E-01  0.51100000000E-03 0.  1.
         11    1    4    4    0    0  0.28734581232E-03  0.36478545570E-01  0.33550387683E-01  0.49564669768E-01  0.51100000000E-03 0. -1.
</event>
<event>
 8    1  0.1092667E+005  0.1043930E+01  0.7957747E-01            NaN
         13   -1    0    0    0    0  0.00000000000E+00  0.00000000000E+00  0.74505805969E-08  0.10566000000E+00  0.10566000000E+00 0.  1.
     999900   -1    0    0    0    0 -0.00000000000E+00 -0.00000000000E+00 -0.74505805969E-08  0.93827000000E+00  0.93827000000E+00 0. -1.
     999902    2    1    2    0    0  0.20845239407E-01 -0.19205807993E-02  0.10172827421E-01  0.10206555708E+01  0.10203901681E+01 0.  0.
     999903    2    3    3    0    0 -0.12619185660E+00  0.16251520980E-01 -0.55659423361E-02  0.12813227041E+00  0.14085538655E-01 0.  0.
         14    1    1    2    0    0 -0.20845239407E-01  0.19205807993E-02 -0.10172827421E-01  0.23274429194E-01  0.00000000000E+00 0.  1.
     999901    1    3    3    0    0  0.14703709601E+00 -0.18172101779E-01  0.15738769757E-01  0.89252330040E+00  0.88000000000E+00 0. -1.
        -11    1    4    4    0    0 -0.61781582340E-01  0.68761592288E-02  0.42269545439E-02  0.62308697209E-01  0.51100000000E-03 0. -1.
         11    1    4    4    0    0 -0.64410274258E-01  0.93753617512E-02 -0.97928968801E-02  0.65823573196E-01  0.51100000000E-03 0.  1.
</event>
<event>
 8    1  0.1092667E+005  0.1043930E+01  0.7957747E-01            NaN
         13   -1    0    0    0    0  0.00000000000E+00  0.00000000000E+00  0.74505805969E-08  0.10566000000E+00  0.10566000000E+00 0.  1.
     999900   -1    0    0    0    0 -0.00000000000E+00 -0.00000000000E+00 -0.74505805969E-08  0.93827000000E+00  0.93827000000E+00 0.  1.
     999902    2    1    2    0    0 -0.54520866162E-02  0.21800460479E-01 -0.37538950346E-02  0.10211467374E+01  0.10208925420E+01 0.  0.
     999903    2    3    3    0    0  0.21186993189E-02  0.85440098144E-02 -0.13050099098E+00  0.13193479609E+00  0.17285623592E-01 0.  0.
         14    1    1    2    0    0  0.54520866162E-02 -0.21800460479E-01  0.37538950346E-02  0.22783262574E-01  0.00000000000E+00 0.  1.
     999901    1    3    3    0    0 -0.75707859351E-02  0.13256450665E-01  0.12674709594E+00  0.88921194134E+00  0.88000000000E+00 0. -1.
        -11    1    4    4    0    0 -0.38773605426E-02  0.11266811934E-01 -0.63600954089E-01  0.64709485070E-01  0.51100000000E-03 0. -1.
         11    1    4    4    0    0  0.59960598614E-02 -0.27228021200E-02 -0.66900036888E-01  0.67225311021E-01  0.51100000000E-03 0.  1.
</event>
<event>
 8    1  0.1092667E+005  0.1043930E+01  0.7957747E-01            NaN
         13   -1    0    0    0    0  0.00000000000E+00  0.00000000000E+00  0.74505805969E-08  0.10566000000E+00  0.10566000000E+00 0.  1.
     999900   -1    0    0    0    0 -0.00000000000E+00 -0.00000000000E+00 -0.74505805969E-08  0.93827000000E+00  0.93827000000E+00 0.  1.
     999902    2    1    2    0    0 -0.71613647160E-02 -0.21346028748E-01 -0.56866148544E-02  0.10207076901E+01  0.10204434884E+01 0.  0.
     999903    2    3    3    0    0 -0.80055985073E-01 -0.10073145674E+00  0.28987111554E-01  0.13345466016E+00  0.20349608330E-01 0.  0.
         14    1    1    2    0    0  0.71613647160E-02  0.21346028748E-01  0.56866148544E-02  0.23222309885E-01  0.00000000000E+00 0. -1.
     999901    1    3    3    0    0  0.72894620357E-01  0.79385427996E-01 -0.34673726408E-01  0.88725302995E+00  0.88000000000E+00 0. -1.
        -11    1    4    4    0    0 -0.68082218154E-01 -0.84366343515E-01  0.31792435998E-01  0.11297738028E+00  0.51100000000E-03 0. -1.
         11    1    4    4    0    0 -0.11973766919E-01 -0.16365113230E-01 -0.28053244446E-02  0.20477279885E-01  0.51100000000E-03 0.  1.
</event>
<event>
 8    1  0.1092667E+005  0.1043930E+01  0.7957747E-01            NaN
         13   -1    0    0    0    0  0.00000000000E+00  0.00000000000E+00  0.74505805969E-08  0.10566000000E+00  0.10566000000E+00 0.  1.
     999900   -1    0    0    0    0 -0.00000000000E+00 -0.00000000000E+00 -0.74505805969E-08  0.93827000000E+00  0.93827000000E+00 0.  1.
     999902    2    1    2    0    0  0.37754770547E-02  0.15613565491E-01  0.20715605426E-01  0.10177159968E+01  0.10173783349E+01 0.  0.
     999903    2    3    3    0    0  0.11400078366E+00  0.47565019625E-01  0.35592226697E-01  0.13013961842E+00  0.20270765017E-01 0.  0.
         14    1    1    2    0    0 -0.37754770547E-02 -0.15613565491E-01 -0.20715605426E-01  0.26214003176E-01  0.00000000000E+00 0.  1.
     999901    1    3    3    0    0 -0.11022530661E+00 -0.31951454134E-01 -0.14876621271E-01  0.88757637840E+00  0.88000000000E+00 0.  1.
        -11    1    4    4    0    0  0.20312598133E-01  0.13925023084E-01  0.13805100523E-01  0.28237383594E-01  0.51100000000E-03 0. -1.
         11    1    4    4    0    0  0.93688185529E-01  0.33639996541E-01  0.21787126174E-01  0.10190223483E+00  0.51100000000E-03 0.  1.
</event>
<event>
 8    1  0.1092667E+005  0.1043930E+01  0.7957747E-01            NaN
         13   -1    0    0    0    0  0.00000000000E+00  0.00000000000E+00  0.74505805969E-08  0.10566000000E+00  0.10566000000E+00 0.  1.
     999900   -1    0    0    0    0 -0.00000000000E+00 -0.00000000000E+00 -0.74505805969E-08  0.93827000000E+00  0.93827000000E+00 0. -1.
     999902    2    1    2    0    0  0.20473333667E-01 -0.11490550640E-01 -0.77632640059E-02  0.10192023148E+01  0.10189023016E+01 0.  0.
     999903    2    3    3    0    0  0.12743229063E+00  0.30704226205E-02  0.27284897641E-01  0.13191396596E+00  0.20209220298E-01 0.  0.
         14    1    1    2    0    0 -0.20473333667E-01  0.11490550640E-01  0.77632640059E-02  0.24727685162E-01  0.00000000000E+00 0. -1.
     999901    1    3    3    0    0 -0.10695895697E+00 -0.14560973261E-01 -0.35048161647E-01  0.88728834888E+00  0.88000000000E+00 0.  1.
        -11    1    4    4    0    0  0.88951171518E-02 -0.41063988114E-03  0.75666531147E-02  0.11696456498E-01  0.51100000000E-03 0.  1.
         11    1    4    4    0    0  0.11853717348E+00  0.34810625016E-02  0.19718244526E-01  0.12021750946E+00  0.51100000000E-03 0. -1.
</event>
<event>
 8    1  0.1092667E+005  0.1043930E+01  0.7957747E-01            NaN
         13   -1    0    0    0    0  0.00000000000E+00  0.00000000000E+00  0.74505805969E-08  0.10566000000E+00  0.10566000000E+00 0.  1.
     999900   -1    0    0    0    0 -0.00000000000E+00 -0.00000000000E+00 -0.74505805969E-08  0.93827000000E+00  0.93827000000E+00 0. -1.
     999902    2    1    2    0    0  0.90399834643E-02 -0.20427738340E-01  0.77475265906E-02  0.10202860163E+01  0.10200120182E+01 0.  0.
     999903    2    3    3    0    0  0.80409667201E-01  0.44921091723E-02 -0.10112168643E+00  0.13036066212E+00  0.16805152073E-01 0.  0.
         14    1    1    2    0    0 -0.90399834643E-02  0.20427738340E-01 -0.77475265906E-02  0.23643983653E-01  0.00000000000E+00 0. -1.
     999901    1    3    3    0    0 -0.71369683737E-01 -0.24919847513E-01  0.10886921302E+00  0.88992535423E+00  0.88000000000E+00 0.  1.
        -11    1    4    4    0    0  0.50876016277E-01 -0.23418478979E-02 -0.72973375954E-01  0.88990044403E-01  0.51100000000E-03 0.  1.
         11    1    4    4    0    0  0.29533650924E-01  0.68339570702E-02 -0.28148310479E-01  0.41370617713E-01  0.51100000000E-03 0. -1.
</event>
<event>
 8    1  0.1166664E+005  0.1043930E+01  0.7957747E-01            NaN
         13   -1    0    0    0    0  0.00000000000E+00  0.00000000000E+00  0.74505805969E-08  0.10566000000E+00  0.10566000000E+00 0.  1.
     999900   -1    0    0    0    0 -0.00000000000E+00 -0.00000000000E+00 -0.74505805969E-08  0.93827000000E+00  0.93827000000E+00 0.  1.
     999902    2    1    2    0    0 -0.20023464528E-01 -0.12365924667E-01 -0.39064380215E-02  0.10200738586E+01  0.10197948625E+01 0.  0.
     999903    2    3    3    0    0 -0.36227324852E-01 -0.74231492361E-01  0.10047624035E+00  0.13160007896E+00  0.20009307439E-01 0.  0.
         14    1    1    2    0    0  0.20023464528E-01  0.12365924667E-01  0.39064380215E-02  0.23856141402E-01  0.00000000000E+00 0. -1.
     999901    1    3    3    0    0  0.16203860324E-01  0.61865567695E-01 -0.10438267837E+00  0.88847377964E+00  0.88000000000E+00 0.  1.
        -11    1    4    4    0    0 -0.23023838278E-01 -0.40456762283E-01  0.70825367177E-01  0.84754589848E-01  0.51100000000E-03 0. -1.
         11    1    4    4    0    0 -0.13203486573E-01 -0.33774730078E-01  0.29650873172E-01  0.46845489115E-01  0.51100000000E-03 0.  1.
</event>
<event>
 8    1  0.1092667E+005  0.1043930E+01  0.7957747E-01            NaN
         13   -1    0    0    0    0  0.00000000000E+00  0.00000000000E+00  0.74505805969E-08  0.10566000000E+00  0.10566000000E+00 0.  1.
     999900   -1    0    0    0    0 -0.00000000000E+00 -0.00000000000E+00 -0.74505805969E-08  0.93827000000E+00  0.93827000000E+00 0.  1.
     999902    2    1    2    0    0  0.93413409410E-02 -0.13074381442E-01  0.17364991085E-01  0.10202711113E+01  0.10199967635E+01 0.  0.
     999903    2    3    3    0    0 -0.42707245117E-01 -0.55380836821E-01 -0.10660683122E+00  0.12905401976E+00  0.19974425631E-01 0.  0.
         14    1    1    2    0    0 -0.93413409410E-02  0.13074381442E-01 -0.17364991085E-01  0.23658888732E-01  0.00000000000E+00 0. -1.
     999901    1    3    3    0    0  0.52048586058E-01  0.42306455379E-01  0.12397182231E+00  0.89121709151E+00  0.88000000000E+00 0. -1.
        -11    1    4    4    0    0 -0.12425961580E-01 -0.10475901514E-01 -0.12643875939E-01  0.20598003629E-01  0.51100000000E-03 0.  1.
         11    1    4    4    0    0 -0.30281283537E-01 -0.44904935307E-01 -0.93962955283E-01  0.10845601613E+00  0.51100000000E-03 0. -1.
</event>
<event>
 8    1  0.1092667E+005  0.1043930E+01  0.7957747E-01            NaN
         13   -1    0    0    0    0  0.00000000000E+00  0.00000000000E+00  0.74505805969E-08  0.10566000000E+00  0.10566000000E+00 0.  1.
     999900   -1    0    0    0    0 -0.00000000000E+00 -0.00000000000E+00 -0.74505805969E-08  0.93827000000E+00  0.93827000000E+00 0. -1.
     999902    2    1    2    0    0  0.12418114792E-01  0.19086517379E-01  0.88390877952E-02  0.10195039034E+01  0.10192112514E+01 0.  0.
     999903    2    3    3    0    0  0.71187052678E-01  0.57746115038E-01 -0.90687328642E-01  0.13110429733E+00  0.23705166750E-01 0.  0.
         14    1    1    2    0    0 -0.12418114792E-01 -0.19086517379E-01 -0.88390877952E-02  0.24426096571E-01  0.00000000000E+00 0. -1.
     999901    1    3    3    0    0 -0.58768937887E-01 -0.38659597659E-01  0.99526416437E-01  0.88839960610E+00  0.88000000000E+00 0.  1.
        -11    1    4    4    0    0  0.37327970729E-01  0.28259891376E-01 -0.29985250308E-01  0.55600136838E-01  0.51100000000E-03 0.  1.
         11    1    4    4    0    0  0.33859081949E-01  0.29486223662E-01 -0.60702078334E-01  0.75504160490E-01  0.51100000000E-03 0. -1.
</event>
<event>
 8    1  0.1092667E+005  0.1043930E+01  0.7957747E-01            NaN
         13   -1    0    0    0    0  0.00000000000E+00  0.00000000000E+00  0.74505805969E-08  0.10566000000E+00  0.10566000000E+00 0. -1.
     999900   -1    0    0    0    0 -0.00000000000E+00 -0.00000000000E+00 -0.74505805969E-08  0.93827000000E+00  0.93827000000E+00 0. -1.
     999902    2    1    2    0    0 -0.21220656033E-01  0.90775708283E-03  0.10420426963E-01  0.10202714801E+01  0.10199971410E+01 0.  0.
     999903    2    3    3    0    0 -0.12368881301E+00 -0.78514682524E-02 -0.43708023509E-01  0.13263059756E+00  0.17886197788E-01 0.  0.
         14    1    1    2    0    0  0.21220656033E-01 -0.90775708283E-03 -0.10420426963E-01  0.23658519892E-01  0.00000000000E+00 0. -1.
     999901    1    3    3    0    0  0.10246815698E+00  0.87592253353E-02  0.54128450472E-01  0.88764088255E+00  0.88000000000E+00 0.  1.
        -11    1    4    4    0    0 -0.59552429204E-01 -0.12031232049E-01 -0.24886959355E-01  0.65657172005E-01  0.51100000000E-03 0. -1.
         11    1    4    4    0    0 -0.64136383808E-01  0.41797637967E-02 -0.18821064154E-01  0.66973425553E-01  0.51100000000E-03 0.  1.
</event>
<event>
 8    1  0.1092667E+005  0.1043930E+01  0.7957747E-01            NaN
         13   -1    0    0    0    0  0.00000000000E+00  0.00000000000E+00  0.74505805969E-08  0.10566000000E+00  0.10566000000E+00 0.  1.
     999900   -1    0    0    0    0 -0.00000000000E+00 -0.00000000000E+00 -0.74505805969E-08  0.93827000000E+00  0.93827000000E+00 0. -1.
     999902    2    1    2    0    0  0.18415070710E-01 -0.10725106760E-01  0.12951885979E-01  0.10189921955E+01  0.10186869982E+01 0.  0.
     999903    2    3    3    0    0 -0.41467166736E-01 -0.87165496790E-01 -0.81986164492E-01  0.12857529928E+00  0.22192941896E-01 0.  0.
         14    1    1    2    0    0 -0.18415070710E-01  0.10725106760E-01 -0.12951885979E-01  0.24937804528E-01  0.00000000000E+00 0.  1.
     999901    1    3    3    0    0  0.59882237446E-01  0.76440390030E-01  0.94938050472E-01  0.89041689619E+00  0.88000000000E+00 0.  1.
        -11    1    4    4    0    0 -0.35498122878E-01 -0.84061610450E-01 -0.80460369325E-01  0.12165772985E+00  0.51100000000E-03 0. -1.
         11    1    4    4    0    0 -0.59690438573E-02 -0.31038863405E-02 -0.15257951678E-02  0.69175694344E-02  0.51100000000E-03 0.  1.
</event>
<event>
 8    1  0.1092667E+005  0.1043930E+01  0.7957747E-01            NaN
         13   -1    0    0    0    0  0.00000000000E+00  0.00000000000E+00  0.74505805969E-08  0.10566000000E+00  0.10566000000E+00 0. -1.
     999900   -1    0    0    0    0 -0.00000000000E+00 -0.00000000000E+00 -0.74505805969E-08  0.93827000000E+00  0.93827000000E+00 0. -1.
     999902    2    1    2    0    0  0.82105511579E-02  0.12291762509E-02 -0.20485748000E-01  0.10218259303E+01  0.10215868255E+01 0.  0.
     999903    2    3    3    0    0 -0.11837787064E+00  0.46992273087E-01  0.21196956642E-01  0.13061532816E+00  0.19734715403E-01 0.  0.
         14    1    1    2    0    0 -0.82105511579E-02 -0.12291762509E-02  0.20485748000E-01  0.22104069664E-01  0.00000000000E+00 0. -1.
     999901    1    3    3    0    0  0.12658842180E+00 -0.45763096836E-01 -0.41682704642E-01  0.89121060218E+00  0.88000000000E+00 0. -1.
        -11    1    4    4    0    0 -0.61313846352E-01  0.33762884935E-01  0.70466376881E-02  0.70350809358E-01  0.51100000000E-03 0.  1.
         11    1    4    4    0    0 -0.57064024289E-01  0.13229388152E-01  0.14150318954E-01  0.60264518802E-01  0.51100000000E-03 0. -1.
</event>
<event>
 8    1  0.1092667E+005  0.1043930E+01  0.7957747E-01            NaN
         13   -1    0    0    0    0  0.00000000000E+00  0.00000000000E+00  0.74505805969E-08  0.10566000000E+00  0.10566000000E+00 0.  1.
     999900   -1    0    0    0    0 -0.00000000000E+00 -0.00000000000E+00 -0.74505805969E-08  0.93827000000E+00  0.93827000000E+00 0.  1.
     999902    2    1    2    0    0 -0.15338540626E-01  0.14750564061E-02 -0.18621755205E-01  0.10197594314E+01  0.10194729430E+01 0.  0.
     999903    2    3    3    0    0  0.11250761932E+00  0.10467537663E-01 -0.60068209911E-01  0.12951041345E+00  0.19930469160E-01 0.  0.
         14    1    1    2    0    0  0.15338540626E-01 -0.14750564061E-02  0.18621755205E-01  0.24170568608E-01  0.00000000000E+00 0.  1.
     999901    1    3    3    0    0 -0.12784615995E+00 -0.89924812572E-02  0.41446454706E-01  0.89024901794E+00  0.88000000000E+00 0. -1.
        -11    1    4    4    0    0  0.87898812937E-01  0.13037590570E-01 -0.39140315977E-01  0.97099977031E-01  0.51100000000E-03 0. -1.
         11    1    4    4    0    0  0.24608806385E-01 -0.25700529070E-02 -0.20927893934E-01  0.32410436423E-01  0.51100000000E-03 0.  1.
</event>
<event>
 8    1  0.1092667E+005  0.1043930E+01  0.7957747E-01            NaN
         13   -1    0    0    0    0  0.00000000000E+00  0.00000000000E+00  0.74505805969E-08  0.10566000000E+00  0.10566000000E+00 0. -1.
     999900   -1    0    0    0    0 -0.00000000000E+00 -0.00000000000E+00 -0.74505805969E-08  0.93827000000E+00  0.93827000000E+00 0.  1.
     999902    2    1    2    0    0  0.12200595740E-01  0.14676298382E-01 -0.10461434891E-01  0.10221655820E+01  0.10219338468E+01 0.  0.
     999903    2    3    3    0    0  0.80714099499E-01 -0.85791299342E-01  0.48349440792E-01  0.13185858019E+00  0.34265198719E-01 0.  0.
         14    1    1    2    0    0 -0.12200595740E-01 -0.14676298382E-01  0.10461434891E-01  0.21764417994E-01  0.00000000000E+00 0. -1.
     999901    1    3    3    0    0 -0.68513503759E-01  0.10046759772E+00 -0.58810875683E-01  0.89030700182E+00  0.88000000000E+00 0.  1.
        -11    1    4    4    0    0  0.10955268916E-01 -0.72713380494E-02  0.18433353698E-01  0.22648177048E-01  0.51100000000E-03 0.  1.
         11    1    4    4    0    0  0.69758830584E-01 -0.78519961293E-01  0.29916087094E-01  0.10921040314E+00  0.51100000000E-03 0. -1.
</event>
<event>
 8    1  0.1092667E+005  0.1043930E+01  0.7957747E-01            NaN
         13   -1    0    0    0    0  0.00000000000E+00  0.00000000000E+00  0.74505805969E-08  0.10566000000E+00  0.10566000000E+00 0.  1.
     999900   -1    0    0    0    0 -0.00000000000E+00 -0.00000000000E+00 -0.74505805969E-08  0.93827000000E+00  0.93827000000E+00 0. -1.
     999902    2    1    2    0    0 -0.41495962636E-02  0.20154880920E-02  0.22966361474E-01  0.10205049045E+01  0.10202360143E+01 0.  0.
     999903    2    3    3    0    0 -0.11138516535E+00  0.49978048409E-01  0.47029792338E-01  0.13237263775E+00  0.20155730578E-01 0.  0.
         14    1    1    2    0    0  0.41495962636E-02 -0.20154880920E-02 -0.22966361474E-01  0.23425095533E-01  0.00000000000E+00 0. -1.
     999901    1    3    3    0    0  0.10723556909E+00 -0.47962560317E-01 -0.24063430865E-01  0.88813226671E+00  0.88000000000E+00 0. -1.
        -11    1    4    4    0    0 -0.97664498086E-01  0.38888384356E-01  0.34177690729E-01  0.11053974981E+00  0.51100000000E-03 0.  1.
         11    1    4    4    0    0 -0.13720667267E-01  0.11089664054E-01  0.12852101609E-01  0.21832887941E-01  0.51100000000E-03 0. -1.
</event>
<event>
 8    1  0.1092667E+005  0.1043930E+01  0.7957747E-01            NaN
         13   -1    0    0    0    0  0.00000000000E+00  0.00000000000E+00  0.74505805969E-08  0.10566000000E+00  0.10566000000E+00 0.  1.
     999900   -1    0    0    0    0 -0.00000000000E+00 -0.00000000000E+00 -0.74505805969E-08  0.93827000000E+00  0.93827000000E+00 0. -1.
     999902    2    1    2    0    0 -0.11857253624E-01 -0.19947116506E-01 -0.25318903666E-02  0.10205870698E+01  0.10203200844E+01 0.  0.
     999903    2    3    3    0    0 -0.13056282683E+00  0.42945420448E-02  0.61354519259E-02  0.13224378373E+00  0.19638730206E-01 0.  0.
         14    1    1    2    0    0  0.11857253624E-01  0.19947116506E-01  0.25318903666E-02  0.23342930176E-01  0.00000000000E+00 0. -1.
     999901    1    3    3    0    0  0.11870557321E+00 -0.24241658551E-01 -0.86673422924E-02  0.88834328609E+00  0.88000000000E+00 0. -1.
        -11    1    4    4    0    0 -0.48137776213E-01  0.12273788038E-02  0.11751112848E-01  0.49569161094E-01  0.51100000000E-03 0. -1.
         11    1    4    4    0    0 -0.82425050619E-01  0.30671632410E-02 -0.56156609222E-02  0.82674622639E-01  0.51100000000E-03 0.  1.
</event>
<event>
 8    1  0.1092667E+005  0.1043930E+01  0.7957747E-01            NaN
         13   -1    0    0    0    0  0.00000000000E+00  0.00000000000E+00  0.74505805969E-08  0.10566000000E+00  0.10566000000E+00 0.  1.
     999900   -1    0    0    0    0 -0.00000000000E+00 -0.00000000000E+00 -0.74505805969E-08  0.93827000000E+00  0.93827000000E+00 0.  1.
     999902    2    1    2    0    0 -0.53263581991E-02  0.20987122839E-01  0.12989920246E-01  0.10186799021E+01  0.10183669159E+01 0.  0.
     999903    2    3    3    0    0 -0.58193216823E-01 -0.10675753367E+00  0.33231426629E-01  0.12765615347E+00  0.20202582102E-01 0.  0.
         14    1    1    2    0    0  0.53263581991E-02 -0.20987122839E-01 -0.12989920246E-01  0.25250097915E-01  0.00000000000E+00 0.  1.
     999901    1    3    3    0    0  0.52866858624E-01  0.12774465651E+00 -0.20241506383E-01  0.89102374861E+00  0.88000000000E+00 0.  1.
        -11    1    4    4    0    0 -0.37869125404E-01 -0.54609115147E-01  0.10665313558E-01  0.67307028982E-01  0.51100000000E-03 0. -1.
         11    1    4    4    0    0 -0.20324091419E-01 -0.52148418526E-01  0.22566113071E-01  0.60349124492E-01  0.51100000000E-03 0.  1.
</event>
<event>
 8    1  0.1092667E+005  0.1043930E+01  0.7957747E-01            NaN
         13   -1    0    0    0    0  0.00000000000E+00  0.00000000000E+00  0.74505805969E-08  0.10566000000E+00  0.10566000000E+00 0. -1.
     999900   -1    0    0    0    0 -0.00000000000E+00 -0.00000000000E+00 -0.74505805969E-08  0.93827000000E+00  0.93827000000E+00 0. -1.
     999902    2    1    2    0    0  0.35551127986E-02  0.77768317315E-02  0.21873597142E-01  0.10204444259E+01  0.10201741293E+01 0.  0.
     999903    2    3    3    0    0  0.56523279729E-01  0.11196584060E+00 -0.32290195405E-01  0.13106560183E+00  0.20107328331E-01 0.  0.
         14    1    1    2    0    0 -0.35551127986E-02 -0.77768317315E-02 -0.21873597142E-01  0.23485574099E-01  0.00000000000E+00 0.  1.
     999901    1    3    3    0    0 -0.52968166930E-01 -0.10418900887E+00  0.54163792547E-01  0.88937882407E+00  0.88000000000E+00 0.  1.
        -11    1    4    4    0    0  0.91361731470E-02  0.13490325037E-01 -0.11163703655E-01  0.19757224746E-01  0.51100000000E-03 0. -1.
         11    1    4    4    0    0  0.47387106582E-01  0.98475515561E-01 -0.21126491750E-01  0.11130837709E+00  0.51100000000E-03 0.  1.
</event>
<event>
 8    1  0.1092667E+005  0.1043930E+01  0.7957747E-01            NaN
         13   -1    0    0    0    0  0.00000000000E+00  0.00000000000E+00  0.74505805969E-08  0.10566000000E+00  0.10566000000E+00 0. -1.
     999900   -1    0    0    0    0 -0.00000000000E+00 -0.00000000000E+00 -0.74505805969E-08  0.93827000000E+00  0.93827000000E+00 0. -1.
     999902    2    1    2    0    0 -0.74383327591E-02 -0.27381209639E-01 -0.12652268878E-01  0.10128633081E+01  0.10123867550E+01 0.  0.
     999903    2    3    3    0    0  0.91221277849E-02  0.24306384431E-02  0.12020385543E+00  0.12223782854E+00  0.20099717635E-01 0.  0.
         14    1    1    2    0    0  0.74383327591E-02  0.27381209639E-01  0.12652268878E-01  0.31066691863E-01  0.00000000000E+00 0.  1.
     999901    1    3    3    0    0 -0.16560460544E-01 -0.29811848082E-01 -0.13285612430E+00  0.89062547960E+00  0.88000000000E+00 0. -1.
        -11    1    4    4    0    0  0.35991262587E-02  0.81616668153E-02  0.22500713334E-01  0.24209703356E-01  0.51100000000E-03 0.  1.
         11    1    4    4    0    0  0.55230015262E-02 -0.57310283723E-02  0.97703142091E-01  0.98028125186E-01  0.51100000000E-03 0. -1.
</event>
<event>
 8    1  0.1092667E+005  0.1043930E+01  0.7957747E-01            NaN
         13   -1    0    0    0    0  0.00000000000E+00  0.00000000000E+00  0.74505805969E-08  0.10566000000E+00  0.10566000000E+00 0.  1.
     999900   -1    0    0    0    0 -0.00000000000E+00 -0.00000000000E+00 -0.74505805969E-08  0.93827000000E+00  0.93827000000E+00 0.  1.
     999902    2    1    2    0    0 -0.11276107722E-01  0.17404059705E-01 -0.11731077366E-01  0.10201041721E+01  0.10198258929E+01 0.  0.
     999903    2    3    3    0    0 -0.25330386796E-02 -0.60620411670E-01  0.11086703538E+00  0.12814309859E+00  0.21163732769E-01 0.  0.
         14    1    1    2    0    0  0.11276107722E-01 -0.17404059705E-01  0.11731077366E-01  0.23825827913E-01  0.00000000000E+00 0.  1.
     999901    1    3    3    0    0 -0.87430690425E-02  0.78024471376E-01 -0.12259811275E+00  0.89196107350E+00  0.88000000000E+00 0.  1.
        -11    1    4    4    0    0  0.40226345244E-02 -0.42620572372E-01  0.59374838830E-01  0.73200596889E-01  0.51100000000E-03 0. -1.
         11    1    4    4    0    0 -0.65556732040E-02 -0.17999839298E-01  0.51492196553E-01  0.54942501697E-01  0.51100000000E-03 0.  1.
</event>
<event>
 8    1  0.1092667E+005  0.1043930E+01  0.7957747E-01            NaN
         13   -1    0    0    0    0  0.00000000000E+00  0.00000000000E+00  0.74505805969E-08  0.10566000000E+00  0.10566000000E+00 0. -1.
     999900   -1    0    0    0    0 -0.00000000000E+00 -0.00000000000E+00 -0.74505805969E-08  0.93827000000E+00  0.93827000000E+00 0.  1.
     999902    2    1    2    0    0 -0.13532685888E-01  0.79919593036E-02 -0.18452342028E-01  0.10196917260E+01  0.10194036110E+01 0.  0.
     999903    2    3    3    0    0 -0.35345944472E-01  0.10464427448E+00 -0.70566089301E-01  0.13259909783E+00  0.20079537152E-01 0.  0.
         14    1    1    2    0    0  0.13532685888E-01 -0.79919593036E-02  0.18452342028E-01  0.24238274014E-01  0.00000000000E+00 0. -1.
     999901    1    3    3    0    0  0.21813258584E-01 -0.96652315181E-01  0.52113747273E-01  0.88709262816E+00  0.88000000000E+00 0. -1.
        -11    1    4    4    0    0 -0.20172791795E-01  0.76617385441E-01 -0.58624657169E-01  0.98561030990E-01  0.51100000000E-03 0. -1.
         11    1    4    4    0    0 -0.15173152677E-01  0.28026889043E-01 -0.11941432132E-01  0.34038066837E-01  0.51100000000E-03 0.  1.
</event>
<event>
 8    1  0.1092667E+005  0.1043930E+01  0.7957747E-01            NaN
         13   -1    0    0    0    0  0.00000000000E+00  0.00000000000E+00  0.74505805969E-08  0.10566000000E+00  0.10566000000E+00 0. -1.
     999900   -1    0    0    0    0 -0.00000000000E+00 -0.00000000000E+00 -0.74505805969E-08  0.93827000000E+00  0.93827000000E+00 0.  1.
     999902    2    1    2    0    0  0.43277997697E-02  0.14289356473E-01 -0.18026739280E-01  0.10205231871E+01  0.10202547214E+01 0.  0.
     999903    2    3    3    0    0  0.45341396401E-01 -0.95417853175E-01  0.70327387922E-01  0.12837732533E+00  0.19349088704E-01 0.  0.
         14    1    1    2    0    0 -0.43277997697E-02 -0.14289356473E-01  0.18026739280E-01  0.23406812861E-01  0.00000000000E+00 0. -1.
     999901    1    3    3    0    0 -0.41013596632E-01  0.10970720965E+00 -0.88354127202E-01  0.89214586181E+00  0.88000000000E+00 0. -1.
        -11    1    4    4    0    0  0.14960127397E-01 -0.50415939911E-01  0.40849886068E-01  0.66592392370E-01  0.51100000000E-03 0.  1.
         11    1    4    4    0    0  0.30381269004E-01 -0.45001913264E-01  0.29477501855E-01  0.61784932956E-01  0.51100000000E-03 0. -1.
</event>
<event>
 8    1  0.1092667E+005  0.1043930E+01  0.7957747E-01            NaN
         13   -1    0    0    0    0  0.00000000000E+00  0.00000000000E+00  0.74505805969E-08  0.10566000000E+00  0.10566000000E+00 0. -1.
     999900   -1    0    0    0    0 -0.00000000000E+00 -0.00000000000E+00 -0.74505805969E-08  0.93827000000E+00  0.93827000000E+00 0. -1.
     999902    2    1    2    0    0  0.21799510055E-01  0.63477807623E-02  0.63957629265E-02  0.10203414701E+01  0.10200687707E+01 0.  0.
     999903    2    3    3    0    0 -0.12273297540E+00 -0.11001300434E-01 -0.26115695440E-01  0.12779028115E+00  0.21538675600E-01 0.  0.
         14    1    1    2    0    0 -0.21799510055E-01 -0.63477807623E-02 -0.63957629265E-02  0.23588529896E-01  0.00000000000E+00 0. -1.
     999901    1    3    3    0    0  0.14453248546E+00  0.17349081196E-01  0.32511458366E-01  0.89255118895E+00  0.88000000000E+00 0.  1.
        -11    1    4    4    0    0 -0.66099210798E-01 -0.25065520372E-02 -0.35774596320E-02  0.66245360665E-01  0.51100000000E-03 0.  1.
         11    1    4    4    0    0 -0.56633764606E-01 -0.84947483965E-02 -0.22538235808E-01  0.61544920489E-01  0.51100000000E-03 0. -1.
</event>
<event>
 8    1  0.1092667E+005  0.1043930E+01  0.7957747E-01            NaN
         13   -1    0    0    0    0  0.00000000000E+00  0.00000000000E+00  0.74505805969E-08  0.10566000000E+00  0.10566000000E+00 0.  1.
     999900   -1    0    0    0    0 -0.00000000000E+00 -0.00000000000E+00 -0.74505805969E-08  0.93827000000E+00  0.93827000000E+00 0. -1.
     999902    2    1    2    0    0 -0.97535395976E-02 -0.12333782040E-01  0.18027009852E-01  0.10200087375E+01  0.10197281980E+01 0.  0.
     999903    2    3    3    0    0  0.34476756450E-01 -0.12042257731E+00 -0.33297608857E-01  0.13081037763E+00  0.17674282998E-01 0.  0.
         14    1    1    2    0    0  0.97535395976E-02  0.12333782040E-01 -0.18027009852E-01  0.23921262473E-01  0.00000000000E+00 0. -1.
     999901    1    3    3    0    0 -0.44230296048E-01  0.10808879527E+00  0.51324618709E-01  0.88919835989E+00  0.88000000000E+00 0. -1.
        -11    1    4    4    0    0  0.22137042073E-01 -0.71834571755E-01 -0.11108445262E-01  0.75986268550E-01  0.51100000000E-03 0. -1.
         11    1    4    4    0    0  0.12339714378E-01 -0.48588005556E-01 -0.22189163594E-01  0.54824109084E-01  0.51100000000E-03 0.  1.
</event>
<event>
 8    1  0.1092667E+005  0.1043930E+01  0.7957747E-01            NaN
         13   -1    0    0    0    0  0.00000000000E+00  0.00000000000E+00  0.74505805969E-08  0.10566000000E+00  0.10566000000E+00 0.  1.
     999900   -1    0    0    0    0 -0.00000000000E+00 -0.00000000000E+00 -0.74505805969E-08  0.93827000000E+00  0.93827000000E+00 0.  1.
     999902    2    1    2    0    0 -0.80136941368E-02 -0.21895796667E-01 -0.12831365641E-02  0.10205785194E+01  0.10203113361E+01 0.  0.
     999903    2    3    3    0    0 -0.70206106449E-01  0.50715012609E-01  0.94998839541E-01  0.13017948265E+00  0.20518486845E-01 0.  0.
         14    1    1    2    0    0  0.80136941368E-02  0.21895796667E-01  0.12831365641E-02  0.23351480571E-01  0.00000000000E+00 0.  1.
     999901    1    3    3    0    0  0.62192412312E-01 -0.72610809276E-01 -0.96281976105E-01  0.89039903678E+00  0.88000000000E+00 0.  1.
        -11    1    4    4    0    0 -0.21390279441E-01  0.27771269787E-01  0.38166706269E-01  0.51824184206E-01  0.51100000000E-03 0.  1.
         11    1    4    4    0    0 -0.48815827008E-01  0.22943742822E-01  0.56832133272E-01  0.78355298445E-01  0.51100000000E-03 0. -1.
</event>
<event>
 8    1  0.1092667E+005  0.1043930E+01  0.7957747E-01            NaN
         13   -1    0    0    0    0  0.00000000000E+00  0.00000000000E+00  0.74505805969E-08  0.10566000000E+00  0.10566000000E+00 0. -1.
     999900   -1    0    0    0    0 -0.00000000000E+00 -0.00000000000E+00 -0.74505805969E-08  0.93827000000E+00  0.93827000000E+00 0. -1.
     999902    2    1    2    0    0  0.16067925405E-01  0.34559747548E-03 -0.16607772780E-01  0.10208190549E+01  0.10205574100E+01 0.  0.
     999903    2    3    3    0    0 -0.11053536172E+00  0.41854875365E-01 -0.51842454973E-01  0.13009300543E+00  0.16329517516E-01 0.  0.
         14    1    1    2    0    0 -0.16067925405E-01 -0.34559747548E-03  0.16607772780E-01  0.23110945051E-01  0.00000000000E+00 0. -1.
     999901    1    3    3    0    0  0.12660328712E+00 -0.41509277889E-01  0.35234682193E-01  0.89072604952E+00  0.88000000000E+00 0.  1.
        -11    1    4    4    0    0 -0.12417957181E-01  0.10507504944E-01 -0.82048485163E-02  0.18226189423E-01  0.51100000000E-03 0.  1.
         11    1    4    4    0    0 -0.98117404537E-01  0.31347370421E-01 -0.43637606457E-01  0.11186681601E+00  0.51100000000E-03 0. -1.
</event>
<event>
 8    1  0.1092667E+005  0.1043930E+01  0.7957747E-01            NaN
         13   -1    0    0    0    0  0.00000000000E+00  0.00000000000E+00  0.74505805969E-08  0.10566000000E+00  0.10566000000E+00 0.  1.
     999900   -1    0    0    0    0 -0.00000000000E+00 -0.00000000000E+00 -0.74505805969E-08  0.93827000000E+00  0.93827000000E+00 0.  1.
     999902    2    1    2    0    0 -0.11484370445E-01  0.14242241357E-01  0.16259493421E-01  0.10194534126E+01  0.10191595347E+01 0.  0.
     999903    2    3    3    0    0  0.12166755777E+00  0.25966587920E-01  0.30090379879E-01  0.12925220519E+00  0.17984529019E-01 0.  0.
         14    1    1    2    0    0  0.11484370445E-01 -0.14242241357E-01 -0.16259493421E-01  0.24476587379E-01  0.00000000000E+00 0.  1.
     999901    1    3    3    0    0 -0.13315192821E+00 -0.11724346563E-01 -0.13830886457E-01  0.89020120743E+00  0.88000000000E+00 0. -1.
        -11    1    4    4    0    0  0.87007187052E-01  0.17231815263E-01  0.29579752091E-01  0.93500849786E-01  0.51100000000E-03 0.  1.
         11    1    4    4    0    0  0.34660370716E-01  0.87347726576E-02  0.51062778766E-03  0.35751355405E-01  0.51100000000E-03 0. -1.
</event>
<event>
 7    1  0.1109455E+005  0.1043930E+01  0.7957747E-01            NaN
         13   -1    0    0    0    0  0.00000000000E+00  0.00000000000E+00  0.74505805969E-08  0.10566000000E+00  0.10566000000E+00 0.  1.
     999900   -1    0    0    0    0 -0.00000000000E+00 -0.00000000000E+00 -0.74505805969E-08  0.93827000000E+00  0.93827000000E+00 0. -1.
     999903    2    1    2    0    0 -0.79459631377E-01  0.37181401534E-01 -0.17119545935E-01  0.90593461574E-01  0.14758278640E-01 0.  0.
         14    1    1    2    0    0  0.69590581476E-01  0.29359243049E-02 -0.17035386626E-01  0.71705460595E-01  0.00000000000E+00 0. -1.
     999901    1    1    2    0    0  0.98690499012E-02 -0.40117325839E-01  0.34154932561E-01  0.88163107783E+00  0.88000000000E+00 0.  1.
        -11    1    3    3    0    0 -0.45190497683E-01  0.16231484622E-01 -0.33751714514E-02  0.48138291174E-01  0.51100000000E-03 0. -1.
         11    1    3    3    0    0 -0.34269133694E-01  0.20949916912E-01 -0.13744374484E-01  0.42455170400E-01  0.51100000000E-03 0.  1.
</event>
<event>
 8    1  0.1092667E+005  0.1043930E+01  0.7957747E-01            NaN
         13   -1    0    0    0    0  0.00000000000E+00  0.00000000000E+00  0.74505805969E-08  0.10566000000E+00  0.10566000000E+00 0.  1.
     999900   -1    0    0    0    0 -0.00000000000E+00 -0.00000000000E+00 -0.74505805969E-08  0.93827000000E+00  0.93827000000E+00 0. -1.
     999902    2    1    2    0    0 -0.54405891033E-02 -0.22588344130E-01  0.51746198638E-03  0.10206899254E+01  0.10204253146E+01 0.  0.
     999903    2    3    3    0    0  0.10828336565E+00  0.57851719262E-01 -0.34328206747E-01  0.12905212769E+00  0.20097691034E-01 0.  0.
         14    1    1    2    0    0  0.54405891033E-02  0.22588344130E-01 -0.51746198638E-03  0.23240074596E-01  0.00000000000E+00 0.  1.
     999901    1    3    3    0    0 -0.11372395475E+00 -0.80440063392E-01  0.34845668733E-01  0.89163779771E+00  0.88000000000E+00 0.  1.
        -11    1    4    4    0    0  0.29399351187E-01  0.62400365334E-02 -0.63954777293E-02  0.30731468603E-01  0.51100000000E-03 0. -1.
         11    1    4    4    0    0  0.78884014463E-01  0.51611682729E-01 -0.27932729017E-01  0.98320659086E-01  0.51100000000E-03 0.  1.
</event>
<event>
 8    1  0.1092667E+005  0.1043930E+01  0.7957747E-01            NaN
         13   -1    0    0    0    0  0.00000000000E+00  0.00000000000E+00  0.74505805969E-08  0.10566000000E+00  0.10566000000E+00 0. -1.
     999900   -1    0    0    0    0 -0.00000000000E+00 -0.00000000000E+00 -0.74505805969E-08  0.93827000000E+00  0.93827000000E+00 0. -1.
     999902    2    1    2    0    0  0.96612920399E-03 -0.75911714117E-02  0.21827699610E-01  0.10207997653E+01  0.10205376784E+01 0.  0.
     999903    2    3    3    0    0  0.26030857232E-01  0.63128673928E-01  0.11255758525E+00  0.13295887339E+00  0.18601532602E-01 0.  0.
         14    1    1    2    0    0 -0.96612920399E-03  0.75911714117E-02 -0.21827699610E-01  0.23130234744E-01  0.00000000000E+00 0.  1.
     999901    1    3    3    0    0 -0.25064728028E-01 -0.70719845340E-01 -0.90729885645E-01  0.88784089186E+00  0.88000000000E+00 0. -1.
        -11    1    4    4    0    0  0.67618087688E-02  0.33347778907E-01  0.42624406318E-01  0.54542621415E-01  0.51100000000E-03 0. -1.
         11    1    4    4    0    0  0.19269048463E-01  0.29780895021E-01  0.69933178937E-01  0.78416251977E-01  0.51100000000E-03 0.  1.
</event>
<event>
 8    1  0.1092667E+005  0.1043930E+01  0.7957747E-01            NaN
         13   -1    0    0    0    0  0.00000000000E+00  0.00000000000E+00  0.74505805969E-08  0.10566000000E+00  0.10566000000E+00 0. -1.
     999900   -1    0    0    0    0 -0.00000000000E+00 -0.00000000000E+00 -0.74505805969E-08  0.93827000000E+00  0.93827000000E+00 0.  1.
     999902    2    1    2    0    0  0.19752510490E-01 -0.17577457715E-01 -0.58134892280E-02  0.10168574060E+01  0.10164969546E+01 0.  0.
     999903    2    3    3    0    0  0.13260294995E-01  0.12319545915E+00 -0.68707729003E-02  0.12564459141E+00  0.19657040791E-01 0.  0.
         14    1    1    2    0    0 -0.19752510490E-01  0.17577457715E-01  0.58134892280E-02  0.27072594028E-01  0.00000000000E+00 0.  1.
     999901    1    3    3    0    0  0.64922154956E-02 -0.14077291687E+00  0.10572836723E-02  0.89121281456E+00  0.88000000000E+00 0. -1.
        -11    1    4    4    0    0 -0.45384995847E-02  0.42785680318E-01 -0.36454924760E-03  0.43030296721E-01  0.51100000000E-03 0. -1.
         11    1    4    4    0    0  0.17798794579E-01  0.80409778832E-01 -0.65062236527E-02  0.82614294693E-01  0.51100000000E-03 0.  1.
</event>
<event>
 8    1  0.1092667E+005  0.1043930E+01  0.7957747E-01            NaN
         13   -1    0    0    0    0  0.00000000000E+00  0.00000000000E+00  0.74505805969E-08  0.10566000000E+00  0.10566000000E+00 0. -1.
     999900   -1    0    0    0    0 -0.00000000000E+00 -0.00000000000E+00 -0.74505805969E-08  0.93827000000E+00  0.93827000000E+00 0.  1.
     999902    2    1    2    0    0  0.11587337806E-02 -0.15096123303E-01  0.18802013307E-01  0.10197897575E+01  0.10195039962E+01 0.  0.
     999903    2    3    3    0    0  0.19606128534E-02 -0.99595348292E-01 -0.81357229499E-01  0.13008607878E+00  0.19501581916E-01 0.  0.
         14    1    1    2    0    0 -0.11587337806E-02  0.15096123303E-01 -0.18802013307E-01  0.24140242483E-01  0.00000000000E+00 0.  1.
     999901    1    3    3    0    0 -0.80187907277E-03  0.84499224988E-01  0.10015924281E+00  0.88970367873E+00  0.88000000000E+00 0. -1.
        -11    1    4    4    0    0  0.98897657731E-02 -0.68461554989E-01 -0.51696128833E-01  0.86357065929E-01  0.51100000000E-03 0.  1.
         11    1    4    4    0    0 -0.79291529197E-02 -0.31133793303E-01 -0.29661100666E-01  0.43729012854E-01  0.51100000000E-03 0. -1.
</event>
<event>
 8    1  0.1092667E+005  0.1043930E+01  0.7957747E-01            NaN
         13   -1    0    0    0    0  0.00000000000E+00  0.00000000000E+00  0.74505805969E-08  0.10566000000E+00  0.10566000000E+00 0. -1.
     999900   -1    0    0    0    0 -0.00000000000E+00 -0.00000000000E+00 -0.74505805969E-08  0.93827000000E+00  0.93827000000E+00 0. -1.
     999902    2    1    2    0    0  0.94345121466E-02 -0.15860087070E-01  0.16556178321E-01  0.10191376741E+01  0.10188360709E+01 0.  0.
     999903    2    3    3    0    0  0.36273329535E-01  0.57697507615E-01 -0.10558832167E+00  0.12725745755E+00  0.20020239937E-01 0.  0.
         14    1    1    2    0    0 -0.94345121466E-02  0.15860087070E-01 -0.16556178321E-01  0.24792325867E-01  0.00000000000E+00 0.  1.
     999901    1    3    3    0    0 -0.26838817388E-01 -0.73557594685E-01  0.12214450000E+00  0.89188021658E+00  0.88000000000E+00 0.  1.
        -11    1    4    4    0    0  0.40305678606E-03  0.23882166460E-02 -0.15098390750E-01  0.15299952868E-01  0.51100000000E-03 0.  1.
         11    1    4    4    0    0  0.35870272749E-01  0.55309290969E-01 -0.90489930924E-01  0.11195750468E+00  0.51100000000E-03 0. -1.
</event>
<event>
 8    1  0.1092667E+005  0.1043930E+01  0.7957747E-01            NaN
         13   -1    0    0    0    0  0.00000000000E+00  0.00000000000E+00  0.74505805969E-08  0.10566000000E+00  0.10566000000E+00 0. -1.
     999900   -1    0    0    0    0 -0.00000000000E+00 -0.00000000000E+00 -0.74505805969E-08  0.93827000000E+00  0.93827000000E+00 0.  1.
     999902    2    1    2    0    0 -0.21618769717E-01 -0.30076591661E-02 -0.24472020561E-02  0.10219662568E+01  0.10217302110E+01 0.  0.
     999903    2    3    3    0    0 -0.81106283726E-01  0.78437542541E-01 -0.68798837247E-01  0.13372382103E+00  0.20447566208E-01 0.  0.
         14    1    1    2    0    0  0.21618769717E-01  0.30076591661E-02  0.24472020561E-02  0.21963743207E-01  0.00000000000E+00 0.  1.
     999901    1    3    3    0    0  0.59487514009E-01 -0.81445201707E-01  0.66351635191E-01  0.88824243577E+00  0.88000000000E+00 0. -1.
        -11    1    4    4    0    0 -0.50716622769E-01  0.48774794701E-01 -0.31087548789E-01  0.76927584350E-01  0.51100000000E-03 0. -1.
         11    1    4    4    0    0 -0.30389660956E-01  0.29662747840E-01 -0.37711288458E-01  0.56796236677E-01  0.51100000000E-03 0.  1.
</event>
<event>
 8    1  0.1092667E+005  0.1043930E+01  0.7957747E-01            NaN
         13   -1    0    0    0    0  0.00000000000E+00  0.00000000000E+00  0.74505805969E-08  0.10566000000E+00  0.10566000000E+00 0. -1.
     999900   -1    0    0    0    0 -0.00000000000E+00 -0.00000000000E+00 -0.74505805969E-08  0.93827000000E+00  0.93827000000E+00 0.  1.
     999902    2    1    2    0    0  0.19622354086E-01 -0.99363811496E-02  0.97091548630E-02  0.10198876179E+01  0.10196041962E+01 0.  0.
     999903    2    3    3    0    0 -0.59488475291E-01  0.87555450884E-01 -0.68521297933E-01  0.12754060892E+00  0.19146879164E-01 0.  0.
         14    1    1    2    0    0 -0.19622354086E-01  0.99363811496E-02 -0.97091548630E-02  0.24042382128E-01  0.00000000000E+00 0.  1.
     999901    1    3    3    0    0  0.79110829377E-01 -0.97491832034E-01  0.78230452796E-01  0.89234700895E+00  0.88000000000E+00 0. -1.
        -11    1    4    4    0    0 -0.20731972200E-01  0.44243645178E-01 -0.24709616928E-01  0.54755283761E-01  0.51100000000E-03 0. -1.
         11    1    4    4    0    0 -0.38756503091E-01  0.43311805706E-01 -0.43811681005E-01  0.72785325161E-01  0.51100000000E-03 0.  1.
</event>
<event>
 8    1  0.1092667E+005  0.1043930E+01  0.7957747E-01            NaN
         13   -1    0    0    0    0  0.00000000000E+00  0.00000000000E+00  0.74505805969E-08  0.10566000000E+00  0.10566000000E+00 0.  1.
     999900   -1    0    0    0    0 -0.00000000000E+00 -0.00000000000E+00 -0.74505805969E-08  0.93827000000E+00  0.93827000000E+00 0. -1.
     999902    2    1    2    0    0 -0.21129678832E-01 -0.61026087598E-02  0.29123351699E-02  0.10217447153E+01  0.10215038308E+01 0.  0.
     999903    2    3    3    0    0  0.90439484160E-01  0.64308776987E-01 -0.63525803812E-01  0.12943340881E+00  0.20063909726E-01 0.  0.
         14    1    1    2    0    0  0.21129678832E-01  0.61026087598E-02 -0.29123351699E-02  0.22185284704E-01  0.00000000000E+00 0.  1.
     999901    1    3    3    0    0 -0.11156916299E+00 -0.70411385746E-01  0.66438138982E-01  0.89231130649E+00  0.88000000000E+00 0.  1.
        -11    1    4    4    0    0  0.70566268116E-01  0.49798568272E-01 -0.58490638777E-01  0.10431160790E+00  0.51100000000E-03 0.  1.
         11    1    4    4    0    0  0.19873216043E-01  0.14510208714E-01 -0.50351650349E-02  0.25121800906E-01  0.51100000000E-03 0. -1.
</event>
<event>
 8    1  0.1092667E+005  0.1043930E+01  0.7957747E-01            NaN
         13   -1    0    0    0    0  0.00000000000E+00  0.00000000000E+00  0.74505805969E-08  0.10566000000E+00  0.10566000000E+00 0.  1.
     999900   -1    0    0    0    0 -0.00000000000E+00 -0.00000000000E+00 -0.74505805969E-08  0.93827000000E+00  0.93827000000E+00 0.  1.
     999902    2    1    2    0    0  0.50320224297E-02 -0.18261690444E-01 -0.12059170340E-01  0.10214748408E+01  0.10212279942E+01 0.  0.
     999903    2    3    3    0    0 -0.29393399620E-01 -0.11969429819E+00  0.46409609456E-01  0.13305361081E+00  0.18939760773E-01 0.  0.
         14    1    1    2    0    0 -0.50320224297E-02  0.18261690444E-01  0.12059170340E-01  0.22455159249E-01  0.00000000000E+00 0.  1.
     999901    1    3    3    0    0  0.34425422050E-01  0.10143260775E+00 -0.58468779797E-01  0.88842122994E+00  0.88000000000E+00 0. -1.
        -11    1    4    4    0    0 -0.12093917930E-01 -0.63964034755E-01  0.15094072200E-01  0.66826287713E-01  0.51100000000E-03 0. -1.
         11    1    4    4    0    0 -0.17299481691E-01 -0.55730263440E-01  0.31315537257E-01  0.66227323097E-01  0.51100000000E-03 0.  1.
</event>
<event>
 8    1  0.1092667E+005  0.1043930E+01  0.7957747E-01            NaN
         13   -1    0    0    0    0  0.00000000000E+00  0.00000000000E+00  0.74505805969E-08  0.10566000000E+00  0.10566000000E+00 0. -1.
     999900   -1    0    0    0    0 -0.00000000000E+00 -0.00000000000E+00 -0.74505805969E-08  0.93827000000E+00  0.93827000000E+00 0. -1.
     999902    2    1    2    0    0 -0.64232693557E-02 -0.47626762355E-02 -0.22586018742E-01  0.10199702480E+01  0.10196887942E+01 0.  0.
     999903    2    3    3    0    0  0.12458619285E+00 -0.24930907234E-01 -0.18499563832E-01  0.13003376944E+00  0.20573714987E-01 0.  0.
         14    1    1    2    0    0  0.64232693557E-02  0.47626762355E-02  0.22586018742E-01  0.23959752017E-01  0.00000000000E+00 0. -1.
     999901    1    3    3    0    0 -0.13100946220E+00  0.20168230998E-01 -0.40864549098E-02  0.88993647854E+00  0.88000000000E+00 0. -1.
        -11    1    4    4    0    0  0.69263588841E-01 -0.72611943175E-02 -0.18082199534E-01  0.71954129437E-01  0.51100000000E-03 0. -1.
         11    1    4    4    0    0  0.55322604009E-01 -0.17669712916E-01 -0.41736429774E-03  0.58079640002E-01  0.51100000000E-03 0.  1.
</event>
<event>
 8    1  0.1092667E+005  0.1043930E+01  0.7957747E-01            NaN
         13   -1    0    0    0    0  0.00000000000E+00  0.00000000000E+00  0.74505805969E-08  0.10566000000E+00  0.10566000000E+00 0.  1.
     999900   -1    0    0    0    0 -0.00000000000E+00 -0.00000000000E+00 -0.74505805969E-08  0.93827000000E+00  0.93827000000E+00 0. -1.
     999902    2    1    2    0    0 -0.56486737022E-03 -0.22864230437E-01 -0.10069457473E-01  0.10189402805E+01  0.10186337954E+01 0.  0.
     999903    2    3    3    0    0 -0.76512296717E-01  0.98232351772E-01  0.15589362100E-01  0.12703738818E+00  0.19792506185E-01 0.  0.
         14    1    1    2    0    0  0.56486737022E-03  0.22864230437E-01  0.10069457473E-01  0.24989719535E-01  0.00000000000E+00 0. -1.
     999901    1    3    3    0    0  0.75947429347E-01 -0.12109658221E+00 -0.25658819572E-01  0.89190289229E+00  0.88000000000E+00 0. -1.
        -11    1    4    4    0    0 -0.35354062277E-01  0.53916802144E-01  0.16477175731E-01  0.66548401288E-01  0.51100000000E-03 0.  1.
         11    1    4    4    0    0 -0.41158234440E-01  0.44315549628E-01 -0.88781363122E-03  0.60488986891E-01  0.51100000000E-03 0. -1.
</event>
<event>
 8    1  0.1092667E+005  0.1043930E+01  0.7957747E-01            NaN
         13   -1    0    0    0    0  0.00000000000E+00  0.00000000000E+00  0.74505805969E-08  0.10566000000E+00  0.10566000000E+00 0. -1.
     999900   -1    0    0    0    0 -0.00000000000E+00 -0.00000000000E+00 -0.74505805969E-08  0.93827000000E+00  0.93827000000E+00 0. -1.
     999902    2    1    2    0    0 -0.15816784061E-01  0.78670240206E-02  0.16038320483E-01  0.10200702337E+01  0.10197911518E+01 0.  0.
     999903    2    3    3    0    0 -0.19971701464E-01  0.91671536755E-01  0.91708980251E-01  0.13284618732E+00  0.20857442692E-01 0.  0.
         14    1    1    2    0    0  0.15816784061E-01 -0.78670240206E-02 -0.16038320483E-01  0.23859766321E-01  0.00000000000E+00 0.  1.
     999901    1    3    3    0    0  0.41549174029E-02 -0.83804512734E-01 -0.75670659768E-01  0.88722404636E+00  0.88000000000E+00 0. -1.
        -11    1    4    4    0    0 -0.19927377391E-01  0.47644596526E-01  0.55770108944E-01  0.76011013153E-01  0.51100000000E-03 0. -1.
         11    1    4    4    0    0 -0.44324073029E-04  0.44026940229E-01  0.35938871307E-01  0.56835174165E-01  0.51100000000E-03 0.  1.
</event>
<event>
 8    1  0.1092667E+005  0.1043930E+01  0.7957747E-01            NaN
         13   -1    0    0    0    0  0.00000000000E+00  0.00000000000E+00  0.74505805969E-08  0.10566000000E+00  0.10566000000E+00 0. -1.
     999900   -1    0    0    0    0 -0.00000000000E+00 -0.00000000000E+00 -0.74505805969E-08  0.93827000000E+00  0.93827000000E+00 0.  1.
     999902    2    1    2    0    0  0.98807171307E-02  0.19579016791E-01 -0.47336527408E-02  0.10214940035E+01  0.10212475828E+01 0.  0.
     999903    2    3    3    0    0  0.95041266123E-01 -0.84668477358E-01  0.21874244439E-01  0.13086061131E+00  0.21081359011E-01 0.  0.
         14    1    1    2    0    0 -0.98807171307E-02 -0.19579016791E-01  0.47336527408E-02  0.22435996474E-01  0.00000000000E+00 0.  1.
     999901    1    3    3    0    0 -0.85160548993E-01  0.10424749415E+00 -0.26607897180E-01  0.89063339222E+00  0.88000000000E+00 0. -1.
        -11    1    4    4    0    0  0.80334707444E-01 -0.63000665157E-01  0.11699013166E-01  0.10276126245E+00  0.51100000000E-03 0.  1.
         11    1    4    4    0    0  0.14706558679E-01 -0.21667812201E-01  0.10175231274E-01  0.28099348858E-01  0.51100000000E-03 0. -1.
</event>
<event>
 8    1  0.1092667E+005  0.1043930E+01  0.7957747E-01            NaN
         13   -1    0    0    0    0  0.00000000000E+00  0.00000000000E+00  0.74505805969E-08  0.10566000000E+00  0.10566000000E+00 0. -1.
     999900   -1    0    0    0    0 -0.00000000000E+00 -0.00000000000E+00 -0.74505805969E-08  0.93827000000E+00  0.93827000000E+00 0. -1.
     999902    2    1    2    0    0  0.14380539838E-01  0.10919617821E-01 -0.98199868240E-02  0.10233759220E+01  0.10231694912E+01 0.  0.
     999903    2    3    3    0    0  0.51723512445E-01  0.12212077808E+00 -0.19484276507E-01  0.13553945391E+00  0.20062411568E-01 0.  0.
         14    1    1    2    0    0 -0.14380539838E-01 -0.10919617821E-01  0.98199868240E-02  0.20554077956E-01  0.00000000000E+00 0. -1.
     999901    1    3    3    0    0 -0.37342972607E-01 -0.11120116026E+00  0.96642896829E-02  0.88783646813E+00  0.88000000000E+00 0. -1.
        -11    1    4    4    0    0  0.26821736356E-01  0.39493373842E-01 -0.45803135054E-02  0.47962198775E-01  0.51100000000E-03 0.  1.
         11    1    4    4    0    0  0.24901776088E-01  0.82627404238E-01 -0.14903963001E-01  0.87577255139E-01  0.51100000000E-03 0. -1.
</event>
<event>
 8    1  0.1092667E+005  0.1043930E+01  0.7957747E-01            NaN
         13   -1    0    0    0    0  0.00000000000E+00  0.00000000000E+00  0.74505805969E-08  0.10566000000E+00  0.10566000000E+00 0. -1.
     999900   -1    0    0    0    0 -0.00000000000E+00 -0.00000000000E+00 -0.74505805969E-08  0.93827000000E+00  0.93827000000E+00 0. -1.
     999902    2    1    2    0    0 -0.88634105848E-03 -0.70042652292E-02 -0.22531027776E-01  0.10203187200E+01  0.10200454881E+01 0.  0.
     999903    2    3    3    0    0 -0.12667943096E+00  0.21084346515E-01 -0.15028711444E-01  0.13089803417E+00  0.20401109929E-01 0.  0.
         14    1    1    2    0    0  0.88634105848E-03  0.70042652292E-02  0.22531027776E-01  0.23611280027E-01  0.00000000000E+00 0. -1.
     999901    1    3    3    0    0  0.12579308990E+00 -0.28088611745E-01 -0.75023163314E-02  0.88942068580E+00  0.88000000000E+00 0. -1.
        -11    1    4    4    0    0 -0.11253408218E+00  0.21356781998E-01 -0.73184253006E-02  0.11477740309E+00  0.51100000000E-03 0.  1.
         11    1    4    4    0    0 -0.14145348779E-01 -0.27243548300E-03 -0.77102861439E-02  0.16120631085E-01  0.51100000000E-03 0. -1.
</event>
<event>
 8    1  0.1092667E+005  0.1043930E+01  0.7957747E-01            NaN
         13   -1    0    0    0    0  0.00000000000E+00  0.00000000000E+00  0.74505805969E-08  0.10566000000E+00  0.10566000000E+00 0. -1.
     999900   -1    0    0    0    0 -0.00000000000E+00 -0.00000000000E+00 -0.74505805969E-08  0.93827000000E+00  0.93827000000E+00 0. -1.
     999902    2    1    2    0    0  0.84835475547E-02 -0.21026860673E-01  0.85730137729E-02  0.10196896202E+01  0.10194014545E+01 0.  0.
     999903    2    3    3    0    0  0.99057253536E-01 -0.60681103346E-01 -0.58460678240E-01  0.13161891858E+00  0.20281840281E-01 0.  0.
         14    1    1    2    0    0 -0.84835475547E-02  0.21026860673E-01 -0.85730137729E-02  0.24240379824E-01  0.00000000000E+00 0.  1.
     999901    1    3    3    0    0 -0.90573705981E-01  0.39654242673E-01  0.67033692013E-01  0.88807070160E+00  0.88000000000E+00 0.  1.
        -11    1    4    4    0    0  0.25431518136E-01 -0.25653962488E-01 -0.13956023632E-01  0.38728795781E-01  0.51100000000E-03 0.  1.
         11    1    4    4    0    0  0.73625735401E-01 -0.35027140858E-01 -0.44504654608E-01  0.92890122794E-01  0.51100000000E-03 0. -1.
</event>
<event>
 8    1  0.1092667E+005  0.1043930E+01  0.7957747E-01            NaN
         13   -1    0    0    0    0  0.00000000000E+00  0.00000000000E+00  0.74505805969E-08  0.10566000000E+00  0.10566000000E+00 0. -1.
     999900   -1    0    0    0    0 -0.00000000000E+00 -0.00000000000E+00 -0.74505805969E-08  0.93827000000E+00  0.93827000000E+00 0.  1.
     999902    2    1    2    0    0  0.38689983667E-02  0.97075178514E-02  0.19898485471E-01  0.10214543515E+01  0.10212070492E+01 0.  0.
     999903    2    3    3    0    0  0.87550008905E-01 -0.22645584851E-02  0.99339152410E-01  0.13384145069E+00  0.19368387544E-01 0.  0.
         14    1    1    2    0    0 -0.38689983667E-02 -0.97075178514E-02 -0.19898485471E-01  0.22475648494E-01  0.00000000000E+00 0.  1.
     999901    1    3    3    0    0 -0.83681010538E-01  0.11972076336E-01 -0.79440666940E-01  0.88761290082E+00  0.88000000000E+00 0.  1.
        -11    1    4    4    0    0  0.52434673722E-01  0.31162865736E-02  0.46416431606E-01  0.70098876556E-01  0.51100000000E-03 0. -1.
         11    1    4    4    0    0  0.35115335182E-01 -0.53808450586E-02  0.52922720804E-01  0.63742574131E-01  0.51100000000E-03 0.  1.
</event>
<event>
 8    1  0.1092667E+005  0.1043930E+01  0.7957747E-01            NaN
         13   -1    0    0    0    0  0.00000000000E+00  0.00000000000E+00  0.74505805969E-08  0.10566000000E+00  0.10566000000E+00 0.  1.
     999900   -1    0    0    0    0 -0.00000000000E+00 -0.00000000000E+00 -0.74505805969E-08  0.93827000000E+00  0.93827000000E+00 0.  1.
     999902    2    1    2    0    0 -0.17456062223E-01  0.11401390150E-01  0.13592530567E-01  0.10190409925E+01  0.10187370032E+01 0.  0.
     999903    2    3    3    0    0 -0.26641488166E-01 -0.12301237327E+00  0.11214764647E-02  0.12870006960E+00  0.26844689172E-01 0.  0.
         14    1    1    2    0    0  0.17456062223E-01 -0.11401390150E-01 -0.13592530567E-01  0.24889007471E-01  0.00000000000E+00 0. -1.
     999901    1    3    3    0    0  0.91854259434E-02  0.13441376342E+00  0.12471054102E-01  0.89034092293E+00  0.88000000000E+00 0.  1.
        -11    1    4    4    0    0 -0.79712633834E-02 -0.64992554399E-01  0.12583798784E-01  0.66679729154E-01  0.51100000000E-03 0.  1.
         11    1    4    4    0    0 -0.18670224783E-01 -0.58019818872E-01 -0.11462322319E-01  0.62020340449E-01  0.51100000000E-03 0. -1.
</event>
<event>
 8    1  0.1092667E+005  0.1043930E+01  0.7957747E-01            NaN
         13   -1    0    0    0    0  0.00000000000E+00  0.00000000000E+00  0.74505805969E-08  0.10566000000E+00  0.10566000000E+00 0.  1.
     999900   -1    0    0    0    0 -0.00000000000E+00 -0.00000000000E+00 -0.74505805969E-08  0.93827000000E+00  0.93827000000E+00 0.  1.
     999902    2    1    2    0    0 -0.19219025253E-01  0.11433386055E-01 -0.82484232751E-02  0.10200945278E+01  0.10198160206E+01 0.  0.
     999903    2    3    3    0    0  0.10366203220E+00 -0.38983635992E-01  0.60052418910E-01  0.12751028224E+00  0.19673288092E-01 0.  0.
         14    1    1    2    0    0  0.19219025253E-01 -0.11433386055E-01  0.82484232751E-02  0.23835472197E-01  0.00000000000E+00 0. -1.
     999901    1    3    3    0    0 -0.12288105745E+00  0.50417022047E-01 -0.68300842185E-01  0.89258424557E+00  0.88000000000E+00 0.  1.
        -11    1    4    4    0    0  0.63241780650E-01 -0.21462599760E-01  0.25381671481E-01  0.71446878003E-01  0.51100000000E-03 0. -1.
         11    1    4    4    0    0  0.40420251547E-01 -0.17521036232E-01  0.34670747429E-01  0.56063404232E-01  0.51100000000E-03 0.  1.
</event>
<event>
 8    1  0.1092667E+005  0.1043930E+01  0.7957747E-01            NaN
         13   -1    0    0    0    0  0.00000000000E+00  0.00000000000E+00  0.74505805969E-08  0.10566000000E+00  0.10566000000E+00 0.  1.
     999900   -1    0    0    0    0 -0.00000000000E+00 -0.00000000000E+00 -0.74505805969E-08  0.93827000000E+00  0.93827000000E+00 0.  1.
     999902    2    1    2    0    0 -0.19326274015E-01 -0.14376877865E-01  0.48571742576E-02  0.10193578282E+01  0.10190616224E+01 0.  0.
     999903    2    3    3    0    0 -0.10944451424E+00  0.27284876219E-01  0.65085891004E-01  0.13172924750E+00  0.19845787297E-01 0.  0.
         14    1    1    2    0    0  0.19326274015E-01  0.14376877865E-01 -0.48571742576E-02  0.24572171785E-01  0.00000000000E+00 0.  1.
     999901    1    3    3    0    0  0.90118240222E-01 -0.41661754084E-01 -0.60228716746E-01  0.88762858071E+00  0.88000000000E+00 0.  1.
        -11    1    4    4    0    0 -0.64184955435E-01  0.24737520265E-01  0.33774150681E-01  0.76632941926E-01  0.51100000000E-03 0. -1.
         11    1    4    4    0    0 -0.45259558802E-01  0.25473559543E-02  0.31311740323E-01  0.55096305578E-01  0.51100000000E-03 0.  1.
</event>
<event>
 8    1  0.1092667E+005  0.1043930E+01  0.7957747E-01            NaN
         13   -1    0    0    0    0  0.00000000000E+00  0.00000000000E+00  0.74505805969E-08  0.10566000000E+00  0.10566000000E+00 0.  1.
     999900   -1    0    0    0    0 -0.00000000000E+00 -0.00000000000E+00 -0.74505805969E-08  0.93827000000E+00  0.93827000000E+00 0. -1.
     999902    2    1    2    0    0  0.49766377768E-02 -0.17359031956E-01  0.16443246499E-01  0.10195069930E+01  0.10192144159E+01 0.  0.
     999903    2    3    3    0    0 -0.64777506781E-01 -0.18838313828E-01 -0.10715324998E+00  0.12813506005E+00  0.19640956735E-01 0.  0.
         14    1    1    2    0    0 -0.49766377768E-02  0.17359031956E-01 -0.16443246499E-01  0.24423006969E-01  0.00000000000E+00 0. -1.
     999901    1    3    3    0    0  0.69754144558E-01  0.14792818721E-02  0.12359649648E+00  0.89137193298E+00  0.88000000000E+00 0.  1.
        -11    1    4    4    0    0 -0.54311142317E-01 -0.17858646282E-01 -0.10067319498E+00  0.11577557918E+00  0.51100000000E-03 0. -1.
         11    1    4    4    0    0 -0.10466364464E-01 -0.97966754582E-03 -0.64800549970E-02  0.12359480869E-01  0.51100000000E-03 0.  1.
</event>
<event>
 8    1  0.1092667E+005  0.1043930E+01  0.7957747E-01            NaN
         13   -1    0    0    0    0  0.00000000000E+00  0.00000000000E+00  0.74505805969E-08  0.10566000000E+00  0.10566000000E+00 0. -1.
     999900   -1    0    0    0    0 -0.00000000000E+00 -0.00000000000E+00 -0.74505805969E-08  0.93827000000E+00  0.93827000000E+00 0.  1.
     999902    2    1    2    0    0  0.56390945693E-02  0.81578326081E-02  0.24287522860E-01  0.10176957974E+01  0.10173576080E+01 0.  0.
     999903    2    3    3    0    0 -0.61746432828E-01 -0.83479961427E-01  0.74127637584E-01  0.12897630753E+00  0.18932916425E-01 0.  0.
         14    1    1    2    0    0 -0.56390945693E-02 -0.81578326081E-02 -0.24287522860E-01  0.26234202620E-01  0.00000000000E+00 0.  1.
     999901    1    3    3    0    0  0.67385527397E-01  0.91637794035E-01 -0.49840114724E-01  0.88871948985E+00  0.88000000000E+00 0.  1.
        -11    1    4    4    0    0 -0.10726373301E-01 -0.28903756606E-01  0.21587267025E-01  0.37639785450E-01  0.51100000000E-03 0. -1.
         11    1    4    4    0    0 -0.51020059527E-01 -0.54576204821E-01  0.52540370559E-01  0.91336522083E-01  0.51100000000E-03 0.  1.
</event>
<event>
 8    1  0.1092667E+005  0.1043930E+01  0.7957747E-01            NaN
         13   -1    0    0    0    0  0.00000000000E+00  0.00000000000E+00  0.74505805969E-08  0.10566000000E+00  0.10566000000E+00 0. -1.
     999900   -1    0    0    0    0 -0.00000000000E+00 -0.00000000000E+00 -0.74505805969E-08  0.93827000000E+00  0.93827000000E+00 0. -1.
     999902    2    1    2    0    0  0.76217227465E-03 -0.52527305278E-02 -0.21424793575E-01  0.10218575315E+01  0.10216191173E+01 0.  0.
     999903    2    3    3    0    0 -0.11593154817E+00 -0.60241820058E-01 -0.63960896537E-02  0.13232558365E+00  0.19998734499E-01 0.  0.
         14    1    1    2    0    0 -0.76217227465E-03  0.52527305278E-02  0.21424793575E-01  0.22072468469E-01  0.00000000000E+00 0. -1.
     999901    1    3    3    0    0  0.11669372044E+00  0.54989089530E-01 -0.15028703921E-01  0.88953194788E+00  0.88000000000E+00 0.  1.
        -11    1    4    4    0    0 -0.69641687917E-01 -0.41508413143E-01  0.45420558615E-02  0.81202244119E-01  0.51100000000E-03 0.  1.
         11    1    4    4    0    0 -0.46289860250E-01 -0.18733406916E-01 -0.10938145515E-01  0.51123339532E-01  0.51100000000E-03 0. -1.
</event>
<event>
 8    1  0.1092667E+005  0.1043930E+01  0.7957747E-01            NaN
         13   -1    0    0    0    0  0.00000000000E+00  0.00000000000E+00  0.74505805969E-08  0.10566000000E+00  0.10566000000E+00 0.  1.
     999900   -1    0    0    0    0 -0.00000000000E+00 -0.00000000000E+00 -0.74505805969E-08  0.93827000000E+00  0.93827000000E+00 0.  1.
     999902    2    1    2    0    0 -0.11061194311E-01  0.36913691730E-02  0.19448583880E-01  0.10212535003E+01  0.10210017082E+01 0.  0.
     999903    2    3    3    0    0 -0.15381290997E-01  0.62178727564E-01 -0.11101467401E+00  0.12970423297E+00  0.19903565772E-01 0.  0.
         14    1    1    2    0    0  0.11061194311E-01 -0.36913691730E-02 -0.19448583880E-01  0.22676499749E-01  0.00000000000E+00 0. -1.
     999901    1    3    3    0    0  0.43200966857E-02 -0.58487358391E-01  0.13046325789E+00  0.89154926728E+00  0.88000000000E+00 0. -1.
        -11    1    4    4    0    0 -0.28932176034E-02  0.16809228229E-02 -0.16133986502E-01  0.16485231302E-01  0.51100000000E-03 0. -1.
         11    1    4    4    0    0 -0.12488073393E-01  0.60497804741E-01 -0.94880687510E-01  0.11321900167E+00  0.51100000000E-03 0.  1.
</event>
<event>
 8    1  0.1131928E+005  0.1043930E+01  0.7957747E-01            NaN
         13   -1    0    0    0    0  0.00000000000E+00  0.00000000000E+00  0.74505805969E-08  0.10566000000E+00  0.10566000000E+00 0.  1.
     999900   -1    0    0    0    0 -0.00000000000E+00 -0.00000000000E+00 -0.74505805969E-08  0.93827000000E+00  0.93827000000E+00 0. -1.
     999902    2    1    2    0    0  0.17080340613E-01 -0.21952227428E-03  0.16480006846E-01  0.10201944391E+01  0.10199182892E+01 0.  0.
     999903    2    3    3    0    0 -0.15206054315E-01 -0.12514074261E+00  0.28074645917E-01  0.13071023000E+00  0.20138245564E-01 0.  0.
         14    1    1    2    0    0 -0.17080340613E-01  0.21952227428E-03 -0.16480006846E-01  0.23735560897E-01  0.00000000000E+00 0. -1.
     999901    1    3    3    0    0  0.32286394928E-01  0.12492122034E+00 -0.11594639072E-01  0.88948420910E+00  0.88000000000E+00 0.  1.
        -11    1    4    4    0    0 -0.14523947371E-01 -0.51372269017E-01  0.17496917529E-01  0.56182366587E-01  0.51100000000E-03 0.  1.
         11    1    4    4    0    0 -0.68210694351E-03 -0.73768473593E-01  0.10577728388E-01  0.74527863414E-01  0.51100000000E-03 0. -1.
</event>
<event>
 8    1  0.1092667E+005  0.1043930E+01  0.7957747E-01            NaN
         13   -1    0    0    0    0  0.00000000000E+00  0.00000000000E+00  0.74505805969E-08  0.10566000000E+00  0.10566000000E+00 0.  1.
     999900   -1    0    0    0    0 -0.00000000000E+00 -0.00000000000E+00 -0.74505805969E-08  0.93827000000E+00  0.93827000000E+00 0. -1.
     999902    2    1    2    0    0 -0.17197208437E-01 -0.15261550391E-01 -0.38500162029E-04  0.10209373842E+01  0.10206784421E+01 0.  0.
     999903    2    3    3    0    0  0.92990403243E-01  0.86055090510E-01 -0.15623032624E-02  0.12829597051E+00  0.20117692681E-01 0.  0.
         14    1    1    2    0    0  0.17197208437E-01  0.15261550391E-01  0.38500162029E-04  0.22992615784E-01  0.00000000000E+00 0.  1.
     999901    1    3    3    0    0 -0.11018761168E+00 -0.10131664090E+00  0.15238031004E-02  0.89264141371E+00  0.88000000000E+00 0.  1.
        -11    1    4    4    0    0  0.83781031640E-02  0.17375899476E-01 -0.83107552952E-03  0.19314924353E-01  0.51100000000E-03 0.  1.
         11    1    4    4    0    0  0.84612300079E-01  0.68679191034E-01 -0.73122773286E-03  0.10898104615E+00  0.51100000000E-03 0. -1.
</event>
<event>
 8    1  0.1092667E+005  0.1043930E+01  0.7957747E-01            NaN
         13   -1    0    0    0    0  0.00000000000E+00  0.00000000000E+00  0.74505805969E-08  0.10566000000E+00  0.10566000000E+00 0.  1.
     999900   -1    0    0    0    0 -0.00000000000E+00 -0.00000000000E+00 -0.74505805969E-08  0.93827000000E+00  0.93827000000E+00 0. -1.
     999902    2    1    2    0    0 -0.17788805524E-01 -0.19563306198E-01  0.14620979845E-01  0.10137151427E+01  0.10132647497E+01 0.  0.
     999903    2    3    3    0    0  0.86598526892E-01 -0.83477535945E-01  0.30125704162E-01  0.12510828900E+00  0.16634964898E-01 0.  0.
         14    1    1    2    0    0  0.17788805524E-01  0.19563306198E-01 -0.14620979845E-01  0.30214857322E-01  0.00000000000E+00 0. -1.
     999901    1    3    3    0    0 -0.10438733242E+00  0.63914229747E-01 -0.15504724317E-01  0.88860685368E+00  0.88000000000E+00 0.  1.
        -11    1    4    4    0    0  0.60659921213E-01 -0.54786162935E-01  0.27871483323E-01  0.86361046742E-01  0.51100000000E-03 0. -1.
         11    1    4    4    0    0  0.25938605679E-01 -0.28691373010E-01  0.22542208383E-02  0.38747242255E-01  0.51100000000E-03 0.  1.
</event>
<event>
 8    1  0.1092667E+005  0.1043930E+01  0.7957747E-01            NaN
         13   -1    0    0    0    0  0.00000000000E+00  0.00000000000E+00  0.74505805969E-08  0.10566000000E+00  0.10566000000E+00 0.  1.
     999900   -1    0    0    0    0 -0.00000000000E+00 -0.00000000000E+00 -0.74505805969E-08  0.93827000000E+00  0.93827000000E+00 0. -1.
     999902    2    1    2    0    0  0.14924150547E-01 -0.14329706189E-01 -0.99092515086E-02  0.10209895551E+01  0.10207318000E+01 0.  0.
     999903    2    3    3    0    0 -0.17820131105E-02 -0.99270730552E-01 -0.86849449197E-01  0.13340076088E+00  0.19876686381E-01 0.  0.
         14    1    1    2    0    0 -0.14924150547E-01  0.14329706189E-01  0.99092515086E-02  0.22940444949E-01  0.00000000000E+00 0.  1.
     999901    1    3    3    0    0  0.16706163658E-01  0.84941024364E-01  0.76940197688E-01  0.88758879417E+00  0.88000000000E+00 0.  1.
        -11    1    4    4    0    0  0.55593214792E-02 -0.35632314419E-01 -0.41090498433E-01  0.54674107845E-01  0.51100000000E-03 0.  1.
         11    1    4    4    0    0 -0.73413345898E-02 -0.63638416134E-01 -0.45758950764E-01  0.78726653032E-01  0.51100000000E-03 0. -1.
</event>
<event>
 8    1  0.1092667E+005  0.1043930E+01  0.7957747E-01            NaN
         13   -1    0    0    0    0  0.00000000000E+00  0.00000000000E+00  0.74505805969E-08  0.10566000000E+00  0.10566000000E+00 0. -1.
     999900   -1    0    0    0    0 -0.00000000000E+00 -0.00000000000E+00 -0.74505805969E-08  0.93827000000E+00  0.93827000000E+00 0.  1.
     999902    2    1    2    0    0  0.79238207687E-02 -0.20164450289E-01 -0.99273307922E-02  0.10200984267E+01  0.10198200117E+01 0.  0.
     999903    2    3    3    0    0  0.12016999972E+00 -0.50781364270E-01  0.94500678031E-02  0.13222901978E+00  0.19381282196E-01 0.  0.
         14    1    1    2    0    0 -0.79238207687E-02  0.20164450289E-01  0.99273307922E-02  0.23831573336E-01  0.00000000000E+00 0. -1.
     999901    1    3    3    0    0 -0.11224617895E+00  0.30616913981E-01 -0.19377398595E-01  0.88786940689E+00  0.88000000000E+00 0.  1.
        -11    1    4    4    0    0  0.53711915224E-01 -0.15990882597E-01 -0.32849812379E-02  0.56140274189E-01  0.51100000000E-03 0.  1.
         11    1    4    4    0    0  0.66458084496E-01 -0.34790481673E-01  0.12735049041E-01  0.76088745587E-01  0.51100000000E-03 0. -1.
</event>
<event>
 8    1  0.1092667E+005  0.1043930E+01  0.7957747E-01            NaN
         13   -1    0    0    0    0  0.00000000000E+00  0.00000000000E+00  0.74505805969E-08  0.10566000000E+00  0.10566000000E+00 0.  1.
     999900   -1    0    0    0    0 -0.00000000000E+00 -0.00000000000E+00 -0.74505805969E-08  0.93827000000E+00  0.93827000000E+00 0. -1.
     999902    2    1    2    0    0 -0.17331895042E-01  0.16659000816E-01  0.51546404237E-02  0.10193436784E+01  0.10190471272E+01 0.  0.
     999903    2    3    3    0    0  0.44463213360E-02 -0.12568862832E+00  0.87573852561E-02  0.12763177533E+00  0.19894150269E-01 0.  0.
         14    1    1    2    0    0  0.17331895042E-01 -0.16659000816E-01 -0.51546404237E-02  0.24586321641E-01  0.00000000000E+00 0.  1.
     999901    1    3    3    0    0 -0.21778216378E-01  0.14234762914E+00 -0.36027448324E-02  0.89171190303E+00  0.88000000000E+00 0.  1.
        -11    1    4    4    0    0 -0.53592244372E-03 -0.67315101068E-01 -0.48187097443E-02  0.67491415226E-01  0.51100000000E-03 0. -1.
         11    1    4    4    0    0  0.49822437797E-02 -0.58373527254E-01  0.13576095000E-01  0.60140360105E-01  0.51100000000E-03 0.  1.
</event>
<event>
 8    1  0.1092667E+005  0.1043930E+01  0.7957747E-01            NaN
         13   -1    0    0    0    0  0.00000000000E+00  0.00000000000E+00  0.74505805969E-08  0.10566000000E+00  0.10566000000E+00 0. -1.
     999900   -1    0    0    0    0 -0.00000000000E+00 -0.00000000000E+00 -0.74505805969E-08  0.93827000000E+00  0.93827000000E+00 0.  1.
     999902    2    1    2    0    0  0.13866555494E-01  0.18341758936E-01  0.89099221618E-02  0.10192705557E+01  0.10189722162E+01 0.  0.
     999903    2    3    3    0    0 -0.10515454839E+00 -0.65726179005E-01 -0.15288895764E-01  0.12695949771E+00  0.22528960698E-01 0.  0.
         14    1    1    2    0    0 -0.13866555494E-01 -0.18341758936E-01 -0.89099221618E-02  0.24659444339E-01  0.00000000000E+00 0.  1.
     999901    1    3    3    0    0  0.11902110389E+00  0.84067937941E-01  0.24198817926E-01  0.89231105796E+00  0.88000000000E+00 0. -1.
        -11    1    4    4    0    0 -0.95468669556E-01 -0.50672993607E-01 -0.11946398095E-01  0.10874280066E+00  0.51100000000E-03 0. -1.
         11    1    4    4    0    0 -0.96858788353E-02 -0.15053185398E-01 -0.33424976685E-02  0.18216697042E-01  0.51100000000E-03 0.  1.
</event>
<event>
 8    1  0.1092667E+005  0.1043930E+01  0.7957747E-01            NaN
         13   -1    0    0    0    0  0.00000000000E+00  0.00000000000E+00  0.74505805969E-08  0.10566000000E+00  0.10566000000E+00 0. -1.
     999900   -1    0    0    0    0 -0.00000000000E+00 -0.00000000000E+00 -0.74505805969E-08  0.93827000000E+00  0.93827000000E+00 0. -1.
     999902    2    1    2    0    0  0.11673302709E-01 -0.18654103755E-01  0.86278802914E-02  0.10202935472E+01  0.10200197256E+01 0.  0.
     999903    2    3    3    0    0 -0.19198051338E-01 -0.44353589248E-02  0.12838931002E+00  0.13153147934E+00  0.20699699169E-01 0.  0.
         14    1    1    2    0    0 -0.11673302709E-01  0.18654103755E-01 -0.86278802914E-02  0.23636452808E-01  0.00000000000E+00 0.  1.
     999901    1    3    3    0    0  0.30871354047E-01 -0.14218744830E-01 -0.11976142973E+00  0.88876206785E+00  0.88000000000E+00 0. -1.
        -11    1    4    4    0    0 -0.73173804889E-02  0.81047834965E-02  0.39896241926E-01  0.41366687245E-01  0.51100000000E-03 0.  1.
         11    1    4    4    0    0 -0.11880670849E-01 -0.12540142421E-01  0.88493068093E-01  0.90164792094E-01  0.51100000000E-03 0. -1.
</event>
<event>
 8    1  0.1092667E+005  0.1043930E+01  0.7957747E-01            NaN
         13   -1    0    0    0    0  0.00000000000E+00  0.00000000000E+00  0.74505805969E-08  0.10566000000E+00  0.10566000000E+00 0.  1.
     999900   -1    0    0    0    0 -0.00000000000E+00 -0.00000000000E+00 -0.74505805969E-08  0.93827000000E+00  0.93827000000E+00 0. -1.
     999902    2    1    2    0    0 -0.19502541306E-01 -0.80199226889E-02  0.95860626226E-02  0.10207662163E+01  0.10205033599E+01 0.  0.
     999903    2    3    3    0    0 -0.77890886019E-01 -0.18426829548E-01  0.10433356735E+00  0.13369542312E+00  0.24133684255E-01 0.  0.
         14    1    1    2    0    0  0.19502541306E-01  0.80199226889E-02 -0.95860626226E-02  0.23163783670E-01  0.00000000000E+00 0.  1.
     999901    1    3    3    0    0  0.58388344713E-01  0.10406906859E-01 -0.94747504729E-01  0.88707079321E+00  0.88000000000E+00 0. -1.
        -11    1    4    4    0    0 -0.84296419692E-02 -0.90971995000E-02  0.24477407128E-01  0.27444899038E-01  0.51100000000E-03 0.  1.
         11    1    4    4    0    0 -0.69461244049E-01 -0.93296300475E-02  0.79856160223E-01  0.10625052408E+00  0.51100000000E-03 0. -1.
</event>
<event>
 8    1  0.1092667E+005  0.1043930E+01  0.7957747E-01            NaN
         13   -1    0    0    0    0  0.00000000000E+00  0.00000000000E+00  0.74505805969E-08  0.10566000000E+00  0.10566000000E+00 0.  1.
     999900   -1    0    0    0    0 -0.00000000000E+00 -0.00000000000E+00 -0.74505805969E-08  0.93827000000E+00  0.93827000000E+00 0.  1.
     999902    2    1    2    0    0 -0.14496058433E-01  0.40078558792E-02  0.14339553049E-01  0.10231496872E+01  0.10229386399E+01 0.  0.
     999903    2    3    3    0    0 -0.11117206586E+00 -0.19163657472E-01  0.72765458377E-01  0.13562686728E+00  0.19322556818E-01 0.  0.
         14    1    1    2    0    0  0.14496058433E-01 -0.40078558792E-02 -0.14339553049E-01  0.20780312810E-01  0.00000000000E+00 0. -1.
     999901    1    3    3    0    0  0.96676007423E-01  0.23171513352E-01 -0.58425905327E-01  0.88752281991E+00  0.88000000000E+00 0.  1.
        -11    1    4    4    0    0 -0.34858028774E-01 -0.14768102891E-01  0.20851041316E-01  0.43222749542E-01  0.51100000000E-03 0. -1.
         11    1    4    4    0    0 -0.76314037081E-01 -0.43955545812E-02  0.51914417061E-01  0.92404117741E-01  0.51100000000E-03 0.  1.
</event>
<event>
 8    1  0.1263071E+005  0.1043930E+01  0.7957747E-01            NaN
         13   -1    0    0    0    0  0.00000000000E+00  0.00000000000E+00  0.74505805969E-08  0.10566000000E+00  0.10566000000E+00 0. -1.
     999900   -1    0    0    0    0 -0.00000000000E+00 -0.00000000000E+00 -0.74505805969E-08  0.93827000000E+00  0.93827000000E+00 0. -1.
     999902    2    1    2    0    0 -0.10391702372E-01  0.22730491383E-02  0.23743689681E-01  0.10179123708E+01  0.10175798139E+01 0.  0.
     999903    2    3    3    0    0 -0.82252658103E-01  0.21375406069E-02 -0.94408154449E-01  0.12711280096E+00  0.21787512394E-01 0.  0.
         14    1    1    2    0    0  0.10391702372E-01 -0.22730491383E-02 -0.23743689681E-01  0.26017629220E-01  0.00000000000E+00 0.  1.
     999901    1    3    3    0    0  0.71860955732E-01  0.13550853137E-03  0.11815184413E+00  0.89079956982E+00  0.88000000000E+00 0.  1.
        -11    1    4    4    0    0 -0.31098145074E-01  0.11305527508E-01 -0.34600980860E-01  0.47878999329E-01  0.51100000000E-03 0. -1.
         11    1    4    4    0    0 -0.51154513029E-01 -0.91679869007E-02 -0.59807173589E-01  0.79233801630E-01  0.51100000000E-03 0.  1.
</event>
<event>
 8    1  0.1092667E+005  0.1043930E+01  0.7957747E-01            NaN
         13   -1    0    0    0    0  0.00000000000E+00  0.00000000000E+00  0.74505805969E-08  0.10566000000E+00  0.10566000000E+00 0.  1.
     999900   -1    0    0    0    0 -0.00000000000E+00 -0.00000000000E+00 -0.74505805969E-08  0.93827000000E+00  0.93827000000E+00 0. -1.
     999902    2    1    2    0    0  0.16424422327E-01  0.72181205561E-02  0.15542498370E-01  0.10201932738E+01  0.10199170965E+01 0.  0.
     999903    2    3    3    0    0 -0.67303693655E-01  0.85605677834E-01 -0.66079718519E-01  0.12900463341E+00  0.20433966456E-01 0.  0.
         14    1    1    2    0    0 -0.16424422327E-01 -0.72181205561E-02 -0.15542498370E-01  0.23736726158E-01  0.00000000000E+00 0. -1.
     999901    1    3    3    0    0  0.83728115981E-01 -0.78387557278E-01  0.81622216889E-01  0.89118864043E+00  0.88000000000E+00 0.  1.
        -11    1    4    4    0    0 -0.41785533330E-01  0.37773937139E-01 -0.37993465159E-01  0.67946049469E-01  0.51100000000E-03 0. -1.
         11    1    4    4    0    0 -0.25518160325E-01  0.47831740695E-01 -0.28086253360E-01  0.61058583943E-01  0.51100000000E-03 0.  1.
</event>
<event>
 8    1  0.1092667E+005  0.1043930E+01  0.7957747E-01            NaN
         13   -1    0    0    0    0  0.00000000000E+00  0.00000000000E+00  0.74505805969E-08  0.10566000000E+00  0.10566000000E+00 0.  1.
     999900   -1    0    0    0    0 -0.00000000000E+00 -0.00000000000E+00 -0.74505805969E-08  0.93827000000E+00  0.93827000000E+00 0.  1.
     999902    2    1    2    0    0 -0.20795768071E-01  0.12574128252E-01 -0.16974327195E-02  0.10195690897E+01  0.10192780164E+01 0.  0.
     999903    2    3    3    0    0 -0.11607353219E+00  0.32633814858E-01  0.51619435537E-01  0.13259505866E+00  0.19464139074E-01 0.  0.
         14    1    1    2    0    0  0.20795768071E-01 -0.12574128252E-01  0.16974327195E-02  0.24360910262E-01  0.00000000000E+00 0. -1.
     999901    1    3    3    0    0  0.95277764116E-01 -0.20059686606E-01 -0.53316868257E-01  0.88697403108E+00  0.88000000000E+00 0.  1.
        -11    1    4    4    0    0 -0.40374658471E-01  0.20511282954E-02  0.15150210589E-01  0.43175342220E-01  0.51100000000E-03 0.  1.
         11    1    4    4    0    0 -0.75698873716E-01  0.30582686563E-01  0.36469224949E-01  0.89419716443E-01  0.51100000000E-03 0. -1.
</event>
<event>
 8    1  0.1092667E+005  0.1043930E+01  0.7957747E-01            NaN
         13   -1    0    0    0    0  0.00000000000E+00  0.00000000000E+00  0.74505805969E-08  0.10566000000E+00  0.10566000000E+00 0.  1.
     999900   -1    0    0    0    0 -0.00000000000E+00 -0.00000000000E+00 -0.74505805969E-08  0.93827000000E+00  0.93827000000E+00 0.  1.
     999902    2    1    2    0    0  0.15584231618E-01 -0.24192866083E-02 -0.18302356621E-01  0.10197701680E+01  0.10194839372E+01 0.  0.
     999903    2    3    3    0    0 -0.65826008304E-01  0.83926191705E-01 -0.71824170211E-01  0.13019287891E+00  0.20366768752E-01 0.  0.
         14    1    1    2    0    0 -0.15584231618E-01  0.24192866083E-02  0.18302356621E-01  0.24159831967E-01  0.00000000000E+00 0.  1.
     999901    1    3    3    0    0  0.81410239922E-01 -0.86345478314E-01  0.53521813591E-01  0.88957728912E+00  0.88000000000E+00 0. -1.
        -11    1    4    4    0    0 -0.43677182329E-01  0.48296463905E-01 -0.54046583229E-01  0.84625876431E-01  0.51100000000E-03 0.  1.
         11    1    4    4    0    0 -0.22148825975E-01  0.35629727800E-01 -0.17777586982E-01  0.45567002481E-01  0.51100000000E-03 0. -1.
</event>
<event>
 8    1  0.1092667E+005  0.1043930E+01  0.7957747E-01            NaN
         13   -1    0    0    0    0  0.00000000000E+00  0.00000000000E+00  0.74505805969E-08  0.10566000000E+00  0.10566000000E+00 0.  1.
     999900   -1    0    0    0    0 -0.00000000000E+00 -0.00000000000E+00 -0.74505805969E-08  0.93827000000E+00  0.93827000000E+00 0. -1.
     999902    2    1    2    0    0  0.16988413525E-01  0.12590209426E-01 -0.11508559990E-01  0.10198558122E+01  0.10195716312E+01 0.  0.
     999903    2    3    3    0    0  0.27063848503E-01 -0.12370027423E+00 -0.16886640527E-01  0.12929108453E+00  0.19920245242E-01 0.  0.
         14    1    1    2    0    0 -0.16988413525E-01 -0.12590209426E-01  0.11508559990E-01  0.24074187848E-01  0.00000000000E+00 0. -1.
     999901    1    3    3    0    0 -0.10075434977E-01  0.13629048366E+00  0.53780805364E-02  0.89056472762E+00  0.88000000000E+00 0. -1.
        -11    1    4    4    0    0  0.65795502847E-02 -0.75623792333E-01 -0.10845872557E-01  0.76682087356E-01  0.51100000000E-03 0.  1.
         11    1    4    4    0    0  0.20484298218E-01 -0.48076481901E-01 -0.60407679697E-02  0.52608997179E-01  0.51100000000E-03 0. -1.
</event>
<event>
 8    1  0.1092667E+005  0.1043930E+01  0.7957747E-01            NaN
         13   -1    0    0    0    0  0.00000000000E+00  0.00000000000E+00  0.74505805969E-08  0.10566000000E+00  0.10566000000E+00 0. -1.
     999900   -1    0    0    0    0 -0.00000000000E+00 -0.00000000000E+00 -0.74505805969E-08  0.93827000000E+00  0.93827000000E+00 0.  1.
     999902    2    1    2    0    0 -0.13889403802E-01  0.18521203995E-01 -0.25949669780E-02  0.10206344127E+01  0.10203685216E+01 0.  0.
     999903    2    3    3    0    0 -0.61650646298E-02 -0.17799122792E-01 -0.12796701672E+00  0.13097325110E+00  0.20581990715E-01 0.  0.
         14    1    1    2    0    0  0.13889403802E-01 -0.18521203995E-01  0.25949669780E-02  0.23295587330E-01  0.00000000000E+00 0.  1.
     999901    1    3    3    0    0 -0.77243391726E-02  0.36320326787E-01  0.12537204974E+00  0.88966116157E+00  0.88000000000E+00 0. -1.
        -11    1    4    4    0    0 -0.49217836565E-02  0.13699857372E-04 -0.73189622101E-01  0.73356704168E-01  0.51100000000E-03 0. -1.
         11    1    4    4    0    0 -0.12432809733E-02 -0.17812822649E-01 -0.54777394616E-01  0.57616546930E-01  0.51100000000E-03 0.  1.
</event>
<event>
 8    1  0.1092667E+005  0.1043930E+01  0.7957747E-01            NaN
         13   -1    0    0    0    0  0.00000000000E+00  0.00000000000E+00  0.74505805969E-08  0.10566000000E+00  0.10566000000E+00 0.  1.
     999900   -1    0    0    0    0 -0.00000000000E+00 -0.00000000000E+00 -0.74505805969E-08  0.93827000000E+00  0.93827000000E+00 0.  1.
     999902    2    1    2    0    0 -0.10068916237E-01  0.22037847680E-01  0.12655365035E-02  0.10196678610E+01  0.10193791716E+01 0.  0.
     999903    2    3    3    0    0  0.23463778408E-01 -0.46305138448E-01  0.11653750397E+00  0.12889132798E+00  0.18364908161E-01 0.  0.
         14    1    1    2    0    0  0.10068916237E-01 -0.22037847680E-01 -0.12655365035E-02  0.24262138966E-01  0.00000000000E+00 0.  1.
     999901    1    3    3    0    0 -0.33532694645E-01  0.68342986128E-01 -0.11527196747E+00  0.89077653306E+00  0.88000000000E+00 0.  1.
        -11    1    4    4    0    0  0.41719205909E-02 -0.27484817704E-01  0.65910093635E-01  0.71534758612E-01  0.51100000000E-03 0. -1.
         11    1    4    4    0    0  0.19291857817E-01 -0.18820320744E-01  0.50627410336E-01  0.57356569364E-01  0.51100000000E-03 0.  1.
</event>
<event>
 8    1  0.1092667E+005  0.1043930E+01  0.7957747E-01            NaN
         13   -1    0    0    0    0  0.00000000000E+00  0.00000000000E+00  0.74505805969E-08  0.10566000000E+00  0.10566000000E+00 0.  1.
     999900   -1    0    0    0    0 -0.00000000000E+00 -0.00000000000E+00 -0.74505805969E-08  0.93827000000E+00  0.93827000000E+00 0. -1.
     999902    2    1    2    0    0  0.14061269296E-01 -0.19120905121E-01 -0.29118934041E-02  0.10200175047E+01  0.10197371733E+01 0.  0.
     999903    2    3    3    0    0 -0.93109742197E-01  0.51883312788E-01  0.67892301651E-01  0.12786255255E+00  0.19446477383E-01 0.  0.
         14    1    1    2    0    0 -0.14061269296E-01  0.19120905121E-01  0.29118934041E-02  0.23912495270E-01  0.00000000000E+00 0. -1.
     999901    1    3    3    0    0  0.10717101149E+00 -0.71004217909E-01 -0.70804195055E-01  0.89215495218E+00  0.88000000000E+00 0.  1.
        -11    1    4    4    0    0 -0.54900185975E-01  0.26265394428E-01  0.28100661300E-01  0.67035883309E-01  0.51100000000E-03 0. -1.
         11    1    4    4    0    0 -0.38209556222E-01  0.25617918360E-01  0.39791640351E-01  0.60826669238E-01  0.51100000000E-03 0.  1.
</event>
<event>
 8    1  0.1092667E+005  0.1043930E+01  0.7957747E-01            NaN
         13   -1    0    0    0    0  0.00000000000E+00  0.00000000000E+00  0.74505805969E-08  0.10566000000E+00  0.10566000000E+00 0.  1.
     999900   -1    0    0    0    0 -0.00000000000E+00 -0.00000000000E+00 -0.74505805969E-08  0.93827000000E+00  0.93827000000E+00 0. -1.
     999902    2    1    2    0    0 -0.21994194970E-01 -0.82965861339E-02  0.27701944064E-02  0.10202603585E+01  0.10199857583E+01 0.  0.
     999903    2    3    3    0    0  0.31888920347E-01 -0.12401141403E+00 -0.16952192843E-01  0.13083229275E+00  0.20832136993E-01 0.  0.
         14    1    1    2    0    0  0.21994194970E-01  0.82965861339E-02 -0.27701944064E-02  0.23669641546E-01  0.00000000000E+00 0. -1.
     999901    1    3    3    0    0 -0.53883115316E-01  0.11571482790E+00  0.19722387249E-01  0.88942806571E+00  0.88000000000E+00 0.  1.
        -11    1    4    4    0    0  0.30349000031E-02 -0.12169677908E-01 -0.82052690700E-02  0.14996640954E-01  0.51100000000E-03 0.  1.
         11    1    4    4    0    0  0.28854020344E-01 -0.11184173612E+00 -0.87469237726E-02  0.11583565179E+00  0.51100000000E-03 0. -1.
</event>
<event>
 8    1  0.1092667E+005  0.1043930E+01  0.7957747E-01            NaN
         13   -1    0    0    0    0  0.00000000000E+00  0.00000000000E+00  0.74505805969E-08  0.10566000000E+00  0.10566000000E+00 0.  1.
     999900   -1    0    0    0    0 -0.00000000000E+00 -0.00000000000E+00 -0.74505805969E-08  0.93827000000E+00  0.93827000000E+00 0.  1.
     999902    2    1    2    0    0  0.55287690296E-02  0.22934798775E-01  0.46826411284E-02  0.10198779853E+01  0.10195943338E+01 0.  0.
     999903    2    3    3    0    0  0.56279523432E-01  0.11397893930E+00  0.34353356258E-01  0.13322978794E+00  0.20283982499E-01 0.  0.
         14    1    1    2    0    0 -0.55287690296E-02 -0.22934798775E-01 -0.46826411284E-02  0.24052014672E-01  0.00000000000E+00 0.  1.
     999901    1    3    3    0    0 -0.50750754403E-01 -0.91044140527E-01 -0.29670715129E-01  0.88664819739E+00  0.88000000000E+00 0.  1.
        -11    1    4    4    0    0  0.19788601879E-01  0.51378839488E-01  0.23879576089E-01  0.60015574534E-01  0.51100000000E-03 0. -1.
         11    1    4    4    0    0  0.36490921554E-01  0.62600099813E-01  0.10473780169E-01  0.73214213405E-01  0.51100000000E-03 0.  1.
</event>
<event>
 8    1  0.1092667E+005  0.1043930E+01  0.7957747E-01            NaN
         13   -1    0    0    0    0  0.00000000000E+00  0.00000000000E+00  0.74505805969E-08  0.10566000000E+00  0.10566000000E+00 0. -1.
     999900   -1    0    0    0    0 -0.00000000000E+00 -0.00000000000E+00 -0.74505805969E-08  0.93827000000E+00  0.93827000000E+00 0.  1.
     999902    2    1    2    0    0  0.68951748310E-02  0.19761738041E-01  0.10999446910E-01  0.10202856020E+01  0.10200115941E+01 0.  0.
     999903    2    3    3    0    0  0.55226169224E-01 -0.16157633561E-01  0.11626574890E+00  0.13196860865E+00  0.24227885006E-01 0.  0.
         14    1    1    2    0    0 -0.68951748310E-02 -0.19761738041E-01 -0.10999446910E-01  0.23644398040E-01  0.00000000000E+00 0.  1.
     999901    1    3    3    0    0 -0.48330994393E-01  0.35919371602E-01 -0.10526630199E+00  0.88831699331E+00  0.88000000000E+00 0.  1.
        -11    1    4    4    0    0  0.28013470715E-01 -0.66589722010E-02  0.32716002607E-01  0.43585483820E-01  0.51100000000E-03 0. -1.
         11    1    4    4    0    0  0.27212698509E-01 -0.94986613596E-02  0.83549746291E-01  0.88383124826E-01  0.51100000000E-03 0.  1.
</event>
<event>
 8    1  0.1092667E+005  0.1043930E+01  0.7957747E-01            NaN
         13   -1    0    0    0    0  0.00000000000E+00  0.00000000000E+00  0.74505805969E-08  0.10566000000E+00  0.10566000000E+00 0.  1.
     999900   -1    0    0    0    0 -0.00000000000E+00 -0.00000000000E+00 -0.74505805969E-08  0.93827000000E+00  0.93827000000E+00 0. -1.
     999902    2    1    2    0    0 -0.15464978233E-01 -0.17363807822E-01 -0.55981141063E-02  0.10200133477E+01  0.10197329176E+01 0.  0.
     999903    2    3    3    0    0  0.85777031716E-01  0.27728826073E-01 -0.90196283952E-01  0.12903627702E+00  0.19707972565E-01 0.  0.
         14    1    1    2    0    0  0.15464978233E-01  0.17363807822E-01  0.55981141063E-02  0.23916652261E-01  0.00000000000E+00 0.  1.
     999901    1    3    3    0    0 -0.10124200995E+00 -0.45092633894E-01  0.84598169845E-01  0.89097707072E+00  0.88000000000E+00 0.  1.
        -11    1    4    4    0    0  0.66612266180E-01  0.19453644190E-01 -0.56934602165E-01  0.89763290507E-01  0.51100000000E-03 0.  1.
         11    1    4    4    0    0  0.19164765536E-01  0.82751818823E-02 -0.33261681787E-01  0.39272986511E-01  0.51100000000E-03 0. -1.
</event>
<event>
 8    1  0.1092667E+005  0.1043930E+01  0.7957747E-01            NaN
         13   -1    0    0    0    0  0.00000000000E+00  0.00000000000E+00  0.74505805969E-08  0.10566000000E+00  0.10566000000E+00 0. -1.
     999900   -1    0    0    0    0 -0.00000000000E+00 -0.00000000000E+00 -0.74505805969E-08  0.93827000000E+00  0.93827000000E+00 0.  1.
     999902    2    1    2    0    0  0.22352544203E-01 -0.73934776326E-02 -0.95971263923E-02  0.10185055122E+01  0.10181881328E+01 0.  0.
     999903    2    3    3    0    0 -0.65995414539E-01 -0.51015405646E-01 -0.96005584539E-01  0.12880069822E+00  0.20361268276E-01 0.  0.
         14    1    1    2    0    0 -0.22352544203E-01  0.73934776326E-02  0.95971263923E-02  0.25424487779E-01  0.00000000000E+00 0.  1.
     999901    1    3    3    0    0  0.88347958743E-01  0.43621928013E-01  0.86408458146E-01  0.88970481400E+00  0.88000000000E+00 0. -1.
        -11    1    4    4    0    0 -0.59800296894E-01 -0.36730240583E-01 -0.76058882620E-01  0.10349106642E+00  0.51100000000E-03 0. -1.
         11    1    4    4    0    0 -0.61951176458E-02 -0.14285165063E-01 -0.19946701919E-01  0.25309631802E-01  0.51100000000E-03 0.  1.
</event>
<event>
 8    1  0.1092667E+005  0.1043930E+01  0.7957747E-01            NaN
         13   -1    0    0    0    0  0.00000000000E+00  0.00000000000E+00  0.74505805969E-08  0.10566000000E+00  0.10566000000E+00 0. -1.
     999900   -1    0    0    0    0 -0.00000000000E+00 -0.00000000000E+00 -0.74505805969E-08  0.93827000000E+00  0.93827000000E+00 0. -1.
     999902    2    1    2    0    0  0.15446776637E-01 -0.38243422619E-02 -0.17591129811E-01  0.10202092001E+01  0.10199333976E+01 0.  0.
     999903    2    3    3    0    0 -0.34076699981E-01  0.68008415327E-01 -0.10525013480E+00  0.13156043875E+00  0.21075866092E-01 0.  0.
         14    1    1    2    0    0 -0.15446776637E-01  0.38243422619E-02  0.17591129811E-01  0.23720799949E-01  0.00000000000E+00 0. -1.
     999901    1    3    3    0    0  0.49523476619E-01 -0.71832757589E-01  0.87659004994E-01  0.88864876130E+00  0.88000000000E+00 0.  1.
        -11    1    4    4    0    0 -0.19585192333E-01  0.32740025331E-01 -0.69529679044E-01  0.79310317149E-01  0.51100000000E-03 0.  1.
         11    1    4    4    0    0 -0.14491507648E-01  0.35268389996E-01 -0.35720455761E-01  0.52250121604E-01  0.51100000000E-03 0. -1.
</event>
<event>
 8    1  0.1092667E+005  0.1043930E+01  0.7957747E-01            NaN
         13   -1    0    0    0    0  0.00000000000E+00  0.00000000000E+00  0.74505805969E-08  0.10566000000E+00  0.10566000000E+00 0.  1.
     999900   -1    0    0    0    0 -0.00000000000E+00 -0.00000000000E+00 -0.74505805969E-08  0.93827000000E+00  0.93827000000E+00 0.  1.
     999902    2    1    2    0    0  0.24582081951E-02 -0.21238799162E-01  0.10153848449E-01  0.10202608214E+01  0.10199862321E+01 0.  0.
     999903    2    3    3    0    0 -0.12193111298E+00  0.19887581990E-01  0.36096478658E-01  0.13018380085E+00  0.19548759626E-01 0.  0.
         14    1    1    2    0    0 -0.24582081951E-02  0.21238799162E-01 -0.10153848449E-01  0.23669178602E-01  0.00000000000E+00 0. -1.
     999901    1    3    3    0    0  0.12438932117E+00 -0.41126381152E-01 -0.25942630209E-01  0.89007702055E+00  0.88000000000E+00 0.  1.
        -11    1    4    4    0    0 -0.43032613834E-01  0.15498820720E-02  0.47410201510E-02  0.43323739230E-01  0.51100000000E-03 0.  1.
         11    1    4    4    0    0 -0.78898499142E-01  0.18337699918E-01  0.31355458507E-01  0.86860061618E-01  0.51100000000E-03 0. -1.
</event>
<event>
 8    1  0.1092667E+005  0.1043930E+01  0.7957747E-01            NaN
         13   -1    0    0    0    0  0.00000000000E+00  0.00000000000E+00  0.74505805969E-08  0.10566000000E+00  0.10566000000E+00 0.  1.
     999900   -1    0    0    0    0 -0.00000000000E+00 -0.00000000000E+00 -0.74505805969E-08  0.93827000000E+00  0.93827000000E+00 0.  1.
     999902    2    1    2    0    0  0.25217084235E-02 -0.30499314376E-02 -0.23041737454E-01  0.10205508905E+01  0.10202830673E+01 0.  0.
     999903    2    3    3    0    0 -0.44558791550E-01 -0.11377816917E+00  0.39660962516E-01  0.13015269606E+00  0.20875216410E-01 0.  0.
         14    1    1    2    0    0 -0.25217084235E-02  0.30499314376E-02  0.23041737454E-01  0.23379109479E-01  0.00000000000E+00 0.  1.
     999901    1    3    3    0    0  0.47080499973E-01  0.11072823774E+00 -0.62702699969E-01  0.89039819446E+00  0.88000000000E+00 0.  1.
        -11    1    4    4    0    0 -0.29949817572E-01 -0.58613814366E-01  0.29730028571E-01  0.72226771539E-01  0.51100000000E-03 0.  1.
         11    1    4    4    0    0 -0.14608973978E-01 -0.55164354808E-01  0.99309339443E-02  0.57925924525E-01  0.51100000000E-03 0. -1.
</event>
<event>
 8    1  0.1092667E+005  0.1043930E+01  0.7957747E-01            NaN
         13   -1    0    0    0    0  0.00000000000E+00  0.00000000000E+00  0.74505805969E-08  0.10566000000E+00  0.10566000000E+00 0.  1.
     999900   -1    0    0    0    0 -0.00000000000E+00 -0.00000000000E+00 -0.74505805969E-08  0.93827000000E+00  0.93827000000E+00 0. -1.
     999902    2    1    2    0    0  0.62403117273E-02  0.13774021855E-01 -0.18144308478E-01  0.10203104933E+01  0.10200370687E+01 0.  0.
     999903    2    3    3    0    0 -0.44226528338E-01 -0.34424311051E-01 -0.11763735053E+00  0.13195873486E+00  0.20821682562E-01 0.  0.
         14    1    1    2    0    0 -0.62403117273E-02 -0.13774021855E-01  0.18144308478E-01  0.23619506741E-01  0.00000000000E+00 0.  1.
     999901    1    3    3    0    0  0.50466840066E-01  0.48198332906E-01  0.99493042052E-01  0.88835175840E+00  0.88000000000E+00 0.  1.
        -11    1    4    4    0    0 -0.76499031665E-02 -0.17125305071E-01 -0.46064382663E-01  0.49739175339E-01  0.51100000000E-03 0.  1.
         11    1    4    4    0    0 -0.36576625172E-01 -0.17299005980E-01 -0.71572967867E-01  0.82219559517E-01  0.51100000000E-03 0. -1.
</event>
<event>
 8    1  0.1092667E+005  0.1043930E+01  0.7957747E-01            NaN
         13   -1    0    0    0    0  0.00000000000E+00  0.00000000000E+00  0.74505805969E-08  0.10566000000E+00  0.10566000000E+00 0.  1.
     999900   -1    0    0    0    0 -0.00000000000E+00 -0.00000000000E+00 -0.74505805969E-08  0.93827000000E+00  0.93827000000E+00 0. -1.
     999902    2    1    2    0    0  0.10201145734E-02  0.21482281960E-01 -0.10418479252E-01  0.10200328499E+01  0.10197528824E+01 0.  0.
     999903    2    3    3    0    0  0.10260081916E+00 -0.16588093987E-01 -0.76992453713E-01  0.13087589688E+00  0.19964205465E-01 0.  0.
         14    1    1    2    0    0 -0.10201145734E-02 -0.21482281960E-01  0.10418479252E-01  0.23897150078E-01  0.00000000000E+00 0.  1.
     999901    1    3    3    0    0 -0.10158070459E+00  0.38070375947E-01  0.66573974461E-01  0.88915695304E+00  0.88000000000E+00 0.  1.
        -11    1    4    4    0    0  0.36163706326E-01 -0.86366309185E-02 -0.16532120800E-01  0.40693699611E-01  0.51100000000E-03 0. -1.
         11    1    4    4    0    0  0.66437112837E-01 -0.79514630685E-02 -0.60460332913E-01  0.90182197267E-01  0.51100000000E-03 0.  1.
</event>
<event>
 8    1  0.1092667E+005  0.1043930E+01  0.7957747E-01            NaN
         13   -1    0    0    0    0  0.00000000000E+00  0.00000000000E+00  0.74505805969E-08  0.10566000000E+00  0.10566000000E+00 0.  1.
     999900   -1    0    0    0    0 -0.00000000000E+00 -0.00000000000E+00 -0.74505805969E-08  0.93827000000E+00  0.93827000000E+00 0. -1.
     999902    2    1    2    0    0  0.11675066126E-01 -0.13764580643E-01  0.12255658931E-01  0.10221132169E+01  0.10218803531E+01 0.  0.
     999903    2    3    3    0    0  0.98166756568E-01 -0.89458876017E-01 -0.40300519220E-02  0.13448961240E+00  0.20775272142E-01 0.  0.
         14    1    1    2    0    0 -0.11675066126E-01  0.13764580643E-01 -0.12255658931E-01  0.21816783108E-01  0.00000000000E+00 0.  1.
     999901    1    3    3    0    0 -0.86491690442E-01  0.75694295374E-01  0.16285710853E-01  0.88762360449E+00  0.88000000000E+00 0.  1.
        -11    1    4    4    0    0  0.53675687005E-01 -0.58275259533E-01 -0.98743530912E-02  0.79842652881E-01  0.51100000000E-03 0. -1.
         11    1    4    4    0    0  0.44491069563E-01 -0.31183616484E-01  0.58443011692E-02  0.54646959522E-01  0.51100000000E-03 0.  1.
</event>
<event>
 8    1  0.1092667E+005  0.1043930E+01  0.7957747E-01            NaN
         13   -1    0    0    0    0  0.00000000000E+00  0.00000000000E+00  0.74505805969E-08  0.10566000000E+00  0.10566000000E+00 0.  1.
     999900   -1    0    0    0    0 -0.00000000000E+00 -0.00000000000E+00 -0.74505805969E-08  0.93827000000E+00  0.93827000000E+00 0.  1.
     999902    2    1    2    0    0  0.16096720125E-02  0.21872752731E-01  0.11000823878E-01  0.10193937720E+01  0.10190984427E+01 0.  0.
     999903    2    3    3    0    0 -0.11955400409E+00  0.13977456514E-01  0.46174629500E-01  0.13036049443E+00  0.19319236932E-01 0.  0.
         14    1    1    2    0    0 -0.16096720125E-02 -0.21872752731E-01 -0.11000823878E-01  0.24536227950E-01  0.00000000000E+00 0. -1.
     999901    1    3    3    0    0  0.12116367610E+00  0.78952962179E-02 -0.35173805623E-01  0.88903327762E+00  0.88000000000E+00 0. -1.
        -11    1    4    4    0    0 -0.32867851267E-01  0.71009872282E-02  0.21694919597E-01  0.40020623731E-01  0.51100000000E-03 0. -1.
         11    1    4    4    0    0 -0.86686152819E-01  0.68764692854E-02  0.24479709904E-01  0.90339870702E-01  0.51100000000E-03 0.  1.
</event>
<event>
 8    1  0.1092667E+005  0.1043930E+01  0.7957747E-01            NaN
         13   -1    0    0    0    0  0.00000000000E+00  0.00000000000E+00  0.74505805969E-08  0.10566000000E+00  0.10566000000E+00 0. -1.
     999900   -1    0    0    0    0 -0.00000000000E+00 -0.00000000000E+00 -0.74505805969E-08  0.93827000000E+00  0.93827000000E+00 0. -1.
     999902    2    1    2    0    0 -0.29308955017E-02  0.17932947828E-01 -0.14360617206E-01  0.10207695144E+01  0.10205067337E+01 0.  0.
     999903    2    3    3    0    0  0.80470219604E-01 -0.56594390416E-01  0.80185927502E-01  0.12866575404E+00  0.21135563021E-01 0.  0.
         14    1    1    2    0    0  0.29308955017E-02 -0.17932947828E-01  0.14360617206E-01  0.23160485590E-01  0.00000000000E+00 0.  1.
     999901    1    3    3    0    0 -0.83401115106E-01  0.74527338244E-01 -0.94546544708E-01  0.89210376037E+00  0.88000000000E+00 0. -1.
        -11    1    4    4    0    0  0.41246439454E-01 -0.41054182581E-01  0.50771375073E-01  0.77231524152E-01  0.51100000000E-03 0. -1.
         11    1    4    4    0    0  0.39223780150E-01 -0.15540207835E-01  0.29414552429E-01  0.51434229890E-01  0.51100000000E-03 0.  1.
</event>
<event>
 8    1  0.1092667E+005  0.1043930E+01  0.7957747E-01            NaN
         13   -1    0    0    0    0  0.00000000000E+00  0.00000000000E+00  0.74505805969E-08  0.10566000000E+00  0.10566000000E+00 0. -1.
     999900   -1    0    0    0    0 -0.00000000000E+00 -0.00000000000E+00 -0.74505805969E-08  0.93827000000E+00  0.93827000000E+00 0.  1.
     999902    2    1    2    0    0 -0.72154219291E-02 -0.13525140250E-01 -0.16038614859E-01  0.10217437678E+01  0.10215028625E+01 0.  0.
     999903    2    3    3    0    0  0.43221661544E-01 -0.28020846984E-01 -0.12218068264E+00  0.13381349833E+00  0.18018136177E-01 0.  0.
         14    1    1    2    0    0  0.72154219291E-02  0.13525140250E-01  0.16038614859E-01  0.22186232195E-01  0.00000000000E+00 0. -1.
     999901    1    3    3    0    0 -0.50437083473E-01  0.14495706734E-01  0.10614206778E+00  0.88793026948E+00  0.88000000000E+00 0. -1.
        -11    1    4    4    0    0  0.36126002926E-01 -0.19496133420E-01 -0.76689669242E-01  0.86987089819E-01  0.51100000000E-03 0.  1.
         11    1    4    4    0    0  0.70956586172E-02 -0.85247135643E-02 -0.45491013400E-01  0.46826408508E-01  0.51100000000E-03 0. -1.
</event>
<event>
 8    1  0.1092667E+005  0.1043930E+01  0.7957747E-01            NaN
         13   -1    0    0    0    0  0.00000000000E+00  0.00000000000E+00  0.74505805969E-08  0.10566000000E+00  0.10566000000E+00 0. -1.
     999900   -1    0    0    0    0 -0.00000000000E+00 -0.00000000000E+00 -0.74505805969E-08  0.93827000000E+00  0.93827000000E+00 0. -1.
     999902    2    1    2    0    0  0.21710011098E-01  0.67636185050E-02  0.51208061949E-02  0.10206213369E+01  0.10203551439E+01 0.  0.
     999903    2    3    3    0    0 -0.14503192482E-01 -0.58852361865E-02  0.12877094755E+00  0.13114916364E+00  0.19317546235E-01 0.  0.
         14    1    1    2    0    0 -0.21710011098E-01 -0.67636185050E-02 -0.51208061949E-02  0.23308663051E-01  0.00000000000E+00 0. -1.
     999901    1    3    3    0    0  0.36213203580E-01  0.12648854691E-01 -0.12365014136E+00  0.88947217331E+00  0.88000000000E+00 0. -1.
        -11    1    4    4    0    0 -0.13719470310E-01 -0.30743153750E-02  0.41347466612E-01  0.43675501105E-01  0.51100000000E-03 0.  1.
         11    1    4    4    0    0 -0.78372217243E-03 -0.28109208114E-02  0.87423480939E-01  0.87473662532E-01  0.51100000000E-03 0. -1.
</event>
<event>
 8    1  0.1092667E+005  0.1043930E+01  0.7957747E-01            NaN
         13   -1    0    0    0    0  0.00000000000E+00  0.00000000000E+00  0.74505805969E-08  0.10566000000E+00  0.10566000000E+00 0.  1.
     999900   -1    0    0    0    0 -0.00000000000E+00 -0.00000000000E+00 -0.74505805969E-08  0.93827000000E+00  0.93827000000E+00 0.  1.
     999902    2    1    2    0    0 -0.39276166474E-02 -0.68502303862E-02  0.22195427776E-01  0.10203717988E+01  0.10200998083E+01 0.  0.
     999903    2    3    3    0    0 -0.11923871212E+00 -0.48693247179E-01  0.19983746456E-01  0.13186047175E+00  0.19973259589E-01 0.  0.
         14    1    1    2    0    0  0.39276166474E-02  0.68502303862E-02 -0.22195427776E-01  0.23558201184E-01  0.00000000000E+00 0. -1.
     999901    1    3    3    0    0  0.11531109547E+00  0.41843016792E-01  0.22116813201E-02  0.88851132707E+00  0.88000000000E+00 0. -1.
        -11    1    4    4    0    0 -0.40176184937E-01 -0.26064850254E-01  0.37927870012E-02  0.48043195242E-01  0.51100000000E-03 0. -1.
         11    1    4    4    0    0 -0.79062527182E-01 -0.22628396925E-01  0.16190959455E-01  0.83817276506E-01  0.51100000000E-03 0.  1.
</event>
<event>
 8    1  0.1092667E+005  0.1043930E+01  0.7957747E-01            NaN
         13   -1    0    0    0    0  0.00000000000E+00  0.00000000000E+00  0.74505805969E-08  0.10566000000E+00  0.10566000000E+00 0. -1.
     999900   -1    0    0    0    0 -0.00000000000E+00 -0.00000000000E+00 -0.74505805969E-08  0.93827000000E+00  0.93827000000E+00 0.  1.
     999902    2    1    2    0    0 -0.18620817162E-01  0.54631060034E-02 -0.12739966141E-01  0.10207160581E+01  0.10204520490E+01 0.  0.
     999903    2    3    3    0    0  0.99224655220E-01  0.46936869787E-01 -0.67651632871E-01  0.13019771494E+00  0.18058227970E-01 0.  0.
         14    1    1    2    0    0  0.18620817162E-01 -0.54631060034E-02  0.12739966141E-01  0.23213941851E-01  0.00000000000E+00 0. -1.
     999901    1    3    3    0    0 -0.11784547238E+00 -0.41473763784E-01  0.54911666730E-01  0.89051834321E+00  0.88000000000E+00 0. -1.
        -11    1    4    4    0    0  0.43921184731E-01  0.22283953819E-01 -0.40808787454E-01  0.63962983987E-01  0.51100000000E-03 0. -1.
         11    1    4    4    0    0  0.55303470488E-01  0.24652915969E-01 -0.26842845417E-01  0.66234730956E-01  0.51100000000E-03 0.  1.
</event>
<event>
 8    1  0.1092667E+005  0.1043930E+01  0.7957747E-01            NaN
         13   -1    0    0    0    0  0.00000000000E+00  0.00000000000E+00  0.74505805969E-08  0.10566000000E+00  0.10566000000E+00 0. -1.
     999900   -1    0    0    0    0 -0.00000000000E+00 -0.00000000000E+00 -0.74505805969E-08  0.93827000000E+00  0.93827000000E+00 0. -1.
     999902    2    1    2    0    0 -0.18879538728E-01 -0.77344076496E-02  0.11801807027E-01  0.10203600892E+01  0.10200878251E+01 0.  0.
     999903    2    3    3    0    0  0.35359234712E-01 -0.94725496333E-01 -0.78978223131E-01  0.12977022407E+00  0.19482201941E-01 0.  0.
         14    1    1    2    0    0  0.18879538728E-01  0.77344076496E-02 -0.11801807027E-01  0.23569910763E-01  0.00000000000E+00 0.  1.
     999901    1    3    3    0    0 -0.54238773440E-01  0.86991088684E-01  0.90780030157E-01  0.89058986516E+00  0.88000000000E+00 0.  1.
        -11    1    4    4    0    0 -0.98599867578E-03 -0.16607658213E-01 -0.15576030703E-01  0.22796060146E-01  0.51100000000E-03 0. -1.
         11    1    4    4    0    0  0.36345233388E-01 -0.78117838120E-01 -0.63402192427E-01  0.10697416393E+00  0.51100000000E-03 0.  1.
</event>
<event>
 8    1  0.1092667E+005  0.1043930E+01  0.7957747E-01            NaN
         13   -1    0    0    0    0  0.00000000000E+00  0.00000000000E+00  0.74505805969E-08  0.10566000000E+00  0.10566000000E+00 0.  1.
     999900   -1    0    0    0    0 -0.00000000000E+00 -0.00000000000E+00 -0.74505805969E-08  0.93827000000E+00  0.93827000000E+00 0.  1.
     999902    2    1    2    0    0 -0.10538384712E-02  0.12452159960E-01  0.21970091080E-01  0.10186544829E+01  0.10183408583E+01 0.  0.
     999903    2    3    3    0    0 -0.68886848525E-01 -0.35150037508E-01 -0.98465947596E-01  0.12659387628E+00  0.18696086178E-01 0.  0.
         14    1    1    2    0    0  0.10538384712E-02 -0.12452159960E-01 -0.21970091080E-01  0.25275517111E-01  0.00000000000E+00 0. -1.
     999901    1    3    3    0    0  0.67833010054E-01  0.47602197469E-01  0.12043603868E+00  0.89206060661E+00  0.88000000000E+00 0. -1.
        -11    1    4    4    0    0 -0.20967351355E-01 -0.19322995277E-01 -0.43070693572E-01  0.51656110336E-01  0.51100000000E-03 0.  1.
         11    1    4    4    0    0 -0.47919497170E-01 -0.15827042231E-01 -0.55395254024E-01  0.74937765941E-01  0.51100000000E-03 0. -1.
</event>
<event>
 8    1  0.1092667E+005  0.1043930E+01  0.7957747E-01            NaN
         13   -1    0    0    0    0  0.00000000000E+00  0.00000000000E+00  0.74505805969E-08  0.10566000000E+00  0.10566000000E+00 0.  1.
     999900   -1    0    0    0    0 -0.00000000000E+00 -0.00000000000E+00 -0.74505805969E-08  0.93827000000E+00  0.93827000000E+00 0. -1.
     999902    2    1    2    0    0 -0.30224067134E-02  0.36934221494E-02 -0.24270738642E-01  0.10191944979E+01  0.10188942926E+01 0.  0.
     999903    2    3    3    0    0 -0.63600291731E-01 -0.33270605174E-01  0.10264315241E+00  0.12726223859E+00  0.22541747015E-01 0.  0.
         14    1    1    2    0    0  0.30224067134E-02 -0.36934221494E-02  0.24270738642E-01  0.24735502092E-01  0.00000000000E+00 0.  1.
     999901    1    3    3    0    0  0.60577885018E-01  0.36964027323E-01 -0.12691389105E+00  0.89193225932E+00  0.88000000000E+00 0. -1.
        -11    1    4    4    0    0 -0.39369203358E-01 -0.25997806792E-01  0.49396560560E-01  0.68308867998E-01  0.51100000000E-03 0.  1.
         11    1    4    4    0    0 -0.24231088373E-01 -0.72727983812E-02  0.53246591845E-01  0.58953370592E-01  0.51100000000E-03 0. -1.
</event>
<event>
 8    1  0.1092667E+005  0.1043930E+01  0.7957747E-01            NaN
         13   -1    0    0    0    0  0.00000000000E+00  0.00000000000E+00  0.74505805969E-08  0.10566000000E+00  0.10566000000E+00 0.  1.
     999900   -1    0    0    0    0 -0.00000000000E+00 -0.00000000000E+00 -0.74505805969E-08  0.93827000000E+00  0.93827000000E+00 0. -1.
     999902    2    1    2    0    0 -0.21377615224E-01 -0.35195467750E-02  0.82019766079E-02  0.10207640322E+01  0.10205011256E+01 0.  0.
     999903    2    3    3    0    0 -0.12490063265E+00 -0.28418655394E-01  0.34426334789E-01  0.13395813594E+00  0.18756909320E-01 0.  0.
         14    1    1    2    0    0  0.21377615224E-01  0.35195467750E-02 -0.82019766079E-02  0.23165967764E-01  0.00000000000E+00 0. -1.
     999901    1    3    3    0    0  0.10352301742E+00  0.24899108619E-01 -0.26224358181E-01  0.88680589630E+00  0.88000000000E+00 0.  1.
        -11    1    4    4    0    0 -0.98559428550E-01 -0.25001656130E-01  0.19667262883E-01  0.10356691613E+00  0.51100000000E-03 0.  1.
         11    1    4    4    0    0 -0.26341204096E-01 -0.34169992636E-02  0.14759071906E-01  0.30391219813E-01  0.51100000000E-03 0. -1.
</event>
<event>
 8    1  0.1092667E+005  0.1043930E+01  0.7957747E-01            NaN
         13   -1    0    0    0    0  0.00000000000E+00  0.00000000000E+00  0.74505805969E-08  0.10566000000E+00  0.10566000000E+00 0. -1.
     999900   -1    0    0    0    0 -0.00000000000E+00 -0.00000000000E+00 -0.74505805969E-08  0.93827000000E+00  0.93827000000E+00 0. -1.
     999902    2    1    2    0    0  0.15944505790E-01 -0.18098902858E-01 -0.11067530559E-02  0.10197841421E+01  0.10194982462E+01 0.  0.
     999903    2    3    3    0    0 -0.24800741847E-01 -0.12373004286E+00 -0.32592827974E-01  0.13197251468E+00  0.20742514128E-01 0.  0.
         14    1    1    2    0    0 -0.15944505790E-01  0.18098902858E-01  0.11067530559E-02  0.24145857862E-01  0.00000000000E+00 0. -1.
     999901    1    3    3    0    0  0.40745247637E-01  0.10563114000E+00  0.31486074918E-01  0.88781162746E+00  0.88000000000E+00 0.  1.
        -11    1    4    4    0    0 -0.10659406547E-01 -0.62771757011E-01 -0.26944816864E-01  0.69138995531E-01  0.51100000000E-03 0. -1.
         11    1    4    4    0    0 -0.14141335299E-01 -0.60958285849E-01 -0.56480111101E-02  0.62833519146E-01  0.51100000000E-03 0.  1.
</event>
<event>
 8    1  0.1092667E+005  0.1043930E+01  0.7957747E-01            NaN
         13   -1    0    0    0    0  0.00000000000E+00  0.00000000000E+00  0.74505805969E-08  0.10566000000E+00  0.10566000000E+00 0.  1.
     999900   -1    0    0    0    0 -0.00000000000E+00 -0.00000000000E+00 -0.74505805969E-08  0.93827000000E+00  0.93827000000E+00 0.  1.
     999902    2    1    2    0    0  0.11875023399E-01 -0.45020412457E-02 -0.20472251627E-01  0.10198385566E+01  0.10195539633E+01 0.  0.
     999903    2    3    3    0    0 -0.61624934963E-02 -0.56144265100E-01 -0.11846093929E+00  0.13271170314E+00  0.19729348260E-01 0.  0.
         14    1    1    2    0    0 -0.11875023399E-01  0.45020412457E-02  0.20472251627E-01  0.24091443352E-01  0.00000000000E+00 0.  1.
     999901    1    3    3    0    0  0.18037516896E-01  0.51642223854E-01  0.97988687667E-01  0.88712685351E+00  0.88000000000E+00 0. -1.
        -11    1    4    4    0    0 -0.68536091430E-02 -0.41646859685E-01 -0.66548321688E-01  0.78805920593E-01  0.51100000000E-03 0. -1.
         11    1    4    4    0    0  0.69111564666E-03 -0.14497405415E-01 -0.51912617606E-01  0.53905782549E-01  0.51100000000E-03 0.  1.
</event>
<event>
 8    1  0.1092667E+005  0.1043930E+01  0.7957747E-01            NaN
         13   -1    0    0    0    0  0.00000000000E+00  0.00000000000E+00  0.74505805969E-08  0.10566000000E+00  0.10566000000E+00 0. -1.
     999900   -1    0    0    0    0 -0.00000000000E+00 -0.00000000000E+00 -0.74505805969E-08  0.93827000000E+00  0.93827000000E+00 0.  1.
     999902    2    1    2    0    0 -0.16075602310E-01 -0.39238487647E-02 -0.17797176540E-01  0.10196285377E+01  0.10193389003E+01 0.  0.
     999903    2    3    3    0    0  0.10892848519E+00  0.28751178392E-01 -0.60157112103E-01  0.12918592670E+00  0.19444289037E-01 0.  0.
         14    1    1    2    0    0  0.16075602310E-01  0.39238487647E-02  0.17797176540E-01  0.24301462334E-01  0.00000000000E+00 0. -1.
     999901    1    3    3    0    0 -0.12500408749E+00 -0.32675027157E-01  0.42359935563E-01  0.89044261097E+00  0.88000000000E+00 0. -1.
        -11    1    4    4    0    0  0.60458272303E-01  0.25220421278E-01 -0.38421400370E-01  0.75945621774E-01  0.51100000000E-03 0. -1.
         11    1    4    4    0    0  0.48470212882E-01  0.35307571140E-02 -0.21735711734E-01  0.53240304922E-01  0.51100000000E-03 0.  1.
</event>
<event>
 8    1  0.1092667E+005  0.1043930E+01  0.7957747E-01            NaN
         13   -1    0    0    0    0  0.00000000000E+00  0.00000000000E+00  0.74505805969E-08  0.10566000000E+00  0.10566000000E+00 0.  1.
     999900   -1    0    0    0    0 -0.00000000000E+00 -0.00000000000E+00 -0.74505805969E-08  0.93827000000E+00  0.93827000000E+00 0. -1.
     999902    2    1    2    0    0  0.34269573312E-02 -0.84637726854E-03 -0.20871977542E-01  0.10227616312E+01  0.10225425441E+01 0.  0.
     999903    2    3    3    0    0  0.29441287577E-01  0.57269305301E-01  0.11174531929E+00  0.13055003895E+00  0.20241875937E-01 0.  0.
         14    1    1    2    0    0 -0.34269573312E-02  0.84637726854E-03  0.20871977542E-01  0.21168368797E-01  0.00000000000E+00 0.  1.
     999901    1    3    3    0    0 -0.26014330246E-01 -0.58115682570E-01 -0.13261729683E+00  0.89221159226E+00  0.88000000000E+00 0. -1.
        -11    1    4    4    0    0  0.28581514752E-01  0.37885472745E-01  0.86970309515E-01  0.99077282405E-01  0.51100000000E-03 0.  1.
         11    1    4    4    0    0  0.85977282453E-03  0.19383832556E-01  0.24775009776E-01  0.31472756540E-01  0.51100000000E-03 0. -1.
</event>
<event>
 8    1  0.1092667E+005  0.1043930E+01  0.7957747E-01            NaN
         13   -1    0    0    0    0  0.00000000000E+00  0.00000000000E+00  0.74505805969E-08  0.10566000000E+00  0.10566000000E+00 0. -1.
     999900   -1    0    0    0    0 -0.00000000000E+00 -0.00000000000E+00 -0.74505805969E-08  0.93827000000E+00  0.93827000000E+00 0. -1.
     999902    2    1    2    0    0 -0.11005063443E-01  0.15594890672E-01  0.10423468060E-01  0.10221823398E+01  0.10219509651E+01 0.  0.
     999903    2    3    3    0    0  0.37286898168E-01 -0.31983142700E-01  0.12197539838E+00  0.13255341945E+00  0.16708590793E-01 0.  0.
         14    1    1    2    0    0  0.11005063443E-01 -0.15594890672E-01 -0.10423468060E-01  0.21747660170E-01  0.00000000000E+00 0.  1.
     999901    1    3    3    0    0 -0.48291961611E-01  0.47578033372E-01 -0.11155193032E+00  0.88962892038E+00  0.88000000000E+00 0. -1.
        -11    1    4    4    0    0  0.17665017751E-01 -0.25293692889E-01  0.79740273149E-01  0.85502023572E-01  0.51100000000E-03 0. -1.
         11    1    4    4    0    0  0.19621880417E-01 -0.66894498110E-02  0.42235125231E-01  0.47051395879E-01  0.51100000000E-03 0.  1.
</event>
<event>
 8    1  0.1092667E+005  0.1043930E+01  0.7957747E-01            NaN
         13   -1    0    0    0    0  0.00000000000E+00  0.00000000000E+00  0.74505805969E-08  0.10566000000E+00  0.10566000000E+00 0.  1.
     999900   -1    0    0    0    0 -0.00000000000E+00 -0.00000000000E+00 -0.74505805969E-08  0.93827000000E+00  0.93827000000E+00 0. -1.
     999902    2    1    2    0    0 -0.66348185813E-02  0.21735998574E-01 -0.62504113024E-02  0.10203600595E+01  0.10200877948E+01 0.  0.
     999903    2    3    3    0    0 -0.21367264932E-01  0.95315947361E-01  0.86646230537E-01  0.13229427375E+00  0.21272418009E-01 0.  0.
         14    1    1    2    0    0  0.66348185813E-02 -0.21735998574E-01  0.62504113024E-02  0.23569940456E-01  0.00000000000E+00 0. -1.
     999901    1    3    3    0    0  0.14732446351E-01 -0.73579948787E-01 -0.92896641839E-01  0.88806578580E+00  0.88000000000E+00 0. -1.
        -11    1    4    4    0    0 -0.17841720370E-01  0.94663385007E-01  0.83023558818E-01  0.12717175743E+00  0.51100000000E-03 0.  1.
         11    1    4    4    0    0 -0.35255445618E-02  0.65256235379E-03  0.36226717189E-02  0.51225163217E-02  0.51100000000E-03 0. -1.
</event>
<event>
 8    1  0.1092667E+005  0.1043930E+01  0.7957747E-01            NaN
         13   -1    0    0    0    0  0.00000000000E+00  0.00000000000E+00  0.74505805969E-08  0.10566000000E+00  0.10566000000E+00 0.  1.
     999900   -1    0    0    0    0 -0.00000000000E+00 -0.00000000000E+00 -0.74505805969E-08  0.93827000000E+00  0.93827000000E+00 0.  1.
     999902    2    1    2    0    0 -0.95794759906E-02  0.11822575762E-01 -0.18164083006E-01  0.10202345665E+01  0.10199593605E+01 0.  0.
     999903    2    3    3    0    0  0.60940034953E-01 -0.81238724766E-01  0.74774511183E-01  0.12767028904E+00  0.19876038840E-01 0.  0.
         14    1    1    2    0    0  0.95794759906E-02 -0.11822575762E-01  0.18164083006E-01  0.23695433513E-01  0.00000000000E+00 0.  1.
     999901    1    3    3    0    0 -0.70519510944E-01  0.93061300528E-01 -0.92938594189E-01  0.89256427744E+00  0.88000000000E+00 0.  1.
        -11    1    4    4    0    0  0.53604231825E-02 -0.58538933104E-03  0.53376742766E-02  0.76045187256E-02  0.51100000000E-03 0.  1.
         11    1    4    4    0    0  0.55579611771E-01 -0.80653335435E-01  0.69436836907E-01  0.12006577032E+00  0.51100000000E-03 0. -1.
</event>
<event>
 8    1  0.1092667E+005  0.1043930E+01  0.7957747E-01            NaN
         13   -1    0    0    0    0  0.00000000000E+00  0.00000000000E+00  0.74505805969E-08  0.10566000000E+00  0.10566000000E+00 0. -1.
     999900   -1    0    0    0    0 -0.00000000000E+00 -0.00000000000E+00 -0.74505805969E-08  0.93827000000E+00  0.93827000000E+00 0.  1.
     999902    2    1    2    0    0  0.11422272055E-01  0.12271480685E-02 -0.21340021890E-01  0.10196942676E+01  0.10194062137E+01 0.  0.
     999903    2    3    3    0    0 -0.91818476472E-01  0.12682654227E-01 -0.90300079597E-01  0.13090555798E+00  0.19765586097E-01 0.  0.
         14    1    1    2    0    0 -0.11422272055E-01 -0.12271480685E-02  0.21340021890E-01  0.24235732411E-01  0.00000000000E+00 0. -1.
     999901    1    3    3    0    0  0.10324074853E+00 -0.11455506159E-01  0.68960057707E-01  0.88878870961E+00  0.88000000000E+00 0.  1.
        -11    1    4    4    0    0 -0.56260237819E-01 -0.20057582644E-02 -0.53669803207E-01  0.77781400881E-01  0.51100000000E-03 0.  1.
         11    1    4    4    0    0 -0.35558238652E-01  0.14688412492E-01 -0.36630276390E-01  0.53124157094E-01  0.51100000000E-03 0. -1.
</event>
<event>
 8    1  0.1092667E+005  0.1043930E+01  0.7957747E-01            NaN
         13   -1    0    0    0    0  0.00000000000E+00  0.00000000000E+00  0.74505805969E-08  0.10566000000E+00  0.10566000000E+00 0.  1.
     999900   -1    0    0    0    0 -0.00000000000E+00 -0.00000000000E+00 -0.74505805969E-08  0.93827000000E+00  0.93827000000E+00 0. -1.
     999902    2    1    2    0    0 -0.69005229897E-02  0.48106305645E-02 -0.22103809777E-01  0.10202796767E+01  0.10200055299E+01 0.  0.
     999903    2    3    3    0    0  0.80747734839E-01 -0.20336436549E-01 -0.10045198615E+00  0.13210569106E+00  0.20677155405E-01 0.  0.
         14    1    1    2    0    0  0.69005229897E-02 -0.48106305645E-02  0.22103809777E-01  0.23650323266E-01  0.00000000000E+00 0.  1.
     999901    1    3    3    0    0 -0.87648257829E-01  0.25147067114E-01  0.78348176374E-01  0.88817398567E+00  0.88000000000E+00 0.  1.
        -11    1    4    4    0    0  0.47098970633E-01 -0.16305329517E-01 -0.73478292089E-01  0.88789060896E-01  0.51100000000E-03 0.  1.
         11    1    4    4    0    0  0.33648764206E-01 -0.40311070325E-02 -0.26973694062E-01  0.43316630165E-01  0.51100000000E-03 0. -1.
</event>
<event>
 8    1  0.1092667E+005  0.1043930E+01  0.7957747E-01            NaN
         13   -1    0    0    0    0  0.00000000000E+00  0.00000000000E+00  0.74505805969E-08  0.10566000000E+00  0.10566000000E+00 0. -1.
     999900   -1    0    0    0    0 -0.00000000000E+00 -0.00000000000E+00 -0.74505805969E-08  0.93827000000E+00  0.93827000000E+00 0. -1.
     999902    2    1    2    0    0  0.15445763552E-01  0.62366655972E-02 -0.18886673725E-01  0.10187471873E+01  0.10184358878E+01 0.  0.
     999903    2    3    3    0    0  0.43245428203E-01  0.83271825802E-01 -0.90718815518E-01  0.13203015589E+00  0.19942280241E-01 0.  0.
         14    1    1    2    0    0 -0.15445763552E-01 -0.62366655972E-02  0.18886673725E-01  0.25182812668E-01  0.00000000000E+00 0. -1.
     999901    1    3    3    0    0 -0.27799664650E-01 -0.77035160205E-01  0.71832141793E-01  0.88671703145E+00  0.88000000000E+00 0.  1.
        -11    1    4    4    0    0  0.14588444884E-02  0.20044786514E-01 -0.17614608270E-01  0.26729332934E-01  0.51100000000E-03 0.  1.
         11    1    4    4    0    0  0.41786583715E-01  0.63227039289E-01 -0.73104207248E-01  0.10530082295E+00  0.51100000000E-03 0. -1.
</event>
<event>
 8    1  0.1092667E+005  0.1043930E+01  0.7957747E-01            NaN
         13   -1    0    0    0    0  0.00000000000E+00  0.00000000000E+00  0.74505805969E-08  0.10566000000E+00  0.10566000000E+00 0. -1.
     999900   -1    0    0    0    0 -0.00000000000E+00 -0.00000000000E+00 -0.74505805969E-08  0.93827000000E+00  0.93827000000E+00 0.  1.
     999902    2    1    2    0    0 -0.12556745023E-01  0.15209730118E-01 -0.14009959777E-01  0.10197373005E+01  0.10194502810E+01 0.  0.
     999903    2    3    3    0    0  0.96248845555E-01  0.52864265460E-01  0.64119744608E-01  0.12880477148E+00  0.20514791589E-01 0.  0.
         14    1    1    2    0    0  0.12556745023E-01 -0.15209730118E-01  0.14009959777E-01  0.24192699493E-01  0.00000000000E+00 0. -1.
     999901    1    3    3    0    0 -0.10880559058E+00 -0.37654535342E-01 -0.78129704384E-01  0.89093252903E+00  0.88000000000E+00 0.  1.
        -11    1    4    4    0    0  0.56684415169E-01  0.41584810075E-01  0.36147953803E-01  0.79052862296E-01  0.51100000000E-03 0. -1.
         11    1    4    4    0    0  0.39564430386E-01  0.11279455385E-01  0.27971790804E-01  0.49751909183E-01  0.51100000000E-03 0.  1.
</event>
<event>
 8    1  0.1092667E+005  0.1043930E+01  0.7957747E-01            NaN
         13   -1    0    0    0    0  0.00000000000E+00  0.00000000000E+00  0.74505805969E-08  0.10566000000E+00  0.10566000000E+00 0.  1.
     999900   -1    0    0    0    0 -0.00000000000E+00 -0.00000000000E+00 -0.74505805969E-08  0.93827000000E+00  0.93827000000E+00 0. -1.
     999902    2    1    2    0    0  0.76941195767E-02 -0.14464449587E-01 -0.13072975232E-01  0.10229699795E+01  0.10227552280E+01 0.  0.
     999903    2    3    3    0    0  0.10769983834E+00  0.63495620157E-01 -0.42575975618E-01  0.13339179671E+00  0.18700501922E-01 0.  0.
         14    1    1    2    0    0 -0.76941195767E-02  0.14464449587E-01  0.13072975232E-01  0.20960020499E-01  0.00000000000E+00 0.  1.
     999901    1    3    3    0    0 -0.10000571877E+00 -0.77960069744E-01  0.29503000386E-01  0.88957818279E+00  0.88000000000E+00 0.  1.
        -11    1    4    4    0    0  0.40162216197E-01  0.31776111716E-01 -0.11081125723E-01  0.52400165590E-01  0.51100000000E-03 0. -1.
         11    1    4    4    0    0  0.67537622147E-01  0.31719508442E-01 -0.31494849895E-01  0.80991631123E-01  0.51100000000E-03 0.  1.
</event>
<event>
 8    1  0.1092667E+005  0.1043930E+01  0.7957747E-01            NaN
         13   -1    0    0    0    0  0.00000000000E+00  0.00000000000E+00  0.74505805969E-08  0.10566000000E+00  0.10566000000E+00 0. -1.
     999900   -1    0    0    0    0 -0.00000000000E+00 -0.00000000000E+00 -0.74505805969E-08  0.93827000000E+00  0.93827000000E+00 0. -1.
     999902    2    1    2    0    0  0.14972747980E-01  0.16502011344E-01 -0.71135775098E-02  0.10205397767E+01  0.10202716958E+01 0.  0.
     999903    2    3    3    0    0 -0.11083254266E+00  0.19698030154E-01  0.60142374925E-01  0.12904633937E+00  0.19078457441E-01 0.  0.
         14    1    1    2    0    0 -0.14972747980E-01 -0.16502011344E-01  0.71135775098E-02  0.23390223288E-01  0.00000000000E+00 0.  1.
     999901    1    3    3    0    0  0.12580529064E+00 -0.31960188098E-02 -0.67255952435E-01  0.89149343734E+00  0.88000000000E+00 0.  1.
        -11    1    4    4    0    0 -0.26639025522E-01  0.11357737612E-01  0.97067092140E-02  0.30546967266E-01  0.51100000000E-03 0.  1.
         11    1    4    4    0    0 -0.84193517138E-01  0.83402925423E-02  0.50435665711E-01  0.98499372102E-01  0.51100000000E-03 0. -1.
</event>
<event>
 8    1  0.1092667E+005  0.1043930E+01  0.7957747E-01            NaN
         13   -1    0    0    0    0  0.00000000000E+00  0.00000000000E+00  0.74505805969E-08  0.10566000000E+00  0.10566000000E+00 0.  1.
     999900   -1    0    0    0    0 -0.00000000000E+00 -0.00000000000E+00 -0.74505805969E-08  0.93827000000E+00  0.93827000000E+00 0.  1.
     999902    2    1    2    0    0 -0.25943496746E-02 -0.18385360780E-01  0.13730782793E-01  0.10208370024E+01  0.10205757684E+01 0.  0.
     999903    2    3    3    0    0  0.10015885519E+00  0.26934204284E-01 -0.74635470320E-01  0.12930984143E+00  0.19832650556E-01 0.  0.
         14    1    1    2    0    0  0.25943496746E-02  0.18385360780E-01 -0.13730782793E-01  0.23092997583E-01  0.00000000000E+00 0.  1.
     999901    1    3    3    0    0 -0.10275320486E+00 -0.45319565064E-01  0.88366253113E-01  0.89152716099E+00  0.88000000000E+00 0. -1.
        -11    1    4    4    0    0  0.56688328768E-01  0.14358729413E-01 -0.53894754498E-01  0.79527639298E-01  0.51100000000E-03 0.  1.
         11    1    4    4    0    0  0.43470526420E-01  0.12575474871E-01 -0.20740715822E-01  0.49782202133E-01  0.51100000000E-03 0. -1.
</event>
<event>
 8    1  0.1092667E+005  0.1043930E+01  0.7957747E-01            NaN
         13   -1    0    0    0    0  0.00000000000E+00  0.00000000000E+00  0.74505805969E-08  0.10566000000E+00  0.10566000000E+00 0.  1.
     999900   -1    0    0    0    0 -0.00000000000E+00 -0.00000000000E+00 -0.74505805969E-08  0.93827000000E+00  0.93827000000E+00 0. -1.
     999902    2    1    2    0    0 -0.16000924946E-01  0.34374645146E-02 -0.17595662272E-01  0.10198997463E+01  0.10196166139E+01 0.  0.
     999903    2    3    3    0    0  0.72555662510E-01  0.18842499342E-01  0.10128542219E+00  0.12736834825E+00  0.18563282145E-01 0.  0.
         14    1    1    2    0    0  0.16000924946E-01 -0.34374645146E-02  0.17595662272E-01  0.24030253686E-01  0.00000000000E+00 0.  1.
     999901    1    3    3    0    0 -0.88556587456E-01 -0.15405034827E-01 -0.11888108447E+00  0.89253139806E+00  0.88000000000E+00 0. -1.
        -11    1    4    4    0    0  0.62896189256E-01  0.22137268146E-01  0.83512424530E-01  0.10686709239E+00  0.51100000000E-03 0.  1.
         11    1    4    4    0    0  0.96594732543E-02 -0.32947688048E-02  0.17772997664E-01  0.20501255864E-01  0.51100000000E-03 0. -1.
</event>
<event>
 8    1  0.1092667E+005  0.1043930E+01  0.7957747E-01            NaN
         13   -1    0    0    0    0  0.00000000000E+00  0.00000000000E+00  0.74505805969E-08  0.10566000000E+00  0.10566000000E+00 0.  1.
     999900   -1    0    0    0    0 -0.00000000000E+00 -0.00000000000E+00 -0.74505805969E-08  0.93827000000E+00  0.93827000000E+00 0. -1.
     999902    2    1    2    0    0 -0.24342085015E-03 -0.66484093956E-03 -0.23444855850E-01  0.10204744562E+01  0.10202048585E+01 0.  0.
     999903    2    3    3    0    0  0.37586706343E-01 -0.23411309616E-01 -0.12445958102E+00  0.13359650801E+00  0.19924601209E-01 0.  0.
         14    1    1    2    0    0  0.24342085015E-03  0.66484093956E-03  0.23444855850E-01  0.23455543758E-01  0.00000000000E+00 0.  1.
     999901    1    3    3    0    0 -0.37830127193E-01  0.22746468676E-01  0.10101472517E+00  0.88687794823E+00  0.88000000000E+00 0.  1.
        -11    1    4    4    0    0  0.28368013676E-01 -0.22795619391E-01 -0.76049270507E-01  0.84309768883E-01  0.51100000000E-03 0.  1.
         11    1    4    4    0    0  0.92186926662E-02 -0.61569022460E-03 -0.48410310511E-01  0.49286739126E-01  0.51100000000E-03 0. -1.
</event>
<event>
 8    1  0.1092667E+005  0.1043930E+01  0.7957747E-01            NaN
         13   -1    0    0    0    0  0.00000000000E+00  0.00000000000E+00  0.74505805969E-08  0.10566000000E+00  0.10566000000E+00 0.  1.
     999900   -1    0    0    0    0 -0.00000000000E+00 -0.00000000000E+00 -0.74505805969E-08  0.93827000000E+00  0.93827000000E+00 0.  1.
     999902    2    1    2    0    0  0.51999963273E-02  0.22207763311E-01  0.10079522598E-01  0.10189936513E+01  0.10186884901E+01 0.  0.
     999903    2    3    3    0    0 -0.84757671083E-01  0.55960484416E-01 -0.77813639181E-01  0.12941125709E+00  0.19413201609E-01 0.  0.
         14    1    1    2    0    0 -0.51999963273E-02 -0.22207763311E-01 -0.10079522598E-01  0.24936348748E-01  0.00000000000E+00 0. -1.
     999901    1    3    3    0    0  0.89957667410E-01 -0.33752721106E-01  0.87893161780E-01  0.88958239416E+00  0.88000000000E+00 0. -1.
        -11    1    4    4    0    0 -0.61180510647E-01  0.35311222139E-01 -0.63363743312E-01  0.94895534033E-01  0.51100000000E-03 0. -1.
         11    1    4    4    0    0 -0.23577160436E-01  0.20649262277E-01 -0.14449895869E-01  0.34515723061E-01  0.51100000000E-03 0.  1.
</event>
<event>
 8    1  0.1092667E+005  0.1043930E+01  0.7957747E-01            NaN
         13   -1    0    0    0    0  0.00000000000E+00  0.00000000000E+00  0.74505805969E-08  0.10566000000E+00  0.10566000000E+00 0.  1.
     999900   -1    0    0    0    0 -0.00000000000E+00 -0.00000000000E+00 -0.74505805969E-08  0.93827000000E+00  0.93827000000E+00 0. -1.
     999902    2    1    2    0    0  0.17836480994E-01  0.47232207259E-02 -0.14652287361E-01  0.10203686250E+01  0.10200965603E+01 0.  0.
     999903    2    3    3    0    0  0.56792576146E-01  0.11524802173E+00 -0.24711263564E-01  0.13254291461E+00  0.21200812414E-01 0.  0.
         14    1    1    2    0    0 -0.17836480994E-01 -0.47232207259E-02  0.14652287361E-01  0.23561375028E-01  0.00000000000E+00 0.  1.
     999901    1    3    3    0    0 -0.38956095152E-01 -0.11052480100E+00  0.10058976203E-01  0.88782571037E+00  0.88000000000E+00 0.  1.
        -11    1    4    4    0    0  0.44557035454E-01  0.10458628289E+00 -0.18604926302E-01  0.11519559185E+00  0.51100000000E-03 0. -1.
         11    1    4    4    0    0  0.12235540692E-01  0.10661738841E-01 -0.61063372625E-02  0.17347322759E-01  0.51100000000E-03 0.  1.
</event>
<event>
 8    1  0.1092667E+005  0.1043930E+01  0.7957747E-01            NaN
         13   -1    0    0    0    0  0.00000000000E+00  0.00000000000E+00  0.74505805969E-08  0.10566000000E+00  0.10566000000E+00 0.  1.
     999900   -1    0    0    0    0 -0.00000000000E+00 -0.00000000000E+00 -0.74505805969E-08  0.93827000000E+00  0.93827000000E+00 0.  1.
     999902    2    1    2    0    0 -0.65806749449E-02  0.47896422496E-03  0.23124440307E-01  0.10198826627E+01  0.10195991229E+01 0.  0.
     999903    2    3    3    0    0 -0.95497597793E-01 -0.83209413301E-01 -0.24751837674E-01  0.13016242487E+00  0.16911704014E-01 0.  0.
         14    1    1    2    0    0  0.65806749449E-02 -0.47896422496E-03 -0.23124440307E-01  0.24047337253E-01  0.00000000000E+00 0. -1.
     999901    1    3    3    0    0  0.88916922848E-01  0.83688377525E-01  0.47876277981E-01  0.88972023788E+00  0.88000000000E+00 0. -1.
        -11    1    4    4    0    0 -0.62185516720E-01 -0.60276780514E-01 -0.10318467804E-01  0.87218465119E-01  0.51100000000E-03 0.  1.
         11    1    4    4    0    0 -0.33312081074E-01 -0.22932632787E-01 -0.14433369871E-01  0.42943959748E-01  0.51100000000E-03 0. -1.
</event>
<event>
 8    1  0.1092667E+005  0.1043930E+01  0.7957747E-01            NaN
         13   -1    0    0    0    0  0.00000000000E+00  0.00000000000E+00  0.74505805969E-08  0.10566000000E+00  0.10566000000E+00 0. -1.
     999900   -1    0    0    0    0 -0.00000000000E+00 -0.00000000000E+00 -0.74505805969E-08  0.93827000000E+00  0.93827000000E+00 0. -1.
     999902    2    1    2    0    0 -0.21513251692E-01 -0.68006740614E-02 -0.66558316457E-02  0.10204061980E+01  0.10201350105E+01 0.  0.
     999903    2    3    3    0    0  0.63177886435E-01  0.77837211567E-01  0.77696905814E-01  0.12830107813E+00  0.19346333969E-01 0.  0.
         14    1    1    2    0    0  0.21513251692E-01  0.68006740614E-02  0.66558316457E-02  0.23523802009E-01  0.00000000000E+00 0.  1.
     999901    1    3    3    0    0 -0.84691138127E-01 -0.84637885629E-01 -0.84352737459E-01  0.89210511986E+00  0.88000000000E+00 0.  1.
        -11    1    4    4    0    0  0.27718073376E-01  0.39242025432E-01  0.25776138298E-01  0.54524293468E-01  0.51100000000E-03 0. -1.
         11    1    4    4    0    0  0.35459813060E-01  0.38595186136E-01  0.51920767516E-01  0.73776784665E-01  0.51100000000E-03 0.  1.
</event>
<event>
 8    1  0.1092667E+005  0.1043930E+01  0.7957747E-01            NaN
         13   -1    0    0    0    0  0.00000000000E+00  0.00000000000E+00  0.74505805969E-08  0.10566000000E+00  0.10566000000E+00 0.  1.
     999900   -1    0    0    0    0 -0.00000000000E+00 -0.00000000000E+00 -0.74505805969E-08  0.93827000000E+00  0.93827000000E+00 0.  1.
     999902    2    1    2    0    0 -0.23440896773E-01  0.72126858154E-02  0.43040400452E-03  0.10194007577E+01  0.10191055986E+01 0.  0.
     999903    2    3    3    0    0  0.28447181688E-01 -0.71078925327E-01  0.10144622033E+00  0.12865604448E+00  0.19989657035E-01 0.  0.
         14    1    1    2    0    0  0.23440896773E-01 -0.72126858154E-02 -0.43040400452E-03  0.24529242259E-01  0.00000000000E+00 0. -1.
     999901    1    3    3    0    0 -0.51888078461E-01  0.78291611142E-01 -0.10101581633E+00  0.89074471327E+00  0.88000000000E+00 0.  1.
        -11    1    4    4    0    0  0.19203479234E-01 -0.28578650027E-01  0.56065147947E-01  0.65795704931E-01  0.51100000000E-03 0.  1.
         11    1    4    4    0    0  0.92437024542E-02 -0.42500275301E-01  0.45381072388E-01  0.62860339545E-01  0.51100000000E-03 0. -1.
</event>
<event>
 8    1  0.1092667E+005  0.1043930E+01  0.7957747E-01            NaN
         13   -1    0    0    0    0  0.00000000000E+00  0.00000000000E+00  0.74505805969E-08  0.10566000000E+00  0.10566000000E+00 0.  1.
     999900   -1    0    0    0    0 -0.00000000000E+00 -0.00000000000E+00 -0.74505805969E-08  0.93827000000E+00  0.93827000000E+00 0. -1.
     999902    2    1    2    0    0 -0.16950680443E-01 -0.16142145408E-01  0.99029206810E-03  0.10205019163E+01  0.10202329568E+01 0.  0.
     999903    2    3    3    0    0  0.57410858779E-01 -0.11284957051E+00 -0.29560140337E-01  0.13156137079E+00  0.20088805796E-01 0.  0.
         14    1    1    2    0    0  0.16950680443E-01  0.16142145408E-01 -0.99029206810E-03  0.23428083665E-01  0.00000000000E+00 0. -1.
     999901    1    3    3    0    0 -0.74361539223E-01  0.96707425103E-01  0.30550432405E-01  0.88894054554E+00  0.88000000000E+00 0. -1.
        -11    1    4    4    0    0  0.37654926473E-01 -0.59533252931E-01 -0.24039272181E-01  0.74432851754E-01  0.51100000000E-03 0. -1.
         11    1    4    4    0    0  0.19755932306E-01 -0.53316317579E-01 -0.55208681555E-02  0.57128519040E-01  0.51100000000E-03 0.  1.
</event>
<event>
 8    1  0.1092667E+005  0.1043930E+01  0.7957747E-01            NaN
         13   -1    0    0    0    0  0.00000000000E+00  0.00000000000E+00  0.74505805969E-08  0.10566000000E+00  0.10566000000E+00 0.  1.
     999900   -1    0    0    0    0 -0.00000000000E+00 -0.00000000000E+00 -0.74505805969E-08  0.93827000000E+00  0.93827000000E+00 0. -1.
     999902    2    1    2    0    0 -0.11634620352E-01  0.19866178205E-01  0.57680271215E-02  0.10201960672E+01  0.10199199557E+01 0.  0.
     999903    2    3    3    0    0 -0.76954195391E-01 -0.10065297038E+00 -0.17181474944E-01  0.12928743461E+00  0.19159045697E-01 0.  0.
         14    1    1    2    0    0  0.11634620352E-01 -0.19866178205E-01 -0.57680271215E-02  0.23733932757E-01  0.00000000000E+00 0. -1.
     999901    1    3    3    0    0  0.65319575039E-01  0.12051914858E+00  0.22949502065E-01  0.89090863264E+00  0.88000000000E+00 0. -1.
        -11    1    4    4    0    0 -0.24335985340E-01 -0.39184593111E-01 -0.14397674427E-01  0.48324183073E-01  0.51100000000E-03 0. -1.
         11    1    4    4    0    0 -0.52618210051E-01 -0.61468377268E-01 -0.27838005167E-02  0.80963251536E-01  0.51100000000E-03 0.  1.
</event>
<event>
 8    1  0.1092667E+005  0.1043930E+01  0.7957747E-01            NaN
         13   -1    0    0    0    0  0.00000000000E+00  0.00000000000E+00  0.74505805969E-08  0.10566000000E+00  0.10566000000E+00 0.  1.
     999900   -1    0    0    0    0 -0.00000000000E+00 -0.00000000000E+00 -0.74505805969E-08  0.93827000000E+00  0.93827000000E+00 0.  1.
     999902    2    1    2    0    0  0.33366613226E-02 -0.37002042264E-02  0.23440605805E-01  0.10199657178E+01  0.10196841563E+01 0.  0.
     999903    2    3    3    0    0 -0.53072334033E-01 -0.11718487737E+00 -0.77933332657E-02  0.13033865846E+00  0.19454092636E-01 0.  0.
         14    1    1    2    0    0 -0.33366613226E-02  0.37002042264E-02 -0.23440605805E-01  0.23964282184E-01  0.00000000000E+00 0. -1.
     999901    1    3    3    0    0  0.56408995356E-01  0.11348467314E+00  0.31233939071E-01  0.88962705936E+00  0.88000000000E+00 0. -1.
        -11    1    4    4    0    0 -0.35844005303E-01 -0.84443074305E-01 -0.14066639040E-01  0.92809250451E-01  0.51100000000E-03 0.  1.
         11    1    4    4    0    0 -0.17228328731E-01 -0.32741803066E-01  0.62733057747E-02  0.37529408005E-01  0.51100000000E-03 0. -1.
</event>
<event>
 8    1  0.1092667E+005  0.1043930E+01  0.7957747E-01            NaN
         13   -1    0    0    0    0  0.00000000000E+00  0.00000000000E+00  0.74505805969E-08  0.10566000000E+00  0.10566000000E+00 0. -1.
     999900   -1    0    0    0    0 -0.00000000000E+00 -0.00000000000E+00 -0.74505805969E-08  0.93827000000E+00  0.93827000000E+00 0. -1.
     999902    2    1    2    0    0  0.15520507117E-01  0.51972182974E-02  0.17168814966E-01  0.10202094303E+01  0.10199336333E+01 0.  0.
     999903    2    3    3    0    0  0.38090182760E-01  0.60591770705E-01  0.11061500248E+00  0.13324261207E+00  0.19891963135E-01 0.  0.
         14    1    1    2    0    0 -0.15520507117E-01 -0.51972182974E-02 -0.17168814966E-01  0.23720569692E-01  0.00000000000E+00 0.  1.
     999901    1    3    3    0    0 -0.22569675644E-01 -0.55394552408E-01 -0.93446187515E-01  0.88696681824E+00  0.88000000000E+00 0. -1.
        -11    1    4    4    0    0  0.24950560921E-01  0.50358500528E-01  0.95151117914E-01  0.11051020508E+00  0.51100000000E-03 0.  1.
         11    1    4    4    0    0  0.13139621840E-01  0.10233270178E-01  0.15463884566E-01  0.22732406989E-01  0.51100000000E-03 0. -1.
</event>
<event>
 8    1  0.1092667E+005  0.1043930E+01  0.7957747E-01            NaN
         13   -1    0    0    0    0  0.00000000000E+00  0.00000000000E+00  0.74505805969E-08  0.10566000000E+00  0.10566000000E+00 0. -1.
     999900   -1    0    0    0    0 -0.00000000000E+00 -0.00000000000E+00 -0.74505805969E-08  0.93827000000E+00  0.93827000000E+00 0.  1.
     999902    2    1    2    0    0  0.10081020900E-01 -0.36338890439E-02 -0.68448785487E-02  0.10312144782E+01  0.10311360801E+01 0.  0.
     999903    2    3    3    0    0 -0.57459640178E-01 -0.12300476219E+00 -0.29141213836E-01  0.14031141232E+00  0.20156892387E-01 0.  0.
         14    1    1    2    0    0 -0.10081020900E-01  0.36338890439E-02  0.68448785487E-02  0.12715521787E-01  0.00000000000E+00 0.  1.
     999901    1    3    3    0    0  0.67540661079E-01  0.11937087315E+00  0.22296335288E-01  0.89090306590E+00  0.88000000000E+00 0.  1.
        -11    1    4    4    0    0 -0.23512202409E-01 -0.72875327891E-01 -0.13225228088E-01  0.77709747499E-01  0.51100000000E-03 0.  1.
         11    1    4    4    0    0 -0.33947437770E-01 -0.50129434302E-01 -0.15915985749E-01  0.62601664818E-01  0.51100000000E-03 0. -1.
</event>
<event>
 8    1  0.1092667E+005  0.1043930E+01  0.7957747E-01            NaN
         13   -1    0    0    0    0  0.00000000000E+00  0.00000000000E+00  0.74505805969E-08  0.10566000000E+00  0.10566000000E+00 0.  1.
     999900   -1    0    0    0    0 -0.00000000000E+00 -0.00000000000E+00 -0.74505805969E-08  0.93827000000E+00  0.93827000000E+00 0. -1.
     999902    2    1    2    0    0  0.93600998859E-03  0.23258373567E-01  0.29869709124E-02  0.10204619355E+01  0.10201920465E+01 0.  0.
     999903    2    3    3    0    0 -0.26657310495E-01 -0.50944869224E-01  0.11472099055E+00  0.12987111829E+00  0.19990242347E-01 0.  0.
         14    1    1    2    0    0 -0.93600998859E-03 -0.23258373567E-01 -0.29869709124E-02  0.23468064490E-01  0.00000000000E+00 0.  1.
     999901    1    3    3    0    0  0.27593320483E-01  0.74203242791E-01 -0.11173401964E+00  0.89059081722E+00  0.88000000000E+00 0. -1.
        -11    1    4    4    0    0 -0.28083216109E-01 -0.39113524653E-01  0.82661791541E-01  0.95664872025E-01  0.51100000000E-03 0. -1.
         11    1    4    4    0    0  0.14259056142E-02 -0.11831344571E-01  0.32059199010E-01  0.34206246262E-01  0.51100000000E-03 0.  1.
</event>
<event>
 8    1  0.1092667E+005  0.1043930E+01  0.7957747E-01            NaN
         13   -1    0    0    0    0  0.00000000000E+00  0.00000000000E+00  0.74505805969E-08  0.10566000000E+00  0.10566000000E+00 0. -1.
     999900   -1    0    0    0    0 -0.00000000000E+00 -0.00000000000E+00 -0.74505805969E-08  0.93827000000E+00  0.93827000000E+00 0. -1.
     999902    2    1    2    0    0  0.43496972227E-02 -0.18447743211E-01 -0.13869697356E-01  0.10204436721E+01  0.10201733579E+01 0.  0.
     999903    2    3    3    0    0  0.50510556438E-01  0.72856433554E-01  0.90893601814E-01  0.12834355073E+00  0.18736166669E-01 0.  0.
         14    1    1    2    0    0 -0.43496972227E-02  0.18447743211E-01  0.13869697356E-01  0.23486327943E-01  0.00000000000E+00 0. -1.
     999901    1    3    3    0    0 -0.46160859215E-01 -0.91304176765E-01 -0.10476329917E+00  0.89210012133E+00  0.88000000000E+00 0. -1.
        -11    1    4    4    0    0  0.16730209894E-01  0.38153061307E-01  0.48889452056E-01  0.64233913578E-01  0.51100000000E-03 0. -1.
         11    1    4    4    0    0  0.33780346543E-01  0.34703372247E-01  0.42004149758E-01  0.64109637152E-01  0.51100000000E-03 0.  1.
</event>
<event>
 8    1  0.1092667E+005  0.1043930E+01  0.7957747E-01            NaN
         13   -1    0    0    0    0  0.00000000000E+00  0.00000000000E+00  0.74505805969E-08  0.10566000000E+00  0.10566000000E+00 0.  1.
     999900   -1    0    0    0    0 -0.00000000000E+00 -0.00000000000E+00 -0.74505805969E-08  0.93827000000E+00  0.93827000000E+00 0. -1.
     999902    2    1    2    0    0 -0.21595365432E-01  0.57704123807E-02 -0.75994951620E-02  0.10203204724E+01  0.10200472815E+01 0.  0.
     999903    2    3    3    0    0 -0.11673420885E+00 -0.58582883344E-01  0.11641749845E-01  0.13264768825E+00  0.20026210859E-01 0.  0.
         14    1    1    2    0    0  0.21595365432E-01 -0.57704123807E-02  0.75994951620E-02  0.23609527609E-01  0.00000000000E+00 0.  1.
     999901    1    3    3    0    0  0.95138843419E-01  0.64353295725E-01 -0.19241245007E-01  0.88767278414E+00  0.88000000000E+00 0. -1.
        -11    1    4    4    0    0 -0.29106848319E-01 -0.76704820166E-02  0.83814242498E-02  0.31249868910E-01  0.51100000000E-03 0.  1.
         11    1    4    4    0    0 -0.87627360532E-01 -0.50912401327E-01  0.32603255947E-02  0.10139781934E+00  0.51100000000E-03 0. -1.
</event>
<event>
 8    1  0.1092667E+005  0.1043930E+01  0.7957747E-01            NaN
         13   -1    0    0    0    0  0.00000000000E+00  0.00000000000E+00  0.74505805969E-08  0.10566000000E+00  0.10566000000E+00 0. -1.
     999900   -1    0    0    0    0 -0.00000000000E+00 -0.00000000000E+00 -0.74505805969E-08  0.93827000000E+00  0.93827000000E+00 0. -1.
     999902    2    1    2    0    0 -0.21269978867E-01  0.12235274220E-01  0.26054543280E-02  0.10192540536E+01  0.10189553099E+01 0.  0.
     999903    2    3    3    0    0 -0.11052768584E+00  0.68768546567E-01  0.75372414409E-02  0.13292044170E+00  0.25798284435E-01 0.  0.
         14    1    1    2    0    0  0.21269978867E-01 -0.12235274220E-01 -0.26054543280E-02  0.24675946354E-01  0.00000000000E+00 0.  1.
     999901    1    3    3    0    0  0.89257706973E-01 -0.56533272347E-01 -0.49317871130E-02  0.88633361194E+00  0.88000000000E+00 0.  1.
        -11    1    4    4    0    0 -0.90733114332E-01  0.43562387079E-01  0.60879443885E-02  0.10083404084E+00  0.51100000000E-03 0. -1.
         11    1    4    4    0    0 -0.19794571508E-01  0.25206159488E-01  0.14492970524E-02  0.32086400862E-01  0.51100000000E-03 0.  1.
</event>
<event>
 8    1  0.1092667E+005  0.1043930E+01  0.7957747E-01            NaN
         13   -1    0    0    0    0  0.00000000000E+00  0.00000000000E+00  0.74505805969E-08  0.10566000000E+00  0.10566000000E+00 0. -1.
     999900   -1    0    0    0    0 -0.00000000000E+00 -0.00000000000E+00 -0.74505805969E-08  0.93827000000E+00  0.93827000000E+00 0.  1.
     999902    2    1    2    0    0  0.63134690820E-02  0.18321253897E-01  0.14419990041E-01  0.10197749933E+01  0.10194888781E+01 0.  0.
     999903    2    3    3    0    0 -0.16047699742E-01 -0.72849860319E-01 -0.10114254764E+00  0.12726903026E+00  0.20073871153E-01 0.  0.
         14    1    1    2    0    0 -0.63134690820E-02 -0.18321253897E-01 -0.14419990041E-01  0.24155006707E-01  0.00000000000E+00 0.  1.
     999901    1    3    3    0    0  0.22361168824E-01  0.91171114216E-01  0.11556253769E+00  0.89250596304E+00  0.88000000000E+00 0. -1.
        -11    1    4    4    0    0 -0.15995313349E-01 -0.51918764768E-01 -0.58949900789E-01  0.80167076211E-01  0.51100000000E-03 0. -1.
         11    1    4    4    0    0 -0.52386393221E-04 -0.20931095551E-01 -0.42192646855E-01  0.47101954046E-01  0.51100000000E-03 0.  1.
</event>
<event>
 8    1  0.1092667E+005  0.1043930E+01  0.7957747E-01            NaN
         13   -1    0    0    0    0  0.00000000000E+00  0.00000000000E+00  0.74505805969E-08  0.10566000000E+00  0.10566000000E+00 0.  1.
     999900   -1    0    0    0    0 -0.00000000000E+00 -0.00000000000E+00 -0.74505805969E-08  0.93827000000E+00  0.93827000000E+00 0. -1.
     999902    2    1    2    0    0 -0.16094319127E-01 -0.58236302908E-02 -0.15440557458E-01  0.10208789134E+01  0.10206186375E+01 0.  0.
     999903    2    3    3    0    0  0.68522959621E-01  0.85643392737E-02 -0.11069510229E+00  0.13158676466E+00  0.17115112085E-01 0.  0.
         14    1    1    2    0    0  0.16094319127E-01  0.58236302908E-02  0.15440557458E-01  0.23051086580E-01  0.00000000000E+00 0.  1.
     999901    1    3    3    0    0 -0.84617278748E-01 -0.14387969564E-01  0.95254544828E-01  0.88929214876E+00  0.88000000000E+00 0. -1.
        -11    1    4    4    0    0  0.21065608893E-01 -0.29915734078E-02 -0.44422707765E-01  0.49257968651E-01  0.51100000000E-03 0. -1.
         11    1    4    4    0    0  0.47457350728E-01  0.11555912681E-01 -0.66272394522E-01  0.82328796011E-01  0.51100000000E-03 0.  1.
</event>
<event>
 8    1  0.1092667E+005  0.1043930E+01  0.7957747E-01            NaN
         13   -1    0    0    0    0  0.00000000000E+00  0.00000000000E+00  0.74505805969E-08  0.10566000000E+00  0.10566000000E+00 0.  1.
     999900   -1    0    0    0    0 -0.00000000000E+00 -0.00000000000E+00 -0.74505805969E-08  0.93827000000E+00  0.93827000000E+00 0. -1.
     999902    2    1    2    0    0 -0.17216757098E-01  0.55550916839E-02  0.14771589312E-01  0.10205745805E+01  0.10203073060E+01 0.  0.
     999903    2    3    3    0    0 -0.11567504057E-02 -0.12859214852E+00  0.45703571203E-02  0.13020529139E+00  0.19880920756E-01 0.  0.
         14    1    1    2    0    0  0.17216757098E-01 -0.55550916838E-02 -0.14771589312E-01  0.23355419486E-01  0.00000000000E+00 0. -1.
     999901    1    3    3    0    0 -0.16060006692E-01  0.13414724020E+00  0.10201232192E-01  0.89036928912E+00  0.88000000000E+00 0.  1.
        -11    1    4    4    0    0 -0.21461931010E-02 -0.29472482648E-01  0.92509405785E-02  0.30968926375E-01  0.51100000000E-03 0.  1.
         11    1    4    4    0    0  0.98944269537E-03 -0.99119665873E-01 -0.46805834582E-02  0.99236365019E-01  0.51100000000E-03 0. -1.
</event>
<event>
 8    1  0.1092667E+005  0.1043930E+01  0.7957747E-01            NaN
         13   -1    0    0    0    0  0.00000000000E+00  0.00000000000E+00  0.74505805969E-08  0.10566000000E+00  0.10566000000E+00 0.  1.
     999900   -1    0    0    0    0 -0.00000000000E+00 -0.00000000000E+00 -0.74505805969E-08  0.93827000000E+00  0.93827000000E+00 0.  1.
     999902    2    1    2    0    0 -0.22996089873E-01 -0.59208922460E-02  0.27723211241E-02  0.10200226187E+01  0.10197424086E+01 0.  0.
     999903    2    3    3    0    0  0.12356205977E+00 -0.24389157736E-01 -0.78671948062E-02  0.12764737964E+00  0.19223609064E-01 0.  0.
         14    1    1    2    0    0  0.22996089873E-01  0.59208922460E-02 -0.27723211241E-02  0.23907381263E-01  0.00000000000E+00 0. -1.
     999901    1    3    3    0    0 -0.14655814964E+00  0.18468265490E-01  0.10639515930E-01  0.89237523910E+00  0.88000000000E+00 0.  1.
        -11    1    4    4    0    0  0.38040159665E-01 -0.13518827152E-01 -0.92690478734E-02  0.41424495222E-01  0.51100000000E-03 0.  1.
         11    1    4    4    0    0  0.85521900102E-01 -0.10870330584E-01  0.14018530671E-02  0.86222884417E-01  0.51100000000E-03 0. -1.
</event>
<event>
 8    1  0.1092667E+005  0.1043930E+01  0.7957747E-01            NaN
         13   -1    0    0    0    0  0.00000000000E+00  0.00000000000E+00  0.74505805969E-08  0.10566000000E+00  0.10566000000E+00 0. -1.
     999900   -1    0    0    0    0 -0.00000000000E+00 -0.00000000000E+00 -0.74505805969E-08  0.93827000000E+00  0.93827000000E+00 0.  1.
     999902    2    1    2    0    0  0.27282208843E-03 -0.24049361435E-01  0.20878480497E-02  0.10197886387E+01  0.10195028505E+01 0.  0.
     999903    2    3    3    0    0  0.81412802907E-01  0.13398474733E-01 -0.97905644891E-01  0.12962868925E+00  0.20261248063E-01 0.  0.
         14    1    1    2    0    0 -0.27282208843E-03  0.24049361435E-01 -0.20878480497E-02  0.24141361329E-01  0.00000000000E+00 0.  1.
     999901    1    3    3    0    0 -0.81139980818E-01 -0.37447836168E-01  0.99993492941E-01  0.89015994942E+00  0.88000000000E+00 0.  1.
        -11    1    4    4    0    0  0.34766591847E-01  0.36563450838E-02 -0.56783720769E-01  0.66683857367E-01  0.51100000000E-03 0.  1.
         11    1    4    4    0    0  0.46646211060E-01  0.97421296495E-02 -0.41121924122E-01  0.62944831884E-01  0.51100000000E-03 0. -1.
</event>
<event>
 8    1  0.1092667E+005  0.1043930E+01  0.7957747E-01            NaN
         13   -1    0    0    0    0  0.00000000000E+00  0.00000000000E+00  0.74505805969E-08  0.10566000000E+00  0.10566000000E+00 0.  1.
     999900   -1    0    0    0    0 -0.00000000000E+00 -0.00000000000E+00 -0.74505805969E-08  0.93827000000E+00  0.93827000000E+00 0. -1.
     999902    2    1    2    0    0  0.13566169836E-01  0.19509814641E-01 -0.25173178446E-02  0.10200341694E+01  0.10197542331E+01 0.  0.
     999903    2    3    3    0    0 -0.28464444314E-01 -0.42441754596E-01  0.11668595400E+00  0.12884732620E+00  0.19351859997E-01 0.  0.
         14    1    1    2    0    0 -0.13566169836E-01 -0.19509814641E-01  0.25173178446E-02  0.23895830609E-01  0.00000000000E+00 0.  1.
     999901    1    3    3    0    0  0.42030614150E-01  0.61951569237E-01 -0.11920327184E+00  0.89118684319E+00  0.88000000000E+00 0. -1.
        -11    1    4    4    0    0  0.13290115560E-02 -0.11455336779E-01  0.21468518425E-01  0.24375180344E-01  0.51100000000E-03 0.  1.
         11    1    4    4    0    0 -0.29793455870E-01 -0.30986417817E-01  0.95217435573E-01  0.10447214586E+00  0.51100000000E-03 0. -1.
</event>
<event>
 8    1  0.1092667E+005  0.1043930E+01  0.7957747E-01            NaN
         13   -1    0    0    0    0  0.00000000000E+00  0.00000000000E+00  0.74505805969E-08  0.10566000000E+00  0.10566000000E+00 0. -1.
     999900   -1    0    0    0    0 -0.00000000000E+00 -0.00000000000E+00 -0.74505805969E-08  0.93827000000E+00  0.93827000000E+00 0. -1.
     999902    2    1    2    0    0 -0.20269879228E-01  0.94434042109E-02 -0.55109541403E-02  0.10208992271E+01  0.10206394149E+01 0.  0.
     999903    2    3    3    0    0  0.11821004151E+00 -0.35887942489E-01  0.28181160585E-01  0.12828129197E+00  0.20008841195E-01 0.  0.
         14    1    1    2    0    0  0.20269879228E-01 -0.94434042109E-02  0.55109541403E-02  0.23030772947E-01  0.00000000000E+00 0. -1.
     999901    1    3    3    0    0 -0.13847992074E+00  0.45331346700E-01 -0.33692114725E-01  0.89261793509E+00  0.88000000000E+00 0. -1.
        -11    1    4    4    0    0  0.50368280189E-01 -0.53148427296E-02  0.91260650665E-02  0.51466079966E-01  0.51100000000E-03 0.  1.
         11    1    4    4    0    0  0.67841761325E-01 -0.30573099760E-01  0.19055095518E-01  0.76815212001E-01  0.51100000000E-03 0. -1.
</event>
<event>
 8    1  0.1092667E+005  0.1043930E+01  0.7957747E-01            NaN
         13   -1    0    0    0    0  0.00000000000E+00  0.00000000000E+00  0.74505805969E-08  0.10566000000E+00  0.10566000000E+00 0. -1.
     999900   -1    0    0    0    0 -0.00000000000E+00 -0.00000000000E+00 -0.74505805969E-08  0.93827000000E+00  0.93827000000E+00 0.  1.
     999902    2    1    2    0    0 -0.11338101261E-01 -0.19356398810E-01 -0.38917266709E-02  0.10211622981E+01  0.10209084536E+01 0.  0.
     999903    2    3    3    0    0 -0.98888543498E-01 -0.87634726498E-01  0.10280148541E-01  0.13407275804E+00  0.20273965348E-01 0.  0.
         14    1    1    2    0    0  0.11338101261E-01  0.19356398810E-01  0.38917266709E-02  0.22767701938E-01  0.00000000000E+00 0.  1.
     999901    1    3    3    0    0  0.87550442238E-01  0.68278327688E-01 -0.14171875212E-01  0.88708954002E+00  0.88000000000E+00 0.  1.
        -11    1    4    4    0    0 -0.42984846153E-01 -0.46140502314E-01 -0.32566798405E-02  0.63146734177E-01  0.51100000000E-03 0.  1.
         11    1    4    4    0    0 -0.55903697345E-01 -0.41494224184E-01  0.13536828381E-01  0.70926023864E-01  0.51100000000E-03 0. -1.
</event>
<event>
 8    1  0.1092667E+005  0.1043930E+01  0.7957747E-01            NaN
         13   -1    0    0    0    0  0.00000000000E+00  0.00000000000E+00  0.74505805969E-08  0.10566000000E+00  0.10566000000E+00 0. -1.
     999900   -1    0    0    0    0 -0.00000000000E+00 -0.00000000000E+00 -0.74505805969E-08  0.93827000000E+00  0.93827000000E+00 0.  1.
     999902    2    1    2    0    0  0.11560864491E-01  0.16824015445E-01  0.36698224678E-02  0.10231894918E+01  0.10229792605E+01 0.  0.
     999903    2    3    3    0    0 -0.12737748670E+00  0.28611167297E-01  0.54276172586E-02  0.13220919335E+00  0.20154125277E-01 0.  0.
         14    1    1    2    0    0 -0.11560864491E-01 -0.16824015445E-01 -0.36698224678E-02  0.20740508200E-01  0.00000000000E+00 0. -1.
     999901    1    3    3    0    0  0.13893835119E+00 -0.11787151853E-01 -0.17577947909E-02  0.89098029845E+00  0.88000000000E+00 0. -1.
        -11    1    4    4    0    0 -0.99126610832E-01  0.19843709151E-01 -0.39567137243E-02  0.10117200439E+00  0.51100000000E-03 0.  1.
         11    1    4    4    0    0 -0.28250875867E-01  0.87674581463E-02  0.93843309829E-02  0.31037188961E-01  0.51100000000E-03 0. -1.
</event>
<event>
 8    1  0.1092667E+005  0.1043930E+01  0.7957747E-01            NaN
         13   -1    0    0    0    0  0.00000000000E+00  0.00000000000E+00  0.74505805969E-08  0.10566000000E+00  0.10566000000E+00 0. -1.
     999900   -1    0    0    0    0 -0.00000000000E+00 -0.00000000000E+00 -0.74505805969E-08  0.93827000000E+00  0.93827000000E+00 0.  1.
     999902    2    1    2    0    0  0.23745505637E-01 -0.36896048896E-02 -0.82605879647E-03  0.10198853624E+01  0.10196018870E+01 0.  0.
     999903    2    3    3    0    0 -0.59966699576E-01 -0.10545544464E+00  0.40105573859E-01  0.12913319826E+00  0.18710157057E-01 0.  0.
         14    1    1    2    0    0 -0.23745505637E-01  0.36896048896E-02  0.82605879647E-03  0.24044637558E-01  0.00000000000E+00 0.  1.
     999901    1    3    3    0    0  0.83712205213E-01  0.10176583975E+00 -0.40931632655E-01  0.89075216418E+00  0.88000000000E+00 0. -1.
        -11    1    4    4    0    0 -0.52143263837E-01 -0.92005728908E-01  0.41267330912E-01  0.11352192668E+00  0.51100000000E-03 0.  1.
         11    1    4    4    0    0 -0.78234357394E-02 -0.13449715728E-01 -0.11617570534E-02  0.15611271581E-01  0.51100000000E-03 0. -1.
</event>
<event>
 8    1  0.1092667E+005  0.1043930E+01  0.7957747E-01            NaN
         13   -1    0    0    0    0  0.00000000000E+00  0.00000000000E+00  0.74505805969E-08  0.10566000000E+00  0.10566000000E+00 0.  1.
     999900   -1    0    0    0    0 -0.00000000000E+00 -0.00000000000E+00 -0.74505805969E-08  0.93827000000E+00  0.93827000000E+00 0.  1.
     999902    2    1    2    0    0 -0.38271717901E-02  0.22689669857E-01 -0.55776043893E-02  0.10202534708E+01  0.10199787090E+01 0.  0.
     999903    2    3    3    0    0  0.46496429057E-02  0.12243232502E+00 -0.49199326652E-01  0.13350474189E+00  0.19790123194E-01 0.  0.
         14    1    1    2    0    0  0.38271717901E-02 -0.22689669857E-01  0.55776043893E-02  0.23676529155E-01  0.00000000000E+00 0.  1.
     999901    1    3    3    0    0 -0.84768146958E-02 -0.99742655162E-01  0.43621722262E-01  0.88674872895E+00  0.88000000000E+00 0. -1.
        -11    1    4    4    0    0 -0.66553710516E-02  0.44566910667E-01 -0.22853588264E-01  0.50527726129E-01  0.51100000000E-03 0.  1.
         11    1    4    4    0    0  0.11305013957E-01  0.77865414352E-01 -0.26345738388E-01  0.82977015763E-01  0.51100000000E-03 0. -1.
</event>
<event>
 8    1  0.1092667E+005  0.1043930E+01  0.7957747E-01            NaN
         13   -1    0    0    0    0  0.00000000000E+00  0.00000000000E+00  0.74505805969E-08  0.10566000000E+00  0.10566000000E+00 0. -1.
     999900   -1    0    0    0    0 -0.00000000000E+00 -0.00000000000E+00 -0.74505805969E-08  0.93827000000E+00  0.93827000000E+00 0. -1.
     999902    2    1    2    0    0 -0.65848617649E-02 -0.91791427181E-02  0.20947493116E-01  0.10201305350E+01  0.10198528786E+01 0.  0.
     999903    2    3    3    0    0  0.91102069931E-01 -0.88216230077E-01  0.26196964715E-01  0.13118894259E+00  0.21037283626E-01 0.  0.
         14    1    1    2    0    0  0.65848617649E-02  0.91791427181E-02 -0.20947493116E-01  0.23799464981E-01  0.00000000000E+00 0.  1.
     999901    1    3    3    0    0 -0.97686931696E-01  0.79037087359E-01 -0.52494715989E-02  0.88894159243E+00  0.88000000000E+00 0.  1.
        -11    1    4    4    0    0  0.46643581739E-01 -0.46308237150E-01  0.24246402208E-01  0.70058730266E-01  0.51100000000E-03 0.  1.
         11    1    4    4    0    0  0.44458488192E-01 -0.41907992927E-01  0.19505625071E-02  0.61130212322E-01  0.51100000000E-03 0. -1.
</event>
<event>
 8    1  0.1092667E+005  0.1043930E+01  0.7957747E-01            NaN
         13   -1    0    0    0    0  0.00000000000E+00  0.00000000000E+00  0.74505805969E-08  0.10566000000E+00  0.10566000000E+00 0. -1.
     999900   -1    0    0    0    0 -0.00000000000E+00 -0.00000000000E+00 -0.74505805969E-08  0.93827000000E+00  0.93827000000E+00 0. -1.
     999902    2    1    2    0    0 -0.19548574812E-01  0.10705811276E-01  0.73375373329E-02  0.10204651193E+01  0.10201953044E+01 0.  0.
     999903    2    3    3    0    0 -0.72769500672E-01 -0.94678623749E-01 -0.48750212128E-01  0.13081115188E+00  0.21806701990E-01 0.  0.
         14    1    1    2    0    0  0.19548574812E-01 -0.10705811276E-01 -0.73375373329E-02  0.23464880702E-01  0.00000000000E+00 0.  1.
     999901    1    3    3    0    0  0.53220925860E-01  0.10538443503E+00  0.56087749461E-01  0.88965396741E+00  0.88000000000E+00 0.  1.
        -11    1    4    4    0    0 -0.44731178133E-01 -0.62994158955E-01 -0.42075386281E-01  0.87975801283E-01  0.51100000000E-03 0.  1.
         11    1    4    4    0    0 -0.28038322539E-01 -0.31684464794E-01 -0.66748258472E-02  0.42835350601E-01  0.51100000000E-03 0. -1.
</event>
<event>
 8    1  0.1092667E+005  0.1043930E+01  0.7957747E-01            NaN
         13   -1    0    0    0    0  0.00000000000E+00  0.00000000000E+00  0.74505805969E-08  0.10566000000E+00  0.10566000000E+00 0.  1.
     999900   -1    0    0    0    0 -0.00000000000E+00 -0.00000000000E+00 -0.74505805969E-08  0.93827000000E+00  0.93827000000E+00 0. -1.
     999902    2    1    2    0    0 -0.19890841598E-01 -0.11563577346E-01 -0.59662392339E-02  0.10201611567E+01  0.10198842227E+01 0.  0.
     999903    2    3    3    0    0 -0.39091471624E-01 -0.12074863932E+00 -0.34011849673E-01  0.13276237476E+00  0.18991186987E-01 0.  0.
         14    1    1    2    0    0  0.19890841598E-01  0.11563577346E-01  0.59662392339E-02  0.23768843285E-01  0.00000000000E+00 0.  1.
     999901    1    3    3    0    0  0.19200630025E-01  0.10918506197E+00  0.28045610439E-01  0.88739878196E+00  0.88000000000E+00 0.  1.
        -11    1    4    4    0    0 -0.38682998878E-01 -0.10475062303E+00 -0.34079775228E-01  0.11675084423E+00  0.51100000000E-03 0.  1.
         11    1    4    4    0    0 -0.40847274599E-03 -0.15998016287E-01  0.67925555341E-04  0.16011530532E-01  0.51100000000E-03 0. -1.
</event>
<event>
 8    1  0.1092667E+005  0.1043930E+01  0.7957747E-01            NaN
         13   -1    0    0    0    0  0.00000000000E+00  0.00000000000E+00  0.74505805969E-08  0.10566000000E+00  0.10566000000E+00 0.  1.
     999900   -1    0    0    0    0 -0.00000000000E+00 -0.00000000000E+00 -0.74505805969E-08  0.93827000000E+00  0.93827000000E+00 0. -1.
     999902    2    1    2    0    0  0.11441655678E-01  0.10649024761E-01  0.17568260689E-01  0.10204149623E+01  0.10201439792E+01 0.  0.
     999903    2    3    3    0    0  0.13475301631E-01 -0.12651721637E+00 -0.13385934333E-01  0.12924894210E+00  0.18382491773E-01 0.  0.
         14    1    1    2    0    0 -0.11441655678E-01 -0.10649024761E-01 -0.17568260689E-01  0.23515037671E-01  0.00000000000E+00 0. -1.
     999901    1    3    3    0    0 -0.20336459528E-02  0.13716624113E+00  0.30954195022E-01  0.89116602023E+00  0.88000000000E+00 0.  1.
        -11    1    4    4    0    0  0.14176911504E-01 -0.57266455231E-01 -0.10560682432E-01  0.59935138683E-01  0.51100000000E-03 0.  1.
         11    1    4    4    0    0 -0.70160987319E-03 -0.69250761139E-01 -0.28252519006E-02  0.69313803417E-01  0.51100000000E-03 0. -1.
</event>
<event>
 8    1  0.1092667E+005  0.1043930E+01  0.7957747E-01            NaN
         13   -1    0    0    0    0  0.00000000000E+00  0.00000000000E+00  0.74505805969E-08  0.10566000000E+00  0.10566000000E+00 0.  1.
     999900   -1    0    0    0    0 -0.00000000000E+00 -0.00000000000E+00 -0.74505805969E-08  0.93827000000E+00  0.93827000000E+00 0.  1.
     999902    2    1    2    0    0  0.22229684135E-01  0.29549039796E-02  0.58578537539E-02  0.10207523218E+01  0.10204891463E+01 0.  0.
     999903    2    3    3    0    0  0.11935393563E+00  0.56737779371E-01  0.68102753571E-02  0.13377620885E+00  0.19625408150E-01 0.  0.
         14    1    1    2    0    0 -0.22229684135E-01 -0.29549039796E-02 -0.58578537539E-02  0.23177678160E-01  0.00000000000E+00 0. -1.
     999901    1    3    3    0    0 -0.97124251493E-01 -0.53782875392E-01 -0.95242160320E-03  0.88697611299E+00  0.88000000000E+00 0.  1.
        -11    1    4    4    0    0  0.80700874581E-01  0.41726115369E-01 -0.39393748381E-02  0.90936679382E-01  0.51100000000E-03 0.  1.
         11    1    4    4    0    0  0.38653061047E-01  0.15011664002E-01  0.10749650195E-01  0.42839529465E-01  0.51100000000E-03 0. -1.
</event>
<event>
 8    1  0.1092667E+005  0.1043930E+01  0.7957747E-01            NaN
         13   -1    0    0    0    0  0.00000000000E+00  0.00000000000E+00  0.74505805969E-08  0.10566000000E+00  0.10566000000E+00 0. -1.
     999900   -1    0    0    0    0 -0.00000000000E+00 -0.00000000000E+00 -0.74505805969E-08  0.93827000000E+00  0.93827000000E+00 0. -1.
     999902    2    1    2    0    0  0.16173671045E-01  0.12436498009E-01  0.13049436698E-01  0.10197113725E+01  0.10194237300E+01 0.  0.
     999903    2    3    3    0    0 -0.87610026816E-01  0.91974609110E-01 -0.16462320159E-01  0.12956064887E+00  0.19496364563E-01 0.  0.
         14    1    1    2    0    0 -0.16173671045E-01 -0.12436498009E-01 -0.13049436698E-01  0.24218627458E-01  0.00000000000E+00 0.  1.
     999901    1    3    3    0    0  0.10378369786E+00 -0.79538111101E-01  0.29511756857E-01  0.89015072367E+00  0.88000000000E+00 0. -1.
        -11    1    4    4    0    0 -0.51426108350E-01  0.46121611814E-01 -0.17016430598E-01  0.71145398499E-01  0.51100000000E-03 0.  1.
         11    1    4    4    0    0 -0.36183918466E-01  0.45852997296E-01  0.55411043909E-03  0.58415250371E-01  0.51100000000E-03 0. -1.
</event>
<event>
 8    1  0.1092667E+005  0.1043930E+01  0.7957747E-01            NaN
         13   -1    0    0    0    0  0.00000000000E+00  0.00000000000E+00  0.74505805969E-08  0.10566000000E+00  0.10566000000E+00 0.  1.
     999900   -1    0    0    0    0 -0.00000000000E+00 -0.00000000000E+00 -0.74505805969E-08  0.93827000000E+00  0.93827000000E+00 0. -1.
     999902    2    1    2    0    0  0.11530888339E-01 -0.19167501826E-01 -0.13805292774E-01  0.10176442506E+01  0.10173047135E+01 0.  0.
     999903    2    3    3    0    0  0.23276840640E-01 -0.25314506978E-01 -0.12445226401E+00  0.13061634502E+00  0.19738996777E-01 0.  0.
         14    1    1    2    0    0 -0.11530888339E-01  0.19167501826E-01  0.13805292774E-01  0.26285749385E-01  0.00000000000E+00 0.  1.
     999901    1    3    3    0    0 -0.11745952301E-01  0.61470051512E-02  0.11064697124E+00  0.88702790560E+00  0.88000000000E+00 0.  1.
        -11    1    4    4    0    0  0.18417851447E-01 -0.96769806168E-02 -0.46254288627E-01  0.50720622464E-01  0.51100000000E-03 0.  1.
         11    1    4    4    0    0  0.48589891937E-02 -0.15637526361E-01 -0.78197975385E-01  0.79895722551E-01  0.51100000000E-03 0. -1.
</event>
<event>
 8    1  0.1092667E+005  0.1043930E+01  0.7957747E-01            NaN
         13   -1    0    0    0    0  0.00000000000E+00  0.00000000000E+00  0.74505805969E-08  0.10566000000E+00  0.10566000000E+00 0.  1.
     999900   -1    0    0    0    0 -0.00000000000E+00 -0.00000000000E+00 -0.74505805969E-08  0.93827000000E+00  0.93827000000E+00 0. -1.
     999902    2    1    2    0    0  0.16984752513E-01  0.12880358162E-01 -0.95227979492E-02  0.10205832845E+01  0.10203162115E+01 0.  0.
     999903    2    3    3    0    0 -0.24909844087E-01 -0.95789993906E-01  0.79379338684E-01  0.12846894622E+00  0.20173434736E-01 0.  0.
         14    1    1    2    0    0 -0.16984752513E-01 -0.12880358162E-01  0.95227979492E-02  0.23346715510E-01  0.00000000000E+00 0.  1.
     999901    1    3    3    0    0  0.41894596600E-01  0.10867035207E+00 -0.88902136633E-01  0.89211433827E+00  0.88000000000E+00 0. -1.
        -11    1    4    4    0    0 -0.14043102057E-02 -0.82182945151E-02  0.15323030645E-01  0.17451900786E-01  0.51100000000E-03 0. -1.
         11    1    4    4    0    0 -0.23505533881E-01 -0.87571699391E-01  0.64056308039E-01  0.11101704544E+00  0.51100000000E-03 0.  1.
</event>
<event>
 8    1  0.1092667E+005  0.1043930E+01  0.7957747E-01            NaN
         13   -1    0    0    0    0  0.00000000000E+00  0.00000000000E+00  0.74505805969E-08  0.10566000000E+00  0.10566000000E+00 0.  1.
     999900   -1    0    0    0    0 -0.00000000000E+00 -0.00000000000E+00 -0.74505805969E-08  0.93827000000E+00  0.93827000000E+00 0.  1.
     999902    2    1    2    0    0  0.17140374152E-01 -0.63180090523E-02 -0.15525850698E-01  0.10199558117E+01  0.10196740146E+01 0.  0.
     999903    2    3    3    0    0  0.46407376890E-01 -0.10390108496E+00  0.61202103191E-01  0.13076168607E+00  0.20095796161E-01 0.  0.
         14    1    1    2    0    0 -0.17140374152E-01  0.63180090523E-02  0.15525850698E-01  0.23974188294E-01  0.00000000000E+00 0.  1.
     999901    1    3    3    0    0 -0.29267002738E-01  0.97583075910E-01 -0.76727953889E-01  0.88919412563E+00  0.88000000000E+00 0.  1.
        -11    1    4    4    0    0  0.10669921930E-01 -0.16009257031E-01  0.18565797912E-01  0.26741232541E-01  0.51100000000E-03 0. -1.
         11    1    4    4    0    0  0.35737454960E-01 -0.87891827931E-01  0.42636305279E-01  0.10402045353E+00  0.51100000000E-03 0.  1.
</event>
<event>
 8    1  0.1092667E+005  0.1043930E+01  0.7957747E-01            NaN
         13   -1    0    0    0    0  0.00000000000E+00  0.00000000000E+00  0.74505805969E-08  0.10566000000E+00  0.10566000000E+00 0.  1.
     999900   -1    0    0    0    0 -0.00000000000E+00 -0.00000000000E+00 -0.74505805969E-08  0.93827000000E+00  0.93827000000E+00 0.  1.
     999902    2    1    2    0    0  0.72000478213E-03 -0.69421244725E-02 -0.19038032899E-01  0.10236529638E+01  0.10234521152E+01 0.  0.
     999903    2    3    3    0    0  0.83792636400E-01  0.86678290565E-01 -0.55209326439E-01  0.13406080632E+00  0.19745837402E-01 0.  0.
         14    1    1    2    0    0 -0.72000478213E-03  0.69421244725E-02  0.19038032899E-01  0.20277036167E-01  0.00000000000E+00 0.  1.
     999901    1    3    3    0    0 -0.83072631618E-01 -0.93620415037E-01  0.36171293540E-01  0.88959215751E+00  0.88000000000E+00 0. -1.
        -11    1    4    4    0    0  0.27003827336E-01  0.40865895920E-01 -0.18303041826E-01  0.52292357006E-01  0.51100000000E-03 0.  1.
         11    1    4    4    0    0  0.56788809064E-01  0.45812394645E-01 -0.36906284613E-01  0.81768449312E-01  0.51100000000E-03 0. -1.
</event>
<event>
 8    1  0.1092667E+005  0.1043930E+01  0.7957747E-01            NaN
         13   -1    0    0    0    0  0.00000000000E+00  0.00000000000E+00  0.74505805969E-08  0.10566000000E+00  0.10566000000E+00 0. -1.
     999900   -1    0    0    0    0 -0.00000000000E+00 -0.00000000000E+00 -0.74505805969E-08  0.93827000000E+00  0.93827000000E+00 0.  1.
     999902    2    1    2    0    0  0.95079842357E-02 -0.17428534330E-01 -0.91718125448E-02  0.10220604385E+01  0.10218264345E+01 0.  0.
     999903    2    3    3    0    0 -0.12187900306E+00 -0.46520747534E-01 -0.31660411785E-02  0.13181049241E+00  0.18582538924E-01 0.  0.
         14    1    1    2    0    0 -0.95079842357E-02  0.17428534330E-01  0.91718125448E-02  0.21869561460E-01  0.00000000000E+00 0.  1.
     999901    1    3    3    0    0  0.13138698730E+00  0.29092213204E-01 -0.60057713663E-02  0.89024994613E+00  0.88000000000E+00 0.  1.
        -11    1    4    4    0    0 -0.84233129049E-02 -0.84876847255E-02  0.14700729325E-02  0.12058823646E-01  0.51100000000E-03 0.  1.
         11    1    4    4    0    0 -0.11345569016E+00 -0.38033062809E-01 -0.46361141110E-02  0.11975166876E+00  0.51100000000E-03 0. -1.
</event>
<event>
 8    1  0.1092667E+005  0.1043930E+01  0.7957747E-01            NaN
         13   -1    0    0    0    0  0.00000000000E+00  0.00000000000E+00  0.74505805969E-08  0.10566000000E+00  0.10566000000E+00 0.  1.
     999900   -1    0    0    0    0 -0.00000000000E+00 -0.00000000000E+00 -0.74505805969E-08  0.93827000000E+00  0.93827000000E+00 0. -1.
     999902    2    1    2    0    0 -0.67896756207E-02 -0.16017311366E-01 -0.17816100992E-01  0.10190288472E+01  0.10187245574E+01 0.  0.
     999903    2    3    3    0    0  0.51520100900E-01 -0.82636661454E-01  0.82207427556E-01  0.12894858442E+00  0.19660561188E-01 0.  0.
         14    1    1    2    0    0  0.67896756207E-02  0.16017311366E-01  0.17816100992E-01  0.24901152844E-01  0.00000000000E+00 0. -1.
     999901    1    3    3    0    0 -0.58309776521E-01  0.66619350088E-01 -0.10002352855E+00  0.89008026273E+00  0.88000000000E+00 0. -1.
        -11    1    4    4    0    0  0.99774721049E-02 -0.29755763618E-01  0.33543025390E-01  0.45938557785E-01  0.51100000000E-03 0. -1.
         11    1    4    4    0    0  0.41542628795E-01 -0.52880897836E-01  0.48664402166E-01  0.83010026637E-01  0.51100000000E-03 0.  1.
</event>
<event>
 8    1  0.1092667E+005  0.1043930E+01  0.7957747E-01            NaN
         13   -1    0    0    0    0  0.00000000000E+00  0.00000000000E+00  0.74505805969E-08  0.10566000000E+00  0.10566000000E+00 0. -1.
     999900   -1    0    0    0    0 -0.00000000000E+00 -0.00000000000E+00 -0.74505805969E-08  0.93827000000E+00  0.93827000000E+00 0.  1.
     999902    2    1    2    0    0  0.18683866092E-02 -0.15269883175E-01 -0.18154713336E-01  0.10201339117E+01  0.10198563350E+01 0.  0.
     999903    2    3    3    0    0  0.86547115755E-01 -0.90576763694E-01  0.34112744261E-01  0.13132937723E+00  0.19727458926E-01 0.  0.
         14    1    1    2    0    0 -0.18683866092E-02  0.15269883175E-01  0.18154713336E-01  0.23796088272E-01  0.00000000000E+00 0.  1.
     999901    1    3    3    0    0 -0.84678729145E-01  0.75306880518E-01 -0.52267457597E-01  0.88880453450E+00  0.88000000000E+00 0.  1.
        -11    1    4    4    0    0  0.56619559976E-01 -0.65329330146E-01  0.31757843165E-01  0.92100584540E-01  0.51100000000E-03 0.  1.
         11    1    4    4    0    0  0.29927555778E-01 -0.25247433548E-01  0.23549010957E-02  0.39228792689E-01  0.51100000000E-03 0. -1.
</event>
<event>
 8    1  0.1092667E+005  0.1043930E+01  0.7957747E-01            NaN
         13   -1    0    0    0    0  0.00000000000E+00  0.00000000000E+00  0.74505805969E-08  0.10566000000E+00  0.10566000000E+00 0.  1.
     999900   -1    0    0    0    0 -0.00000000000E+00 -0.00000000000E+00 -0.74505805969E-08  0.93827000000E+00  0.93827000000E+00 0. -1.
     999902    2    1    2    0    0 -0.44142466319E-02 -0.20611476278E-01  0.10577767737E-01  0.10203459440E+01  0.10200733492E+01 0.  0.
     999903    2    3    3    0    0 -0.80214606394E-01 -0.10422316368E+00 -0.37466062260E-02  0.13302311857E+00  0.19602604181E-01 0.  0.
         14    1    1    2    0    0  0.44142466319E-02  0.20611476278E-01 -0.10577767737E-01  0.23584056012E-01  0.00000000000E+00 0. -1.
     999901    1    3    3    0    0  0.75800359762E-01  0.83611687401E-01  0.14324373963E-01  0.88732282541E+00  0.88000000000E+00 0.  1.
        -11    1    4    4    0    0 -0.16438464148E-01 -0.20312341586E-01  0.70609374962E-02  0.27072722131E-01  0.51100000000E-03 0. -1.
         11    1    4    4    0    0 -0.63776142247E-01 -0.83910822093E-01 -0.10807543722E-01  0.10595039644E+00  0.51100000000E-03 0.  1.
</event>
<event>
 8    1  0.1092667E+005  0.1043930E+01  0.7957747E-01            NaN
         13   -1    0    0    0    0  0.00000000000E+00  0.00000000000E+00  0.74505805969E-08  0.10566000000E+00  0.10566000000E+00 0.  1.
     999900   -1    0    0    0    0 -0.00000000000E+00 -0.00000000000E+00 -0.74505805969E-08  0.93827000000E+00  0.93827000000E+00 0.  1.
     999902    2    1    2    0    0 -0.25036502071E-01 -0.60857439438E-02 -0.27655599526E-01  0.10061319194E+01  0.10054216748E+01 0.  0.
     999903    2    3    3    0    0 -0.75784290560E-01 -0.71658410479E-01  0.52811603146E-01  0.11857905708E+00  0.19842904581E-01 0.  0.
         14    1    1    2    0    0  0.25036502071E-01  0.60857439438E-02  0.27655599526E-01  0.37798080645E-01  0.00000000000E+00 0.  1.
     999901    1    3    3    0    0  0.50747788489E-01  0.65572666535E-01 -0.80467202672E-01  0.88755286228E+00  0.88000000000E+00 0.  1.
        -11    1    4    4    0    0 -0.97937657081E-02 -0.32880755872E-02  0.11163636928E-02  0.10403685727E-01  0.51100000000E-03 0.  1.
         11    1    4    4    0    0 -0.65990524852E-01 -0.68370334891E-01  0.51695239453E-01  0.10817537135E+00  0.51100000000E-03 0. -1.
</event>
<event>
 8    1  0.1092667E+005  0.1043930E+01  0.7957747E-01            NaN
         13   -1    0    0    0    0  0.00000000000E+00  0.00000000000E+00  0.74505805969E-08  0.10566000000E+00  0.10566000000E+00 0. -1.
     999900   -1    0    0    0    0 -0.00000000000E+00 -0.00000000000E+00 -0.74505805969E-08  0.93827000000E+00  0.93827000000E+00 0. -1.
     999902    2    1    2    0    0 -0.30455378427E-01  0.31363171399E-02 -0.44592706921E-04  0.10133135249E+01  0.10128508929E+01 0.  0.
     999903    2    3    3    0    0  0.10781499479E+00 -0.36995998148E-01  0.35184390834E-01  0.12091765974E+00  0.19757583295E-01 0.  0.
         14    1    1    2    0    0  0.30455378427E-01 -0.31363171399E-02  0.44592706921E-04  0.30616475121E-01  0.00000000000E+00 0.  1.
     999901    1    3    3    0    0 -0.13827037322E+00  0.40132315288E-01 -0.35228983541E-01  0.89239586514E+00  0.88000000000E+00 0.  1.
        -11    1    4    4    0    0  0.28188886412E-01 -0.13806315836E-01  0.18112843201E-01  0.36243121884E-01  0.51100000000E-03 0. -1.
         11    1    4    4    0    0  0.79626108377E-01 -0.23189682312E-01  0.17071547633E-01  0.84674537853E-01  0.51100000000E-03 0.  1.
</event>
<event>
 8    1  0.1092667E+005  0.1043930E+01  0.7957747E-01            NaN
         13   -1    0    0    0    0  0.00000000000E+00  0.00000000000E+00  0.74505805969E-08  0.10566000000E+00  0.10566000000E+00 0. -1.
     999900   -1    0    0    0    0 -0.00000000000E+00 -0.00000000000E+00 -0.74505805969E-08  0.93827000000E+00  0.93827000000E+00 0.  1.
     999902    2    1    2    0    0 -0.15904552710E-01  0.86199785466E-02  0.15175061148E-01  0.10203176874E+01  0.10200444313E+01 0.  0.
     999903    2    3    3    0    0  0.72243159723E-01 -0.10305851409E+00 -0.14975158556E-01  0.12838095156E+00  0.20427478959E-01 0.  0.
         14    1    1    2    0    0  0.15904552710E-01 -0.86199785466E-02 -0.15175061148E-01  0.23612312633E-01  0.00000000000E+00 0.  1.
     999901    1    3    3    0    0 -0.88147712433E-01  0.11167849264E+00  0.30150219703E-01  0.89193673580E+00  0.88000000000E+00 0. -1.
        -11    1    4    4    0    0  0.49876194676E-01 -0.83046969917E-01 -0.16748920233E-01  0.98311858174E-01  0.51100000000E-03 0.  1.
         11    1    4    4    0    0  0.22366965047E-01 -0.20011544178E-01  0.17737616777E-02  0.30069093390E-01  0.51100000000E-03 0. -1.
</event>
<event>
 8    1  0.1092667E+005  0.1043930E+01  0.7957747E-01            NaN
         13   -1    0    0    0    0  0.00000000000E+00  0.00000000000E+00  0.74505805969E-08  0.10566000000E+00  0.10566000000E+00 0. -1.
     999900   -1    0    0    0    0 -0.00000000000E+00 -0.00000000000E+00 -0.74505805969E-08  0.93827000000E+00  0.93827000000E+00 0.  1.
     999902    2    1    2    0    0  0.18813171194E-01 -0.67682768554E-02  0.59961475545E-02  0.10230566014E+01  0.10228436396E+01 0.  0.
     999903    2    3    3    0    0 -0.22793235049E-01  0.12829374944E+00  0.10669958801E-03  0.13176117927E+00  0.19549405815E-01 0.  0.
         14    1    1    2    0    0 -0.18813171194E-01  0.67682768554E-02 -0.59961475545E-02  0.20873398561E-01  0.00000000000E+00 0. -1.
     999901    1    3    3    0    0  0.41606406243E-01 -0.13506202630E+00  0.58894479665E-02  0.89129542217E+00  0.88000000000E+00 0.  1.
        -11    1    4    4    0    0 -0.19013465819E-01  0.96935040092E-01 -0.81232364363E-02  0.99116910623E-01  0.51100000000E-03 0. -1.
         11    1    4    4    0    0 -0.37797692295E-02  0.31358709348E-01  0.82299360243E-02  0.32644268645E-01  0.51100000000E-03 0.  1.
</event>
<event>
 8    1  0.1092667E+005  0.1043930E+01  0.7957747E-01            NaN
         13   -1    0    0    0    0  0.00000000000E+00  0.00000000000E+00  0.74505805969E-08  0.10566000000E+00  0.10566000000E+00 0. -1.
     999900   -1    0    0    0    0 -0.00000000000E+00 -0.00000000000E+00 -0.74505805969E-08  0.93827000000E+00  0.93827000000E+00 0.  1.
     999902    2    1    2    0    0 -0.18747559712E-01  0.15134018462E-01  0.93045327430E-03  0.10198182756E+01  0.10195331971E+01 0.  0.
     999903    2    3    3    0    0 -0.65033751524E-01  0.11230772423E+00  0.21611859946E-01  0.13301905299E+00  0.19610767672E-01 0.  0.
         14    1    1    2    0    0  0.18747559712E-01 -0.15134018462E-01 -0.93045327430E-03  0.24111724394E-01  0.00000000000E+00 0.  1.
     999901    1    3    3    0    0  0.46286191812E-01 -0.97173705773E-01 -0.20681406672E-01  0.88679922261E+00  0.88000000000E+00 0. -1.
        -11    1    4    4    0    0 -0.22910371079E-01  0.59046827576E-01  0.97505159002E-02  0.64083903058E-01  0.51100000000E-03 0. -1.
         11    1    4    4    0    0 -0.42123380445E-01  0.53260896658E-01  0.11861344046E-01  0.68935149935E-01  0.51100000000E-03 0.  1.
</event>
<event>
 8    1  0.1092667E+005  0.1043930E+01  0.7957747E-01            NaN
         13   -1    0    0    0    0  0.00000000000E+00  0.00000000000E+00  0.74505805969E-08  0.10566000000E+00  0.10566000000E+00 0. -1.
     999900   -1    0    0    0    0 -0.00000000000E+00 -0.00000000000E+00 -0.74505805969E-08  0.93827000000E+00  0.93827000000E+00 0.  1.
     999902    2    1    2    0    0  0.19895738292E-01 -0.73931882976E-02 -0.97260897669E-02  0.10205826991E+01  0.10203156126E+01 0.  0.
     999903    2    3    3    0    0  0.51641389439E-01 -0.11564743830E-01  0.11797470103E+00  0.13078908250E+00  0.19676829407E-01 0.  0.
         14    1    1    2    0    0 -0.19895738292E-01  0.73931882976E-02  0.97260897669E-02  0.23347300862E-01  0.00000000000E+00 0.  1.
     999901    1    3    3    0    0 -0.31745651147E-01  0.41715555325E-02 -0.12770079079E+00  0.88979361664E+00  0.88000000000E+00 0.  1.
        -11    1    4    4    0    0  0.24339102364E-01 -0.13266134071E-01  0.73706596195E-01  0.78748369258E-01  0.51100000000E-03 0. -1.
         11    1    4    4    0    0  0.27302287075E-01  0.17013902412E-02  0.44268104832E-01  0.52040713241E-01  0.51100000000E-03 0.  1.
</event>
<event>
 8    1  0.1092667E+005  0.1043930E+01  0.7957747E-01            NaN
         13   -1    0    0    0    0  0.00000000000E+00  0.00000000000E+00  0.74505805969E-08  0.10566000000E+00  0.10566000000E+00 0.  1.
     999900   -1    0    0    0    0 -0.00000000000E+00 -0.00000000000E+00 -0.74505805969E-08  0.93827000000E+00  0.93827000000E+00 0.  1.
     999902    2    1    2    0    0 -0.81821571582E-02 -0.84297717042E-02 -0.20455761566E-01  0.10203408727E+01  0.10200681593E+01 0.  0.
     999903    2    3    3    0    0 -0.90305713509E-01  0.92103771947E-01 -0.89707098863E-02  0.13074367263E+00  0.19370276168E-01 0.  0.
         14    1    1    2    0    0  0.81821571582E-02  0.84297717042E-02  0.20455761566E-01  0.23589127325E-01  0.00000000000E+00 0.  1.
     999901    1    3    3    0    0  0.82123556351E-01 -0.10053354365E+00 -0.11485051679E-01  0.88959720004E+00  0.88000000000E+00 0.  1.
        -11    1    4    4    0    0 -0.76673502654E-01  0.86284261454E-01 -0.57887315615E-02  0.11557495541E+00  0.51100000000E-03 0. -1.
         11    1    4    4    0    0 -0.13632210855E-01  0.58195104929E-02 -0.31819783249E-02  0.15168717225E-01  0.51100000000E-03 0.  1.
</event>
<event>
 8    1  0.1092667E+005  0.1043930E+01  0.7957747E-01            NaN
         13   -1    0    0    0    0  0.00000000000E+00  0.00000000000E+00  0.74505805969E-08  0.10566000000E+00  0.10566000000E+00 0.  1.
     999900   -1    0    0    0    0 -0.00000000000E+00 -0.00000000000E+00 -0.74505805969E-08  0.93827000000E+00  0.93827000000E+00 0.  1.
     999902    2    1    2    0    0  0.16557513580E-01 -0.17083838541E-01 -0.44095784547E-02  0.10197338603E+01  0.10194467581E+01 0.  0.
     999903    2    3    3    0    0 -0.96286929666E-01 -0.53949646789E-01  0.64053415391E-01  0.12912724807E+00  0.19729900077E-01 0.  0.
         14    1    1    2    0    0 -0.16557513580E-01  0.17083838541E-01  0.44095784547E-02  0.24196139721E-01  0.00000000000E+00 0.  1.
     999901    1    3    3    0    0  0.11284444325E+00  0.36865808247E-01 -0.68462993846E-01  0.89060661221E+00  0.88000000000E+00 0.  1.
        -11    1    4    4    0    0 -0.24153732651E-01 -0.21612567982E-01  0.25112543798E-01  0.41004961563E-01  0.51100000000E-03 0.  1.
         11    1    4    4    0    0 -0.72133197016E-01 -0.32337078806E-01  0.38940871593E-01  0.88122286505E-01  0.51100000000E-03 0. -1.
</event>
<event>
 8    1  0.1092667E+005  0.1043930E+01  0.7957747E-01            NaN
         13   -1    0    0    0    0  0.00000000000E+00  0.00000000000E+00  0.74505805969E-08  0.10566000000E+00  0.10566000000E+00 0. -1.
     999900   -1    0    0    0    0 -0.00000000000E+00 -0.00000000000E+00 -0.74505805969E-08  0.93827000000E+00  0.93827000000E+00 0.  1.
     999902    2    1    2    0    0 -0.86411281449E-02  0.15781238274E-02  0.21654378350E-01  0.10205618235E+01  0.10202942536E+01 0.  0.
     999903    2    3    3    0    0  0.38520318529E-01 -0.53945200528E-01  0.11333643768E+00  0.13280473872E+00  0.19951213564E-01 0.  0.
         14    1    1    2    0    0  0.86411281449E-02 -0.15781238274E-02 -0.21654378350E-01  0.23368176483E-01  0.00000000000E+00 0.  1.
     999901    1    3    3    0    0 -0.47161446674E-01  0.55523324355E-01 -0.91682059326E-01  0.88775708479E+00  0.88000000000E+00 0.  1.
        -11    1    4    4    0    0  0.30428378306E-01 -0.38905419199E-01  0.65698238917E-01  0.82195118876E-01  0.51100000000E-03 0.  1.
         11    1    4    4    0    0  0.80919402235E-02 -0.15039781329E-01  0.47638198759E-01  0.50609619847E-01  0.51100000000E-03 0. -1.
</event>
<event>
 8    1  0.1092667E+005  0.1043930E+01  0.7957747E-01            NaN
         13   -1    0    0    0    0  0.00000000000E+00  0.00000000000E+00  0.74505805969E-08  0.10566000000E+00  0.10566000000E+00 0. -1.
     999900   -1    0    0    0    0 -0.00000000000E+00 -0.00000000000E+00 -0.74505805969E-08  0.93827000000E+00  0.93827000000E+00 0.  1.
     999902    2    1    2    0    0 -0.77047534472E-03  0.17066797806E-02  0.24105681566E-01  0.10197516983E+01  0.10194650244E+01 0.  0.
     999903    2    3    3    0    0 -0.93959476841E-01  0.72732775630E-01  0.52678294241E-01  0.13152577521E+00  0.20139188726E-01 0.  0.
         14    1    1    2    0    0  0.77047534472E-03 -0.17066797806E-02 -0.24105681566E-01  0.24178301675E-01  0.00000000000E+00 0.  1.
     999901    1    3    3    0    0  0.93189001496E-01 -0.71026095850E-01 -0.28572612675E-01  0.88822592311E+00  0.88000000000E+00 0. -1.
        -11    1    4    4    0    0 -0.41783656837E-01  0.36220875407E-01  0.34954941617E-01  0.65421211074E-01  0.51100000000E-03 0.  1.
         11    1    4    4    0    0 -0.52175820004E-01  0.36511900223E-01  0.17723352624E-01  0.66104564140E-01  0.51100000000E-03 0. -1.
</event>
<event>
 8    1  0.1092667E+005  0.1043930E+01  0.7957747E-01            NaN
         13   -1    0    0    0    0  0.00000000000E+00  0.00000000000E+00  0.74505805969E-08  0.10566000000E+00  0.10566000000E+00 0. -1.
     999900   -1    0    0    0    0 -0.00000000000E+00 -0.00000000000E+00 -0.74505805969E-08  0.93827000000E+00  0.93827000000E+00 0.  1.
     999902    2    1    2    0    0  0.68435652525E-02  0.22915182845E-01  0.38287406438E-02  0.10197101890E+01  0.10194225180E+01 0.  0.
     999903    2    3    3    0    0 -0.12524147403E+00 -0.28156412206E-02  0.23318204480E-01  0.12926739347E+00  0.21747774622E-01 0.  0.
         14    1    1    2    0    0 -0.68435652525E-02 -0.22915182845E-01 -0.38287406438E-02  0.24219811005E-01  0.00000000000E+00 0. -1.
     999901    1    3    3    0    0  0.13208503928E+00  0.25730824066E-01 -0.19489463836E-01  0.89044279553E+00  0.88000000000E+00 0. -1.
        -11    1    4    4    0    0 -0.17000473316E-01 -0.44964015673E-02 -0.30308292621E-02  0.17851632056E-01  0.51100000000E-03 0.  1.
         11    1    4    4    0    0 -0.10824100071E+00  0.16807603467E-02  0.26349033742E-01  0.11141576141E+00  0.51100000000E-03 0. -1.
</event>
<event>
 8    1  0.1092667E+005  0.1043930E+01  0.7957747E-01            NaN
         13   -1    0    0    0    0  0.00000000000E+00  0.00000000000E+00  0.74505805969E-08  0.10566000000E+00  0.10566000000E+00 0. -1.
     999900   -1    0    0    0    0 -0.00000000000E+00 -0.00000000000E+00 -0.74505805969E-08  0.93827000000E+00  0.93827000000E+00 0.  1.
     999902    2    1    2    0    0 -0.18853405711E-02 -0.92385212748E-02  0.21774654383E-01  0.10202015285E+01  0.10199255456E+01 0.  0.
     999903    2    3    3    0    0 -0.58653444260E-01  0.27004552612E-01  0.11478847190E+00  0.13274012191E+00  0.16555189489E-01 0.  0.
         14    1    1    2    0    0  0.18853405711E-02  0.92385212748E-02 -0.21774654383E-01  0.23728471462E-01  0.00000000000E+00 0.  1.
     999901    1    3    3    0    0  0.56768103688E-01 -0.36243073887E-01 -0.93013817517E-01  0.88746140663E+00  0.88000000000E+00 0.  1.
        -11    1    4    4    0    0 -0.41289493643E-01  0.25857439923E-01  0.76764248992E-01  0.90919967713E-01  0.51100000000E-03 0. -1.
         11    1    4    4    0    0 -0.17363950616E-01  0.11471126896E-02  0.38024222908E-01  0.41820154200E-01  0.51100000000E-03 0.  1.
</event>
<event>
 8    1  0.1092667E+005  0.1043930E+01  0.7957747E-01            NaN
         13   -1    0    0    0    0  0.00000000000E+00  0.00000000000E+00  0.74505805969E-08  0.10566000000E+00  0.10566000000E+00 0. -1.
     999900   -1    0    0    0    0 -0.00000000000E+00 -0.00000000000E+00 -0.74505805969E-08  0.93827000000E+00  0.93827000000E+00 0.  1.
     999902    2    1    2    0    0 -0.14073623896E-01  0.19020061738E-01 -0.75130767141E-03  0.10202573554E+01  0.10199826848E+01 0.  0.
     999903    2    3    3    0    0  0.23471338353E-01  0.50953938398E-01  0.11677107419E+00  0.13107744848E+00  0.19965123841E-01 0.  0.
         14    1    1    2    0    0  0.14073623896E-01 -0.19020061738E-01  0.75130767141E-03  0.23672644578E-01  0.00000000000E+00 0.  1.
     999901    1    3    3    0    0 -0.37544962249E-01 -0.31933876660E-01 -0.11752238186E+00  0.88917990694E+00  0.88000000000E+00 0.  1.
        -11    1    4    4    0    0  0.52464365475E-02  0.31121482203E-01  0.50667988518E-01  0.59695711172E-01  0.51100000000E-03 0. -1.
         11    1    4    4    0    0  0.18224901805E-01  0.19832456196E-01  0.66103085675E-01  0.71381737309E-01  0.51100000000E-03 0.  1.
</event>
<event>
 8    1  0.1092667E+005  0.1043930E+01  0.7957747E-01            NaN
         13   -1    0    0    0    0  0.00000000000E+00  0.00000000000E+00  0.74505805969E-08  0.10566000000E+00  0.10566000000E+00 0. -1.
     999900   -1    0    0    0    0 -0.00000000000E+00 -0.00000000000E+00 -0.74505805969E-08  0.93827000000E+00  0.93827000000E+00 0.  1.
     999902    2    1    2    0    0 -0.10328582433E-01 -0.20517303342E-01 -0.53282847743E-02  0.10203497123E+01  0.10200772056E+01 0.  0.
     999903    2    3    3    0    0 -0.48837174698E-01 -0.77979881439E-01 -0.94228652223E-01  0.13316983484E+00  0.19729026061E-01 0.  0.
         14    1    1    2    0    0  0.10328582433E-01  0.20517303342E-01  0.53282847743E-02  0.23580287746E-01  0.00000000000E+00 0. -1.
     999901    1    3    3    0    0  0.38508592265E-01  0.57462578096E-01  0.88900367449E-01  0.88717987742E+00  0.88000000000E+00 0. -1.
        -11    1    4    4    0    0 -0.34049737395E-01 -0.38543986416E-01 -0.58897847439E-01  0.78193612651E-01  0.51100000000E-03 0.  1.
         11    1    4    4    0    0 -0.14787437303E-01 -0.39435895023E-01 -0.35330804785E-01  0.54976222187E-01  0.51100000000E-03 0. -1.
</event>
<event>
 8    1  0.1092667E+005  0.1043930E+01  0.7957747E-01            NaN
         13   -1    0    0    0    0  0.00000000000E+00  0.00000000000E+00  0.74505805969E-08  0.10566000000E+00  0.10566000000E+00 0.  1.
     999900   -1    0    0    0    0 -0.00000000000E+00 -0.00000000000E+00 -0.74505805969E-08  0.93827000000E+00  0.93827000000E+00 0. -1.
     999902    2    1    2    0    0 -0.38312541734E-02 -0.16528015861E-01 -0.17479740288E-01  0.10195702969E+01  0.10192792528E+01 0.  0.
     999903    2    3    3    0    0  0.10316303967E+00 -0.71044960003E-01 -0.33802071879E-01  0.13126500326E+00  0.19947980392E-01 0.  0.
         14    1    1    2    0    0  0.38312541734E-02  0.16528015861E-01  0.17479740288E-01  0.24359703146E-01  0.00000000000E+00 0. -1.
     999901    1    3    3    0    0 -0.10699429385E+00  0.54516944142E-01  0.16322331591E-01  0.88830529359E+00  0.88000000000E+00 0.  1.
        -11    1    4    4    0    0  0.43521051119E-01 -0.18572758494E-01 -0.14832064101E-01  0.49591133230E-01  0.51100000000E-03 0.  1.
         11    1    4    4    0    0  0.59641988554E-01 -0.52472201509E-01 -0.18970007778E-01  0.81673870032E-01  0.51100000000E-03 0. -1.
</event>
<event>
 8    1  0.1092667E+005  0.1043930E+01  0.7957747E-01            NaN
         13   -1    0    0    0    0  0.00000000000E+00  0.00000000000E+00  0.74505805969E-08  0.10566000000E+00  0.10566000000E+00 0.  1.
     999900   -1    0    0    0    0 -0.00000000000E+00 -0.00000000000E+00 -0.74505805969E-08  0.93827000000E+00  0.93827000000E+00 0. -1.
     999902    2    1    2    0    0 -0.54339537381E-02 -0.11706149451E-01 -0.19745212026E-01  0.10203411216E+01  0.10200684140E+01 0.  0.
     999903    2    3    3    0    0  0.11714299592E+00  0.38909728570E-01 -0.36451611998E-01  0.13024776719E+00  0.19982801820E-01 0.  0.
         14    1    1    2    0    0  0.54339537381E-02  0.11706149451E-01  0.19745212026E-01  0.23588878442E-01  0.00000000000E+00 0.  1.
     999901    1    3    3    0    0 -0.12257694966E+00 -0.50615878021E-01  0.16706399972E-01  0.89009335437E+00  0.88000000000E+00 0.  1.
        -11    1    4    4    0    0  0.60138989425E-01  0.11241797781E-01 -0.23693165553E-01  0.65610237626E-01  0.51100000000E-03 0. -1.
         11    1    4    4    0    0  0.57004006498E-01  0.27667930790E-01 -0.12758446445E-01  0.64637529560E-01  0.51100000000E-03 0.  1.
</event>
<event>
 8    1  0.1092667E+005  0.1043930E+01  0.7957747E-01            NaN
         13   -1    0    0    0    0  0.00000000000E+00  0.00000000000E+00  0.74505805969E-08  0.10566000000E+00  0.10566000000E+00 0. -1.
     999900   -1    0    0    0    0 -0.00000000000E+00 -0.00000000000E+00 -0.74505805969E-08  0.93827000000E+00  0.93827000000E+00 0.  1.
     999902    2    1    2    0    0  0.10341209028E-01 -0.16440137422E-01 -0.13292104437E-01  0.10203949461E+01  0.10201234961E+01 0.  0.
     999903    2    3    3    0    0 -0.65287945273E-01  0.10724623649E+00  0.15616520425E-01  0.12806440381E+00  0.19807694834E-01 0.  0.
         14    1    1    2    0    0 -0.10341209028E-01  0.16440137422E-01  0.13292104437E-01  0.23535053919E-01  0.00000000000E+00 0. -1.
     999901    1    3    3    0    0  0.75629154301E-01 -0.12368637391E+00 -0.28908624862E-01  0.89233054227E+00  0.88000000000E+00 0.  1.
        -11    1    4    4    0    0 -0.81841004647E-02  0.29205684220E-01  0.19106166842E-02  0.30395115862E-01  0.51100000000E-03 0. -1.
         11    1    4    4    0    0 -0.57103844808E-01  0.78040552271E-01  0.13705903741E-01  0.97669287951E-01  0.51100000000E-03 0.  1.
</event>
<event>
 8    1  0.1092667E+005  0.1043930E+01  0.7957747E-01            NaN
         13   -1    0    0    0    0  0.00000000000E+00  0.00000000000E+00  0.74505805969E-08  0.10566000000E+00  0.10566000000E+00 0.  1.
     999900   -1    0    0    0    0 -0.00000000000E+00 -0.00000000000E+00 -0.74505805969E-08  0.93827000000E+00  0.93827000000E+00 0.  1.
     999902    2    1    2    0    0 -0.20717098866E-01 -0.87952443167E-02 -0.21150792328E-02  0.10213240701E+01  0.10210738602E+01 0.  0.
     999903    2    3    3    0    0 -0.63783152215E-01 -0.53542994478E-01  0.10174598317E+00  0.13304248950E+00  0.20320338477E-01 0.  0.
         14    1    1    2    0    0  0.20717098866E-01  0.87952443167E-02  0.21150792328E-02  0.22605929934E-01  0.00000000000E+00 0. -1.
     999901    1    3    3    0    0  0.43066053349E-01  0.44747750161E-01 -0.10386106240E+00  0.88828158057E+00  0.88000000000E+00 0.  1.
        -11    1    4    4    0    0 -0.41894616033E-01 -0.23502455759E-01  0.64462455337E-01  0.80393989504E-01  0.51100000000E-03 0. -1.
         11    1    4    4    0    0 -0.21888536182E-01 -0.30040538719E-01  0.37283527834E-01  0.52648499993E-01  0.51100000000E-03 0.  1.
</event>
<event>
 8    1  0.1092667E+005  0.1043930E+01  0.7957747E-01            NaN
         13   -1    0    0    0    0  0.00000000000E+00  0.00000000000E+00  0.74505805969E-08  0.10566000000E+00  0.10566000000E+00 0. -1.
     999900   -1    0    0    0    0 -0.00000000000E+00 -0.00000000000E+00 -0.74505805969E-08  0.93827000000E+00  0.93827000000E+00 0.  1.
     999902    2    1    2    0    0  0.12991848111E-01 -0.10323120733E-01 -0.16194406274E-01  0.10207435010E+01  0.10204801229E+01 0.  0.
     999903    2    3    3    0    0 -0.64929100925E-01 -0.10699840356E+00 -0.36277567546E-01  0.13179967944E+00  0.19764793994E-01 0.  0.
         14    1    1    2    0    0 -0.12991848111E-01  0.10323120733E-01  0.16194406274E-01  0.23186498950E-01  0.00000000000E+00 0. -1.
     999901    1    3    3    0    0  0.77920949036E-01  0.96675282831E-01  0.20083161272E-01  0.88894382161E+00  0.88000000000E+00 0.  1.
        -11    1    4    4    0    0 -0.11020468721E-01 -0.70433719416E-02 -0.26002738062E-02  0.13344750429E-01  0.51100000000E-03 0. -1.
         11    1    4    4    0    0 -0.53908632204E-01 -0.99955031622E-01 -0.33677293740E-01  0.11845492901E+00  0.51100000000E-03 0.  1.
</event>
<event>
 8    1  0.1092667E+005  0.1043930E+01  0.7957747E-01            NaN
         13   -1    0    0    0    0  0.00000000000E+00  0.00000000000E+00  0.74505805969E-08  0.10566000000E+00  0.10566000000E+00 0.  1.
     999900   -1    0    0    0    0 -0.00000000000E+00 -0.00000000000E+00 -0.74505805969E-08  0.93827000000E+00  0.93827000000E+00 0. -1.
     999902    2    1    2    0    0  0.37000037498E-02 -0.23497618096E-01 -0.12610766867E-02  0.10201094543E+01  0.10198312999E+01 0.  0.
     999903    2    3    3    0    0 -0.56544993335E-01  0.86747714623E-01  0.72551211014E-01  0.12812753357E+00  0.20748117396E-01 0.  0.
         14    1    1    2    0    0 -0.37000037498E-02  0.23497618096E-01  0.12610766867E-02  0.23820545719E-01  0.00000000000E+00 0. -1.
     999901    1    3    3    0    0  0.60244997085E-01 -0.11024533272E+00 -0.73812287701E-01  0.89198192071E+00  0.88000000000E+00 0. -1.
        -11    1    4    4    0    0 -0.30703671266E-01  0.64745069378E-01  0.49874133471E-01  0.87305954828E-01  0.51100000000E-03 0. -1.
         11    1    4    4    0    0 -0.25841322069E-01  0.22002645245E-01  0.22677077543E-01  0.40821578742E-01  0.51100000000E-03 0.  1.
</event>
<event>
 8    1  0.1092667E+005  0.1043930E+01  0.7957747E-01            NaN
         13   -1    0    0    0    0  0.00000000000E+00  0.00000000000E+00  0.74505805969E-08  0.10566000000E+00  0.10566000000E+00 0.  1.
     999900   -1    0    0    0    0 -0.00000000000E+00 -0.00000000000E+00 -0.74505805969E-08  0.93827000000E+00  0.93827000000E+00 0. -1.
     999902    2    1    2    0    0  0.18222635028E-01  0.18283297476E-02 -0.97332586093E-02  0.10231900979E+01  0.10229798790E+01 0.  0.
     999903    2    3    3    0    0  0.21558517706E-01 -0.40136028530E-01  0.12253969837E+00  0.13230948263E+00  0.20350701350E-01 0.  0.
         14    1    1    2    0    0 -0.18222635028E-01 -0.18283297476E-02  0.97332586093E-02  0.20739902126E-01  0.00000000000E+00 0.  1.
     999901    1    3    3    0    0 -0.33358826786E-02  0.41964358277E-01 -0.13227295697E+00  0.89088061525E+00  0.88000000000E+00 0. -1.
        -11    1    4    4    0    0  0.10323116700E-02 -0.18591475851E-01  0.32270422978E-01  0.37260568459E-01  0.51100000000E-03 0. -1.
         11    1    4    4    0    0  0.20526206037E-01 -0.21544552679E-01  0.90269275387E-01  0.95048914167E-01  0.51100000000E-03 0.  1.
</event>
<event>
 8    1  0.1092667E+005  0.1043930E+01  0.7957747E-01            NaN
         13   -1    0    0    0    0  0.00000000000E+00  0.00000000000E+00  0.74505805969E-08  0.10566000000E+00  0.10566000000E+00 0.  1.
     999900   -1    0    0    0    0 -0.00000000000E+00 -0.00000000000E+00 -0.74505805969E-08  0.93827000000E+00  0.93827000000E+00 0.  1.
     999902    2    1    2    0    0  0.16130680281E-01 -0.16676527517E-01 -0.20416760331E-02  0.10206389318E+01  0.10203731451E+01 0.  0.
     999903    2    3    3    0    0  0.12836514836E+00 -0.27040566637E-01 -0.14918949751E-01  0.13335666933E+00  0.18778249030E-01 0.  0.
         14    1    1    2    0    0 -0.16130680281E-01  0.16676527517E-01  0.20416760331E-02  0.23291068189E-01  0.00000000000E+00 0.  1.
     999901    1    3    3    0    0 -0.11223446808E+00  0.10364039120E-01  0.12877273718E-01  0.88728226248E+00  0.88000000000E+00 0.  1.
        -11    1    4    4    0    0  0.61286648444E-01 -0.71316764006E-02  0.50507753924E-03  0.61704378371E-01  0.51100000000E-03 0.  1.
         11    1    4    4    0    0  0.67078499914E-01 -0.19908890236E-01 -0.15424027290E-01  0.71652290961E-01  0.51100000000E-03 0. -1.
</event>
<event>
 8    1  0.1092667E+005  0.1043930E+01  0.7957747E-01            NaN
         13   -1    0    0    0    0  0.00000000000E+00  0.00000000000E+00  0.74505805969E-08  0.10566000000E+00  0.10566000000E+00 0.  1.
     999900   -1    0    0    0    0 -0.00000000000E+00 -0.00000000000E+00 -0.74505805969E-08  0.93827000000E+00  0.93827000000E+00 0.  1.
     999902    2    1    2    0    0 -0.77889684685E-02  0.21517079456E-01 -0.36341703232E-02  0.10207597619E+01  0.10204967573E+01 0.  0.
     999903    2    3    3    0    0 -0.82121073704E-01  0.44192990639E-01  0.91724444350E-01  0.13220322225E+00  0.19168388430E-01 0.  0.
         14    1    1    2    0    0  0.77889684685E-02 -0.21517079456E-01  0.36341703232E-02  0.23170238066E-01  0.00000000000E+00 0. -1.
     999901    1    3    3    0    0  0.74332105236E-01 -0.22675911183E-01 -0.95358614673E-01  0.88855653968E+00  0.88000000000E+00 0.  1.
        -11    1    4    4    0    0 -0.23082190679E-01  0.12597881067E-01  0.14663720729E-01  0.30112787326E-01  0.51100000000E-03 0. -1.
         11    1    4    4    0    0 -0.59038883025E-01  0.31595109572E-01  0.77060723621E-01  0.10209043493E+00  0.51100000000E-03 0.  1.
</event>
<event>
 8    1  0.1092667E+005  0.1043930E+01  0.7957747E-01            NaN
         13   -1    0    0    0    0  0.00000000000E+00  0.00000000000E+00  0.74505805969E-08  0.10566000000E+00  0.10566000000E+00 0.  1.
     999900   -1    0    0    0    0 -0.00000000000E+00 -0.00000000000E+00 -0.74505805969E-08  0.93827000000E+00  0.93827000000E+00 0. -1.
     999902    2    1    2    0    0 -0.78797874391E-03 -0.17934923285E-01  0.16486996363E-01  0.10195557629E+01  0.10192643672E+01 0.  0.
     999903    2    3    3    0    0  0.86592729538E-02 -0.89567139841E-01 -0.91523162582E-01  0.13001283566E+00  0.20726615755E-01 0.  0.
         14    1    1    2    0    0  0.78797874391E-03  0.17934923285E-01 -0.16486996363E-01  0.24374237072E-01  0.00000000000E+00 0.  1.
     999901    1    3    3    0    0 -0.94472516977E-02  0.71632216556E-01  0.10801015894E+00  0.88954292727E+00  0.88000000000E+00 0.  1.
        -11    1    4    4    0    0  0.58255589845E-02 -0.78114971588E-01 -0.68164720232E-01  0.10383918398E+00  0.51100000000E-03 0.  1.
         11    1    4    4    0    0  0.28337139693E-02 -0.11452168254E-01 -0.23358442350E-01  0.26173651686E-01  0.51100000000E-03 0. -1.
</event>
<event>
 8    1  0.1092667E+005  0.1043930E+01  0.7957747E-01            NaN
         13   -1    0    0    0    0  0.00000000000E+00  0.00000000000E+00  0.74505805969E-08  0.10566000000E+00  0.10566000000E+00 0.  1.
     999900   -1    0    0    0    0 -0.00000000000E+00 -0.00000000000E+00 -0.74505805969E-08  0.93827000000E+00  0.93827000000E+00 0. -1.
     999902    2    1    2    0    0 -0.13302044707E-01  0.18731855505E-01 -0.40203188723E-02  0.10206064118E+01  0.10203398738E+01 0.  0.
     999903    2    3    3    0    0  0.60737088746E-01  0.16736953315E-01  0.11175148481E+00  0.12993875016E+00  0.20653447134E-01 0.  0.
         14    1    1    2    0    0  0.13302044707E-01 -0.18731855505E-01  0.40203188723E-02  0.23323588229E-01  0.00000000000E+00 0.  1.
     999901    1    3    3    0    0 -0.74039133453E-01  0.19949021900E-02 -0.11577180369E+00  0.89066766161E+00  0.88000000000E+00 0. -1.
        -11    1    4    4    0    0  0.22009299245E-01  0.12448319133E-01  0.29051208022E-01  0.38517576650E-01  0.51100000000E-03 0.  1.
         11    1    4    4    0    0  0.38727789501E-01  0.42886341827E-02  0.82700276792E-01  0.91421173506E-01  0.51100000000E-03 0. -1.
</event>
<event>
 8    1  0.1092667E+005  0.1043930E+01  0.7957747E-01            NaN
         13   -1    0    0    0    0  0.00000000000E+00  0.00000000000E+00  0.74505805969E-08  0.10566000000E+00  0.10566000000E+00 0.  1.
     999900   -1    0    0    0    0 -0.00000000000E+00 -0.00000000000E+00 -0.74505805969E-08  0.93827000000E+00  0.93827000000E+00 0.  1.
     999902    2    1    2    0    0 -0.15577142805E-01 -0.16248454796E-01  0.18704294948E-01  0.10146638026E+01  0.10142416487E+01 0.  0.
     999903    2    3    3    0    0 -0.75767932860E-01 -0.82842112657E-01 -0.55794425280E-01  0.12696582141E+00  0.20092452197E-01 0.  0.
         14    1    1    2    0    0  0.15577142805E-01  0.16248454796E-01 -0.18704294948E-01  0.29266197408E-01  0.00000000000E+00 0. -1.
     999901    1    3    3    0    0  0.60190790055E-01  0.66593657860E-01  0.74498720228E-01  0.88769798118E+00  0.88000000000E+00 0.  1.
        -11    1    4    4    0    0 -0.30782562248E-01 -0.28742735826E-01 -0.10914067119E-01  0.43509642419E-01  0.51100000000E-03 0. -1.
         11    1    4    4    0    0 -0.44985370612E-01 -0.54099376831E-01 -0.44880358161E-01  0.83456178994E-01  0.51100000000E-03 0.  1.
</event>
<event>
 8    1  0.1092667E+005  0.1043930E+01  0.7957747E-01            NaN
         13   -1    0    0    0    0  0.00000000000E+00  0.00000000000E+00  0.74505805969E-08  0.10566000000E+00  0.10566000000E+00 0.  1.
     999900   -1    0    0    0    0 -0.00000000000E+00 -0.00000000000E+00 -0.74505805969E-08  0.93827000000E+00  0.93827000000E+00 0.  1.
     999902    2    1    2    0    0 -0.16184191656E-01 -0.12538039375E-01  0.12778602836E-01  0.10197965547E+01  0.10195109562E+01 0.  0.
     999903    2    3    3    0    0  0.72096391710E-01  0.93592650947E-01  0.46110899603E-01  0.12841098896E+00  0.20141822517E-01 0.  0.
         14    1    1    2    0    0  0.16184191656E-01  0.12538039375E-01 -0.12778602836E-01  0.24133445286E-01  0.00000000000E+00 0. -1.
     999901    1    3    3    0    0 -0.88280583367E-01 -0.10613069032E+00 -0.33332296767E-01  0.89138556575E+00  0.88000000000E+00 0. -1.
        -11    1    4    4    0    0  0.40188853299E-01  0.50195004236E-01  0.14377444221E-01  0.65891231610E-01  0.51100000000E-03 0. -1.
         11    1    4    4    0    0  0.31907538411E-01  0.43397646711E-01  0.31733455382E-01  0.62519757349E-01  0.51100000000E-03 0.  1.
</event>
<event>
 8    1  0.1092667E+005  0.1043930E+01  0.7957747E-01            NaN
         13   -1    0    0    0    0  0.00000000000E+00  0.00000000000E+00  0.74505805969E-08  0.10566000000E+00  0.10566000000E+00 0. -1.
     999900   -1    0    0    0    0 -0.00000000000E+00 -0.00000000000E+00 -0.74505805969E-08  0.93827000000E+00  0.93827000000E+00 0.  1.
     999902    2    1    2    0    0 -0.52666995391E-02 -0.23955565253E-01 -0.98179507034E-02  0.10175103220E+01  0.10171672704E+01 0.  0.
     999903    2    3    3    0    0 -0.73457894750E-01 -0.10566062179E+00 -0.14223202515E-01  0.13108764537E+00  0.20529052103E-01 0.  0.
         14    1    1    2    0    0  0.52666995391E-02  0.23955565253E-01  0.98179507034E-02  0.26419678019E-01  0.00000000000E+00 0. -1.
     999901    1    3    3    0    0  0.68191195210E-01  0.81705056539E-01  0.44052518115E-02  0.88642267661E+00  0.88000000000E+00 0. -1.
        -11    1    4    4    0    0 -0.37052881682E-01 -0.43057755103E-01  0.21144839185E-02  0.56847326047E-01  0.51100000000E-03 0.  1.
         11    1    4    4    0    0 -0.36405013068E-01 -0.62602866689E-01 -0.16337686433E-01  0.74240319323E-01  0.51100000000E-03 0. -1.
</event>
<event>
 8    1  0.1092667E+005  0.1043930E+01  0.7957747E-01            NaN
         13   -1    0    0    0    0  0.00000000000E+00  0.00000000000E+00  0.74505805969E-08  0.10566000000E+00  0.10566000000E+00 0. -1.
     999900   -1    0    0    0    0 -0.00000000000E+00 -0.00000000000E+00 -0.74505805969E-08  0.93827000000E+00  0.93827000000E+00 0.  1.
     999902    2    1    2    0    0  0.21385682574E-01  0.94240727602E-02 -0.60018618162E-02  0.10198015332E+01  0.10195160539E+01 0.  0.
     999903    2    3    3    0    0  0.56729724295E-01  0.13656944414E-01 -0.11727780523E+00  0.13208003739E+00  0.16919779189E-01 0.  0.
         14    1    1    2    0    0 -0.21385682574E-01 -0.94240727602E-02  0.60018618162E-02  0.24128466835E-01  0.00000000000E+00 0.  1.
     999901    1    3    3    0    0 -0.35344041721E-01 -0.42328716537E-02  0.11127594341E+00  0.88772149578E+00  0.88000000000E+00 0.  1.
        -11    1    4    4    0    0  0.13248341362E-01  0.10222947265E-02 -0.43756452389E-01  0.45732394230E-01  0.51100000000E-03 0.  1.
         11    1    4    4    0    0  0.43481382933E-01  0.12634649687E-01 -0.73521352837E-01  0.86347643155E-01  0.51100000000E-03 0. -1.
</event>
<event>
 8    1  0.1092667E+005  0.1043930E+01  0.7957747E-01            NaN
         13   -1    0    0    0    0  0.00000000000E+00  0.00000000000E+00  0.74505805969E-08  0.10566000000E+00  0.10566000000E+00 0.  1.
     999900   -1    0    0    0    0 -0.00000000000E+00 -0.00000000000E+00 -0.74505805969E-08  0.93827000000E+00  0.93827000000E+00 0.  1.
     999902    2    1    2    0    0  0.11588661981E-02 -0.10151759981E-01 -0.20680891550E-01  0.10208626968E+01  0.10206020504E+01 0.  0.
     999903    2    3    3    0    0 -0.71614756127E-01 -0.10465764990E+00 -0.33399129295E-01  0.13272469125E+00  0.20455924609E-01 0.  0.
         14    1    1    2    0    0 -0.11588661981E-02  0.10151759981E-01  0.20680891550E-01  0.23067303199E-01  0.00000000000E+00 0.  1.
     999901    1    3    3    0    0  0.72773622325E-01  0.94505889919E-01  0.12718237745E-01  0.88813800555E+00  0.88000000000E+00 0.  1.
        -11    1    4    4    0    0 -0.27698737519E-01 -0.25592421935E-01 -0.13950967248E-01  0.40212967172E-01  0.51100000000E-03 0. -1.
         11    1    4    4    0    0 -0.43916018608E-01 -0.79065227965E-01 -0.19448162047E-01  0.92511724076E-01  0.51100000000E-03 0.  1.
</event>
<event>
 8    1  0.1092667E+005  0.1043930E+01  0.7957747E-01            NaN
         13   -1    0    0    0    0  0.00000000000E+00  0.00000000000E+00  0.74505805969E-08  0.10566000000E+00  0.10566000000E+00 0. -1.
     999900   -1    0    0    0    0 -0.00000000000E+00 -0.00000000000E+00 -0.74505805969E-08  0.93827000000E+00  0.93827000000E+00 0.  1.
     999902    2    1    2    0    0 -0.16496006717E-01 -0.13528614398E-01 -0.10018083686E-01  0.10203608752E+01  0.10200886294E+01 0.  0.
     999903    2    3    3    0    0  0.10892438896E+00  0.42648548998E-01 -0.50277050565E-01  0.12878534064E+00  0.19350992429E-01 0.  0.
         14    1    1    2    0    0  0.16496006717E-01  0.13528614398E-01  0.10018083686E-01  0.23569124844E-01  0.00000000000E+00 0.  1.
     999901    1    3    3    0    0 -0.12542039568E+00 -0.56177163396E-01  0.40258966879E-01  0.89157553452E+00  0.88000000000E+00 0. -1.
        -11    1    4    4    0    0  0.59594720944E-01  0.17358630499E-01 -0.35092689902E-01  0.71306457091E-01  0.51100000000E-03 0.  1.
         11    1    4    4    0    0  0.49329668014E-01  0.25289918499E-01 -0.15184360663E-01  0.57478883547E-01  0.51100000000E-03 0. -1.
</event>
<event>
 8    1  0.1092667E+005  0.1043930E+01  0.7957747E-01            NaN
         13   -1    0    0    0    0  0.00000000000E+00  0.00000000000E+00  0.74505805969E-08  0.10566000000E+00  0.10566000000E+00 0.  1.
     999900   -1    0    0    0    0 -0.00000000000E+00 -0.00000000000E+00 -0.74505805969E-08  0.93827000000E+00  0.93827000000E+00 0. -1.
     999902    2    1    2    0    0  0.60296964642E-02 -0.56727906064E-02  0.22699835293E-01  0.10197676260E+01  0.10194813342E+01 0.  0.
     999903    2    3    3    0    0 -0.13117129209E-01 -0.36309482367E-01  0.12574564403E+00  0.13301870639E+00  0.19788169909E-01 0.  0.
         14    1    1    2    0    0 -0.60296964642E-02  0.56727906064E-02 -0.22699835293E-01  0.24162373953E-01  0.00000000000E+00 0. -1.
     999901    1    3    3    0    0  0.19146825673E-01  0.30636691761E-01 -0.10304580874E+00  0.88674891966E+00  0.88000000000E+00 0. -1.
        -11    1    4    4    0    0  0.49275923946E-02 -0.12600752389E-01  0.42095048802E-01  0.44218936918E-01  0.51100000000E-03 0.  1.
         11    1    4    4    0    0 -0.18044721604E-01 -0.23708729978E-01  0.83650595229E-01  0.88799769471E-01  0.51100000000E-03 0. -1.
</event>
<event>
 8    1  0.1092667E+005  0.1043930E+01  0.7957747E-01            NaN
         13   -1    0    0    0    0  0.00000000000E+00  0.00000000000E+00  0.74505805969E-08  0.10566000000E+00  0.10566000000E+00 0. -1.
     999900   -1    0    0    0    0 -0.00000000000E+00 -0.00000000000E+00 -0.74505805969E-08  0.93827000000E+00  0.93827000000E+00 0.  1.
     999902    2    1    2    0    0 -0.83429628854E-02 -0.91886370202E-02  0.20642061999E-01  0.10198440953E+01  0.10195596343E+01 0.  0.
     999903    2    3    3    0    0 -0.62355274988E-01 -0.10537640225E+00  0.46354783197E-01  0.13258395306E+00  0.20913445755E-01 0.  0.
         14    1    1    2    0    0  0.83429628854E-02  0.91886370202E-02 -0.20642061999E-01  0.24085904666E-01  0.00000000000E+00 0.  1.
     999901    1    3    3    0    0  0.54012312103E-01  0.96187765230E-01 -0.25712721198E-01  0.88726014228E+00  0.88000000000E+00 0.  1.
        -11    1    4    4    0    0 -0.61121533320E-01 -0.98888891003E-01  0.47975997444E-01  0.12576490787E+00  0.51100000000E-03 0. -1.
         11    1    4    4    0    0 -0.12337416677E-02 -0.64875112471E-02 -0.16212142462E-02  0.68190451909E-02  0.51100000000E-03 0.  1.
</event>
<event>
 8    1  0.1092667E+005  0.1043930E+01  0.7957747E-01            NaN
         13   -1    0    0    0    0  0.00000000000E+00  0.00000000000E+00  0.74505805969E-08  0.10566000000E+00  0.10566000000E+00 0.  1.
     999900   -1    0    0    0    0 -0.00000000000E+00 -0.00000000000E+00 -0.74505805969E-08  0.93827000000E+00  0.93827000000E+00 0. -1.
     999902    2    1    2    0    0 -0.92451333068E-02 -0.19877198275E-01 -0.26179110750E-02  0.10218522066E+01  0.10216136761E+01 0.  0.
     999903    2    3    3    0    0  0.76662662824E-01 -0.55527806617E-01 -0.90757396753E-01  0.13257177604E+00  0.19438867228E-01 0.  0.
         14    1    1    2    0    0  0.92451333068E-02  0.19877198275E-01  0.26179110750E-02  0.22077793357E-01  0.00000000000E+00 0.  1.
     999901    1    3    3    0    0 -0.85907796130E-01  0.35650608342E-01  0.88139485678E-01  0.88928043060E+00  0.88000000000E+00 0. -1.
        -11    1    4    4    0    0  0.39989730180E-01 -0.17056778323E-01 -0.40210200605E-01  0.59221901019E-01  0.51100000000E-03 0.  1.
         11    1    4    4    0    0  0.36672932644E-01 -0.38471028294E-01 -0.50547196148E-01  0.73349875025E-01  0.51100000000E-03 0. -1.
</event>
<event>
 8    1  0.1092667E+005  0.1043930E+01  0.7957747E-01            NaN
         13   -1    0    0    0    0  0.00000000000E+00  0.00000000000E+00  0.74505805969E-08  0.10566000000E+00  0.10566000000E+00 0.  1.
     999900   -1    0    0    0    0 -0.00000000000E+00 -0.00000000000E+00 -0.74505805969E-08  0.93827000000E+00  0.93827000000E+00 0. -1.
     999902    2    1    2    0    0 -0.11214432986E-01  0.55391380210E-02  0.19087991431E-01  0.10211090234E+01  0.10208539762E+01 0.  0.
     999903    2    3    3    0    0  0.49986683829E-01 -0.58476307998E-01 -0.10101114894E+00  0.12854678042E+00  0.20071756009E-01 0.  0.
         14    1    1    2    0    0  0.11214432986E-01 -0.55391380210E-02 -0.19087991431E-01  0.22820976624E-01  0.00000000000E+00 0. -1.
     999901    1    3    3    0    0 -0.61201116815E-01  0.64015446019E-01  0.12009914037E+00  0.89256224295E+00  0.88000000000E+00 0.  1.
        -11    1    4    4    0    0  0.37274063679E-01 -0.53428186059E-01 -0.89265578513E-01  0.11051032312E+00  0.51100000000E-03 0. -1.
         11    1    4    4    0    0  0.12712620151E-01 -0.50481219390E-02 -0.11745570428E-01  0.18036457298E-01  0.51100000000E-03 0.  1.
</event>
<event>
 8    1  0.1092667E+005  0.1043930E+01  0.7957747E-01            NaN
         13   -1    0    0    0    0  0.00000000000E+00  0.00000000000E+00  0.74505805969E-08  0.10566000000E+00  0.10566000000E+00 0.  1.
     999900   -1    0    0    0    0 -0.00000000000E+00 -0.00000000000E+00 -0.74505805969E-08  0.93827000000E+00  0.93827000000E+00 0.  1.
     999902    2    1    2    0    0 -0.90289365246E-02 -0.20697140039E-01 -0.72570511816E-02  0.10202116929E+01  0.10199359491E+01 0.  0.
     999903    2    3    3    0    0 -0.63928239729E-02 -0.12337392828E+00  0.44232107426E-01  0.13274304252E+00  0.20055962498E-01 0.  0.
         14    1    1    2    0    0  0.90289365246E-02  0.20697140039E-01  0.72570511816E-02  0.23718307115E-01  0.00000000000E+00 0. -1.
     999901    1    3    3    0    0 -0.26361125518E-02  0.10267678824E+00 -0.51489158608E-01  0.88746865037E+00  0.88000000000E+00 0.  1.
        -11    1    4    4    0    0  0.30230797911E-02 -0.42270115308E-02  0.41876154174E-02  0.66935701826E-02  0.51100000000E-03 0.  1.
         11    1    4    4    0    0 -0.94159037640E-02 -0.11914691675E+00  0.40044492009E-01  0.12604947233E+00  0.51100000000E-03 0. -1.
</event>
<event>
 8    1  0.1092667E+005  0.1043930E+01  0.7957747E-01            NaN
         13   -1    0    0    0    0  0.00000000000E+00  0.00000000000E+00  0.74505805969E-08  0.10566000000E+00  0.10566000000E+00 0. -1.
     999900   -1    0    0    0    0 -0.00000000000E+00 -0.00000000000E+00 -0.74505805969E-08  0.93827000000E+00  0.93827000000E+00 0. -1.
     999902    2    1    2    0    0 -0.21092436547E-01  0.38956120418E-02 -0.10937073676E-01  0.10198533255E+01  0.10195690851E+01 0.  0.
     999903    2    3    3    0    0  0.12165077371E+00  0.19087366651E-01  0.25665307177E-01  0.12747103763E+00  0.20662021472E-01 0.  0.
         14    1    1    2    0    0  0.21092436547E-01 -0.38956120418E-02  0.10937073676E-01  0.24076674464E-01  0.00000000000E+00 0.  1.
     999901    1    3    3    0    0 -0.14274321026E+00 -0.15191754609E-01 -0.36602380852E-01  0.89238228791E+00  0.88000000000E+00 0. -1.
        -11    1    4    4    0    0  0.65633032794E-01  0.11413169075E-01  0.34149909468E-02  0.66707411180E-01  0.51100000000E-03 0. -1.
         11    1    4    4    0    0  0.56017740919E-01  0.76741975756E-02  0.22250316230E-01  0.60763626451E-01  0.51100000000E-03 0.  1.
</event>
<event>
 8    1  0.1092667E+005  0.1043930E+01  0.7957747E-01            NaN
         13   -1    0    0    0    0  0.00000000000E+00  0.00000000000E+00  0.74505805969E-08  0.10566000000E+00  0.10566000000E+00 0. -1.
     999900   -1    0    0    0    0 -0.00000000000E+00 -0.00000000000E+00 -0.74505805969E-08  0.93827000000E+00  0.93827000000E+00 0.  1.
     999902    2    1    2    0    0  0.15985263209E-01  0.17126257163E-01 -0.40168026907E-02  0.10201608598E+01  0.10198839188E+01 0.  0.
     999903    2    3    3    0    0 -0.18050639021E-01  0.11404865809E+00  0.60721406414E-01  0.13182340689E+00  0.18905010622E-01 0.  0.
         14    1    1    2    0    0 -0.15985263209E-01 -0.17126257163E-01  0.40168026907E-02  0.23769140248E-01  0.00000000000E+00 0. -1.
     999901    1    3    3    0    0  0.34035902230E-01 -0.96922400923E-01 -0.64738209105E-01  0.88833745286E+00  0.88000000000E+00 0.  1.
        -11    1    4    4    0    0  0.31646193495E-03  0.55062756690E-01  0.32040750386E-01  0.63709325289E-01  0.51100000000E-03 0.  1.
         11    1    4    4    0    0 -0.18367100956E-01  0.58985901395E-01  0.28680656028E-01  0.68114081600E-01  0.51100000000E-03 0. -1.
</event>
<event>
 8    1  0.1092667E+005  0.1043930E+01  0.7957747E-01            NaN
         13   -1    0    0    0    0  0.00000000000E+00  0.00000000000E+00  0.74505805969E-08  0.10566000000E+00  0.10566000000E+00 0.  1.
     999900   -1    0    0    0    0 -0.00000000000E+00 -0.00000000000E+00 -0.74505805969E-08  0.93827000000E+00  0.93827000000E+00 0. -1.
     999902    2    1    2    0    0  0.12274277188E-01 -0.25473235978E-02  0.20069782275E-01  0.10202668874E+01  0.10199924405E+01 0.  0.
     999903    2    3    3    0    0 -0.77670422834E-01 -0.39642782056E-01  0.96496072748E-01  0.13161223007E+00  0.20150491184E-01 0.  0.
         14    1    1    2    0    0 -0.12274277188E-01  0.25473235978E-02 -0.20069782275E-01  0.23663112614E-01  0.00000000000E+00 0. -1.
     999901    1    3    3    0    0  0.89944700022E-01  0.37095458458E-01 -0.76426290472E-01  0.88865465732E+00  0.88000000000E+00 0. -1.
        -11    1    4    4    0    0 -0.44347091628E-01 -0.28826405278E-01  0.69717802841E-01  0.87512623839E-01  0.51100000000E-03 0.  1.
         11    1    4    4    0    0 -0.33323331206E-01 -0.10816376778E-01  0.26778269907E-01  0.44099606228E-01  0.51100000000E-03 0. -1.
</event>
<event>
 8    1  0.1092667E+005  0.1043930E+01  0.7957747E-01            NaN
         13   -1    0    0    0    0  0.00000000000E+00  0.00000000000E+00  0.74505805969E-08  0.10566000000E+00  0.10566000000E+00 0.  1.
     999900   -1    0    0    0    0 -0.00000000000E+00 -0.00000000000E+00 -0.74505805969E-08  0.93827000000E+00  0.93827000000E+00 0.  1.
     999902    2    1    2    0    0  0.86475042605E-02 -0.81364373918E-02  0.21376998933E-01  0.10194768401E+01  0.10191835313E+01 0.  0.
     999903    2    3    3    0    0 -0.14481179383E-01 -0.12302262530E+00  0.39395379216E-01  0.13152502039E+00  0.20064002416E-01 0.  0.
         14    1    1    2    0    0 -0.86475042605E-02  0.81364373918E-02 -0.21376998933E-01  0.24453159852E-01  0.00000000000E+00 0. -1.
     999901    1    3    3    0    0  0.23128683644E-01  0.11488618791E+00 -0.18018380283E-01  0.88795181976E+00  0.88000000000E+00 0. -1.
        -11    1    4    4    0    0  0.88073608548E-03 -0.74114985454E-01  0.20722673674E-01  0.76964258524E-01  0.51100000000E-03 0.  1.
         11    1    4    4    0    0 -0.15361915469E-01 -0.48907639849E-01  0.18672705542E-01  0.54560761869E-01  0.51100000000E-03 0. -1.
</event>
<event>
 8    1  0.1092667E+005  0.1043930E+01  0.7957747E-01            NaN
         13   -1    0    0    0    0  0.00000000000E+00  0.00000000000E+00  0.74505805969E-08  0.10566000000E+00  0.10566000000E+00 0.  1.
     999900   -1    0    0    0    0 -0.00000000000E+00 -0.00000000000E+00 -0.74505805969E-08  0.93827000000E+00  0.93827000000E+00 0.  1.
     999902    2    1    2    0    0  0.11164569681E-01  0.15011387425E-01 -0.16363167113E-01  0.10190755717E+01  0.10187724369E+01 0.  0.
     999903    2    3    3    0    0 -0.81730907822E-01 -0.60631421960E-01  0.72475520544E-01  0.12652657204E+00  0.20004042889E-01 0.  0.
         14    1    1    2    0    0 -0.11164569681E-01 -0.15011387425E-01  0.16363167113E-01  0.24854428309E-01  0.00000000000E+00 0.  1.
     999901    1    3    3    0    0  0.92895477503E-01  0.75642809385E-01 -0.88838687658E-01  0.89254899965E+00  0.88000000000E+00 0.  1.
        -11    1    4    4    0    0 -0.66760343263E-01 -0.51572575952E-01  0.50100101249E-01  0.98117048922E-01  0.51100000000E-03 0. -1.
         11    1    4    4    0    0 -0.14970564558E-01 -0.90588460079E-02  0.22375419295E-01  0.28409523119E-01  0.51100000000E-03 0.  1.
</event>
<event>
 8    1  0.1092667E+005  0.1043930E+01  0.7957747E-01            NaN
         13   -1    0    0    0    0  0.00000000000E+00  0.00000000000E+00  0.74505805969E-08  0.10566000000E+00  0.10566000000E+00 0.  1.
     999900   -1    0    0    0    0 -0.00000000000E+00 -0.00000000000E+00 -0.74505805969E-08  0.93827000000E+00  0.93827000000E+00 0.  1.
     999902    2    1    2    0    0  0.76344634505E-02 -0.13146644050E-02 -0.21145106620E-01  0.10214104772E+01  0.10211621977E+01 0.  0.
     999903    2    3    3    0    0 -0.24969178623E-01  0.11260884517E+00  0.55972081436E-01  0.13012566062E+00  0.22262114898E-01 0.  0.
         14    1    1    2    0    0 -0.76344634505E-02  0.13146644050E-02  0.21145106620E-01  0.22519522834E-01  0.00000000000E+00 0.  1.
     999901    1    3    3    0    0  0.32603642073E-01 -0.11392350958E+00 -0.77117188057E-01  0.89128481655E+00  0.88000000000E+00 0.  1.
        -11    1    4    4    0    0 -0.21338204615E-01  0.50920170131E-01  0.32181177707E-01  0.63906744730E-01  0.51100000000E-03 0.  1.
         11    1    4    4    0    0 -0.36309740075E-02  0.61688675041E-01  0.23790903730E-01  0.66218915891E-01  0.51100000000E-03 0. -1.
</event>
<event>
 8    1  0.1092667E+005  0.1043930E+01  0.7957747E-01            NaN
         13   -1    0    0    0    0  0.00000000000E+00  0.00000000000E+00  0.74505805969E-08  0.10566000000E+00  0.10566000000E+00 0. -1.
     999900   -1    0    0    0    0 -0.00000000000E+00 -0.00000000000E+00 -0.74505805969E-08  0.93827000000E+00  0.93827000000E+00 0. -1.
     999902    2    1    2    0    0  0.17217314766E-01 -0.15005276064E-01  0.61173668345E-02  0.10202864720E+01  0.10200124845E+01 0.  0.
     999903    2    3    3    0    0 -0.84400236572E-01  0.92902246600E-01 -0.11280336908E-01  0.12772115774E+00  0.20765856057E-01 0.  0.
         14    1    1    2    0    0 -0.17217314766E-01  0.15005276064E-01 -0.61173668345E-02  0.23643527962E-01  0.00000000000E+00 0. -1.
     999901    1    3    3    0    0  0.10161755134E+00 -0.10790752266E+00  0.17397703742E-01  0.89256531430E+00  0.88000000000E+00 0. -1.
        -11    1    4    4    0    0 -0.11241738090E-01  0.62646238393E-02  0.35506995233E-02  0.13360043983E-01  0.51100000000E-03 0.  1.
         11    1    4    4    0    0 -0.73158498482E-01  0.86637622761E-01 -0.14831036431E-01  0.11436111376E+00  0.51100000000E-03 0. -1.
</event>
<event>
 8    1  0.1092667E+005  0.1043930E+01  0.7957747E-01            NaN
         13   -1    0    0    0    0  0.00000000000E+00  0.00000000000E+00  0.74505805969E-08  0.10566000000E+00  0.10566000000E+00 0. -1.
     999900   -1    0    0    0    0 -0.00000000000E+00 -0.00000000000E+00 -0.74505805969E-08  0.93827000000E+00  0.93827000000E+00 0. -1.
     999902    2    1    2    0    0 -0.22778306070E-01 -0.15133038142E-02  0.25054006169E-02  0.10209644095E+01  0.10207060826E+01 0.  0.
     999903    2    3    3    0    0 -0.83032151182E-02 -0.10715304849E+00  0.73566357264E-01  0.13168439538E+00  0.19443556345E-01 0.  0.
         14    1    1    2    0    0  0.22778306070E-01  0.15133038142E-02 -0.25054006169E-02  0.22965590524E-01  0.00000000000E+00 0.  1.
     999901    1    3    3    0    0 -0.14475090952E-01  0.10563974468E+00 -0.71060956647E-01  0.88928001410E+00  0.88000000000E+00 0. -1.
        -11    1    4    4    0    0  0.22445917519E-02 -0.80740410468E-01  0.54522843116E-01  0.97452827651E-01  0.51100000000E-03 0. -1.
         11    1    4    4    0    0 -0.10547806870E-01 -0.26412638021E-01  0.19043514148E-01  0.34231567728E-01  0.51100000000E-03 0.  1.
</event>
<event>
 8    1  0.1092667E+005  0.1043930E+01  0.7957747E-01            NaN
         13   -1    0    0    0    0  0.00000000000E+00  0.00000000000E+00  0.74505805969E-08  0.10566000000E+00  0.10566000000E+00 0.  1.
     999900   -1    0    0    0    0 -0.00000000000E+00 -0.00000000000E+00 -0.74505805969E-08  0.93827000000E+00  0.93827000000E+00 0. -1.
     999902    2    1    2    0    0 -0.29600161331E-02  0.20361932983E-01  0.16470839028E-01  0.10175736241E+01  0.10172322360E+01 0.  0.
     999903    2    3    3    0    0  0.88434826405E-01 -0.82323656211E-01 -0.30305858895E-01  0.12567373797E+00  0.16659544997E-01 0.  0.
         14    1    1    2    0    0  0.29600161331E-02 -0.20361932983E-01 -0.16470839028E-01  0.26356375862E-01  0.00000000000E+00 0.  1.
     999901    1    3    3    0    0 -0.91394842538E-01  0.10268558919E+00  0.46776697923E-01  0.89189988616E+00  0.88000000000E+00 0.  1.
        -11    1    4    4    0    0  0.34708880961E-01 -0.43355448597E-01 -0.15653680776E-01  0.57703554340E-01  0.51100000000E-03 0.  1.
         11    1    4    4    0    0  0.53725945444E-01 -0.38968207615E-01 -0.14652178119E-01  0.67970183634E-01  0.51100000000E-03 0. -1.
</event>
<event>
 8    1  0.1092667E+005  0.1043930E+01  0.7957747E-01            NaN
         13   -1    0    0    0    0  0.00000000000E+00  0.00000000000E+00  0.74505805969E-08  0.10566000000E+00  0.10566000000E+00 0.  1.
     999900   -1    0    0    0    0 -0.00000000000E+00 -0.00000000000E+00 -0.74505805969E-08  0.93827000000E+00  0.93827000000E+00 0.  1.
     999902    2    1    2    0    0  0.17636036109E-01  0.15185759279E-01  0.36587214877E-02  0.10203710676E+01  0.10200990600E+01 0.  0.
     999903    2    3    3    0    0 -0.12353811222E+00  0.10360695710E-01 -0.26260957901E-01  0.12860394067E+00  0.21916351400E-01 0.  0.
         14    1    1    2    0    0 -0.17636036109E-01 -0.15185759279E-01 -0.36587214877E-02  0.23558932435E-01  0.00000000000E+00 0. -1.
     999901    1    3    3    0    0  0.14117414833E+00  0.48250635688E-02  0.29919679389E-01  0.89176712690E+00  0.88000000000E+00 0.  1.
        -11    1    4    4    0    0 -0.28771135096E-01  0.27668291850E-02 -0.15836715457E-01  0.32962042351E-01  0.51100000000E-03 0. -1.
         11    1    4    4    0    0 -0.94766977127E-01  0.75938665253E-02 -0.10424242444E-01  0.95641898320E-01  0.51100000000E-03 0.  1.
</event>
<event>
 8    1  0.1092667E+005  0.1043930E+01  0.7957747E-01            NaN
         13   -1    0    0    0    0  0.00000000000E+00  0.00000000000E+00  0.74505805969E-08  0.10566000000E+00  0.10566000000E+00 0.  1.
     999900   -1    0    0    0    0 -0.00000000000E+00 -0.00000000000E+00 -0.74505805969E-08  0.93827000000E+00  0.93827000000E+00 0.  1.
     999902    2    1    2    0    0 -0.62103813108E-02 -0.57861652571E-03 -0.22876965773E-01  0.10202179947E+01  0.10199423991E+01 0.  0.
     999903    2    3    3    0    0  0.87612043254E-01 -0.93996251143E-01 -0.41650591138E-02  0.13011708060E+00  0.20048481078E-01 0.  0.
         14    1    1    2    0    0  0.62103813108E-02  0.57861652571E-03  0.22876965773E-01  0.23712005315E-01  0.00000000000E+00 0.  1.
     999901    1    3    3    0    0 -0.93822424565E-01  0.93417634617E-01 -0.18711906659E-01  0.89010091409E+00  0.88000000000E+00 0. -1.
        -11    1    4    4    0    0  0.35020839151E-01 -0.43103856582E-01  0.73749414250E-02  0.56027247917E-01  0.51100000000E-03 0.  1.
         11    1    4    4    0    0  0.52591204103E-01 -0.50892394561E-01 -0.11540000539E-01  0.74089832680E-01  0.51100000000E-03 0. -1.
</event>
<event>
 8    1  0.1092667E+005  0.1043930E+01  0.7957747E-01            NaN
         13   -1    0    0    0    0  0.00000000000E+00  0.00000000000E+00  0.74505805969E-08  0.10566000000E+00  0.10566000000E+00 0.  1.
     999900   -1    0    0    0    0 -0.00000000000E+00 -0.00000000000E+00 -0.74505805969E-08  0.93827000000E+00  0.93827000000E+00 0. -1.
     999902    2    1    2    0    0  0.57465576449E-02  0.10672244299E-01  0.23928315471E-01  0.10171068010E+01  0.10167530480E+01 0.  0.
     999903    2    3    3    0    0  0.74860979231E-01  0.30158735741E-01 -0.95180752184E-01  0.12618396674E+00  0.18689631409E-01 0.  0.
         14    1    1    2    0    0 -0.57465576449E-02 -0.10672244299E-01 -0.23928315471E-01  0.26823198997E-01  0.00000000000E+00 0. -1.
     999901    1    3    3    0    0 -0.69114421586E-01 -0.19486491442E-01  0.11910906766E+00  0.89092283427E+00  0.88000000000E+00 0.  1.
        -11    1    4    4    0    0  0.52363845099E-01  0.12105858559E-01 -0.57212157232E-01  0.78498510439E-01  0.51100000000E-03 0. -1.
         11    1    4    4    0    0  0.22497134132E-01  0.18052877182E-01 -0.37968594952E-01  0.47685456298E-01  0.51100000000E-03 0.  1.
</event>
<event>
 8    1  0.1092667E+005  0.1043930E+01  0.7957747E-01            NaN
         13   -1    0    0    0    0  0.00000000000E+00  0.00000000000E+00  0.74505805969E-08  0.10566000000E+00  0.10566000000E+00 0. -1.
     999900   -1    0    0    0    0 -0.00000000000E+00 -0.00000000000E+00 -0.74505805969E-08  0.93827000000E+00  0.93827000000E+00 0.  1.
     999902    2    1    2    0    0  0.20565916160E-01  0.95378639774E-02 -0.31967446111E-02  0.10210357445E+01  0.10207790381E+01 0.  0.
     999903    2    3    3    0    0 -0.38789302856E-01 -0.42268989139E-01  0.11470866736E+00  0.12968358169E+00  0.19195716521E-01 0.  0.
         14    1    1    2    0    0 -0.20565916160E-01 -0.95378639774E-02  0.31967446111E-02  0.22894255455E-01  0.00000000000E+00 0.  1.
     999901    1    3    3    0    0  0.59355219016E-01  0.51806853117E-01 -0.11790541197E+00  0.89135216286E+00  0.88000000000E+00 0.  1.
        -11    1    4    4    0    0 -0.21892160881E-01 -0.10177502881E-01  0.42680477252E-01  0.49038072274E-01  0.51100000000E-03 0. -1.
         11    1    4    4    0    0 -0.16897141976E-01 -0.32091486258E-01  0.72028190111E-01  0.80645509415E-01  0.51100000000E-03 0.  1.
</event>
<event>
 8    1  0.1092667E+005  0.1043930E+01  0.7957747E-01            NaN
         13   -1    0    0    0    0  0.00000000000E+00  0.00000000000E+00  0.74505805969E-08  0.10566000000E+00  0.10566000000E+00 0. -1.
     999900   -1    0    0    0    0 -0.00000000000E+00 -0.00000000000E+00 -0.74505805969E-08  0.93827000000E+00  0.93827000000E+00 0. -1.
     999902    2    1    2    0    0 -0.12277143276E-01 -0.18942261378E-01  0.76384998827E-02  0.10200996791E+01  0.10198212937E+01 0.  0.
     999903    2    3    3    0    0  0.11743280227E+00 -0.28757732542E-01  0.41655648998E-01  0.12988724386E+00  0.22760333751E-01 0.  0.
         14    1    1    2    0    0  0.12277143276E-01  0.18942261378E-01 -0.76384998827E-02  0.23830320887E-01  0.00000000000E+00 0. -1.
     999901    1    3    3    0    0 -0.12970994555E+00  0.98154711644E-02 -0.34017149116E-01  0.89021243526E+00  0.88000000000E+00 0.  1.
        -11    1    4    4    0    0  0.67384574252E-01 -0.94414048947E-02  0.32706651640E-01  0.75497067202E-01  0.51100000000E-03 0. -1.
         11    1    4    4    0    0  0.50048228022E-01 -0.19316327648E-01  0.89489973583E-02  0.54390176656E-01  0.51100000000E-03 0.  1.
</event>
<event>
 8    1  0.1092667E+005  0.1043930E+01  0.7957747E-01            NaN
         13   -1    0    0    0    0  0.00000000000E+00  0.00000000000E+00  0.74505805969E-08  0.10566000000E+00  0.10566000000E+00 0.  1.
     999900   -1    0    0    0    0 -0.00000000000E+00 -0.00000000000E+00 -0.74505805969E-08  0.93827000000E+00  0.93827000000E+00 0.  1.
     999902    2    1    2    0    0 -0.22434525904E-01  0.23018972594E-02 -0.97908577815E-02  0.10193440776E+01  0.10190475362E+01 0.  0.
     999903    2    3    3    0    0  0.54679408465E-01 -0.97806705204E-01 -0.60344203802E-01  0.12888131480E+00  0.20321935912E-01 0.  0.
         14    1    1    2    0    0  0.22434525904E-01 -0.23018972594E-02  0.97908577815E-02  0.24585922387E-01  0.00000000000E+00 0. -1.
     999901    1    3    3    0    0 -0.77113934369E-01  0.10010860246E+00  0.50553346020E-01  0.89046276281E+00  0.88000000000E+00 0.  1.
        -11    1    4    4    0    0  0.70744053698E-02 -0.15606294199E-01 -0.16557002372E-02  0.17222255782E-01  0.51100000000E-03 0.  1.
         11    1    4    4    0    0  0.47605003095E-01 -0.82200411005E-01 -0.58688503565E-01  0.11165905902E+00  0.51100000000E-03 0. -1.
</event>
<event>
 8    1  0.1092667E+005  0.1043930E+01  0.7957747E-01            NaN
         13   -1    0    0    0    0  0.00000000000E+00  0.00000000000E+00  0.74505805969E-08  0.10566000000E+00  0.10566000000E+00 0. -1.
     999900   -1    0    0    0    0 -0.00000000000E+00 -0.00000000000E+00 -0.74505805969E-08  0.93827000000E+00  0.93827000000E+00 0. -1.
     999902    2    1    2    0    0 -0.17830141108E-01  0.12781211190E-01  0.86054499238E-02  0.10203646216E+01  0.10200924634E+01 0.  0.
     999903    2    3    3    0    0  0.18499131505E-01 -0.12299230046E+00 -0.25683149049E-01  0.12855187749E+00  0.19915753083E-01 0.  0.
         14    1    1    2    0    0  0.17830141108E-01 -0.12781211190E-01 -0.86054499238E-02  0.23565378415E-01  0.00000000000E+00 0.  1.
     999901    1    3    3    0    0 -0.36329272613E-01  0.13577351165E+00  0.34288598973E-01  0.89181274410E+00  0.88000000000E+00 0. -1.
        -11    1    4    4    0    0  0.10834077438E-02 -0.56366350517E-01 -0.47722484498E-02  0.56580692106E-01  0.51100000000E-03 0.  1.
         11    1    4    4    0    0  0.17415723761E-01 -0.66625949946E-01 -0.20910900599E-01  0.71971185381E-01  0.51100000000E-03 0. -1.
</event>
<event>
 8    1  0.1092667E+005  0.1043930E+01  0.7957747E-01            NaN
         13   -1    0    0    0    0  0.00000000000E+00  0.00000000000E+00  0.74505805969E-08  0.10566000000E+00  0.10566000000E+00 0.  1.
     999900   -1    0    0    0    0 -0.00000000000E+00 -0.00000000000E+00 -0.74505805969E-08  0.93827000000E+00  0.93827000000E+00 0. -1.
     999902    2    1    2    0    0  0.21266718949E-01  0.83393683089E-04  0.10330589108E-01  0.10202867904E+01  0.10200128104E+01 0.  0.
     999903    2    3    3    0    0  0.16071463468E-01 -0.91590264087E-01  0.91511041062E-01  0.13179294348E+00  0.18655854381E-01 0.  0.
         14    1    1    2    0    0 -0.21266718949E-01 -0.83393683089E-04 -0.10330589108E-01  0.23643209610E-01  0.00000000000E+00 0.  1.
     999901    1    3    3    0    0  0.51952554802E-02  0.91673657770E-01 -0.81180451953E-01  0.88849384690E+00  0.88000000000E+00 0. -1.
        -11    1    4    4    0    0  0.11812494696E-01 -0.77240495236E-01  0.66340183269E-01  0.10250322030E+00  0.51100000000E-03 0. -1.
         11    1    4    4    0    0  0.42589687724E-02 -0.14349768851E-01  0.25170857793E-01  0.29289723182E-01  0.51100000000E-03 0.  1.
</event>
<event>
 7    1  0.1092667E+005  0.1043930E+01  0.7957747E-01            NaN
         13   -1    0    0    0    0  0.00000000000E+00  0.00000000000E+00  0.74505805969E-08  0.10566000000E+00  0.10566000000E+00 0. -1.
     999900   -1    0    0    0    0 -0.00000000000E+00 -0.00000000000E+00 -0.74505805969E-08  0.93827000000E+00  0.93827000000E+00 0. -1.
     999903    2    1    2    0    0 -0.28782162379E-01  0.85729267341E-02 -0.10106878795E+00  0.10753730421E+00  0.21153343839E-01 0.  0.
         14    1    1    2    0    0 -0.38383673065E-01 -0.98848815917E-02 -0.21936698985E-01  0.45301611499E-01  0.00000000000E+00 0. -1.
     999901    1    1    2    0    0  0.67165835445E-01  0.13119548576E-02  0.12300548694E+00  0.89109108429E+00  0.88000000000E+00 0.  1.
        -11    1    3    3    0    0 -0.17147478373E-01  0.83286642075E-02 -0.30195812781E-01  0.35713455343E-01  0.51100000000E-03 0. -1.
         11    1    3    3    0    0 -0.11634684007E-01  0.24426252664E-03 -0.70872975172E-01  0.71823848872E-01  0.51100000000E-03 0.  1.
</event>
<event>
 8    1  0.1092667E+005  0.1043930E+01  0.7957747E-01            NaN
         13   -1    0    0    0    0  0.00000000000E+00  0.00000000000E+00  0.74505805969E-08  0.10566000000E+00  0.10566000000E+00 0. -1.
     999900   -1    0    0    0    0 -0.00000000000E+00 -0.00000000000E+00 -0.74505805969E-08  0.93827000000E+00  0.93827000000E+00 0.  1.
     999902    2    1    2    0    0  0.11147373103E-03 -0.10284694542E-02 -0.23419338070E-01  0.10204878249E+01  0.10202185380E+01 0.  0.
     999903    2    3    3    0    0  0.10350684894E+00  0.68323070828E-01 -0.39058639624E-01  0.13158691511E+00  0.20194779329E-01 0.  0.
         14    1    1    2    0    0 -0.11147373103E-03  0.10284694542E-02  0.23419338070E-01  0.23442175058E-01  0.00000000000E+00 0. -1.
     999901    1    3    3    0    0 -0.10339537521E+00 -0.69351540282E-01  0.15639301554E-01  0.88890090984E+00  0.88000000000E+00 0.  1.
        -11    1    4    4    0    0  0.37797693212E-01  0.18646551727E-01 -0.21678023947E-01  0.47397862259E-01  0.51100000000E-03 0. -1.
         11    1    4    4    0    0  0.65709155732E-01  0.49676519101E-01 -0.17380615677E-01  0.84189052847E-01  0.51100000000E-03 0.  1.
</event>
<event>
 8    1  0.1092667E+005  0.1043930E+01  0.7957747E-01            NaN
         13   -1    0    0    0    0  0.00000000000E+00  0.00000000000E+00  0.74505805969E-08  0.10566000000E+00  0.10566000000E+00 0. -1.
     999900   -1    0    0    0    0 -0.00000000000E+00 -0.00000000000E+00 -0.74505805969E-08  0.93827000000E+00  0.93827000000E+00 0. -1.
     999902    2    1    2    0    0 -0.18820156722E-01  0.14407807658E-01 -0.43992177179E-03  0.10202239512E+01  0.10199484956E+01 0.  0.
     999903    2    3    3    0    0 -0.44621152798E-01  0.12253929655E+00 -0.17796667866E-01  0.13306028704E+00  0.19529263279E-01 0.  0.
         14    1    1    2    0    0  0.18820156722E-01 -0.14407807658E-01  0.43992177179E-03  0.23706048842E-01  0.00000000000E+00 0. -1.
     999901    1    3    3    0    0  0.25800996076E-01 -0.10813148890E+00  0.17356746094E-01  0.88716366411E+00  0.88000000000E+00 0.  1.
        -11    1    4    4    0    0 -0.10657977458E-01  0.16193722722E-01 -0.80491452236E-02  0.20997118824E-01  0.51100000000E-03 0.  1.
         11    1    4    4    0    0 -0.33963175340E-01  0.10634557383E+00 -0.97475226420E-02  0.11206316822E+00  0.51100000000E-03 0. -1.
</event>
<event>
 8    1  0.1092667E+005  0.1043930E+01  0.7957747E-01            NaN
         13   -1    0    0    0    0  0.00000000000E+00  0.00000000000E+00  0.74505805969E-08  0.10566000000E+00  0.10566000000E+00 0. -1.
     999900   -1    0    0    0    0 -0.00000000000E+00 -0.00000000000E+00 -0.74505805969E-08  0.93827000000E+00  0.93827000000E+00 0.  1.
     999902    2    1    2    0    0  0.53625020589E-02 -0.22879996928E-02 -0.22893610218E-01  0.10203056744E+01  0.10200321370E+01 0.  0.
     999903    2    3    3    0    0 -0.11942026180E+00  0.46475464924E-01 -0.13021547487E-01  0.13011127358E+00  0.18390623848E-01 0.  0.
         14    1    1    2    0    0 -0.53625020589E-02  0.22879996928E-02  0.22893610218E-01  0.23624325594E-01  0.00000000000E+00 0. -1.
     999901    1    3    3    0    0  0.12478276386E+00 -0.48763464617E-01 -0.98720627316E-02  0.89019440083E+00  0.88000000000E+00 0. -1.
        -11    1    4    4    0    0 -0.92855601591E-01  0.32077611956E-01 -0.16760500156E-01  0.99660982446E-01  0.51100000000E-03 0.  1.
         11    1    4    4    0    0 -0.26564660210E-01  0.14397852968E-01  0.37389526696E-02  0.30450291135E-01  0.51100000000E-03 0. -1.
</event>
<event>
 8    1  0.1092667E+005  0.1043930E+01  0.7957747E-01            NaN
         13   -1    0    0    0    0  0.00000000000E+00  0.00000000000E+00  0.74505805969E-08  0.10566000000E+00  0.10566000000E+00 0.  1.
     999900   -1    0    0    0    0 -0.00000000000E+00 -0.00000000000E+00 -0.74505805969E-08  0.93827000000E+00  0.93827000000E+00 0.  1.
     999902    2    1    2    0    0 -0.86633312635E-02 -0.20948200433E-01 -0.72615780858E-02  0.10201264094E+01  0.10198486555E+01 0.  0.
     999903    2    3    3    0    0  0.12370819102E+00 -0.32712037096E-01 -0.13341016954E-01  0.13012777605E+00  0.19531038635E-01 0.  0.
         14    1    1    2    0    0  0.86633312635E-02  0.20948200433E-01  0.72615780858E-02  0.23803590617E-01  0.00000000000E+00 0. -1.
     999901    1    3    3    0    0 -0.13237152228E+00  0.11763836663E-01  0.60794388686E-02  0.88999863334E+00  0.88000000000E+00 0. -1.
        -11    1    4    4    0    0  0.54687076442E-01 -0.55211840964E-02 -0.99790897647E-02  0.55865939150E-01  0.51100000000E-03 0. -1.
         11    1    4    4    0    0  0.69021114574E-01 -0.27190852999E-01 -0.33619271897E-02  0.74261836897E-01  0.51100000000E-03 0.  1.
</event>
<event>
 8    1  0.1092667E+005  0.1043930E+01  0.7957747E-01            NaN
         13   -1    0    0    0    0  0.00000000000E+00  0.00000000000E+00  0.74505805969E-08  0.10566000000E+00  0.10566000000E+00 0. -1.
     999900   -1    0    0    0    0 -0.00000000000E+00 -0.00000000000E+00 -0.74505805969E-08  0.93827000000E+00  0.93827000000E+00 0. -1.
     999902    2    1    2    0    0 -0.11996925937E-01  0.13723623686E-01  0.14666609052E-01  0.10205339854E+01  0.10202657702E+01 0.  0.
     999903    2    3    3    0    0  0.19671020404E-01 -0.11045825288E+00  0.64750808964E-01  0.12984188124E+00  0.88471570889E-02 0.  0.
         14    1    1    2    0    0  0.11996925937E-01 -0.13723623686E-01 -0.14666609052E-01  0.23396014621E-01  0.00000000000E+00 0.  1.
     999901    1    3    3    0    0 -0.31667946341E-01  0.12418187657E+00 -0.50084199912E-01  0.89069210414E+00  0.88000000000E+00 0.  1.
        -11    1    4    4    0    0  0.93860487906E-02 -0.30502982105E-01  0.19157658847E-01  0.37226426671E-01  0.51100000000E-03 0. -1.
         11    1    4    4    0    0  0.10284971613E-01 -0.79955270780E-01  0.45593150117E-01  0.92615454570E-01  0.51100000000E-03 0.  1.
</event>
<event>
 8    1  0.1092667E+005  0.1043930E+01  0.7957747E-01            NaN
         13   -1    0    0    0    0  0.00000000000E+00  0.00000000000E+00  0.74505805969E-08  0.10566000000E+00  0.10566000000E+00 0.  1.
     999900   -1    0    0    0    0 -0.00000000000E+00 -0.00000000000E+00 -0.74505805969E-08  0.93827000000E+00  0.93827000000E+00 0. -1.
     999902    2    1    2    0    0  0.39139807642E-02  0.22811473223E-01  0.55552013767E-02  0.10201278400E+01  0.10198501200E+01 0.  0.
     999903    2    3    3    0    0  0.78986377165E-01  0.91064966128E-01  0.52978018340E-01  0.13302957742E+00  0.18934682648E-01 0.  0.
         14    1    1    2    0    0 -0.39139807642E-02 -0.22811473223E-01 -0.55552013767E-02  0.23802159951E-01  0.00000000000E+00 0.  1.
     999901    1    3    3    0    0 -0.75072396401E-01 -0.68253492905E-01 -0.47422816963E-01  0.88709826263E+00  0.88000000000E+00 0.  1.
        -11    1    4    4    0    0  0.53487827282E-01  0.54538488578E-01  0.24796791441E-01  0.80315231372E-01  0.51100000000E-03 0. -1.
         11    1    4    4    0    0  0.25498549884E-01  0.36526477550E-01  0.28181226899E-01  0.52714346045E-01  0.51100000000E-03 0.  1.
</event>
<event>
 8    1  0.1092667E+005  0.1043930E+01  0.7957747E-01            NaN
         13   -1    0    0    0    0  0.00000000000E+00  0.00000000000E+00  0.74505805969E-08  0.10566000000E+00  0.10566000000E+00 0. -1.
     999900   -1    0    0    0    0 -0.00000000000E+00 -0.00000000000E+00 -0.74505805969E-08  0.93827000000E+00  0.93827000000E+00 0.  1.
     999902    2    1    2    0    0 -0.14789029704E-01 -0.14254846444E-01 -0.12568132445E-01  0.10198494269E+01  0.10195650934E+01 0.  0.
     999903    2    3    3    0    0 -0.59780495225E-01  0.45868862318E-01 -0.10643037608E+00  0.13167758932E+00  0.18272997490E-01 0.  0.
         14    1    1    2    0    0  0.14789029704E-01  0.14254846444E-01  0.12568132445E-01  0.24080573081E-01  0.00000000000E+00 0. -1.
     999901    1    3    3    0    0  0.44991465521E-01 -0.60123708762E-01  0.93862243633E-01  0.88817183760E+00  0.88000000000E+00 0. -1.
        -11    1    4    4    0    0 -0.32849059250E-01  0.16176391313E-01 -0.60426069056E-01  0.70656261380E-01  0.51100000000E-03 0.  1.
         11    1    4    4    0    0 -0.26931435975E-01  0.29692471005E-01 -0.46004307021E-01  0.61021327940E-01  0.51100000000E-03 0. -1.
</event>
<event>
 8    1  0.1128313E+005  0.1043930E+01  0.7957747E-01            NaN
         13   -1    0    0    0    0  0.00000000000E+00  0.00000000000E+00  0.74505805969E-08  0.10566000000E+00  0.10566000000E+00 0.  1.
     999900   -1    0    0    0    0 -0.00000000000E+00 -0.00000000000E+00 -0.74505805969E-08  0.93827000000E+00  0.93827000000E+00 0.  1.
     999902    2    1    2    0    0 -0.20292228978E-01  0.15138725486E-01  0.33904625299E-02  0.10183868835E+01  0.10180664976E+01 0.  0.
     999903    2    3    3    0    0 -0.12070073113E+00 -0.18147158606E-01  0.42220723779E-01  0.13120166798E+00  0.23093338946E-01 0.  0.
         14    1    1    2    0    0  0.20292228978E-01 -0.15138725486E-01 -0.33904625299E-02  0.25543116537E-01  0.00000000000E+00 0.  1.
     999901    1    3    3    0    0  0.10040850215E+00  0.33285884091E-01 -0.38830261249E-01  0.88718521548E+00  0.88000000000E+00 0. -1.
        -11    1    4    4    0    0 -0.59061853032E-01 -0.17057784363E-01  0.29769212345E-01  0.68306204810E-01  0.51100000000E-03 0. -1.
         11    1    4    4    0    0 -0.61638878097E-01 -0.10893742430E-02  0.12451511434E-01  0.62895463170E-01  0.51100000000E-03 0.  1.
</event>
<event>
 8    1  0.1092667E+005  0.1043930E+01  0.7957747E-01            NaN
         13   -1    0    0    0    0  0.00000000000E+00  0.00000000000E+00  0.74505805969E-08  0.10566000000E+00  0.10566000000E+00 0.  1.
     999900   -1    0    0    0    0 -0.00000000000E+00 -0.00000000000E+00 -0.74505805969E-08  0.93827000000E+00  0.93827000000E+00 0. -1.
     999902    2    1    2    0    0  0.14459028751E-01  0.10150140154E-01 -0.12141277245E-01  0.10224940612E+01  0.10222693411E+01 0.  0.
     999903    2    3    3    0    0  0.16538083646E-01  0.13139732680E+00 -0.86276270925E-02  0.13417117598E+00  0.19715547486E-01 0.  0.
         14    1    1    2    0    0 -0.14459028751E-01 -0.10150140154E-01  0.12141277245E-01  0.21435938765E-01  0.00000000000E+00 0.  1.
     999901    1    3    3    0    0 -0.20790548947E-02 -0.12124718665E+00 -0.35136501520E-02  0.88832288526E+00  0.88000000000E+00 0.  1.
        -11    1    4    4    0    0  0.53718155842E-02  0.32095714291E-01  0.62504308159E-02  0.33140915571E-01  0.51100000000E-03 0. -1.
         11    1    4    4    0    0  0.11166268062E-01  0.99301612509E-01 -0.14878057908E-01  0.10103026040E+00  0.51100000000E-03 0.  1.
</event>
<event>
 8    1  0.1092667E+005  0.1043930E+01  0.7957747E-01            NaN
         13   -1    0    0    0    0  0.00000000000E+00  0.00000000000E+00  0.74505805969E-08  0.10566000000E+00  0.10566000000E+00 0. -1.
     999900   -1    0    0    0    0 -0.00000000000E+00 -0.00000000000E+00 -0.74505805969E-08  0.93827000000E+00  0.93827000000E+00 0.  1.
     999902    2    1    2    0    0 -0.11256967248E-01 -0.12230989820E-01  0.17528387002E-01  0.10197729974E+01  0.10194868344E+01 0.  0.
     999903    2    3    3    0    0 -0.28523352592E-01  0.42769949881E-01 -0.11541099310E+00  0.12792317248E+00  0.20044711838E-01 0.  0.
         14    1    1    2    0    0  0.11256967248E-01  0.12230989820E-01 -0.17528387002E-01  0.24157002598E-01  0.00000000000E+00 0.  1.
     999901    1    3    3    0    0  0.17266385344E-01 -0.55000939701E-01  0.13293938010E+00  0.89184982492E+00  0.88000000000E+00 0. -1.
        -11    1    4    4    0    0 -0.15930650501E-01  0.20730234935E-01 -0.35603709099E-01  0.44174806037E-01  0.51100000000E-03 0. -1.
         11    1    4    4    0    0 -0.12592702091E-01  0.22039714946E-01 -0.79807284004E-01  0.83748366443E-01  0.51100000000E-03 0.  1.
</event>
<event>
 8    1  0.1092667E+005  0.1043930E+01  0.7957747E-01            NaN
         13   -1    0    0    0    0  0.00000000000E+00  0.00000000000E+00  0.74505805969E-08  0.10566000000E+00  0.10566000000E+00 0.  1.
     999900   -1    0    0    0    0 -0.00000000000E+00 -0.00000000000E+00 -0.74505805969E-08  0.93827000000E+00  0.93827000000E+00 0. -1.
     999902    2    1    2    0    0 -0.15606105622E-01  0.61503249886E-02 -0.16171206194E-01  0.10206301086E+01  0.10203641182E+01 0.  0.
     999903    2    3    3    0    0  0.71252970384E-01 -0.32433943192E-01 -0.10312082539E+00  0.13125196566E+00  0.21545937014E-01 0.  0.
         14    1    1    2    0    0  0.15606105622E-01 -0.61503249886E-02  0.16171206194E-01  0.23299891414E-01  0.00000000000E+00 0.  1.
     999901    1    3    3    0    0 -0.86859076006E-01  0.38584268181E-01  0.86949619193E-01  0.88937814293E+00  0.88000000000E+00 0.  1.
        -11    1    4    4    0    0  0.29043117841E-01 -0.20723753143E-01 -0.33184434909E-01  0.48728271870E-01  0.51100000000E-03 0. -1.
         11    1    4    4    0    0  0.42209852543E-01 -0.11710190049E-01 -0.69936390478E-01  0.82523693790E-01  0.51100000000E-03 0.  1.
</event>
<event>
 8    1  0.1092667E+005  0.1043930E+01  0.7957747E-01            NaN
         13   -1    0    0    0    0  0.00000000000E+00  0.00000000000E+00  0.74505805969E-08  0.10566000000E+00  0.10566000000E+00 0.  1.
     999900   -1    0    0    0    0 -0.00000000000E+00 -0.00000000000E+00 -0.74505805969E-08  0.93827000000E+00  0.93827000000E+00 0. -1.
     999902    2    1    2    0    0 -0.20219826267E-01 -0.15020146419E-01  0.11950785963E-03  0.10187415015E+01  0.10184300597E+01 0.  0.
     999903    2    3    3    0    0  0.20872918413E-01 -0.96639999933E-01 -0.81479254044E-01  0.13025471374E+00  0.23504325145E-01 0.  0.
         14    1    1    2    0    0  0.20219826267E-01  0.15020146419E-01 -0.11950785963E-03  0.25188498463E-01  0.00000000000E+00 0.  1.
     999901    1    3    3    0    0 -0.41092744679E-01  0.81619853514E-01  0.81598761904E-01  0.88848678780E+00  0.88000000000E+00 0. -1.
        -11    1    4    4    0    0  0.18143431948E-01 -0.51171802831E-01 -0.56259251707E-01  0.78186329058E-01  0.51100000000E-03 0. -1.
         11    1    4    4    0    0  0.27294864644E-02 -0.45468197102E-01 -0.25220002337E-01  0.52068384678E-01  0.51100000000E-03 0.  1.
</event>
<event>
 8    1  0.1092667E+005  0.1043930E+01  0.7957747E-01            NaN
         13   -1    0    0    0    0  0.00000000000E+00  0.00000000000E+00  0.74505805969E-08  0.10566000000E+00  0.10566000000E+00 0.  1.
     999900   -1    0    0    0    0 -0.00000000000E+00 -0.00000000000E+00 -0.74505805969E-08  0.93827000000E+00  0.93827000000E+00 0.  1.
     999902    2    1    2    0    0 -0.12059416159E-01 -0.21431605648E-03  0.22358172153E-01  0.10185259981E+01  0.10182091364E+01 0.  0.
     999903    2    3    3    0    0 -0.83585982308E-01  0.95052143945E-01  0.24194114022E-01  0.13049721551E+00  0.20558248834E-01 0.  0.
         14    1    1    2    0    0  0.12059416159E-01  0.21431605648E-03 -0.22358172153E-01  0.25404001879E-01  0.00000000000E+00 0. -1.
     999901    1    3    3    0    0  0.71526566149E-01 -0.95266460002E-01 -0.18359418692E-02  0.88802878261E+00  0.88000000000E+00 0.  1.
        -11    1    4    4    0    0 -0.15116455241E-01  0.21197713782E-01  0.13177601008E-01  0.29184937519E-01  0.51100000000E-03 0.  1.
         11    1    4    4    0    0 -0.68469527066E-01  0.73854430163E-01  0.11016513014E-01  0.10131227799E+00  0.51100000000E-03 0. -1.
</event>
<event>
 8    1  0.1092667E+005  0.1043930E+01  0.7957747E-01            NaN
         13   -1    0    0    0    0  0.00000000000E+00  0.00000000000E+00  0.74505805969E-08  0.10566000000E+00  0.10566000000E+00 0.  1.
     999900   -1    0    0    0    0 -0.00000000000E+00 -0.00000000000E+00 -0.74505805969E-08  0.93827000000E+00  0.93827000000E+00 0.  1.
     999902    2    1    2    0    0 -0.51904472834E-02 -0.21007242736E-01  0.12279420185E-01  0.10190497036E+01  0.10187459297E+01 0.  0.
     999903    2    3    3    0    0 -0.18712878611E-01  0.10682485668E+00  0.64987521433E-01  0.12815013250E+00  0.20913074573E-01 0.  0.
         14    1    1    2    0    0  0.51904472834E-02  0.21007242736E-01 -0.12279420185E-01  0.24880296430E-01  0.00000000000E+00 0. -1.
     999901    1    3    3    0    0  0.13522431328E-01 -0.12783209942E+00 -0.52708101248E-01  0.89089957107E+00  0.88000000000E+00 0. -1.
        -11    1    4    4    0    0 -0.84474491950E-02  0.39336948793E-01  0.35976991466E-01  0.53975549782E-01  0.51100000000E-03 0.  1.
         11    1    4    4    0    0 -0.10265429416E-01  0.67487907886E-01  0.29010529966E-01  0.74174582721E-01  0.51100000000E-03 0. -1.
</event>
<event>
 8    1  0.1092667E+005  0.1043930E+01  0.7957747E-01            NaN
         13   -1    0    0    0    0  0.00000000000E+00  0.00000000000E+00  0.74505805969E-08  0.10566000000E+00  0.10566000000E+00 0.  1.
     999900   -1    0    0    0    0 -0.00000000000E+00 -0.00000000000E+00 -0.74505805969E-08  0.93827000000E+00  0.93827000000E+00 0. -1.
     999902    2    1    2    0    0  0.52170731396E-04 -0.10863590349E-02  0.23703922692E-01  0.10202011389E+01  0.10199251468E+01 0.  0.
     999903    2    3    3    0    0 -0.42740291803E-01  0.64756820738E-02  0.12460099499E+00  0.13337049075E+00  0.19839678622E-01 0.  0.
         14    1    1    2    0    0 -0.52170731396E-04  0.10863590349E-02 -0.23703922692E-01  0.23728861092E-01  0.00000000000E+00 0. -1.
     999901    1    3    3    0    0  0.42792462535E-01 -0.75620411087E-02 -0.10089707230E+00  0.88683064816E+00  0.88000000000E+00 0. -1.
        -11    1    4    4    0    0 -0.43258958323E-01  0.69689235875E-02  0.10535635676E+00  0.11410576848E+00  0.51100000000E-03 0.  1.
         11    1    4    4    0    0  0.51866651970E-03 -0.49324151376E-03  0.19244638236E-01  0.19264722266E-01  0.51100000000E-03 0. -1.
</event>
<event>
 8    1  0.1092667E+005  0.1043930E+01  0.7957747E-01            NaN
         13   -1    0    0    0    0  0.00000000000E+00  0.00000000000E+00  0.74505805969E-08  0.10566000000E+00  0.10566000000E+00 0.  1.
     999900   -1    0    0    0    0 -0.00000000000E+00 -0.00000000000E+00 -0.74505805969E-08  0.93827000000E+00  0.93827000000E+00 0.  1.
     999902    2    1    2    0    0 -0.17045368286E-01  0.38200085005E-02 -0.15673791643E-01  0.10204607693E+01  0.10201908532E+01 0.  0.
     999903    2    3    3    0    0  0.10367697863E+00  0.66186860975E-01 -0.36475449159E-01  0.12978899009E+00  0.19624145718E-01 0.  0.
         14    1    1    2    0    0  0.17045368286E-01 -0.38200085005E-02  0.15673791643E-01  0.23469230695E-01  0.00000000000E+00 0.  1.
     999901    1    3    3    0    0 -0.12072234691E+00 -0.62366852474E-01  0.20801657517E-01  0.89067177921E+00  0.88000000000E+00 0. -1.
        -11    1    4    4    0    0  0.22495707774E-01  0.10372768433E-01 -0.12261961839E-03  0.24777557382E-01  0.51100000000E-03 0.  1.
         11    1    4    4    0    0  0.81181270851E-01  0.55814092542E-01 -0.36352829541E-01  0.10501143271E+00  0.51100000000E-03 0. -1.
</event>
<event>
 8    1  0.1092667E+005  0.1043930E+01  0.7957747E-01            NaN
         13   -1    0    0    0    0  0.00000000000E+00  0.00000000000E+00  0.74505805969E-08  0.10566000000E+00  0.10566000000E+00 0.  1.
     999900   -1    0    0    0    0 -0.00000000000E+00 -0.00000000000E+00 -0.74505805969E-08  0.93827000000E+00  0.93827000000E+00 0. -1.
     999902    2    1    2    0    0 -0.10971290524E-01 -0.21472782538E-02  0.22003027412E-01  0.10192497805E+01  0.10189509320E+01 0.  0.
     999903    2    3    3    0    0  0.72028798996E-01 -0.87167095675E-01  0.61683235377E-01  0.13037864072E+00  0.20187074489E-01 0.  0.
         14    1    1    2    0    0  0.10971290524E-01  0.21472782538E-02 -0.22003027412E-01  0.24680219508E-01  0.00000000000E+00 0. -1.
     999901    1    3    3    0    0 -0.83000089520E-01  0.85019817421E-01 -0.39680207964E-01  0.88887113977E+00  0.88000000000E+00 0.  1.
        -11    1    4    4    0    0  0.40963387315E-01 -0.60019479900E-01  0.31211976114E-01  0.79087202768E-01  0.51100000000E-03 0.  1.
         11    1    4    4    0    0  0.31065411681E-01 -0.27147615775E-01  0.30471259263E-01  0.51291437952E-01  0.51100000000E-03 0. -1.
</event>
<event>
 8    1  0.1092667E+005  0.1043930E+01  0.7957747E-01            NaN
         13   -1    0    0    0    0  0.00000000000E+00  0.00000000000E+00  0.74505805969E-08  0.10566000000E+00  0.10566000000E+00 0.  1.
     999900   -1    0    0    0    0 -0.00000000000E+00 -0.00000000000E+00 -0.74505805969E-08  0.93827000000E+00  0.93827000000E+00 0.  1.
     999902    2    1    2    0    0 -0.14730347067E-01  0.24520051272E-01  0.13003303433E-01  0.10125086388E+01  0.10120209690E+01 0.  0.
     999903    2    3    3    0    0  0.11831069101E-01  0.90080245571E-01 -0.82734453883E-01  0.12449435622E+00  0.19985745729E-01 0.  0.
         14    1    1    2    0    0  0.14730347067E-01 -0.24520051272E-01 -0.13003303433E-01  0.31421361194E-01  0.00000000000E+00 0. -1.
     999901    1    3    3    0    0 -0.26561416168E-01 -0.65560194299E-01  0.95737757316E-01  0.88801428259E+00  0.88000000000E+00 0. -1.
        -11    1    4    4    0    0  0.43640549641E-02  0.36261919410E-01 -0.20534616665E-01  0.41903500779E-01  0.51100000000E-03 0.  1.
         11    1    4    4    0    0  0.74670141366E-02  0.53818326162E-01 -0.62199837218E-01  0.82590855438E-01  0.51100000000E-03 0. -1.
</event>
<event>
 8    1  0.1092667E+005  0.1043930E+01  0.7957747E-01            NaN
         13   -1    0    0    0    0  0.00000000000E+00  0.00000000000E+00  0.74505805969E-08  0.10566000000E+00  0.10566000000E+00 0. -1.
     999900   -1    0    0    0    0 -0.00000000000E+00 -0.00000000000E+00 -0.74505805969E-08  0.93827000000E+00  0.93827000000E+00 0.  1.
     999902    2    1    2    0    0 -0.31297046069E-02  0.89640622751E-02  0.22106891870E-01  0.10198704046E+01  0.10195865721E+01 0.  0.
     999903    2    3    3    0    0 -0.94652258003E-01  0.47853409885E-01 -0.71306968379E-01  0.12935655942E+00  0.19985918641E-01 0.  0.
         14    1    1    2    0    0  0.31297046069E-02 -0.89640622751E-02 -0.22106891870E-01  0.24059595415E-01  0.00000000000E+00 0.  1.
     999901    1    3    3    0    0  0.91522553396E-01 -0.38889347610E-01  0.93413860248E-01  0.89051384516E+00  0.88000000000E+00 0.  1.
        -11    1    4    4    0    0 -0.39437560186E-01  0.91434185534E-02 -0.26051212831E-01  0.48144055367E-01  0.51100000000E-03 0.  1.
         11    1    4    4    0    0 -0.55214697817E-01  0.38709991331E-01 -0.45255755548E-01  0.81212504056E-01  0.51100000000E-03 0. -1.
</event>
<event>
 8    1  0.1092667E+005  0.1043930E+01  0.7957747E-01            NaN
         13   -1    0    0    0    0  0.00000000000E+00  0.00000000000E+00  0.74505805969E-08  0.10566000000E+00  0.10566000000E+00 0. -1.
     999900   -1    0    0    0    0 -0.00000000000E+00 -0.00000000000E+00 -0.74505805969E-08  0.93827000000E+00  0.93827000000E+00 0. -1.
     999902    2    1    2    0    0  0.28053790777E-02  0.11986364458E-02  0.25294912658E-01  0.10184517841E+01  0.10181330448E+01 0.  0.
     999903    2    3    3    0    0 -0.93872943043E-01  0.61988869778E-01 -0.56254417820E-01  0.12733313666E+00  0.19859978762E-01 0.  0.
         14    1    1    2    0    0 -0.28053790777E-02 -0.11986364458E-02 -0.25294912658E-01  0.25478215939E-01  0.00000000000E+00 0.  1.
     999901    1    3    3    0    0  0.96678322121E-01 -0.60790233333E-01  0.81549330478E-01  0.89111864740E+00  0.88000000000E+00 0.  1.
        -11    1    4    4    0    0 -0.56995839830E-01  0.34365058204E-01 -0.43538263167E-01  0.79531908464E-01  0.51100000000E-03 0. -1.
         11    1    4    4    0    0 -0.36877103212E-01  0.27623811574E-01 -0.12716154653E-01  0.47801228200E-01  0.51100000000E-03 0.  1.
</event>
<event>
 8    1  0.1092667E+005  0.1043930E+01  0.7957747E-01            NaN
         13   -1    0    0    0    0  0.00000000000E+00  0.00000000000E+00  0.74505805969E-08  0.10566000000E+00  0.10566000000E+00 0.  1.
     999900   -1    0    0    0    0 -0.00000000000E+00 -0.00000000000E+00 -0.74505805969E-08  0.93827000000E+00  0.93827000000E+00 0.  1.
     999902    2    1    2    0    0  0.19062002035E-01  0.49169584029E-02  0.16297773937E-01  0.10183731254E+01  0.10180523900E+01 0.  0.
     999903    2    3    3    0    0 -0.12467559957E+00 -0.94121816116E-02  0.49389629988E-02  0.12652400987E+00  0.18743997107E-01 0.  0.
         14    1    1    2    0    0 -0.19062002035E-01 -0.49169584029E-02 -0.16297773937E-01  0.25556874551E-01  0.00000000000E+00 0. -1.
     999901    1    3    3    0    0  0.14373760161E+00  0.14329140014E-01  0.11358810939E-01  0.89184911558E+00  0.88000000000E+00 0.  1.
        -11    1    4    4    0    0 -0.78094971222E-01 -0.12318527279E-01 -0.32877525463E-02  0.79130531922E-01  0.51100000000E-03 0.  1.
         11    1    4    4    0    0 -0.46580628349E-01  0.29063456674E-02  0.82267155451E-02  0.47393477950E-01  0.51100000000E-03 0. -1.
</event>
<event>
 8    1  0.1092667E+005  0.1043930E+01  0.7957747E-01            NaN
         13   -1    0    0    0    0  0.00000000000E+00  0.00000000000E+00  0.74505805969E-08  0.10566000000E+00  0.10566000000E+00 0.  1.
     999900   -1    0    0    0    0 -0.00000000000E+00 -0.00000000000E+00 -0.74505805969E-08  0.93827000000E+00  0.93827000000E+00 0. -1.
     999902    2    1    2    0    0 -0.34621806854E-02  0.18356786752E-01  0.11823901019E-01  0.10218220161E+01  0.10215828257E+01 0.  0.
     999903    2    3    3    0    0  0.12266367840E+00  0.72129901149E-02 -0.41213627112E-01  0.13117904844E+00  0.20272505129E-01 0.  0.
         14    1    1    2    0    0  0.34621806854E-02 -0.18356786752E-01 -0.11823901019E-01  0.22107983858E-01  0.00000000000E+00 0.  1.
     999901    1    3    3    0    0 -0.12612585908E+00  0.11143796637E-01  0.53037528131E-01  0.89064296771E+00  0.88000000000E+00 0. -1.
        -11    1    4    4    0    0  0.90503231681E-01 -0.30212735642E-02 -0.26457134331E-01  0.94340893131E-01  0.51100000000E-03 0. -1.
         11    1    4    4    0    0  0.32160446718E-01  0.10234263679E-01 -0.14756492781E-01  0.36838155306E-01  0.51100000000E-03 0.  1.
</event>
<event>
 8    1  0.1092667E+005  0.1043930E+01  0.7957747E-01            NaN
         13   -1    0    0    0    0  0.00000000000E+00  0.00000000000E+00  0.74505805969E-08  0.10566000000E+00  0.10566000000E+00 0.  1.
     999900   -1    0    0    0    0 -0.00000000000E+00 -0.00000000000E+00 -0.74505805969E-08  0.93827000000E+00  0.93827000000E+00 0. -1.
     999902    2    1    2    0    0  0.17357942536E-01 -0.15121863603E-01 -0.18310721781E-02  0.10208362400E+01  0.10205749884E+01 0.  0.
     999903    2    3    3    0    0 -0.10164244292E+00  0.70081407809E-01 -0.26004947984E-01  0.12842094119E+00  0.23939316873E-01 0.  0.
         14    1    1    2    0    0 -0.17357942536E-01  0.15121863603E-01  0.18310721781E-02  0.23093760049E-01  0.00000000000E+00 0.  1.
     999901    1    3    3    0    0  0.11900038546E+00 -0.85203271412E-01  0.24173875806E-01  0.89241529876E+00  0.88000000000E+00 0. -1.
        -11    1    4    4    0    0 -0.10324015905E-01  0.17556695851E-01 -0.30410634941E-02  0.20599321877E-01  0.51100000000E-03 0. -1.
         11    1    4    4    0    0 -0.91318427014E-01  0.52524711959E-01 -0.22963884490E-01  0.10782161931E+00  0.51100000000E-03 0.  1.
</event>
<event>
 7    1  0.1546933E+005  0.1043930E+01  0.7957747E-01            NaN
         13   -1    0    0    0    0  0.00000000000E+00  0.00000000000E+00  0.74505805969E-08  0.10566000000E+00  0.10566000000E+00 0. -1.
     999900   -1    0    0    0    0 -0.00000000000E+00 -0.00000000000E+00 -0.74505805969E-08  0.93827000000E+00  0.93827000000E+00 0. -1.
     999903    2    1    2    0    0 -0.58264423241E-01 -0.41814619661E-01  0.92062595106E-01  0.11808979918E+00  0.18068586529E-01 0.  0.
         14    1    1    2    0    0  0.10568263986E-01  0.38464772625E-01 -0.62047904007E-02  0.40369869466E-01  0.00000000000E+00 0.  1.
     999901    1    1    2    0    0  0.47696159255E-01  0.33498470362E-02 -0.85857804706E-01  0.88547033136E+00  0.88000000000E+00 0. -1.
        -11    1    3    3    0    0 -0.40853744242E-01 -0.19284931386E-01  0.51209282901E-01  0.68290473518E-01  0.51100000000E-03 0. -1.
         11    1    3    3    0    0 -0.17410678999E-01 -0.22529688276E-01  0.40853312205E-01  0.49799325660E-01  0.51100000000E-03 0.  1.
</event>
<event>
 8    1  0.1092667E+005  0.1043930E+01  0.7957747E-01            NaN
         13   -1    0    0    0    0  0.00000000000E+00  0.00000000000E+00  0.74505805969E-08  0.10566000000E+00  0.10566000000E+00 0.  1.
     999900   -1    0    0    0    0 -0.00000000000E+00 -0.00000000000E+00 -0.74505805969E-08  0.93827000000E+00  0.93827000000E+00 0.  1.
     999902    2    1    2    0    0 -0.12830273025E-01 -0.12904665342E-01 -0.14893132194E-01  0.10204150754E+01  0.10201440949E+01 0.  0.
     999903    2    3    3    0    0 -0.51349325761E-01 -0.11898650197E+00 -0.23728339396E-01  0.13316362603E+00  0.19364304742E-01 0.  0.
         14    1    1    2    0    0  0.12830273025E-01  0.12904665342E-01  0.14893132194E-01  0.23514924623E-01  0.00000000000E+00 0. -1.
     999901    1    3    3    0    0  0.38519052736E-01  0.10608183663E+00  0.88352072024E-02  0.88725144935E+00  0.88000000000E+00 0.  1.
        -11    1    4    4    0    0 -0.38206563381E-01 -0.64601215181E-01 -0.12334591198E-01  0.76062222879E-01  0.51100000000E-03 0. -1.
         11    1    4    4    0    0 -0.13142762380E-01 -0.54385286793E-01 -0.11393748198E-01  0.57101403148E-01  0.51100000000E-03 0.  1.
</event>
<event>
 8    1  0.1092667E+005  0.1043930E+01  0.7957747E-01            NaN
         13   -1    0    0    0    0  0.00000000000E+00  0.00000000000E+00  0.74505805969E-08  0.10566000000E+00  0.10566000000E+00 0.  1.
     999900   -1    0    0    0    0 -0.00000000000E+00 -0.00000000000E+00 -0.74505805969E-08  0.93827000000E+00  0.93827000000E+00 0.  1.
     999902    2    1    2    0    0  0.16686561671E-01 -0.16911425446E-01  0.50118363335E-02  0.10196492225E+01  0.10193600840E+01 0.  0.
     999903    2    3    3    0    0  0.86598900349E-01 -0.80259537378E-01 -0.56649801616E-01  0.13246103732E+00  0.19893805640E-01 0.  0.
         14    1    1    2    0    0 -0.16686561671E-01  0.16911425446E-01 -0.50118363335E-02  0.24280777468E-01  0.00000000000E+00 0. -1.
     999901    1    3    3    0    0 -0.69912338678E-01  0.63348111932E-01  0.61661637950E-01  0.88718818521E+00  0.88000000000E+00 0.  1.
        -11    1    4    4    0    0  0.51889322713E-01 -0.60679796414E-01 -0.39378857092E-01  0.89025249291E-01  0.51100000000E-03 0. -1.
         11    1    4    4    0    0  0.34709577637E-01 -0.19579740964E-01 -0.17270944524E-01  0.43435788029E-01  0.51100000000E-03 0.  1.
</event>
<event>
 8    1  0.1092667E+005  0.1043930E+01  0.7957747E-01            NaN
         13   -1    0    0    0    0  0.00000000000E+00  0.00000000000E+00  0.74505805969E-08  0.10566000000E+00  0.10566000000E+00 0. -1.
     999900   -1    0    0    0    0 -0.00000000000E+00 -0.00000000000E+00 -0.74505805969E-08  0.93827000000E+00  0.93827000000E+00 0. -1.
     999902    2    1    2    0    0 -0.18176635927E-01 -0.42709671256E-02  0.14647831212E-01  0.10201983710E+01  0.10199223137E+01 0.  0.
     999903    2    3    3    0    0  0.11523223727E+00  0.11904546795E-01 -0.43506513489E-01  0.12809887967E+00  0.33110716038E-01 0.  0.
         14    1    1    2    0    0  0.18176635927E-01  0.42709671256E-02 -0.14647831212E-01  0.23731628959E-01  0.00000000000E+00 0.  1.
     999901    1    3    3    0    0 -0.13340887319E+00 -0.16175513920E-01  0.58154344701E-01  0.89209949137E+00  0.88000000000E+00 0.  1.
        -11    1    4    4    0    0  0.97697250971E-01  0.14166240792E-01 -0.23663116665E-01  0.10151669536E+00  0.51100000000E-03 0. -1.
         11    1    4    4    0    0  0.17534986296E-01 -0.22616939972E-02 -0.19843396824E-01  0.26582184310E-01  0.51100000000E-03 0.  1.
</event>
<event>
 8    1  0.1092667E+005  0.1043930E+01  0.7957747E-01            NaN
         13   -1    0    0    0    0  0.00000000000E+00  0.00000000000E+00  0.74505805969E-08  0.10566000000E+00  0.10566000000E+00 0. -1.
     999900   -1    0    0    0    0 -0.00000000000E+00 -0.00000000000E+00 -0.74505805969E-08  0.93827000000E+00  0.93827000000E+00 0. -1.
     999902    2    1    2    0    0  0.33665735327E-02 -0.80932813088E-02  0.21397663785E-01  0.10208065263E+01  0.10205445944E+01 0.  0.
     999903    2    3    3    0    0 -0.69338180908E-01  0.17867603750E-01 -0.10456852893E+00  0.12849075789E+00  0.21172222988E-01 0.  0.
         14    1    1    2    0    0 -0.33665735327E-02  0.80932813088E-02 -0.21397663785E-01  0.23123473683E-01  0.00000000000E+00 0.  1.
     999901    1    3    3    0    0  0.72704754441E-01 -0.25960885058E-01  0.12596619271E+00  0.89231576842E+00  0.88000000000E+00 0.  1.
        -11    1    4    4    0    0 -0.35815176885E-01 -0.15717459365E-02 -0.47686661020E-01  0.59661344611E-01  0.51100000000E-03 0. -1.
         11    1    4    4    0    0 -0.33523004024E-01  0.19439349686E-01 -0.56881867908E-01  0.68829413282E-01  0.51100000000E-03 0.  1.
</event>
<event>
 8    1  0.1092667E+005  0.1043930E+01  0.7957747E-01            NaN
         13   -1    0    0    0    0  0.00000000000E+00  0.00000000000E+00  0.74505805969E-08  0.10566000000E+00  0.10566000000E+00 0.  1.
     999900   -1    0    0    0    0 -0.00000000000E+00 -0.00000000000E+00 -0.74505805969E-08  0.93827000000E+00  0.93827000000E+00 0.  1.
     999902    2    1    2    0    0  0.18369951500E-02  0.36002140051E-02 -0.23778151099E-01  0.10198107844E+01  0.10195255266E+01 0.  0.
     999903    2    3    3    0    0 -0.18150260418E-01 -0.11949708276E+00 -0.45663330748E-01  0.13074869660E+00  0.20027409879E-01 0.  0.
         14    1    1    2    0    0 -0.18369951500E-02 -0.36002140051E-02  0.23778151099E-01  0.24119215612E-01  0.00000000000E+00 0.  1.
     999901    1    3    3    0    0  0.19987255568E-01  0.12309729676E+00  0.21885179649E-01  0.88906208779E+00  0.88000000000E+00 0. -1.
        -11    1    4    4    0    0  0.42953507099E-02 -0.13909420831E-01 -0.55915624059E-02  0.15602843225E-01  0.51100000000E-03 0. -1.
         11    1    4    4    0    0 -0.22445611128E-01 -0.10558766193E+00 -0.40071768342E-01  0.11514585337E+00  0.51100000000E-03 0.  1.
</event>
<event>
 8    1  0.1092667E+005  0.1043930E+01  0.7957747E-01            NaN
         13   -1    0    0    0    0  0.00000000000E+00  0.00000000000E+00  0.74505805969E-08  0.10566000000E+00  0.10566000000E+00 0. -1.
     999900   -1    0    0    0    0 -0.00000000000E+00 -0.00000000000E+00 -0.74505805969E-08  0.93827000000E+00  0.93827000000E+00 0.  1.
     999902    2    1    2    0    0 -0.75180608335E-02 -0.30712975557E-03  0.21713157719E-01  0.10209500786E+01  0.10206914256E+01 0.  0.
     999903    2    3    3    0    0 -0.10840014332E-01 -0.11942785798E+00  0.52569422546E-01  0.13238219022E+00  0.19518732715E-01 0.  0.
         14    1    1    2    0    0  0.75180608335E-02  0.30712975557E-03 -0.21713157719E-01  0.22979921356E-01  0.00000000000E+00 0.  1.
     999901    1    3    3    0    0  0.33219534988E-02  0.11912072822E+00 -0.30856264827E-01  0.88856788843E+00  0.88000000000E+00 0.  1.
        -11    1    4    4    0    0 -0.96336923050E-02 -0.44300759638E-01  0.28186914867E-01  0.53386595908E-01  0.51100000000E-03 0.  1.
         11    1    4    4    0    0 -0.12063220273E-02 -0.75127098343E-01  0.24382507679E-01  0.78995594307E-01  0.51100000000E-03 0. -1.
</event>
<event>
 8    1  0.1092667E+005  0.1043930E+01  0.7957747E-01            NaN
         13   -1    0    0    0    0  0.00000000000E+00  0.00000000000E+00  0.74505805969E-08  0.10566000000E+00  0.10566000000E+00 0. -1.
     999900   -1    0    0    0    0 -0.00000000000E+00 -0.00000000000E+00 -0.74505805969E-08  0.93827000000E+00  0.93827000000E+00 0.  1.
     999902    2    1    2    0    0 -0.92970423289E-02  0.21810937061E-01 -0.21135204993E-03  0.10202193138E+01  0.10199437492E+01 0.  0.
     999903    2    3    3    0    0  0.30057996364E-01  0.90357473074E-01 -0.89095547618E-01  0.13221714774E+00  0.21803702989E-01 0.  0.
         14    1    1    2    0    0  0.92970423289E-02 -0.21810937061E-01  0.21135204993E-03  0.23710686225E-01  0.00000000000E+00 0. -1.
     999901    1    3    3    0    0 -0.39355038693E-01 -0.68546536013E-01  0.88884195568E-01  0.88800216604E+00  0.88000000000E+00 0. -1.
        -11    1    4    4    0    0  0.99417063378E-03  0.14564043424E-01 -0.52710042524E-02  0.15528822974E-01  0.51100000000E-03 0. -1.
         11    1    4    4    0    0  0.29063825730E-01  0.75793429650E-01 -0.83824543366E-01  0.11668832476E+00  0.51100000000E-03 0.  1.
</event>
<event>
 8    1  0.1092667E+005  0.1043930E+01  0.7957747E-01            NaN
         13   -1    0    0    0    0  0.00000000000E+00  0.00000000000E+00  0.74505805969E-08  0.10566000000E+00  0.10566000000E+00 0. -1.
     999900   -1    0    0    0    0 -0.00000000000E+00 -0.00000000000E+00 -0.74505805969E-08  0.93827000000E+00  0.93827000000E+00 0. -1.
     999902    2    1    2    0    0 -0.20255160390E-02 -0.10382697470E-01  0.21007693226E-01  0.10204092369E+01  0.10201381203E+01 0.  0.
     999903    2    3    3    0    0 -0.35475881509E-01  0.12281944054E+00 -0.16493509595E-02  0.12946867874E+00  0.20402580055E-01 0.  0.
         14    1    1    2    0    0  0.20255160390E-02  0.10382697470E-01 -0.21007693226E-01  0.23520763097E-01  0.00000000000E+00 0.  1.
     999901    1    3    3    0    0  0.33450365470E-01 -0.13320213801E+00  0.22657044186E-01  0.89094055816E+00  0.88000000000E+00 0.  1.
        -11    1    4    4    0    0 -0.24315105892E-01  0.58502275253E-01  0.64686696103E-02  0.63685519483E-01  0.51100000000E-03 0.  1.
         11    1    4    4    0    0 -0.11160775617E-01  0.64317165291E-01 -0.81180205698E-02  0.65783159261E-01  0.51100000000E-03 0. -1.
</event>
<event>
 8    1  0.1092667E+005  0.1043930E+01  0.7957747E-01            NaN
         13   -1    0    0    0    0  0.00000000000E+00  0.00000000000E+00  0.74505805969E-08  0.10566000000E+00  0.10566000000E+00 0.  1.
     999900   -1    0    0    0    0 -0.00000000000E+00 -0.00000000000E+00 -0.74505805969E-08  0.93827000000E+00  0.93827000000E+00 0.  1.
     999902    2    1    2    0    0 -0.16682556668E-01  0.11508489297E-01  0.10936984986E-01  0.10209002222E+01  0.10206404328E+01 0.  0.
     999903    2    3    3    0    0  0.45780167112E-01 -0.16442096726E-01  0.12045599125E+00  0.13147499219E+00  0.20245036381E-01 0.  0.
         14    1    1    2    0    0  0.16682556668E-01 -0.11508489297E-01 -0.10936984986E-01  0.23029777755E-01  0.00000000000E+00 0. -1.
     999901    1    3    3    0    0 -0.62462723780E-01  0.27950586023E-01 -0.10951900626E+00  0.88942523005E+00  0.88000000000E+00 0.  1.
        -11    1    4    4    0    0  0.42931405520E-01 -0.14478709534E-01  0.89437824513E-01  0.10026028219E+00  0.51100000000E-03 0.  1.
         11    1    4    4    0    0  0.28487615920E-02 -0.19633871913E-02  0.31018166738E-01  0.31214710005E-01  0.51100000000E-03 0. -1.
</event>
<event>
 8    1  0.1092667E+005  0.1043930E+01  0.7957747E-01            NaN
         13   -1    0    0    0    0  0.00000000000E+00  0.00000000000E+00  0.74505805969E-08  0.10566000000E+00  0.10566000000E+00 0. -1.
     999900   -1    0    0    0    0 -0.00000000000E+00 -0.00000000000E+00 -0.74505805969E-08  0.93827000000E+00  0.93827000000E+00 0. -1.
     999902    2    1    2    0    0  0.13661818760E-01  0.89221157990E-02  0.17366858537E-01  0.10201002451E+01  0.10198218731E+01 0.  0.
     999903    2    3    3    0    0  0.43352881407E-01  0.12275446111E+00  0.26337922093E-02  0.13214955658E+00  0.22548578519E-01 0.  0.
         14    1    1    2    0    0 -0.13661818760E-01 -0.89221157990E-02 -0.17366858537E-01  0.23829754879E-01  0.00000000000E+00 0.  1.
     999901    1    3    3    0    0 -0.29691062647E-01 -0.11383234531E+00  0.14733066328E-01  0.88795068854E+00  0.88000000000E+00 0. -1.
        -11    1    4    4    0    0  0.32292549045E-01  0.10338434085E+00  0.97025608217E-02  0.10874525950E+00  0.51100000000E-03 0. -1.
         11    1    4    4    0    0  0.11060332362E-01  0.19370120265E-01 -0.70687686124E-02  0.23404297078E-01  0.51100000000E-03 0.  1.
</event>
<event>
 8    1  0.1092667E+005  0.1043930E+01  0.7957747E-01            NaN
         13   -1    0    0    0    0  0.00000000000E+00  0.00000000000E+00  0.74505805969E-08  0.10566000000E+00  0.10566000000E+00 0. -1.
     999900   -1    0    0    0    0 -0.00000000000E+00 -0.00000000000E+00 -0.74505805969E-08  0.93827000000E+00  0.93827000000E+00 0. -1.
     999902    2    1    2    0    0  0.38020632397E-02  0.20085098658E-01 -0.11227321846E-01  0.10206079154E+01  0.10203414122E+01 0.  0.
     999903    2    3    3    0    0 -0.12467989675E+00  0.33791941845E-01 -0.10193571120E-01  0.13117182428E+00  0.20375637570E-01 0.  0.
         14    1    1    2    0    0 -0.38020632397E-02 -0.20085098658E-01  0.11227321846E-01  0.23322084572E-01  0.00000000000E+00 0. -1.
     999901    1    3    3    0    0  0.12848195999E+00 -0.13706843188E-01 -0.10337507257E-02  0.88943609115E+00  0.88000000000E+00 0. -1.
        -11    1    4    4    0    0 -0.85270871703E-01  0.32716463315E-01 -0.62090978585E-02  0.91543992430E-01  0.51100000000E-03 0. -1.
         11    1    4    4    0    0 -0.39409025046E-01  0.10754785306E-02 -0.39844732618E-02  0.39627831852E-01  0.51100000000E-03 0.  1.
</event>
<event>
 8    1  0.1092667E+005  0.1043930E+01  0.7957747E-01            NaN
         13   -1    0    0    0    0  0.00000000000E+00  0.00000000000E+00  0.74505805969E-08  0.10566000000E+00  0.10566000000E+00 0.  1.
     999900   -1    0    0    0    0 -0.00000000000E+00 -0.00000000000E+00 -0.74505805969E-08  0.93827000000E+00  0.93827000000E+00 0. -1.
     999902    2    1    2    0    0  0.20847550542E-01 -0.50855962947E-02 -0.10003820813E-01  0.10202538499E+01  0.10199790969E+01 0.  0.
     999903    2    3    3    0    0 -0.41228725654E-01  0.11618877251E+00 -0.33747943289E-01  0.12945380501E+00  0.20487197933E-01 0.  0.
         14    1    1    2    0    0 -0.20847550542E-01  0.50855962947E-02  0.10003820813E-01  0.23676150112E-01  0.00000000000E+00 0.  1.
     999901    1    3    3    0    0  0.62076276196E-01 -0.12127436881E+00  0.23744122476E-01  0.89080004487E+00  0.88000000000E+00 0. -1.
        -11    1    4    4    0    0 -0.34173131072E-01  0.71422319263E-01 -0.26867096254E-01  0.83612514365E-01  0.51100000000E-03 0. -1.
         11    1    4    4    0    0 -0.70555945819E-02  0.44766453250E-01 -0.68808470350E-02  0.45841290649E-01  0.51100000000E-03 0.  1.
</event>
<event>
 8    1  0.1092667E+005  0.1043930E+01  0.7957747E-01            NaN
         13   -1    0    0    0    0  0.00000000000E+00  0.00000000000E+00  0.74505805969E-08  0.10566000000E+00  0.10566000000E+00 0.  1.
     999900   -1    0    0    0    0 -0.00000000000E+00 -0.00000000000E+00 -0.74505805969E-08  0.93827000000E+00  0.93827000000E+00 0.  1.
     999902    2    1    2    0    0 -0.70709303976E-02  0.21907189895E-01 -0.59682935007E-02  0.10201488404E+01  0.10198716159E+01 0.  0.
     999903    2    3    3    0    0  0.70815859744E-01 -0.10317039756E+00 -0.16919511950E-01  0.12783124885E+00  0.19888221973E-01 0.  0.
         14    1    1    2    0    0  0.70709303976E-02 -0.21907189895E-01  0.59682935007E-02  0.23781159624E-01  0.00000000000E+00 0. -1.
     999901    1    3    3    0    0 -0.77886790141E-01  0.12507758746E+00  0.10951218450E-01  0.89231759153E+00  0.88000000000E+00 0. -1.
        -11    1    4    4    0    0  0.12423081902E-02 -0.41150037062E-02  0.28449856537E-02  0.51799275585E-02  0.51100000000E-03 0.  1.
         11    1    4    4    0    0  0.69573551554E-01 -0.99055393856E-01 -0.19764497604E-01  0.12265132129E+00  0.51100000000E-03 0. -1.
</event>
<event>
 8    1  0.1092667E+005  0.1043930E+01  0.7957747E-01            NaN
         13   -1    0    0    0    0  0.00000000000E+00  0.00000000000E+00  0.74505805969E-08  0.10566000000E+00  0.10566000000E+00 0. -1.
     999900   -1    0    0    0    0 -0.00000000000E+00 -0.00000000000E+00 -0.74505805969E-08  0.93827000000E+00  0.93827000000E+00 0.  1.
     999902    2    1    2    0    0 -0.64542231616E-02 -0.22059446477E-01 -0.12703460813E-01  0.10176687340E+01  0.10173298374E+01 0.  0.
     999903    2    3    3    0    0  0.22419099849E-03 -0.65932847507E-01 -0.11145590900E+00  0.13103379077E+00  0.20006099795E-01 0.  0.
         14    1    1    2    0    0  0.64542231616E-02  0.22059446477E-01  0.12703460813E-01  0.26261266004E-01  0.00000000000E+00 0. -1.
     999901    1    3    3    0    0 -0.66784141601E-02  0.43873401029E-01  0.98752448189E-01  0.88663494323E+00  0.88000000000E+00 0. -1.
        -11    1    4    4    0    0  0.92012706626E-02 -0.19937722807E-01 -0.32828130962E-01  0.39498398398E-01  0.51100000000E-03 0. -1.
         11    1    4    4    0    0 -0.89770796641E-02 -0.45995124699E-01 -0.78627778040E-01  0.91535392368E-01  0.51100000000E-03 0.  1.
</event>
<event>
 8    1  0.1092667E+005  0.1043930E+01  0.7957747E-01            NaN
         13   -1    0    0    0    0  0.00000000000E+00  0.00000000000E+00  0.74505805969E-08  0.10566000000E+00  0.10566000000E+00 0. -1.
     999900   -1    0    0    0    0 -0.00000000000E+00 -0.00000000000E+00 -0.74505805969E-08  0.93827000000E+00  0.93827000000E+00 0.  1.
     999902    2    1    2    0    0  0.65375657513E-02  0.20227123536E-01 -0.77046552819E-02  0.10213194271E+01  0.10210691133E+01 0.  0.
     999903    2    3    3    0    0  0.73322060718E-01  0.59493381370E-01 -0.92726168084E-01  0.13383384110E+00  0.19944115956E-01 0.  0.
         14    1    1    2    0    0 -0.65375657513E-02 -0.20227123536E-01  0.77046552819E-02  0.22610572870E-01  0.00000000000E+00 0. -1.
     999901    1    3    3    0    0 -0.66784494967E-01 -0.39266257834E-01  0.85021512802E-01  0.88748558603E+00  0.88000000000E+00 0. -1.
        -11    1    4    4    0    0  0.48901006481E-01  0.28018820062E-01 -0.49052228424E-01  0.74717768615E-01  0.51100000000E-03 0. -1.
         11    1    4    4    0    0  0.24421054237E-01  0.31474561308E-01 -0.43673939660E-01  0.59116072485E-01  0.51100000000E-03 0.  1.
</event>
<event>
 8    1  0.1092667E+005  0.1043930E+01  0.7957747E-01            NaN
         13   -1    0    0    0    0  0.00000000000E+00  0.00000000000E+00  0.74505805969E-08  0.10566000000E+00  0.10566000000E+00 0.  1.
     999900   -1    0    0    0    0 -0.00000000000E+00 -0.00000000000E+00 -0.74505805969E-08  0.93827000000E+00  0.93827000000E+00 0. -1.
     999902    2    1    2    0    0 -0.64494459797E-02  0.20485639122E-01  0.91256725421E-02  0.10205947335E+01  0.10203279254E+01 0.  0.
     999903    2    3    3    0    0 -0.19231530277E-02  0.11478508200E+00  0.65630381965E-01  0.13374319324E+00  0.20014523123E-01 0.  0.
         14    1    1    2    0    0  0.64494459797E-02 -0.20485639122E-01 -0.91256725421E-02  0.23335266508E-01  0.00000000000E+00 0. -1.
     999901    1    3    3    0    0 -0.45262929521E-02 -0.94299442873E-01 -0.56504709423E-01  0.88685154025E+00  0.88000000000E+00 0.  1.
        -11    1    4    4    0    0 -0.66933413413E-02  0.24637615885E-01  0.20877860274E-01  0.32984225100E-01  0.51100000000E-03 0. -1.
         11    1    4    4    0    0  0.47701883137E-02  0.90147466110E-01  0.44752521691E-01  0.10075896814E+00  0.51100000000E-03 0.  1.
</event>
<event>
 7    1  0.1092667E+005  0.1043930E+01  0.7957747E-01            NaN
         13   -1    0    0    0    0  0.00000000000E+00  0.00000000000E+00  0.74505805969E-08  0.10566000000E+00  0.10566000000E+00 0. -1.
     999900   -1    0    0    0    0 -0.00000000000E+00 -0.00000000000E+00 -0.74505805969E-08  0.93827000000E+00  0.93827000000E+00 0.  1.
     999903    2    1    2    0    0 -0.75655007990E-01 -0.38748133630E-01  0.56079290593E-01  0.10391189654E+00  0.20680844172E-01 0.  0.
         14    1    1    2    0    0 -0.17469053475E-01  0.34286171113E-02 -0.51391427240E-01  0.54387517303E-01  0.00000000000E+00 0.  1.
     999901    1    1    2    0    0  0.93124061465E-01  0.35319516519E-01 -0.46878633526E-02  0.88563058616E+00  0.88000000000E+00 0.  1.
        -11    1    3    3    0    0 -0.21291159264E-02 -0.43774675173E-02 -0.57796028203E-03  0.49285409180E-02  0.51100000000E-03 0.  1.
         11    1    3    3    0    0 -0.73525892064E-01 -0.34370666113E-01  0.56657250875E-01  0.98983355624E-01  0.51100000000E-03 0. -1.
</event>
<event>
 8    1  0.1092667E+005  0.1043930E+01  0.7957747E-01            NaN
         13   -1    0    0    0    0  0.00000000000E+00  0.00000000000E+00  0.74505805969E-08  0.10566000000E+00  0.10566000000E+00 0. -1.
     999900   -1    0    0    0    0 -0.00000000000E+00 -0.00000000000E+00 -0.74505805969E-08  0.93827000000E+00  0.93827000000E+00 0. -1.
     999902    2    1    2    0    0  0.13762773081E-01  0.18092573112E-01  0.59070346727E-02  0.10204428081E+01  0.10201724739E+01 0.  0.
     999903    2    3    3    0    0  0.10392112627E+00  0.54864922675E-01 -0.58110486342E-01  0.13276100850E+00  0.20949857519E-01 0.  0.
         14    1    1    2    0    0 -0.13762773081E-01 -0.18092573112E-01 -0.59070346727E-02  0.23487191900E-01  0.00000000000E+00 0.  1.
     999901    1    3    3    0    0 -0.90158353189E-01 -0.36772349562E-01  0.64017521015E-01  0.88768179960E+00  0.88000000000E+00 0.  1.
        -11    1    4    4    0    0  0.92827535302E-01  0.47024833243E-01 -0.58070845646E-01  0.11916698573E+00  0.51100000000E-03 0. -1.
         11    1    4    4    0    0  0.11093590968E-01  0.78400894317E-02 -0.39640696484E-04  0.13594022776E-01  0.51100000000E-03 0.  1.
</event>
<event>
 8    1  0.1092667E+005  0.1043930E+01  0.7957747E-01            NaN
         13   -1    0    0    0    0  0.00000000000E+00  0.00000000000E+00  0.74505805969E-08  0.10566000000E+00  0.10566000000E+00 0. -1.
     999900   -1    0    0    0    0 -0.00000000000E+00 -0.00000000000E+00 -0.74505805969E-08  0.93827000000E+00  0.93827000000E+00 0. -1.
     999902    2    1    2    0    0  0.18427011223E-01  0.14143801673E-01  0.10170757023E-01  0.10185716450E+01  0.10182559354E+01 0.  0.
     999903    2    3    3    0    0 -0.81889747802E-01  0.99962360150E-02 -0.94144133162E-01  0.12674080302E+00  0.19855926378E-01 0.  0.
         14    1    1    2    0    0 -0.18427011223E-01 -0.14143801673E-01 -0.10170757023E-01  0.25358354970E-01  0.00000000000E+00 0.  1.
     999901    1    3    3    0    0  0.10031675903E+00  0.41475656582E-02  0.10431489018E+00  0.89183084201E+00  0.88000000000E+00 0.  1.
        -11    1    4    4    0    0 -0.38622027670E-01 -0.58149417830E-03 -0.31342855463E-01  0.49745701989E-01  0.51100000000E-03 0. -1.
         11    1    4    4    0    0 -0.43267720132E-01  0.10577730193E-01 -0.62801277699E-01  0.76995101033E-01  0.51100000000E-03 0.  1.
</event>
<event>
 8    1  0.1092667E+005  0.1043930E+01  0.7957747E-01            NaN
         13   -1    0    0    0    0  0.00000000000E+00  0.00000000000E+00  0.74505805969E-08  0.10566000000E+00  0.10566000000E+00 0. -1.
     999900   -1    0    0    0    0 -0.00000000000E+00 -0.00000000000E+00 -0.74505805969E-08  0.93827000000E+00  0.93827000000E+00 0. -1.
     999902    2    1    2    0    0  0.13624774772E-01  0.18282495783E-01 -0.38345447757E-02  0.10208088436E+01  0.10205469648E+01 0.  0.
     999903    2    3    3    0    0 -0.49887659652E-01 -0.61114137300E-01  0.99615619911E-01  0.12893464213E+00  0.21843851488E-01 0.  0.
         14    1    1    2    0    0 -0.13624774772E-01 -0.18282495783E-01  0.38345447757E-02  0.23121156400E-01  0.00000000000E+00 0. -1.
     999901    1    3    3    0    0  0.63512434424E-01  0.79396633083E-01 -0.10345016469E+00  0.89187420147E+00  0.88000000000E+00 0. -1.
        -11    1    4    4    0    0 -0.25260130346E-01 -0.47278890819E-01  0.65411684317E-01  0.84571373811E-01  0.51100000000E-03 0.  1.
         11    1    4    4    0    0 -0.24627529306E-01 -0.13835246481E-01  0.34203935594E-01  0.44363268320E-01  0.51100000000E-03 0. -1.
</event>
<event>
 8    1  0.1092667E+005  0.1043930E+01  0.7957747E-01            NaN
         13   -1    0    0    0    0  0.00000000000E+00  0.00000000000E+00  0.74505805969E-08  0.10566000000E+00  0.10566000000E+00 0. -1.
     999900   -1    0    0    0    0 -0.00000000000E+00 -0.00000000000E+00 -0.74505805969E-08  0.93827000000E+00  0.93827000000E+00 0.  1.
     999902    2    1    2    0    0 -0.75559373539E-02 -0.20092387825E-01 -0.85242784508E-02  0.10208332565E+01  0.10205719367E+01 0.  0.
     999903    2    3    3    0    0  0.10462351846E+00  0.24214038262E-01  0.69485256596E-01  0.12918715110E+00  0.18130605604E-01 0.  0.
         14    1    1    2    0    0  0.75559373539E-02  0.20092387825E-01  0.85242784508E-02  0.23096743513E-01  0.00000000000E+00 0. -1.
     999901    1    3    3    0    0 -0.11217945582E+00 -0.44306426087E-01 -0.78009535047E-01  0.89164610539E+00  0.88000000000E+00 0.  1.
        -11    1    4    4    0    0  0.30412689923E-01  0.15386796535E-01  0.19408762655E-01  0.39225583549E-01  0.51100000000E-03 0.  1.
         11    1    4    4    0    0  0.74210828540E-01  0.88272417269E-02  0.50076493941E-01  0.89961567547E-01  0.51100000000E-03 0. -1.
</event>
<event>
 8    1  0.1092667E+005  0.1043930E+01  0.7957747E-01            NaN
         13   -1    0    0    0    0  0.00000000000E+00  0.00000000000E+00  0.74505805969E-08  0.10566000000E+00  0.10566000000E+00 0. -1.
     999900   -1    0    0    0    0 -0.00000000000E+00 -0.00000000000E+00 -0.74505805969E-08  0.93827000000E+00  0.93827000000E+00 0. -1.
     999902    2    1    2    0    0 -0.12708440702E-02  0.55889128079E-02  0.22715776880E-01  0.10205022918E+01  0.10202333410E+01 0.  0.
     999903    2    3    3    0    0 -0.26069965013E-01 -0.12591142784E+00  0.74003853675E-02  0.13025406958E+00  0.19442895945E-01 0.  0.
         14    1    1    2    0    0  0.12708440702E-02 -0.55889128079E-02 -0.22715776880E-01  0.23427708174E-01  0.00000000000E+00 0.  1.
     999901    1    3    3    0    0  0.24799120942E-01  0.13150034065E+00  0.15315391513E-01  0.89024822224E+00  0.88000000000E+00 0. -1.
        -11    1    4    4    0    0 -0.83255966068E-03 -0.37139157221E-01  0.77991712056E-02  0.37961801158E-01  0.51100000000E-03 0.  1.
         11    1    4    4    0    0 -0.25237405352E-01 -0.88772270619E-01 -0.39878583819E-03  0.92292268425E-01  0.51100000000E-03 0. -1.
</event>
<event>
 8    1  0.1092667E+005  0.1043930E+01  0.7957747E-01            NaN
         13   -1    0    0    0    0  0.00000000000E+00  0.00000000000E+00  0.74505805969E-08  0.10566000000E+00  0.10566000000E+00 0.  1.
     999900   -1    0    0    0    0 -0.00000000000E+00 -0.00000000000E+00 -0.74505805969E-08  0.93827000000E+00  0.93827000000E+00 0. -1.
     999902    2    1    2    0    0  0.19480620068E-01 -0.13992107568E-01 -0.13089554896E-02  0.10199094464E+01  0.10196265453E+01 0.  0.
     999903    2    3    3    0    0  0.66687261507E-01  0.96251757932E-01 -0.52991945824E-01  0.13027283046E+00  0.21243170213E-01 0.  0.
         14    1    1    2    0    0 -0.19480620068E-01  0.13992107568E-01  0.13089554896E-02  0.24020553634E-01  0.00000000000E+00 0. -1.
     999901    1    3    3    0    0 -0.47206641439E-01 -0.11024386550E+00  0.51682990334E-01  0.88963661591E+00  0.88000000000E+00 0.  1.
        -11    1    4    4    0    0  0.94264208837E-02  0.29322295138E-01 -0.11189321376E-01  0.32773715638E-01  0.51100000000E-03 0.  1.
         11    1    4    4    0    0  0.57260840623E-01  0.66929462794E-01 -0.41802624448E-01  0.97499114819E-01  0.51100000000E-03 0. -1.
</event>
<event>
 8    1  0.1092667E+005  0.1043930E+01  0.7957747E-01            NaN
         13   -1    0    0    0    0  0.00000000000E+00  0.00000000000E+00  0.74505805969E-08  0.10566000000E+00  0.10566000000E+00 0. -1.
     999900   -1    0    0    0    0 -0.00000000000E+00 -0.00000000000E+00 -0.74505805969E-08  0.93827000000E+00  0.93827000000E+00 0.  1.
     999902    2    1    2    0    0 -0.15793563411E-01  0.17424733024E-01 -0.23605597600E-02  0.10202946407E+01  0.10200208447E+01 0.  0.
     999903    2    3    3    0    0 -0.12628341554E+00  0.29556427681E-01 -0.20429655812E-01  0.13311840249E+00  0.21955746138E-01 0.  0.
         14    1    1    2    0    0  0.15793563411E-01 -0.17424733024E-01  0.23605597600E-02  0.23635359285E-01  0.00000000000E+00 0. -1.
     999901    1    3    3    0    0  0.11048985212E+00 -0.12131694656E-01  0.18069096052E-01  0.88717623822E+00  0.88000000000E+00 0. -1.
        -11    1    4    4    0    0 -0.83928271176E-01  0.26379894013E-01 -0.57096577671E-02  0.88163001444E-01  0.51100000000E-03 0.  1.
         11    1    4    4    0    0 -0.42355144359E-01  0.31765336676E-02 -0.14719998044E-01  0.44955401047E-01  0.51100000000E-03 0. -1.
</event>
<event>
 8    1  0.1092667E+005  0.1043930E+01  0.7957747E-01            NaN
         13   -1    0    0    0    0  0.00000000000E+00  0.00000000000E+00  0.74505805969E-08  0.10566000000E+00  0.10566000000E+00 0. -1.
     999900   -1    0    0    0    0 -0.00000000000E+00 -0.00000000000E+00 -0.74505805969E-08  0.93827000000E+00  0.93827000000E+00 0. -1.
     999902    2    1    2    0    0 -0.21312131110E-01  0.36316147978E-02  0.94366483818E-02  0.10203408947E+01  0.10200681817E+01 0.  0.
     999903    2    3    3    0    0 -0.60420388675E-01  0.58656491575E-01  0.10101530672E+00  0.13301691575E+00  0.19954957094E-01 0.  0.
         14    1    1    2    0    0  0.21312131110E-01 -0.36316147978E-02 -0.94366483818E-02  0.23589105349E-01  0.00000000000E+00 0.  1.
     999901    1    3    3    0    0  0.39108257566E-01 -0.55024876778E-01 -0.91578658334E-01  0.88732397890E+00  0.88000000000E+00 0. -1.
        -11    1    4    4    0    0 -0.72648798003E-02  0.10548289477E-01  0.27442218065E-01  0.30288303728E-01  0.51100000000E-03 0. -1.
         11    1    4    4    0    0 -0.53155508875E-01  0.48108202099E-01  0.73573088650E-01  0.10272861202E+00  0.51100000000E-03 0.  1.
</event>
<event>
 8    1  0.1092667E+005  0.1043930E+01  0.7957747E-01            NaN
         13   -1    0    0    0    0  0.00000000000E+00  0.00000000000E+00  0.74505805969E-08  0.10566000000E+00  0.10566000000E+00 0.  1.
     999900   -1    0    0    0    0 -0.00000000000E+00 -0.00000000000E+00 -0.74505805969E-08  0.93827000000E+00  0.93827000000E+00 0. -1.
     999902    2    1    2    0    0  0.22516963557E-03 -0.17034268972E-01 -0.17992642833E-01  0.10191519408E+01  0.10188506889E+01 0.  0.
     999903    2    3    3    0    0  0.43630990670E-01 -0.47606477813E-01  0.10913616701E+00  0.12843287201E+00  0.20353367911E-01 0.  0.
         14    1    1    2    0    0 -0.22516963557E-03  0.17034268972E-01  0.17992642833E-01  0.24778059183E-01  0.00000000000E+00 0.  1.
     999901    1    3    3    0    0 -0.43405821034E-01  0.30572208841E-01 -0.12712880984E+00  0.89071906881E+00  0.88000000000E+00 0. -1.
        -11    1    4    4    0    0  0.21083032703E-01 -0.26310105464E-01  0.37856036231E-01  0.50695724845E-01  0.51100000000E-03 0. -1.
         11    1    4    4    0    0  0.22547957967E-01 -0.21296372349E-01  0.71280130779E-01  0.77737147160E-01  0.51100000000E-03 0.  1.
</event>
<event>
 8    1  0.1092667E+005  0.1043930E+01  0.7957747E-01            NaN
         13   -1    0    0    0    0  0.00000000000E+00  0.00000000000E+00  0.74505805969E-08  0.10566000000E+00  0.10566000000E+00 0.  1.
     999900   -1    0    0    0    0 -0.00000000000E+00 -0.00000000000E+00 -0.74505805969E-08  0.93827000000E+00  0.93827000000E+00 0. -1.
     999902    2    1    2    0    0 -0.44334141832E-02 -0.39029322519E-03  0.23043244970E-01  0.10204609006E+01  0.10201909875E+01 0.  0.
     999903    2    3    3    0    0  0.16310100805E-01 -0.23996661440E-01 -0.12289640564E+00  0.12788825048E+00  0.20248924533E-01 0.  0.
         14    1    1    2    0    0  0.44334141832E-02  0.39029322519E-03 -0.23043244970E-01  0.23469099448E-01  0.00000000000E+00 0. -1.
     999901    1    3    3    0    0 -0.20743514988E-01  0.23606368215E-01  0.14593965061E+00  0.89257265007E+00  0.88000000000E+00 0.  1.
        -11    1    4    4    0    0  0.93353053649E-02 -0.97620685016E-02 -0.22508611099E-01  0.26255372827E-01  0.51100000000E-03 0.  1.
         11    1    4    4    0    0  0.69747954401E-02 -0.14234592938E-01 -0.10038779454E+00  0.10163287765E+00  0.51100000000E-03 0. -1.
</event>
<event>
 8    1  0.1092667E+005  0.1043930E+01  0.7957747E-01            NaN
         13   -1    0    0    0    0  0.00000000000E+00  0.00000000000E+00  0.74505805969E-08  0.10566000000E+00  0.10566000000E+00 0.  1.
     999900   -1    0    0    0    0 -0.00000000000E+00 -0.00000000000E+00 -0.74505805969E-08  0.93827000000E+00  0.93827000000E+00 0. -1.
     999902    2    1    2    0    0  0.58041633725E-02  0.31352280312E-02  0.22308418505E-01  0.10206666489E+01  0.10204015017E+01 0.  0.
     999903    2    3    3    0    0  0.55744650027E-01 -0.18528725980E-02 -0.11431750744E+00  0.12871060909E+00  0.19673058749E-01 0.  0.
         14    1    1    2    0    0 -0.58041633725E-02 -0.31352280312E-02 -0.22308418505E-01  0.23263351079E-01  0.00000000000E+00 0. -1.
     999901    1    3    3    0    0 -0.49940486655E-01  0.49881006292E-02  0.13662592595E+00  0.89195603983E+00  0.88000000000E+00 0.  1.
        -11    1    4    4    0    0  0.10938197966E-01 -0.84609265885E-02 -0.25703007710E-01  0.29191388795E-01  0.51100000000E-03 0.  1.
         11    1    4    4    0    0  0.44806452061E-01  0.66080539905E-02 -0.88614499731E-01  0.99519220292E-01  0.51100000000E-03 0. -1.
</event>
<event>
 8    1  0.1092667E+005  0.1043930E+01  0.7957747E-01            NaN
         13   -1    0    0    0    0  0.00000000000E+00  0.00000000000E+00  0.74505805969E-08  0.10566000000E+00  0.10566000000E+00 0. -1.
     999900   -1    0    0    0    0 -0.00000000000E+00 -0.00000000000E+00 -0.74505805969E-08  0.93827000000E+00  0.93827000000E+00 0.  1.
     999902    2    1    2    0    0  0.14892052242E-01 -0.12069175194E-02 -0.16286984623E-01  0.10218280603E+01  0.10215890020E+01 0.  0.
     999903    2    3    3    0    0 -0.10402992854E+00 -0.76213403639E-01  0.36297576721E-02  0.13044425571E+00  0.19282629007E-01 0.  0.
         14    1    1    2    0    0 -0.14892052242E-01  0.12069175194E-02  0.16286984623E-01  0.22101939689E-01  0.00000000000E+00 0. -1.
     999901    1    3    3    0    0  0.11892198078E+00  0.75006486120E-01 -0.19916742295E-01  0.89138380460E+00  0.88000000000E+00 0. -1.
        -11    1    4    4    0    0 -0.60505083952E-01 -0.32409357060E-01  0.18120357571E-02  0.68664227976E-01  0.51100000000E-03 0.  1.
         11    1    4    4    0    0 -0.43524844591E-01 -0.43804046580E-01  0.18177219149E-02  0.61780027738E-01  0.51100000000E-03 0. -1.
</event>
<event>
 8    1  0.1092667E+005  0.1043930E+01  0.7957747E-01            NaN
         13   -1    0    0    0    0  0.00000000000E+00  0.00000000000E+00  0.74505805969E-08  0.10566000000E+00  0.10566000000E+00 0.  1.
     999900   -1    0    0    0    0 -0.00000000000E+00 -0.00000000000E+00 -0.74505805969E-08  0.93827000000E+00  0.93827000000E+00 0. -1.
     999902    2    1    2    0    0  0.11871262094E-01  0.20085980814E-01 -0.55712973107E-02  0.10199422356E+01  0.10196601155E+01 0.  0.
     999903    2    3    3    0    0  0.83697877486E-01  0.16292313009E-01  0.95594714594E-01  0.13123079952E+00  0.28502616108E-01 0.  0.
         14    1    1    2    0    0 -0.11871262094E-01 -0.20085980814E-01  0.55712973107E-02  0.23987764437E-01  0.00000000000E+00 0.  1.
     999901    1    3    3    0    0 -0.71826615392E-01  0.37936678046E-02 -0.10116601190E+00  0.88871143605E+00  0.88000000000E+00 0. -1.
        -11    1    4    4    0    0  0.29761993857E-01  0.19861544100E-01  0.35631626721E-01  0.50498823315E-01  0.51100000000E-03 0. -1.
         11    1    4    4    0    0  0.53935883628E-01 -0.35692310912E-02  0.59963087872E-01  0.80731976202E-01  0.51100000000E-03 0.  1.
</event>
<event>
 8    1  0.1092667E+005  0.1043930E+01  0.7957747E-01            NaN
         13   -1    0    0    0    0  0.00000000000E+00  0.00000000000E+00  0.74505805969E-08  0.10566000000E+00  0.10566000000E+00 0.  1.
     999900   -1    0    0    0    0 -0.00000000000E+00 -0.00000000000E+00 -0.74505805969E-08  0.93827000000E+00  0.93827000000E+00 0.  1.
     999902    2    1    2    0    0 -0.38052153370E-02  0.23099980566E-01  0.59267333861E-02  0.10197801566E+01  0.10194941652E+01 0.  0.
     999903    2    3    3    0    0 -0.12739180183E+00  0.96097172055E-02 -0.18559924500E-01  0.13070466604E+00  0.20450454485E-01 0.  0.
         14    1    1    2    0    0  0.38052153370E-02 -0.23099980566E-01 -0.59267333861E-02  0.24149843365E-01  0.00000000000E+00 0.  1.
     999901    1    3    3    0    0  0.12358658649E+00  0.13490263360E-01  0.24486657886E-01  0.88907549060E+00  0.88000000000E+00 0. -1.
        -11    1    4    4    0    0 -0.63041017135E-01  0.68067430759E-02 -0.19316406353E-01  0.66286395800E-01  0.51100000000E-03 0.  1.
         11    1    4    4    0    0 -0.64350784694E-01  0.28029741296E-02  0.75648185296E-03  0.64418270238E-01  0.51100000000E-03 0. -1.
</event>
<event>
 8    1  0.1092667E+005  0.1043930E+01  0.7957747E-01            NaN
         13   -1    0    0    0    0  0.00000000000E+00  0.00000000000E+00  0.74505805969E-08  0.10566000000E+00  0.10566000000E+00 0.  1.
     999900   -1    0    0    0    0 -0.00000000000E+00 -0.00000000000E+00 -0.74505805969E-08  0.93827000000E+00  0.93827000000E+00 0.  1.
     999902    2    1    2    0    0 -0.21535531413E-01  0.87803031758E-02 -0.25921331447E-02  0.10205293164E+01  0.10202609929E+01 0.  0.
     999903    2    3    3    0    0  0.36986670496E-01  0.41713438827E-01  0.11586752532E+00  0.13005633525E+00  0.19527983565E-01 0.  0.
         14    1    1    2    0    0  0.21535531413E-01 -0.87803031758E-02  0.25921331447E-02  0.23400683566E-01  0.00000000000E+00 0.  1.
     999901    1    3    3    0    0 -0.58522201909E-01 -0.32933135651E-01 -0.11845965846E+00  0.89047298119E+00  0.88000000000E+00 0.  1.
        -11    1    4    4    0    0  0.14100117173E-01  0.35219867730E-02  0.28949645442E-01  0.32396925585E-01  0.51100000000E-03 0.  1.
         11    1    4    4    0    0  0.22886553323E-01  0.38191452054E-01  0.86917879874E-01  0.97659409663E-01  0.51100000000E-03 0. -1.
</event>
<event>
 8    1  0.1092667E+005  0.1043930E+01  0.7957747E-01            NaN
         13   -1    0    0    0    0  0.00000000000E+00  0.00000000000E+00  0.74505805969E-08  0.10566000000E+00  0.10566000000E+00 0.  1.
     999900   -1    0    0    0    0 -0.00000000000E+00 -0.00000000000E+00 -0.74505805969E-08  0.93827000000E+00  0.93827000000E+00 0. -1.
     999902    2    1    2    0    0 -0.18152932852E-01  0.14815243445E-01  0.54412809200E-02  0.10198753134E+01  0.10195915981E+01 0.  0.
     999903    2    3    3    0    0  0.30750872484E-01  0.84958458434E-01 -0.92228794435E-01  0.13035235338E+00  0.17945185706E-01 0.  0.
         14    1    1    2    0    0  0.18152932852E-01 -0.14815243445E-01 -0.54412809200E-02  0.24054686601E-01  0.00000000000E+00 0.  1.
     999901    1    3    3    0    0 -0.48903805335E-01 -0.70143214989E-01  0.97670075355E-01  0.88952296002E+00  0.88000000000E+00 0.  1.
        -11    1    4    4    0    0  0.76504839630E-02  0.38078595989E-01 -0.48989023150E-01  0.62519556041E-01  0.51100000000E-03 0.  1.
         11    1    4    4    0    0  0.23100388521E-01  0.46879862445E-01 -0.43239771286E-01  0.67832797337E-01  0.51100000000E-03 0. -1.
</event>
<event>
 8    1  0.1092667E+005  0.1043930E+01  0.7957747E-01            NaN
         13   -1    0    0    0    0  0.00000000000E+00  0.00000000000E+00  0.74505805969E-08  0.10566000000E+00  0.10566000000E+00 0.  1.
     999900   -1    0    0    0    0 -0.00000000000E+00 -0.00000000000E+00 -0.74505805969E-08  0.93827000000E+00  0.93827000000E+00 0.  1.
     999902    2    1    2    0    0 -0.22450635284E-02  0.23413542994E-01 -0.49473226629E-02  0.10198943950E+01  0.10196111350E+01 0.  0.
     999903    2    3    3    0    0  0.40017919291E-01  0.12460483333E+00  0.16789896827E-01  0.13282148726E+00  0.15226571765E-01 0.  0.
         14    1    1    2    0    0  0.22450635284E-02 -0.23413542994E-01  0.49473226629E-02  0.24035604991E-01  0.00000000000E+00 0.  1.
     999901    1    3    3    0    0 -0.42262982819E-01 -0.10119129034E+00 -0.21737219490E-01  0.88707290775E+00  0.88000000000E+00 0. -1.
        -11    1    4    4    0    0  0.26431142802E-01  0.58217051543E-01  0.10017096743E-01  0.64718109894E-01  0.51100000000E-03 0.  1.
         11    1    4    4    0    0  0.13586776489E-01  0.66387781789E-01  0.67728000840E-02  0.68103377362E-01  0.51100000000E-03 0. -1.
</event>
<event>
 8    1  0.1092667E+005  0.1043930E+01  0.7957747E-01            NaN
         13   -1    0    0    0    0  0.00000000000E+00  0.00000000000E+00  0.74505805969E-08  0.10566000000E+00  0.10566000000E+00 0. -1.
     999900   -1    0    0    0    0 -0.00000000000E+00 -0.00000000000E+00 -0.74505805969E-08  0.93827000000E+00  0.93827000000E+00 0. -1.
     999902    2    1    2    0    0  0.31998438955E-02 -0.10847189957E-01 -0.21010732246E-01  0.10200689145E+01  0.10197898014E+01 0.  0.
     999903    2    3    3    0    0  0.36175664206E-01 -0.11848659870E+00  0.37373396523E-01  0.13097816913E+00  0.20267147506E-01 0.  0.
         14    1    1    2    0    0 -0.31998438955E-02  0.10847189957E-01  0.21010732246E-01  0.23861085483E-01  0.00000000000E+00 0. -1.
     999901    1    3    3    0    0 -0.32975820311E-01  0.10763940875E+00 -0.58384128770E-01  0.88909074539E+00  0.88000000000E+00 0. -1.
        -11    1    4    4    0    0  0.30107800192E-01 -0.68700120622E-01  0.17478613067E-01  0.77019148539E-01  0.51100000000E-03 0.  1.
         11    1    4    4    0    0  0.60678640137E-02 -0.49786478081E-01  0.19894783456E-01  0.53959020591E-01  0.51100000000E-03 0. -1.
</event>
<event>
 8    1  0.1092667E+005  0.1043930E+01  0.7957747E-01            NaN
         13   -1    0    0    0    0  0.00000000000E+00  0.00000000000E+00  0.74505805969E-08  0.10566000000E+00  0.10566000000E+00 0.  1.
     999900   -1    0    0    0    0 -0.00000000000E+00 -0.00000000000E+00 -0.74505805969E-08  0.93827000000E+00  0.93827000000E+00 0.  1.
     999902    2    1    2    0    0  0.13228723789E-01 -0.20924451047E-01  0.19406212602E-03  0.10191737999E+01  0.10188730858E+01 0.  0.
     999903    2    3    3    0    0 -0.39057097088E-01 -0.41127735084E-02  0.12132356988E+00  0.12918009359E+00  0.20632892025E-01 0.  0.
         14    1    1    2    0    0 -0.13228723789E-01  0.20924451047E-01 -0.19406212602E-03  0.24756200128E-01  0.00000000000E+00 0. -1.
     999901    1    3    3    0    0  0.52285820877E-01 -0.16811677538E-01 -0.12112950775E+00  0.88999370628E+00  0.88000000000E+00 0.  1.
        -11    1    4    4    0    0 -0.76395796261E-02  0.70498666296E-02  0.38862239112E-01  0.40231810128E-01  0.51100000000E-03 0.  1.
         11    1    4    4    0    0 -0.31417517462E-01 -0.11162640138E-01  0.82461330769E-01  0.88948283466E-01  0.51100000000E-03 0. -1.
</event>
<event>
 8    1  0.1092667E+005  0.1043930E+01  0.7957747E-01            NaN
         13   -1    0    0    0    0  0.00000000000E+00  0.00000000000E+00  0.74505805969E-08  0.10566000000E+00  0.10566000000E+00 0. -1.
     999900   -1    0    0    0    0 -0.00000000000E+00 -0.00000000000E+00 -0.74505805969E-08  0.93827000000E+00  0.93827000000E+00 0.  1.
     999902    2    1    2    0    0 -0.16163206022E-01  0.19339552750E-01  0.65726430317E-03  0.10187169176E+01  0.10184048599E+01 0.  0.
     999903    2    3    3    0    0 -0.12246381654E+00  0.41945371461E-01  0.17289611592E-01  0.13187562522E+00  0.18315275330E-01 0.  0.
         14    1    1    2    0    0  0.16163206022E-01 -0.19339552750E-01 -0.65726430317E-03  0.25213082434E-01  0.00000000000E+00 0.  1.
     999901    1    3    3    0    0  0.10630061051E+00 -0.22605818711E-01 -0.16632347289E-01  0.88684129235E+00  0.88000000000E+00 0. -1.
        -11    1    4    4    0    0 -0.83276006365E-01  0.20744873886E-01  0.67458626346E-02  0.86087227928E-01  0.51100000000E-03 0. -1.
         11    1    4    4    0    0 -0.39187810170E-01  0.21200497574E-01  0.10543748957E-01  0.45788397290E-01  0.51100000000E-03 0.  1.
</event>
<event>
 8    1  0.1092667E+005  0.1043930E+01  0.7957747E-01            NaN
         13   -1    0    0    0    0  0.00000000000E+00  0.00000000000E+00  0.74505805969E-08  0.10566000000E+00  0.10566000000E+00 0. -1.
     999900   -1    0    0    0    0 -0.00000000000E+00 -0.00000000000E+00 -0.74505805969E-08  0.93827000000E+00  0.93827000000E+00 0.  1.
     999902    2    1    2    0    0 -0.21636899594E-01 -0.37550503706E-02 -0.13513467524E-01  0.10181449339E+01  0.10178183713E+01 0.  0.
     999903    2    3    3    0    0 -0.58865400461E-01 -0.26451071617E-01  0.10944603062E+00  0.12852697726E+00  0.19389577217E-01 0.  0.
         14    1    1    2    0    0  0.21636899594E-01  0.37550503706E-02  0.13513467524E-01  0.25785066063E-01  0.00000000000E+00 0.  1.
     999901    1    3    3    0    0  0.37228500866E-01  0.22696021246E-01 -0.12295949814E+00  0.88961795668E+00  0.88000000000E+00 0.  1.
        -11    1    4    4    0    0 -0.46124660720E-01 -0.26923679298E-01  0.77449198797E-01  0.94079797772E-01  0.51100000000E-03 0. -1.
         11    1    4    4    0    0 -0.12740739741E-01  0.47260768128E-03  0.31996831822E-01  0.34447179490E-01  0.51100000000E-03 0.  1.
</event>
<event>
 8    1  0.1092667E+005  0.1043930E+01  0.7957747E-01            NaN
         13   -1    0    0    0    0  0.00000000000E+00  0.00000000000E+00  0.74505805969E-08  0.10566000000E+00  0.10566000000E+00 0. -1.
     999900   -1    0    0    0    0 -0.00000000000E+00 -0.00000000000E+00 -0.74505805969E-08  0.93827000000E+00  0.93827000000E+00 0.  1.
     999902    2    1    2    0    0  0.41206897997E-03  0.17358363649E-01  0.15924124830E-01  0.10203702814E+01  0.10200982555E+01 0.  0.
     999903    2    3    3    0    0 -0.19151682465E-02 -0.30090867809E-01  0.12703476047E+00  0.13211220011E+00  0.20166181002E-01 0.  0.
         14    1    1    2    0    0 -0.41206897997E-03 -0.17358363649E-01 -0.15924124830E-01  0.23559718611E-01  0.00000000000E+00 0.  1.
     999901    1    3    3    0    0  0.23272372265E-02  0.47449231458E-01 -0.11111063564E+00  0.88825808128E+00  0.88000000000E+00 0.  1.
        -11    1    4    4    0    0 -0.27858973370E-02 -0.32716730226E-01  0.12202522320E+00  0.12636677522E+00  0.51100000000E-03 0. -1.
         11    1    4    4    0    0  0.87072909048E-03  0.26258624170E-02  0.50095372682E-02  0.57454248949E-02  0.51100000000E-03 0.  1.
</event>
<event>
 8    1  0.1092667E+005  0.1043930E+01  0.7957747E-01            NaN
         13   -1    0    0    0    0  0.00000000000E+00  0.00000000000E+00  0.74505805969E-08  0.10566000000E+00  0.10566000000E+00 0. -1.
     999900   -1    0    0    0    0 -0.00000000000E+00 -0.00000000000E+00 -0.74505805969E-08  0.93827000000E+00  0.93827000000E+00 0. -1.
     999902    2    1    2    0    0  0.34344940791E-02 -0.25193821008E-01 -0.24209592210E-01  0.10088211874E+01  0.10082100770E+01 0.  0.
     999903    2    3    3    0    0 -0.74817315543E-01  0.71399254127E-01 -0.56609897492E-01  0.11949371811E+00  0.19457234592E-01 0.  0.
         14    1    1    2    0    0 -0.34344940791E-02  0.25193821008E-01  0.24209592210E-01  0.35108812591E-01  0.00000000000E+00 0. -1.
     999901    1    3    3    0    0  0.78251809622E-01 -0.96593075135E-01  0.32400305282E-01  0.88932746930E+00  0.88000000000E+00 0.  1.
        -11    1    4    4    0    0 -0.50787207899E-01  0.46590407071E-01 -0.27087242627E-01  0.74053942173E-01  0.51100000000E-03 0. -1.
         11    1    4    4    0    0 -0.24030107644E-01  0.24808847056E-01 -0.29522654865E-01  0.45439775934E-01  0.51100000000E-03 0.  1.
</event>
<event>
 8    1  0.1092667E+005  0.1043930E+01  0.7957747E-01            NaN
         13   -1    0    0    0    0  0.00000000000E+00  0.00000000000E+00  0.74505805969E-08  0.10566000000E+00  0.10566000000E+00 0. -1.
     999900   -1    0    0    0    0 -0.00000000000E+00 -0.00000000000E+00 -0.74505805969E-08  0.93827000000E+00  0.93827000000E+00 0.  1.
     999902    2    1    2    0    0 -0.21184855201E-01 -0.96767343370E-02 -0.11173472121E-01  0.10180981639E+01  0.10177704002E+01 0.  0.
     999903    2    3    3    0    0 -0.87472939191E-01 -0.95942480658E-01 -0.62445128697E-03  0.13133597993E+00  0.19805933443E-01 0.  0.
         14    1    1    2    0    0  0.21184855201E-01  0.96767343370E-02  0.11173472121E-01  0.25831836105E-01  0.00000000000E+00 0. -1.
     999901    1    3    3    0    0  0.66288083990E-01  0.86265746321E-01 -0.10549020834E-01  0.88676218396E+00  0.88000000000E+00 0. -1.
        -11    1    4    4    0    0 -0.30688020418E-01 -0.20915418691E-01 -0.24668562902E-02  0.37223055183E-01  0.51100000000E-03 0. -1.
         11    1    4    4    0    0 -0.56784918773E-01 -0.75027061967E-01  0.18424050033E-02  0.94112924748E-01  0.51100000000E-03 0.  1.
</event>
<event>
 8    1  0.1092667E+005  0.1043930E+01  0.7957747E-01            NaN
         13   -1    0    0    0    0  0.00000000000E+00  0.00000000000E+00  0.74505805969E-08  0.10566000000E+00  0.10566000000E+00 0.  1.
     999900   -1    0    0    0    0 -0.00000000000E+00 -0.00000000000E+00 -0.74505805969E-08  0.93827000000E+00  0.93827000000E+00 0.  1.
     999902    2    1    2    0    0  0.81324576526E-03 -0.15098468980E-01 -0.15936523248E-01  0.10219618889E+01  0.10217257481E+01 0.  0.
     999903    2    3    3    0    0 -0.25192542519E-01 -0.12086687859E+00 -0.49669950571E-01  0.13460558972E+00  0.20201342908E-01 0.  0.
         14    1    1    2    0    0 -0.81324576526E-03  0.15098468980E-01  0.15936523248E-01  0.21968111148E-01  0.00000000000E+00 0. -1.
     999901    1    3    3    0    0  0.26005788284E-01  0.10576840961E+00  0.33733427323E-01  0.88735629913E+00  0.88000000000E+00 0. -1.
        -11    1    4    4    0    0 -0.15316977023E-02 -0.56474142905E-01 -0.21839638378E-01  0.60571493627E-01  0.51100000000E-03 0.  1.
         11    1    4    4    0    0 -0.23660844817E-01 -0.64392735682E-01 -0.27830312193E-01  0.74034096090E-01  0.51100000000E-03 0. -1.
</event>
<event>
 8    1  0.1092667E+005  0.1043930E+01  0.7957747E-01            NaN
         13   -1    0    0    0    0  0.00000000000E+00  0.00000000000E+00  0.74505805969E-08  0.10566000000E+00  0.10566000000E+00 0.  1.
     999900   -1    0    0    0    0 -0.00000000000E+00 -0.00000000000E+00 -0.74505805969E-08  0.93827000000E+00  0.93827000000E+00 0.  1.
     999902    2    1    2    0    0 -0.97853177961E-02 -0.45356066237E-02  0.21129042193E-01  0.10202074243E+01  0.10199315801E+01 0.  0.
     999903    2    3    3    0    0  0.34838611888E-01 -0.36414393510E-01  0.12112154810E+00  0.13284839137E+00  0.20941077897E-01 0.  0.
         14    1    1    2    0    0  0.97853177961E-02  0.45356066237E-02 -0.21129042193E-01  0.23722575657E-01  0.00000000000E+00 0. -1.
     999901    1    3    3    0    0 -0.44623929684E-01  0.31878786886E-01 -0.99992505907E-01  0.88735903297E+00  0.88000000000E+00 0.  1.
        -11    1    4    4    0    0  0.21782526577E-01 -0.12671385313E-01  0.77481168966E-01  0.81477819897E-01  0.51100000000E-03 0.  1.
         11    1    4    4    0    0  0.13056085311E-01 -0.23743008197E-01  0.43640379134E-01  0.51370571477E-01  0.51100000000E-03 0. -1.
</event>
<event>
 8    1  0.1092667E+005  0.1043930E+01  0.7957747E-01            NaN
         13   -1    0    0    0    0  0.00000000000E+00  0.00000000000E+00  0.74505805969E-08  0.10566000000E+00  0.10566000000E+00 0. -1.
     999900   -1    0    0    0    0 -0.00000000000E+00 -0.00000000000E+00 -0.74505805969E-08  0.93827000000E+00  0.93827000000E+00 0.  1.
     999902    2    1    2    0    0 -0.18665458576E-01  0.78031897692E-02 -0.12563511077E-01  0.10201154892E+01  0.10198374774E+01 0.  0.
     999903    2    3    3    0    0  0.83942939196E-01  0.94270568588E-02  0.93698275433E-01  0.12780237850E+00  0.20464473841E-01 0.  0.
         14    1    1    2    0    0  0.18665458576E-01 -0.78031897692E-02  0.12563511077E-01  0.23814510808E-01  0.00000000000E+00 0. -1.
     999901    1    3    3    0    0 -0.10260839777E+00 -0.16238670896E-02 -0.10626178651E+00  0.89231311069E+00  0.88000000000E+00 0.  1.
        -11    1    4    4    0    0  0.67420675899E-01  0.15449918816E-01  0.71573148923E-01  0.99535040553E-01  0.51100000000E-03 0. -1.
         11    1    4    4    0    0  0.16522263297E-01 -0.60228619571E-02  0.22125126510E-01  0.28267337948E-01  0.51100000000E-03 0.  1.
</event>
<event>
 8    1  0.1092667E+005  0.1043930E+01  0.7957747E-01            NaN
         13   -1    0    0    0    0  0.00000000000E+00  0.00000000000E+00  0.74505805969E-08  0.10566000000E+00  0.10566000000E+00 0. -1.
     999900   -1    0    0    0    0 -0.00000000000E+00 -0.00000000000E+00 -0.74505805969E-08  0.93827000000E+00  0.93827000000E+00 0.  1.
     999902    2    1    2    0    0 -0.17296908999E-01  0.10440490149E-01  0.12126385577E-01  0.10203665511E+01  0.10200944381E+01 0.  0.
     999903    2    3    3    0    0 -0.80877477498E-01  0.45458247469E-01  0.95002490689E-01  0.13349723673E+00  0.13726629202E-01 0.  0.
         14    1    1    2    0    0  0.17296908999E-01 -0.10440490149E-01 -0.12126385577E-01  0.23563448870E-01  0.00000000000E+00 0.  1.
     999901    1    3    3    0    0  0.63580568499E-01 -0.35017757320E-01 -0.82876105112E-01  0.88686931440E+00  0.88000000000E+00 0.  1.
        -11    1    4    4    0    0 -0.86661781006E-02  0.83197961030E-02  0.17588166477E-01  0.21305547895E-01  0.51100000000E-03 0.  1.
         11    1    4    4    0    0 -0.72211299398E-01  0.37138451366E-01  0.77414324211E-01  0.11219168884E+00  0.51100000000E-03 0. -1.
</event>
<event>
 8    1  0.1092667E+005  0.1043930E+01  0.7957747E-01            NaN
         13   -1    0    0    0    0  0.00000000000E+00  0.00000000000E+00  0.74505805969E-08  0.10566000000E+00  0.10566000000E+00 0.  1.
     999900   -1    0    0    0    0 -0.00000000000E+00 -0.00000000000E+00 -0.74505805969E-08  0.93827000000E+00  0.93827000000E+00 0.  1.
     999902    2    1    2    0    0 -0.13700951384E-01 -0.16421399027E-01  0.10783937391E-01  0.10199785549E+01  0.10196972986E+01 0.  0.
     999903    2    3    3    0    0  0.62904761840E-01 -0.92133712568E-01 -0.64176233930E-01  0.13024836156E+00  0.20010413162E-01 0.  0.
         14    1    1    2    0    0  0.13700951384E-01  0.16421399027E-01 -0.10783937391E-01  0.23951445060E-01  0.00000000000E+00 0. -1.
     999901    1    3    3    0    0 -0.76605713223E-01  0.75712313541E-01  0.74960171321E-01  0.88973019338E+00  0.88000000000E+00 0. -1.
        -11    1    4    4    0    0  0.50826609740E-02 -0.21029473954E-01 -0.13809779226E-01  0.25671839448E-01  0.51100000000E-03 0. -1.
         11    1    4    4    0    0  0.57822100866E-01 -0.71104238614E-01 -0.50366454704E-01  0.10457652212E+00  0.51100000000E-03 0.  1.
</event>
<event>
 8    1  0.1092667E+005  0.1043930E+01  0.7957747E-01            NaN
         13   -1    0    0    0    0  0.00000000000E+00  0.00000000000E+00  0.74505805969E-08  0.10566000000E+00  0.10566000000E+00 0.  1.
     999900   -1    0    0    0    0 -0.00000000000E+00 -0.00000000000E+00 -0.74505805969E-08  0.93827000000E+00  0.93827000000E+00 0. -1.
     999902    2    1    2    0    0 -0.21721457459E-01 -0.91544343895E-02 -0.11147027346E-01  0.10178554607E+01  0.10175214284E+01 0.  0.
     999903    2    3    3    0    0  0.72154751705E-01 -0.93385379314E-01  0.43435685002E-01  0.12718893091E+00  0.19058545355E-01 0.  0.
         14    1    1    2    0    0  0.21721457459E-01  0.91544343895E-02  0.11147027346E-01  0.26074539340E-01  0.00000000000E+00 0.  1.
     999901    1    3    3    0    0 -0.93876209164E-01  0.84230944925E-01 -0.54582712349E-01  0.89066652975E+00  0.88000000000E+00 0.  1.
        -11    1    4    4    0    0  0.51189457102E-01 -0.57722955801E-01  0.36064404958E-01  0.85165735897E-01  0.51100000000E-03 0. -1.
         11    1    4    4    0    0  0.20965294603E-01 -0.35662423513E-01  0.73712800440E-02  0.42023195013E-01  0.51100000000E-03 0.  1.
</event>
<event>
 8    1  0.1092667E+005  0.1043930E+01  0.7957747E-01            NaN
         13   -1    0    0    0    0  0.00000000000E+00  0.00000000000E+00  0.74505805969E-08  0.10566000000E+00  0.10566000000E+00 0. -1.
     999900   -1    0    0    0    0 -0.00000000000E+00 -0.00000000000E+00 -0.74505805969E-08  0.93827000000E+00  0.93827000000E+00 0. -1.
     999902    2    1    2    0    0 -0.18319836266E-01 -0.10163395548E-01 -0.12193911168E-01  0.10196894868E+01  0.10194013180E+01 0.  0.
     999903    2    3    3    0    0  0.27068559257E-01 -0.82694175857E-01  0.93468440288E-01  0.12924838654E+00  0.19943983370E-01 0.  0.
         14    1    1    2    0    0  0.18319836266E-01  0.10163395548E-01  0.12193911168E-01  0.24240513185E-01  0.00000000000E+00 0. -1.
     999901    1    3    3    0    0 -0.45388395524E-01  0.72530780310E-01 -0.10566235146E+00  0.89044110027E+00  0.88000000000E+00 0. -1.
        -11    1    4    4    0    0  0.19675679623E-01 -0.29476272491E-01  0.34280378165E-01  0.49309111295E-01  0.51100000000E-03 0. -1.
         11    1    4    4    0    0  0.73928796344E-02 -0.53217903366E-01  0.59188062124E-01  0.79939275247E-01  0.51100000000E-03 0.  1.
</event>
<event>
 8    1  0.1092667E+005  0.1043930E+01  0.7957747E-01            NaN
         13   -1    0    0    0    0  0.00000000000E+00  0.00000000000E+00  0.74505805969E-08  0.10566000000E+00  0.10566000000E+00 0. -1.
     999900   -1    0    0    0    0 -0.00000000000E+00 -0.00000000000E+00 -0.74505805969E-08  0.93827000000E+00  0.93827000000E+00 0. -1.
     999902    2    1    2    0    0  0.11432062382E-01  0.96282639391E-02 -0.19135650097E-01  0.10196489658E+01  0.10193598211E+01 0.  0.
     999903    2    3    3    0    0 -0.33906582752E-01 -0.93320347040E-01  0.76937684316E-01  0.12730144672E+00  0.20685926190E-01 0.  0.
         14    1    1    2    0    0 -0.11432062382E-01 -0.96282639391E-02  0.19135650097E-01  0.24281034192E-01  0.00000000000E+00 0. -1.
     999901    1    3    3    0    0  0.45338645134E-01  0.10294861098E+00 -0.96073334413E-01  0.89234751909E+00  0.88000000000E+00 0. -1.
        -11    1    4    4    0    0 -0.20763358966E-01 -0.53601867913E-01  0.31560178445E-01  0.65578832742E-01  0.51100000000E-03 0. -1.
         11    1    4    4    0    0 -0.13143223786E-01 -0.39718479127E-01  0.45377505871E-01  0.61722613974E-01  0.51100000000E-03 0.  1.
</event>
<event>
 8    1  0.1092667E+005  0.1043930E+01  0.7957747E-01            NaN
         13   -1    0    0    0    0  0.00000000000E+00  0.00000000000E+00  0.74505805969E-08  0.10566000000E+00  0.10566000000E+00 0. -1.
     999900   -1    0    0    0    0 -0.00000000000E+00 -0.00000000000E+00 -0.74505805969E-08  0.93827000000E+00  0.93827000000E+00 0. -1.
     999902    2    1    2    0    0  0.11589829142E-01 -0.79989995201E-03 -0.20023877537E-01  0.10207800615E+01  0.10205175228E+01 0.  0.
     999903    2    3    3    0    0 -0.92297507733E-01 -0.71911350393E-01  0.50505190985E-01  0.12902686325E+00  0.20176344407E-01 0.  0.
         14    1    1    2    0    0 -0.11589829142E-01  0.79989995201E-03  0.20023877537E-01  0.23149938468E-01  0.00000000000E+00 0. -1.
     999901    1    3    3    0    0  0.10388733687E+00  0.71111450441E-01 -0.70529068522E-01  0.89175319829E+00  0.88000000000E+00 0. -1.
        -11    1    4    4    0    0 -0.14542623341E-01 -0.21326775626E-01  0.83486397061E-02  0.27134482825E-01  0.51100000000E-03 0. -1.
         11    1    4    4    0    0 -0.77754884391E-01 -0.50584574767E-01  0.42156551279E-01  0.10189238042E+00  0.51100000000E-03 0.  1.
</event>
<event>
 8    1  0.1092667E+005  0.1043930E+01  0.7957747E-01            NaN
         13   -1    0    0    0    0  0.00000000000E+00  0.00000000000E+00  0.74505805969E-08  0.10566000000E+00  0.10566000000E+00 0.  1.
     999900   -1    0    0    0    0 -0.00000000000E+00 -0.00000000000E+00 -0.74505805969E-08  0.93827000000E+00  0.93827000000E+00 0.  1.
     999902    2    1    2    0    0  0.18067236345E-01  0.14505401424E-01 -0.47713697630E-02  0.10202741832E+01  0.10199999075E+01 0.  0.
     999903    2    3    3    0    0 -0.99986922289E-01 -0.57128222795E-01  0.51641942099E-01  0.12772131515E+00  0.19616974565E-01 0.  0.
         14    1    1    2    0    0 -0.18067236345E-01 -0.14505401424E-01  0.47713697630E-02  0.23655816812E-01  0.00000000000E+00 0. -1.
     999901    1    3    3    0    0  0.11805415863E+00  0.71633624219E-01 -0.56413311862E-01  0.89255286804E+00  0.88000000000E+00 0.  1.
        -11    1    4    4    0    0 -0.64899224953E-01 -0.26277432063E-01  0.28772668547E-01  0.75700332969E-01  0.51100000000E-03 0.  1.
         11    1    4    4    0    0 -0.35087697336E-01 -0.30850790733E-01  0.22869273553E-01  0.52020982180E-01  0.51100000000E-03 0. -1.
</event>
<event>
 8    1  0.1092667E+005  0.1043930E+01  0.7957747E-01            NaN
         13   -1    0    0    0    0  0.00000000000E+00  0.00000000000E+00  0.74505805969E-08  0.10566000000E+00  0.10566000000E+00 0.  1.
     999900   -1    0    0    0    0 -0.00000000000E+00 -0.00000000000E+00 -0.74505805969E-08  0.93827000000E+00  0.93827000000E+00 0.  1.
     999902    2    1    2    0    0 -0.97855320880E-02  0.19743702477E-01  0.67587117865E-02  0.10208811256E+01  0.10206209002E+01 0.  0.
     999903    2    3    3    0    0 -0.10607685312E-01  0.10968879071E+00 -0.71387127461E-01  0.13285096451E+00  0.20226294993E-01 0.  0.
         14    1    1    2    0    0  0.97855320880E-02 -0.19743702477E-01 -0.67587117865E-02  0.23048874392E-01  0.00000000000E+00 0. -1.
     999901    1    3    3    0    0  0.82215322362E-03 -0.89945088229E-01  0.78145839248E-01  0.88803016110E+00  0.88000000000E+00 0. -1.
        -11    1    4    4    0    0 -0.14163787379E-01  0.47277342574E-01 -0.35145601606E-01  0.60590712382E-01  0.51100000000E-03 0. -1.
         11    1    4    4    0    0  0.35561020670E-02  0.62411448132E-01 -0.36241525855E-01  0.72260252125E-01  0.51100000000E-03 0.  1.
</event>
<event>
 8    1  0.1092667E+005  0.1043930E+01  0.7957747E-01            NaN
         13   -1    0    0    0    0  0.00000000000E+00  0.00000000000E+00  0.74505805969E-08  0.10566000000E+00  0.10566000000E+00 0.  1.
     999900   -1    0    0    0    0 -0.00000000000E+00 -0.00000000000E+00 -0.74505805969E-08  0.93827000000E+00  0.93827000000E+00 0.  1.
     999902    2    1    2    0    0  0.14389360695E-01 -0.16338466516E-01 -0.11528923479E-01  0.10192943497E+01  0.10189965928E+01 0.  0.
     999903    2    3    3    0    0  0.12554286295E+00  0.64426377606E-02  0.30592459714E-01  0.13101044761E+00  0.20623306557E-01 0.  0.
         14    1    1    2    0    0 -0.14389360695E-01  0.16338466516E-01  0.11528923479E-01  0.24635650304E-01  0.00000000000E+00 0. -1.
     999901    1    3    3    0    0 -0.11115350226E+00 -0.22781104277E-01 -0.42121383193E-01  0.88828390208E+00  0.88000000000E+00 0.  1.
        -11    1    4    4    0    0  0.52317272741E-01  0.11501329746E-01  0.76873594104E-02  0.54117781077E-01  0.51100000000E-03 0.  1.
         11    1    4    4    0    0  0.73225590211E-01 -0.50586919857E-02  0.22905100303E-01  0.76892666538E-01  0.51100000000E-03 0. -1.
</event>
<event>
 8    1  0.1092667E+005  0.1043930E+01  0.7957747E-01            NaN
         13   -1    0    0    0    0  0.00000000000E+00  0.00000000000E+00  0.74505805969E-08  0.10566000000E+00  0.10566000000E+00 0.  1.
     999900   -1    0    0    0    0 -0.00000000000E+00 -0.00000000000E+00 -0.74505805969E-08  0.93827000000E+00  0.93827000000E+00 0.  1.
     999902    2    1    2    0    0 -0.19730354050E-01 -0.87393479460E-02 -0.91307490494E-02  0.10204985329E+01  0.10202294947E+01 0.  0.
     999903    2    3    3    0    0  0.11889814537E+00  0.37682115712E-01 -0.22386802828E-01  0.12833905380E+00  0.20323212672E-01 0.  0.
         14    1    1    2    0    0  0.19730354050E-01  0.87393479460E-02  0.91307490494E-02  0.23431467125E-01  0.00000000000E+00 0. -1.
     999901    1    3    3    0    0 -0.13862849942E+00 -0.46421463658E-01  0.13256053779E-01  0.89215947907E+00  0.88000000000E+00 0. -1.
        -11    1    4    4    0    0  0.58331390635E-01  0.26935109926E-01 -0.17702401217E-01  0.66645985701E-01  0.51100000000E-03 0. -1.
         11    1    4    4    0    0  0.60566754732E-01  0.10747005785E-01 -0.46844016108E-02  0.61693068100E-01  0.51100000000E-03 0.  1.
</event>
<event>
 8    1  0.1092667E+005  0.1043930E+01  0.7957747E-01            NaN
         13   -1    0    0    0    0  0.00000000000E+00  0.00000000000E+00  0.74505805969E-08  0.10566000000E+00  0.10566000000E+00 0.  1.
     999900   -1    0    0    0    0 -0.00000000000E+00 -0.00000000000E+00 -0.74505805969E-08  0.93827000000E+00  0.93827000000E+00 0. -1.
     999902    2    1    2    0    0 -0.13282315276E-01  0.37119058947E-02 -0.20609119061E-01  0.10191321385E+01  0.10188303990E+01 0.  0.
     999903    2    3    3    0    0  0.12084908601E+00 -0.14200107659E-01 -0.36732474308E-01  0.12864236565E+00  0.19835294887E-01 0.  0.
         14    1    1    2    0    0  0.13282315276E-01 -0.37119058947E-02  0.20609119061E-01  0.24797861459E-01  0.00000000000E+00 0.  1.
     999901    1    3    3    0    0 -0.13413140129E+00  0.17912013554E-01  0.16123355247E-01  0.89048977289E+00  0.88000000000E+00 0.  1.
        -11    1    4    4    0    0  0.41626906609E-01 -0.23260867433E-03 -0.21173809752E-01  0.46705939676E-01  0.51100000000E-03 0. -1.
         11    1    4    4    0    0  0.79222179404E-01 -0.13967498985E-01 -0.15558664557E-01  0.81936425973E-01  0.51100000000E-03 0.  1.
</event>
<event>
 7    1  0.1117140E+005  0.1043930E+01  0.7957747E-01            NaN
         13   -1    0    0    0    0  0.00000000000E+00  0.00000000000E+00  0.74505805969E-08  0.10566000000E+00  0.10566000000E+00 0. -1.
     999900   -1    0    0    0    0 -0.00000000000E+00 -0.00000000000E+00 -0.74505805969E-08  0.93827000000E+00  0.93827000000E+00 0. -1.
     999903    2    1    2    0    0 -0.91663564504E-02 -0.10375191242E+00 -0.27851429415E-02  0.10621470192E+00  0.20623395968E-01 0.  0.
         14    1    1    2    0    0 -0.48102446771E-01  0.15071609754E-01 -0.96263416050E-02  0.51319248422E-01  0.00000000000E+00 0. -1.
     999901    1    1    2    0    0  0.57268803221E-01  0.88680302665E-01  0.12411484546E-01  0.88639604966E+00  0.88000000000E+00 0. -1.
        -11    1    3    3    0    0  0.47423992019E-02 -0.36886122505E-01  0.47753381029E-02  0.37498551421E-01  0.51100000000E-03 0.  1.
         11    1    3    3    0    0 -0.13908755652E-01 -0.66865789914E-01 -0.75604810443E-02  0.68716150498E-01  0.51100000000E-03 0. -1.
</event>
<event>
 8    1  0.1092667E+005  0.1043930E+01  0.7957747E-01            NaN
         13   -1    0    0    0    0  0.00000000000E+00  0.00000000000E+00  0.74505805969E-08  0.10566000000E+00  0.10566000000E+00 0.  1.
     999900   -1    0    0    0    0 -0.00000000000E+00 -0.00000000000E+00 -0.74505805969E-08  0.93827000000E+00  0.93827000000E+00 0.  1.
     999902    2    1    2    0    0 -0.11042527888E-01  0.15295344950E-01  0.13060491447E-01  0.10209852525E+01  0.10207273997E+01 0.  0.
     999903    2    3    3    0    0 -0.49675445401E-02  0.10649644823E+00 -0.75507027667E-01  0.13182905023E+00  0.17647018832E-01 0.  0.
         14    1    1    2    0    0  0.11042527888E-01 -0.15295344950E-01 -0.13060491447E-01  0.22944747463E-01  0.00000000000E+00 0.  1.
     999901    1    3    3    0    0 -0.60749833483E-02 -0.91201103275E-01  0.88567519114E-01  0.88915620231E+00  0.88000000000E+00 0. -1.
        -11    1    4    4    0    0  0.29237397730E-02  0.61862642419E-01 -0.35600302719E-01  0.71436527463E-01  0.51100000000E-03 0. -1.
         11    1    4    4    0    0 -0.78912843131E-02  0.44633805806E-01 -0.39906724948E-01  0.60392522765E-01  0.51100000000E-03 0.  1.
</event>
<event>
 8    1  0.1092667E+005  0.1043930E+01  0.7957747E-01            NaN
         13   -1    0    0    0    0  0.00000000000E+00  0.00000000000E+00  0.74505805969E-08  0.10566000000E+00  0.10566000000E+00 0. -1.
     999900   -1    0    0    0    0 -0.00000000000E+00 -0.00000000000E+00 -0.74505805969E-08  0.93827000000E+00  0.93827000000E+00 0.  1.
     999902    2    1    2    0    0 -0.14525154559E-01  0.93977909741E-03 -0.16708611189E-01  0.10217705553E+01  0.10215302378E+01 0.  0.
     999903    2    3    3    0    0 -0.63332728531E-01  0.10430186758E+00 -0.52014599167E-01  0.13367573304E+00  0.16545966099E-01 0.  0.
         14    1    1    2    0    0  0.14525154559E-01 -0.93977909741E-03  0.16708611189E-01  0.22159444658E-01  0.00000000000E+00 0. -1.
     999901    1    3    3    0    0  0.48807573973E-01 -0.10336208848E+00  0.35305987978E-01  0.88809482230E+00  0.88000000000E+00 0. -1.
        -11    1    4    4    0    0 -0.30168877507E-01  0.36213209014E-01 -0.24260495467E-01  0.53013115721E-01  0.51100000000E-03 0.  1.
         11    1    4    4    0    0 -0.33163851024E-01  0.68088658562E-01 -0.27754103700E-01  0.80662617319E-01  0.51100000000E-03 0. -1.
</event>
<event>
 8    1  0.1174867E+005  0.1043930E+01  0.7957747E-01            NaN
         13   -1    0    0    0    0  0.00000000000E+00  0.00000000000E+00  0.74505805969E-08  0.10566000000E+00  0.10566000000E+00 0.  1.
     999900   -1    0    0    0    0 -0.00000000000E+00 -0.00000000000E+00 -0.74505805969E-08  0.93827000000E+00  0.93827000000E+00 0.  1.
     999902    2    1    2    0    0  0.20296768034E-01 -0.18596928972E-02 -0.35658752115E-02  0.10232386318E+01  0.10230294057E+01 0.  0.
     999903    2    3    3    0    0 -0.32720591342E-01  0.46701554702E-01 -0.11828320431E+00  0.13288527459E+00  0.20393809689E-01 0.  0.
         14    1    1    2    0    0 -0.20296768034E-01  0.18596928972E-02  0.35658752115E-02  0.20691368160E-01  0.00000000000E+00 0.  1.
     999901    1    3    3    0    0  0.53017359376E-01 -0.48561247599E-01  0.11471732910E+00  0.89035335725E+00  0.88000000000E+00 0. -1.
        -11    1    4    4    0    0 -0.89406996870E-02  0.29300071333E-01 -0.52178612570E-01  0.60508668981E-01  0.51100000000E-03 0. -1.
         11    1    4    4    0    0 -0.23779891655E-01  0.17401483369E-01 -0.66104591737E-01  0.72376605614E-01  0.51100000000E-03 0.  1.
</event>
<event>
 8    1  0.1092667E+005  0.1043930E+01  0.7957747E-01            NaN
         13   -1    0    0    0    0  0.00000000000E+00  0.00000000000E+00  0.74505805969E-08  0.10566000000E+00  0.10566000000E+00 0. -1.
     999900   -1    0    0    0    0 -0.00000000000E+00 -0.00000000000E+00 -0.74505805969E-08  0.93827000000E+00  0.93827000000E+00 0. -1.
     999902    2    1    2    0    0  0.52223073634E-02  0.21010907620E-01 -0.90768857891E-02  0.10204540423E+01  0.10201839696E+01 0.  0.
     999903    2    3    3    0    0 -0.10464535273E+00 -0.26299321143E-01  0.67629035514E-01  0.12905460389E+00  0.20954717853E-01 0.  0.
         14    1    1    2    0    0 -0.52223073634E-02 -0.21010907620E-01  0.90768857891E-02  0.23475957676E-01  0.00000000000E+00 0.  1.
     999901    1    3    3    0    0  0.10986766009E+00  0.47310228762E-01 -0.76705921303E-01  0.89139943844E+00  0.88000000000E+00 0. -1.
        -11    1    4    4    0    0 -0.50398610859E-01 -0.33243441647E-02  0.25166069061E-01  0.56432821953E-01  0.51100000000E-03 0.  1.
         11    1    4    4    0    0 -0.54246741868E-01 -0.22974976978E-01  0.42462966453E-01  0.72621781935E-01  0.51100000000E-03 0. -1.
</event>
<event>
 8    1  0.1092667E+005  0.1043930E+01  0.7957747E-01            NaN
         13   -1    0    0    0    0  0.00000000000E+00  0.00000000000E+00  0.74505805969E-08  0.10566000000E+00  0.10566000000E+00 0. -1.
     999900   -1    0    0    0    0 -0.00000000000E+00 -0.00000000000E+00 -0.74505805969E-08  0.93827000000E+00  0.93827000000E+00 0. -1.
     999902    2    1    2    0    0  0.18752721521E-01 -0.12875444354E-01  0.16046285896E-02  0.10211261305E+01  0.10208714698E+01 0.  0.
     999903    2    3    3    0    0 -0.26404925439E-01  0.86931787602E-01 -0.90140950025E-01  0.12960050112E+00  0.20409390865E-01 0.  0.
         14    1    1    2    0    0 -0.18752721521E-01  0.12875444354E-01 -0.16046285896E-02  0.22803869511E-01  0.00000000000E+00 0.  1.
     999901    1    3    3    0    0  0.45157646960E-01 -0.99807231956E-01  0.91745578615E-01  0.89152562937E+00  0.88000000000E+00 0.  1.
        -11    1    4    4    0    0 -0.40938422427E-02  0.18193529357E-01 -0.83030120997E-02  0.20419725407E-01  0.51100000000E-03 0. -1.
         11    1    4    4    0    0 -0.22311083196E-01  0.68738258245E-01 -0.81837937926E-01  0.10918077571E+00  0.51100000000E-03 0.  1.
</event>
<event>
 8    1  0.1092667E+005  0.1043930E+01  0.7957747E-01            NaN
         13   -1    0    0    0    0  0.00000000000E+00  0.00000000000E+00  0.74505805969E-08  0.10566000000E+00  0.10566000000E+00 0.  1.
     999900   -1    0    0    0    0 -0.00000000000E+00 -0.00000000000E+00 -0.74505805969E-08  0.93827000000E+00  0.93827000000E+00 0.  1.
     999902    2    1    2    0    0  0.19953883012E-02  0.20283288922E-01  0.15514166677E-02  0.10234898367E+01  0.10232857106E+01 0.  0.
     999903    2    3    3    0    0 -0.87450908164E-01  0.41821110603E-01 -0.90397584690E-01  0.13392863215E+00  0.19196055838E-01 0.  0.
         14    1    1    2    0    0 -0.19953883012E-02 -0.20283288922E-01 -0.15514166677E-02  0.20440163347E-01  0.00000000000E+00 0.  1.
     999901    1    3    3    0    0  0.89446296466E-01 -0.21537821681E-01  0.91949001358E-01  0.88956120451E+00  0.88000000000E+00 0. -1.
        -11    1    4    4    0    0 -0.58481559389E-01  0.35684376716E-01 -0.70133430562E-01  0.98042984112E-01  0.51100000000E-03 0.  1.
         11    1    4    4    0    0 -0.28969348776E-01  0.61367338873E-02 -0.20264154128E-01  0.35885648034E-01  0.51100000000E-03 0. -1.
</event>
<event>
 8    1  0.1092667E+005  0.1043930E+01  0.7957747E-01            NaN
         13   -1    0    0    0    0  0.00000000000E+00  0.00000000000E+00  0.74505805969E-08  0.10566000000E+00  0.10566000000E+00 0. -1.
     999900   -1    0    0    0    0 -0.00000000000E+00 -0.00000000000E+00 -0.74505805969E-08  0.93827000000E+00  0.93827000000E+00 0. -1.
     999902    2    1    2    0    0  0.73374487212E-02 -0.13339084863E-01 -0.17435039734E-01  0.10207837271E+01  0.10205212725E+01 0.  0.
     999903    2    3    3    0    0 -0.54725238847E-01 -0.11801880624E+00  0.10440797177E-01  0.13197177649E+00  0.19602274171E-01 0.  0.
         14    1    1    2    0    0 -0.73374487212E-02  0.13339084863E-01  0.17435039734E-01  0.23146272902E-01  0.00000000000E+00 0. -1.
     999901    1    3    3    0    0  0.62062687568E-01  0.10467972137E+00 -0.27875836911E-01  0.88881195061E+00  0.88000000000E+00 0. -1.
        -11    1    4    4    0    0 -0.34060316058E-01 -0.69093604963E-01  0.15636828545E-01  0.78605361806E-01  0.51100000000E-03 0.  1.
         11    1    4    4    0    0 -0.20664922789E-01 -0.48925201274E-01 -0.51960313679E-02  0.53366414687E-01  0.51100000000E-03 0. -1.
</event>
<event>
 8    1  0.1092667E+005  0.1043930E+01  0.7957747E-01            NaN
         13   -1    0    0    0    0  0.00000000000E+00  0.00000000000E+00  0.74505805969E-08  0.10566000000E+00  0.10566000000E+00 0. -1.
     999900   -1    0    0    0    0 -0.00000000000E+00 -0.00000000000E+00 -0.74505805969E-08  0.93827000000E+00  0.93827000000E+00 0. -1.
     999902    2    1    2    0    0  0.83320568940E-02 -0.45601072685E-02 -0.21165726202E-01  0.10207307389E+01  0.10204670674E+01 0.  0.
     999903    2    3    3    0    0  0.64467783720E-01  0.69888904978E-01  0.85480823523E-01  0.12940175259E+00  0.19932089864E-01 0.  0.
         14    1    1    2    0    0 -0.83320568940E-02  0.45601072685E-02  0.21165726202E-01  0.23199261110E-01  0.00000000000E+00 0. -1.
     999901    1    3    3    0    0 -0.56135726826E-01 -0.74449012247E-01 -0.10664654973E+00  0.89132898630E+00  0.88000000000E+00 0.  1.
        -11    1    4    4    0    0  0.32409254304E-01  0.36463704540E-01  0.57003015631E-01  0.75030436660E-01  0.51100000000E-03 0.  1.
         11    1    4    4    0    0  0.32058529416E-01  0.33425200438E-01  0.28477807892E-01  0.54371315930E-01  0.51100000000E-03 0. -1.
</event>
<event>
 8    1  0.1092667E+005  0.1043930E+01  0.7957747E-01            NaN
         13   -1    0    0    0    0  0.00000000000E+00  0.00000000000E+00  0.74505805969E-08  0.10566000000E+00  0.10566000000E+00 0. -1.
     999900   -1    0    0    0    0 -0.00000000000E+00 -0.00000000000E+00 -0.74505805969E-08  0.93827000000E+00  0.93827000000E+00 0. -1.
     999902    2    1    2    0    0  0.90804801718E-02 -0.18051877555E-01 -0.12308634337E-01  0.10202693178E+01  0.10199949279E+01 0.  0.
     999903    2    3    3    0    0  0.51135919270E-01 -0.53901353102E-02  0.11771031242E+00  0.12963251965E+00  0.17462436901E-01 0.  0.
         14    1    1    2    0    0 -0.90804801718E-02  0.18051877555E-01  0.12308634337E-01  0.23660682211E-01  0.00000000000E+00 0.  1.
     999901    1    3    3    0    0 -0.42055439098E-01 -0.12661742245E-01 -0.13001894676E+00  0.89063679813E+00  0.88000000000E+00 0. -1.
        -11    1    4    4    0    0  0.41405617156E-01 -0.11261382405E-01  0.94259807934E-01  0.10356841400E+00  0.51100000000E-03 0.  1.
         11    1    4    4    0    0  0.97303021143E-02  0.58712470951E-02  0.23450504491E-01  0.26064105654E-01  0.51100000000E-03 0. -1.
</event>
<event>
 8    1  0.1092667E+005  0.1043930E+01  0.7957747E-01            NaN
         13   -1    0    0    0    0  0.00000000000E+00  0.00000000000E+00  0.74505805969E-08  0.10566000000E+00  0.10566000000E+00 0. -1.
     999900   -1    0    0    0    0 -0.00000000000E+00 -0.00000000000E+00 -0.74505805969E-08  0.93827000000E+00  0.93827000000E+00 0.  1.
     999902    2    1    2    0    0 -0.19669513171E-01 -0.86120335998E-02 -0.19713744675E-01  0.10147805815E+01  0.10143618388E+01 0.  0.
     999903    2    3    3    0    0  0.10860906880E+00  0.53086673066E-01  0.11051685642E-01  0.12281161526E+00  0.18612587265E-01 0.  0.
         14    1    1    2    0    0  0.19669513171E-01  0.86120335998E-02  0.19713744675E-01  0.29149418522E-01  0.00000000000E+00 0. -1.
     999901    1    3    3    0    0 -0.12827858197E+00 -0.61698706665E-01 -0.30765430317E-01  0.89196896622E+00  0.88000000000E+00 0. -1.
        -11    1    4    4    0    0  0.76981572938E-01  0.43469009024E-01  0.15876761225E-02  0.88422277476E-01  0.51100000000E-03 0. -1.
         11    1    4    4    0    0  0.31627495859E-01  0.96176640413E-02  0.94640095195E-02  0.34389337782E-01  0.51100000000E-03 0.  1.
</event>
<event>
 8    1  0.1092667E+005  0.1043930E+01  0.7957747E-01            NaN
         13   -1    0    0    0    0  0.00000000000E+00  0.00000000000E+00  0.74505805969E-08  0.10566000000E+00  0.10566000000E+00 0. -1.
     999900   -1    0    0    0    0 -0.00000000000E+00 -0.00000000000E+00 -0.74505805969E-08  0.93827000000E+00  0.93827000000E+00 0.  1.
     999902    2    1    2    0    0 -0.75995738536E-02 -0.23261903749E-01  0.41193581041E-02  0.10191139004E+01  0.10188117113E+01 0.  0.
     999903    2    3    3    0    0  0.31808051379E-02  0.12435129057E+00 -0.11302021519E-01  0.12662093646E+00  0.20778952595E-01 0.  0.
         14    1    1    2    0    0  0.75995738536E-02  0.23261903749E-01 -0.41193581041E-02  0.24816099612E-01  0.00000000000E+00 0.  1.
     999901    1    3    3    0    0 -0.10780378992E-01 -0.14761319432E+00  0.15421379623E-01  0.89249296393E+00  0.88000000000E+00 0.  1.
        -11    1    4    4    0    0 -0.50494333147E-02  0.50652539354E-01 -0.12633340689E-01  0.52450347356E-01  0.51100000000E-03 0. -1.
         11    1    4    4    0    0  0.82302384526E-02  0.73698751220E-01  0.13313191694E-02  0.74170589105E-01  0.51100000000E-03 0.  1.
</event>
<event>
 8    1  0.1092667E+005  0.1043930E+01  0.7957747E-01            NaN
         13   -1    0    0    0    0  0.00000000000E+00  0.00000000000E+00  0.74505805969E-08  0.10566000000E+00  0.10566000000E+00 0.  1.
     999900   -1    0    0    0    0 -0.00000000000E+00 -0.00000000000E+00 -0.74505805969E-08  0.93827000000E+00  0.93827000000E+00 0. -1.
     999902    2    1    2    0    0 -0.13961850707E-02 -0.14734212907E-01 -0.18437659964E-01  0.10202869531E+01  0.10200129769E+01 0.  0.
     999903    2    3    3    0    0 -0.10024902661E-01 -0.63932813746E-01 -0.11513127193E+00  0.13358259892E+00  0.20029917926E-01 0.  0.
         14    1    1    2    0    0  0.13961850707E-02  0.14734212907E-01  0.18437659964E-01  0.23643046921E-01  0.00000000000E+00 0.  1.
     999901    1    3    3    0    0  0.86287175900E-02  0.49198600840E-01  0.96693611961E-01  0.88670435416E+00  0.88000000000E+00 0. -1.
        -11    1    4    4    0    0 -0.10675274102E-01 -0.13220071256E-01 -0.30451569703E-01  0.34875363504E-01  0.51100000000E-03 0.  1.
         11    1    4    4    0    0  0.65037144173E-03 -0.50712742490E-01 -0.84679702222E-01  0.98707235415E-01  0.51100000000E-03 0. -1.
</event>
<event>
 8    1  0.1092667E+005  0.1043930E+01  0.7957747E-01            NaN
         13   -1    0    0    0    0  0.00000000000E+00  0.00000000000E+00  0.74505805969E-08  0.10566000000E+00  0.10566000000E+00 0.  1.
     999900   -1    0    0    0    0 -0.00000000000E+00 -0.00000000000E+00 -0.74505805969E-08  0.93827000000E+00  0.93827000000E+00 0.  1.
     999902    2    1    2    0    0 -0.17569665276E-01  0.67666809200E-02 -0.14759295458E-01  0.10200068332E+01  0.10197262485E+01 0.  0.
     999903    2    3    3    0    0 -0.73913103869E-01  0.70538861700E-01 -0.83091245992E-01  0.13326519686E+00  0.20410281707E-01 0.  0.
         14    1    1    2    0    0  0.17569665276E-01 -0.67666809200E-02  0.14759295458E-01  0.23923166826E-01  0.00000000000E+00 0.  1.
     999901    1    3    3    0    0  0.56343438593E-01 -0.63772180780E-01  0.68331950534E-01  0.88674163632E+00  0.88000000000E+00 0. -1.
        -11    1    4    4    0    0 -0.52889989452E-01  0.38460286610E-01 -0.58157828097E-01  0.87516505416E-01  0.51100000000E-03 0. -1.
         11    1    4    4    0    0 -0.21023114417E-01  0.32078575090E-01 -0.24933417896E-01  0.45748691441E-01  0.51100000000E-03 0.  1.
</event>
<event>
 8    1  0.1092667E+005  0.1043930E+01  0.7957747E-01            NaN
         13   -1    0    0    0    0  0.00000000000E+00  0.00000000000E+00  0.74505805969E-08  0.10566000000E+00  0.10566000000E+00 0. -1.
     999900   -1    0    0    0    0 -0.00000000000E+00 -0.00000000000E+00 -0.74505805969E-08  0.93827000000E+00  0.93827000000E+00 0.  1.
     999902    2    1    2    0    0  0.80490034673E-02 -0.18113809295E-02  0.21231442989E-01  0.10211519024E+01  0.10208978235E+01 0.  0.
     999903    2    3    3    0    0 -0.61820367150E-01 -0.91904336026E-01 -0.64420990191E-01  0.12967290165E+00  0.19920659408E-01 0.  0.
         14    1    1    2    0    0 -0.80490034673E-02  0.18113809295E-02 -0.21231442989E-01  0.22778097574E-01  0.00000000000E+00 0.  1.
     999901    1    3    3    0    0  0.69869370617E-01  0.90092955096E-01  0.85652433180E-01  0.89147900077E+00  0.88000000000E+00 0. -1.
        -11    1    4    4    0    0 -0.24733766131E-01 -0.54533597791E-01 -0.33730791445E-01  0.68729177847E-01  0.51100000000E-03 0.  1.
         11    1    4    4    0    0 -0.37086601019E-01 -0.37370738235E-01 -0.30690198746E-01  0.60943723807E-01  0.51100000000E-03 0. -1.
</event>
<event>
 8    1  0.1092667E+005  0.1043930E+01  0.7957747E-01            NaN
         13   -1    0    0    0    0  0.00000000000E+00  0.00000000000E+00  0.74505805969E-08  0.10566000000E+00  0.10566000000E+00 0. -1.
     999900   -1    0    0    0    0 -0.00000000000E+00 -0.00000000000E+00 -0.74505805969E-08  0.93827000000E+00  0.93827000000E+00 0. -1.
     999902    2    1    2    0    0  0.15642317925E-01 -0.23446857843E-01 -0.55655232319E-02  0.10152000104E+01  0.10147934020E+01 0.  0.
     999903    2    3    3    0    0  0.10452909192E+00  0.39794032208E-01  0.55351536733E-01  0.12637429242E+00  0.19919164414E-01 0.  0.
         14    1    1    2    0    0 -0.15642317925E-01  0.23446857843E-01  0.55655232319E-02  0.28729989586E-01  0.00000000000E+00 0. -1.
     999901    1    3    3    0    0 -0.88886773990E-01 -0.63240890051E-01 -0.60917059965E-01  0.88882571799E+00  0.88000000000E+00 0.  1.
        -11    1    4    4    0    0  0.86911382066E-01  0.40100611835E-01  0.49769638664E-01  0.10788385169E+00  0.51100000000E-03 0. -1.
         11    1    4    4    0    0  0.17617709849E-01 -0.30657962754E-03  0.55818980687E-02  0.18490440731E-01  0.51100000000E-03 0.  1.
</event>
<event>
 8    1  0.1092667E+005  0.1043930E+01  0.7957747E-01            NaN
         13   -1    0    0    0    0  0.00000000000E+00  0.00000000000E+00  0.74505805969E-08  0.10566000000E+00  0.10566000000E+00 0. -1.
     999900   -1    0    0    0    0 -0.00000000000E+00 -0.00000000000E+00 -0.74505805969E-08  0.93827000000E+00  0.93827000000E+00 0. -1.
     999902    2    1    2    0    0  0.10573631301E-01  0.97524884292E-02  0.18786379223E-01  0.10202690458E+01  0.10199946495E+01 0.  0.
     999903    2    3    3    0    0  0.92647825319E-01  0.27448951454E-01  0.89712359542E-01  0.13343206370E+00  0.20463227921E-01 0.  0.
         14    1    1    2    0    0 -0.10573631301E-01 -0.97524884292E-02 -0.18786379223E-01  0.23660954203E-01  0.00000000000E+00 0.  1.
     999901    1    3    3    0    0 -0.82074194018E-01 -0.17696463024E-01 -0.70925980319E-01  0.88683698210E+00  0.88000000000E+00 0. -1.
        -11    1    4    4    0    0  0.78168958968E-01  0.30497951332E-01  0.74602619089E-01  0.11227788330E+00  0.51100000000E-03 0.  1.
         11    1    4    4    0    0  0.14478866352E-01 -0.30489998787E-02  0.15109740453E-01  0.21154180406E-01  0.51100000000E-03 0. -1.
</event>
<event>
 7    1  0.1092667E+005  0.1043930E+01  0.7957747E-01            NaN
         13   -1    0    0    0    0  0.00000000000E+00  0.00000000000E+00  0.74505805969E-08  0.10566000000E+00  0.10566000000E+00 0. -1.
     999900   -1    0    0    0    0 -0.00000000000E+00 -0.00000000000E+00 -0.74505805969E-08  0.93827000000E+00  0.93827000000E+00 0. -1.
     999903    2    1    2    0    0  0.42331497317E-01  0.73719247343E-01  0.51931114511E-01  0.10151655868E+00  0.19552184983E-01 0.  0.
         14    1    1    2    0    0  0.28174601815E-01 -0.11745807164E-01  0.42577297412E-01  0.52388915128E-01  0.00000000000E+00 0. -1.
     999901    1    1    2    0    0 -0.70506099132E-01 -0.61973440179E-01 -0.94508411923E-01  0.89002452619E+00  0.88000000000E+00 0. -1.
        -11    1    3    3    0    0  0.30340787963E-01  0.33291339857E-01  0.26030275527E-01  0.52026080851E-01  0.51100000000E-03 0.  1.
         11    1    3    3    0    0  0.11990709354E-01  0.40427907486E-01  0.25900838985E-01  0.49490477827E-01  0.51100000000E-03 0. -1.
</event>
<event>
 8    1  0.1092667E+005  0.1043930E+01  0.7957747E-01            NaN
         13   -1    0    0    0    0  0.00000000000E+00  0.00000000000E+00  0.74505805969E-08  0.10566000000E+00  0.10566000000E+00 0. -1.
     999900   -1    0    0    0    0 -0.00000000000E+00 -0.00000000000E+00 -0.74505805969E-08  0.93827000000E+00  0.93827000000E+00 0.  1.
     999902    2    1    2    0    0  0.16380358737E-01  0.14506515219E-01 -0.13886443705E-01  0.10180149763E+01  0.10176850709E+01 0.  0.
     999903    2    3    3    0    0 -0.32898085736E-01  0.11914275391E+00  0.32792657228E-01  0.12922026094E+00  0.18580570890E-01 0.  0.
         14    1    1    2    0    0 -0.16380358737E-01 -0.14506515219E-01  0.13886443705E-01  0.25915023730E-01  0.00000000000E+00 0. -1.
     999901    1    3    3    0    0  0.49278444473E-01 -0.10463623869E+00 -0.46679100932E-01  0.88879471533E+00  0.88000000000E+00 0. -1.
        -11    1    4    4    0    0 -0.25115363682E-01  0.59118978391E-01  0.20772006705E-01  0.67509795455E-01  0.51100000000E-03 0.  1.
         11    1    4    4    0    0 -0.77827220534E-02  0.60023775520E-01  0.12020650523E-01  0.61710465483E-01  0.51100000000E-03 0. -1.
</event>
<event>
 8    1  0.1092667E+005  0.1043930E+01  0.7957747E-01            NaN
         13   -1    0    0    0    0  0.00000000000E+00  0.00000000000E+00  0.74505805969E-08  0.10566000000E+00  0.10566000000E+00 0.  1.
     999900   -1    0    0    0    0 -0.00000000000E+00 -0.00000000000E+00 -0.74505805969E-08  0.93827000000E+00  0.93827000000E+00 0. -1.
     999902    2    1    2    0    0  0.10523314264E-01  0.14152761047E-01  0.16879943430E-01  0.10195174361E+01  0.10192251121E+01 0.  0.
     999903    2    3    3    0    0 -0.96325650690E-03 -0.10120758280E-02  0.13057093855E+00  0.13199979907E+00  0.19319026891E-01 0.  0.
         14    1    1    2    0    0 -0.10523314264E-01 -0.14152761047E-01 -0.16879943430E-01  0.24412563949E-01  0.00000000000E+00 0. -1.
     999901    1    3    3    0    0  0.11486570771E-01  0.15164836875E-01 -0.11369099512E+00  0.88751763698E+00  0.88000000000E+00 0. -1.
        -11    1    4    4    0    0 -0.83191275771E-03  0.84136203042E-02  0.37163167283E-01  0.38116180409E-01  0.51100000000E-03 0. -1.
         11    1    4    4    0    0 -0.13134374919E-03 -0.94256961322E-02  0.93407771265E-01  0.93883618659E-01  0.51100000000E-03 0.  1.
</event>
<event>
 8    1  0.1092667E+005  0.1043930E+01  0.7957747E-01            NaN
         13   -1    0    0    0    0  0.00000000000E+00  0.00000000000E+00  0.74505805969E-08  0.10566000000E+00  0.10566000000E+00 0. -1.
     999900   -1    0    0    0    0 -0.00000000000E+00 -0.00000000000E+00 -0.74505805969E-08  0.93827000000E+00  0.93827000000E+00 0. -1.
     999902    2    1    2    0    0 -0.12103340118E-01 -0.63972342531E-03  0.19950969758E-01  0.10205860226E+01  0.10203190129E+01 0.  0.
     999903    2    3    3    0    0 -0.89692768072E-01  0.54474934664E-03 -0.92070957828E-01  0.13009714865E+00  0.20077784137E-01 0.  0.
         14    1    1    2    0    0  0.12103340118E-01  0.63972342531E-03 -0.19950969758E-01  0.23343977432E-01  0.00000000000E+00 0.  1.
     999901    1    3    3    0    0  0.77589427955E-01 -0.11844727719E-02  0.11202192759E+00  0.89048887391E+00  0.88000000000E+00 0.  1.
        -11    1    4    4    0    0 -0.44300933158E-01 -0.84456223509E-02 -0.38436250023E-01  0.59257975432E-01  0.51100000000E-03 0.  1.
         11    1    4    4    0    0 -0.45391834915E-01  0.89903716976E-02 -0.53634707806E-01  0.70839173220E-01  0.51100000000E-03 0. -1.
</event>
<event>
 8    1  0.1092667E+005  0.1043930E+01  0.7957747E-01            NaN
         13   -1    0    0    0    0  0.00000000000E+00  0.00000000000E+00  0.74505805969E-08  0.10566000000E+00  0.10566000000E+00 0.  1.
     999900   -1    0    0    0    0 -0.00000000000E+00 -0.00000000000E+00 -0.74505805969E-08  0.93827000000E+00  0.93827000000E+00 0.  1.
     999902    2    1    2    0    0  0.56620732075E-02 -0.26332076689E-02 -0.22612841000E-01  0.10204708134E+01  0.10202011310E+01 0.  0.
     999903    2    3    3    0    0 -0.68521097756E-01 -0.12084825738E-01  0.10564319127E+00  0.12803477330E+00  0.19779672950E-01 0.  0.
         14    1    1    2    0    0 -0.56620732075E-02  0.26332076689E-02  0.22612841000E-01  0.23459186553E-01  0.00000000000E+00 0.  1.
     999901    1    3    3    0    0  0.74183170964E-01  0.94516180688E-02 -0.12825603227E+00  0.89243604015E+00  0.88000000000E+00 0.  1.
        -11    1    4    4    0    0 -0.30676686335E-01  0.29325974913E-02  0.55057574819E-01  0.63097201828E-01  0.51100000000E-03 0.  1.
         11    1    4    4    0    0 -0.37844411421E-01 -0.15017423229E-01  0.50585616449E-01  0.64937571473E-01  0.51100000000E-03 0. -1.
</event>
<event>
 8    1  0.1092667E+005  0.1043930E+01  0.7957747E-01            NaN
         13   -1    0    0    0    0  0.00000000000E+00  0.00000000000E+00  0.74505805969E-08  0.10566000000E+00  0.10566000000E+00 0. -1.
     999900   -1    0    0    0    0 -0.00000000000E+00 -0.00000000000E+00 -0.74505805969E-08  0.93827000000E+00  0.93827000000E+00 0. -1.
     999902    2    1    2    0    0 -0.17347484899E-01 -0.11413327836E-01  0.88120600170E-02  0.10213722588E+01  0.10211231265E+01 0.  0.
     999903    2    3    3    0    0 -0.10892484529E+00  0.57395538920E-01 -0.44213469372E-01  0.13236563353E+00  0.20173255929E-01 0.  0.
         14    1    1    2    0    0  0.17347484899E-01  0.11413327836E-01 -0.88120600170E-02  0.22557741163E-01  0.00000000000E+00 0.  1.
     999901    1    3    3    0    0  0.91577360394E-01 -0.68808866756E-01  0.53025529389E-01  0.88900662531E+00  0.88000000000E+00 0. -1.
        -11    1    4    4    0    0 -0.67714564578E-01  0.41386675331E-01 -0.37015260659E-01  0.87570027941E-01  0.51100000000E-03 0.  1.
         11    1    4    4    0    0 -0.41210280715E-01  0.16008863588E-01 -0.71982087131E-02  0.44795605585E-01  0.51100000000E-03 0. -1.
</event>
<event>
 8    1  0.1092667E+005  0.1043930E+01  0.7957747E-01            NaN
         13   -1    0    0    0    0  0.00000000000E+00  0.00000000000E+00  0.74505805969E-08  0.10566000000E+00  0.10566000000E+00 0. -1.
     999900   -1    0    0    0    0 -0.00000000000E+00 -0.00000000000E+00 -0.74505805969E-08  0.93827000000E+00  0.93827000000E+00 0.  1.
     999902    2    1    2    0    0 -0.12310409735E-01  0.88866002629E-02  0.95707880620E-02  0.10259823585E+01  0.10258253663E+01 0.  0.
     999903    2    3    3    0    0 -0.10071214498E+00 -0.89890314705E-01  0.92479840626E-02  0.13605435581E+00  0.14214700232E-01 0.  0.
         14    1    1    2    0    0  0.12310409735E-01 -0.88866002629E-02 -0.95707880620E-02  0.17947641522E-01  0.00000000000E+00 0. -1.
     999901    1    3    3    0    0  0.88401735243E-01  0.98776914967E-01  0.32280399939E-03  0.88992800266E+00  0.88000000000E+00 0.  1.
        -11    1    4    4    0    0 -0.52415481260E-01 -0.37389298317E-01  0.33840425811E-02  0.64475229116E-01  0.51100000000E-03 0. -1.
         11    1    4    4    0    0 -0.48296663718E-01 -0.52501016387E-01  0.58639414815E-02  0.71579126697E-01  0.51100000000E-03 0.  1.
</event>
<event>
 8    1  0.1092667E+005  0.1043930E+01  0.7957747E-01            NaN
         13   -1    0    0    0    0  0.00000000000E+00  0.00000000000E+00  0.74505805969E-08  0.10566000000E+00  0.10566000000E+00 0. -1.
     999900   -1    0    0    0    0 -0.00000000000E+00 -0.00000000000E+00 -0.74505805969E-08  0.93827000000E+00  0.93827000000E+00 0.  1.
     999902    2    1    2    0    0 -0.14180492843E-01  0.19551833183E-01  0.42213228349E-02  0.10194110252E+01  0.10191161162E+01 0.  0.
     999903    2    3    3    0    0 -0.24731860419E-01 -0.34651554739E-01 -0.12002970585E+00  0.12896863137E+00  0.20331808261E-01 0.  0.
         14    1    1    2    0    0  0.14180492843E-01 -0.19551833183E-01 -0.42213228349E-02  0.24518974786E-01  0.00000000000E+00 0.  1.
     999901    1    3    3    0    0  0.10551367576E-01  0.54203387922E-01  0.12425102868E+00  0.89044239384E+00  0.88000000000E+00 0. -1.
        -11    1    4    4    0    0 -0.26567148600E-01 -0.22337929775E-01 -0.89069098113E-01  0.95594779413E-01  0.51100000000E-03 0. -1.
         11    1    4    4    0    0  0.18352881807E-02 -0.12313624964E-01 -0.30960607733E-01  0.33373851960E-01  0.51100000000E-03 0.  1.
</event>
<event>
 8    1  0.1092667E+005  0.1043930E+01  0.7957747E-01            NaN
         13   -1    0    0    0    0  0.00000000000E+00  0.00000000000E+00  0.74505805969E-08  0.10566000000E+00  0.10566000000E+00 0. -1.
     999900   -1    0    0    0    0 -0.00000000000E+00 -0.00000000000E+00 -0.74505805969E-08  0.93827000000E+00  0.93827000000E+00 0.  1.
     999902    2    1    2    0    0 -0.60366514493E-02  0.14581436466E-01 -0.17578353879E-01  0.10203067493E+01  0.10200332370E+01 0.  0.
     999903    2    3    3    0    0 -0.84432021527E-02 -0.12582838009E+00  0.15126285923E-01  0.12857231484E+00  0.19949103220E-01 0.  0.
         14    1    1    2    0    0  0.60366514493E-02 -0.14581436466E-01  0.17578353879E-01  0.23623250733E-01  0.00000000000E+00 0. -1.
     999901    1    3    3    0    0  0.24065507034E-02  0.14040981656E+00 -0.32704639802E-01  0.89173443442E+00  0.88000000000E+00 0.  1.
        -11    1    4    4    0    0 -0.33899512616E-02 -0.91233078538E-01  0.19430555299E-01  0.93342241185E-01  0.51100000000E-03 0.  1.
         11    1    4    4    0    0 -0.50532508911E-02 -0.34595301553E-01 -0.43042693763E-02  0.35230073659E-01  0.51100000000E-03 0. -1.
</event>
<event>
 8    1  0.1092667E+005  0.1043930E+01  0.7957747E-01            NaN
         13   -1    0    0    0    0  0.00000000000E+00  0.00000000000E+00  0.74505805969E-08  0.10566000000E+00  0.10566000000E+00 0.  1.
     999900   -1    0    0    0    0 -0.00000000000E+00 -0.00000000000E+00 -0.74505805969E-08  0.93827000000E+00  0.93827000000E+00 0.  1.
     999902    2    1    2    0    0 -0.13620488445E-01  0.81762251769E-02 -0.15776373063E-01  0.10215411119E+01  0.10212957363E+01 0.  0.
     999903    2    3    3    0    0  0.41393816871E-01 -0.49804786405E-01 -0.11380473852E+00  0.13249784415E+00  0.20253280452E-01 0.  0.
         14    1    1    2    0    0  0.13620488445E-01 -0.81762251769E-02  0.15776373063E-01  0.22388888107E-01  0.00000000000E+00 0.  1.
     999901    1    3    3    0    0 -0.55014305316E-01  0.57981011582E-01  0.98028365459E-01  0.88904326775E+00  0.88000000000E+00 0. -1.
        -11    1    4    4    0    0  0.31722167353E-01 -0.25993379000E-01 -0.57778781116E-01  0.70856194660E-01  0.51100000000E-03 0.  1.
         11    1    4    4    0    0  0.96716495172E-02 -0.23811407405E-01 -0.56025957406E-01  0.61641649485E-01  0.51100000000E-03 0. -1.
</event>
<event>
 8    1  0.1092667E+005  0.1043930E+01  0.7957747E-01            NaN
         13   -1    0    0    0    0  0.00000000000E+00  0.00000000000E+00  0.74505805969E-08  0.10566000000E+00  0.10566000000E+00 0.  1.
     999900   -1    0    0    0    0 -0.00000000000E+00 -0.00000000000E+00 -0.74505805969E-08  0.93827000000E+00  0.93827000000E+00 0.  1.
     999902    2    1    2    0    0  0.18804890632E-01 -0.11125555750E-01  0.82945730793E-02  0.10205590384E+01  0.10202914040E+01 0.  0.
     999903    2    3    3    0    0  0.65940657039E-01  0.11035428862E+00  0.14072182403E-01  0.13094535045E+00  0.20552839703E-01 0.  0.
         14    1    1    2    0    0 -0.18804890632E-01  0.11125555750E-01 -0.82945730793E-02  0.23370961577E-01  0.00000000000E+00 0. -1.
     999901    1    3    3    0    0 -0.47135766407E-01 -0.12147984437E+00 -0.57776093233E-02  0.88961368797E+00  0.88000000000E+00 0. -1.
        -11    1    4    4    0    0  0.27115284114E-01  0.27734572848E-01  0.66346143302E-02  0.39353835797E-01  0.51100000000E-03 0. -1.
         11    1    4    4    0    0  0.38825372926E-01  0.82619715768E-01  0.74375680724E-02  0.91591514652E-01  0.51100000000E-03 0.  1.
</event>
<event>
 8    1  0.1092667E+005  0.1043930E+01  0.7957747E-01            NaN
         13   -1    0    0    0    0  0.00000000000E+00  0.00000000000E+00  0.74505805969E-08  0.10566000000E+00  0.10566000000E+00 0. -1.
     999900   -1    0    0    0    0 -0.00000000000E+00 -0.00000000000E+00 -0.74505805969E-08  0.93827000000E+00  0.93827000000E+00 0.  1.
     999902    2    1    2    0    0 -0.15865847117E-01  0.13208480141E-01  0.86387642683E-02  0.10215510523E+01  0.10213058969E+01 0.  0.
     999903    2    3    3    0    0  0.74264672915E-01 -0.93713660826E-01  0.46444572177E-01  0.12970738103E+00  0.19220159704E-01 0.  0.
         14    1    1    2    0    0  0.15865847117E-01 -0.13208480141E-01 -0.86387642683E-02  0.22378947706E-01  0.00000000000E+00 0.  1.
     999901    1    3    3    0    0 -0.90130520032E-01  0.10692214097E+00 -0.37805807909E-01  0.89184367127E+00  0.88000000000E+00 0.  1.
        -11    1    4    4    0    0  0.22409691773E-01 -0.15618885558E-01  0.90569860958E-02  0.28782529242E-01  0.51100000000E-03 0. -1.
         11    1    4    4    0    0  0.51854981142E-01 -0.78094775268E-01  0.37387586081E-01  0.10092485178E+00  0.51100000000E-03 0.  1.
</event>
<event>
 8    1  0.1092667E+005  0.1043930E+01  0.7957747E-01            NaN
         13   -1    0    0    0    0  0.00000000000E+00  0.00000000000E+00  0.74505805969E-08  0.10566000000E+00  0.10566000000E+00 0.  1.
     999900   -1    0    0    0    0 -0.00000000000E+00 -0.00000000000E+00 -0.74505805969E-08  0.93827000000E+00  0.93827000000E+00 0.  1.
     999902    2    1    2    0    0  0.15035941941E-01 -0.33607050939E-02  0.18315346985E-01  0.10199962200E+01  0.10197153833E+01 0.  0.
     999903    2    3    3    0    0  0.20494423610E-01  0.95310964226E-01 -0.81916747967E-01  0.12881028757E+00  0.19430267244E-01 0.  0.
         14    1    1    2    0    0 -0.15035941941E-01  0.33607050939E-02 -0.18315346985E-01  0.23933779976E-01  0.00000000000E+00 0. -1.
     999901    1    3    3    0    0 -0.54584816690E-02 -0.98671669320E-01  0.10023209495E+00  0.89118593246E+00  0.88000000000E+00 0. -1.
        -11    1    4    4    0    0 -0.15238819872E-02  0.27746264723E-01 -0.29321502679E-01  0.40400359686E-01  0.51100000000E-03 0.  1.
         11    1    4    4    0    0  0.22018305597E-01  0.67564699503E-01 -0.52595245288E-01  0.88409927883E-01  0.51100000000E-03 0. -1.
</event>
<event>
 8    1  0.1092667E+005  0.1043930E+01  0.7957747E-01            NaN
         13   -1    0    0    0    0  0.00000000000E+00  0.00000000000E+00  0.74505805969E-08  0.10566000000E+00  0.10566000000E+00 0.  1.
     999900   -1    0    0    0    0 -0.00000000000E+00 -0.00000000000E+00 -0.74505805969E-08  0.93827000000E+00  0.93827000000E+00 0.  1.
     999902    2    1    2    0    0  0.17704130318E-01 -0.32652281746E-02 -0.13820186855E-01  0.10212342843E+01  0.10209820606E+01 0.  0.
     999903    2    3    3    0    0 -0.50367195965E-01  0.38849930897E-01 -0.11382555724E+00  0.13196016112E+00  0.20274493380E-01 0.  0.
         14    1    1    2    0    0 -0.17704130318E-01  0.32652281746E-02  0.13820186855E-01  0.22695715676E-01  0.00000000000E+00 0.  1.
     999901    1    3    3    0    0  0.68071326283E-01 -0.42115159072E-01  0.10000537039E+00  0.88927412320E+00  0.88000000000E+00 0. -1.
        -11    1    4    4    0    0 -0.27031393261E-02 -0.20862136740E-02 -0.30546201215E-02  0.46098888052E-02  0.51100000000E-03 0.  1.
         11    1    4    4    0    0 -0.47664056639E-01  0.40936144571E-01 -0.11077093712E+00  0.12735027232E+00  0.51100000000E-03 0. -1.
</event>
<event>
 8    1  0.1092667E+005  0.1043930E+01  0.7957747E-01            NaN
         13   -1    0    0    0    0  0.00000000000E+00  0.00000000000E+00  0.74505805969E-08  0.10566000000E+00  0.10566000000E+00 0. -1.
     999900   -1    0    0    0    0 -0.00000000000E+00 -0.00000000000E+00 -0.74505805969E-08  0.93827000000E+00  0.93827000000E+00 0.  1.
     999902    2    1    2    0    0 -0.87213481285E-02 -0.13854397963E-01  0.17850146385E-01  0.10197094719E+01  0.10194217837E+01 0.  0.
     999903    2    3    3    0    0 -0.32466813590E-01 -0.66283388271E-01  0.10897746454E+00  0.13313356748E+00  0.20021924693E-01 0.  0.
         14    1    1    2    0    0  0.87213481285E-02  0.13854397963E-01 -0.17850146385E-01  0.24220528113E-01  0.00000000000E+00 0.  1.
     999901    1    3    3    0    0  0.23745465461E-01  0.52428990308E-01 -0.91127318154E-01  0.88657590440E+00  0.88000000000E+00 0.  1.
        -11    1    4    4    0    0 -0.14351537499E-01 -0.10639032884E-01  0.28165971219E-01  0.33357738307E-01  0.51100000000E-03 0. -1.
         11    1    4    4    0    0 -0.18115276091E-01 -0.55644355387E-01  0.80811493320E-01  0.99775829176E-01  0.51100000000E-03 0.  1.
</event>
<event>
 8    1  0.1092667E+005  0.1043930E+01  0.7957747E-01            NaN
         13   -1    0    0    0    0  0.00000000000E+00  0.00000000000E+00  0.74505805969E-08  0.10566000000E+00  0.10566000000E+00 0.  1.
     999900   -1    0    0    0    0 -0.00000000000E+00 -0.00000000000E+00 -0.74505805969E-08  0.93827000000E+00  0.93827000000E+00 0.  1.
     999902    2    1    2    0    0  0.20196925636E-01  0.13047380893E-01 -0.34880093311E-03  0.10198827212E+01  0.10195991828E+01 0.  0.
     999903    2    3    3    0    0  0.21913552038E-03 -0.41612001608E-01  0.12120261594E+00  0.12962348533E+00  0.19508130106E-01 0.  0.
         14    1    1    2    0    0 -0.20196925636E-01 -0.13047380893E-01  0.34880093311E-03  0.24047278753E-01  0.00000000000E+00 0. -1.
     999901    1    3    3    0    0  0.19977790116E-01  0.54659382501E-01 -0.12155141687E+00  0.89025923592E+00  0.88000000000E+00 0. -1.
        -11    1    4    4    0    0  0.95950944621E-02 -0.17333653276E-01  0.56844311659E-01  0.60200151683E-01  0.51100000000E-03 0. -1.
         11    1    4    4    0    0 -0.93759589417E-02 -0.24278348332E-01  0.64358304280E-01  0.69423333647E-01  0.51100000000E-03 0.  1.
</event>
<event>
 8    1  0.1135085E+005  0.1043930E+01  0.7957747E-01            NaN
         13   -1    0    0    0    0  0.00000000000E+00  0.00000000000E+00  0.74505805969E-08  0.10566000000E+00  0.10566000000E+00 0. -1.
     999900   -1    0    0    0    0 -0.00000000000E+00 -0.00000000000E+00 -0.74505805969E-08  0.93827000000E+00  0.93827000000E+00 0.  1.
     999902    2    1    2    0    0  0.17448087313E-01 -0.11563945114E-01  0.14292863469E-01  0.10185834712E+01  0.10182680596E+01 0.  0.
     999903    2    3    3    0    0 -0.54703994106E-01 -0.13002399427E-01 -0.11167914923E+00  0.12668833160E+00  0.20398814386E-01 0.  0.
         14    1    1    2    0    0 -0.17448087313E-01  0.11563945114E-01 -0.14292863469E-01  0.25346528828E-01  0.00000000000E+00 0.  1.
     999901    1    3    3    0    0  0.72152081419E-01  0.14384543130E-02  0.12597201270E+00  0.89189513957E+00  0.88000000000E+00 0. -1.
        -11    1    4    4    0    0 -0.19136850906E-01 -0.14171354259E-01 -0.52145230200E-01  0.57327414888E-01  0.51100000000E-03 0. -1.
         11    1    4    4    0    0 -0.35567143200E-01  0.11689548322E-02 -0.59533919034E-01  0.69360916714E-01  0.51100000000E-03 0.  1.
</event>
<event>
 8    1  0.1092667E+005  0.1043930E+01  0.7957747E-01            NaN
         13   -1    0    0    0    0  0.00000000000E+00  0.00000000000E+00  0.74505805969E-08  0.10566000000E+00  0.10566000000E+00 0. -1.
     999900   -1    0    0    0    0 -0.00000000000E+00 -0.00000000000E+00 -0.74505805969E-08  0.93827000000E+00  0.93827000000E+00 0. -1.
     999902    2    1    2    0    0  0.12968652059E-01 -0.17157044356E-01 -0.89326222640E-02  0.10206417659E+01  0.10203760446E+01 0.  0.
     999903    2    3    3    0    0  0.46258397823E-01 -0.91213150123E-01  0.81466195150E-01  0.13229247639E+00  0.20121635924E-01 0.  0.
         14    1    1    2    0    0 -0.12968652059E-01  0.17157044356E-01  0.89326222640E-02  0.23288234106E-01  0.00000000000E+00 0. -1.
     999901    1    3    3    0    0 -0.33289745764E-01  0.74056105766E-01 -0.90398817414E-01  0.88834928951E+00  0.88000000000E+00 0. -1.
        -11    1    4    4    0    0  0.21145413530E-01 -0.47598517554E-01  0.53699608527E-01  0.74810804458E-01  0.51100000000E-03 0. -1.
         11    1    4    4    0    0  0.25112984293E-01 -0.43614632569E-01  0.27766586623E-01  0.57481671930E-01  0.51100000000E-03 0.  1.
</event>
<event>
 8    1  0.1092667E+005  0.1043930E+01  0.7957747E-01            NaN
         13   -1    0    0    0    0  0.00000000000E+00  0.00000000000E+00  0.74505805969E-08  0.10566000000E+00  0.10566000000E+00 0.  1.
     999900   -1    0    0    0    0 -0.00000000000E+00 -0.00000000000E+00 -0.74505805969E-08  0.93827000000E+00  0.93827000000E+00 0. -1.
     999902    2    1    2    0    0  0.20711455111E-01  0.63690527236E-02 -0.94838427459E-02  0.10202768294E+01  0.10200026158E+01 0.  0.
     999903    2    3    3    0    0  0.12893848433E+00 -0.82514267728E-03 -0.29843643539E-01  0.13338373113E+00  0.16575978681E-01 0.  0.
         14    1    1    2    0    0 -0.20711455111E-01 -0.63690527236E-02  0.94838427459E-02  0.23653170583E-01  0.00000000000E+00 0.  1.
     999901    1    3    3    0    0 -0.10822702922E+00  0.71941954009E-02  0.20359800793E-01  0.88689309829E+00  0.88000000000E+00 0.  1.
        -11    1    4    4    0    0  0.85402815931E-01  0.68512758046E-03 -0.27620224275E-01  0.89762176215E-01  0.51100000000E-03 0. -1.
         11    1    4    4    0    0  0.43535668397E-01 -0.15102702577E-02 -0.22234192641E-02  0.43621554915E-01  0.51100000000E-03 0.  1.
</event>
<event>
 8    1  0.1092667E+005  0.1043930E+01  0.7957747E-01            NaN
         13   -1    0    0    0    0  0.00000000000E+00  0.00000000000E+00  0.74505805969E-08  0.10566000000E+00  0.10566000000E+00 0. -1.
     999900   -1    0    0    0    0 -0.00000000000E+00 -0.00000000000E+00 -0.74505805969E-08  0.93827000000E+00  0.93827000000E+00 0.  1.
     999902    2    1    2    0    0  0.17321597962E-01  0.18325120094E-01  0.49394461876E-02  0.10182347493E+01  0.10179104866E+01 0.  0.
     999903    2    3    3    0    0  0.26241628660E-01 -0.96104788353E-02 -0.12406009891E+00  0.12834663984E+00  0.17348413114E-01 0.  0.
         14    1    1    2    0    0 -0.17321597962E-01 -0.18325120094E-01 -0.49394461876E-02  0.25695250749E-01  0.00000000000E+00 0.  1.
     999901    1    3    3    0    0 -0.89200306977E-02  0.27935598929E-01  0.12899954510E+00  0.88988810941E+00  0.88000000000E+00 0. -1.
        -11    1    4    4    0    0 -0.18012563872E-02 -0.14881976711E-02 -0.23831007196E-01  0.23950726124E-01  0.51100000000E-03 0. -1.
         11    1    4    4    0    0  0.28042885047E-01 -0.81222811642E-02 -0.10022909172E+00  0.10439591372E+00  0.51100000000E-03 0.  1.
</event>
<event>
 8    1  0.1092667E+005  0.1043930E+01  0.7957747E-01            NaN
         13   -1    0    0    0    0  0.00000000000E+00  0.00000000000E+00  0.74505805969E-08  0.10566000000E+00  0.10566000000E+00 0. -1.
     999900   -1    0    0    0    0 -0.00000000000E+00 -0.00000000000E+00 -0.74505805969E-08  0.93827000000E+00  0.93827000000E+00 0. -1.
     999902    2    1    2    0    0 -0.82671213968E-02 -0.19268823149E-01 -0.10530858711E-01  0.10204665854E+01  0.10201968045E+01 0.  0.
     999903    2    3    3    0    0 -0.41037991502E-01 -0.99639838077E-01 -0.76511498126E-01  0.13373839997E+00  0.20487464541E-01 0.  0.
         14    1    1    2    0    0  0.82671213968E-02  0.19268823149E-01  0.10530858711E-01  0.23463414648E-01  0.00000000000E+00 0. -1.
     999901    1    3    3    0    0  0.32770870105E-01  0.80371014928E-01  0.65980639416E-01  0.88672818538E+00  0.88000000000E+00 0.  1.
        -11    1    4    4    0    0 -0.42415840752E-01 -0.90510539295E-01 -0.66217480290E-01  0.11990111379E+00  0.51100000000E-03 0. -1.
         11    1    4    4    0    0  0.13778492502E-02 -0.91292987820E-02 -0.10294017836E-01  0.13837286187E-01  0.51100000000E-03 0.  1.
</event>
<event>
 8    1  0.1092667E+005  0.1043930E+01  0.7957747E-01            NaN
         13   -1    0    0    0    0  0.00000000000E+00  0.00000000000E+00  0.74505805969E-08  0.10566000000E+00  0.10566000000E+00 0.  1.
     999900   -1    0    0    0    0 -0.00000000000E+00 -0.00000000000E+00 -0.74505805969E-08  0.93827000000E+00  0.93827000000E+00 0.  1.
     999902    2    1    2    0    0  0.11968036378E-01  0.25983170714E-01  0.67672316824E-02  0.10145334955E+01  0.10141075184E+01 0.  0.
     999903    2    3    3    0    0 -0.10326513300E+00  0.29892537282E-01  0.61375005290E-01  0.12533386915E+00  0.19607039625E-01 0.  0.
         14    1    1    2    0    0 -0.11968036378E-01 -0.25983170714E-01 -0.67672316824E-02  0.29396504550E-01  0.00000000000E+00 0.  1.
     999901    1    3    3    0    0  0.11523316938E+00 -0.39093665677E-02 -0.54607773608E-01  0.88919962630E+00  0.88000000000E+00 0. -1.
        -11    1    4    4    0    0 -0.91655922293E-01  0.22220059619E-01  0.58892075910E-01  0.11118937389E+00  0.51100000000E-03 0.  1.
         11    1    4    4    0    0 -0.11609210710E-01  0.76724776631E-02  0.24829293803E-02  0.14144495258E-01  0.51100000000E-03 0. -1.
</event>
<event>
 8    1  0.1092667E+005  0.1043930E+01  0.7957747E-01            NaN
         13   -1    0    0    0    0  0.00000000000E+00  0.00000000000E+00  0.74505805969E-08  0.10566000000E+00  0.10566000000E+00 0. -1.
     999900   -1    0    0    0    0 -0.00000000000E+00 -0.00000000000E+00 -0.74505805969E-08  0.93827000000E+00  0.93827000000E+00 0. -1.
     999902    2    1    2    0    0 -0.52555701309E-02  0.14807971537E-01 -0.18291519520E-01  0.10198161715E+01  0.10195310427E+01 0.  0.
     999903    2    3    3    0    0 -0.81868676667E-02  0.11240201186E+00  0.62526563257E-01  0.13073532494E+00  0.21929819956E-01 0.  0.
         14    1    1    2    0    0  0.52555701309E-02 -0.14807971537E-01  0.18291519520E-01  0.24113828497E-01  0.00000000000E+00 0. -1.
     999901    1    3    3    0    0  0.29312975358E-02 -0.97594040323E-01 -0.80818082778E-01  0.88908084656E+00  0.88000000000E+00 0. -1.
        -11    1    4    4    0    0  0.39232705239E-02  0.64648716147E-01  0.42975101658E-01  0.77730103786E-01  0.51100000000E-03 0.  1.
         11    1    4    4    0    0 -0.12110138191E-01  0.47753295713E-01  0.19551461600E-01  0.53005221159E-01  0.51100000000E-03 0. -1.
</event>
<event>
 8    1  0.1092667E+005  0.1043930E+01  0.7957747E-01            NaN
         13   -1    0    0    0    0  0.00000000000E+00  0.00000000000E+00  0.74505805969E-08  0.10566000000E+00  0.10566000000E+00 0.  1.
     999900   -1    0    0    0    0 -0.00000000000E+00 -0.00000000000E+00 -0.74505805969E-08  0.93827000000E+00  0.93827000000E+00 0. -1.
     999902    2    1    2    0    0 -0.16536836319E-01  0.16842637289E-01 -0.37419945233E-02  0.10200313827E+01  0.10197513804E+01 0.  0.
     999903    2    3    3    0    0 -0.80431217459E-01  0.90365127509E-01  0.51537397414E-01  0.13293282014E+00  0.19493443159E-01 0.  0.
         14    1    1    2    0    0  0.16536836319E-01 -0.16842637289E-01  0.37419945233E-02  0.23898617309E-01  0.00000000000E+00 0.  1.
     999901    1    3    3    0    0  0.63894381140E-01 -0.73522490221E-01 -0.55279391937E-01  0.88709856255E+00  0.88000000000E+00 0.  1.
        -11    1    4    4    0    0 -0.35047593782E-01  0.49807588361E-01  0.33185189487E-01  0.69358832246E-01  0.51100000000E-03 0.  1.
         11    1    4    4    0    0 -0.45383623677E-01  0.40557539148E-01  0.18352207927E-01  0.63573987893E-01  0.51100000000E-03 0. -1.
</event>
<event>
 8    1  0.1092667E+005  0.1043930E+01  0.7957747E-01            NaN
         13   -1    0    0    0    0  0.00000000000E+00  0.00000000000E+00  0.74505805969E-08  0.10566000000E+00  0.10566000000E+00 0.  1.
     999900   -1    0    0    0    0 -0.00000000000E+00 -0.00000000000E+00 -0.74505805969E-08  0.93827000000E+00  0.93827000000E+00 0. -1.
     999902    2    1    2    0    0  0.85362318272E-02 -0.94183765616E-02 -0.21606025961E-01  0.10188622233E+01  0.10185537966E+01 0.  0.
     999903    2    3    3    0    0 -0.12609860572E-01  0.12216700299E+00  0.27414500203E-01  0.12747853413E+00  0.20382262850E-01 0.  0.
         14    1    1    2    0    0 -0.85362318272E-02  0.94183765616E-02  0.21606025961E-01  0.25067776700E-01  0.00000000000E+00 0.  1.
     999901    1    3    3    0    0  0.21146092400E-01 -0.13158537955E+00 -0.49020526165E-01  0.89138368917E+00  0.88000000000E+00 0. -1.
        -11    1    4    4    0    0 -0.85560392791E-02  0.26575610094E-01 -0.94319082808E-04  0.27923804847E-01  0.51100000000E-03 0. -1.
         11    1    4    4    0    0 -0.40538212933E-02  0.95591392896E-01  0.27508819286E-01  0.99554729281E-01  0.51100000000E-03 0.  1.
</event>
<event>
 8    1  0.1092667E+005  0.1043930E+01  0.7957747E-01            NaN
         13   -1    0    0    0    0  0.00000000000E+00  0.00000000000E+00  0.74505805969E-08  0.10566000000E+00  0.10566000000E+00 0.  1.
     999900   -1    0    0    0    0 -0.00000000000E+00 -0.00000000000E+00 -0.74505805969E-08  0.93827000000E+00  0.93827000000E+00 0.  1.
     999902    2    1    2    0    0 -0.26455998186E-01 -0.37850921527E-02  0.12873928909E-01  0.10142654621E+01  0.10138315653E+01 0.  0.
     999903    2    3    3    0    0 -0.22180893112E-01  0.79568521831E-01  0.93864201644E-01  0.12661377042E+00  0.19935315990E-01 0.  0.
         14    1    1    2    0    0  0.26455998186E-01  0.37850921527E-02 -0.12873928909E-01  0.29664537889E-01  0.00000000000E+00 0. -1.
     999901    1    3    3    0    0 -0.42751050731E-02 -0.83353613984E-01 -0.80990272735E-01  0.88765169169E+00  0.88000000000E+00 0.  1.
        -11    1    4    4    0    0 -0.83823024873E-02  0.51082985910E-01  0.46145850764E-01  0.69350090902E-01  0.51100000000E-03 0. -1.
         11    1    4    4    0    0 -0.13798590625E-01  0.28485535921E-01  0.47718350881E-01  0.57263679516E-01  0.51100000000E-03 0.  1.
</event>
<event>
 8    1  0.1092667E+005  0.1043930E+01  0.7957747E-01            NaN
         13   -1    0    0    0    0  0.00000000000E+00  0.00000000000E+00  0.74505805969E-08  0.10566000000E+00  0.10566000000E+00 0. -1.
     999900   -1    0    0    0    0 -0.00000000000E+00 -0.00000000000E+00 -0.74505805969E-08  0.93827000000E+00  0.93827000000E+00 0. -1.
     999902    2    1    2    0    0  0.95973883802E-02 -0.16691878082E-01 -0.12575766785E-01  0.10209326400E+01  0.10206735897E+01 0.  0.
     999903    2    3    3    0    0  0.11102629449E+00 -0.47142688577E-02  0.67383677482E-01  0.13142446192E+00  0.19564426911E-01 0.  0.
         14    1    1    2    0    0 -0.95973883802E-02  0.16691878082E-01  0.12575766785E-01  0.22997360020E-01  0.00000000000E+00 0. -1.
     999901    1    3    3    0    0 -0.10142890611E+00 -0.11977609224E-01 -0.79959444267E-01  0.88950817806E+00  0.88000000000E+00 0. -1.
        -11    1    4    4    0    0  0.39093973561E-01  0.64765970444E-02  0.29145861524E-01  0.49193774434E-01  0.51100000000E-03 0.  1.
         11    1    4    4    0    0  0.71932320927E-01 -0.11190865902E-01  0.38237815958E-01  0.82230687482E-01  0.51100000000E-03 0. -1.
</event>
<event>
 8    1  0.1092667E+005  0.1043930E+01  0.7957747E-01            NaN
         13   -1    0    0    0    0  0.00000000000E+00  0.00000000000E+00  0.74505805969E-08  0.10566000000E+00  0.10566000000E+00 0. -1.
     999900   -1    0    0    0    0 -0.00000000000E+00 -0.00000000000E+00 -0.74505805969E-08  0.93827000000E+00  0.93827000000E+00 0.  1.
     999902    2    1    2    0    0  0.57400546627E-02  0.21341190397E-01  0.10291837613E-01  0.10195513914E+01  0.10192598899E+01 0.  0.
     999903    2    3    3    0    0  0.15061688722E-01 -0.77330726563E-02  0.12856936276E+00  0.13111356096E+00  0.19339853872E-01 0.  0.
         14    1    1    2    0    0 -0.57400546627E-02 -0.21341190397E-01 -0.10291837613E-01  0.24378608585E-01  0.00000000000E+00 0.  1.
     999901    1    3    3    0    0 -0.93216340594E-02  0.29074263053E-01 -0.11827752514E+00  0.88843783046E+00  0.88000000000E+00 0.  1.
        -11    1    4    4    0    0  0.17232361832E-01 -0.11849919320E-01  0.10925687358E+00  0.11124163082E+00  0.51100000000E-03 0.  1.
         11    1    4    4    0    0 -0.21706731103E-02  0.41168466640E-02  0.19312489177E-01  0.19871930138E-01  0.51100000000E-03 0. -1.
</event>
<event>
 8    1  0.1092667E+005  0.1043930E+01  0.7957747E-01            NaN
         13   -1    0    0    0    0  0.00000000000E+00  0.00000000000E+00  0.74505805969E-08  0.10566000000E+00  0.10566000000E+00 0.  1.
     999900   -1    0    0    0    0 -0.00000000000E+00 -0.00000000000E+00 -0.74505805969E-08  0.93827000000E+00  0.93827000000E+00 0.  1.
     999902    2    1    2    0    0 -0.52640672079E-02 -0.19328846942E-01  0.12572276460E-01  0.10202788507E+01  0.10200046845E+01 0.  0.
     999903    2    3    3    0    0 -0.94970442917E-01  0.17029862438E-02 -0.86415100629E-01  0.12994853409E+00  0.19919003653E-01 0.  0.
         14    1    1    2    0    0  0.52640672079E-02  0.19328846942E-01 -0.12572276460E-01  0.23651149297E-01  0.00000000000E+00 0. -1.
     999901    1    3    3    0    0  0.89706375709E-01 -0.21031833186E-01  0.98987377089E-01  0.89033031661E+00  0.88000000000E+00 0. -1.
        -11    1    4    4    0    0 -0.69502619972E-01 -0.72234124770E-02 -0.65825892135E-01  0.96000526389E-01  0.51100000000E-03 0. -1.
         11    1    4    4    0    0 -0.25467822945E-01  0.89263987208E-02 -0.20589208494E-01  0.33948007704E-01  0.51100000000E-03 0.  1.
</event>
<event>
 8    1  0.1092667E+005  0.1043930E+01  0.7957747E-01            NaN
         13   -1    0    0    0    0  0.00000000000E+00  0.00000000000E+00  0.74505805969E-08  0.10566000000E+00  0.10566000000E+00 0.  1.
     999900   -1    0    0    0    0 -0.00000000000E+00 -0.00000000000E+00 -0.74505805969E-08  0.93827000000E+00  0.93827000000E+00 0. -1.
     999902    2    1    2    0    0 -0.19335337605E-01  0.29038486488E-02  0.12183219933E-01  0.10208926724E+01  0.10206327106E+01 0.  0.
     999903    2    3    3    0    0  0.10218165735E+00 -0.49465613772E-01 -0.56394349566E-01  0.12836153917E+00  0.20209503481E-01 0.  0.
         14    1    1    2    0    0  0.19335337605E-01 -0.29038486488E-02 -0.12183219933E-01  0.23037327649E-01  0.00000000000E+00 0. -1.
     999901    1    3    3    0    0 -0.12151699495E+00  0.52369462421E-01  0.68577569499E-01  0.89253113318E+00  0.88000000000E+00 0.  1.
        -11    1    4    4    0    0  0.63809076738E-01 -0.30888179116E-01 -0.45891119106E-01  0.84450777480E-01  0.51100000000E-03 0.  1.
         11    1    4    4    0    0  0.38372580611E-01 -0.18577434657E-01 -0.10503230460E-01  0.43910761690E-01  0.51100000000E-03 0. -1.
</event>
<event>
 8    1  0.1092667E+005  0.1043930E+01  0.7957747E-01            NaN
         13   -1    0    0    0    0  0.00000000000E+00  0.00000000000E+00  0.74505805969E-08  0.10566000000E+00  0.10566000000E+00 0.  1.
     999900   -1    0    0    0    0 -0.00000000000E+00 -0.00000000000E+00 -0.74505805969E-08  0.93827000000E+00  0.93827000000E+00 0. -1.
     999902    2    1    2    0    0 -0.13631761991E-01 -0.10324834759E-01 -0.16335478579E-01  0.10202810041E+01  0.10200068883E+01 0.  0.
     999903    2    3    3    0    0  0.43540912227E-01  0.11913094208E+00 -0.11241455261E-01  0.12895981511E+00  0.20402725228E-01 0.  0.
         14    1    1    2    0    0  0.13631761991E-01  0.10324834759E-01  0.16335478579E-01  0.23648995923E-01  0.00000000000E+00 0. -1.
     999901    1    3    3    0    0 -0.57172674217E-01 -0.12945577684E+00 -0.50940233183E-02  0.89132118897E+00  0.88000000000E+00 0.  1.
        -11    1    4    4    0    0  0.24808857788E-01  0.89246979897E-01 -0.13516121878E-01  0.93613297758E-01  0.51100000000E-03 0.  1.
         11    1    4    4    0    0  0.18732054439E-01  0.29883962186E-01  0.22746666173E-02  0.35346517348E-01  0.51100000000E-03 0. -1.
</event>
<event>
 8    1  0.1092667E+005  0.1043930E+01  0.7957747E-01            NaN
         13   -1    0    0    0    0  0.00000000000E+00  0.00000000000E+00  0.74505805969E-08  0.10566000000E+00  0.10566000000E+00 0.  1.
     999900   -1    0    0    0    0 -0.00000000000E+00 -0.00000000000E+00 -0.74505805969E-08  0.93827000000E+00  0.93827000000E+00 0. -1.
     999902    2    1    2    0    0 -0.13677457057E-01  0.18481028661E-01 -0.60824527116E-02  0.10201472860E+01  0.10198700249E+01 0.  0.
     999903    2    3    3    0    0  0.69388367530E-01 -0.46328224145E-01  0.95592989340E-01  0.12804972077E+00  0.17252868649E-01 0.  0.
         14    1    1    2    0    0  0.13677457057E-01 -0.18481028661E-01  0.60824527116E-02  0.23782713952E-01  0.00000000000E+00 0. -1.
     999901    1    3    3    0    0 -0.83065824587E-01  0.64809252806E-01 -0.10167544205E+00  0.89209756528E+00  0.88000000000E+00 0. -1.
        -11    1    4    4    0    0  0.62470011127E-01 -0.41747330626E-01  0.76512906826E-01  0.10723725069E+00  0.51100000000E-03 0.  1.
         11    1    4    4    0    0  0.69183564025E-02 -0.45808935190E-02  0.19080082515E-01  0.20812470073E-01  0.51100000000E-03 0. -1.
</event>
<event>
 8    1  0.1092667E+005  0.1043930E+01  0.7957747E-01            NaN
         13   -1    0    0    0    0  0.00000000000E+00  0.00000000000E+00  0.74505805969E-08  0.10566000000E+00  0.10566000000E+00 0.  1.
     999900   -1    0    0    0    0 -0.00000000000E+00 -0.00000000000E+00 -0.74505805969E-08  0.93827000000E+00  0.93827000000E+00 0.  1.
     999902    2    1    2    0    0  0.19953794940E-01  0.80339249235E-02  0.88761459133E-02  0.10206601945E+01  0.10203948984E+01 0.  0.
     999903    2    3    3    0    0  0.39643658864E-02  0.13039266535E+00  0.85429467892E-02  0.13205036210E+00  0.18610556565E-01 0.  0.
         14    1    1    2    0    0 -0.19953794940E-01 -0.80339249235E-02 -0.88761459133E-02  0.23269805510E-01  0.00000000000E+00 0. -1.
     999901    1    3    3    0    0  0.15989429054E-01 -0.12235874043E+00  0.33319912408E-03  0.88860983239E+00  0.88000000000E+00 0.  1.
        -11    1    4    4    0    0  0.11426976620E-01  0.79928145259E-01  0.42517960606E-02  0.80854332536E-01  0.51100000000E-03 0.  1.
         11    1    4    4    0    0 -0.74626107335E-02  0.50464520095E-01  0.42911507286E-02  0.51196029562E-01  0.51100000000E-03 0. -1.
</event>
<event>
 8    1  0.1092667E+005  0.1043930E+01  0.7957747E-01            NaN
         13   -1    0    0    0    0  0.00000000000E+00  0.00000000000E+00  0.74505805969E-08  0.10566000000E+00  0.10566000000E+00 0.  1.
     999900   -1    0    0    0    0 -0.00000000000E+00 -0.00000000000E+00 -0.74505805969E-08  0.93827000000E+00  0.93827000000E+00 0.  1.
     999902    2    1    2    0    0 -0.10081380313E-01 -0.16635629246E-01  0.14255066451E-02  0.10244258861E+01  0.10242401992E+01 0.  0.
     999903    2    3    3    0    0 -0.86481986038E-01  0.47270216090E-01 -0.88850396464E-01  0.13421762491E+00  0.20158637032E-01 0.  0.
         14    1    1    2    0    0  0.10081380313E-01  0.16635629246E-01 -0.14255066451E-02  0.19504113890E-01  0.00000000000E+00 0.  1.
     999901    1    3    3    0    0  0.76400605725E-01 -0.63905845336E-01  0.90275903109E-01  0.89020826120E+00  0.88000000000E+00 0.  1.
        -11    1    4    4    0    0 -0.57169017478E-01  0.37136317620E-01 -0.70989823493E-01  0.98423669949E-01  0.51100000000E-03 0.  1.
         11    1    4    4    0    0 -0.29312968560E-01  0.10133898469E-01 -0.17860572971E-01  0.35793954963E-01  0.51100000000E-03 0. -1.
</event>
<event>
 8    1  0.1092667E+005  0.1043930E+01  0.7957747E-01            NaN
         13   -1    0    0    0    0  0.00000000000E+00  0.00000000000E+00  0.74505805969E-08  0.10566000000E+00  0.10566000000E+00 0. -1.
     999900   -1    0    0    0    0 -0.00000000000E+00 -0.00000000000E+00 -0.74505805969E-08  0.93827000000E+00  0.93827000000E+00 0.  1.
     999902    2    1    2    0    0  0.40623309577E-02  0.22217506193E-01 -0.10539589191E-01  0.10190060546E+01  0.10187012007E+01 0.  0.
     999903    2    3    3    0    0 -0.73886925614E-01 -0.80179880776E-01 -0.64138050915E-01  0.12803237005E+00  0.19761253668E-01 0.  0.
         14    1    1    2    0    0 -0.40623309577E-02 -0.22217506193E-01  0.10539589191E-01  0.24923945406E-01  0.00000000000E+00 0. -1.
     999901    1    3    3    0    0  0.77949256572E-01  0.10239738697E+00  0.53598461724E-01  0.89097368455E+00  0.88000000000E+00 0. -1.
        -11    1    4    4    0    0 -0.28452743129E-01 -0.38995947135E-01 -0.18966946698E-01  0.51867607160E-01  0.51100000000E-03 0. -1.
         11    1    4    4    0    0 -0.45434182485E-01 -0.41183933641E-01 -0.45171104217E-01  0.76164762886E-01  0.51100000000E-03 0.  1.
</event>
<event>
 8    1  0.1092667E+005  0.1043930E+01  0.7957747E-01            NaN
         13   -1    0    0    0    0  0.00000000000E+00  0.00000000000E+00  0.74505805969E-08  0.10566000000E+00  0.10566000000E+00 0. -1.
     999900   -1    0    0    0    0 -0.00000000000E+00 -0.00000000000E+00 -0.74505805969E-08  0.93827000000E+00  0.93827000000E+00 0. -1.
     999902    2    1    2    0    0  0.11174709779E-01  0.17341765220E-02  0.19646836408E-01  0.10212610854E+01  0.10210094637E+01 0.  0.
     999903    2    3    3    0    0 -0.74029464031E-01  0.10570460971E+00  0.95153763440E-02  0.13099581671E+00  0.20384689127E-01 0.  0.
         14    1    1    2    0    0 -0.11174709779E-01 -0.17341765220E-02 -0.19646836408E-01  0.22668914568E-01  0.00000000000E+00 0.  1.
     999901    1    3    3    0    0  0.85204173809E-01 -0.10397043318E+00  0.10131460064E-01  0.89026526872E+00  0.88000000000E+00 0.  1.
        -11    1    4    4    0    0 -0.33917724872E-01  0.57353641465E-01 -0.39219286265E-02  0.66749493593E-01  0.51100000000E-03 0. -1.
         11    1    4    4    0    0 -0.40111739159E-01  0.48350968241E-01  0.13437304970E-01  0.64246323117E-01  0.51100000000E-03 0.  1.
</event>
<event>
 8    1  0.1092667E+005  0.1043930E+01  0.7957747E-01            NaN
         13   -1    0    0    0    0  0.00000000000E+00  0.00000000000E+00  0.74505805969E-08  0.10566000000E+00  0.10566000000E+00 0. -1.
     999900   -1    0    0    0    0 -0.00000000000E+00 -0.00000000000E+00 -0.74505805969E-08  0.93827000000E+00  0.93827000000E+00 0.  1.
     999902    2    1    2    0    0 -0.60268194682E-02  0.19651060470E-02  0.23161467475E-01  0.10199167168E+01  0.10196339890E+01 0.  0.
     999903    2    3    3    0    0 -0.12209979066E+00  0.39962435858E-01 -0.13175805552E-01  0.13073893416E+00  0.20339908970E-01 0.  0.
         14    1    1    2    0    0  0.60268194682E-02 -0.19651060470E-02 -0.23161467475E-01  0.24013283204E-01  0.00000000000E+00 0.  1.
     999901    1    3    3    0    0  0.11607297119E+00 -0.37997329811E-01  0.36337273027E-01  0.88917778263E+00  0.88000000000E+00 0. -1.
        -11    1    4    4    0    0 -0.17588840879E-01  0.95170946771E-02 -0.86313690415E-02  0.21787704493E-01  0.51100000000E-03 0.  1.
         11    1    4    4    0    0 -0.10451094978E+00  0.30445341181E-01 -0.45444365107E-02  0.10895122967E+00  0.51100000000E-03 0. -1.
</event>
<event>
 8    1  0.1092667E+005  0.1043930E+01  0.7957747E-01            NaN
         13   -1    0    0    0    0  0.00000000000E+00  0.00000000000E+00  0.74505805969E-08  0.10566000000E+00  0.10566000000E+00 0. -1.
     999900   -1    0    0    0    0 -0.00000000000E+00 -0.00000000000E+00 -0.74505805969E-08  0.93827000000E+00  0.93827000000E+00 0. -1.
     999902    2    1    2    0    0 -0.21793185993E-01  0.25068661073E-02  0.49153221728E-02  0.10214491698E+01  0.10212017523E+01 0.  0.
     999903    2    3    3    0    0 -0.39443908117E-01 -0.12251153658E+00 -0.16385828165E-01  0.13218268108E+00  0.25275824978E-01 0.  0.
         14    1    1    2    0    0  0.21793185993E-01 -0.25068661073E-02 -0.49153221728E-02  0.22480830177E-01  0.00000000000E+00 0. -1.
     999901    1    3    3    0    0  0.17650722124E-01  0.12501840269E+00  0.21301150338E-01  0.88926648875E+00  0.88000000000E+00 0.  1.
        -11    1    4    4    0    0 -0.28562385283E-01 -0.97534414752E-01 -0.22868314470E-01  0.10417289879E+00  0.51100000000E-03 0. -1.
         11    1    4    4    0    0 -0.10881522834E-01 -0.24977121831E-01  0.64824863055E-02  0.28009782288E-01  0.51100000000E-03 0.  1.
</event>
<event>
 8    1  0.1092667E+005  0.1043930E+01  0.7957747E-01            NaN
         13   -1    0    0    0    0  0.00000000000E+00  0.00000000000E+00  0.74505805969E-08  0.10566000000E+00  0.10566000000E+00 0. -1.
     999900   -1    0    0    0    0 -0.00000000000E+00 -0.00000000000E+00 -0.74505805969E-08  0.93827000000E+00  0.93827000000E+00 0. -1.
     999902    2    1    2    0    0 -0.25639721726E-02  0.51438101234E-02 -0.17612075964E-01  0.10254038575E+01  0.10252364864E+01 0.  0.
     999903    2    3    3    0    0  0.82840034621E-01  0.82684799429E-01 -0.67129319431E-01  0.13649530946E+00  0.20624659600E-01 0.  0.
         14    1    1    2    0    0  0.25639721726E-02 -0.51438101234E-02  0.17612075964E-01  0.18526142492E-01  0.00000000000E+00 0. -1.
     999901    1    3    3    0    0 -0.85404006793E-01 -0.77540989306E-01  0.49517243467E-01  0.88890854805E+00  0.88000000000E+00 0.  1.
        -11    1    4    4    0    0  0.35818270765E-01  0.46475188953E-01 -0.41372046239E-01  0.71796929181E-01  0.51100000000E-03 0.  1.
         11    1    4    4    0    0  0.47021763856E-01  0.36209610476E-01 -0.25757273192E-01  0.64698380275E-01  0.51100000000E-03 0. -1.
</event>
<event>
 8    1  0.1092667E+005  0.1043930E+01  0.7957747E-01            NaN
         13   -1    0    0    0    0  0.00000000000E+00  0.00000000000E+00  0.74505805969E-08  0.10566000000E+00  0.10566000000E+00 0.  1.
     999900   -1    0    0    0    0 -0.00000000000E+00 -0.00000000000E+00 -0.74505805969E-08  0.93827000000E+00  0.93827000000E+00 0. -1.
     999902    2    1    2    0    0 -0.62545316444E-02 -0.10687813647E-01 -0.19675944296E-01  0.10206815310E+01  0.10204167268E+01 0.  0.
     999903    2    3    3    0    0 -0.69111651323E-01 -0.10353067087E+00 -0.43485730038E-01  0.13324831125E+00  0.19211547926E-01 0.  0.
         14    1    1    2    0    0  0.62545316444E-02  0.10687813647E-01  0.19675944296E-01  0.23248468994E-01  0.00000000000E+00 0.  1.
     999901    1    3    3    0    0  0.62857119679E-01  0.92842857226E-01  0.23809785743E-01  0.88743321976E+00  0.88000000000E+00 0.  1.
        -11    1    4    4    0    0 -0.21791371680E-01 -0.27231349742E-01 -0.20917266240E-01  0.40671899838E-01  0.51100000000E-03 0. -1.
         11    1    4    4    0    0 -0.47320279643E-01 -0.76299321130E-01 -0.22568463799E-01  0.92576411411E-01  0.51100000000E-03 0.  1.
</event>
<event>
 8    1  0.1092667E+005  0.1043930E+01  0.7957747E-01            NaN
         13   -1    0    0    0    0  0.00000000000E+00  0.00000000000E+00  0.74505805969E-08  0.10566000000E+00  0.10566000000E+00 0. -1.
     999900   -1    0    0    0    0 -0.00000000000E+00 -0.00000000000E+00 -0.74505805969E-08  0.93827000000E+00  0.93827000000E+00 0.  1.
     999902    2    1    2    0    0  0.13301368710E-01  0.11227289323E-01  0.17388816211E-01  0.10193261514E+01  0.10190291721E+01 0.  0.
     999903    2    3    3    0    0 -0.12666632589E+00 -0.34315364827E-02  0.17668943187E-02  0.12800697114E+00  0.18070118647E-01 0.  0.
         14    1    1    2    0    0 -0.13301368710E-01 -0.11227289323E-01 -0.17388816211E-01  0.24603848567E-01  0.00000000000E+00 0.  1.
     999901    1    3    3    0    0  0.13996769460E+00  0.14658825806E-01  0.15621921892E-01  0.89131918029E+00  0.88000000000E+00 0. -1.
        -11    1    4    4    0    0 -0.99327737426E-01 -0.74827483191E-02  0.70697211259E-02  0.99861068602E-01  0.51100000000E-03 0. -1.
         11    1    4    4    0    0 -0.27338588468E-01  0.40512118364E-02 -0.53028268072E-02  0.28145902542E-01  0.51100000000E-03 0.  1.
</event>
<event>
 8    1  0.1092667E+005  0.1043930E+01  0.7957747E-01            NaN
         13   -1    0    0    0    0  0.00000000000E+00  0.00000000000E+00  0.74505805969E-08  0.10566000000E+00  0.10566000000E+00 0. -1.
     999900   -1    0    0    0    0 -0.00000000000E+00 -0.00000000000E+00 -0.74505805969E-08  0.93827000000E+00  0.93827000000E+00 0. -1.
     999902    2    1    2    0    0 -0.43470007189E-02  0.22973596413E-01 -0.24752522855E-02  0.10204181004E+01  0.10201471905E+01 0.  0.
     999903    2    3    3    0    0 -0.97853554880E-01 -0.11498790973E-01 -0.84019602118E-01  0.13104680443E+00  0.20160134301E-01 0.  0.
         14    1    1    2    0    0  0.43470007189E-02 -0.22973596413E-01  0.24752522855E-02  0.23511899567E-01  0.00000000000E+00 0.  1.
     999901    1    3    3    0    0  0.93506554161E-01  0.34472387386E-01  0.81544349832E-01  0.88937129600E+00  0.88000000000E+00 0.  1.
        -11    1    4    4    0    0 -0.89711494236E-01 -0.15454323939E-01 -0.79746765341E-01  0.12102394817E+00  0.51100000000E-03 0.  1.
         11    1    4    4    0    0 -0.81420606437E-02  0.39555329660E-02 -0.42728367770E-02  0.10022856264E-01  0.51100000000E-03 0. -1.
</event>
<event>
 8    1  0.1092667E+005  0.1043930E+01  0.7957747E-01            NaN
         13   -1    0    0    0    0  0.00000000000E+00  0.00000000000E+00  0.74505805969E-08  0.10566000000E+00  0.10566000000E+00 0. -1.
     999900   -1    0    0    0    0 -0.00000000000E+00 -0.00000000000E+00 -0.74505805969E-08  0.93827000000E+00  0.93827000000E+00 0. -1.
     999902    2    1    2    0    0 -0.90438216930E-02 -0.26983932509E-01  0.12242178881E-04  0.10154708455E+01  0.10150719751E+01 0.  0.
     999903    2    3    3    0    0 -0.61320735740E-01  0.89567856544E-01 -0.57203457409E-01  0.12440921377E+00  0.20561696778E-01 0.  0.
         14    1    1    2    0    0  0.90438216930E-02  0.26983932509E-01 -0.12242178881E-04  0.28459154491E-01  0.00000000000E+00 0.  1.
     999901    1    3    3    0    0  0.52276914047E-01 -0.11655178905E+00  0.57215699588E-01  0.89106163174E+00  0.88000000000E+00 0.  1.
        -11    1    4    4    0    0 -0.22663023884E-01  0.38237884133E-01 -0.34450741467E-01  0.56239338040E-01  0.51100000000E-03 0.  1.
         11    1    4    4    0    0 -0.38657711856E-01  0.51329972412E-01 -0.22752715942E-01  0.68169875733E-01  0.51100000000E-03 0. -1.
</event>
<event>
 8    1  0.1092667E+005  0.1043930E+01  0.7957747E-01            NaN
         13   -1    0    0    0    0  0.00000000000E+00  0.00000000000E+00  0.74505805969E-08  0.10566000000E+00  0.10566000000E+00 0.  1.
     999900   -1    0    0    0    0 -0.00000000000E+00 -0.00000000000E+00 -0.74505805969E-08  0.93827000000E+00  0.93827000000E+00 0. -1.
     999902    2    1    2    0    0  0.34549491191E-02  0.21587919491E-01 -0.15252655280E-01  0.10172725726E+01  0.10169232363E+01 0.  0.
     999903    2    3    3    0    0 -0.45712082881E-01 -0.87729764176E-01  0.73187553454E-01  0.12475398821E+00  0.20519102076E-01 0.  0.
         14    1    1    2    0    0 -0.34549491191E-02 -0.21587919491E-01  0.15252655280E-01  0.26657427379E-01  0.00000000000E+00 0.  1.
     999901    1    3    3    0    0  0.49167032000E-01  0.10931768367E+00 -0.88440208734E-01  0.89251858441E+00  0.88000000000E+00 0. -1.
        -11    1    4    4    0    0 -0.41688412350E-01 -0.71736910390E-01  0.52078504395E-01  0.97961930246E-01  0.51100000000E-03 0.  1.
         11    1    4    4    0    0 -0.40236705316E-02 -0.15992853787E-01  0.21109049059E-01  0.26792057964E-01  0.51100000000E-03 0. -1.
</event>
<event>
 8    1  0.1092667E+005  0.1043930E+01  0.7957747E-01            NaN
         13   -1    0    0    0    0  0.00000000000E+00  0.00000000000E+00  0.74505805969E-08  0.10566000000E+00  0.10566000000E+00 0.  1.
     999900   -1    0    0    0    0 -0.00000000000E+00 -0.00000000000E+00 -0.74505805969E-08  0.93827000000E+00  0.93827000000E+00 0. -1.
     999902    2    1    2    0    0  0.93772333917E-03 -0.44885565017E-02 -0.23593780241E-01  0.10198947565E+01  0.10196115051E+01 0.  0.
     999903    2    3    3    0    0 -0.11177958083E+00 -0.56749743615E-01 -0.32498810150E-01  0.13112272616E+00  0.20537491672E-01 0.  0.
         14    1    1    2    0    0 -0.93772333917E-03  0.44885565017E-02  0.23593780241E-01  0.24035243510E-01  0.00000000000E+00 0.  1.
     999901    1    3    3    0    0  0.11271730417E+00  0.52261187114E-01  0.89050299084E-02  0.88877203033E+00  0.88000000000E+00 0.  1.
        -11    1    4    4    0    0 -0.29937144549E-01 -0.24799462869E-01 -0.14111720544E-01  0.41359977757E-01  0.51100000000E-03 0. -1.
         11    1    4    4    0    0 -0.81842436279E-01 -0.31950280747E-01 -0.18387089605E-01  0.89762748404E-01  0.51100000000E-03 0.  1.
</event>
<event>
 8    1  0.1092667E+005  0.1043930E+01  0.7957747E-01            NaN
         13   -1    0    0    0    0  0.00000000000E+00  0.00000000000E+00  0.74505805969E-08  0.10566000000E+00  0.10566000000E+00 0.  1.
     999900   -1    0    0    0    0 -0.00000000000E+00 -0.00000000000E+00 -0.74505805969E-08  0.93827000000E+00  0.93827000000E+00 0. -1.
     999902    2    1    2    0    0  0.10077354719E-01  0.80538147992E-02  0.20951972018E-01  0.10193250789E+01  0.10190280734E+01 0.  0.
     999903    2    3    3    0    0 -0.54989054144E-01  0.59174459691E-01  0.10169993311E+00  0.13176257906E+00  0.22205586956E-01 0.  0.
         14    1    1    2    0    0 -0.10077354719E-01 -0.80538147992E-02 -0.20951972018E-01  0.24604921101E-01  0.00000000000E+00 0. -1.
     999901    1    3    3    0    0  0.65066408863E-01 -0.51120644892E-01 -0.80747961087E-01  0.88756249984E+00  0.88000000000E+00 0. -1.
        -11    1    4    4    0    0 -0.12737791171E-01  0.12747786044E-01  0.99495769325E-02  0.20591565630E-01  0.51100000000E-03 0. -1.
         11    1    4    4    0    0 -0.42251262974E-01  0.46426673647E-01  0.91750356173E-01  0.11117101343E+00  0.51100000000E-03 0.  1.
</event>
<event>
 8    1  0.1092667E+005  0.1043930E+01  0.7957747E-01            NaN
         13   -1    0    0    0    0  0.00000000000E+00  0.00000000000E+00  0.74505805969E-08  0.10566000000E+00  0.10566000000E+00 0. -1.
     999900   -1    0    0    0    0 -0.00000000000E+00 -0.00000000000E+00 -0.74505805969E-08  0.93827000000E+00  0.93827000000E+00 0.  1.
     999902    2    1    2    0    0 -0.21524765166E-01  0.87478474161E-02 -0.41553691401E-02  0.10203268764E+01  0.10200538355E+01 0.  0.
     999903    2    3    3    0    0 -0.13045635957E+00  0.86749499771E-02  0.16398497758E-01  0.13337222199E+00  0.20618495605E-01 0.  0.
         14    1    1    2    0    0  0.21524765166E-01 -0.87478474161E-02  0.41553691401E-02  0.23603123576E-01  0.00000000000E+00 0.  1.
     999901    1    3    3    0    0  0.10893159440E+00  0.72897438963E-04 -0.20553866898E-01  0.88695465443E+00  0.88000000000E+00 0. -1.
        -11    1    4    4    0    0 -0.70486348466E-01 -0.36181907094E-02  0.14889783548E-01  0.72134481347E-01  0.51100000000E-03 0.  1.
         11    1    4    4    0    0 -0.59970011104E-01  0.12293140686E-01  0.15087142093E-02  0.61237740645E-01  0.51100000000E-03 0. -1.
</event>
<event>
 8    1  0.1092667E+005  0.1043930E+01  0.7957747E-01            NaN
         13   -1    0    0    0    0  0.00000000000E+00  0.00000000000E+00  0.74505805969E-08  0.10566000000E+00  0.10566000000E+00 0. -1.
     999900   -1    0    0    0    0 -0.00000000000E+00 -0.00000000000E+00 -0.74505805969E-08  0.93827000000E+00  0.93827000000E+00 0.  1.
     999902    2    1    2    0    0  0.55658194093E-02  0.17242322914E-01 -0.10683291084E-01  0.10228964850E+01  0.10226802092E+01 0.  0.
     999903    2    3    3    0    0  0.63023654559E-01  0.97395150220E-01 -0.67432329425E-01  0.13557110392E+00  0.19354814536E-01 0.  0.
         14    1    1    2    0    0 -0.55658194093E-02 -0.17242322914E-01  0.10683291084E-01  0.21033515007E-01  0.00000000000E+00 0.  1.
     999901    1    3    3    0    0 -0.57457835150E-01 -0.80152827306E-01  0.56749038341E-01  0.88732538107E+00  0.88000000000E+00 0. -1.
        -11    1    4    4    0    0  0.32418899475E-01  0.62037380599E-01 -0.48283534797E-01  0.85036359801E-01  0.51100000000E-03 0. -1.
         11    1    4    4    0    0  0.30604755084E-01  0.35357769621E-01 -0.19148794628E-01  0.50534744118E-01  0.51100000000E-03 0.  1.
</event>
<event>
 8    1  0.1092667E+005  0.1043930E+01  0.7957747E-01            NaN
         13   -1    0    0    0    0  0.00000000000E+00  0.00000000000E+00  0.74505805969E-08  0.10566000000E+00  0.10566000000E+00 0. -1.
     999900   -1    0    0    0    0 -0.00000000000E+00 -0.00000000000E+00 -0.74505805969E-08  0.93827000000E+00  0.93827000000E+00 0.  1.
     999902    2    1    2    0    0  0.13612160897E-01  0.15280229859E-01 -0.10410561940E-01  0.10209701187E+01  0.10207119217E+01 0.  0.
     999903    2    3    3    0    0 -0.11266460621E+00 -0.52850104503E-01 -0.27880447507E-01  0.12917823645E+00  0.20573049881E-01 0.  0.
         14    1    1    2    0    0 -0.13612160897E-01 -0.15280229859E-01  0.10410561940E-01  0.22959881287E-01  0.00000000000E+00 0. -1.
     999901    1    3    3    0    0  0.12627676710E+00  0.68130334361E-01  0.17469885566E-01  0.89179188226E+00  0.88000000000E+00 0. -1.
        -11    1    4    4    0    0 -0.57792375942E-01 -0.23151789512E-01 -0.40643255446E-02  0.62391857944E-01  0.51100000000E-03 0.  1.
         11    1    4    4    0    0 -0.54872230264E-01 -0.29698314991E-01 -0.23816121962E-01  0.66786378504E-01  0.51100000000E-03 0. -1.
</event>
<event>
 8    1  0.1092667E+005  0.1043930E+01  0.7957747E-01            NaN
         13   -1    0    0    0    0  0.00000000000E+00  0.00000000000E+00  0.74505805969E-08  0.10566000000E+00  0.10566000000E+00 0. -1.
     999900   -1    0    0    0    0 -0.00000000000E+00 -0.00000000000E+00 -0.74505805969E-08  0.93827000000E+00  0.93827000000E+00 0. -1.
     999902    2    1    2    0    0 -0.69383414633E-02 -0.17346220957E-01 -0.15195379045E-01  0.10198482329E+01  0.10195638708E+01 0.  0.
     999903    2    3    3    0    0  0.43643663345E-01  0.75559383577E-02  0.11842877997E+00  0.12797712524E+00  0.19771370853E-01 0.  0.
         14    1    1    2    0    0  0.69383414633E-02  0.17346220957E-01  0.15195379045E-01  0.24081767129E-01  0.00000000000E+00 0.  1.
     999901    1    3    3    0    0 -0.50582004808E-01 -0.24902159315E-01 -0.13362415902E+00  0.89187110763E+00  0.88000000000E+00 0. -1.
        -11    1    4    4    0    0  0.10948372774E-01  0.20644954503E-02  0.57874046786E-01  0.58938912615E-01  0.51100000000E-03 0.  1.
         11    1    4    4    0    0  0.32695290571E-01  0.54914429074E-02  0.60554733185E-01  0.69038212628E-01  0.51100000000E-03 0. -1.
</event>
<event>
 8    1  0.1092667E+005  0.1043930E+01  0.7957747E-01            NaN
         13   -1    0    0    0    0  0.00000000000E+00  0.00000000000E+00  0.74505805969E-08  0.10566000000E+00  0.10566000000E+00 0. -1.
     999900   -1    0    0    0    0 -0.00000000000E+00 -0.00000000000E+00 -0.74505805969E-08  0.93827000000E+00  0.93827000000E+00 0.  1.
     999902    2    1    2    0    0  0.40082932684E-02  0.12513326156E-01 -0.18055039054E-01  0.10215998817E+01  0.10213558068E+01 0.  0.
     999903    2    3    3    0    0 -0.78976326361E-01 -0.94675615145E-01 -0.39409422185E-01  0.13096419532E+00  0.19944564961E-01 0.  0.
         14    1    1    2    0    0 -0.40082932684E-02 -0.12513326156E-01  0.18055039054E-01  0.22330118263E-01  0.00000000000E+00 0. -1.
     999901    1    3    3    0    0  0.82984619629E-01  0.10718894130E+00  0.21354383132E-01  0.89063568641E+00  0.88000000000E+00 0.  1.
        -11    1    4    4    0    0 -0.78099619937E-01 -0.86231159686E-01 -0.37609700530E-01  0.12227065973E+00  0.51100000000E-03 0.  1.
         11    1    4    4    0    0 -0.87670642405E-03 -0.84444554592E-02 -0.17997216559E-02  0.86935355981E-02  0.51100000000E-03 0. -1.
</event>
<event>
 8    1  0.1092667E+005  0.1043930E+01  0.7957747E-01            NaN
         13   -1    0    0    0    0  0.00000000000E+00  0.00000000000E+00  0.74505805969E-08  0.10566000000E+00  0.10566000000E+00 0. -1.
     999900   -1    0    0    0    0 -0.00000000000E+00 -0.00000000000E+00 -0.74505805969E-08  0.93827000000E+00  0.93827000000E+00 0.  1.
     999902    2    1    2    0    0  0.23084730343E-01  0.21709647024E-01  0.19447989867E-01  0.10067488508E+01  0.10060620312E+01 0.  0.
     999903    2    3    3    0    0  0.25338248945E-01  0.95102914290E-02 -0.11194394436E+00  0.11690743624E+00  0.20085553658E-01 0.  0.
         14    1    1    2    0    0 -0.23084730343E-01 -0.21709647024E-01 -0.19447989867E-01  0.37181149240E-01  0.00000000000E+00 0.  1.
     999901    1    3    3    0    0 -0.22535186017E-02  0.12199355595E-01  0.13139193423E+00  0.88984141452E+00  0.88000000000E+00 0. -1.
        -11    1    4    4    0    0  0.18158986535E-01  0.15030260614E-01 -0.92407338788E-01  0.95367892443E-01  0.51100000000E-03 0.  1.
         11    1    4    4    0    0  0.71792624094E-02 -0.55199691846E-02 -0.19536605572E-01  0.21539543793E-01  0.51100000000E-03 0. -1.
</event>
<event>
 8    1  0.1504827E+005  0.1043930E+01  0.7957747E-01            NaN
         13   -1    0    0    0    0  0.00000000000E+00  0.00000000000E+00  0.74505805969E-08  0.10566000000E+00  0.10566000000E+00 0.  1.
     999900   -1    0    0    0    0 -0.00000000000E+00 -0.00000000000E+00 -0.74505805969E-08  0.93827000000E+00  0.93827000000E+00 0.  1.
     999902    2    1    2    0    0 -0.11303958347E-01  0.21409712837E-01  0.30275251744E-02  0.10195307954E+01  0.10192387951E+01 0.  0.
     999903    2    3    3    0    0  0.11375094004E+00 -0.52416721153E-01  0.74226959302E-02  0.12761802637E+00  0.23333992901E-01 0.  0.
         14    1    1    2    0    0  0.11303958347E-01 -0.21409712837E-01 -0.30275251744E-02  0.24399204634E-01  0.00000000000E+00 0. -1.
     999901    1    3    3    0    0 -0.12505489838E+00  0.73826433990E-01 -0.43951707557E-02  0.89191276899E+00  0.88000000000E+00 0. -1.
        -11    1    4    4    0    0  0.62852033717E-01 -0.25680854916E-01  0.15256542286E-01  0.69591002688E-01  0.51100000000E-03 0. -1.
         11    1    4    4    0    0  0.50898906321E-01 -0.26735866237E-01 -0.78338463561E-02  0.58027023686E-01  0.51100000000E-03 0.  1.
</event>
<event>
 8    1  0.1092667E+005  0.1043930E+01  0.7957747E-01            NaN
         13   -1    0    0    0    0  0.00000000000E+00  0.00000000000E+00  0.74505805969E-08  0.10566000000E+00  0.10566000000E+00 0. -1.
     999900   -1    0    0    0    0 -0.00000000000E+00 -0.00000000000E+00 -0.74505805969E-08  0.93827000000E+00  0.93827000000E+00 0.  1.
     999902    2    1    2    0    0  0.16310642355E-01  0.16489883211E-01  0.12497283829E-01  0.10175835504E+01  0.10172424228E+01 0.  0.
     999903    2    3    3    0    0 -0.39437512199E-01 -0.27460882122E-01 -0.11442480832E+00  0.12564815815E+00  0.19621556322E-01 0.  0.
         14    1    1    2    0    0 -0.16310642355E-01 -0.16489883211E-01 -0.12497283829E-01  0.26346449580E-01  0.00000000000E+00 0.  1.
     999901    1    3    3    0    0  0.55748154554E-01  0.43950765334E-01  0.12692209215E+00  0.89193539227E+00  0.88000000000E+00 0. -1.
        -11    1    4    4    0    0 -0.24284013952E-01 -0.11206816425E-01 -0.82643821949E-01  0.86865231798E-01  0.51100000000E-03 0. -1.
         11    1    4    4    0    0 -0.15153498248E-01 -0.16254065698E-01 -0.31780986369E-01  0.38782926352E-01  0.51100000000E-03 0.  1.
</event>
<event>
 8    1  0.1092667E+005  0.1043930E+01  0.7957747E-01            NaN
         13   -1    0    0    0    0  0.00000000000E+00  0.00000000000E+00  0.74505805969E-08  0.10566000000E+00  0.10566000000E+00 0. -1.
     999900   -1    0    0    0    0 -0.00000000000E+00 -0.00000000000E+00 -0.74505805969E-08  0.93827000000E+00  0.93827000000E+00 0. -1.
     999902    2    1    2    0    0 -0.16022158296E-02  0.11892295542E-03  0.22607101441E-01  0.10212658814E+01  0.10210143673E+01 0.  0.
     999903    2    3    3    0    0  0.33405267066E-01  0.12403040619E+00 -0.17821730883E-01  0.13097712482E+00  0.18383133757E-01 0.  0.
         14    1    1    2    0    0  0.16022158296E-02 -0.11892295542E-03 -0.22607101441E-01  0.22664118641E-01  0.00000000000E+00 0.  1.
     999901    1    3    3    0    0 -0.35007482896E-01 -0.12391148324E+00  0.40428832324E-01  0.89028875654E+00  0.88000000000E+00 0.  1.
        -11    1    4    4    0    0  0.11455245789E-01  0.75447151882E-01 -0.75899557436E-02  0.76690051066E-01  0.51100000000E-03 0. -1.
         11    1    4    4    0    0  0.21950021277E-01  0.48583254309E-01 -0.10231775140E-01  0.54287073755E-01  0.51100000000E-03 0.  1.
</event>
<event>
 8    1  0.1092667E+005  0.1043930E+01  0.7957747E-01            NaN
         13   -1    0    0    0    0  0.00000000000E+00  0.00000000000E+00  0.74505805969E-08  0.10566000000E+00  0.10566000000E+00 0. -1.
     999900   -1    0    0    0    0 -0.00000000000E+00 -0.00000000000E+00 -0.74505805969E-08  0.93827000000E+00  0.93827000000E+00 0.  1.
     999902    2    1    2    0    0  0.18370330457E-01  0.92216169251E-02  0.91609047178E-02  0.10214260129E+01  0.10211780797E+01 0.  0.
     999903    2    3    3    0    0  0.10388140276E-01 -0.11912969242E+00  0.49577705513E-01  0.13116128163E+00  0.21107719923E-01 0.  0.
         14    1    1    2    0    0 -0.18370330457E-01 -0.92216169251E-02 -0.91609047178E-02  0.22503987093E-01  0.00000000000E+00 0. -1.
     999901    1    3    3    0    0  0.79821901813E-02  0.12835130934E+00 -0.40416800796E-01  0.89026473128E+00  0.88000000000E+00 0.  1.
        -11    1    4    4    0    0  0.53715885746E-02 -0.34593474640E-01  0.47213757226E-02  0.35328670526E-01  0.51100000000E-03 0.  1.
         11    1    4    4    0    0  0.50165517011E-02 -0.84536217780E-01  0.44856329791E-01  0.95832611103E-01  0.51100000000E-03 0. -1.
</event>
<event>
 8    1  0.1092667E+005  0.1043930E+01  0.7957747E-01            NaN
         13   -1    0    0    0    0  0.00000000000E+00  0.00000000000E+00  0.74505805969E-08  0.10566000000E+00  0.10566000000E+00 0.  1.
     999900   -1    0    0    0    0 -0.00000000000E+00 -0.00000000000E+00 -0.74505805969E-08  0.93827000000E+00  0.93827000000E+00 0.  1.
     999902    2    1    2    0    0 -0.64443426975E-02  0.16917879398E-01 -0.14924223207E-01  0.10204677615E+01  0.10201980081E+01 0.  0.
     999903    2    3    3    0    0  0.10799025392E+00 -0.27585201793E-01 -0.64945069046E-01  0.13053636745E+00  0.19976059000E-01 0.  0.
         14    1    1    2    0    0  0.64443426975E-02 -0.16917879398E-01  0.14924223207E-01  0.23462238479E-01  0.00000000000E+00 0.  1.
     999901    1    3    3    0    0 -0.11443459662E+00  0.44503081191E-01  0.50020845840E-01  0.88993139407E+00  0.88000000000E+00 0. -1.
        -11    1    4    4    0    0  0.65391149273E-01 -0.26643438166E-01 -0.39722669132E-01  0.81018681577E-01  0.51100000000E-03 0. -1.
         11    1    4    4    0    0  0.42599104648E-01 -0.94176362727E-03 -0.25222399914E-01  0.49517685871E-01  0.51100000000E-03 0.  1.
</event>
<event>
 8    1  0.1092667E+005  0.1043930E+01  0.7957747E-01            NaN
         13   -1    0    0    0    0  0.00000000000E+00  0.00000000000E+00  0.74505805969E-08  0.10566000000E+00  0.10566000000E+00 0.  1.
     999900   -1    0    0    0    0 -0.00000000000E+00 -0.00000000000E+00 -0.74505805969E-08  0.93827000000E+00  0.93827000000E+00 0. -1.
     999902    2    1    2    0    0 -0.89012197490E-02 -0.69138188208E-02 -0.21438517576E-01  0.10197092932E+01  0.10194216007E+01 0.  0.
     999903    2    3    3    0    0 -0.48871419866E-01 -0.73157473980E-01  0.92352807068E-01  0.12901613370E+00  0.19382726948E-01 0.  0.
         14    1    1    2    0    0  0.89012197490E-02  0.69138188208E-02  0.21438517576E-01  0.24220706835E-01  0.00000000000E+00 0.  1.
     999901    1    3    3    0    0  0.39970200117E-01  0.66243655159E-01 -0.11379132464E+00  0.89069315946E+00  0.88000000000E+00 0.  1.
        -11    1    4    4    0    0 -0.33882656876E-01 -0.49798875381E-01  0.75338985725E-01  0.96458210212E-01  0.51100000000E-03 0. -1.
         11    1    4    4    0    0 -0.14988762990E-01 -0.23358598599E-01  0.17013821342E-01  0.32557923493E-01  0.51100000000E-03 0.  1.
</event>
<event>
 8    1  0.1092667E+005  0.1043930E+01  0.7957747E-01            NaN
         13   -1    0    0    0    0  0.00000000000E+00  0.00000000000E+00  0.74505805969E-08  0.10566000000E+00  0.10566000000E+00 0. -1.
     999900   -1    0    0    0    0 -0.00000000000E+00 -0.00000000000E+00 -0.74505805969E-08  0.93827000000E+00  0.93827000000E+00 0. -1.
     999902    2    1    2    0    0 -0.11684169686E-01 -0.12464260067E-01 -0.16509590116E-01  0.10201719663E+01  0.10198952871E+01 0.  0.
     999903    2    3    3    0    0 -0.13193365334E-01  0.58951485439E-01 -0.11564463021E+00  0.13172937244E+00  0.18155014308E-01 0.  0.
         14    1    1    2    0    0  0.11684169686E-01  0.12464260067E-01  0.16509590116E-01  0.23758033716E-01  0.00000000000E+00 0.  1.
     999901    1    3    3    0    0  0.15091956480E-02 -0.71415745506E-01  0.99135040089E-01  0.88844259384E+00  0.88000000000E+00 0.  1.
        -11    1    4    4    0    0 -0.11765783534E-01  0.21686758747E-01 -0.58486295986E-01  0.63479580231E-01  0.51100000000E-03 0.  1.
         11    1    4    4    0    0 -0.14275818000E-02  0.37264726692E-01 -0.57158334219E-01  0.68249792212E-01  0.51100000000E-03 0. -1.
</event>
<event>
 8    1  0.1092667E+005  0.1043930E+01  0.7957747E-01            NaN
         13   -1    0    0    0    0  0.00000000000E+00  0.00000000000E+00  0.74505805969E-08  0.10566000000E+00  0.10566000000E+00 0.  1.
     999900   -1    0    0    0    0 -0.00000000000E+00 -0.00000000000E+00 -0.74505805969E-08  0.93827000000E+00  0.93827000000E+00 0. -1.
     999902    2    1    2    0    0 -0.78122485010E-02  0.22013731196E-01  0.49457244214E-02  0.10200533215E+01  0.10197738391E+01 0.  0.
     999903    2    3    3    0    0 -0.11582965141E+00 -0.54830635613E-01 -0.13023813767E-01  0.12994337301E+00  0.17110047229E-01 0.  0.
         14    1    1    2    0    0  0.78122485010E-02 -0.22013731196E-01 -0.49457244214E-02  0.23876678535E-01  0.00000000000E+00 0.  1.
     999901    1    3    3    0    0  0.10801740291E+00  0.76844366809E-01  0.17969538189E-01  0.89010994846E+00  0.88000000000E+00 0. -1.
        -11    1    4    4    0    0 -0.78517578239E-01 -0.43707855473E-01 -0.38917478226E-02  0.89948838484E-01  0.51100000000E-03 0. -1.
         11    1    4    4    0    0 -0.37312073169E-01 -0.11122780140E-01 -0.91320659445E-02  0.39994534522E-01  0.51100000000E-03 0.  1.
</event>
<event>
 8    1  0.1092667E+005  0.1043930E+01  0.7957747E-01            NaN
         13   -1    0    0    0    0  0.00000000000E+00  0.00000000000E+00  0.74505805969E-08  0.10566000000E+00  0.10566000000E+00 0. -1.
     999900   -1    0    0    0    0 -0.00000000000E+00 -0.00000000000E+00 -0.74505805969E-08  0.93827000000E+00  0.93827000000E+00 0.  1.
     999902    2    1    2    0    0 -0.32313645737E-02 -0.75831493900E-02 -0.21269738417E-01  0.10211188702E+01  0.10208640455E+01 0.  0.
     999903    2    3    3    0    0  0.85660098269E-01  0.35442925899E-01 -0.92861572511E-01  0.13270549452E+00  0.19839939413E-01 0.  0.
         14    1    1    2    0    0  0.32313645737E-02  0.75831493900E-02  0.21269738417E-01  0.22811129828E-01  0.00000000000E+00 0. -1.
     999901    1    3    3    0    0 -0.88891462843E-01 -0.43026075289E-01  0.71591834094E-01  0.88841337565E+00  0.88000000000E+00 0. -1.
        -11    1    4    4    0    0  0.47515305384E-01  0.28119075188E-01 -0.62550912361E-01  0.83434191992E-01  0.51100000000E-03 0.  1.
         11    1    4    4    0    0  0.38144792885E-01  0.73238507107E-02 -0.30310660150E-01  0.49271302532E-01  0.51100000000E-03 0. -1.
</event>
<event>
 8    1  0.1092667E+005  0.1043930E+01  0.7957747E-01            NaN
         13   -1    0    0    0    0  0.00000000000E+00  0.00000000000E+00  0.74505805969E-08  0.10566000000E+00  0.10566000000E+00 0.  1.
     999900   -1    0    0    0    0 -0.00000000000E+00 -0.00000000000E+00 -0.74505805969E-08  0.93827000000E+00  0.93827000000E+00 0. -1.
     999902    2    1    2    0    0 -0.15667469789E-01  0.76165845527E-02 -0.15870061582E-01  0.10203643295E+01  0.10200921645E+01 0.  0.
     999903    2    3    3    0    0  0.60783838821E-01  0.53547218606E-01 -0.10206967344E+00  0.13166595617E+00  0.18860702423E-01 0.  0.
         14    1    1    2    0    0  0.15667469789E-01 -0.76165845527E-02  0.15870061582E-01  0.23565670465E-01  0.00000000000E+00 0. -1.
     999901    1    3    3    0    0 -0.76451308610E-01 -0.45930634054E-01  0.86199611860E-01  0.88869837336E+00  0.88000000000E+00 0.  1.
        -11    1    4    4    0    0  0.43711558201E-01  0.48626706297E-01 -0.79379258839E-01  0.10284252399E+00  0.51100000000E-03 0. -1.
         11    1    4    4    0    0  0.17072280619E-01  0.49205123094E-02 -0.22690414603E-01  0.28823432183E-01  0.51100000000E-03 0.  1.
</event>
<event>
 8    1  0.1092667E+005  0.1043930E+01  0.7957747E-01            NaN
         13   -1    0    0    0    0  0.00000000000E+00  0.00000000000E+00  0.74505805969E-08  0.10566000000E+00  0.10566000000E+00 0.  1.
     999900   -1    0    0    0    0 -0.00000000000E+00 -0.00000000000E+00 -0.74505805969E-08  0.93827000000E+00  0.93827000000E+00 0.  1.
     999902    2    1    2    0    0 -0.58212660919E-02 -0.15650791014E-01 -0.16517481588E-01  0.10204425226E+01  0.10201721817E+01 0.  0.
     999903    2    3    3    0    0  0.43494623631E-01 -0.12279898906E+00  0.92792331756E-02  0.13219803831E+00  0.20465658170E-01 0.  0.
         14    1    1    2    0    0  0.58212660919E-02  0.15650791014E-01  0.16517481588E-01  0.23487477436E-01  0.00000000000E+00 0.  1.
     999901    1    3    3    0    0 -0.49315889723E-01  0.10714819805E+00 -0.25796714764E-01  0.88824448426E+00  0.88000000000E+00 0.  1.
        -11    1    4    4    0    0  0.12529249721E-01 -0.45813434268E-01 -0.58214232173E-02  0.47853975251E-01  0.51100000000E-03 0.  1.
         11    1    4    4    0    0  0.30965373910E-01 -0.76985554792E-01  0.15100656393E-01  0.84344063055E-01  0.51100000000E-03 0. -1.
</event>
<event>
 8    1  0.1092667E+005  0.1043930E+01  0.7957747E-01            NaN
         13   -1    0    0    0    0  0.00000000000E+00  0.00000000000E+00  0.74505805969E-08  0.10566000000E+00  0.10566000000E+00 0.  1.
     999900   -1    0    0    0    0 -0.00000000000E+00 -0.00000000000E+00 -0.74505805969E-08  0.93827000000E+00  0.93827000000E+00 0.  1.
     999902    2    1    2    0    0  0.16870545060E-01 -0.14105568029E-02  0.14942900670E-01  0.10213491399E+01  0.10210994909E+01 0.  0.
     999903    2    3    3    0    0  0.58731341946E-01 -0.46774753556E-01  0.10927994328E+00  0.13415710081E+00  0.20463958504E-01 0.  0.
         14    1    1    2    0    0 -0.16870545060E-01  0.14105568029E-02 -0.14942900670E-01  0.22580860071E-01  0.00000000000E+00 0. -1.
     999901    1    3    3    0    0 -0.41860796885E-01  0.45364196753E-01 -0.94337042613E-01  0.88719203912E+00  0.88000000000E+00 0.  1.
        -11    1    4    4    0    0  0.22806154995E-01 -0.15272078347E-01  0.57386660236E-01  0.63614832993E-01  0.51100000000E-03 0. -1.
         11    1    4    4    0    0  0.35925186950E-01 -0.31502675209E-01  0.51893283046E-01  0.70542267819E-01  0.51100000000E-03 0.  1.
</event>
<event>
 8    1  0.1092667E+005  0.1043930E+01  0.7957747E-01            NaN
         13   -1    0    0    0    0  0.00000000000E+00  0.00000000000E+00  0.74505805969E-08  0.10566000000E+00  0.10566000000E+00 0. -1.
     999900   -1    0    0    0    0 -0.00000000000E+00 -0.00000000000E+00 -0.74505805969E-08  0.93827000000E+00  0.93827000000E+00 0. -1.
     999902    2    1    2    0    0  0.12250215859E-01 -0.12959554638E-01 -0.16780261475E-01  0.10194433706E+01  0.10191492485E+01 0.  0.
     999903    2    3    3    0    0 -0.11308649039E+00 -0.55715742557E-01  0.17856960811E-01  0.12886091022E+00  0.19835948586E-01 0.  0.
         14    1    1    2    0    0 -0.12250215859E-01  0.12959554638E-01  0.16780261475E-01  0.24486629416E-01  0.00000000000E+00 0.  1.
     999901    1    3    3    0    0  0.12533670625E+00  0.42756187919E-01 -0.34637222285E-01  0.89058246036E+00  0.88000000000E+00 0.  1.
        -11    1    4    4    0    0 -0.25887046453E-01 -0.10319038989E-01 -0.39785285918E-02  0.28155133643E-01  0.51100000000E-03 0.  1.
         11    1    4    4    0    0 -0.87199443936E-01 -0.45396703568E-01  0.21835489402E-01  0.10070577658E+00  0.51100000000E-03 0. -1.
</event>
<event>
 8    1  0.1092667E+005  0.1043930E+01  0.7957747E-01            NaN
         13   -1    0    0    0    0  0.00000000000E+00  0.00000000000E+00  0.74505805969E-08  0.10566000000E+00  0.10566000000E+00 0.  1.
     999900   -1    0    0    0    0 -0.00000000000E+00 -0.00000000000E+00 -0.74505805969E-08  0.93827000000E+00  0.93827000000E+00 0. -1.
     999902    2    1    2    0    0 -0.20796809555E-01 -0.10416169456E-01  0.38772984953E-02  0.10203495565E+01  0.10200770461E+01 0.  0.
     999903    2    3    3    0    0 -0.13084604783E+00 -0.59242336261E-02 -0.14613381924E-01  0.13329098027E+00  0.19928615451E-01 0.  0.
         14    1    1    2    0    0  0.20796809555E-01  0.10416169456E-01 -0.38772984953E-02  0.23580443537E-01  0.00000000000E+00 0. -1.
     999901    1    3    3    0    0  0.11004923827E+00 -0.44919358298E-02  0.18490680420E-01  0.88705857619E+00  0.88000000000E+00 0. -1.
        -11    1    4    4    0    0 -0.37851670785E-01 -0.97721690837E-02 -0.85381472878E-02  0.40017563018E-01  0.51100000000E-03 0.  1.
         11    1    4    4    0    0 -0.92994377044E-01  0.38479354576E-02 -0.60752346365E-02  0.93273417253E-01  0.51100000000E-03 0. -1.
</event>
<event>
 8    1  0.1092667E+005  0.1043930E+01  0.7957747E-01            NaN
         13   -1    0    0    0    0  0.00000000000E+00  0.00000000000E+00  0.74505805969E-08  0.10566000000E+00  0.10566000000E+00 0. -1.
     999900   -1    0    0    0    0 -0.00000000000E+00 -0.00000000000E+00 -0.74505805969E-08  0.93827000000E+00  0.93827000000E+00 0. -1.
     999902    2    1    2    0    0  0.12916216335E-01  0.11750351048E-01 -0.17349282025E-01  0.10193150253E+01  0.10190177740E+01 0.  0.
     999903    2    3    3    0    0 -0.19653666158E-02 -0.11279240737E+00  0.56766915434E-01  0.12733656650E+00  0.16313450117E-01 0.  0.
         14    1    1    2    0    0 -0.12916216335E-01 -0.11750351048E-01  0.17349282025E-01  0.24614974729E-01  0.00000000000E+00 0. -1.
     999901    1    3    3    0    0  0.14881582950E-01  0.12454275841E+00 -0.74116197459E-01  0.89197845877E+00  0.88000000000E+00 0. -1.
        -11    1    4    4    0    0 -0.72855648937E-02 -0.62382862919E-01  0.25572396849E-01  0.67815261139E-01  0.51100000000E-03 0. -1.
         11    1    4    4    0    0  0.53201982779E-02 -0.50409544448E-01  0.31194518585E-01  0.59521305361E-01  0.51100000000E-03 0.  1.
</event>
<event>
 8    1  0.1445525E+005  0.1043930E+01  0.7957747E-01            NaN
         13   -1    0    0    0    0  0.00000000000E+00  0.00000000000E+00  0.74505805969E-08  0.10566000000E+00  0.10566000000E+00 0. -1.
     999900   -1    0    0    0    0 -0.00000000000E+00 -0.00000000000E+00 -0.74505805969E-08  0.93827000000E+00  0.93827000000E+00 0.  1.
     999902    2    1    2    0    0 -0.12550077011E-01 -0.19240940680E-01 -0.46530625451E-02  0.10204913733E+01  0.10202221688E+01 0.  0.
     999903    2    3    3    0    0  0.79420259610E-01 -0.16509421127E-01 -0.99173850423E-01  0.13065982554E+00  0.25620280645E-01 0.  0.
         14    1    1    2    0    0  0.12550077011E-01  0.19240940680E-01  0.46530625451E-02  0.23438626716E-01  0.00000000000E+00 0. -1.
     999901    1    3    3    0    0 -0.91970336621E-01 -0.27315195532E-02  0.94520787878E-01  0.88983154774E+00  0.88000000000E+00 0. -1.
        -11    1    4    4    0    0  0.53166354204E-01 -0.49815775022E-02 -0.47069694273E-01  0.71184932210E-01  0.51100000000E-03 0. -1.
         11    1    4    4    0    0  0.26253905406E-01 -0.11527843625E-01 -0.52104156150E-01  0.59474893332E-01  0.51100000000E-03 0.  1.
</event>
<event>
 8    1  0.1092667E+005  0.1043930E+01  0.7957747E-01            NaN
         13   -1    0    0    0    0  0.00000000000E+00  0.00000000000E+00  0.74505805969E-08  0.10566000000E+00  0.10566000000E+00 0.  1.
     999900   -1    0    0    0    0 -0.00000000000E+00 -0.00000000000E+00 -0.74505805969E-08  0.93827000000E+00  0.93827000000E+00 0. -1.
     999902    2    1    2    0    0 -0.12633847544E-03 -0.17365727681E-01 -0.16638080997E-01  0.10198798399E+01  0.10195962327E+01 0.  0.
     999903    2    3    3    0    0  0.62375250698E-01 -0.11378642615E+00  0.10665509575E-01  0.13198970834E+00  0.21668118011E-01 0.  0.
         14    1    1    2    0    0  0.12633847544E-03  0.17365727681E-01  0.16638080997E-01  0.24050160053E-01  0.00000000000E+00 0.  1.
     999901    1    3    3    0    0 -0.62501589173E-01  0.96420698470E-01 -0.27303590572E-01  0.88789013160E+00  0.88000000000E+00 0. -1.
        -11    1    4    4    0    0  0.13129642490E-01 -0.36517383460E-01  0.11078531486E-01  0.40359655444E-01  0.51100000000E-03 0.  1.
         11    1    4    4    0    0  0.49245608208E-01 -0.77269042691E-01 -0.41302191144E-03  0.91630052899E-01  0.51100000000E-03 0. -1.
</event>
<event>
 8    1  0.1092667E+005  0.1043930E+01  0.7957747E-01            NaN
         13   -1    0    0    0    0  0.00000000000E+00  0.00000000000E+00  0.74505805969E-08  0.10566000000E+00  0.10566000000E+00 0.  1.
     999900   -1    0    0    0    0 -0.00000000000E+00 -0.00000000000E+00 -0.74505805969E-08  0.93827000000E+00  0.93827000000E+00 0.  1.
     999902    2    1    2    0    0  0.29687400718E-02 -0.24085031612E-01  0.10569122267E-02  0.10196396886E+01  0.10193503202E+01 0.  0.
     999903    2    3    3    0    0 -0.11646436603E+00 -0.16502087764E-02  0.52633483655E-01  0.12979266194E+00  0.22565011551E-01 0.  0.
         14    1    1    2    0    0 -0.29687400718E-02  0.24085031612E-01 -0.10569122267E-02  0.24290311419E-01  0.00000000000E+00 0. -1.
     999901    1    3    3    0    0  0.11943310610E+00 -0.22434822836E-01 -0.51576571428E-01  0.88984702665E+00  0.88000000000E+00 0.  1.
        -11    1    4    4    0    0 -0.10405995109E+00 -0.83171107558E-02  0.44156816704E-01  0.11334784221E+00  0.51100000000E-03 0.  1.
         11    1    4    4    0    0 -0.12404414942E-01  0.66669019794E-02  0.84766669504E-02  0.16444819720E-01  0.51100000000E-03 0. -1.
</event>
<event>
 8    1  0.1092667E+005  0.1043930E+01  0.7957747E-01            NaN
         13   -1    0    0    0    0  0.00000000000E+00  0.00000000000E+00  0.74505805969E-08  0.10566000000E+00  0.10566000000E+00 0. -1.
     999900   -1    0    0    0    0 -0.00000000000E+00 -0.00000000000E+00 -0.74505805969E-08  0.93827000000E+00  0.93827000000E+00 0.  1.
     999902    2    1    2    0    0 -0.60840437886E-03 -0.13600258147E-01 -0.20640129714E-01  0.10192044640E+01  0.10189045035E+01 0.  0.
     999903    2    3    3    0    0 -0.95288152250E-01  0.49145867258E-01 -0.71571666093E-01  0.13044389311E+00  0.19948875522E-01 0.  0.
         14    1    1    2    0    0  0.60840437886E-03  0.13600258147E-01  0.20640129714E-01  0.24725536034E-01  0.00000000000E+00 0. -1.
     999901    1    3    3    0    0  0.94679747871E-01 -0.62746125406E-01  0.50931536379E-01  0.88876057086E+00  0.88000000000E+00 0. -1.
        -11    1    4    4    0    0 -0.23973152295E-01  0.95446916401E-02 -0.79874934613E-02  0.27016186671E-01  0.51100000000E-03 0.  1.
         11    1    4    4    0    0 -0.71314999954E-01  0.39601175618E-01 -0.63584172632E-01  0.10342770644E+00  0.51100000000E-03 0. -1.
</event>
<event>
 8    1  0.1092667E+005  0.1043930E+01  0.7957747E-01            NaN
         13   -1    0    0    0    0  0.00000000000E+00  0.00000000000E+00  0.74505805969E-08  0.10566000000E+00  0.10566000000E+00 0.  1.
     999900   -1    0    0    0    0 -0.00000000000E+00 -0.00000000000E+00 -0.74505805969E-08  0.93827000000E+00  0.93827000000E+00 0.  1.
     999902    2    1    2    0    0 -0.22574696877E-01 -0.37802677454E-02  0.28667260078E-02  0.10208621548E+01  0.10206014960E+01 0.  0.
     999903    2    3    3    0    0  0.40942171966E-01 -0.57644661627E-01 -0.10725428214E+00  0.13009708928E+00  0.20557313565E-01 0.  0.
         14    1    1    2    0    0  0.22574696877E-01  0.37802677454E-02 -0.28667260078E-02  0.23067845181E-01  0.00000000000E+00 0.  1.
     999901    1    3    3    0    0 -0.63516868843E-01  0.53864393882E-01  0.11012100815E+00  0.89076506554E+00  0.88000000000E+00 0. -1.
        -11    1    4    4    0    0  0.22917728860E-01 -0.41992635969E-01 -0.56697318643E-01  0.74185246741E-01  0.51100000000E-03 0. -1.
         11    1    4    4    0    0  0.18024443106E-01 -0.15652025658E-01 -0.50556963498E-01  0.55911842535E-01  0.51100000000E-03 0.  1.
</event>
<event>
 8    1  0.1092667E+005  0.1043930E+01  0.7957747E-01            NaN
         13   -1    0    0    0    0  0.00000000000E+00  0.00000000000E+00  0.74505805969E-08  0.10566000000E+00  0.10566000000E+00 0. -1.
     999900   -1    0    0    0    0 -0.00000000000E+00 -0.00000000000E+00 -0.74505805969E-08  0.93827000000E+00  0.93827000000E+00 0. -1.
     999902    2    1    2    0    0  0.21429538813E-01 -0.34200905265E-02  0.10105993617E-01  0.10199914691E+01  0.10197105196E+01 0.  0.
     999903    2    3    3    0    0 -0.12159146087E-01  0.21276920007E-01 -0.12483081048E+00  0.12873051791E+00  0.19704386236E-01 0.  0.
         14    1    1    2    0    0 -0.21429538813E-01  0.34200905265E-02 -0.10105993617E-01  0.23938530864E-01  0.00000000000E+00 0. -1.
     999901    1    3    3    0    0  0.33588684900E-01 -0.24697010534E-01  0.13493680410E+00  0.89126095123E+00  0.88000000000E+00 0.  1.
        -11    1    4    4    0    0 -0.11766032739E-02  0.20013226284E-01 -0.71234622996E-01  0.74003690826E-01  0.51100000000E-03 0.  1.
         11    1    4    4    0    0 -0.10982542813E-01  0.12636937234E-02 -0.53596187485E-01  0.54726827082E-01  0.51100000000E-03 0. -1.
</event>
<event>
 8    1  0.1326403E+005  0.1043930E+01  0.7957747E-01            NaN
         13   -1    0    0    0    0  0.00000000000E+00  0.00000000000E+00  0.74505805969E-08  0.10566000000E+00  0.10566000000E+00 0. -1.
     999900   -1    0    0    0    0 -0.00000000000E+00 -0.00000000000E+00 -0.74505805969E-08  0.93827000000E+00  0.93827000000E+00 0. -1.
     999902    2    1    2    0    0  0.18851221501E-01 -0.84866047121E-02 -0.11992096892E-01  0.10200301799E+01  0.10197501491E+01 0.  0.
     999903    2    3    3    0    0 -0.22406840415E-01 -0.77328089181E-01 -0.10373954061E+00  0.13162769733E+00  0.90696495985E-02 0.  0.
         14    1    1    2    0    0 -0.18851221501E-01  0.84866047121E-02  0.11992096892E-01  0.23899820072E-01  0.00000000000E+00 0. -1.
     999901    1    3    3    0    0  0.41258061917E-01  0.68841484469E-01  0.91747443721E-01  0.88840248260E+00  0.88000000000E+00 0.  1.
        -11    1    4    4    0    0 -0.14137836437E-01 -0.33562257274E-01 -0.49045405358E-01  0.61090231954E-01  0.51100000000E-03 0.  1.
         11    1    4    4    0    0 -0.82690039788E-02 -0.43765831908E-01 -0.54694135255E-01  0.70537465376E-01  0.51100000000E-03 0. -1.
</event>
<event>
 8    1  0.1092667E+005  0.1043930E+01  0.7957747E-01            NaN
         13   -1    0    0    0    0  0.00000000000E+00  0.00000000000E+00  0.74505805969E-08  0.10566000000E+00  0.10566000000E+00 0. -1.
     999900   -1    0    0    0    0 -0.00000000000E+00 -0.00000000000E+00 -0.74505805969E-08  0.93827000000E+00  0.93827000000E+00 0. -1.
     999902    2    1    2    0    0 -0.91588595382E-03  0.22517807527E-01  0.58059830288E-02  0.10206577001E+01  0.10203923465E+01 0.  0.
     999903    2    3    3    0    0 -0.85415223714E-01  0.76178548883E-01  0.65562903332E-01  0.13296940867E+00  0.16835605046E-01 0.  0.
         14    1    1    2    0    0  0.91588595382E-03 -0.22517807527E-01 -0.58059830288E-02  0.23272299883E-01  0.00000000000E+00 0.  1.
     999901    1    3    3    0    0  0.84499337761E-01 -0.53660741356E-01 -0.59756920303E-01  0.88768829145E+00  0.88000000000E+00 0. -1.
        -11    1    4    4    0    0 -0.34074012851E-01  0.36108035323E-01  0.20211928018E-01  0.53606079150E-01  0.51100000000E-03 0. -1.
         11    1    4    4    0    0 -0.51341210863E-01  0.40070513560E-01  0.45350975315E-01  0.79363329522E-01  0.51100000000E-03 0.  1.
</event>
<event>
 8    1  0.1092667E+005  0.1043930E+01  0.7957747E-01            NaN
         13   -1    0    0    0    0  0.00000000000E+00  0.00000000000E+00  0.74505805969E-08  0.10566000000E+00  0.10566000000E+00 0.  1.
     999900   -1    0    0    0    0 -0.00000000000E+00 -0.00000000000E+00 -0.74505805969E-08  0.93827000000E+00  0.93827000000E+00 0.  1.
     999902    2    1    2    0    0  0.21907627093E-01 -0.42346947974E-02  0.12955236829E-02  0.10215792697E+01  0.10213347390E+01 0.  0.
     999903    2    3    3    0    0  0.19855463576E-01  0.12736611768E+00 -0.14624628311E-01  0.13164869009E+00  0.22385943847E-01 0.  0.
         14    1    1    2    0    0 -0.21907627093E-01  0.42346947974E-02 -0.12955236829E-02  0.22350730335E-01  0.00000000000E+00 0. -1.
     999901    1    3    3    0    0  0.20521635172E-02 -0.13160081248E+00  0.15920151994E-01  0.88993057957E+00  0.88000000000E+00 0. -1.
        -11    1    4    4    0    0  0.13774087407E-01  0.71181353668E-01 -0.19037860625E-01  0.74961402416E-01  0.51100000000E-03 0. -1.
         11    1    4    4    0    0  0.60813761684E-02  0.56184764016E-01  0.44132323140E-02  0.56687287676E-01  0.51100000000E-03 0.  1.
</event>
<event>
 8    1  0.1092667E+005  0.1043930E+01  0.7957747E-01            NaN
         13   -1    0    0    0    0  0.00000000000E+00  0.00000000000E+00  0.74505805969E-08  0.10566000000E+00  0.10566000000E+00 0.  1.
     999900   -1    0    0    0    0 -0.00000000000E+00 -0.00000000000E+00 -0.74505805969E-08  0.93827000000E+00  0.93827000000E+00 0. -1.
     999902    2    1    2    0    0  0.14181421447E-01  0.14911048993E-02 -0.18585963592E-01  0.10205040710E+01  0.10202351615E+01 0.  0.
     999903    2    3    3    0    0  0.83488178406E-01 -0.91084573474E-01  0.38667420886E-01  0.13109323631E+00  0.20581343720E-01 0.  0.
         14    1    1    2    0    0 -0.14181421447E-01 -0.14911048993E-02  0.18585963592E-01  0.23425929026E-01  0.00000000000E+00 0.  1.
     999901    1    3    3    0    0 -0.69306756959E-01  0.92575678373E-01 -0.57253384478E-01  0.88941083467E+00  0.88000000000E+00 0. -1.
        -11    1    4    4    0    0  0.53094302732E-01 -0.45677841533E-01  0.27937053396E-01  0.75406964288E-01  0.51100000000E-03 0. -1.
         11    1    4    4    0    0  0.30393875675E-01 -0.45406731940E-01  0.10730367489E-01  0.55686272020E-01  0.51100000000E-03 0.  1.
</event>
<event>
 8    1  0.1092667E+005  0.1043930E+01  0.7957747E-01            NaN
         13   -1    0    0    0    0  0.00000000000E+00  0.00000000000E+00  0.74505805969E-08  0.10566000000E+00  0.10566000000E+00 0.  1.
     999900   -1    0    0    0    0 -0.00000000000E+00 -0.00000000000E+00 -0.74505805969E-08  0.93827000000E+00  0.93827000000E+00 0.  1.
     999902    2    1    2    0    0  0.37225077775E-02  0.13060385620E-01 -0.18902974744E-01  0.10206544078E+01  0.10203889783E+01 0.  0.
     999903    2    3    3    0    0  0.57499006003E-01  0.86779286661E-01  0.76637532168E-01  0.13079240921E+00  0.19913881704E-01 0.  0.
         14    1    1    2    0    0 -0.37225077775E-02 -0.13060385620E-01  0.18902974744E-01  0.23275592170E-01  0.00000000000E+00 0.  1.
     999901    1    3    3    0    0 -0.53776498226E-01 -0.73718901041E-01 -0.95540506912E-01  0.88986199862E+00  0.88000000000E+00 0.  1.
        -11    1    4    4    0    0  0.42400071217E-01  0.53794616188E-01  0.40445470843E-01  0.79546992419E-01  0.51100000000E-03 0. -1.
         11    1    4    4    0    0  0.15098934786E-01  0.32984670473E-01  0.36192061325E-01  0.51245416788E-01  0.51100000000E-03 0.  1.
</event>
<event>
 8    1  0.1092667E+005  0.1043930E+01  0.7957747E-01            NaN
         13   -1    0    0    0    0  0.00000000000E+00  0.00000000000E+00  0.74505805969E-08  0.10566000000E+00  0.10566000000E+00 0.  1.
     999900   -1    0    0    0    0 -0.00000000000E+00 -0.00000000000E+00 -0.74505805969E-08  0.93827000000E+00  0.93827000000E+00 0. -1.
     999902    2    1    2    0    0 -0.19667579829E-01 -0.10735444027E-01  0.99059057155E-02  0.10194312159E+01  0.10191367982E+01 0.  0.
     999903    2    3    3    0    0 -0.57395476857E-01  0.45635511819E-01 -0.10492074594E+00  0.12938276844E+00  0.18833404862E-01 0.  0.
         14    1    1    2    0    0  0.19667579829E-01  0.10735444027E-01 -0.99059057155E-02  0.24498784109E-01  0.00000000000E+00 0. -1.
     999901    1    3    3    0    0  0.37727897028E-01 -0.56370955846E-01  0.11482665165E+00  0.89004844745E+00  0.88000000000E+00 0.  1.
        -11    1    4    4    0    0 -0.45760371939E-01  0.25809466864E-01 -0.68854163385E-01  0.86610029190E-01  0.51100000000E-03 0. -1.
         11    1    4    4    0    0 -0.11635104917E-01  0.19826044956E-01 -0.36066582553E-01  0.42772739252E-01  0.51100000000E-03 0.  1.
</event>
<event>
 8    1  0.1092667E+005  0.1043930E+01  0.7957747E-01            NaN
         13   -1    0    0    0    0  0.00000000000E+00  0.00000000000E+00  0.74505805969E-08  0.10566000000E+00  0.10566000000E+00 0. -1.
     999900   -1    0    0    0    0 -0.00000000000E+00 -0.00000000000E+00 -0.74505805969E-08  0.93827000000E+00  0.93827000000E+00 0.  1.
     999902    2    1    2    0    0  0.20249802962E-01 -0.74718783860E-02 -0.10855452549E-01  0.10197696122E+01  0.10194833680E+01 0.  0.
     999903    2    3    3    0    0  0.33121515860E-01  0.10735916473E+00 -0.63688293129E-01  0.13064467248E+00  0.19718182016E-01 0.  0.
         14    1    1    2    0    0 -0.20249802962E-01  0.74718783860E-02  0.10855452549E-01  0.24160387759E-01  0.00000000000E+00 0. -1.
     999901    1    3    3    0    0 -0.12871712898E-01 -0.11483104312E+00  0.52832840580E-01  0.88912493976E+00  0.88000000000E+00 0. -1.
        -11    1    4    4    0    0  0.91877764683E-02  0.56402619775E-01 -0.25270925190E-01  0.62486410802E-01  0.51100000000E-03 0.  1.
         11    1    4    4    0    0  0.23933739392E-01  0.50956544955E-01 -0.38417367938E-01  0.68158261681E-01  0.51100000000E-03 0. -1.
</event>
<event>
 8    1  0.1092667E+005  0.1043930E+01  0.7957747E-01            NaN
         13   -1    0    0    0    0  0.00000000000E+00  0.00000000000E+00  0.74505805969E-08  0.10566000000E+00  0.10566000000E+00 0. -1.
     999900   -1    0    0    0    0 -0.00000000000E+00 -0.00000000000E+00 -0.74505805969E-08  0.93827000000E+00  0.93827000000E+00 0. -1.
     999902    2    1    2    0    0 -0.96641319517E-04  0.53655205756E-03  0.25292501374E-01  0.10186316235E+01  0.10183174243E+01 0.  0.
     999903    2    3    3    0    0 -0.96610646238E-01  0.39675405108E-01 -0.70090904043E-01  0.12737139383E+00  0.20074421540E-01 0.  0.
         14    1    1    2    0    0  0.96641319517E-04 -0.53655205756E-03 -0.25292501374E-01  0.25298376497E-01  0.00000000000E+00 0.  1.
     999901    1    3    3    0    0  0.96514004918E-01 -0.39138853050E-01  0.95383405417E-01  0.89126022967E+00  0.88000000000E+00 0. -1.
        -11    1    4    4    0    0 -0.29440967068E-01  0.10738357251E-01 -0.10580736696E-01  0.33080144624E-01  0.51100000000E-03 0. -1.
         11    1    4    4    0    0 -0.67169679170E-01  0.28937047857E-01 -0.59510167347E-01  0.94291249208E-01  0.51100000000E-03 0.  1.
</event>
<event>
 8    1  0.1092667E+005  0.1043930E+01  0.7957747E-01            NaN
         13   -1    0    0    0    0  0.00000000000E+00  0.00000000000E+00  0.74505805969E-08  0.10566000000E+00  0.10566000000E+00 0.  1.
     999900   -1    0    0    0    0 -0.00000000000E+00 -0.00000000000E+00 -0.74505805969E-08  0.93827000000E+00  0.93827000000E+00 0. -1.
     999902    2    1    2    0    0  0.94983727443E-03 -0.22702528072E-01  0.73132134614E-02  0.10200597243E+01  0.10197803935E+01 0.  0.
     999903    2    3    3    0    0  0.95982429949E-01  0.82825568586E-01 -0.10657039639E-01  0.12849351650E+00  0.18008598480E-01 0.  0.
         14    1    1    2    0    0 -0.94983727443E-03  0.22702528072E-01 -0.73132134614E-02  0.23870275718E-01  0.00000000000E+00 0.  1.
     999901    1    3    3    0    0 -0.95032592675E-01 -0.10552809666E+00  0.17970253100E-01  0.89156620778E+00  0.88000000000E+00 0. -1.
        -11    1    4    4    0    0  0.62534690095E-01  0.55591895880E-01 -0.15464170655E-01  0.85090822348E-01  0.51100000000E-03 0. -1.
         11    1    4    4    0    0  0.33447739855E-01  0.27233672706E-01  0.48071310162E-02  0.43402694157E-01  0.51100000000E-03 0.  1.
</event>
<event>
 8    1  0.1092667E+005  0.1043930E+01  0.7957747E-01            NaN
         13   -1    0    0    0    0  0.00000000000E+00  0.00000000000E+00  0.74505805969E-08  0.10566000000E+00  0.10566000000E+00 0. -1.
     999900   -1    0    0    0    0 -0.00000000000E+00 -0.00000000000E+00 -0.74505805969E-08  0.93827000000E+00  0.93827000000E+00 0.  1.
     999902    2    1    2    0    0  0.89024123970E-02 -0.21150558224E-01 -0.63307648457E-02  0.10201250080E+01  0.10198472211E+01 0.  0.
     999903    2    3    3    0    0  0.54528159751E-01 -0.79236420270E-01 -0.89705478092E-01  0.13310357705E+00  0.20439151658E-01 0.  0.
         14    1    1    2    0    0 -0.89024123970E-02  0.21150558224E-01  0.63307648457E-02  0.23804991981E-01  0.00000000000E+00 0. -1.
     999901    1    3    3    0    0 -0.45625747354E-01  0.58085862046E-01  0.83374713247E-01  0.88702143097E+00  0.88000000000E+00 0. -1.
        -11    1    4    4    0    0  0.17693737568E-01 -0.16636244007E-01 -0.32885865784E-01  0.40884890280E-01  0.51100000000E-03 0.  1.
         11    1    4    4    0    0  0.36834422183E-01 -0.62600176262E-01 -0.56819612308E-01  0.92218686769E-01  0.51100000000E-03 0. -1.
</event>
<event>
 8    1  0.1092667E+005  0.1043930E+01  0.7957747E-01            NaN
         13   -1    0    0    0    0  0.00000000000E+00  0.00000000000E+00  0.74505805969E-08  0.10566000000E+00  0.10566000000E+00 0. -1.
     999900   -1    0    0    0    0 -0.00000000000E+00 -0.00000000000E+00 -0.74505805969E-08  0.93827000000E+00  0.93827000000E+00 0. -1.
     999902    2    1    2    0    0  0.21813535457E-01 -0.73968225599E-02  0.63179448468E-02  0.10200457010E+01  0.10197660380E+01 0.  0.
     999903    2    3    3    0    0 -0.97300651074E-01  0.39490291751E-01 -0.69144433017E-01  0.12758776841E+00  0.21697607876E-01 0.  0.
         14    1    1    2    0    0 -0.21813535457E-01  0.73968225599E-02 -0.63179448468E-02  0.23884299031E-01  0.00000000000E+00 0.  1.
     999901    1    3    3    0    0  0.11911418653E+00 -0.46887114311E-01  0.75462377864E-01  0.89245793256E+00  0.88000000000E+00 0.  1.
        -11    1    4    4    0    0 -0.82358227910E-01  0.41350315032E-01 -0.59782500860E-01  0.10984960076E+00  0.51100000000E-03 0.  1.
         11    1    4    4    0    0 -0.14942423164E-01 -0.18600232806E-02 -0.93619321565E-02  0.17738167643E-01  0.51100000000E-03 0. -1.
</event>
<event>
 8    1  0.1092667E+005  0.1043930E+01  0.7957747E-01            NaN
         13   -1    0    0    0    0  0.00000000000E+00  0.00000000000E+00  0.74505805969E-08  0.10566000000E+00  0.10566000000E+00 0.  1.
     999900   -1    0    0    0    0 -0.00000000000E+00 -0.00000000000E+00 -0.74505805969E-08  0.93827000000E+00  0.93827000000E+00 0. -1.
     999902    2    1    2    0    0 -0.12405431951E-01 -0.73696920606E-03  0.21414027798E-01  0.10191711945E+01  0.10188704163E+01 0.  0.
     999903    2    3    3    0    0  0.69585201910E-02 -0.17369406532E-02  0.13049928239E+00  0.13222387057E+00  0.20041239402E-01 0.  0.
         14    1    1    2    0    0  0.12405431951E-01  0.73696920606E-03 -0.21414027798E-01  0.24758805545E-01  0.00000000000E+00 0. -1.
     999901    1    3    3    0    0 -0.19363952142E-01  0.99997144713E-03 -0.10908525459E+00  0.88694732389E+00  0.88000000000E+00 0. -1.
        -11    1    4    4    0    0 -0.64992072434E-02  0.70303048536E-03  0.63717417763E-01  0.64053917867E-01  0.51100000000E-03 0. -1.
         11    1    4    4    0    0  0.13457727434E-01 -0.24399711385E-02  0.66781864627E-01  0.68169952699E-01  0.51100000000E-03 0.  1.
</event>
<event>
 8    1  0.1092667E+005  0.1043930E+01  0.7957747E-01            NaN
         13   -1    0    0    0    0  0.00000000000E+00  0.00000000000E+00  0.74505805969E-08  0.10566000000E+00  0.10566000000E+00 0. -1.
     999900   -1    0    0    0    0 -0.00000000000E+00 -0.00000000000E+00 -0.74505805969E-08  0.93827000000E+00  0.93827000000E+00 0.  1.
     999902    2    1    2    0    0 -0.60571427388E-02 -0.12143084895E-01  0.13258578385E-01  0.10249580895E+01  0.10247824900E+01 0.  0.
     999903    2    3    3    0    0  0.79203769322E-02  0.37807023860E-01  0.12888461531E+00  0.13588004742E+00  0.18974714706E-01 0.  0.
         14    1    1    2    0    0  0.60571427388E-02  0.12143084895E-01 -0.13258578385E-01  0.18971910545E-01  0.00000000000E+00 0. -1.
     999901    1    3    3    0    0 -0.13977519671E-01 -0.49950108756E-01 -0.11562603693E+00  0.88907804204E+00  0.88000000000E+00 0.  1.
        -11    1    4    4    0    0  0.13251685332E-01  0.26892978429E-01  0.10312248690E+00  0.10739342568E+00  0.51100000000E-03 0. -1.
         11    1    4    4    0    0 -0.53313084002E-02  0.10914045432E-01  0.25762128408E-01  0.28486621738E-01  0.51100000000E-03 0.  1.
</event>
<event>
 8    1  0.1092667E+005  0.1043930E+01  0.7957747E-01            NaN
         13   -1    0    0    0    0  0.00000000000E+00  0.00000000000E+00  0.74505805969E-08  0.10566000000E+00  0.10566000000E+00 0.  1.
     999900   -1    0    0    0    0 -0.00000000000E+00 -0.00000000000E+00 -0.74505805969E-08  0.93827000000E+00  0.93827000000E+00 0.  1.
     999902    2    1    2    0    0 -0.93053000090E-02  0.44200454920E-02 -0.21202022826E-01  0.10203577455E+01  0.10200854266E+01 0.  0.
     999903    2    3    3    0    0 -0.85735424173E-01  0.97988602883E-01 -0.32730852806E-03  0.13185766530E+00  0.20832847019E-01 0.  0.
         14    1    1    2    0    0  0.93053000090E-02 -0.44200454920E-02  0.21202022826E-01  0.23572254502E-01  0.00000000000E+00 0.  1.
     999901    1    3    3    0    0  0.76430124164E-01 -0.93568557391E-01 -0.20874714298E-01  0.88850008020E+00  0.88000000000E+00 0.  1.
        -11    1    4    4    0    0 -0.14607956998E-01  0.67741446275E-02 -0.15204835864E-02  0.16181916896E-01  0.51100000000E-03 0.  1.
         11    1    4    4    0    0 -0.71127467175E-01  0.91214458255E-01  0.11931750583E-02  0.11567574841E+00  0.51100000000E-03 0. -1.
</event>
<event>
 8    1  0.1092667E+005  0.1043930E+01  0.7957747E-01            NaN
         13   -1    0    0    0    0  0.00000000000E+00  0.00000000000E+00  0.74505805969E-08  0.10566000000E+00  0.10566000000E+00 0.  1.
     999900   -1    0    0    0    0 -0.00000000000E+00 -0.00000000000E+00 -0.74505805969E-08  0.93827000000E+00  0.93827000000E+00 0.  1.
     999902    2    1    2    0    0  0.16402720333E-01 -0.11845683385E-01 -0.11058641503E-01  0.10208721813E+01  0.10206117517E+01 0.  0.
     999903    2    3    3    0    0  0.22918937288E-01  0.38513889137E-02 -0.12926400114E+00  0.13280609923E+00  0.19701957232E-01 0.  0.
         14    1    1    2    0    0 -0.16402720333E-01  0.11845683385E-01  0.11058641503E-01  0.23057818654E-01  0.00000000000E+00 0.  1.
     999901    1    3    3    0    0 -0.65162169550E-02 -0.15697072299E-01  0.11820535964E+00  0.88806608212E+00  0.88000000000E+00 0. -1.
        -11    1    4    4    0    0  0.17517688158E-01 -0.62677082073E-02 -0.69492436362E-01  0.71941736128E-01  0.51100000000E-03 0.  1.
         11    1    4    4    0    0  0.54012491301E-02  0.10119097121E-01 -0.59771564776E-01  0.60864363099E-01  0.51100000000E-03 0. -1.
</event>
<event>
 8    1  0.1092667E+005  0.1043930E+01  0.7957747E-01            NaN
         13   -1    0    0    0    0  0.00000000000E+00  0.00000000000E+00  0.74505805969E-08  0.10566000000E+00  0.10566000000E+00 0. -1.
     999900   -1    0    0    0    0 -0.00000000000E+00 -0.00000000000E+00 -0.74505805969E-08  0.93827000000E+00  0.93827000000E+00 0.  1.
     999902    2    1    2    0    0  0.89274698192E-02 -0.18934940921E-01  0.11506539150E-01  0.10200420920E+01  0.10197623435E+01 0.  0.
     999903    2    3    3    0    0  0.82334126017E-01 -0.54673000867E-01  0.86845860668E-01  0.13305744757E+00  0.19850327645E-01 0.  0.
         14    1    1    2    0    0 -0.89274698192E-02  0.18934940921E-01 -0.11506539150E-01  0.23887907992E-01  0.00000000000E+00 0. -1.
     999901    1    3    3    0    0 -0.73406656198E-01  0.35738059946E-01 -0.75339321518E-01  0.88698464444E+00  0.88000000000E+00 0. -1.
        -11    1    4    4    0    0  0.48893942699E-01 -0.42573857322E-01  0.61701569718E-01  0.89501373098E-01  0.51100000000E-03 0.  1.
         11    1    4    4    0    0  0.33440183318E-01 -0.12099143545E-01  0.25144290950E-01  0.43556074471E-01  0.51100000000E-03 0. -1.
</event>
<event>
 8    1  0.1092667E+005  0.1043930E+01  0.7957747E-01            NaN
         13   -1    0    0    0    0  0.00000000000E+00  0.00000000000E+00  0.74505805969E-08  0.10566000000E+00  0.10566000000E+00 0. -1.
     999900   -1    0    0    0    0 -0.00000000000E+00 -0.00000000000E+00 -0.74505805969E-08  0.93827000000E+00  0.93827000000E+00 0.  1.
     999902    2    1    2    0    0  0.17875998842E-01 -0.74724049479E-02  0.12036357723E-01  0.10211207458E+01  0.10208659635E+01 0.  0.
     999903    2    3    3    0    0  0.64733581410E-02 -0.26494775527E-02 -0.12822592174E+00  0.12992672209E+00  0.19752012777E-01 0.  0.
         14    1    1    2    0    0 -0.17875998842E-01  0.74724049479E-02 -0.12036357723E-01  0.22809254208E-01  0.00000000000E+00 0.  1.
     999901    1    3    3    0    0  0.11402640701E-01 -0.48229273952E-02  0.14026227947E+00  0.89119402370E+00  0.88000000000E+00 0. -1.
        -11    1    4    4    0    0  0.12045361819E-01 -0.39146141903E-02 -0.53509019173E-01  0.54989919071E-01  0.51100000000E-03 0. -1.
         11    1    4    4    0    0 -0.55720036779E-02  0.12651366377E-02 -0.74716902571E-01  0.74936803017E-01  0.51100000000E-03 0.  1.
</event>
<event>
 8    1  0.1092667E+005  0.1043930E+01  0.7957747E-01            NaN
         13   -1    0    0    0    0  0.00000000000E+00  0.00000000000E+00  0.74505805969E-08  0.10566000000E+00  0.10566000000E+00 0. -1.
     999900   -1    0    0    0    0 -0.00000000000E+00 -0.00000000000E+00 -0.74505805969E-08  0.93827000000E+00  0.93827000000E+00 0.  1.
     999902    2    1    2    0    0 -0.10121158085E-01 -0.13001897965E-01  0.16525897996E-01  0.10205934943E+01  0.10203266576E+01 0.  0.
     999903    2    3    3    0    0 -0.99720509703E-01  0.82221263639E-01  0.40213633265E-02  0.13084529530E+00  0.19995091625E-01 0.  0.
         14    1    1    2    0    0  0.10121158085E-01  0.13001897965E-01 -0.16525897996E-01  0.23336505656E-01  0.00000000000E+00 0.  1.
     999901    1    3    3    0    0  0.89599351618E-01 -0.95223161604E-01  0.12504534670E-01  0.88974819904E+00  0.88000000000E+00 0.  1.
        -11    1    4    4    0    0 -0.25157094243E-01  0.25545361980E-01 -0.70188522463E-02  0.36537245617E-01  0.51100000000E-03 0. -1.
         11    1    4    4    0    0 -0.74563415460E-01  0.56675901659E-01  0.11040215573E-01  0.94308049682E-01  0.51100000000E-03 0.  1.
</event>
<event>
 8    1  0.1092667E+005  0.1043930E+01  0.7957747E-01            NaN
         13   -1    0    0    0    0  0.00000000000E+00  0.00000000000E+00  0.74505805969E-08  0.10566000000E+00  0.10566000000E+00 0. -1.
     999900   -1    0    0    0    0 -0.00000000000E+00 -0.00000000000E+00 -0.74505805969E-08  0.93827000000E+00  0.93827000000E+00 0.  1.
     999902    2    1    2    0    0  0.16536098727E-01 -0.67937939725E-02 -0.13547649266E-01  0.10214992845E+01  0.10212529810E+01 0.  0.
     999903    2    3    3    0    0  0.83822697912E-01  0.27317574338E-01  0.95437526460E-01  0.13157297271E+00  0.20751653839E-01 0.  0.
         14    1    1    2    0    0 -0.16536098727E-01  0.67937939725E-02  0.13547649266E-01  0.22430715509E-01  0.00000000000E+00 0. -1.
     999901    1    3    3    0    0 -0.67286599185E-01 -0.34111368310E-01 -0.10898517573E+00  0.88992631178E+00  0.88000000000E+00 0.  1.
        -11    1    4    4    0    0  0.26118865872E-01 -0.12540885300E-02  0.26173245809E-01  0.37000916335E-01  0.51100000000E-03 0.  1.
         11    1    4    4    0    0  0.57703832040E-01  0.28571662868E-01  0.69264280651E-01  0.94572056371E-01  0.51100000000E-03 0. -1.
</event>
<event>
 8    1  0.1092667E+005  0.1043930E+01  0.7957747E-01            NaN
         13   -1    0    0    0    0  0.00000000000E+00  0.00000000000E+00  0.74505805969E-08  0.10566000000E+00  0.10566000000E+00 0.  1.
     999900   -1    0    0    0    0 -0.00000000000E+00 -0.00000000000E+00 -0.74505805969E-08  0.93827000000E+00  0.93827000000E+00 0. -1.
     999902    2    1    2    0    0  0.17498246517E-01  0.16592847380E-01 -0.18645784861E-02  0.10197434775E+01  0.10194566063E+01 0.  0.
     999903    2    3    3    0    0 -0.82889192280E-01  0.51227023785E-01  0.82599887020E-01  0.12934389872E+00  0.20304596478E-01 0.  0.
         14    1    1    2    0    0 -0.17498246517E-01 -0.16592847380E-01  0.18645784861E-02  0.24186522451E-01  0.00000000000E+00 0.  1.
     999901    1    3    3    0    0  0.10038743880E+00 -0.34634176406E-01 -0.84464465506E-01  0.89039957883E+00  0.88000000000E+00 0. -1.
        -11    1    4    4    0    0 -0.33985689687E-01  0.16416021199E-01  0.44011266757E-01  0.57980734542E-01  0.51100000000E-03 0. -1.
         11    1    4    4    0    0 -0.48903502593E-01  0.34811002586E-01  0.38588620263E-01  0.71363164180E-01  0.51100000000E-03 0.  1.
</event>
<event>
 8    1  0.1092667E+005  0.1043930E+01  0.7957747E-01            NaN
         13   -1    0    0    0    0  0.00000000000E+00  0.00000000000E+00  0.74505805969E-08  0.10566000000E+00  0.10566000000E+00 0. -1.
     999900   -1    0    0    0    0 -0.00000000000E+00 -0.00000000000E+00 -0.74505805969E-08  0.93827000000E+00  0.93827000000E+00 0.  1.
     999902    2    1    2    0    0  0.24359307707E-01  0.27005934777E-02 -0.37627903735E-02  0.10191342812E+01  0.10188325945E+01 0.  0.
     999903    2    3    3    0    0  0.96337366141E-01  0.51036410692E-01 -0.72160416828E-01  0.13223212913E+00  0.19814310145E-01 0.  0.
         14    1    1    2    0    0 -0.24359307707E-01 -0.27005934777E-02  0.37627903735E-02  0.24795718754E-01  0.00000000000E+00 0.  1.
     999901    1    3    3    0    0 -0.71978058433E-01 -0.48335817215E-01  0.68397626454E-01  0.88690215212E+00  0.88000000000E+00 0.  1.
        -11    1    4    4    0    0  0.83211727741E-01  0.38688399560E-01 -0.53218446854E-01  0.10608227044E+00  0.51100000000E-03 0.  1.
         11    1    4    4    0    0  0.13125638400E-01  0.12348011132E-01 -0.18941969974E-01  0.26149858696E-01  0.51100000000E-03 0. -1.
</event>
<event>
 8    1  0.1092667E+005  0.1043930E+01  0.7957747E-01            NaN
         13   -1    0    0    0    0  0.00000000000E+00  0.00000000000E+00  0.74505805969E-08  0.10566000000E+00  0.10566000000E+00 0.  1.
     999900   -1    0    0    0    0 -0.00000000000E+00 -0.00000000000E+00 -0.74505805969E-08  0.93827000000E+00  0.93827000000E+00 0. -1.
     999902    2    1    2    0    0  0.11728371828E-01  0.17635101103E-01  0.31922259656E-02  0.10225117414E+01  0.10222873957E+01 0.  0.
     999903    2    3    3    0    0  0.41231725843E-01 -0.99911133727E-01  0.72230681359E-01  0.13152696397E+00  0.19994525798E-01 0.  0.
         14    1    1    2    0    0 -0.11728371828E-01 -0.17635101103E-01 -0.31922259656E-02  0.21418258642E-01  0.00000000000E+00 0. -1.
     999901    1    3    3    0    0 -0.29503354015E-01  0.11754623483E+00 -0.69038455393E-01  0.89098477739E+00  0.88000000000E+00 0. -1.
        -11    1    4    4    0    0  0.20257357072E-01 -0.73173901997E-01  0.50436661463E-01  0.91153158966E-01  0.51100000000E-03 0.  1.
         11    1    4    4    0    0  0.20974368771E-01 -0.26737231730E-01  0.21794019896E-01  0.40373804999E-01  0.51100000000E-03 0. -1.
</event>
<event>
 8    1  0.1092667E+005  0.1043930E+01  0.7957747E-01            NaN
         13   -1    0    0    0    0  0.00000000000E+00  0.00000000000E+00  0.74505805969E-08  0.10566000000E+00  0.10566000000E+00 0.  1.
     999900   -1    0    0    0    0 -0.00000000000E+00 -0.00000000000E+00 -0.74505805969E-08  0.93827000000E+00  0.93827000000E+00 0. -1.
     999902    2    1    2    0    0  0.97571564534E-02  0.93366431533E-03 -0.21366603632E-01  0.10204224356E+01  0.10201516268E+01 0.  0.
     999903    2    3    3    0    0 -0.77949146785E-01 -0.74005063320E-01 -0.73254928400E-01  0.13137766356E+00  0.18465835098E-01 0.  0.
         14    1    1    2    0    0 -0.97571564534E-02 -0.93366431533E-03  0.21366603632E-01  0.23507564354E-01  0.00000000000E+00 0.  1.
     999901    1    3    3    0    0  0.87706303238E-01  0.74938727636E-01  0.51888324768E-01  0.88904477209E+00  0.88000000000E+00 0. -1.
        -11    1    4    4    0    0 -0.35663676191E-01 -0.39709992739E-01 -0.26413460292E-01  0.59554288917E-01  0.51100000000E-03 0. -1.
         11    1    4    4    0    0 -0.42285470593E-01 -0.34295070582E-01 -0.46841468108E-01  0.71823374642E-01  0.51100000000E-03 0.  1.
</event>
<event>
 8    1  0.1092667E+005  0.1043930E+01  0.7957747E-01            NaN
         13   -1    0    0    0    0  0.00000000000E+00  0.00000000000E+00  0.74505805969E-08  0.10566000000E+00  0.10566000000E+00 0. -1.
     999900   -1    0    0    0    0 -0.00000000000E+00 -0.00000000000E+00 -0.74505805969E-08  0.93827000000E+00  0.93827000000E+00 0.  1.
     999902    2    1    2    0    0  0.55184513098E-02 -0.24639578636E-01  0.40543412990E-02  0.10183565797E+01  0.10180354236E+01 0.  0.
     999903    2    3    3    0    0 -0.70936486357E-01 -0.69955057113E-01  0.81814872737E-01  0.13046832645E+00  0.20065285798E-01 0.  0.
         14    1    1    2    0    0 -0.55184513098E-02  0.24639578636E-01 -0.40543412990E-02  0.25573420256E-01  0.00000000000E+00 0. -1.
     999901    1    3    3    0    0  0.76454937667E-01  0.45315478477E-01 -0.77760531438E-01  0.88788825329E+00  0.88000000000E+00 0.  1.
        -11    1    4    4    0    0 -0.15400480506E-01 -0.79484666673E-02  0.75416848297E-02  0.18907433810E-01  0.51100000000E-03 0.  1.
         11    1    4    4    0    0 -0.55536005850E-01 -0.62006590446E-01  0.74273187907E-01  0.11156089264E+00  0.51100000000E-03 0. -1.
</event>
<event>
 8    1  0.1092667E+005  0.1043930E+01  0.7957747E-01            NaN
         13   -1    0    0    0    0  0.00000000000E+00  0.00000000000E+00  0.74505805969E-08  0.10566000000E+00  0.10566000000E+00 0.  1.
     999900   -1    0    0    0    0 -0.00000000000E+00 -0.00000000000E+00 -0.74505805969E-08  0.93827000000E+00  0.93827000000E+00 0. -1.
     999902    2    1    2    0    0  0.12763630992E-01  0.14949174840E-01 -0.11477320387E-01  0.10211678167E+01  0.10209140967E+01 0.  0.
     999903    2    3    3    0    0 -0.82981178894E-01  0.31734011989E-01 -0.95365840898E-01  0.13185005391E+00  0.19921584708E-01 0.  0.
         14    1    1    2    0    0 -0.12763630992E-01 -0.14949174840E-01  0.11477320387E-01  0.22762183282E-01  0.00000000000E+00 0.  1.
     999901    1    3    3    0    0  0.95744809886E-01 -0.16784837149E-01  0.83888520511E-01  0.88931776281E+00  0.88000000000E+00 0.  1.
        -11    1    4    4    0    0 -0.37627417252E-01  0.11165043896E-01 -0.55905331004E-01  0.68309207944E-01  0.51100000000E-03 0.  1.
         11    1    4    4    0    0 -0.45353761642E-01  0.20568968093E-01 -0.39460509894E-01  0.63540845963E-01  0.51100000000E-03 0. -1.
</event>
<event>
 8    1  0.1116832E+005  0.1043930E+01  0.7957747E-01            NaN
         13   -1    0    0    0    0  0.00000000000E+00  0.00000000000E+00  0.74505805969E-08  0.10566000000E+00  0.10566000000E+00 0. -1.
     999900   -1    0    0    0    0 -0.00000000000E+00 -0.00000000000E+00 -0.74505805969E-08  0.93827000000E+00  0.93827000000E+00 0.  1.
     999902    2    1    2    0    0  0.46475474069E-02  0.13706556067E-01  0.19045381231E-01  0.10200093829E+01  0.10197288587E+01 0.  0.
     999903    2    3    3    0    0  0.11401229216E+00  0.55456774240E-01  0.31913767839E-01  0.13216405657E+00  0.19354397399E-01 0.  0.
         14    1    1    2    0    0 -0.46475474069E-02 -0.13706556067E-01 -0.19045381231E-01  0.23920617098E-01  0.00000000000E+00 0.  1.
     999901    1    3    3    0    0 -0.10936474475E+00 -0.41750218173E-01 -0.12868386608E-01  0.88784532633E+00  0.88000000000E+00 0.  1.
        -11    1    4    4    0    0  0.72620512414E-01  0.32171904479E-01  0.29079239147E-01  0.84585066834E-01  0.51100000000E-03 0. -1.
         11    1    4    4    0    0  0.41391779748E-01  0.23284869761E-01  0.28345286922E-02  0.47578989737E-01  0.51100000000E-03 0.  1.
</event>
<event>
 8    1  0.1092667E+005  0.1043930E+01  0.7957747E-01            NaN
         13   -1    0    0    0    0  0.00000000000E+00  0.00000000000E+00  0.74505805969E-08  0.10566000000E+00  0.10566000000E+00 0. -1.
     999900   -1    0    0    0    0 -0.00000000000E+00 -0.00000000000E+00 -0.74505805969E-08  0.93827000000E+00  0.93827000000E+00 0.  1.
     999902    2    1    2    0    0 -0.17791595901E-01  0.15892134595E-01 -0.71930425748E-03  0.10200633240E+01  0.10197840784E+01 0.  0.
     999903    2    3    3    0    0 -0.10891427059E+00 -0.20775802803E-01  0.68679666524E-01  0.13188310766E+00  0.19552625708E-01 0.  0.
         14    1    1    2    0    0  0.17791595901E-01 -0.15892134595E-01  0.71930425748E-03  0.23866676042E-01  0.00000000000E+00 0.  1.
     999901    1    3    3    0    0  0.91122674689E-01  0.36667937398E-01 -0.69398970782E-01  0.88818021630E+00  0.88000000000E+00 0.  1.
        -11    1    4    4    0    0 -0.52178026373E-01 -0.19888516721E-01  0.34358559001E-01  0.65565777896E-01  0.51100000000E-03 0.  1.
         11    1    4    4    0    0 -0.56736244217E-01 -0.88728608267E-03  0.34321107523E-01  0.66317329765E-01  0.51100000000E-03 0. -1.
</event>
<event>
 8    1  0.1092667E+005  0.1043930E+01  0.7957747E-01            NaN
         13   -1    0    0    0    0  0.00000000000E+00  0.00000000000E+00  0.74505805969E-08  0.10566000000E+00  0.10566000000E+00 0. -1.
     999900   -1    0    0    0    0 -0.00000000000E+00 -0.00000000000E+00 -0.74505805969E-08  0.93827000000E+00  0.93827000000E+00 0. -1.
     999902    2    1    2    0    0 -0.87055642780E-03 -0.15790122186E-01 -0.17061282154E-01  0.10206668709E+01  0.10204017288E+01 0.  0.
     999903    2    3    3    0    0 -0.44930675100E-02 -0.67641116057E-02 -0.13132240708E+00  0.13322662157E+00  0.20924082536E-01 0.  0.
         14    1    1    2    0    0  0.87055642780E-03  0.15790122186E-01  0.17061282154E-01  0.23263129108E-01  0.00000000000E+00 0. -1.
     999901    1    3    3    0    0  0.36225110822E-02 -0.90260105806E-02  0.11426112493E+00  0.88744024933E+00  0.88000000000E+00 0.  1.
        -11    1    4    4    0    0  0.63139385691E-02 -0.53867560453E-02 -0.25006922888E-01  0.26353183381E-01  0.51100000000E-03 0. -1.
         11    1    4    4    0    0 -0.10807006079E-01 -0.13773555604E-02 -0.10631548420E+00  0.10687343819E+00  0.51100000000E-03 0.  1.
</event>
<event>
 8    1  0.1092667E+005  0.1043930E+01  0.7957747E-01            NaN
         13   -1    0    0    0    0  0.00000000000E+00  0.00000000000E+00  0.74505805969E-08  0.10566000000E+00  0.10566000000E+00 0. -1.
     999900   -1    0    0    0    0 -0.00000000000E+00 -0.00000000000E+00 -0.74505805969E-08  0.93827000000E+00  0.93827000000E+00 0.  1.
     999902    2    1    2    0    0 -0.14695814262E-01 -0.11761231377E-01 -0.18976385744E-01  0.10172017989E+01  0.10168505804E+01 0.  0.
     999903    2    3    3    0    0  0.50375095648E-01 -0.11323647978E+00 -0.10183451483E-01  0.12894014538E+00  0.34083834749E-01 0.  0.
         14    1    1    2    0    0  0.14695814262E-01  0.11761231377E-01  0.18976385744E-01  0.26728201141E-01  0.00000000000E+00 0.  1.
     999901    1    3    3    0    0 -0.65070909911E-01  0.10147524840E+00 -0.87929342612E-02  0.88826165348E+00  0.88000000000E+00 0.  1.
        -11    1    4    4    0    0  0.35544750131E-01 -0.47074346985E-01 -0.15302504538E-01  0.60941374878E-01  0.51100000000E-03 0. -1.
         11    1    4    4    0    0  0.14830345517E-01 -0.66162132794E-01  0.51190530545E-02  0.67998770498E-01  0.51100000000E-03 0.  1.
</event>
<event>
 8    1  0.1092667E+005  0.1043930E+01  0.7957747E-01            NaN
         13   -1    0    0    0    0  0.00000000000E+00  0.00000000000E+00  0.74505805969E-08  0.10566000000E+00  0.10566000000E+00 0. -1.
     999900   -1    0    0    0    0 -0.00000000000E+00 -0.00000000000E+00 -0.74505805969E-08  0.93827000000E+00  0.93827000000E+00 0. -1.
     999902    2    1    2    0    0  0.11171832448E-01  0.17520639825E-01  0.11042124877E-01  0.10203989316E+01  0.10201275745E+01 0.  0.
     999903    2    3    3    0    0  0.28690678376E-01  0.97191315090E-01 -0.81588381572E-01  0.13178498997E+00  0.21007446769E-01 0.  0.
         14    1    1    2    0    0 -0.11171832448E-01 -0.17520639825E-01 -0.11042124877E-01  0.23531068440E-01  0.00000000000E+00 0.  1.
     999901    1    3    3    0    0 -0.17518845927E-01 -0.79670675266E-01  0.92630506449E-01  0.88861394159E+00  0.88000000000E+00 0.  1.
        -11    1    4    4    0    0  0.32039879837E-01  0.87259144488E-01 -0.74409224280E-01  0.11907017248E+00  0.51100000000E-03 0.  1.
         11    1    4    4    0    0 -0.33492014610E-02  0.99321706024E-02 -0.71791572925E-02  0.12714817487E-01  0.51100000000E-03 0. -1.
</event>
<event>
 8    1  0.1092667E+005  0.1043930E+01  0.7957747E-01            NaN
         13   -1    0    0    0    0  0.00000000000E+00  0.00000000000E+00  0.74505805969E-08  0.10566000000E+00  0.10566000000E+00 0. -1.
     999900   -1    0    0    0    0 -0.00000000000E+00 -0.00000000000E+00 -0.74505805969E-08  0.93827000000E+00  0.93827000000E+00 0. -1.
     999902    2    1    2    0    0  0.15510937270E-01  0.13944228950E-01 -0.94130535216E-02  0.10210468998E+01  0.10207904464E+01 0.  0.
     999903    2    3    3    0    0  0.51146309733E-01  0.17842660921E-01  0.11769681339E+00  0.13119185783E+00  0.20602381659E-01 0.  0.
         14    1    1    2    0    0 -0.15510937270E-01 -0.13944228950E-01  0.94130535216E-02  0.22883100153E-01  0.00000000000E+00 0. -1.
     999901    1    3    3    0    0 -0.35635372463E-01 -0.38984319707E-02 -0.12710986691E+00  0.88985504202E+00  0.88000000000E+00 0. -1.
        -11    1    4    4    0    0  0.10080517482E-02  0.36397988740E-02  0.21029035199E-01  0.21371610762E-01  0.51100000000E-03 0.  1.
         11    1    4    4    0    0  0.50138257985E-01  0.14202862047E-01  0.96667778190E-01  0.10982024706E+00  0.51100000000E-03 0. -1.
</event>
<event>
 8    1  0.1092667E+005  0.1043930E+01  0.7957747E-01            NaN
         13   -1    0    0    0    0  0.00000000000E+00  0.00000000000E+00  0.74505805969E-08  0.10566000000E+00  0.10566000000E+00 0. -1.
     999900   -1    0    0    0    0 -0.00000000000E+00 -0.00000000000E+00 -0.74505805969E-08  0.93827000000E+00  0.93827000000E+00 0.  1.
     999902    2    1    2    0    0 -0.12476388595E-01 -0.20193644550E-01 -0.88049951008E-02  0.10186125852E+01  0.10182979069E+01 0.  0.
     999903    2    3    3    0    0 -0.10823934171E+00  0.64764628876E-01  0.17446376980E-01  0.12896232475E+00  0.20413056814E-01 0.  0.
         14    1    1    2    0    0  0.12476388595E-01  0.20193644550E-01  0.88049951008E-02  0.25317414784E-01  0.00000000000E+00 0. -1.
     999901    1    3    3    0    0  0.95762953112E-01 -0.84958273426E-01 -0.26251372081E-01  0.88965026047E+00  0.88000000000E+00 0.  1.
        -11    1    4    4    0    0 -0.92378374942E-01  0.50295814779E-01  0.20817291603E-01  0.10722431577E+00  0.51100000000E-03 0.  1.
         11    1    4    4    0    0 -0.15860966766E-01  0.14468814097E-01 -0.33709146231E-02  0.21738008982E-01  0.51100000000E-03 0. -1.
</event>
<event>
 8    1  0.1092667E+005  0.1043930E+01  0.7957747E-01            NaN
         13   -1    0    0    0    0  0.00000000000E+00  0.00000000000E+00  0.74505805969E-08  0.10566000000E+00  0.10566000000E+00 0. -1.
     999900   -1    0    0    0    0 -0.00000000000E+00 -0.00000000000E+00 -0.74505805969E-08  0.93827000000E+00  0.93827000000E+00 0.  1.
     999902    2    1    2    0    0  0.18603419350E-01 -0.14653447408E-01 -0.22058290230E-03  0.10202475299E+01  0.10199726285E+01 0.  0.
     999903    2    3    3    0    0 -0.49782300389E-01 -0.41253338598E-01  0.11108579955E+00  0.13020636702E+00  0.20821329792E-01 0.  0.
         14    1    1    2    0    0 -0.18603419350E-01  0.14653447408E-01  0.22058290230E-03  0.23682470084E-01  0.00000000000E+00 0.  1.
     999901    1    3    3    0    0  0.68385719739E-01  0.26599891189E-01 -0.11130638245E+00  0.89004116290E+00  0.88000000000E+00 0. -1.
        -11    1    4    4    0    0 -0.24716981596E-01 -0.32307358390E-01  0.58323911692E-01  0.71110016042E-01  0.51100000000E-03 0. -1.
         11    1    4    4    0    0 -0.25065318793E-01 -0.89459802077E-02  0.52761887854E-01  0.59096350979E-01  0.51100000000E-03 0.  1.
</event>
<event>
 8    1  0.1123812E+005  0.1043930E+01  0.7957747E-01            NaN
         13   -1    0    0    0    0  0.00000000000E+00  0.00000000000E+00  0.74505805969E-08  0.10566000000E+00  0.10566000000E+00 0. -1.
     999900   -1    0    0    0    0 -0.00000000000E+00 -0.00000000000E+00 -0.74505805969E-08  0.93827000000E+00  0.93827000000E+00 0.  1.
     999902    2    1    2    0    0  0.19256534804E-01 -0.79147918707E-02 -0.10098007519E-01  0.10207906867E+01  0.10205283917E+01 0.  0.
     999903    2    3    3    0    0  0.17586230937E-01  0.71558501738E-01 -0.10848156722E+00  0.13174731369E+00  0.12617826613E-01 0.  0.
         14    1    1    2    0    0 -0.19256534804E-01  0.79147918707E-02  0.10098007519E-01  0.23139313275E-01  0.00000000000E+00 0. -1.
     999901    1    3    3    0    0  0.16703038662E-02 -0.79473293609E-01  0.98383559704E-01  0.88904337303E+00  0.88000000000E+00 0.  1.
        -11    1    4    4    0    0  0.95891771305E-02  0.39730504986E-01 -0.48988018356E-01  0.63800880934E-01  0.51100000000E-03 0.  1.
         11    1    4    4    0    0  0.79970538069E-02  0.31827996752E-01 -0.59493548867E-01  0.67946432759E-01  0.51100000000E-03 0. -1.
</event>
<event>
 8    1  0.1092667E+005  0.1043930E+01  0.7957747E-01            NaN
         13   -1    0    0    0    0  0.00000000000E+00  0.00000000000E+00  0.74505805969E-08  0.10566000000E+00  0.10566000000E+00 0. -1.
     999900   -1    0    0    0    0 -0.00000000000E+00 -0.00000000000E+00 -0.74505805969E-08  0.93827000000E+00  0.93827000000E+00 0.  1.
     999902    2    1    2    0    0  0.92343677329E-02  0.16108255407E-01 -0.13848207607E-01  0.10207670491E+01  0.10205042118E+01 0.  0.
     999903    2    3    3    0    0  0.75764111101E-01 -0.97806552528E-01  0.33611021692E-01  0.12966931673E+00  0.19445016675E-01 0.  0.
         14    1    1    2    0    0 -0.92343677329E-02 -0.16108255407E-01  0.13848207607E-01  0.23162950883E-01  0.00000000000E+00 0. -1.
     999901    1    3    3    0    0 -0.66529743368E-01  0.11391480794E+00 -0.47459229299E-01  0.89109773239E+00  0.88000000000E+00 0.  1.
        -11    1    4    4    0    0  0.19586048219E-01 -0.31874734386E-01  0.20275640663E-02  0.37469776007E-01  0.51100000000E-03 0.  1.
         11    1    4    4    0    0  0.56178062883E-01 -0.65931818142E-01  0.31583457626E-01  0.92199540722E-01  0.51100000000E-03 0. -1.
</event>
<event>
 8    1  0.1092667E+005  0.1043930E+01  0.7957747E-01            NaN
         13   -1    0    0    0    0  0.00000000000E+00  0.00000000000E+00  0.74505805969E-08  0.10566000000E+00  0.10566000000E+00 0. -1.
     999900   -1    0    0    0    0 -0.00000000000E+00 -0.00000000000E+00 -0.74505805969E-08  0.93827000000E+00  0.93827000000E+00 0.  1.
     999902    2    1    2    0    0  0.79785199400E-02 -0.19443637731E-01 -0.98092383691E-02  0.10207366176E+01  0.10204730813E+01 0.  0.
     999903    2    3    3    0    0  0.21255184362E-01  0.95547301486E-01  0.80908479640E-01  0.12853210616E+00  0.19830545932E-01 0.  0.
         14    1    1    2    0    0 -0.79785199400E-02  0.19443637731E-01  0.98092383691E-02  0.23193382376E-01  0.00000000000E+00 0. -1.
     999901    1    3    3    0    0 -0.13276664422E-01 -0.11499093922E+00 -0.90717718010E-01  0.89220451147E+00  0.88000000000E+00 0.  1.
        -11    1    4    4    0    0  0.18122606152E-01  0.38453353005E-01  0.38300129859E-01  0.57221064997E-01  0.51100000000E-03 0. -1.
         11    1    4    4    0    0  0.31325782102E-02  0.57093948481E-01  0.42608349781E-01  0.71311041161E-01  0.51100000000E-03 0.  1.
</event>
<event>
 8    1  0.1092667E+005  0.1043930E+01  0.7957747E-01            NaN
         13   -1    0    0    0    0  0.00000000000E+00  0.00000000000E+00  0.74505805969E-08  0.10566000000E+00  0.10566000000E+00 0.  1.
     999900   -1    0    0    0    0 -0.00000000000E+00 -0.00000000000E+00 -0.74505805969E-08  0.93827000000E+00  0.93827000000E+00 0.  1.
     999902    2    1    2    0    0  0.14327107106E-01 -0.57486187466E-02  0.17077187988E-01  0.10209095099E+01  0.10206499324E+01 0.  0.
     999903    2    3    3    0    0  0.98695620844E-01 -0.57246628376E-01 -0.63310717518E-01  0.13173443913E+00  0.18102857935E-01 0.  0.
         14    1    1    2    0    0 -0.14327107106E-01  0.57486187466E-02 -0.17077187988E-01  0.23020490114E-01  0.00000000000E+00 0. -1.
     999901    1    3    3    0    0 -0.84368513738E-01  0.51498009629E-01  0.80387905506E-01  0.88917507076E+00  0.88000000000E+00 0. -1.
        -11    1    4    4    0    0  0.53437756698E-01 -0.24745854180E-01 -0.24264409742E-01  0.63694378411E-01  0.51100000000E-03 0.  1.
         11    1    4    4    0    0  0.45257864146E-01 -0.32500774196E-01 -0.39046307776E-01  0.68040060717E-01  0.51100000000E-03 0. -1.
</event>
<event>
 8    1  0.1092667E+005  0.1043930E+01  0.7957747E-01            NaN
         13   -1    0    0    0    0  0.00000000000E+00  0.00000000000E+00  0.74505805969E-08  0.10566000000E+00  0.10566000000E+00 0. -1.
     999900   -1    0    0    0    0 -0.00000000000E+00 -0.00000000000E+00 -0.74505805969E-08  0.93827000000E+00  0.93827000000E+00 0.  1.
     999902    2    1    2    0    0 -0.36810618412E-02 -0.16345949379E-02 -0.23858058143E-01  0.10197343588E+01  0.10194472686E+01 0.  0.
     999903    2    3    3    0    0 -0.68613645403E-01  0.17637971306E-01 -0.11073214623E+00  0.13286639823E+00  0.19311685691E-01 0.  0.
         14    1    1    2    0    0  0.36810618412E-02  0.16345949379E-02  0.23858058143E-01  0.24195641244E-01  0.00000000000E+00 0. -1.
     999901    1    3    3    0    0  0.64932583562E-01 -0.19272566244E-01  0.86874088086E-01  0.88686796052E+00  0.88000000000E+00 0. -1.
        -11    1    4    4    0    0 -0.51125880039E-01  0.54812937664E-02 -0.86225379691E-01  0.10039411046E+00  0.51100000000E-03 0.  1.
         11    1    4    4    0    0 -0.17487765365E-01  0.12156677540E-01 -0.24506766537E-01  0.32472287776E-01  0.51100000000E-03 0. -1.
</event>
<event>
 8    1  0.1092667E+005  0.1043930E+01  0.7957747E-01            NaN
         13   -1    0    0    0    0  0.00000000000E+00  0.00000000000E+00  0.74505805969E-08  0.10566000000E+00  0.10566000000E+00 0. -1.
     999900   -1    0    0    0    0 -0.00000000000E+00 -0.00000000000E+00 -0.74505805969E-08  0.93827000000E+00  0.93827000000E+00 0. -1.
     999902    2    1    2    0    0  0.19631791894E-01 -0.20335005125E-02 -0.82856183441E-02  0.10225245369E+01  0.10223004621E+01 0.  0.
     999903    2    3    3    0    0  0.12363028103E+00  0.44887102504E-01  0.20651863033E-01  0.13468749866E+00  0.20369695371E-01 0.  0.
         14    1    1    2    0    0 -0.19631791894E-01  0.20335005125E-02  0.82856183441E-02  0.21405463056E-01  0.00000000000E+00 0. -1.
     999901    1    3    3    0    0 -0.10399848913E+00 -0.46920603016E-01 -0.28937481378E-01  0.88783703829E+00  0.88000000000E+00 0.  1.
        -11    1    4    4    0    0  0.64526462566E-01  0.13504554688E-01  0.14354491286E-01  0.67471104257E-01  0.51100000000E-03 0. -1.
         11    1    4    4    0    0  0.59103818460E-01  0.31382547816E-01  0.62973717476E-02  0.67216394398E-01  0.51100000000E-03 0.  1.
</event>
<event>
 8    1  0.1092667E+005  0.1043930E+01  0.7957747E-01            NaN
         13   -1    0    0    0    0  0.00000000000E+00  0.00000000000E+00  0.74505805969E-08  0.10566000000E+00  0.10566000000E+00 0. -1.
     999900   -1    0    0    0    0 -0.00000000000E+00 -0.00000000000E+00 -0.74505805969E-08  0.93827000000E+00  0.93827000000E+00 0. -1.
     999902    2    1    2    0    0  0.15758264827E-01  0.10492880690E-01  0.17467702368E-01  0.10181706506E+01  0.10178447473E+01 0.  0.
     999903    2    3    3    0    0 -0.22365021990E-01  0.12353111358E+00 -0.22456289919E-01  0.12922467235E+00  0.20847080274E-01 0.  0.
         14    1    1    2    0    0 -0.15758264827E-01 -0.10492880690E-01 -0.17467702368E-01  0.25759349401E-01  0.00000000000E+00 0.  1.
     999901    1    3    3    0    0  0.38123286817E-01 -0.11303823289E+00  0.39923992287E-01  0.88894597825E+00  0.88000000000E+00 0. -1.
        -11    1    4    4    0    0 -0.13955190284E-01  0.43298848019E-01 -0.16260816438E-01  0.48313692136E-01  0.51100000000E-03 0. -1.
         11    1    4    4    0    0 -0.84098317058E-02  0.80232265558E-01 -0.61954734812E-02  0.80910980210E-01  0.51100000000E-03 0.  1.
</event>
<event>
 8    1  0.1092667E+005  0.1043930E+01  0.7957747E-01            NaN
         13   -1    0    0    0    0  0.00000000000E+00  0.00000000000E+00  0.74505805969E-08  0.10566000000E+00  0.10566000000E+00 0. -1.
     999900   -1    0    0    0    0 -0.00000000000E+00 -0.00000000000E+00 -0.74505805969E-08  0.93827000000E+00  0.93827000000E+00 0. -1.
     999902    2    1    2    0    0 -0.14091962149E-01 -0.34061502085E-02  0.13988213627E-01  0.10237841474E+01  0.10235859149E+01 0.  0.
     999903    2    3    3    0    0  0.14184339942E-01 -0.13036846934E+00  0.21769136631E-01  0.13418900212E+00  0.18321017547E-01 0.  0.
         14    1    1    2    0    0  0.14091962149E-01  0.34061502085E-02 -0.13988213627E-01  0.20145852599E-01  0.00000000000E+00 0.  1.
     999901    1    3    3    0    0 -0.28276302091E-01  0.12696231913E+00 -0.77809230045E-02  0.88959514528E+00  0.88000000000E+00 0.  1.
        -11    1    4    4    0    0  0.35629931557E-02 -0.29863452259E-01  0.12918045023E-01  0.32736183487E-01  0.51100000000E-03 0.  1.
         11    1    4    4    0    0  0.10621346786E-01 -0.10050501708E+00  0.88510916082E-02  0.10145281864E+00  0.51100000000E-03 0. -1.
</event>
<event>
 8    1  0.1092667E+005  0.1043930E+01  0.7957747E-01            NaN
         13   -1    0    0    0    0  0.00000000000E+00  0.00000000000E+00  0.74505805969E-08  0.10566000000E+00  0.10566000000E+00 0.  1.
     999900   -1    0    0    0    0 -0.00000000000E+00 -0.00000000000E+00 -0.74505805969E-08  0.93827000000E+00  0.93827000000E+00 0. -1.
     999902    2    1    2    0    0  0.71749514980E-02 -0.18783847361E-01 -0.13876014419E-01  0.10194993507E+01  0.10192065882E+01 0.  0.
     999903    2    3    3    0    0 -0.10545855507E+00 -0.37085345276E-01  0.60709057272E-01  0.12900275632E+00  0.21431094948E-01 0.  0.
         14    1    1    2    0    0 -0.71749514980E-02  0.18783847361E-01  0.13876014419E-01  0.24430649333E-01  0.00000000000E+00 0.  1.
     999901    1    3    3    0    0  0.11263350657E+00  0.18301497914E-01 -0.74585071690E-01  0.89049659435E+00  0.88000000000E+00 0. -1.
        -11    1    4    4    0    0 -0.75428058887E-01 -0.20498717524E-01  0.32774556183E-01  0.84758611017E-01  0.51100000000E-03 0. -1.
         11    1    4    4    0    0 -0.30030496185E-01 -0.16586627752E-01  0.27934501089E-01  0.44244145301E-01  0.51100000000E-03 0.  1.
</event>
<event>
 8    1  0.1092667E+005  0.1043930E+01  0.7957747E-01            NaN
         13   -1    0    0    0    0  0.00000000000E+00  0.00000000000E+00  0.74505805969E-08  0.10566000000E+00  0.10566000000E+00 0.  1.
     999900   -1    0    0    0    0 -0.00000000000E+00 -0.00000000000E+00 -0.74505805969E-08  0.93827000000E+00  0.93827000000E+00 0.  1.
     999902    2    1    2    0    0  0.18411060833E-02 -0.49577370277E-02 -0.24466777090E-01  0.10188981801E+01  0.10185906486E+01 0.  0.
     999903    2    3    3    0    0 -0.10935138835E+00 -0.65093233046E-01 -0.14822972895E-01  0.12981266581E+00  0.20898625740E-01 0.  0.
         14    1    1    2    0    0 -0.18411060833E-02  0.49577370277E-02  0.24466777090E-01  0.25031819934E-01  0.00000000000E+00 0.  1.
     999901    1    3    3    0    0  0.11119249443E+00  0.60135496018E-01 -0.96438041947E-02  0.88908551426E+00  0.88000000000E+00 0.  1.
        -11    1    4    4    0    0 -0.92131894554E-01 -0.62326176202E-01 -0.98488046022E-02  0.11166959437E+00  0.51100000000E-03 0.  1.
         11    1    4    4    0    0 -0.17219493792E-01 -0.27670568443E-02 -0.49741682932E-02  0.18143071439E-01  0.51100000000E-03 0. -1.
</event>
<event>
 8    1  0.1092667E+005  0.1043930E+01  0.7957747E-01            NaN
         13   -1    0    0    0    0  0.00000000000E+00  0.00000000000E+00  0.74505805969E-08  0.10566000000E+00  0.10566000000E+00 0. -1.
     999900   -1    0    0    0    0 -0.00000000000E+00 -0.00000000000E+00 -0.74505805969E-08  0.93827000000E+00  0.93827000000E+00 0.  1.
     999902    2    1    2    0    0  0.37664236170E-02  0.23095286909E-01 -0.31530791672E-02  0.10203181358E+01  0.10200448902E+01 0.  0.
     999903    2    3    3    0    0  0.61451668698E-01  0.11664937800E+00 -0.62286788963E-02  0.13347575137E+00  0.19839223470E-01 0.  0.
         14    1    1    2    0    0 -0.37664236170E-02 -0.23095286909E-01  0.31530791672E-02  0.23611864232E-01  0.00000000000E+00 0.  1.
     999901    1    3    3    0    0 -0.57685245082E-01 -0.93554091092E-01  0.30755997291E-02  0.88684238440E+00  0.88000000000E+00 0. -1.
        -11    1    4    4    0    0  0.24708611807E-01  0.66838557872E-01  0.33018814835E-04  0.71261283507E-01  0.51100000000E-03 0.  1.
         11    1    4    4    0    0  0.36743056891E-01  0.49810820129E-01 -0.62616977111E-02  0.62214467858E-01  0.51100000000E-03 0. -1.
</event>
<event>
 8    1  0.1092667E+005  0.1043930E+01  0.7957747E-01            NaN
         13   -1    0    0    0    0  0.00000000000E+00  0.00000000000E+00  0.74505805969E-08  0.10566000000E+00  0.10566000000E+00 0. -1.
     999900   -1    0    0    0    0 -0.00000000000E+00 -0.00000000000E+00 -0.74505805969E-08  0.93827000000E+00  0.93827000000E+00 0. -1.
     999902    2    1    2    0    0 -0.23437593670E-01 -0.53752670068E-02 -0.84622912984E-02  0.10184383412E+01  0.10181192613E+01 0.  0.
     999903    2    3    3    0    0 -0.94856829774E-02 -0.12708421427E+00 -0.15476138315E-01  0.12992445969E+00  0.20011963205E-01 0.  0.
         14    1    1    2    0    0  0.23437593670E-01  0.53752670068E-02  0.84622912984E-02  0.25491658762E-01  0.00000000000E+00 0.  1.
     999901    1    3    3    0    0 -0.13951910693E-01  0.12170894726E+00  0.70138470162E-02  0.88851388155E+00  0.88000000000E+00 0.  1.
        -11    1    4    4    0    0 -0.98847482877E-02 -0.28490748429E-01 -0.70173153687E-02  0.30966672904E-01  0.51100000000E-03 0.  1.
         11    1    4    4    0    0  0.39906531024E-03 -0.98593465836E-01 -0.84588229459E-02  0.98957786785E-01  0.51100000000E-03 0. -1.
</event>
<event>
 8    1  0.1092667E+005  0.1043930E+01  0.7957747E-01            NaN
         13   -1    0    0    0    0  0.00000000000E+00  0.00000000000E+00  0.74505805969E-08  0.10566000000E+00  0.10566000000E+00 0.  1.
     999900   -1    0    0    0    0 -0.00000000000E+00 -0.00000000000E+00 -0.74505805969E-08  0.93827000000E+00  0.93827000000E+00 0.  1.
     999902    2    1    2    0    0  0.71371040602E-02  0.20388256766E-01 -0.10239198693E-01  0.10200247609E+01  0.10197446015E+01 0.  0.
     999903    2    3    3    0    0 -0.28819478210E-01  0.90752813050E-01  0.87970990894E-01  0.13104259685E+00  0.19147625191E-01 0.  0.
         14    1    1    2    0    0 -0.71371040602E-02 -0.20388256766E-01  0.10239198693E-01  0.23905239136E-01  0.00000000000E+00 0. -1.
     999901    1    3    3    0    0  0.35956582270E-01 -0.70364556284E-01 -0.98210189587E-01  0.88898216401E+00  0.88000000000E+00 0.  1.
        -11    1    4    4    0    0 -0.14806739809E-01  0.20199423180E-01  0.25879685881E-01  0.36017710961E-01  0.51100000000E-03 0. -1.
         11    1    4    4    0    0 -0.14012738400E-01  0.70553389870E-01  0.62091305013E-01  0.95024885892E-01  0.51100000000E-03 0.  1.
</event>
<event>
 8    1  0.1092667E+005  0.1043930E+01  0.7957747E-01            NaN
         13   -1    0    0    0    0  0.00000000000E+00  0.00000000000E+00  0.74505805969E-08  0.10566000000E+00  0.10566000000E+00 0.  1.
     999900   -1    0    0    0    0 -0.00000000000E+00 -0.00000000000E+00 -0.74505805969E-08  0.93827000000E+00  0.93827000000E+00 0. -1.
     999902    2    1    2    0    0  0.69088543740E-02  0.14812799134E-01 -0.15981015121E-01  0.10210707758E+01  0.10208148633E+01 0.  0.
     999903    2    3    3    0    0  0.10836230684E+00  0.59755213708E-01 -0.39797792166E-01  0.13378285042E+00  0.31637188514E-01 0.  0.
         14    1    1    2    0    0 -0.69088543740E-02 -0.14812799134E-01  0.15981015121E-01  0.22859224204E-01  0.00000000000E+00 0.  1.
     999901    1    3    3    0    0 -0.10145345246E+00 -0.44942414574E-01  0.23816777045E-01  0.88728792537E+00  0.88000000000E+00 0. -1.
        -11    1    4    4    0    0  0.25834073564E-01  0.13539730963E-01  0.41814225170E-02  0.29469799570E-01  0.51100000000E-03 0.  1.
         11    1    4    4    0    0  0.82528233275E-01  0.46215482745E-01 -0.43979214683E-01  0.10431305085E+00  0.51100000000E-03 0. -1.
</event>
<event>
 8    1  0.1092667E+005  0.1043930E+01  0.7957747E-01            NaN
         13   -1    0    0    0    0  0.00000000000E+00  0.00000000000E+00  0.74505805969E-08  0.10566000000E+00  0.10566000000E+00 0. -1.
     999900   -1    0    0    0    0 -0.00000000000E+00 -0.00000000000E+00 -0.74505805969E-08  0.93827000000E+00  0.93827000000E+00 0. -1.
     999902    2    1    2    0    0 -0.21297471522E-03 -0.20509423334E-01 -0.11856258950E-01  0.10202392280E+01  0.10199641315E+01 0.  0.
     999903    2    3    3    0    0 -0.68927391312E-01 -0.17091385517E-01  0.10640469513E+00  0.12966693595E+00  0.21176741990E-01 0.  0.
         14    1    1    2    0    0  0.21297471522E-03  0.20509423334E-01  0.11856258950E-01  0.23690772044E-01  0.00000000000E+00 0.  1.
     999901    1    3    3    0    0  0.68714416596E-01 -0.34180378168E-02 -0.11826095408E+00  0.89057229201E+00  0.88000000000E+00 0. -1.
        -11    1    4    4    0    0 -0.52562721200E-01 -0.46712727331E-02  0.67630929671E-01  0.85783822589E-01  0.51100000000E-03 0.  1.
         11    1    4    4    0    0 -0.16364670111E-01 -0.12420112784E-01  0.38773765457E-01  0.43883113360E-01  0.51100000000E-03 0. -1.
</event>
<event>
 8    1  0.1092667E+005  0.1043930E+01  0.7957747E-01            NaN
         13   -1    0    0    0    0  0.00000000000E+00  0.00000000000E+00  0.74505805969E-08  0.10566000000E+00  0.10566000000E+00 0. -1.
     999900   -1    0    0    0    0 -0.00000000000E+00 -0.00000000000E+00 -0.74505805969E-08  0.93827000000E+00  0.93827000000E+00 0. -1.
     999902    2    1    2    0    0  0.12162195144E-01 -0.10867344239E-01  0.95977855619E-02  0.10250055278E+01  0.10248308135E+01 0.  0.
     999903    2    3    3    0    0 -0.75444341383E-01 -0.74843842494E-01  0.81537403164E-01  0.13543079445E+00  0.19992562757E-01 0.  0.
         14    1    1    2    0    0 -0.12162195144E-01  0.10867344239E-01 -0.95977855619E-02  0.18924472231E-01  0.00000000000E+00 0.  1.
     999901    1    3    3    0    0  0.87606536528E-01  0.63976498256E-01 -0.71939617602E-01  0.88957473331E+00  0.88000000000E+00 0. -1.
        -11    1    4    4    0    0 -0.43863200955E-01 -0.29710559310E-01  0.42349696166E-01  0.67826658615E-01  0.51100000000E-03 0.  1.
         11    1    4    4    0    0 -0.31581140428E-01 -0.45133283184E-01  0.39187706998E-01  0.67604135839E-01  0.51100000000E-03 0. -1.
</event>
<event>
 7    1  0.1092667E+005  0.1043930E+01  0.7957747E-01            NaN
         13   -1    0    0    0    0  0.00000000000E+00  0.00000000000E+00  0.74505805969E-08  0.10566000000E+00  0.10566000000E+00 0. -1.
     999900   -1    0    0    0    0 -0.00000000000E+00 -0.00000000000E+00 -0.74505805969E-08  0.93827000000E+00  0.93827000000E+00 0. -1.
     999903    2    1    2    0    0 -0.29971721662E-01 -0.11919913801E-02 -0.31788332236E-01  0.48120234240E-01  0.20132906749E-01 0.  0.
         14    1    1    2    0    0 -0.70627799399E-01  0.49305661717E-01  0.65377501557E-01  0.10813672843E+00  0.00000000000E+00 0. -1.
     999901    1    1    2    0    0  0.10059952106E+00 -0.48113670337E-01 -0.33589169321E-01  0.88767303733E+00  0.88000000000E+00 0. -1.
        -11    1    3    3    0    0 -0.10208539208E-01 -0.35199724358E-02 -0.24747051445E-01  0.27005224586E-01  0.51100000000E-03 0.  1.
         11    1    3    3    0    0 -0.19763182454E-01  0.23279810557E-02 -0.70412807902E-02  0.21115009654E-01  0.51100000000E-03 0. -1.
</event>
<event>
 8    1  0.1092667E+005  0.1043930E+01  0.7957747E-01            NaN
         13   -1    0    0    0    0  0.00000000000E+00  0.00000000000E+00  0.74505805969E-08  0.10566000000E+00  0.10566000000E+00 0.  1.
     999900   -1    0    0    0    0 -0.00000000000E+00 -0.00000000000E+00 -0.74505805969E-08  0.93827000000E+00  0.93827000000E+00 0.  1.
     999902    2    1    2    0    0  0.82894032901E-02  0.14844899478E-01 -0.17600739963E-01  0.10194581530E+01  0.10191643903E+01 0.  0.
     999903    2    3    3    0    0 -0.21033699012E-01  0.12805741096E+00 -0.67859351233E-02  0.13165531619E+00  0.21117679064E-01 0.  0.
         14    1    1    2    0    0 -0.82894032901E-02 -0.14844899478E-01  0.17600739963E-01  0.24471846981E-01  0.00000000000E+00 0.  1.
     999901    1    3    3    0    0  0.29323102302E-01 -0.11321251148E+00 -0.10814804840E-01  0.88780283683E+00  0.88000000000E+00 0.  1.
        -11    1    4    4    0    0 -0.22304912763E-01  0.78302557852E-01 -0.84311944005E-02  0.81854418693E-01  0.51100000000E-03 0.  1.
         11    1    4    4    0    0  0.12712137504E-02  0.49754853107E-01  0.16452592773E-02  0.49800897494E-01  0.51100000000E-03 0. -1.
</event>
<event>
 8    1  0.1092667E+005  0.1043930E+01  0.7957747E-01            NaN
         13   -1    0    0    0    0  0.00000000000E+00  0.00000000000E+00  0.74505805969E-08  0.10566000000E+00  0.10566000000E+00 0.  1.
     999900   -1    0    0    0    0 -0.00000000000E+00 -0.00000000000E+00 -0.74505805969E-08  0.93827000000E+00  0.93827000000E+00 0.  1.
     999902    2    1    2    0    0  0.14520171568E-01 -0.52239178115E-04  0.18161499879E-01  0.10206775122E+01  0.10204126154E+01 0.  0.
     999903    2    3    3    0    0 -0.32629591392E-01  0.21481664516E-01 -0.12063444306E+00  0.12829243672E+00  0.19496879769E-01 0.  0.
         14    1    1    2    0    0 -0.14520171568E-01  0.52239178115E-04 -0.18161499879E-01  0.23252487806E-01  0.00000000000E+00 0. -1.
     999901    1    3    3    0    0  0.47149762959E-01 -0.21533903694E-01  0.13879594294E+00  0.89238507548E+00  0.88000000000E+00 0. -1.
        -11    1    4    4    0    0 -0.21335713657E-01  0.21886310287E-01 -0.69570242494E-01  0.75990150789E-01  0.51100000000E-03 0. -1.
         11    1    4    4    0    0 -0.11293877735E-01 -0.40464577087E-03 -0.51064200571E-01  0.52302285929E-01  0.51100000000E-03 0.  1.
</event>
<event>
 8    1  0.1092667E+005  0.1043930E+01  0.7957747E-01            NaN
         13   -1    0    0    0    0  0.00000000000E+00  0.00000000000E+00  0.74505805969E-08  0.10566000000E+00  0.10566000000E+00 0.  1.
     999900   -1    0    0    0    0 -0.00000000000E+00 -0.00000000000E+00 -0.74505805969E-08  0.93827000000E+00  0.93827000000E+00 0.  1.
     999902    2    1    2    0    0  0.13970446761E-01 -0.16328870423E-01  0.97427720485E-02  0.10203349370E+01  0.10200620847E+01 0.  0.
     999903    2    3    3    0    0 -0.50769691770E-01  0.79605501942E-01  0.86233462329E-01  0.12946709322E+00  0.20271178050E-01 0.  0.
         14    1    1    2    0    0 -0.13970446761E-01  0.16328870423E-01 -0.97427720485E-02  0.23595063025E-01  0.00000000000E+00 0. -1.
     999901    1    3    3    0    0  0.64740138531E-01 -0.95934372365E-01 -0.76490690280E-01  0.89086784376E+00  0.88000000000E+00 0.  1.
        -11    1    4    4    0    0 -0.12823578497E-01  0.29706120319E-01  0.18932308218E-01  0.37491214509E-01  0.51100000000E-03 0. -1.
         11    1    4    4    0    0 -0.37946113274E-01  0.49899381623E-01  0.67301154111E-01  0.91975878710E-01  0.51100000000E-03 0.  1.
</event>
<event>
 8    1  0.1092667E+005  0.1043930E+01  0.7957747E-01            NaN
         13   -1    0    0    0    0  0.00000000000E+00  0.00000000000E+00  0.74505805969E-08  0.10566000000E+00  0.10566000000E+00 0.  1.
     999900   -1    0    0    0    0 -0.00000000000E+00 -0.00000000000E+00 -0.74505805969E-08  0.93827000000E+00  0.93827000000E+00 0.  1.
     999902    2    1    2    0    0  0.76894695879E-02 -0.10533688512E-01 -0.19052604038E-01  0.10208412959E+01  0.10205801601E+01 0.  0.
     999903    2    3    3    0    0  0.41482189519E-01 -0.10063764240E+00  0.70360004396E-01  0.13109117088E+00  0.19638170715E-01 0.  0.
         14    1    1    2    0    0 -0.76894695879E-02  0.10533688512E-01  0.19052604038E-01  0.23088704096E-01  0.00000000000E+00 0. -1.
     999901    1    3    3    0    0 -0.33792719931E-01  0.90103953891E-01 -0.89412608434E-01  0.88975012502E+00  0.88000000000E+00 0. -1.
        -11    1    4    4    0    0  0.10129499828E-01 -0.45917275466E-01  0.36363966879E-01  0.59444109558E-01  0.51100000000E-03 0. -1.
         11    1    4    4    0    0  0.31352689691E-01 -0.54720366938E-01  0.33996037517E-01  0.71647061325E-01  0.51100000000E-03 0.  1.
</event>
<event>
 8    1  0.1092667E+005  0.1043930E+01  0.7957747E-01            NaN
         13   -1    0    0    0    0  0.00000000000E+00  0.00000000000E+00  0.74505805969E-08  0.10566000000E+00  0.10566000000E+00 0. -1.
     999900   -1    0    0    0    0 -0.00000000000E+00 -0.00000000000E+00 -0.74505805969E-08  0.93827000000E+00  0.93827000000E+00 0.  1.
     999902    2    1    2    0    0 -0.18444219485E-01  0.35943222619E-02 -0.13908401153E-01  0.10205515482E+01  0.10202837402E+01 0.  0.
     999903    2    3    3    0    0 -0.47478390998E-01  0.11864011124E+00 -0.29022710297E-01  0.13245979676E+00  0.19328901621E-01 0.  0.
         14    1    1    2    0    0  0.18444219485E-01 -0.35943222619E-02  0.13908401153E-01  0.23378451779E-01  0.00000000000E+00 0. -1.
     999901    1    3    3    0    0  0.29034171513E-01 -0.11504578898E+00  0.15114309145E-01  0.88809175146E+00  0.88000000000E+00 0.  1.
        -11    1    4    4    0    0 -0.17825509304E-01  0.40918270974E-01 -0.89215824064E-03  0.44644268935E-01  0.51100000000E-03 0. -1.
         11    1    4    4    0    0 -0.29652881694E-01  0.77721840264E-01 -0.28130552056E-01  0.87815527823E-01  0.51100000000E-03 0.  1.
</event>
<event>
 8    1  0.1092667E+005  0.1043930E+01  0.7957747E-01            NaN
         13   -1    0    0    0    0  0.00000000000E+00  0.00000000000E+00  0.74505805969E-08  0.10566000000E+00  0.10566000000E+00 0. -1.
     999900   -1    0    0    0    0 -0.00000000000E+00 -0.00000000000E+00 -0.74505805969E-08  0.93827000000E+00  0.93827000000E+00 0.  1.
     999902    2    1    2    0    0  0.41550761057E-02 -0.17251270694E-01 -0.15879331187E-01  0.10201177310E+01  0.10198397721E+01 0.  0.
     999903    2    3    3    0    0 -0.10199976759E-01  0.12665096336E+00  0.15601879247E-02  0.12814348394E+00  0.16547273020E-01 0.  0.
         14    1    1    2    0    0 -0.41550761057E-02  0.17251270694E-01  0.15879331187E-01  0.23812269043E-01  0.00000000000E+00 0. -1.
     999901    1    3    3    0    0  0.14355052865E-01 -0.14390223406E+00 -0.17439519112E-01  0.89197424701E+00  0.88000000000E+00 0. -1.
        -11    1    4    4    0    0  0.27074690330E-02  0.33089693107E-01 -0.44631482385E-02  0.33502820653E-01  0.51100000000E-03 0. -1.
         11    1    4    4    0    0 -0.12907445792E-01  0.93561270255E-01  0.60233361632E-02  0.94640663291E-01  0.51100000000E-03 0.  1.
</event>
<event>
 8    1  0.1092667E+005  0.1043930E+01  0.7957747E-01            NaN
         13   -1    0    0    0    0  0.00000000000E+00  0.00000000000E+00  0.74505805969E-08  0.10566000000E+00  0.10566000000E+00 0. -1.
     999900   -1    0    0    0    0 -0.00000000000E+00 -0.00000000000E+00 -0.74505805969E-08  0.93827000000E+00  0.93827000000E+00 0. -1.
     999902    2    1    2    0    0  0.15121694796E-01  0.16976682103E-01 -0.75272133016E-02  0.10199814650E+01  0.10197002778E+01 0.  0.
     999903    2    3    3    0    0  0.11110408447E+00  0.62238163917E-01 -0.33844340958E-01  0.13321553643E+00  0.19576340227E-01 0.  0.
         14    1    1    2    0    0 -0.15121694796E-01 -0.16976682103E-01  0.75272133016E-02  0.23948535003E-01  0.00000000000E+00 0. -1.
     999901    1    3    3    0    0 -0.95982389676E-01 -0.45261481814E-01  0.26317127656E-01  0.88676592857E+00  0.88000000000E+00 0.  1.
        -11    1    4    4    0    0  0.36796100218E-02  0.58774777577E-02  0.93498100457E-03  0.70156671232E-02  0.51100000000E-03 0. -1.
         11    1    4    4    0    0  0.10742447445E+00  0.56360686159E-01 -0.34779321962E-01  0.12619986930E+00  0.51100000000E-03 0.  1.
</event>
<event>
 8    1  0.1092667E+005  0.1043930E+01  0.7957747E-01            NaN
         13   -1    0    0    0    0  0.00000000000E+00  0.00000000000E+00  0.74505805969E-08  0.10566000000E+00  0.10566000000E+00 0. -1.
     999900   -1    0    0    0    0 -0.00000000000E+00 -0.00000000000E+00 -0.74505805969E-08  0.93827000000E+00  0.93827000000E+00 0. -1.
     999902    2    1    2    0    0  0.23778534808E-01 -0.17700529471E-02 -0.85952223241E-03  0.10200701889E+01  0.10197911060E+01 0.  0.
     999903    2    3    3    0    0  0.58920536849E-01  0.10760110459E+00  0.43384053158E-01  0.13150139343E+00  0.18995079211E-01 0.  0.
         14    1    1    2    0    0 -0.23778534808E-01  0.17700529471E-02  0.85952223241E-03  0.23859811054E-01  0.00000000000E+00 0. -1.
     999901    1    3    3    0    0 -0.35142002041E-01 -0.10937115753E+00 -0.44243575391E-01  0.88856879552E+00  0.88000000000E+00 0.  1.
        -11    1    4    4    0    0  0.39362183179E-01  0.67951078097E-01  0.18177441322E-01  0.80606519421E-01  0.51100000000E-03 0. -1.
         11    1    4    4    0    0  0.19558353670E-01  0.39650026489E-01  0.25206611837E-01  0.50894874006E-01  0.51100000000E-03 0.  1.
</event>
<event>
 8    1  0.1092667E+005  0.1043930E+01  0.7957747E-01            NaN
         13   -1    0    0    0    0  0.00000000000E+00  0.00000000000E+00  0.74505805969E-08  0.10566000000E+00  0.10566000000E+00 0. -1.
     999900   -1    0    0    0    0 -0.00000000000E+00 -0.00000000000E+00 -0.74505805969E-08  0.93827000000E+00  0.93827000000E+00 0. -1.
     999902    2    1    2    0    0 -0.95819173392E-02 -0.20521815535E-01  0.85947710892E-02  0.10197054640E+01  0.10194176795E+01 0.  0.
     999903    2    3    3    0    0 -0.52154675269E-01  0.22897977225E-01 -0.11432470698E+00  0.12908381810E+00  0.18656525803E-01 0.  0.
         14    1    1    2    0    0  0.95819173392E-02  0.20521815535E-01 -0.85947710892E-02  0.24224535967E-01  0.00000000000E+00 0.  1.
     999901    1    3    3    0    0  0.42572757930E-01 -0.43419792759E-01  0.12291947807E+00  0.89062164594E+00  0.88000000000E+00 0.  1.
        -11    1    4    4    0    0 -0.20665437695E-01  0.18826143421E-01 -0.48014644902E-01  0.55562138523E-01  0.51100000000E-03 0. -1.
         11    1    4    4    0    0 -0.31489237574E-01  0.40718338032E-02 -0.66310062078E-01  0.73521679574E-01  0.51100000000E-03 0.  1.
</event>
<event>
 8    1  0.1092667E+005  0.1043930E+01  0.7957747E-01            NaN
         13   -1    0    0    0    0  0.00000000000E+00  0.00000000000E+00  0.74505805969E-08  0.10566000000E+00  0.10566000000E+00 0.  1.
     999900   -1    0    0    0    0 -0.00000000000E+00 -0.00000000000E+00 -0.74505805969E-08  0.93827000000E+00  0.93827000000E+00 0.  1.
     999902    2    1    2    0    0  0.11795174719E-01  0.17016767917E-01  0.11756378631E-01  0.10201201496E+01  0.10198422479E+01 0.  0.
     999903    2    3    3    0    0  0.20689045101E-01  0.11772839625E+00  0.55415137487E-01  0.13325599979E+00  0.19957759063E-01 0.  0.
         14    1    1    2    0    0 -0.11795174719E-01 -0.17016767917E-01 -0.11756378631E-01  0.23809850389E-01  0.00000000000E+00 0. -1.
     999901    1    3    3    0    0 -0.88938703816E-02 -0.10071162833E+00 -0.43658758856E-01  0.88686414982E+00  0.88000000000E+00 0.  1.
        -11    1    4    4    0    0 -0.11363747152E-02  0.38841475761E-01  0.23419123724E-01  0.45372547469E-01  0.51100000000E-03 0. -1.
         11    1    4    4    0    0  0.21825419816E-01  0.78886920489E-01  0.31996013763E-01  0.87883452322E-01  0.51100000000E-03 0.  1.
</event>
<event>
 8    1  0.1092667E+005  0.1043930E+01  0.7957747E-01            NaN
         13   -1    0    0    0    0  0.00000000000E+00  0.00000000000E+00  0.74505805969E-08  0.10566000000E+00  0.10566000000E+00 0. -1.
     999900   -1    0    0    0    0 -0.00000000000E+00 -0.00000000000E+00 -0.74505805969E-08  0.93827000000E+00  0.93827000000E+00 0.  1.
     999902    2    1    2    0    0  0.85686345777E-02 -0.20901216113E-01  0.79257616844E-02  0.10199904922E+01  0.10197095195E+01 0.  0.
     999903    2    3    3    0    0  0.63465348672E-01 -0.15642433940E-01 -0.11085611912E+00  0.13029928782E+00  0.20403162474E-01 0.  0.
         14    1    1    2    0    0 -0.85686345777E-02  0.20901216113E-01 -0.79257616844E-02  0.23939507761E-01  0.00000000000E+00 0.  1.
     999901    1    3    3    0    0 -0.54896714094E-01 -0.52587821735E-02  0.11878188081E+00  0.88969120442E+00  0.88000000000E+00 0. -1.
        -11    1    4    4    0    0  0.46166107565E-01 -0.20453644639E-01 -0.80551121263E-01  0.95070528159E-01  0.51100000000E-03 0.  1.
         11    1    4    4    0    0  0.17299241107E-01  0.48112106991E-02 -0.30304997859E-01  0.35228759664E-01  0.51100000000E-03 0. -1.
</event>
<event>
 8    1  0.1092667E+005  0.1043930E+01  0.7957747E-01            NaN
         13   -1    0    0    0    0  0.00000000000E+00  0.00000000000E+00  0.74505805969E-08  0.10566000000E+00  0.10566000000E+00 0. -1.
     999900   -1    0    0    0    0 -0.00000000000E+00 -0.00000000000E+00 -0.74505805969E-08  0.93827000000E+00  0.93827000000E+00 0.  1.
     999902    2    1    2    0    0 -0.95591112280E-02 -0.19452426455E-01  0.61290568277E-02  0.10214058166E+01  0.10211574331E+01 0.  0.
     999903    2    3    3    0    0  0.23148579921E-01  0.11163315159E-01 -0.12608495087E+00  0.13040207889E+00  0.21137903991E-01 0.  0.
         14    1    1    2    0    0  0.95591112280E-02  0.19452426455E-01 -0.61290568277E-02  0.22524183449E-01  0.00000000000E+00 0.  1.
     999901    1    3    3    0    0 -0.32707691149E-01 -0.30615741613E-01  0.13221400770E+00  0.89100373766E+00  0.88000000000E+00 0. -1.
        -11    1    4    4    0    0  0.12517844650E-02  0.62615171982E-02 -0.65164323042E-01  0.65478421488E-01  0.51100000000E-03 0.  1.
         11    1    4    4    0    0  0.21896795456E-01  0.49017979604E-02 -0.60920627828E-01  0.64923657402E-01  0.51100000000E-03 0. -1.
</event>
<event>
 8    1  0.1092667E+005  0.1043930E+01  0.7957747E-01            NaN
         13   -1    0    0    0    0  0.00000000000E+00  0.00000000000E+00  0.74505805969E-08  0.10566000000E+00  0.10566000000E+00 0. -1.
     999900   -1    0    0    0    0 -0.00000000000E+00 -0.00000000000E+00 -0.74505805969E-08  0.93827000000E+00  0.93827000000E+00 0. -1.
     999902    2    1    2    0    0 -0.22996782412E-01 -0.38385070935E-02  0.29892281383E-02  0.10204242215E+01  0.10201534542E+01 0.  0.
     999903    2    3    3    0    0 -0.19673218012E-01 -0.11809491432E+00  0.53288997406E-01  0.13160723277E+00  0.12136810849E-01 0.  0.
         14    1    1    2    0    0  0.22996782412E-01  0.38385070935E-02 -0.29892281383E-02  0.23505778500E-01  0.00000000000E+00 0. -1.
     999901    1    3    3    0    0 -0.33235644002E-02  0.11425640722E+00 -0.50299769268E-01  0.88881698873E+00  0.88000000000E+00 0.  1.
        -11    1    4    4    0    0 -0.14445000212E-01 -0.52149194547E-01  0.21809906522E-01  0.58344919801E-01  0.51100000000E-03 0. -1.
         11    1    4    4    0    0 -0.52282178003E-02 -0.65945719770E-01  0.31479090883E-01  0.73262312967E-01  0.51100000000E-03 0.  1.
</event>
<event>
 8    1  0.1092667E+005  0.1043930E+01  0.7957747E-01            NaN
         13   -1    0    0    0    0  0.00000000000E+00  0.00000000000E+00  0.74505805969E-08  0.10566000000E+00  0.10566000000E+00 0. -1.
     999900   -1    0    0    0    0 -0.00000000000E+00 -0.00000000000E+00 -0.74505805969E-08  0.93827000000E+00  0.93827000000E+00 0. -1.
     999902    2    1    2    0    0  0.14372168609E-01 -0.91772228744E-02 -0.14828189698E-01  0.10213323041E+01  0.10210822785E+01 0.  0.
     999903    2    3    3    0    0  0.98602078669E-02  0.12826654200E+00  0.63307637581E-02  0.13040085466E+00  0.20366021491E-01 0.  0.
         14    1    1    2    0    0 -0.14372168609E-01  0.91772228744E-02  0.14828189698E-01  0.22597695899E-01  0.00000000000E+00 0.  1.
     999901    1    3    3    0    0  0.45119607424E-02 -0.13744376487E+00 -0.21158953456E-01  0.89093144944E+00  0.88000000000E+00 0. -1.
        -11    1    4    4    0    0 -0.45970303879E-02  0.12974354986E-01 -0.19425616625E-02  0.13910472404E-01  0.51100000000E-03 0. -1.
         11    1    4    4    0    0  0.14457238255E-01  0.11529218701E+00  0.82733254206E-02  0.11649038226E+00  0.51100000000E-03 0.  1.
</event>
<event>
 8    1  0.1092667E+005  0.1043930E+01  0.7957747E-01            NaN
         13   -1    0    0    0    0  0.00000000000E+00  0.00000000000E+00  0.74505805969E-08  0.10566000000E+00  0.10566000000E+00 0. -1.
     999900   -1    0    0    0    0 -0.00000000000E+00 -0.00000000000E+00 -0.74505805969E-08  0.93827000000E+00  0.93827000000E+00 0. -1.
     999902    2    1    2    0    0 -0.18161738345E-01 -0.19751240166E-02 -0.14322950679E-01  0.10207158498E+01  0.10204518358E+01 0.  0.
     999903    2    3    3    0    0  0.99189219266E-01 -0.53580485654E-01  0.58258656365E-01  0.12847011553E+00  0.20028227084E-01 0.  0.
         14    1    1    2    0    0  0.18161738345E-01  0.19751240166E-02  0.14322950679E-01  0.23214150227E-01  0.00000000000E+00 0. -1.
     999901    1    3    3    0    0 -0.11735095761E+00  0.51605361638E-01 -0.72581607044E-01  0.89224573425E+00  0.88000000000E+00 0. -1.
        -11    1    4    4    0    0  0.88496376742E-01 -0.54183616449E-01  0.53325650144E-01  0.11666772935E+00  0.51100000000E-03 0. -1.
         11    1    4    4    0    0  0.10692842525E-01  0.60313079495E-03  0.49330062208E-02  0.11802386173E-01  0.51100000000E-03 0.  1.
</event>
<event>
 8    1  0.1092667E+005  0.1043930E+01  0.7957747E-01            NaN
         13   -1    0    0    0    0  0.00000000000E+00  0.00000000000E+00  0.74505805969E-08  0.10566000000E+00  0.10566000000E+00 0. -1.
     999900   -1    0    0    0    0 -0.00000000000E+00 -0.00000000000E+00 -0.74505805969E-08  0.93827000000E+00  0.93827000000E+00 0. -1.
     999902    2    1    2    0    0  0.15358285450E-01  0.89381675774E-02  0.16534898821E-01  0.10196571623E+01  0.10193682151E+01 0.  0.
     999903    2    3    3    0    0  0.54829530258E-01 -0.95427993638E-01  0.68223614694E-01  0.13110665831E+00  0.20535698008E-01 0.  0.
         14    1    1    2    0    0 -0.15358285450E-01 -0.89381675774E-02 -0.16534898821E-01  0.24272837713E-01  0.00000000000E+00 0.  1.
     999901    1    3    3    0    0 -0.39471244808E-01  0.10436616121E+00 -0.51688715873E-01  0.88855050398E+00  0.88000000000E+00 0. -1.
        -11    1    4    4    0    0  0.39643665848E-01 -0.60436336620E-01  0.34086075189E-01  0.79914283258E-01  0.51100000000E-03 0. -1.
         11    1    4    4    0    0  0.15185864410E-01 -0.34991657018E-01  0.34137539506E-01  0.51192375049E-01  0.51100000000E-03 0.  1.
</event>
<event>
 8    1  0.1092667E+005  0.1043930E+01  0.7957747E-01            NaN
         13   -1    0    0    0    0  0.00000000000E+00  0.00000000000E+00  0.74505805969E-08  0.10566000000E+00  0.10566000000E+00 0.  1.
     999900   -1    0    0    0    0 -0.00000000000E+00 -0.00000000000E+00 -0.74505805969E-08  0.93827000000E+00  0.93827000000E+00 0.  1.
     999902    2    1    2    0    0 -0.61121035927E-02 -0.11453927663E-01 -0.20250831782E-01  0.10198749287E+01  0.10195912042E+01 0.  0.
     999903    2    3    3    0    0  0.89743671751E-01  0.57796081358E-01  0.67172280879E-01  0.12767164799E+00  0.19839877568E-01 0.  0.
         14    1    1    2    0    0  0.61121035927E-02  0.11453927663E-01  0.20250831782E-01  0.24055071339E-01  0.00000000000E+00 0.  1.
     999901    1    3    3    0    0 -0.95855775344E-01 -0.69250009021E-01 -0.87423112662E-01  0.89220328067E+00  0.88000000000E+00 0.  1.
        -11    1    4    4    0    0  0.66200386351E-01  0.33949194106E-01  0.52658613656E-01  0.91149490655E-01  0.51100000000E-03 0.  1.
         11    1    4    4    0    0  0.23543285399E-01  0.23846887252E-01  0.14513667223E-01  0.36522157333E-01  0.51100000000E-03 0. -1.
</event>
<event>
 8    1  0.1092667E+005  0.1043930E+01  0.7957747E-01            NaN
         13   -1    0    0    0    0  0.00000000000E+00  0.00000000000E+00  0.74505805969E-08  0.10566000000E+00  0.10566000000E+00 0. -1.
     999900   -1    0    0    0    0 -0.00000000000E+00 -0.00000000000E+00 -0.74505805969E-08  0.93827000000E+00  0.93827000000E+00 0. -1.
     999902    2    1    2    0    0 -0.21884329622E-01  0.75844135219E-03  0.92020047186E-02  0.10201776105E+01  0.10199010643E+01 0.  0.
     999903    2    3    3    0    0  0.45906374114E-01 -0.11271190544E+00 -0.38157261734E-01  0.12904686855E+00  0.19640490016E-01 0.  0.
         14    1    1    2    0    0  0.21884329622E-01 -0.75844135219E-03 -0.92020047186E-02  0.23752389504E-01  0.00000000000E+00 0.  1.
     999901    1    3    3    0    0 -0.67790703736E-01  0.11347034679E+00  0.47359266452E-01  0.89113074194E+00  0.88000000000E+00 0.  1.
        -11    1    4    4    0    0  0.44988722325E-01 -0.10534559615E+00 -0.40082142433E-01  0.12136111003E+00  0.51100000000E-03 0. -1.
         11    1    4    4    0    0  0.91765178923E-03 -0.73663092945E-02  0.19248806996E-02  0.76857585270E-02  0.51100000000E-03 0.  1.
</event>
<event>
 8    1  0.1092667E+005  0.1043930E+01  0.7957747E-01            NaN
         13   -1    0    0    0    0  0.00000000000E+00  0.00000000000E+00  0.74505805969E-08  0.10566000000E+00  0.10566000000E+00 0.  1.
     999900   -1    0    0    0    0 -0.00000000000E+00 -0.00000000000E+00 -0.74505805969E-08  0.93827000000E+00  0.93827000000E+00 0.  1.
     999902    2    1    2    0    0  0.11015372872E-01  0.16842651301E-01  0.11542494437E-01  0.10207299457E+01  0.10204662559E+01 0.  0.
     999903    2    3    3    0    0 -0.10941802899E+00  0.58130224488E-01 -0.35767946333E-01  0.13031029979E+00  0.18708291761E-01 0.  0.
         14    1    1    2    0    0 -0.11015372872E-01 -0.16842651301E-01 -0.11542494437E-01  0.23200054315E-01  0.00000000000E+00 0. -1.
     999901    1    3    3    0    0  0.12043340186E+00 -0.41287573187E-01  0.47310440770E-01  0.89041964589E+00  0.88000000000E+00 0. -1.
        -11    1    4    4    0    0 -0.84797159061E-01  0.46131172560E-01 -0.19609961486E-01  0.98506116445E-01  0.51100000000E-03 0. -1.
         11    1    4    4    0    0 -0.24620869928E-01  0.11999051928E-01 -0.16157984847E-01  0.31804183349E-01  0.51100000000E-03 0.  1.
</event>
<event>
 8    1  0.1092667E+005  0.1043930E+01  0.7957747E-01            NaN
         13   -1    0    0    0    0  0.00000000000E+00  0.00000000000E+00  0.74505805969E-08  0.10566000000E+00  0.10566000000E+00 0. -1.
     999900   -1    0    0    0    0 -0.00000000000E+00 -0.00000000000E+00 -0.74505805969E-08  0.93827000000E+00  0.93827000000E+00 0. -1.
     999902    2    1    2    0    0 -0.42356903722E-02  0.95797552560E-02  0.21431943083E-01  0.10200754204E+01  0.10197964612E+01 0.  0.
     999903    2    3    3    0    0 -0.14022756800E-01 -0.12592380918E+00  0.18679236615E-01  0.12964598465E+00  0.20142592444E-01 0.  0.
         14    1    1    2    0    0  0.42356903722E-02 -0.95797552560E-02 -0.21431943083E-01  0.23854579603E-01  0.00000000000E+00 0.  1.
     999901    1    3    3    0    0  0.97870664276E-02  0.13550356443E+00  0.27527064686E-02  0.89042943574E+00  0.88000000000E+00 0.  1.
        -11    1    4    4    0    0 -0.50719700812E-02 -0.39269545176E-01  0.15336141904E-01  0.42465049491E-01  0.51100000000E-03 0.  1.
         11    1    4    4    0    0 -0.89507867185E-02 -0.86654264003E-01  0.33430947109E-02  0.87180935163E-01  0.51100000000E-03 0. -1.
</event>
<event>
 8    1  0.1183119E+005  0.1043930E+01  0.7957747E-01            NaN
         13   -1    0    0    0    0  0.00000000000E+00  0.00000000000E+00  0.74505805969E-08  0.10566000000E+00  0.10566000000E+00 0.  1.
     999900   -1    0    0    0    0 -0.00000000000E+00 -0.00000000000E+00 -0.74505805969E-08  0.93827000000E+00  0.93827000000E+00 0. -1.
     999902    2    1    2    0    0  0.80413768286E-02 -0.24633093846E-02  0.24091742965E-01  0.10184124822E+01  0.10180927464E+01 0.  0.
     999903    2    3    3    0    0  0.10882170831E+00 -0.33673004335E-01  0.62136776706E-01  0.13129459554E+00  0.20031384833E-01 0.  0.
         14    1    1    2    0    0 -0.80413768286E-02  0.24633093846E-02 -0.24091742965E-01  0.25517517778E-01  0.00000000000E+00 0. -1.
     999901    1    3    3    0    0 -0.10078033148E+00  0.31209694950E-01 -0.38045033741E-01  0.88711788668E+00  0.88000000000E+00 0. -1.
        -11    1    4    4    0    0  0.62865854032E-01 -0.25821305783E-01  0.45509880663E-01  0.81794044982E-01  0.51100000000E-03 0. -1.
         11    1    4    4    0    0  0.45955854282E-01 -0.78516985519E-02  0.16626896043E-01  0.49500550562E-01  0.51100000000E-03 0.  1.
</event>
<event>
 8    1  0.1092667E+005  0.1043930E+01  0.7957747E-01            NaN
         13   -1    0    0    0    0  0.00000000000E+00  0.00000000000E+00  0.74505805969E-08  0.10566000000E+00  0.10566000000E+00 0.  1.
     999900   -1    0    0    0    0 -0.00000000000E+00 -0.00000000000E+00 -0.74505805969E-08  0.93827000000E+00  0.93827000000E+00 0. -1.
     999902    2    1    2    0    0 -0.27192334163E-02 -0.45568786531E-02 -0.21477479950E-01  0.10218066748E+01  0.10215671486E+01 0.  0.
     999903    2    3    3    0    0 -0.12336235040E+00  0.21310413914E-01  0.34295042874E-01  0.13145031197E+00  0.20751658134E-01 0.  0.
         14    1    1    2    0    0  0.27192334163E-02  0.45568786531E-02  0.21477479950E-01  0.22123325212E-01  0.00000000000E+00 0. -1.
     999901    1    3    3    0    0  0.12064311698E+00 -0.25867292567E-01 -0.55772522824E-01  0.89035636281E+00  0.88000000000E+00 0.  1.
        -11    1    4    4    0    0 -0.68500955638E-01  0.12834124017E-01  0.84195783461E-02  0.70201467814E-01  0.51100000000E-03 0. -1.
         11    1    4    4    0    0 -0.54861394761E-01  0.84762898965E-02  0.25875464528E-01  0.61248844161E-01  0.51100000000E-03 0.  1.
</event>
<event>
 8    1  0.1092667E+005  0.1043930E+01  0.7957747E-01            NaN
         13   -1    0    0    0    0  0.00000000000E+00  0.00000000000E+00  0.74505805969E-08  0.10566000000E+00  0.10566000000E+00 0. -1.
     999900   -1    0    0    0    0 -0.00000000000E+00 -0.00000000000E+00 -0.74505805969E-08  0.93827000000E+00  0.93827000000E+00 0.  1.
     999902    2    1    2    0    0  0.65673756914E-02 -0.14569996850E-01 -0.17556552098E-01  0.10201887331E+01  0.10199124489E+01 0.  0.
     999903    2    3    3    0    0  0.81331273425E-01  0.79340417021E-01  0.57675803877E-01  0.12885898851E+00  0.19195383730E-01 0.  0.
         14    1    1    2    0    0 -0.65673756914E-02  0.14569996850E-01  0.17556552098E-01  0.23741266884E-01  0.00000000000E+00 0. -1.
     999901    1    3    3    0    0 -0.74763897734E-01 -0.93910413870E-01 -0.75232355975E-01  0.89132974461E+00  0.88000000000E+00 0. -1.
        -11    1    4    4    0    0  0.81487880051E-02  0.17175738581E-01  0.68443365233E-02  0.20211749187E-01  0.51100000000E-03 0.  1.
         11    1    4    4    0    0  0.73182485420E-01  0.62164678439E-01  0.50831467354E-01  0.10864723932E+00  0.51100000000E-03 0. -1.
</event>
<event>
 8    1  0.1092667E+005  0.1043930E+01  0.7957747E-01            NaN
         13   -1    0    0    0    0  0.00000000000E+00  0.00000000000E+00  0.74505805969E-08  0.10566000000E+00  0.10566000000E+00 0.  1.
     999900   -1    0    0    0    0 -0.00000000000E+00 -0.00000000000E+00 -0.74505805969E-08  0.93827000000E+00  0.93827000000E+00 0.  1.
     999902    2    1    2    0    0 -0.13220414915E-01  0.47062390849E-02  0.18437715945E-01  0.10207593844E+01  0.10204963711E+01 0.  0.
     999903    2    3    3    0    0 -0.69053375828E-01 -0.10427492089E+00  0.37442524654E-01  0.13207755412E+00  0.20022732369E-01 0.  0.
         14    1    1    2    0    0  0.13220414915E-01 -0.47062390849E-02 -0.18437715945E-01  0.23170615575E-01  0.00000000000E+00 0.  1.
     999901    1    3    3    0    0  0.55832960913E-01  0.10898115997E+00 -0.19004808709E-01  0.88868183030E+00  0.88000000000E+00 0.  1.
        -11    1    4    4    0    0 -0.17393006425E-01 -0.17016248786E-01  0.13702100467E-01  0.27929877791E-01  0.51100000000E-03 0.  1.
         11    1    4    4    0    0 -0.51660369403E-01 -0.87258672103E-01  0.23740424187E-01  0.10414767633E+00  0.51100000000E-03 0. -1.
</event>
<event>
 8    1  0.1092667E+005  0.1043930E+01  0.7957747E-01            NaN
         13   -1    0    0    0    0  0.00000000000E+00  0.00000000000E+00  0.74505805969E-08  0.10566000000E+00  0.10566000000E+00 0.  1.
     999900   -1    0    0    0    0 -0.00000000000E+00 -0.00000000000E+00 -0.74505805969E-08  0.93827000000E+00  0.93827000000E+00 0. -1.
     999902    2    1    2    0    0 -0.25950468611E-02  0.19100748707E-01  0.14882090253E-01  0.10195773928E+01  0.10192865202E+01 0.  0.
     999903    2    3    3    0    0  0.98670919035E-01 -0.38714016596E-01 -0.68884004226E-01  0.12794176004E+00  0.19732272565E-01 0.  0.
         14    1    1    2    0    0  0.25950468611E-02 -0.19100748707E-01 -0.14882090253E-01  0.24352607246E-01  0.00000000000E+00 0. -1.
     999901    1    3    3    0    0 -0.10126596590E+00  0.57814765302E-01  0.83766094479E-01  0.89163563271E+00  0.88000000000E+00 0.  1.
        -11    1    4    4    0    0  0.70153123009E-01 -0.33439595301E-01 -0.57947761962E-01  0.96942619312E-01  0.51100000000E-03 0.  1.
         11    1    4    4    0    0  0.28517796026E-01 -0.52744212954E-02 -0.10936242264E-01  0.30999140731E-01  0.51100000000E-03 0. -1.
</event>
<event>
 8    1  0.1092667E+005  0.1043930E+01  0.7957747E-01            NaN
         13   -1    0    0    0    0  0.00000000000E+00  0.00000000000E+00  0.74505805969E-08  0.10566000000E+00  0.10566000000E+00 0.  1.
     999900   -1    0    0    0    0 -0.00000000000E+00 -0.00000000000E+00 -0.74505805969E-08  0.93827000000E+00  0.93827000000E+00 0.  1.
     999902    2    1    2    0    0 -0.15656031988E-01 -0.17824476489E-01  0.38876011266E-02  0.10198896851E+01  0.10196063127E+01 0.  0.
     999903    2    3    3    0    0 -0.12038216888E+00 -0.42932963039E-01 -0.29023913241E-01  0.13271373429E+00  0.20867243018E-01 0.  0.
         14    1    1    2    0    0  0.15656031988E-01  0.17824476489E-01 -0.38876011266E-02  0.24040314936E-01  0.00000000000E+00 0.  1.
     999901    1    3    3    0    0  0.10472613689E+00  0.25108486550E-01  0.32911514367E-01  0.88717595077E+00  0.88000000000E+00 0. -1.
        -11    1    4    4    0    0 -0.76118262824E-01 -0.16332990299E-01 -0.16906330748E-01  0.79667067523E-01  0.51100000000E-03 0.  1.
         11    1    4    4    0    0 -0.44263906056E-01 -0.26599972740E-01 -0.12117582493E-01  0.53046666772E-01  0.51100000000E-03 0. -1.
</event>
<event>
 8    1  0.1092667E+005  0.1043930E+01  0.7957747E-01            NaN
         13   -1    0    0    0    0  0.00000000000E+00  0.00000000000E+00  0.74505805969E-08  0.10566000000E+00  0.10566000000E+00 0.  1.
     999900   -1    0    0    0    0 -0.00000000000E+00 -0.00000000000E+00 -0.74505805969E-08  0.93827000000E+00  0.93827000000E+00 0.  1.
     999902    2    1    2    0    0  0.20542117421E-01 -0.96236164388E-02 -0.15369524822E-01  0.10165289987E+01  0.10161596283E+01 0.  0.
     999903    2    3    3    0    0  0.41580349400E-02  0.75322031554E-01 -0.10160730488E+00  0.12809151859E+00  0.19816534447E-01 0.  0.
         14    1    1    2    0    0 -0.20542117421E-01  0.96236164388E-02  0.15369524822E-01  0.27401001346E-01  0.00000000000E+00 0.  1.
     999901    1    3    3    0    0  0.16384082481E-01 -0.84945647993E-01  0.86237780060E-01  0.88843748006E+00  0.88000000000E+00 0. -1.
        -11    1    4    4    0    0 -0.23704005132E-02  0.67498785876E-01 -0.84548005957E-01  0.10821428430E+00  0.51100000000E-03 0. -1.
         11    1    4    4    0    0  0.65284354533E-02  0.78232456783E-02 -0.17059298925E-01  0.19877234295E-01  0.51100000000E-03 0.  1.
</event>
<event>
 8    1  0.1092667E+005  0.1043930E+01  0.7957747E-01            NaN
         13   -1    0    0    0    0  0.00000000000E+00  0.00000000000E+00  0.74505805969E-08  0.10566000000E+00  0.10566000000E+00 0. -1.
     999900   -1    0    0    0    0 -0.00000000000E+00 -0.00000000000E+00 -0.74505805969E-08  0.93827000000E+00  0.93827000000E+00 0. -1.
     999902    2    1    2    0    0 -0.72072002461E-02 -0.18456172202E-01  0.13740480678E-01  0.10198182842E+01  0.10195332059E+01 0.  0.
     999903    2    3    3    0    0 -0.77812221792E-01  0.55590496789E-01 -0.83552650393E-01  0.12856415010E+00  0.20066143396E-01 0.  0.
         14    1    1    2    0    0  0.72072002461E-02  0.18456172202E-01 -0.13740480678E-01  0.24111715763E-01  0.00000000000E+00 0.  1.
     999901    1    3    3    0    0  0.70605021546E-01 -0.74046668991E-01  0.97293131071E-01  0.89125413413E+00  0.88000000000E+00 0.  1.
        -11    1    4    4    0    0 -0.40533743297E-01  0.40325301291E-01 -0.44474630832E-01  0.72438720160E-01  0.51100000000E-03 0.  1.
         11    1    4    4    0    0 -0.37278478495E-01  0.15265195498E-01 -0.39078019562E-01  0.56125429944E-01  0.51100000000E-03 0. -1.
</event>
<event>
 8    1  0.1092667E+005  0.1043930E+01  0.7957747E-01            NaN
         13   -1    0    0    0    0  0.00000000000E+00  0.00000000000E+00  0.74505805969E-08  0.10566000000E+00  0.10566000000E+00 0. -1.
     999900   -1    0    0    0    0 -0.00000000000E+00 -0.00000000000E+00 -0.74505805969E-08  0.93827000000E+00  0.93827000000E+00 0.  1.
     999902    2    1    2    0    0  0.38836648059E-02 -0.91344084832E-02 -0.22006680076E-01  0.10197884541E+01  0.10195026615E+01 0.  0.
     999903    2    3    3    0    0 -0.44467108067E-01 -0.71858114837E-01 -0.10025665293E+00  0.13277373109E+00  0.20893894908E-01 0.  0.
         14    1    1    2    0    0 -0.38836648059E-02  0.91344084832E-02  0.22006680076E-01  0.24141545904E-01  0.00000000000E+00 0. -1.
     999901    1    3    3    0    0  0.48350772873E-01  0.62723706354E-01  0.78249972849E-01  0.88701472300E+00  0.88000000000E+00 0. -1.
        -11    1    4    4    0    0 -0.41147673084E-01 -0.49763769593E-01 -0.71283257120E-01  0.96182782404E-01  0.51100000000E-03 0. -1.
         11    1    4    4    0    0 -0.33194349826E-02 -0.22094345244E-01 -0.28973395805E-01  0.36590948687E-01  0.51100000000E-03 0.  1.
</event>
<event>
 8    1  0.1092667E+005  0.1043930E+01  0.7957747E-01            NaN
         13   -1    0    0    0    0  0.00000000000E+00  0.00000000000E+00  0.74505805969E-08  0.10566000000E+00  0.10566000000E+00 0.  1.
     999900   -1    0    0    0    0 -0.00000000000E+00 -0.00000000000E+00 -0.74505805969E-08  0.93827000000E+00  0.93827000000E+00 0.  1.
     999902    2    1    2    0    0 -0.20014840509E-01 -0.13435728604E-01 -0.21874772605E-02  0.10197246762E+01  0.10194373534E+01 0.  0.
     999903    2    3    3    0    0 -0.37084875390E-01  0.64441723292E-02  0.12326644685E+00  0.13044109734E+00  0.20086005504E-01 0.  0.
         14    1    1    2    0    0  0.20014840509E-01  0.13435728604E-01  0.21874772605E-02  0.24205323805E-01  0.00000000000E+00 0.  1.
     999901    1    3    3    0    0  0.17070034881E-01 -0.19879900933E-01 -0.12545392411E+00  0.88928357886E+00  0.88000000000E+00 0.  1.
        -11    1    4    4    0    0 -0.28012065954E-01 -0.17925312376E-02  0.10295481173E+00  0.10671383878E+00  0.51100000000E-03 0. -1.
         11    1    4    4    0    0 -0.90728094360E-02  0.82367035669E-02  0.20311635111E-01  0.23727258556E-01  0.51100000000E-03 0.  1.
</event>
<event>
 8    1  0.1092667E+005  0.1043930E+01  0.7957747E-01            NaN
         13   -1    0    0    0    0  0.00000000000E+00  0.00000000000E+00  0.74505805969E-08  0.10566000000E+00  0.10566000000E+00 0.  1.
     999900   -1    0    0    0    0 -0.00000000000E+00 -0.00000000000E+00 -0.74505805969E-08  0.93827000000E+00  0.93827000000E+00 0.  1.
     999902    2    1    2    0    0 -0.21393840590E-01  0.72990146237E-02  0.85676572355E-02  0.10197561137E+01  0.10194695457E+01 0.  0.
     999903    2    3    3    0    0 -0.52319883649E-01 -0.62679236627E-01  0.10131901973E+00  0.13158034783E+00  0.19539376840E-01 0.  0.
         14    1    1    2    0    0  0.21393840590E-01 -0.72990146237E-02 -0.85676572355E-02  0.24173886327E-01  0.00000000000E+00 0.  1.
     999901    1    3    3    0    0  0.30926043060E-01  0.69978251250E-01 -0.92751362491E-01  0.88817576584E+00  0.88000000000E+00 0.  1.
        -11    1    4    4    0    0 -0.39768851280E-01 -0.58272300592E-01  0.87367972469E-01  0.11229713390E+00  0.51100000000E-03 0.  1.
         11    1    4    4    0    0 -0.12551032369E-01 -0.44069360347E-02  0.13951047258E-01  0.19283213927E-01  0.51100000000E-03 0. -1.
</event>
<event>
 8    1  0.1092667E+005  0.1043930E+01  0.7957747E-01            NaN
         13   -1    0    0    0    0  0.00000000000E+00  0.00000000000E+00  0.74505805969E-08  0.10566000000E+00  0.10566000000E+00 0. -1.
     999900   -1    0    0    0    0 -0.00000000000E+00 -0.00000000000E+00 -0.74505805969E-08  0.93827000000E+00  0.93827000000E+00 0.  1.
     999902    2    1    2    0    0 -0.15919177771E-01 -0.44572130011E-02  0.17427527515E-01  0.10199090574E+01  0.10196261470E+01 0.  0.
     999903    2    3    3    0    0 -0.35721080127E-01  0.51607506664E-01  0.11482830385E+00  0.13254088162E+00  0.21028923602E-01 0.  0.
         14    1    1    2    0    0  0.15919177771E-01  0.44572130011E-02 -0.17427527515E-01  0.24020942611E-01  0.00000000000E+00 0. -1.
     999901    1    3    3    0    0  0.19801902356E-01 -0.56064719665E-01 -0.97400776332E-01  0.88736817576E+00  0.88000000000E+00 0.  1.
        -11    1    4    4    0    0 -0.29503300597E-01  0.48383127271E-01  0.86921859440E-01  0.10376436055E+00  0.51100000000E-03 0. -1.
         11    1    4    4    0    0 -0.62177795294E-02  0.32243793934E-02  0.27906444408E-01  0.28776521076E-01  0.51100000000E-03 0.  1.
</event>
<event>
 8    1  0.1092667E+005  0.1043930E+01  0.7957747E-01            NaN
         13   -1    0    0    0    0  0.00000000000E+00  0.00000000000E+00  0.74505805969E-08  0.10566000000E+00  0.10566000000E+00 0.  1.
     999900   -1    0    0    0    0 -0.00000000000E+00 -0.00000000000E+00 -0.74505805969E-08  0.93827000000E+00  0.93827000000E+00 0.  1.
     999902    2    1    2    0    0 -0.29295538016E-02  0.23701864131E-01  0.20797638498E-02  0.10199573892E+01  0.10196756297E+01 0.  0.
     999903    2    3    3    0    0  0.98708663667E-01 -0.62366252822E-01  0.49953451085E-01  0.12864939650E+00  0.20551646394E-01 0.  0.
         14    1    1    2    0    0  0.29295538016E-02 -0.23701864131E-01 -0.20797638498E-02  0.23972610756E-01  0.00000000000E+00 0.  1.
     999901    1    3    3    0    0 -0.10163821747E+00  0.86068116954E-01 -0.47873687236E-01  0.89130799275E+00  0.88000000000E+00 0. -1.
        -11    1    4    4    0    0  0.43997720182E-01 -0.20933026780E-01  0.29815601350E-01  0.57124619878E-01  0.51100000000E-03 0.  1.
         11    1    4    4    0    0  0.54710943486E-01 -0.41433226042E-01  0.20137849736E-01  0.71524776618E-01  0.51100000000E-03 0. -1.
</event>
<event>
 8    1  0.1092667E+005  0.1043930E+01  0.7957747E-01            NaN
         13   -1    0    0    0    0  0.00000000000E+00  0.00000000000E+00  0.74505805969E-08  0.10566000000E+00  0.10566000000E+00 0. -1.
     999900   -1    0    0    0    0 -0.00000000000E+00 -0.00000000000E+00 -0.74505805969E-08  0.93827000000E+00  0.93827000000E+00 0.  1.
     999902    2    1    2    0    0 -0.52687892311E-03  0.27384201034E-01  0.19245406467E-01  0.10104552672E+01  0.10099006333E+01 0.  0.
     999903    2    3    3    0    0 -0.15829396689E-02  0.11449800474E+00  0.47729715216E-01  0.12569468605E+00  0.20217062079E-01 0.  0.
         14    1    1    2    0    0  0.52687892311E-03 -0.27384201034E-01 -0.19245406467E-01  0.33474732825E-01  0.00000000000E+00 0.  1.
     999901    1    3    3    0    0  0.10560607458E-02 -0.87113803710E-01 -0.28484308748E-01  0.88476058112E+00  0.88000000000E+00 0. -1.
        -11    1    4    4    0    0  0.34296354477E-03  0.74673961333E-01  0.41205759568E-01  0.85290643495E-01  0.51100000000E-03 0. -1.
         11    1    4    4    0    0 -0.19259032137E-02  0.39824043411E-01  0.65239556478E-02  0.40404042559E-01  0.51100000000E-03 0.  1.
</event>
<event>
 8    1  0.1092667E+005  0.1043930E+01  0.7957747E-01            NaN
         13   -1    0    0    0    0  0.00000000000E+00  0.00000000000E+00  0.74505805969E-08  0.10566000000E+00  0.10566000000E+00 0. -1.
     999900   -1    0    0    0    0 -0.00000000000E+00 -0.00000000000E+00 -0.74505805969E-08  0.93827000000E+00  0.93827000000E+00 0.  1.
     999902    2    1    2    0    0 -0.19450547303E-01 -0.81542128110E-02  0.92793922818E-02  0.10208882531E+01  0.10206281905E+01 0.  0.
     999903    2    3    3    0    0 -0.57282402524E-01 -0.31890913323E-01  0.11462470459E+00  0.13348061567E+00  0.19492251419E-01 0.  0.
         14    1    1    2    0    0  0.19450547303E-01  0.81542128110E-02 -0.92793922818E-02  0.23041746853E-01  0.00000000000E+00 0.  1.
     999901    1    3    3    0    0  0.37831855222E-01  0.23736700512E-01 -0.10534531231E+00  0.88740763747E+00  0.88000000000E+00 0.  1.
        -11    1    4    4    0    0 -0.43582371893E-01 -0.26648314871E-01  0.10217253862E+00  0.11423241481E+00  0.51100000000E-03 0. -1.
         11    1    4    4    0    0 -0.13700030631E-01 -0.52425984526E-02  0.12452165976E-01  0.19248200860E-01  0.51100000000E-03 0.  1.
</event>
<event>
 8    1  0.1092667E+005  0.1043930E+01  0.7957747E-01            NaN
         13   -1    0    0    0    0  0.00000000000E+00  0.00000000000E+00  0.74505805969E-08  0.10566000000E+00  0.10566000000E+00 0.  1.
     999900   -1    0    0    0    0 -0.00000000000E+00 -0.00000000000E+00 -0.74505805969E-08  0.93827000000E+00  0.93827000000E+00 0. -1.
     999902    2    1    2    0    0 -0.46489319372E-02  0.19595912431E-01  0.12095970810E-01  0.10204369188E+01  0.10201664474E+01 0.  0.
     999903    2    3    3    0    0  0.12057500025E+00 -0.40663520090E-01 -0.10779771842E-01  0.12923798931E+00  0.19859553094E-01 0.  0.
         14    1    1    2    0    0  0.46489319372E-02 -0.19595912431E-01 -0.12095970810E-01  0.23493081152E-01  0.00000000000E+00 0. -1.
     999901    1    3    3    0    0 -0.12522393219E+00  0.60259432521E-01  0.22875742652E-01  0.89119892953E+00  0.88000000000E+00 0.  1.
        -11    1    4    4    0    0  0.72211884300E-01 -0.34352689918E-01 -0.83253687206E-02  0.80400475273E-01  0.51100000000E-03 0. -1.
         11    1    4    4    0    0  0.48363115952E-01 -0.63108301719E-02 -0.24544031210E-02  0.48837514041E-01  0.51100000000E-03 0.  1.
</event>
<event>
 8    1  0.1092667E+005  0.1043930E+01  0.7957747E-01            NaN
         13   -1    0    0    0    0  0.00000000000E+00  0.00000000000E+00  0.74505805969E-08  0.10566000000E+00  0.10566000000E+00 0. -1.
     999900   -1    0    0    0    0 -0.00000000000E+00 -0.00000000000E+00 -0.74505805969E-08  0.93827000000E+00  0.93827000000E+00 0. -1.
     999902    2    1    2    0    0  0.12455547654E-01 -0.38132963217E-02  0.21257032996E-01  0.10189992289E+01  0.10186942059E+01 0.  0.
     999903    2    3    3    0    0 -0.65210429733E-01  0.45731189689E-01 -0.96298076760E-01  0.12641541548E+00  0.19073432490E-01 0.  0.
         14    1    1    2    0    0 -0.12455547654E-01  0.38132963217E-02 -0.21257032996E-01  0.24930771107E-01  0.00000000000E+00 0. -1.
     999901    1    3    3    0    0  0.77665977386E-01 -0.49544486011E-01  0.11755510976E+00  0.89258381341E+00  0.88000000000E+00 0.  1.
        -11    1    4    4    0    0 -0.21556352158E-01  0.51136258674E-02 -0.29051099665E-01  0.36538377093E-01  0.51100000000E-03 0.  1.
         11    1    4    4    0    0 -0.43654077575E-01  0.40617563822E-01 -0.67246977095E-01  0.89877038387E-01  0.51100000000E-03 0. -1.
</event>
<event>
 8    1  0.1092667E+005  0.1043930E+01  0.7957747E-01            NaN
         13   -1    0    0    0    0  0.00000000000E+00  0.00000000000E+00  0.74505805969E-08  0.10566000000E+00  0.10566000000E+00 0. -1.
     999900   -1    0    0    0    0 -0.00000000000E+00 -0.00000000000E+00 -0.74505805969E-08  0.93827000000E+00  0.93827000000E+00 0. -1.
     999902    2    1    2    0    0  0.18416968098E-01 -0.28654486379E-03  0.14242569966E-01  0.10206465806E+01  0.10203809704E+01 0.  0.
     999903    2    3    3    0    0  0.28834029648E-01  0.12600028279E+00 -0.10428861582E-01  0.13122791786E+00  0.20112999383E-01 0.  0.
         14    1    1    2    0    0 -0.18416968098E-01  0.28654486379E-03 -0.14242569966E-01  0.23283419446E-01  0.00000000000E+00 0.  1.
     999901    1    3    3    0    0 -0.10417061550E-01 -0.12628682765E+00  0.24671431548E-01  0.88941866269E+00  0.88000000000E+00 0.  1.
        -11    1    4    4    0    0  0.40491364767E-02  0.62483227261E-01 -0.59218710539E-02  0.62895777863E-01  0.51100000000E-03 0. -1.
         11    1    4    4    0    0  0.24784893171E-01  0.63517055527E-01 -0.45069905282E-02  0.68332139999E-01  0.51100000000E-03 0.  1.
</event>
<event>
 8    1  0.1092667E+005  0.1043930E+01  0.7957747E-01            NaN
         13   -1    0    0    0    0  0.00000000000E+00  0.00000000000E+00  0.74505805969E-08  0.10566000000E+00  0.10566000000E+00 0.  1.
     999900   -1    0    0    0    0 -0.00000000000E+00 -0.00000000000E+00 -0.74505805969E-08  0.93827000000E+00  0.93827000000E+00 0.  1.
     999902    2    1    2    0    0  0.21108934844E-01 -0.86184417578E-02 -0.56703416984E-02  0.10204349485E+01  0.10201644312E+01 0.  0.
     999903    2    3    3    0    0  0.99429498006E-01 -0.67781832627E-02 -0.86175576383E-01  0.13329426635E+00  0.20222824608E-01 0.  0.
         14    1    1    2    0    0 -0.21108934844E-01  0.86184417578E-02  0.56703416984E-02  0.23495051469E-01  0.00000000000E+00 0.  1.
     999901    1    3    3    0    0 -0.78320563162E-01 -0.18402584951E-02  0.80505234685E-01  0.88714068218E+00  0.88000000000E+00 0. -1.
        -11    1    4    4    0    0  0.42196145555E-01  0.39517407212E-02 -0.45989455117E-01  0.62541362772E-01  0.51100000000E-03 0. -1.
         11    1    4    4    0    0  0.57233352452E-01 -0.10729923984E-01 -0.40186121266E-01  0.70752903579E-01  0.51100000000E-03 0.  1.
</event>
<event>
 8    1  0.1092667E+005  0.1043930E+01  0.7957747E-01            NaN
         13   -1    0    0    0    0  0.00000000000E+00  0.00000000000E+00  0.74505805969E-08  0.10566000000E+00  0.10566000000E+00 0.  1.
     999900   -1    0    0    0    0 -0.00000000000E+00 -0.00000000000E+00 -0.74505805969E-08  0.93827000000E+00  0.93827000000E+00 0.  1.
     999902    2    1    2    0    0  0.21643140954E-02  0.47287150625E-02 -0.20229014621E-01  0.10230432091E+01  0.10228299710E+01 0.  0.
     999903    2    3    3    0    0  0.52780430991E-01 -0.11178220778E+00 -0.46131528726E-01  0.13354462750E+00  0.20615860861E-01 0.  0.
         14    1    1    2    0    0 -0.21643140954E-02 -0.47287150625E-02  0.20229014621E-01  0.20886790902E-01  0.00000000000E+00 0.  1.
     999901    1    3    3    0    0 -0.50616116896E-01  0.11651092284E+00  0.25902514105E-01  0.88949858160E+00  0.88000000000E+00 0.  1.
        -11    1    4    4    0    0  0.19610166361E-01 -0.48444893409E-01 -0.29943556604E-01  0.60235737111E-01  0.51100000000E-03 0. -1.
         11    1    4    4    0    0  0.33170264630E-01 -0.63337314371E-01 -0.16187972122E-01  0.73308890387E-01  0.51100000000E-03 0.  1.
</event>
<event>
 8    1  0.1092667E+005  0.1043930E+01  0.7957747E-01            NaN
         13   -1    0    0    0    0  0.00000000000E+00  0.00000000000E+00  0.74505805969E-08  0.10566000000E+00  0.10566000000E+00 0. -1.
     999900   -1    0    0    0    0 -0.00000000000E+00 -0.00000000000E+00 -0.74505805969E-08  0.93827000000E+00  0.93827000000E+00 0. -1.
     999902    2    1    2    0    0  0.10594409292E-02 -0.20420026118E-01  0.12135564918E-01  0.10201524514E+01  0.10198753121E+01 0.  0.
     999903    2    3    3    0    0 -0.10773176768E+00 -0.68139214401E-02  0.71897911339E-01  0.13133740247E+00  0.20679466579E-01 0.  0.
         14    1    1    2    0    0 -0.10594409292E-02  0.20420026118E-01 -0.12135564918E-01  0.23777548604E-01  0.00000000000E+00 0.  1.
     999901    1    3    3    0    0  0.10879120861E+00 -0.13606104678E-01 -0.59762346421E-01  0.88881504893E+00  0.88000000000E+00 0.  1.
        -11    1    4    4    0    0 -0.43500893749E-01  0.55734838289E-02  0.35845547969E-01  0.56644116280E-01  0.51100000000E-03 0. -1.
         11    1    4    4    0    0 -0.64230873934E-01 -0.12387405269E-01  0.36052363370E-01  0.74693286185E-01  0.51100000000E-03 0.  1.
</event>
<event>
 8    1  0.1092667E+005  0.1043930E+01  0.7957747E-01            NaN
         13   -1    0    0    0    0  0.00000000000E+00  0.00000000000E+00  0.74505805969E-08  0.10566000000E+00  0.10566000000E+00 0. -1.
     999900   -1    0    0    0    0 -0.00000000000E+00 -0.00000000000E+00 -0.74505805969E-08  0.93827000000E+00  0.93827000000E+00 0. -1.
     999902    2    1    2    0    0 -0.11724746155E-01  0.27978821013E-02  0.20056660858E-01  0.10205298406E+01  0.10202615292E+01 0.  0.
     999903    2    3    3    0    0  0.57542243975E-02  0.33037985573E-01 -0.12229232669E+00  0.12840697205E+00  0.20206872996E-01 0.  0.
         14    1    1    2    0    0  0.11724746155E-01 -0.27978821013E-02 -0.20056660858E-01  0.23400159432E-01  0.00000000000E+00 0.  1.
     999901    1    3    3    0    0 -0.17478970552E-01 -0.30240103471E-01  0.14234898755E+00  0.89212286851E+00  0.88000000000E+00 0.  1.
        -11    1    4    4    0    0  0.18688084971E-02  0.32987015409E-01 -0.89938847497E-01  0.95816976789E-01  0.51100000000E-03 0. -1.
         11    1    4    4    0    0  0.38854159004E-02  0.50970164009E-04 -0.32353479191E-01  0.32589995266E-01  0.51100000000E-03 0.  1.
</event>
<event>
 8    1  0.1092667E+005  0.1043930E+01  0.7957747E-01            NaN
         13   -1    0    0    0    0  0.00000000000E+00  0.00000000000E+00  0.74505805969E-08  0.10566000000E+00  0.10566000000E+00 0.  1.
     999900   -1    0    0    0    0 -0.00000000000E+00 -0.00000000000E+00 -0.74505805969E-08  0.93827000000E+00  0.93827000000E+00 0. -1.
     999902    2    1    2    0    0 -0.12166480772E-02 -0.22581988864E-01 -0.77914132633E-02  0.10200107071E+01  0.10197302143E+01 0.  0.
     999903    2    3    3    0    0 -0.45750779390E-01  0.84914286935E-01  0.82237558380E-01  0.12779775385E+00  0.16299691404E-01 0.  0.
         14    1    1    2    0    0  0.12166480772E-02  0.22581988864E-01  0.77914132633E-02  0.23919292929E-01  0.00000000000E+00 0.  1.
     999901    1    3    3    0    0  0.44534131313E-01 -0.10749627580E+00 -0.90028971643E-01  0.89221295322E+00  0.88000000000E+00 0. -1.
        -11    1    4    4    0    0 -0.45511730317E-01  0.81825709610E-01  0.75201059161E-01  0.12009256750E+00  0.51100000000E-03 0. -1.
         11    1    4    4    0    0 -0.23904907297E-03  0.30885773250E-02  0.70364992183E-02  0.77051863444E-02  0.51100000000E-03 0.  1.
</event>
<event>
 8    1  0.1092667E+005  0.1043930E+01  0.7957747E-01            NaN
         13   -1    0    0    0    0  0.00000000000E+00  0.00000000000E+00  0.74505805969E-08  0.10566000000E+00  0.10566000000E+00 0.  1.
     999900   -1    0    0    0    0 -0.00000000000E+00 -0.00000000000E+00 -0.74505805969E-08  0.93827000000E+00  0.93827000000E+00 0.  1.
     999902    2    1    2    0    0 -0.80963584538E-02 -0.23316029343E-02  0.21850414667E-01  0.10205114600E+01  0.10202427221E+01 0.  0.
     999903    2    3    3    0    0 -0.57868209745E-01  0.11564968829E+00  0.15805253456E-02  0.13101289868E+00  0.20935650449E-01 0.  0.
         14    1    1    2    0    0  0.80963584538E-02  0.23316029343E-02 -0.21850414667E-01  0.23418539954E-01  0.00000000000E+00 0. -1.
     999901    1    3    3    0    0  0.49771851291E-01 -0.11798129122E+00  0.20269889321E-01  0.88949856137E+00  0.88000000000E+00 0.  1.
        -11    1    4    4    0    0 -0.51302094830E-01  0.91153399466E-01 -0.52877395790E-02  0.10473332077E+00  0.51100000000E-03 0. -1.
         11    1    4    4    0    0 -0.65661149148E-02  0.24496288823E-01  0.68682649247E-02  0.26279577912E-01  0.51100000000E-03 0.  1.
</event>
<event>
 8    1  0.1092667E+005  0.1043930E+01  0.7957747E-01            NaN
         13   -1    0    0    0    0  0.00000000000E+00  0.00000000000E+00  0.74505805969E-08  0.10566000000E+00  0.10566000000E+00 0. -1.
     999900   -1    0    0    0    0 -0.00000000000E+00 -0.00000000000E+00 -0.74505805969E-08  0.93827000000E+00  0.93827000000E+00 0.  1.
     999902    2    1    2    0    0 -0.29684211259E-02  0.22958077683E-01  0.25453397423E-02  0.10206412987E+01  0.10203755666E+01 0.  0.
     999903    2    3    3    0    0  0.48929948008E-01  0.81928026612E-01 -0.89738070376E-01  0.13233553860E+00  0.18799791128E-01 0.  0.
         14    1    1    2    0    0  0.29684211259E-02 -0.22958077683E-01 -0.25453397423E-02  0.23288701322E-01  0.00000000000E+00 0. -1.
     999901    1    3    3    0    0 -0.51898369134E-01 -0.58969948929E-01  0.92283410118E-01  0.88830576007E+00  0.88000000000E+00 0. -1.
        -11    1    4    4    0    0  0.50176422489E-02  0.41717408904E-02 -0.13157088066E-01  0.14695245598E-01  0.51100000000E-03 0. -1.
         11    1    4    4    0    0  0.43912305759E-01  0.77756285721E-01 -0.76580982310E-01  0.11764029301E+00  0.51100000000E-03 0.  1.
</event>
<event>
 8    1  0.1092667E+005  0.1043930E+01  0.7957747E-01            NaN
         13   -1    0    0    0    0  0.00000000000E+00  0.00000000000E+00  0.74505805969E-08  0.10566000000E+00  0.10566000000E+00 0. -1.
     999900   -1    0    0    0    0 -0.00000000000E+00 -0.00000000000E+00 -0.74505805969E-08  0.93827000000E+00  0.93827000000E+00 0. -1.
     999902    2    1    2    0    0  0.24072298275E-01  0.12692917820E-02 -0.36262178755E-02  0.10195530416E+01  0.10192615800E+01 0.  0.
     999903    2    3    3    0    0  0.84562906970E-01 -0.42768528329E-01 -0.89639685984E-01  0.13219924515E+00  0.21478707219E-01 0.  0.
         14    1    1    2    0    0 -0.24072298275E-01 -0.12692917820E-02  0.36262178755E-02  0.24376958423E-01  0.00000000000E+00 0. -1.
     999901    1    3    3    0    0 -0.60490608694E-01  0.44037820111E-01  0.86013468108E-01  0.88735379643E+00  0.88000000000E+00 0.  1.
        -11    1    4    4    0    0  0.41960034140E-01 -0.31814366419E-01 -0.42025929040E-01  0.67373868884E-01  0.51100000000E-03 0.  1.
         11    1    4    4    0    0  0.42602872829E-01 -0.10954161910E-01 -0.47613756944E-01  0.64825376264E-01  0.51100000000E-03 0. -1.
</event>
<event>
 8    1  0.1092667E+005  0.1043930E+01  0.7957747E-01            NaN
         13   -1    0    0    0    0  0.00000000000E+00  0.00000000000E+00  0.74505805969E-08  0.10566000000E+00  0.10566000000E+00 0. -1.
     999900   -1    0    0    0    0 -0.00000000000E+00 -0.00000000000E+00 -0.74505805969E-08  0.93827000000E+00  0.93827000000E+00 0.  1.
     999902    2    1    2    0    0 -0.38346940021E-02  0.23105735859E-01 -0.32680477858E-02  0.10202813205E+01  0.10200072121E+01 0.  0.
     999903    2    3    3    0    0 -0.11549145432E+00 -0.39313117449E-01  0.40173494614E-01  0.12997209722E+00  0.19875592112E-01 0.  0.
         14    1    1    2    0    0  0.38346940021E-02 -0.23105735859E-01  0.32680477858E-02  0.23648679541E-01  0.00000000000E+00 0. -1.
     999901    1    3    3    0    0  0.11165676032E+00  0.62418853308E-01 -0.43441542400E-01  0.89030922324E+00  0.88000000000E+00 0.  1.
        -11    1    4    4    0    0 -0.90509301453E-01 -0.29319837052E-01  0.39602634507E-01  0.10305443355E+00  0.51100000000E-03 0. -1.
         11    1    4    4    0    0 -0.24982152870E-01 -0.99932803966E-02  0.57086010670E-03  0.26917663668E-01  0.51100000000E-03 0.  1.
</event>
<event>
 8    1  0.1092667E+005  0.1043930E+01  0.7957747E-01            NaN
         13   -1    0    0    0    0  0.00000000000E+00  0.00000000000E+00  0.74505805969E-08  0.10566000000E+00  0.10566000000E+00 0.  1.
     999900   -1    0    0    0    0 -0.00000000000E+00 -0.00000000000E+00 -0.74505805969E-08  0.93827000000E+00  0.93827000000E+00 0.  1.
     999902    2    1    2    0    0  0.27929318234E-02  0.13964277809E-01 -0.18752831647E-01  0.10203828087E+01  0.10201110754E+01 0.  0.
     999903    2    3    3    0    0  0.14749161149E-01  0.12035761278E+00  0.46655895983E-01  0.13148416725E+00  0.20194575936E-01 0.  0.
         14    1    1    2    0    0 -0.27929318234E-02 -0.13964277809E-01  0.18752831647E-01  0.23547191290E-01  0.00000000000E+00 0.  1.
     999901    1    3    3    0    0 -0.11956229326E-01 -0.10639333497E+00 -0.65408727630E-01  0.88889864146E+00  0.88000000000E+00 0.  1.
        -11    1    4    4    0    0  0.17824074890E-01  0.95246459611E-01  0.42622397965E-01  0.10586083149E+00  0.51100000000E-03 0.  1.
         11    1    4    4    0    0 -0.30749137415E-02  0.25111153171E-01  0.40334980184E-02  0.25623335758E-01  0.51100000000E-03 0. -1.
</event>
<event>
 8    1  0.1092667E+005  0.1043930E+01  0.7957747E-01            NaN
         13   -1    0    0    0    0  0.00000000000E+00  0.00000000000E+00  0.74505805969E-08  0.10566000000E+00  0.10566000000E+00 0. -1.
     999900   -1    0    0    0    0 -0.00000000000E+00 -0.00000000000E+00 -0.74505805969E-08  0.93827000000E+00  0.93827000000E+00 0.  1.
     999902    2    1    2    0    0 -0.28394622404E-02 -0.15750556978E-01 -0.17413732470E-01  0.10202787702E+01  0.10200046021E+01 0.  0.
     999903    2    3    3    0    0  0.23836150039E-01 -0.94086742604E-01 -0.89504771110E-01  0.13346127823E+00  0.19502090996E-01 0.  0.
         14    1    1    2    0    0  0.28394622404E-02  0.15750556978E-01  0.17413732470E-01  0.23651229767E-01  0.00000000000E+00 0. -1.
     999901    1    3    3    0    0 -0.26675612280E-01  0.78336185626E-01  0.72091038640E-01  0.88681749200E+00  0.88000000000E+00 0. -1.
        -11    1    4    4    0    0  0.67341940539E-02 -0.60405872246E-01 -0.48997873882E-01  0.78072220010E-01  0.51100000000E-03 0. -1.
         11    1    4    4    0    0  0.17101955985E-01 -0.33680870357E-01 -0.40506897228E-01  0.55389058221E-01  0.51100000000E-03 0.  1.
</event>
<event>
 8    1  0.1092667E+005  0.1043930E+01  0.7957747E-01            NaN
         13   -1    0    0    0    0  0.00000000000E+00  0.00000000000E+00  0.74505805969E-08  0.10566000000E+00  0.10566000000E+00 0. -1.
     999900   -1    0    0    0    0 -0.00000000000E+00 -0.00000000000E+00 -0.74505805969E-08  0.93827000000E+00  0.93827000000E+00 0.  1.
     999902    2    1    2    0    0 -0.18996710445E-01  0.80752509037E-02 -0.64372706352E-02  0.10223077166E+01  0.10220790304E+01 0.  0.
     999903    2    3    3    0    0 -0.58632762727E-01  0.74933263906E-01  0.91564005508E-01  0.13346281415E+00  0.19379389851E-01 0.  0.
         14    1    1    2    0    0  0.18996710445E-01 -0.80752509037E-02  0.64372706352E-02  0.21622283370E-01  0.00000000000E+00 0. -1.
     999901    1    3    3    0    0  0.39636052281E-01 -0.66858013002E-01 -0.98001276143E-01  0.88884490248E+00  0.88000000000E+00 0.  1.
        -11    1    4    4    0    0 -0.17261118987E-01  0.10762406399E-01  0.24420428630E-01  0.31786696520E-01  0.51100000000E-03 0. -1.
         11    1    4    4    0    0 -0.41371643740E-01  0.64170857507E-01  0.67143576878E-01  0.10167611763E+00  0.51100000000E-03 0.  1.
</event>
<event>
 8    1  0.1092667E+005  0.1043930E+01  0.7957747E-01            NaN
         13   -1    0    0    0    0  0.00000000000E+00  0.00000000000E+00  0.74505805969E-08  0.10566000000E+00  0.10566000000E+00 0. -1.
     999900   -1    0    0    0    0 -0.00000000000E+00 -0.00000000000E+00 -0.74505805969E-08  0.93827000000E+00  0.93827000000E+00 0. -1.
     999902    2    1    2    0    0 -0.10575313693E-01 -0.21191103056E-02 -0.17412068499E-01  0.10234481051E+01  0.10232431362E+01 0.  0.
     999903    2    3    3    0    0 -0.11104147455E+00  0.74566155618E-01 -0.61837789694E-02  0.13434734932E+00  0.10984102762E-01 0.  0.
         14    1    1    2    0    0  0.10575313693E-01  0.21191103056E-02  0.17412068499E-01  0.20481894873E-01  0.00000000000E+00 0. -1.
     999901    1    3    3    0    0  0.10046616086E+00 -0.76685265924E-01 -0.11228289529E-01  0.88910075580E+00  0.88000000000E+00 0. -1.
        -11    1    4    4    0    0 -0.36214659493E-01  0.19444312006E-01 -0.49035345019E-02  0.41399137710E-01  0.51100000000E-03 0.  1.
         11    1    4    4    0    0 -0.74826815058E-01  0.55121843612E-01 -0.12802444675E-02  0.92948211611E-01  0.51100000000E-03 0. -1.
</event>
<event>
 8    1  0.1092667E+005  0.1043930E+01  0.7957747E-01            NaN
         13   -1    0    0    0    0  0.00000000000E+00  0.00000000000E+00  0.74505805969E-08  0.10566000000E+00  0.10566000000E+00 0.  1.
     999900   -1    0    0    0    0 -0.00000000000E+00 -0.00000000000E+00 -0.74505805969E-08  0.93827000000E+00  0.93827000000E+00 0.  1.
     999902    2    1    2    0    0  0.21299111561E-01 -0.99900476489E-02  0.45602488587E-02  0.10199665054E+01  0.10196849626E+01 0.  0.
     999903    2    3    3    0    0 -0.71568613081E-01  0.39043626730E-03  0.10578842113E+00  0.12924808096E+00  0.19790340234E-01 0.  0.
         14    1    1    2    0    0 -0.21299111561E-01  0.99900476489E-02 -0.45602488587E-02  0.23963494632E-01  0.00000000000E+00 0.  1.
     999901    1    3    3    0    0  0.92867724642E-01 -0.10380483916E-01 -0.10122817227E+00  0.89071842441E+00  0.88000000000E+00 0.  1.
        -11    1    4    4    0    0 -0.41918937505E-01 -0.94118042744E-02  0.63761707832E-01  0.76886903228E-01  0.51100000000E-03 0. -1.
         11    1    4    4    0    0 -0.29649675576E-01  0.98022405417E-02  0.42026713298E-01  0.52361177728E-01  0.51100000000E-03 0.  1.
</event>
<event>
 8    1  0.1092667E+005  0.1043930E+01  0.7957747E-01            NaN
         13   -1    0    0    0    0  0.00000000000E+00  0.00000000000E+00  0.74505805969E-08  0.10566000000E+00  0.10566000000E+00 0.  1.
     999900   -1    0    0    0    0 -0.00000000000E+00 -0.00000000000E+00 -0.74505805969E-08  0.93827000000E+00  0.93827000000E+00 0.  1.
     999902    2    1    2    0    0 -0.23477393144E-01  0.40650261107E-02  0.84019960495E-02  0.10186652822E+01  0.10183519290E+01 0.  0.
     999903    2    3    3    0    0  0.24814624357E-01  0.51320709015E-01 -0.11259533610E+00  0.12781985630E+00  0.20263889000E-01 0.  0.
         14    1    1    2    0    0  0.23477393144E-01 -0.40650261107E-02 -0.84019960495E-02  0.25264717765E-01  0.00000000000E+00 0. -1.
     999901    1    3    3    0    0 -0.48292017502E-01 -0.47255682904E-01  0.12099733215E+00  0.89084542593E+00  0.88000000000E+00 0. -1.
        -11    1    4    4    0    0  0.15737325609E-01  0.24951604042E-01 -0.77917911676E-01  0.83316913304E-01  0.51100000000E-03 0. -1.
         11    1    4    4    0    0  0.90772987479E-02  0.26369104973E-01 -0.34677424424E-01  0.44502942997E-01  0.51100000000E-03 0.  1.
</event>
<event>
 8    1  0.1092667E+005  0.1043930E+01  0.7957747E-01            NaN
         13   -1    0    0    0    0  0.00000000000E+00  0.00000000000E+00  0.74505805969E-08  0.10566000000E+00  0.10566000000E+00 0.  1.
     999900   -1    0    0    0    0 -0.00000000000E+00 -0.00000000000E+00 -0.74505805969E-08  0.93827000000E+00  0.93827000000E+00 0. -1.
     999902    2    1    2    0    0  0.15588302060E-01 -0.16566865526E-01  0.87300368942E-02  0.10195646611E+01  0.10192734807E+01 0.  0.
     999903    2    3    3    0    0  0.71495324821E-01 -0.10823757555E+00  0.20993400891E-01  0.13295341352E+00  0.20222093209E-01 0.  0.
         14    1    1    2    0    0 -0.15588302060E-01  0.16566865526E-01 -0.87300368942E-02  0.24365338878E-01  0.00000000000E+00 0. -1.
     999901    1    3    3    0    0 -0.55907022761E-01  0.91670710028E-01 -0.12263363997E-01  0.88661124760E+00  0.88000000000E+00 0. -1.
        -11    1    4    4    0    0  0.84659919953E-02 -0.18557848984E-01 -0.33254461339E-02  0.20673328043E-01  0.51100000000E-03 0. -1.
         11    1    4    4    0    0  0.63029332826E-01 -0.89679726570E-01  0.24318847025E-01  0.11228008548E+00  0.51100000000E-03 0.  1.
</event>
<event>
 8    1  0.1092667E+005  0.1043930E+01  0.7957747E-01            NaN
         13   -1    0    0    0    0  0.00000000000E+00  0.00000000000E+00  0.74505805969E-08  0.10566000000E+00  0.10566000000E+00 0.  1.
     999900   -1    0    0    0    0 -0.00000000000E+00 -0.00000000000E+00 -0.74505805969E-08  0.93827000000E+00  0.93827000000E+00 0.  1.
     999902    2    1    2    0    0 -0.17635735883E-02  0.15869649025E-01  0.17468262092E-01  0.10202636498E+01  0.10199891269E+01 0.  0.
     999903    2    3    3    0    0  0.70308148114E-01 -0.85816499469E-01  0.65261919401E-01  0.13019700085E+00  0.19606979231E-01 0.  0.
         14    1    1    2    0    0  0.17635735883E-02 -0.15869649025E-01 -0.17468262092E-01  0.23666350215E-01  0.00000000000E+00 0. -1.
     999901    1    3    3    0    0 -0.72071721702E-01  0.10168614849E+00 -0.47793657309E-01  0.89006664893E+00  0.88000000000E+00 0. -1.
        -11    1    4    4    0    0  0.49096362515E-01 -0.52708538481E-01  0.51438635886E-01  0.88514615877E-01  0.51100000000E-03 0.  1.
         11    1    4    4    0    0  0.21211785599E-01 -0.33107960988E-01  0.13823283515E-01  0.41682384975E-01  0.51100000000E-03 0. -1.
</event>
<event>
 8    1  0.1092667E+005  0.1043930E+01  0.7957747E-01            NaN
         13   -1    0    0    0    0  0.00000000000E+00  0.00000000000E+00  0.74505805969E-08  0.10566000000E+00  0.10566000000E+00 0. -1.
     999900   -1    0    0    0    0 -0.00000000000E+00 -0.00000000000E+00 -0.74505805969E-08  0.93827000000E+00  0.93827000000E+00 0.  1.
     999902    2    1    2    0    0 -0.23808749272E-02 -0.24695908317E-01  0.16998989070E-01  0.10138547264E+01  0.10134085475E+01 0.  0.
     999903    2    3    3    0    0 -0.13783114654E-01  0.22283434998E-02  0.12450083722E+00  0.12683072798E+00  0.19764496666E-01 0.  0.
         14    1    1    2    0    0  0.23808749272E-02  0.24695908317E-01 -0.16998989070E-01  0.30075273605E-01  0.00000000000E+00 0.  1.
     999901    1    3    3    0    0  0.11402239726E-01 -0.26924251817E-01 -0.10750184815E+00  0.88702399841E+00  0.88000000000E+00 0.  1.
        -11    1    4    4    0    0 -0.13555845507E-01  0.95825480969E-02  0.93580728556E-01  0.95043148378E-01  0.51100000000E-03 0.  1.
         11    1    4    4    0    0 -0.22726914692E-03 -0.73542045971E-02  0.30920108660E-01  0.31787579603E-01  0.51100000000E-03 0. -1.
</event>
<event>
 8    1  0.1092667E+005  0.1043930E+01  0.7957747E-01            NaN
         13   -1    0    0    0    0  0.00000000000E+00  0.00000000000E+00  0.74505805969E-08  0.10566000000E+00  0.10566000000E+00 0. -1.
     999900   -1    0    0    0    0 -0.00000000000E+00 -0.00000000000E+00 -0.74505805969E-08  0.93827000000E+00  0.93827000000E+00 0.  1.
     999902    2    1    2    0    0  0.15358326741E-01  0.33245258291E-02 -0.17537340569E-01  0.10203824102E+01  0.10201106675E+01 0.  0.
     999903    2    3    3    0    0  0.32828930909E-01 -0.97346301858E-01  0.76338187279E-01  0.12951067290E+00  0.19785205758E-01 0.  0.
         14    1    1    2    0    0 -0.15358326741E-01 -0.33245258291E-02  0.17537340569E-01  0.23547589824E-01  0.00000000000E+00 0. -1.
     999901    1    3    3    0    0 -0.17470604168E-01  0.10067082769E+00 -0.93875527848E-01  0.89087173728E+00  0.88000000000E+00 0.  1.
        -11    1    4    4    0    0  0.15383785261E-01 -0.72273473963E-01  0.50525748738E-01  0.89516636969E-01  0.51100000000E-03 0. -1.
         11    1    4    4    0    0  0.17445145648E-01 -0.25072827895E-01  0.25812438540E-01  0.39994035927E-01  0.51100000000E-03 0.  1.
</event>
<event>
 8    1  0.1092667E+005  0.1043930E+01  0.7957747E-01            NaN
         13   -1    0    0    0    0  0.00000000000E+00  0.00000000000E+00  0.74505805969E-08  0.10566000000E+00  0.10566000000E+00 0.  1.
     999900   -1    0    0    0    0 -0.00000000000E+00 -0.00000000000E+00 -0.74505805969E-08  0.93827000000E+00  0.93827000000E+00 0.  1.
     999902    2    1    2    0    0  0.17952756120E-01  0.12125946411E-01  0.79755862118E-02  0.10208442900E+01  0.10205832227E+01 0.  0.
     999903    2    3    3    0    0  0.50075301682E-01 -0.82845026214E-01  0.86821421600E-01  0.13164914311E+00  0.20559752579E-01 0.  0.
         14    1    1    2    0    0 -0.17952756120E-01 -0.12125946411E-01 -0.79755862118E-02  0.23085709955E-01  0.00000000000E+00 0. -1.
     999901    1    3    3    0    0 -0.32122545561E-01  0.94970972625E-01 -0.78845835388E-01  0.88919514694E+00  0.88000000000E+00 0.  1.
        -11    1    4    4    0    0  0.41562594540E-01 -0.50276900353E-01  0.55039274389E-01  0.85351032918E-01  0.51100000000E-03 0. -1.
         11    1    4    4    0    0  0.85127071420E-02 -0.32568125861E-01  0.31782147211E-01  0.46298110192E-01  0.51100000000E-03 0.  1.
</event>
<event>
 8    1  0.1092667E+005  0.1043930E+01  0.7957747E-01            NaN
         13   -1    0    0    0    0  0.00000000000E+00  0.00000000000E+00  0.74505805969E-08  0.10566000000E+00  0.10566000000E+00 0.  1.
     999900   -1    0    0    0    0 -0.00000000000E+00 -0.00000000000E+00 -0.74505805969E-08  0.93827000000E+00  0.93827000000E+00 0.  1.
     999902    2    1    2    0    0  0.20404164639E-01  0.35851272117E-03  0.14313237933E-01  0.10190035633E+01  0.10186986477E+01 0.  0.
     999903    2    3    3    0    0 -0.47357408212E-01 -0.10665221802E+00 -0.47670708988E-01  0.12777691597E+00  0.20905119901E-01 0.  0.
         14    1    1    2    0    0 -0.20404164639E-01 -0.35851272117E-03 -0.14313237933E-01  0.24926436691E-01  0.00000000000E+00 0. -1.
     999901    1    3    3    0    0  0.67761572851E-01  0.10701073074E+00  0.61983946921E-01  0.89122664734E+00  0.88000000000E+00 0.  1.
        -11    1    4    4    0    0 -0.12761315417E-01 -0.39802410113E-01 -0.75449101394E-02  0.42476697282E-01  0.51100000000E-03 0. -1.
         11    1    4    4    0    0 -0.34596092795E-01 -0.66849807909E-01 -0.40125798849E-01  0.85300218689E-01  0.51100000000E-03 0.  1.
</event>
<event>
 8    1  0.1092667E+005  0.1043930E+01  0.7957747E-01            NaN
         13   -1    0    0    0    0  0.00000000000E+00  0.00000000000E+00  0.74505805969E-08  0.10566000000E+00  0.10566000000E+00 0. -1.
     999900   -1    0    0    0    0 -0.00000000000E+00 -0.00000000000E+00 -0.74505805969E-08  0.93827000000E+00  0.93827000000E+00 0. -1.
     999902    2    1    2    0    0  0.28714746342E-02  0.22064326450E-01  0.48389627210E-02  0.10211595053E+01  0.10209055979E+01 0.  0.
     999903    2    3    3    0    0 -0.38540124475E-01  0.12660393818E+00  0.74772976670E-02  0.13400088828E+00  0.19657815758E-01 0.  0.
         14    1    1    2    0    0 -0.28714746342E-02 -0.22064326450E-01 -0.48389627210E-02  0.22770494692E-01  0.00000000000E+00 0.  1.
     999901    1    3    3    0    0  0.41411599109E-01 -0.10453961173E+00 -0.26383349460E-02  0.88715861703E+00  0.88000000000E+00 0.  1.
        -11    1    4    4    0    0  0.15819707862E-02  0.14589382590E-01 -0.97830083177E-03  0.14716348373E-01  0.51100000000E-03 0.  1.
         11    1    4    4    0    0 -0.40122095261E-01  0.11201455559E+00  0.84555984988E-02  0.11928453990E+00  0.51100000000E-03 0. -1.
</event>
<event>
 8    1  0.1092667E+005  0.1043930E+01  0.7957747E-01            NaN
         13   -1    0    0    0    0  0.00000000000E+00  0.00000000000E+00  0.74505805969E-08  0.10566000000E+00  0.10566000000E+00 0. -1.
     999900   -1    0    0    0    0 -0.00000000000E+00 -0.00000000000E+00 -0.74505805969E-08  0.93827000000E+00  0.93827000000E+00 0.  1.
     999902    2    1    2    0    0  0.72237065928E-02  0.14191593878E-01 -0.17999737027E-01  0.10198972347E+01  0.10196140425E+01 0.  0.
     999903    2    3    3    0    0  0.73567755141E-01  0.53027833881E-01 -0.95414857040E-01  0.13316002048E+00  0.20085575633E-01 0.  0.
         14    1    1    2    0    0 -0.72237065928E-02 -0.14191593878E-01  0.17999737027E-01  0.24032765275E-01  0.00000000000E+00 0. -1.
     999901    1    3    3    0    0 -0.66344048548E-01 -0.38836240003E-01  0.77415120013E-01  0.88673721424E+00  0.88000000000E+00 0. -1.
        -11    1    4    4    0    0  0.53967868798E-01  0.34206988785E-01 -0.78211844133E-01  0.10099506239E+00  0.51100000000E-03 0. -1.
         11    1    4    4    0    0  0.19599886343E-01  0.18820845095E-01 -0.17203012907E-01  0.32164958088E-01  0.51100000000E-03 0.  1.
</event>
<event>
 8    1  0.1092667E+005  0.1043930E+01  0.7957747E-01            NaN
         13   -1    0    0    0    0  0.00000000000E+00  0.00000000000E+00  0.74505805969E-08  0.10566000000E+00  0.10566000000E+00 0.  1.
     999900   -1    0    0    0    0 -0.00000000000E+00 -0.00000000000E+00 -0.74505805969E-08  0.93827000000E+00  0.93827000000E+00 0. -1.
     999902    2    1    2    0    0 -0.21779051512E-01  0.93742738447E-02 -0.55453434900E-03  0.10202126729E+01  0.10199369522E+01 0.  0.
     999903    2    3    3    0    0 -0.45623934480E-01 -0.10683839101E+00 -0.55488271704E-01  0.13055449283E+00  0.21668920384E-01 0.  0.
         14    1    1    2    0    0  0.21779051512E-01 -0.93742738447E-02  0.55453434900E-03  0.23717327067E-01  0.00000000000E+00 0.  1.
     999901    1    3    3    0    0  0.23844882968E-01  0.11621266486E+00  0.54933737355E-01  0.88965818010E+00  0.88000000000E+00 0.  1.
        -11    1    4    4    0    0 -0.98156768456E-02 -0.36793172935E-01 -0.88441927007E-02  0.39096879058E-01  0.51100000000E-03 0.  1.
         11    1    4    4    0    0 -0.35808257635E-01 -0.70045218079E-01 -0.46644079003E-01  0.91457613776E-01  0.51100000000E-03 0. -1.
</event>
<event>
 8    1  0.1092667E+005  0.1043930E+01  0.7957747E-01            NaN
         13   -1    0    0    0    0  0.00000000000E+00  0.00000000000E+00  0.74505805969E-08  0.10566000000E+00  0.10566000000E+00 0. -1.
     999900   -1    0    0    0    0 -0.00000000000E+00 -0.00000000000E+00 -0.74505805969E-08  0.93827000000E+00  0.93827000000E+00 0. -1.
     999902    2    1    2    0    0 -0.11548067352E-01  0.20423046445E-01  0.20351400658E-02  0.10203800429E+01  0.10201082449E+01 0.  0.
     999903    2    3    3    0    0  0.49390969542E-01  0.99721047170E-01  0.67057960810E-01  0.13233178610E+00  0.25123223990E-01 0.  0.
         14    1    1    2    0    0  0.11548067352E-01 -0.20423046445E-01 -0.20351400658E-02  0.23549957128E-01  0.00000000000E+00 0.  1.
     999901    1    3    3    0    0 -0.60939036894E-01 -0.79298000725E-01 -0.65022820744E-01  0.88804825677E+00  0.88000000000E+00 0. -1.
        -11    1    4    4    0    0  0.33652279480E-01  0.88062857171E-01  0.58505893493E-01  0.11095378958E+00  0.51100000000E-03 0. -1.
         11    1    4    4    0    0  0.15738690062E-01  0.11658189999E-01  0.85520673167E-02  0.21377996522E-01  0.51100000000E-03 0.  1.
</event>
<event>
 8    1  0.1102987E+005  0.1043930E+01  0.7957747E-01            NaN
         13   -1    0    0    0    0  0.00000000000E+00  0.00000000000E+00  0.74505805969E-08  0.10566000000E+00  0.10566000000E+00 0.  1.
     999900   -1    0    0    0    0 -0.00000000000E+00 -0.00000000000E+00 -0.74505805969E-08  0.93827000000E+00  0.93827000000E+00 0.  1.
     999902    2    1    2    0    0  0.18168569295E-01 -0.10946089472E-01  0.96545929036E-02  0.10206249587E+01  0.10203588493E+01 0.  0.
     999903    2    3    3    0    0 -0.66581926367E-01  0.87104528348E-01 -0.63247090735E-01  0.12815018280E+00  0.20048019563E-01 0.  0.
         14    1    1    2    0    0 -0.18168569295E-01  0.10946089472E-01 -0.96545929036E-02  0.23305041281E-01  0.00000000000E+00 0.  1.
     999901    1    3    3    0    0  0.84750495663E-01 -0.98050617820E-01  0.72901683639E-01  0.89247477592E+00  0.88000000000E+00 0. -1.
        -11    1    4    4    0    0 -0.28467548079E-01  0.52515683287E-01 -0.29720880433E-01  0.66722486011E-01  0.51100000000E-03 0.  1.
         11    1    4    4    0    0 -0.38114378288E-01  0.34588845061E-01 -0.33526210302E-01  0.61427696792E-01  0.51100000000E-03 0. -1.
</event>
<event>
 8    1  0.1092667E+005  0.1043930E+01  0.7957747E-01            NaN
         13   -1    0    0    0    0  0.00000000000E+00  0.00000000000E+00  0.74505805969E-08  0.10566000000E+00  0.10566000000E+00 0.  1.
     999900   -1    0    0    0    0 -0.00000000000E+00 -0.00000000000E+00 -0.74505805969E-08  0.93827000000E+00  0.93827000000E+00 0.  1.
     999902    2    1    2    0    0 -0.17512767701E-01 -0.53472122564E-02 -0.14096273950E-01  0.10208216757E+01  0.10205600908E+01 0.  0.
     999903    2    3    3    0    0  0.12553636226E+00  0.17622137657E-01 -0.68564979201E-02  0.12894553019E+00  0.22583626968E-01 0.  0.
         14    1    1    2    0    0  0.17512767701E-01  0.53472122564E-02  0.14096273950E-01  0.23108324274E-01  0.00000000000E+00 0.  1.
     999901    1    3    3    0    0 -0.14304912996E+00 -0.22969349913E-01 -0.72397760297E-02  0.89187614554E+00  0.88000000000E+00 0.  1.
        -11    1    4    4    0    0  0.15407456082E-01  0.28979200865E-03 -0.81756111366E-02  0.17452089296E-01  0.51100000000E-03 0. -1.
         11    1    4    4    0    0  0.11012890618E+00  0.17332345648E-01  0.13191132165E-02  0.11149344090E+00  0.51100000000E-03 0.  1.
</event>
<event>
 8    1  0.1092667E+005  0.1043930E+01  0.7957747E-01            NaN
         13   -1    0    0    0    0  0.00000000000E+00  0.00000000000E+00  0.74505805969E-08  0.10566000000E+00  0.10566000000E+00 0. -1.
     999900   -1    0    0    0    0 -0.00000000000E+00 -0.00000000000E+00 -0.74505805969E-08  0.93827000000E+00  0.93827000000E+00 0.  1.
     999902    2    1    2    0    0  0.59579410754E-02  0.11351222290E-01 -0.20385269363E-01  0.10198487518E+01  0.10195644021E+01 0.  0.
     999903    2    3    3    0    0  0.39994915758E-01  0.69367042689E-01  0.10020125431E+00  0.12908196930E+00  0.14508050670E-01 0.  0.
         14    1    1    2    0    0 -0.59579410754E-02 -0.11351222290E-01  0.20385269363E-01  0.24081248230E-01  0.00000000000E+00 0. -1.
     999901    1    3    3    0    0 -0.34036974683E-01 -0.58015820399E-01 -0.12058652368E+00  0.89076678247E+00  0.88000000000E+00 0.  1.
        -11    1    4    4    0    0  0.87778715941E-02  0.28744352965E-01  0.34291801883E-01  0.45601290052E-01  0.51100000000E-03 0.  1.
         11    1    4    4    0    0  0.31217044164E-01  0.40622689724E-01  0.65909452430E-01  0.83480679246E-01  0.51100000000E-03 0. -1.
</event>
<event>
 8    1  0.1092667E+005  0.1043930E+01  0.7957747E-01            NaN
         13   -1    0    0    0    0  0.00000000000E+00  0.00000000000E+00  0.74505805969E-08  0.10566000000E+00  0.10566000000E+00 0. -1.
     999900   -1    0    0    0    0 -0.00000000000E+00 -0.00000000000E+00 -0.74505805969E-08  0.93827000000E+00  0.93827000000E+00 0.  1.
     999902    2    1    2    0    0  0.15760260563E-01  0.72841972824E-02 -0.10623856145E-01  0.10235753528E+01  0.10233729482E+01 0.  0.
     999903    2    3    3    0    0 -0.10519452938E+00 -0.71693702157E-01 -0.26830557157E-01  0.13165034084E+00  0.20150868578E-01 0.  0.
         14    1    1    2    0    0 -0.15760260563E-01 -0.72841972824E-02  0.10623856145E-01  0.20354647196E-01  0.00000000000E+00 0.  1.
     999901    1    3    3    0    0  0.12095478995E+00  0.78977899439E-01  0.16206701012E-01  0.89192501196E+00  0.88000000000E+00 0.  1.
        -11    1    4    4    0    0 -0.48109113579E-01 -0.21602013994E-01 -0.14607167300E-01  0.54724439472E-01  0.51100000000E-03 0.  1.
         11    1    4    4    0    0 -0.57085415805E-01 -0.50091688163E-01 -0.12223389857E-01  0.76925901367E-01  0.51100000000E-03 0. -1.
</event>
<event>
 8    1  0.1092667E+005  0.1043930E+01  0.7957747E-01            NaN
         13   -1    0    0    0    0  0.00000000000E+00  0.00000000000E+00  0.74505805969E-08  0.10566000000E+00  0.10566000000E+00 0.  1.
     999900   -1    0    0    0    0 -0.00000000000E+00 -0.00000000000E+00 -0.74505805969E-08  0.93827000000E+00  0.93827000000E+00 0.  1.
     999902    2    1    2    0    0  0.12991894185E-01  0.15933154405E-01 -0.12813308186E-01  0.10197053103E+01  0.10194175221E+01 0.  0.
     999903    2    3    3    0    0  0.38635623481E-02 -0.11685939924E+00 -0.50441285802E-01  0.12890058791E+00  0.19999798663E-01 0.  0.
         14    1    1    2    0    0 -0.12991894185E-01 -0.15933154405E-01  0.12813308186E-01  0.24224689688E-01  0.00000000000E+00 0.  1.
     999901    1    3    3    0    0  0.91283318370E-02  0.13279255365E+00  0.37627977616E-01  0.89080472240E+00  0.88000000000E+00 0. -1.
        -11    1    4    4    0    0  0.10578095652E-01 -0.83080837642E-01 -0.40624954002E-01  0.93085819004E-01  0.51100000000E-03 0.  1.
         11    1    4    4    0    0 -0.67145333039E-02 -0.33778561599E-01 -0.98163317999E-02  0.35814768911E-01  0.51100000000E-03 0. -1.
</event>
<event>
 7    1  0.1092667E+005  0.1043930E+01  0.7957747E-01            NaN
         13   -1    0    0    0    0  0.00000000000E+00  0.00000000000E+00  0.74505805969E-08  0.10566000000E+00  0.10566000000E+00 0. -1.
     999900   -1    0    0    0    0 -0.00000000000E+00 -0.00000000000E+00 -0.74505805969E-08  0.93827000000E+00  0.93827000000E+00 0.  1.
     999903    2    1    2    0    0 -0.66663594373E-01  0.59567411409E-01  0.67105063308E-01  0.11416507747E+00  0.23200518878E-01 0.  0.
         14    1    1    2    0    0 -0.21782412803E-01 -0.15135166769E-01  0.28662865701E-01  0.39052613880E-01  0.00000000000E+00 0. -1.
     999901    1    1    2    0    0  0.88446007176E-01 -0.44432244639E-01 -0.95767929009E-01  0.89071230865E+00  0.88000000000E+00 0.  1.
        -11    1    3    3    0    0 -0.63077647107E-01  0.47344606408E-01  0.52337202992E-01  0.94655930921E-01  0.51100000000E-03 0.  1.
         11    1    3    3    0    0 -0.35859472658E-02  0.12222805000E-01  0.14767860315E-01  0.19509146551E-01  0.51100000000E-03 0. -1.
</event>
<event>
 8    1  0.1092667E+005  0.1043930E+01  0.7957747E-01            NaN
         13   -1    0    0    0    0  0.00000000000E+00  0.00000000000E+00  0.74505805969E-08  0.10566000000E+00  0.10566000000E+00 0. -1.
     999900   -1    0    0    0    0 -0.00000000000E+00 -0.00000000000E+00 -0.74505805969E-08  0.93827000000E+00  0.93827000000E+00 0.  1.
     999902    2    1    2    0    0  0.87799360562E-02 -0.18320638929E-03  0.20409097052E-01  0.10217117173E+01  0.10214701079E+01 0.  0.
     999903    2    3    3    0    0 -0.19789654129E-01  0.11072838746E+00 -0.62878195515E-01  0.13039001547E+00  0.19886740845E-01 0.  0.
         14    1    1    2    0    0 -0.87799360562E-02  0.18320638929E-03 -0.20409097052E-01  0.22218282657E-01  0.00000000000E+00 0.  1.
     999901    1    3    3    0    0  0.28569590185E-01 -0.11091159385E+00  0.83287292567E-01  0.89132170188E+00  0.88000000000E+00 0. -1.
        -11    1    4    4    0    0 -0.55115126994E-02  0.22167861181E-01 -0.22322247848E-01  0.31942678528E-01  0.51100000000E-03 0.  1.
         11    1    4    4    0    0 -0.14278141429E-01  0.88560526282E-01 -0.40555947667E-01  0.98447336938E-01  0.51100000000E-03 0. -1.
</event>
<event>
 8    1  0.1092667E+005  0.1043930E+01  0.7957747E-01            NaN
         13   -1    0    0    0    0  0.00000000000E+00  0.00000000000E+00  0.74505805969E-08  0.10566000000E+00  0.10566000000E+00 0.  1.
     999900   -1    0    0    0    0 -0.00000000000E+00 -0.00000000000E+00 -0.74505805969E-08  0.93827000000E+00  0.93827000000E+00 0. -1.
     999902    2    1    2    0    0  0.18026385761E-01 -0.12625982213E-01 -0.84885855503E-02  0.10203413990E+01  0.10200686979E+01 0.  0.
     999903    2    3    3    0    0  0.48565570953E-01  0.11855953616E+00 -0.10382422520E-01  0.13009094626E+00  0.20022020487E-01 0.  0.
         14    1    1    2    0    0 -0.18026385761E-01  0.12625982213E-01  0.84885855503E-02  0.23588600957E-01  0.00000000000E+00 0.  1.
     999901    1    3    3    0    0 -0.30539185193E-01 -0.13118551837E+00  0.18938369698E-02  0.89025045278E+00  0.88000000000E+00 0.  1.
        -11    1    4    4    0    0  0.39755564088E-01  0.73468053154E-01 -0.10086446524E-01  0.84143075976E-01  0.51100000000E-03 0.  1.
         11    1    4    4    0    0  0.88100068651E-02  0.45091483007E-01 -0.29597599571E-03  0.45947870283E-01  0.51100000000E-03 0. -1.
</event>
<event>
 8    1  0.1092667E+005  0.1043930E+01  0.7957747E-01            NaN
         13   -1    0    0    0    0  0.00000000000E+00  0.00000000000E+00  0.74505805969E-08  0.10566000000E+00  0.10566000000E+00 0.  1.
     999900   -1    0    0    0    0 -0.00000000000E+00 -0.00000000000E+00 -0.74505805969E-08  0.93827000000E+00  0.93827000000E+00 0.  1.
     999902    2    1    2    0    0 -0.51956115262E-02  0.21619865569E-01 -0.71409199763E-02  0.10205760773E+01  0.10203088375E+01 0.  0.
     999903    2    3    3    0    0  0.91535185939E-01  0.86944569470E-01 -0.34449081810E-01  0.13244889059E+00  0.20443115090E-01 0.  0.
         14    1    1    2    0    0  0.51956115262E-02 -0.21619865569E-01  0.71409199763E-02  0.23353922678E-01  0.00000000000E+00 0.  1.
     999901    1    3    3    0    0 -0.96730797465E-01 -0.65324703902E-01  0.27308161833E-01  0.88812718674E+00  0.88000000000E+00 0. -1.
        -11    1    4    4    0    0  0.86883900174E-01  0.78951803016E-01 -0.26756608544E-01  0.12040920451E+00  0.51100000000E-03 0.  1.
         11    1    4    4    0    0  0.46512857647E-02  0.79927664542E-02 -0.76924732653E-02  0.12039686075E-01  0.51100000000E-03 0. -1.
</event>
<event>
 8    1  0.1092667E+005  0.1043930E+01  0.7957747E-01            NaN
         13   -1    0    0    0    0  0.00000000000E+00  0.00000000000E+00  0.74505805969E-08  0.10566000000E+00  0.10566000000E+00 0. -1.
     999900   -1    0    0    0    0 -0.00000000000E+00 -0.00000000000E+00 -0.74505805969E-08  0.93827000000E+00  0.93827000000E+00 0. -1.
     999902    2    1    2    0    0  0.21281338695E-02  0.11421437512E-01  0.20694214696E-01  0.10201975600E+01  0.10199214836E+01 0.  0.
     999903    2    3    3    0    0 -0.11297184886E+00 -0.51829524449E-01 -0.28523858613E-01  0.12909088343E+00  0.20047629135E-01 0.  0.
         14    1    1    2    0    0 -0.21281338695E-02 -0.11421437512E-01 -0.20694214696E-01  0.23732440045E-01  0.00000000000E+00 0.  1.
     999901    1    3    3    0    0  0.11509998273E+00  0.63250961960E-01  0.49218073309E-01  0.89110667653E+00  0.88000000000E+00 0. -1.
        -11    1    4    4    0    0 -0.10477393454E+00 -0.53293347946E-01 -0.26297707095E-01  0.12045575459E+00  0.51100000000E-03 0.  1.
         11    1    4    4    0    0 -0.81979143160E-02  0.14638234980E-02 -0.22261515178E-02  0.86351288321E-02  0.51100000000E-03 0. -1.
</event>
<event>
 8    1  0.1092667E+005  0.1043930E+01  0.7957747E-01            NaN
         13   -1    0    0    0    0  0.00000000000E+00  0.00000000000E+00  0.74505805969E-08  0.10566000000E+00  0.10566000000E+00 0. -1.
     999900   -1    0    0    0    0 -0.00000000000E+00 -0.00000000000E+00 -0.74505805969E-08  0.93827000000E+00  0.93827000000E+00 0.  1.
     999902    2    1    2    0    0 -0.83655221437E-03  0.22891608487E-01 -0.63588591612E-02  0.10201568923E+01  0.10198798578E+01 0.  0.
     999903    2    3    3    0    0 -0.89479477483E-01 -0.62992372066E-01 -0.66734448646E-01  0.12949486994E+00  0.18461280425E-01 0.  0.
         14    1    1    2    0    0  0.83655221437E-03 -0.22891608487E-01  0.63588591612E-02  0.23773107676E-01  0.00000000000E+00 0.  1.
     999901    1    3    3    0    0  0.88642925269E-01  0.85883980553E-01  0.60375589485E-01  0.89066202239E+00  0.88000000000E+00 0. -1.
        -11    1    4    4    0    0 -0.35745829669E-01 -0.14802130554E-01 -0.25964196508E-01  0.46596867159E-01  0.51100000000E-03 0. -1.
         11    1    4    4    0    0 -0.53733647814E-01 -0.48190241512E-01 -0.40770252138E-01  0.82898002780E-01  0.51100000000E-03 0.  1.
</event>
<event>
 8    1  0.1092667E+005  0.1043930E+01  0.7957747E-01            NaN
         13   -1    0    0    0    0  0.00000000000E+00  0.00000000000E+00  0.74505805969E-08  0.10566000000E+00  0.10566000000E+00 0.  1.
     999900   -1    0    0    0    0 -0.00000000000E+00 -0.00000000000E+00 -0.74505805969E-08  0.93827000000E+00  0.93827000000E+00 0.  1.
     999902    2    1    2    0    0 -0.20709369633E-01 -0.95703708905E-02  0.88325680967E-02  0.10194660623E+01  0.10191724917E+01 0.  0.
     999903    2    3    3    0    0  0.93551641410E-01  0.21264362621E-01 -0.80834511378E-01  0.12702752402E+00  0.19942188949E-01 0.  0.
         14    1    1    2    0    0  0.20709369633E-01  0.95703708905E-02 -0.88325680967E-02  0.24463937719E-01  0.00000000000E+00 0. -1.
     999901    1    3    3    0    0 -0.11426101104E+00 -0.30834733512E-01  0.89667079475E-01  0.89243853826E+00  0.88000000000E+00 0.  1.
        -11    1    4    4    0    0  0.61976716118E-01  0.20383385719E-01 -0.45012278040E-01  0.79265137667E-01  0.51100000000E-03 0. -1.
         11    1    4    4    0    0  0.31574925293E-01  0.88097690247E-03 -0.35822233338E-01  0.47762386350E-01  0.51100000000E-03 0.  1.
</event>
<event>
 8    1  0.1092667E+005  0.1043930E+01  0.7957747E-01            NaN
         13   -1    0    0    0    0  0.00000000000E+00  0.00000000000E+00  0.74505805969E-08  0.10566000000E+00  0.10566000000E+00 0. -1.
     999900   -1    0    0    0    0 -0.00000000000E+00 -0.00000000000E+00 -0.74505805969E-08  0.93827000000E+00  0.93827000000E+00 0.  1.
     999902    2    1    2    0    0  0.14485281555E-01  0.18487797231E-01  0.22333623216E-02  0.10203374178E+01  0.10200646235E+01 0.  0.
     999903    2    3    3    0    0  0.86430813334E-02  0.75152105072E-01 -0.10615437067E+00  0.13185957577E+00  0.19891092476E-01 0.  0.
         14    1    1    2    0    0 -0.14485281555E-01 -0.18487797231E-01 -0.22333623216E-02  0.23592582212E-01  0.00000000000E+00 0.  1.
     999901    1    3    3    0    0  0.58422002213E-02 -0.56664307841E-01  0.10838773299E+00  0.88847784201E+00  0.88000000000E+00 0. -1.
        -11    1    4    4    0    0  0.23775271640E-02  0.64063104671E-02 -0.21840243424E-01  0.22889971669E-01  0.51100000000E-03 0.  1.
         11    1    4    4    0    0  0.62655541694E-02  0.68745794605E-01 -0.84314127244E-01  0.10896960410E+00  0.51100000000E-03 0. -1.
</event>
<event>
 8    1  0.1092667E+005  0.1043930E+01  0.7957747E-01            NaN
         13   -1    0    0    0    0  0.00000000000E+00  0.00000000000E+00  0.74505805969E-08  0.10566000000E+00  0.10566000000E+00 0.  1.
     999900   -1    0    0    0    0 -0.00000000000E+00 -0.00000000000E+00 -0.74505805969E-08  0.93827000000E+00  0.93827000000E+00 0. -1.
     999902    2    1    2    0    0 -0.15490922973E-01  0.16890268466E-01 -0.65092565012E-02  0.10201052170E+01  0.10198269625E+01 0.  0.
     999903    2    3    3    0    0  0.60268111873E-01  0.80035720404E-01  0.80392494231E-01  0.13034193742E+00  0.22093113684E-01 0.  0.
         14    1    1    2    0    0  0.15490922973E-01 -0.16890268466E-01  0.65092565012E-02  0.23824782971E-01  0.00000000000E+00 0.  1.
     999901    1    3    3    0    0 -0.75759034846E-01 -0.63145451937E-01 -0.86901750732E-01  0.88976327961E+00  0.88000000000E+00 0.  1.
        -11    1    4    4    0    0  0.20544184340E-01  0.43509150350E-01  0.44403789660E-01  0.65475700314E-01  0.51100000000E-03 0.  1.
         11    1    4    4    0    0  0.39723927533E-01  0.36526570053E-01  0.35988704570E-01  0.64866237105E-01  0.51100000000E-03 0. -1.
</event>
<event>
 8    1  0.1092667E+005  0.1043930E+01  0.7957747E-01            NaN
         13   -1    0    0    0    0  0.00000000000E+00  0.00000000000E+00  0.74505805969E-08  0.10566000000E+00  0.10566000000E+00 0. -1.
     999900   -1    0    0    0    0 -0.00000000000E+00 -0.00000000000E+00 -0.74505805969E-08  0.93827000000E+00  0.93827000000E+00 0. -1.
     999902    2    1    2    0    0 -0.10612628861E-01  0.21461932449E-01  0.15815798298E-02  0.10199353375E+01  0.10196530531E+01 0.  0.
     999903    2    3    3    0    0  0.64740549715E-01  0.10461829699E+00 -0.41649429487E-01  0.13175629996E+00  0.22107029625E-01 0.  0.
         14    1    1    2    0    0  0.10612628861E-01 -0.21461932449E-01 -0.15815798298E-02  0.23994662543E-01  0.00000000000E+00 0.  1.
     999901    1    3    3    0    0 -0.75353178576E-01 -0.83156364544E-01  0.43231009317E-01  0.88817903750E+00  0.88000000000E+00 0.  1.
        -11    1    4    4    0    0  0.41037448995E-01  0.76789664814E-01 -0.38053310595E-01  0.95021262938E-01  0.51100000000E-03 0. -1.
         11    1    4    4    0    0  0.23703100720E-01  0.27828632180E-01 -0.35961188922E-02  0.36735037020E-01  0.51100000000E-03 0.  1.
</event>
<event>
 8    1  0.1092667E+005  0.1043930E+01  0.7957747E-01            NaN
         13   -1    0    0    0    0  0.00000000000E+00  0.00000000000E+00  0.74505805969E-08  0.10566000000E+00  0.10566000000E+00 0. -1.
     999900   -1    0    0    0    0 -0.00000000000E+00 -0.00000000000E+00 -0.74505805969E-08  0.93827000000E+00  0.93827000000E+00 0. -1.
     999902    2    1    2    0    0  0.11445872708E-01  0.10170627259E-01 -0.17286070989E-01  0.10208376222E+01  0.10205764024E+01 0.  0.
     999903    2    3    3    0    0  0.31001732294E-01 -0.11868933696E+00  0.36575642050E-01  0.12960902857E+00  0.20309027125E-01 0.  0.
         14    1    1    2    0    0 -0.11445872708E-01 -0.10170627259E-01  0.17286070989E-01  0.23092377771E-01  0.00000000000E+00 0. -1.
     999901    1    3    3    0    0 -0.19555859586E-01  0.12885996422E+00 -0.53861713039E-01  0.89122859366E+00  0.88000000000E+00 0. -1.
        -11    1    4    4    0    0  0.15077096689E-01 -0.72797214222E-01  0.12486642003E-01  0.75385214682E-01  0.51100000000E-03 0.  1.
         11    1    4    4    0    0  0.15924635606E-01 -0.45892122736E-01  0.24089000047E-01  0.54223813889E-01  0.51100000000E-03 0. -1.
</event>
<event>
 8    1  0.1092667E+005  0.1043930E+01  0.7957747E-01            NaN
         13   -1    0    0    0    0  0.00000000000E+00  0.00000000000E+00  0.74505805969E-08  0.10566000000E+00  0.10566000000E+00 0.  1.
     999900   -1    0    0    0    0 -0.00000000000E+00 -0.00000000000E+00 -0.74505805969E-08  0.93827000000E+00  0.93827000000E+00 0.  1.
     999902    2    1    2    0    0 -0.56625208659E-03 -0.12327038280E-01  0.19248342360E-01  0.10210657222E+01  0.10208096953E+01 0.  0.
     999903    2    3    3    0    0 -0.30343839335E-01  0.92857782979E-01  0.86041686407E-01  0.13178966716E+00  0.20543323094E-01 0.  0.
         14    1    1    2    0    0  0.56625208659E-03  0.12327038280E-01 -0.19248342360E-01  0.22864277766E-01  0.00000000000E+00 0. -1.
     999901    1    3    3    0    0  0.29777587249E-01 -0.10518482126E+00 -0.66793344048E-01  0.88927605508E+00  0.88000000000E+00 0.  1.
        -11    1    4    4    0    0 -0.21514684047E-01  0.41355278093E-01  0.31557780121E-01  0.56296494234E-01  0.51100000000E-03 0. -1.
         11    1    4    4    0    0 -0.88291552881E-02  0.51502504886E-01  0.54483906286E-01  0.75493172922E-01  0.51100000000E-03 0.  1.
</event>
<event>
 8    1  0.1092667E+005  0.1043930E+01  0.7957747E-01            NaN
         13   -1    0    0    0    0  0.00000000000E+00  0.00000000000E+00  0.74505805969E-08  0.10566000000E+00  0.10566000000E+00 0. -1.
     999900   -1    0    0    0    0 -0.00000000000E+00 -0.00000000000E+00 -0.74505805969E-08  0.93827000000E+00  0.93827000000E+00 0.  1.
     999902    2    1    2    0    0 -0.14078053662E-01  0.14924672746E-01 -0.10370467645E-01  0.10209412190E+01  0.10206823642E+01 0.  0.
     999903    2    3    3    0    0  0.93907707699E-01  0.74520887168E-01 -0.44257910416E-01  0.13169378878E+00  0.31819352259E-01 0.  0.
         14    1    1    2    0    0  0.14078053662E-01 -0.14924672746E-01  0.10370467645E-01  0.22988780973E-01  0.00000000000E+00 0. -1.
     999901    1    3    3    0    0 -0.10798576136E+00 -0.59596214423E-01  0.33887442771E-01  0.88924743025E+00  0.88000000000E+00 0. -1.
        -11    1    4    4    0    0  0.27101437010E-01  0.36566323042E-01 -0.61662544453E-02  0.45933296025E-01  0.51100000000E-03 0.  1.
         11    1    4    4    0    0  0.66806270689E-01  0.37954564127E-01 -0.38091655970E-01  0.85760492751E-01  0.51100000000E-03 0. -1.
</event>
<event>
 8    1  0.1092667E+005  0.1043930E+01  0.7957747E-01            NaN
         13   -1    0    0    0    0  0.00000000000E+00  0.00000000000E+00  0.74505805969E-08  0.10566000000E+00  0.10566000000E+00 0. -1.
     999900   -1    0    0    0    0 -0.00000000000E+00 -0.00000000000E+00 -0.74505805969E-08  0.93827000000E+00  0.93827000000E+00 0. -1.
     999902    2    1    2    0    0 -0.82162947048E-02  0.20367261901E-01 -0.46879974155E-02  0.10214731486E+01  0.10212262644E+01 0.  0.
     999903    2    3    3    0    0  0.73873601020E-01  0.10780459292E+00  0.14534161415E-01  0.13313001148E+00  0.20813911863E-01 0.  0.
         14    1    1    2    0    0  0.82162947048E-02 -0.20367261901E-01  0.46879974155E-02  0.22456851422E-01  0.00000000000E+00 0.  1.
     999901    1    3    3    0    0 -0.82089895725E-01 -0.87437331019E-01 -0.19222158830E-01  0.88834313710E+00  0.88000000000E+00 0.  1.
        -11    1    4    4    0    0  0.34332409650E-01  0.35679809750E-01  0.11415577891E-01  0.50816726732E-01  0.51100000000E-03 0. -1.
         11    1    4    4    0    0  0.39541191371E-01  0.72124783169E-01  0.31185835234E-02  0.82313284750E-01  0.51100000000E-03 0.  1.
</event>
<event>
 8    1  0.1092667E+005  0.1043930E+01  0.7957747E-01            NaN
         13   -1    0    0    0    0  0.00000000000E+00  0.00000000000E+00  0.74505805969E-08  0.10566000000E+00  0.10566000000E+00 0.  1.
     999900   -1    0    0    0    0 -0.00000000000E+00 -0.00000000000E+00 -0.74505805969E-08  0.93827000000E+00  0.93827000000E+00 0.  1.
     999902    2    1    2    0    0  0.20819374706E-01 -0.98185059120E-02  0.96841186790E-02  0.10189573835E+01  0.10186513230E+01 0.  0.
     999903    2    3    3    0    0  0.11506929486E+00 -0.30370053105E-01 -0.52265379093E-01  0.13152110192E+00  0.20071065081E-01 0.  0.
         14    1    1    2    0    0 -0.20819374706E-01  0.98185059120E-02 -0.96841186790E-02  0.24972616525E-01  0.00000000000E+00 0.  1.
     999901    1    3    3    0    0 -0.94249920156E-01  0.20551547193E-01  0.61949497772E-01  0.88743628155E+00  0.88000000000E+00 0. -1.
        -11    1    4    4    0    0  0.52511635767E-01 -0.18693752076E-01 -0.14806484563E-01  0.57675136443E-01  0.51100000000E-03 0. -1.
         11    1    4    4    0    0  0.62557659096E-01 -0.11676301029E-01 -0.37458894530E-01  0.73845965480E-01  0.51100000000E-03 0.  1.
</event>
<event>
 8    1  0.1092667E+005  0.1043930E+01  0.7957747E-01            NaN
         13   -1    0    0    0    0  0.00000000000E+00  0.00000000000E+00  0.74505805969E-08  0.10566000000E+00  0.10566000000E+00 0.  1.
     999900   -1    0    0    0    0 -0.00000000000E+00 -0.00000000000E+00 -0.74505805969E-08  0.93827000000E+00  0.93827000000E+00 0. -1.
     999902    2    1    2    0    0  0.46097549343E-02 -0.22965523362E-01 -0.48800523624E-02  0.10200034454E+01  0.10197227803E+01 0.  0.
     999903    2    3    3    0    0  0.71654895405E-01  0.10067862004E+00 -0.29185072784E-01  0.12850265512E+00  0.19762472795E-01 0.  0.
         14    1    1    2    0    0 -0.46097549343E-02  0.22965523362E-01  0.48800523624E-02  0.23926554598E-01  0.00000000000E+00 0.  1.
     999901    1    3    3    0    0 -0.67045140470E-01 -0.12364414340E+00  0.24305020422E-01  0.89150079028E+00  0.88000000000E+00 0.  1.
        -11    1    4    4    0    0  0.13453877119E-02  0.11021741056E-01 -0.40039796824E-02  0.11814474948E-01  0.51100000000E-03 0.  1.
         11    1    4    4    0    0  0.70309507693E-01  0.89656878982E-01 -0.25181093102E-01  0.11668818017E+00  0.51100000000E-03 0. -1.
</event>
<event>
 8    1  0.1092667E+005  0.1043930E+01  0.7957747E-01            NaN
         13   -1    0    0    0    0  0.00000000000E+00  0.00000000000E+00  0.74505805969E-08  0.10566000000E+00  0.10566000000E+00 0.  1.
     999900   -1    0    0    0    0 -0.00000000000E+00 -0.00000000000E+00 -0.74505805969E-08  0.93827000000E+00  0.93827000000E+00 0. -1.
     999902    2    1    2    0    0 -0.44588401403E-02 -0.19932194763E-01  0.12435455243E-01  0.10200173634E+01  0.10197370285E+01 0.  0.
     999903    2    3    3    0    0 -0.49387835004E-01  0.11653016994E+00  0.71302095609E-02  0.12835109329E+00  0.20117765994E-01 0.  0.
         14    1    1    2    0    0  0.44588401403E-02  0.19932194763E-01 -0.12435455243E-01  0.23912636629E-01  0.00000000000E+00 0. -1.
     999901    1    3    3    0    0  0.44928994864E-01 -0.13646236470E+00  0.53052456819E-02  0.89166627008E+00  0.88000000000E+00 0. -1.
        -11    1    4    4    0    0 -0.14074778535E-01  0.16894763859E-01 -0.28156373677E-02  0.22174791351E-01  0.51100000000E-03 0. -1.
         11    1    4    4    0    0 -0.35313056469E-01  0.99635406082E-01  0.99458469286E-02  0.10617630194E+00  0.51100000000E-03 0.  1.
</event>
<event>
 8    1  0.1092667E+005  0.1043930E+01  0.7957747E-01            NaN
         13   -1    0    0    0    0  0.00000000000E+00  0.00000000000E+00  0.74505805969E-08  0.10566000000E+00  0.10566000000E+00 0.  1.
     999900   -1    0    0    0    0 -0.00000000000E+00 -0.00000000000E+00 -0.74505805969E-08  0.93827000000E+00  0.93827000000E+00 0. -1.
     999902    2    1    2    0    0 -0.13964327847E-01 -0.20206015580E-01 -0.10186708439E-01  0.10173395027E+01  0.10169919416E+01 0.  0.
     999903    2    3    3    0    0  0.62540097977E-01 -0.39617119259E-01 -0.10367086957E+00  0.12887509345E+00  0.19502833672E-01 0.  0.
         14    1    1    2    0    0  0.13964327847E-01  0.20206015580E-01  0.10186708439E-01  0.26590497300E-01  0.00000000000E+00 0.  1.
     999901    1    3    3    0    0 -0.76504425825E-01  0.19411103679E-01  0.93484161133E-01  0.88846440925E+00  0.88000000000E+00 0. -1.
        -11    1    4    4    0    0  0.29356112098E-01 -0.12303314142E-01 -0.57979477211E-01  0.66144037940E-01  0.51100000000E-03 0. -1.
         11    1    4    4    0    0  0.33183985879E-01 -0.27313805117E-01 -0.45691392361E-01  0.62731055512E-01  0.51100000000E-03 0.  1.
</event>
<event>
 8    1  0.1092667E+005  0.1043930E+01  0.7957747E-01            NaN
         13   -1    0    0    0    0  0.00000000000E+00  0.00000000000E+00  0.74505805969E-08  0.10566000000E+00  0.10566000000E+00 0.  1.
     999900   -1    0    0    0    0 -0.00000000000E+00 -0.00000000000E+00 -0.74505805969E-08  0.93827000000E+00  0.93827000000E+00 0.  1.
     999902    2    1    2    0    0  0.68891570533E-03 -0.55431136743E-03  0.22864055560E-01  0.10210488527E+01  0.10207924435E+01 0.  0.
     999903    2    3    3    0    0  0.48964081841E-01  0.30234296295E-01 -0.11344597672E+00  0.12871547612E+00  0.19649177511E-01 0.  0.
         14    1    1    2    0    0 -0.68891570533E-03  0.55431136743E-03 -0.22864055560E-01  0.22881147318E-01  0.00000000000E+00 0. -1.
     999901    1    3    3    0    0 -0.48275166136E-01 -0.30788607662E-01  0.13631003228E+00  0.89233337656E+00  0.88000000000E+00 0. -1.
        -11    1    4    4    0    0  0.27693244446E-01  0.26859451064E-01 -0.63204608351E-01  0.74050182560E-01  0.51100000000E-03 0. -1.
         11    1    4    4    0    0  0.21270837395E-01  0.33748452308E-02 -0.50241368365E-01  0.54665293560E-01  0.51100000000E-03 0.  1.
</event>
<event>
 8    1  0.1092667E+005  0.1043930E+01  0.7957747E-01            NaN
         13   -1    0    0    0    0  0.00000000000E+00  0.00000000000E+00  0.74505805969E-08  0.10566000000E+00  0.10566000000E+00 0. -1.
     999900   -1    0    0    0    0 -0.00000000000E+00 -0.00000000000E+00 -0.74505805969E-08  0.93827000000E+00  0.93827000000E+00 0.  1.
     999902    2    1    2    0    0  0.15448263595E-01 -0.10459141126E-01  0.13264336746E-01  0.10210392789E+01  0.10207826527E+01 0.  0.
     999903    2    3    3    0    0 -0.10420900405E+00 -0.40396853948E-01 -0.61721901245E-01  0.12927862482E+00  0.20296487576E-01 0.  0.
         14    1    1    2    0    0 -0.15448263595E-01  0.10459141126E-01 -0.13264336746E-01  0.22890721057E-01  0.00000000000E+00 0.  1.
     999901    1    3    3    0    0  0.11965726765E+00  0.29937712822E-01  0.74986237991E-01  0.89176065412E+00  0.88000000000E+00 0. -1.
        -11    1    4    4    0    0 -0.54069343131E-01 -0.11015163103E-01 -0.34713096903E-01  0.65192698229E-01  0.51100000000E-03 0. -1.
         11    1    4    4    0    0 -0.50139660923E-01 -0.29381690844E-01 -0.27008804342E-01  0.64085926593E-01  0.51100000000E-03 0.  1.
</event>
<event>
 8    1  0.1092667E+005  0.1043930E+01  0.7957747E-01            NaN
         13   -1    0    0    0    0  0.00000000000E+00  0.00000000000E+00  0.74505805969E-08  0.10566000000E+00  0.10566000000E+00 0.  1.
     999900   -1    0    0    0    0 -0.00000000000E+00 -0.00000000000E+00 -0.74505805969E-08  0.93827000000E+00  0.93827000000E+00 0. -1.
     999902    2    1    2    0    0 -0.22256266872E-01  0.11142110250E-02  0.15522407394E-02  0.10215918637E+01  0.10213476116E+01 0.  0.
     999903    2    3    3    0    0 -0.17005767893E-01 -0.12451895968E+00  0.35602890949E-01  0.13200167262E+00  0.19044901372E-01 0.  0.
         14    1    1    2    0    0  0.22256266872E-01 -0.11142110250E-02 -0.15522407394E-02  0.22338136283E-01  0.00000000000E+00 0. -1.
     999901    1    3    3    0    0 -0.52504989788E-02  0.12563317071E+00 -0.34050650209E-01  0.88959019110E+00  0.88000000000E+00 0. -1.
        -11    1    4    4    0    0 -0.13841674953E-01 -0.52712407058E-01  0.83857659503E-02  0.55143195545E-01  0.51100000000E-03 0.  1.
         11    1    4    4    0    0 -0.31640929404E-02 -0.71806552622E-01  0.27217124998E-01  0.76858477072E-01  0.51100000000E-03 0. -1.
</event>
<event>
 8    1  0.1092667E+005  0.1043930E+01  0.7957747E-01            NaN
         13   -1    0    0    0    0  0.00000000000E+00  0.00000000000E+00  0.74505805969E-08  0.10566000000E+00  0.10566000000E+00 0.  1.
     999900   -1    0    0    0    0 -0.00000000000E+00 -0.00000000000E+00 -0.74505805969E-08  0.93827000000E+00  0.93827000000E+00 0. -1.
     999902    2    1    2    0    0  0.21074390296E-01  0.13645299758E-01  0.70457309662E-02  0.10178538336E+01  0.10175197590E+01 0.  0.
     999903    2    3    3    0    0 -0.79223283040E-01 -0.35530881065E-02  0.97368035996E-01  0.12739691342E+00  0.21458939969E-01 0.  0.
         14    1    1    2    0    0 -0.21074390296E-01 -0.13645299758E-01 -0.70457309662E-02  0.26076166449E-01  0.00000000000E+00 0. -1.
     999901    1    3    3    0    0  0.10029767334E+00  0.17198387865E-01 -0.90322305030E-01  0.89045692013E+00  0.88000000000E+00 0.  1.
        -11    1    4    4    0    0 -0.70789488006E-01 -0.97003644402E-02  0.88070138533E-01  0.11341013669E+00  0.51100000000E-03 0.  1.
         11    1    4    4    0    0 -0.84337950348E-02  0.61472763337E-02  0.92978974626E-02  0.13986776728E-01  0.51100000000E-03 0. -1.
</event>
<event>
 8    1  0.1092667E+005  0.1043930E+01  0.7957747E-01            NaN
         13   -1    0    0    0    0  0.00000000000E+00  0.00000000000E+00  0.74505805969E-08  0.10566000000E+00  0.10566000000E+00 0. -1.
     999900   -1    0    0    0    0 -0.00000000000E+00 -0.00000000000E+00 -0.74505805969E-08  0.93827000000E+00  0.93827000000E+00 0. -1.
     999902    2    1    2    0    0  0.87121678715E-02  0.28243053925E-02  0.21877321106E-01  0.10202130072E+01  0.10199372943E+01 0.  0.
     999903    2    3    3    0    0  0.67283940277E-01  0.86730450952E-01  0.72013560827E-01  0.13286609851E+00  0.20448653948E-01 0.  0.
         14    1    1    2    0    0 -0.87121678715E-02 -0.28243053925E-02 -0.21877321106E-01  0.23716992827E-01  0.00000000000E+00 0.  1.
     999901    1    3    3    0    0 -0.58571772405E-01 -0.83906145559E-01 -0.50136239721E-01  0.88734690867E+00  0.88000000000E+00 0. -1.
        -11    1    4    4    0    0  0.27154240073E-01  0.21460933598E-01  0.27858473663E-01  0.44432871848E-01  0.51100000000E-03 0.  1.
         11    1    4    4    0    0  0.40129700204E-01  0.65269517353E-01  0.44155087164E-01  0.88433226660E-01  0.51100000000E-03 0. -1.
</event>
<event>
 8    1  0.1092667E+005  0.1043930E+01  0.7957747E-01            NaN
         13   -1    0    0    0    0  0.00000000000E+00  0.00000000000E+00  0.74505805969E-08  0.10566000000E+00  0.10566000000E+00 0. -1.
     999900   -1    0    0    0    0 -0.00000000000E+00 -0.00000000000E+00 -0.74505805969E-08  0.93827000000E+00  0.93827000000E+00 0. -1.
     999902    2    1    2    0    0  0.43972221977E-02  0.74909649174E-02 -0.22707986900E-01  0.10196173945E+01  0.10193274883E+01 0.  0.
     999903    2    3    3    0    0  0.29580401284E-01  0.49097597048E-01  0.11240857241E+00  0.12797745092E+00  0.21376777460E-01 0.  0.
         14    1    1    2    0    0 -0.43972221977E-02 -0.74909649174E-02  0.22707986900E-01  0.24312605527E-01  0.00000000000E+00 0. -1.
     999901    1    3    3    0    0 -0.25183179086E-01 -0.41606632131E-01 -0.13511655931E+00  0.89163994356E+00  0.88000000000E+00 0. -1.
        -11    1    4    4    0    0  0.13031160530E-01  0.70470869697E-02  0.39598823598E-01  0.42282390316E-01  0.51100000000E-03 0. -1.
         11    1    4    4    0    0  0.16549240754E-01  0.42050510079E-01  0.72809748817E-01  0.85695060600E-01  0.51100000000E-03 0.  1.
</event>
<event>
 8    1  0.1092667E+005  0.1043930E+01  0.7957747E-01            NaN
         13   -1    0    0    0    0  0.00000000000E+00  0.00000000000E+00  0.74505805969E-08  0.10566000000E+00  0.10566000000E+00 0.  1.
     999900   -1    0    0    0    0 -0.00000000000E+00 -0.00000000000E+00 -0.74505805969E-08  0.93827000000E+00  0.93827000000E+00 0.  1.
     999902    2    1    2    0    0 -0.22329737824E-01  0.12299838938E-02  0.54205081144E-02  0.10209188731E+01  0.10206595091E+01 0.  0.
     999903    2    3    3    0    0 -0.93156433969E-01 -0.44742040832E-01  0.82054099553E-01  0.13356181124E+00  0.20637605510E-01 0.  0.
         14    1    1    2    0    0  0.22329737824E-01 -0.12299838938E-02 -0.54205081144E-02  0.23011126871E-01  0.00000000000E+00 0. -1.
     999901    1    3    3    0    0  0.70826696145E-01  0.45972024726E-01 -0.76633591439E-01  0.88735706189E+00  0.88000000000E+00 0.  1.
        -11    1    4    4    0    0 -0.87108079035E-01 -0.46831759195E-01  0.75888652716E-01  0.12466105982E+00  0.51100000000E-03 0. -1.
         11    1    4    4    0    0 -0.60483549339E-02  0.20897183630E-02  0.61654468367E-02  0.89007514255E-02  0.51100000000E-03 0.  1.
</event>
<event>
 8    1  0.1092667E+005  0.1043930E+01  0.7957747E-01            NaN
         13   -1    0    0    0    0  0.00000000000E+00  0.00000000000E+00  0.74505805969E-08  0.10566000000E+00  0.10566000000E+00 0. -1.
     999900   -1    0    0    0    0 -0.00000000000E+00 -0.00000000000E+00 -0.74505805969E-08  0.93827000000E+00  0.93827000000E+00 0.  1.
     999902    2    1    2    0    0  0.17792010774E-01  0.14285699502E-01  0.80481169931E-02  0.10197347723E+01  0.10194476920E+01 0.  0.
     999903    2    3    3    0    0  0.33304465658E-01  0.57427777178E-01 -0.11063977412E+00  0.13058422787E+00  0.20098356314E-01 0.  0.
         14    1    1    2    0    0 -0.17792010774E-01 -0.14285699502E-01 -0.80481169931E-02  0.24195227727E-01  0.00000000000E+00 0.  1.
     999901    1    3    3    0    0 -0.15512454884E-01 -0.43142077676E-01  0.11868789111E+00  0.88915054441E+00  0.88000000000E+00 0. -1.
        -11    1    4    4    0    0  0.20881873184E-01  0.46743181517E-01 -0.95049140355E-01  0.10796100152E+00  0.51100000000E-03 0.  1.
         11    1    4    4    0    0  0.12422592474E-01  0.10684595662E-01 -0.15590633761E-01  0.22623226346E-01  0.51100000000E-03 0. -1.
</event>
<event>
 8    1  0.1092667E+005  0.1043930E+01  0.7957747E-01            NaN
         13   -1    0    0    0    0  0.00000000000E+00  0.00000000000E+00  0.74505805969E-08  0.10566000000E+00  0.10566000000E+00 0.  1.
     999900   -1    0    0    0    0 -0.00000000000E+00 -0.00000000000E+00 -0.74505805969E-08  0.93827000000E+00  0.93827000000E+00 0. -1.
     999902    2    1    2    0    0  0.10979799344E-01  0.25280915698E-02  0.20843541359E-01  0.10202361093E+01  0.10199609396E+01 0.  0.
     999903    2    3    3    0    0  0.42772317593E-01  0.44450588838E-01  0.11652348999E+00  0.13348760347E+00  0.20877992262E-01 0.  0.
         14    1    1    2    0    0 -0.10979799344E-01 -0.25280915698E-02 -0.20843541359E-01  0.23693890711E-01  0.00000000000E+00 0. -1.
     999901    1    3    3    0    0 -0.31792518249E-01 -0.41922497268E-01 -0.95679948634E-01  0.88674850581E+00  0.88000000000E+00 0. -1.
        -11    1    4    4    0    0  0.15608503668E-02  0.12782107970E-01  0.18656488423E-01  0.22674748495E-01  0.51100000000E-03 0. -1.
         11    1    4    4    0    0  0.41211467226E-01  0.31668480867E-01  0.97867001571E-01  0.11081285498E+00  0.51100000000E-03 0.  1.
</event>
<event>
 8    1  0.1092667E+005  0.1043930E+01  0.7957747E-01            NaN
         13   -1    0    0    0    0  0.00000000000E+00  0.00000000000E+00  0.74505805969E-08  0.10566000000E+00  0.10566000000E+00 0. -1.
     999900   -1    0    0    0    0 -0.00000000000E+00 -0.00000000000E+00 -0.74505805969E-08  0.93827000000E+00  0.93827000000E+00 0.  1.
     999902    2    1    2    0    0  0.16686208856E-02 -0.38637648304E-02 -0.23288875751E-01  0.10202638912E+01  0.10199893739E+01 0.  0.
     999903    2    3    3    0    0 -0.45393021142E-01  0.11955832159E+00  0.93049227238E-02  0.12980885845E+00  0.20224725362E-01 0.  0.
         14    1    1    2    0    0 -0.16686208856E-02  0.38637648304E-02  0.23288875751E-01  0.23666108849E-01  0.00000000000E+00 0. -1.
     999901    1    3    3    0    0  0.47061642027E-01 -0.12342208642E+00 -0.32593798475E-01  0.89045503270E+00  0.88000000000E+00 0. -1.
        -11    1    4    4    0    0 -0.20765225271E-01  0.31506700354E-01  0.67786734457E-02  0.38341599894E-01  0.51100000000E-03 0.  1.
         11    1    4    4    0    0 -0.24627795871E-01  0.88051621233E-01  0.25262492781E-02  0.91467258555E-01  0.51100000000E-03 0. -1.
</event>
<event>
 8    1  0.1092667E+005  0.1043930E+01  0.7957747E-01            NaN
         13   -1    0    0    0    0  0.00000000000E+00  0.00000000000E+00  0.74505805969E-08  0.10566000000E+00  0.10566000000E+00 0. -1.
     999900   -1    0    0    0    0 -0.00000000000E+00 -0.00000000000E+00 -0.74505805969E-08  0.93827000000E+00  0.93827000000E+00 0.  1.
     999902    2    1    2    0    0  0.16419745963E-01  0.12132893871E-01 -0.10000577367E-01  0.10211961768E+01  0.10209430957E+01 0.  0.
     999903    2    3    3    0    0  0.67498951604E-01 -0.26566345167E-01  0.10731684220E+00  0.13110062387E+00  0.20213604250E-01 0.  0.
         14    1    1    2    0    0 -0.16419745963E-01 -0.12132893871E-01  0.10000577367E-01  0.22733823235E-01  0.00000000000E+00 0. -1.
     999901    1    3    3    0    0 -0.51079205640E-01  0.38699239038E-01 -0.11731741956E+00  0.89009555290E+00  0.88000000000E+00 0.  1.
        -11    1    4    4    0    0  0.16760758582E-01 -0.15438171365E-01  0.40414924858E-01  0.46399218050E-01  0.51100000000E-03 0. -1.
         11    1    4    4    0    0  0.50738193022E-01 -0.11128173802E-01  0.66901917339E-01  0.84701405820E-01  0.51100000000E-03 0.  1.
</event>
<event>
 8    1  0.1092667E+005  0.1043930E+01  0.7957747E-01            NaN
         13   -1    0    0    0    0  0.00000000000E+00  0.00000000000E+00  0.74505805969E-08  0.10566000000E+00  0.10566000000E+00 0.  1.
     999900   -1    0    0    0    0 -0.00000000000E+00 -0.00000000000E+00 -0.74505805969E-08  0.93827000000E+00  0.93827000000E+00 0.  1.
     999902    2    1    2    0    0 -0.20917262901E-02 -0.19288667529E-01  0.13359933932E-01  0.10203733481E+01  0.10201013938E+01 0.  0.
     999903    2    3    3    0    0  0.86781840636E-01  0.77457452094E-01 -0.50440524787E-01  0.12833701415E+00  0.19884614934E-01 0.  0.
         14    1    1    2    0    0  0.20917262901E-02  0.19288667529E-01 -0.13359933932E-01  0.23556651897E-01  0.00000000000E+00 0. -1.
     999901    1    3    3    0    0 -0.88873566926E-01 -0.96746119623E-01  0.63800458718E-01  0.89203633395E+00  0.88000000000E+00 0.  1.
        -11    1    4    4    0    0  0.13858556756E-01  0.52768583707E-02 -0.10743241971E-01  0.18318930063E-01  0.51100000000E-03 0.  1.
         11    1    4    4    0    0  0.72923283880E-01  0.72180593723E-01 -0.39697282816E-01  0.11001808409E+00  0.51100000000E-03 0. -1.
</event>
<event>
 8    1  0.1092667E+005  0.1043930E+01  0.7957747E-01            NaN
         13   -1    0    0    0    0  0.00000000000E+00  0.00000000000E+00  0.74505805969E-08  0.10566000000E+00  0.10566000000E+00 0. -1.
     999900   -1    0    0    0    0 -0.00000000000E+00 -0.00000000000E+00 -0.74505805969E-08  0.93827000000E+00  0.93827000000E+00 0. -1.
     999902    2    1    2    0    0 -0.13109747804E-01  0.11220850677E-01 -0.16090513167E-01  0.10203359840E+01  0.10200631562E+01 0.  0.
     999903    2    3    3    0    0  0.97796459843E-02 -0.59179623345E-01 -0.11491117489E+00  0.13171588841E+00  0.23380073807E-01 0.  0.
         14    1    1    2    0    0  0.13109747804E-01 -0.11220850677E-01  0.16090513167E-01  0.23594016008E-01  0.00000000000E+00 0. -1.
     999901    1    3    3    0    0 -0.22889393789E-01  0.70400474021E-01  0.98820661718E-01  0.88862009558E+00  0.88000000000E+00 0.  1.
        -11    1    4    4    0    0  0.36260644679E-02 -0.32444868148E-01 -0.85354362503E-01  0.91386246952E-01  0.51100000000E-03 0.  1.
         11    1    4    4    0    0  0.61535815165E-02 -0.26734755197E-01 -0.29556812383E-01  0.40329641458E-01  0.51100000000E-03 0. -1.
</event>
<event>
 8    1  0.1092667E+005  0.1043930E+01  0.7957747E-01            NaN
         13   -1    0    0    0    0  0.00000000000E+00  0.00000000000E+00  0.74505805969E-08  0.10566000000E+00  0.10566000000E+00 0. -1.
     999900   -1    0    0    0    0 -0.00000000000E+00 -0.00000000000E+00 -0.74505805969E-08  0.93827000000E+00  0.93827000000E+00 0. -1.
     999902    2    1    2    0    0 -0.96711248178E-02 -0.71998885531E-02 -0.19789994564E-01  0.10207564605E+01  0.10204933800E+01 0.  0.
     999903    2    3    3    0    0  0.10790721835E+00  0.68388211005E-01 -0.95507883855E-02  0.12966551733E+00  0.20025325193E-01 0.  0.
         14    1    1    2    0    0  0.96711248178E-02  0.71998885531E-02  0.19789994564E-01  0.23173539550E-01  0.00000000000E+00 0. -1.
     999901    1    3    3    0    0 -0.11757834316E+00 -0.75588099558E-01 -0.10239206178E-01  0.89109094312E+00  0.88000000000E+00 0. -1.
        -11    1    4    4    0    0  0.27209642922E-01  0.20032929583E-01  0.59707878566E-02  0.34316094828E-01  0.51100000000E-03 0. -1.
         11    1    4    4    0    0  0.80697575424E-01  0.48355281421E-01 -0.15521576242E-01  0.95349422498E-01  0.51100000000E-03 0.  1.
</event>
<event>
 8    1  0.1092667E+005  0.1043930E+01  0.7957747E-01            NaN
         13   -1    0    0    0    0  0.00000000000E+00  0.00000000000E+00  0.74505805969E-08  0.10566000000E+00  0.10566000000E+00 0. -1.
     999900   -1    0    0    0    0 -0.00000000000E+00 -0.00000000000E+00 -0.74505805969E-08  0.93827000000E+00  0.93827000000E+00 0. -1.
     999902    2    1    2    0    0 -0.49700871554E-02 -0.96455899621E-02 -0.20928147645E-01  0.10203561472E+01  0.10200837910E+01 0.  0.
     999903    2    3    3    0    0  0.61241012500E-01 -0.10943125147E+00  0.32180530142E-01  0.13065865950E+00  0.17619261403E-01 0.  0.
         14    1    1    2    0    0  0.49700871554E-02  0.96455899621E-02  0.20928147645E-01  0.23573852801E-01  0.00000000000E+00 0. -1.
     999901    1    3    3    0    0 -0.66211099655E-01  0.99785661506E-01 -0.53108677787E-01  0.88969748770E+00  0.88000000000E+00 0. -1.
        -11    1    4    4    0    0  0.53914379631E-01 -0.87560466855E-01  0.31619213658E-01  0.10758081372E+00  0.51100000000E-03 0. -1.
         11    1    4    4    0    0  0.73266328691E-02 -0.21870784613E-01  0.56131648470E-03  0.23077845783E-01  0.51100000000E-03 0.  1.
</event>
<event>
 8    1  0.1092667E+005  0.1043930E+01  0.7957747E-01            NaN
         13   -1    0    0    0    0  0.00000000000E+00  0.00000000000E+00  0.74505805969E-08  0.10566000000E+00  0.10566000000E+00 0. -1.
     999900   -1    0    0    0    0 -0.00000000000E+00 -0.00000000000E+00 -0.74505805969E-08  0.93827000000E+00  0.93827000000E+00 0. -1.
     999902    2    1    2    0    0  0.39512451464E-02  0.58653148165E-02 -0.23024295687E-01  0.10198440612E+01  0.10195595994E+01 0.  0.
     999903    2    3    3    0    0 -0.30824753889E-01 -0.78423276946E-01  0.93638323367E-01  0.12747412474E+00  0.19522834215E-01 0.  0.
         14    1    1    2    0    0 -0.39512451464E-02 -0.58653148165E-02  0.23024295687E-01  0.24085938802E-01  0.00000000000E+00 0. -1.
     999901    1    3    3    0    0  0.34775999035E-01  0.84288591762E-01 -0.11666261905E+00  0.89236993646E+00  0.88000000000E+00 0. -1.
        -11    1    4    4    0    0 -0.11184088238E-01 -0.45725797922E-01  0.40745318599E-01  0.62260537535E-01  0.51100000000E-03 0. -1.
         11    1    4    4    0    0 -0.19640665651E-01 -0.32697479023E-01  0.52893004768E-01  0.65213587204E-01  0.51100000000E-03 0.  1.
</event>
<event>
 8    1  0.1092667E+005  0.1043930E+01  0.7957747E-01            NaN
         13   -1    0    0    0    0  0.00000000000E+00  0.00000000000E+00  0.74505805969E-08  0.10566000000E+00  0.10566000000E+00 0. -1.
     999900   -1    0    0    0    0 -0.00000000000E+00 -0.00000000000E+00 -0.74505805969E-08  0.93827000000E+00  0.93827000000E+00 0. -1.
     999902    2    1    2    0    0  0.14179452913E-01  0.18480070547E-01 -0.38723032273E-02  0.10203171936E+01  0.10200439260E+01 0.  0.
     999903    2    3    3    0    0 -0.91359588633E-01  0.83388886364E-02 -0.86761902822E-01  0.13008575261E+00  0.31282003644E-01 0.  0.
         14    1    1    2    0    0 -0.14179452913E-01 -0.18480070547E-01  0.38723032273E-02  0.23612806369E-01  0.00000000000E+00 0.  1.
     999901    1    3    3    0    0  0.10553904155E+00  0.10141181910E-01  0.82889599595E-01  0.89023144102E+00  0.88000000000E+00 0.  1.
        -11    1    4    4    0    0 -0.55110540873E-02  0.39848762250E-02  0.13898136136E-02  0.69601478837E-02  0.51100000000E-03 0.  1.
         11    1    4    4    0    0 -0.85848534545E-01  0.43540124114E-02 -0.88151716436E-01  0.12312560473E+00  0.51100000000E-03 0. -1.
</event>
<event>
 8    1  0.1092667E+005  0.1043930E+01  0.7957747E-01            NaN
         13   -1    0    0    0    0  0.00000000000E+00  0.00000000000E+00  0.74505805969E-08  0.10566000000E+00  0.10566000000E+00 0. -1.
     999900   -1    0    0    0    0 -0.00000000000E+00 -0.00000000000E+00 -0.74505805969E-08  0.93827000000E+00  0.93827000000E+00 0. -1.
     999902    2    1    2    0    0 -0.93583425848E-02  0.11206025350E-01  0.20911083054E-01  0.10184265301E+01  0.10181071507E+01 0.  0.
     999903    2    3    3    0    0  0.46486000796E-01  0.27236095071E-01 -0.11275416400E+00  0.12643888892E+00  0.19249363339E-01 0.  0.
         14    1    1    2    0    0  0.93583425848E-02 -0.11206025350E-01 -0.20911083054E-01  0.25503469853E-01  0.00000000000E+00 0.  1.
     999901    1    3    3    0    0 -0.55844343381E-01 -0.16030069721E-01  0.13366524705E+00  0.89198764122E+00  0.88000000000E+00 0.  1.
        -11    1    4    4    0    0  0.11357210505E-01  0.14991931504E-01 -0.50793046512E-01  0.54165846579E-01  0.51100000000E-03 0.  1.
         11    1    4    4    0    0  0.35128790292E-01  0.12244163567E-01 -0.61961117486E-01  0.72273042346E-01  0.51100000000E-03 0. -1.
</event>
<event>
 8    1  0.1092667E+005  0.1043930E+01  0.7957747E-01            NaN
         13   -1    0    0    0    0  0.00000000000E+00  0.00000000000E+00  0.74505805969E-08  0.10566000000E+00  0.10566000000E+00 0.  1.
     999900   -1    0    0    0    0 -0.00000000000E+00 -0.00000000000E+00 -0.74505805969E-08  0.93827000000E+00  0.93827000000E+00 0. -1.
     999902    2    1    2    0    0 -0.37308093049E-02  0.98358726764E-02  0.20105646778E-01  0.10212385840E+01  0.10209864568E+01 0.  0.
     999903    2    3    3    0    0 -0.92951198472E-01  0.10916605513E-01  0.93390634469E-01  0.13369583274E+00  0.19841056234E-01 0.  0.
         14    1    1    2    0    0  0.37308093049E-02 -0.98358726764E-02 -0.20105646778E-01  0.22691416037E-01  0.00000000000E+00 0. -1.
     999901    1    3    3    0    0  0.89220389167E-01 -0.10807328361E-02 -0.73284987691E-01  0.88754275122E+00  0.88000000000E+00 0. -1.
        -11    1    4    4    0    0 -0.74954766975E-01  0.87598312015E-02  0.85148107982E-01  0.11377791152E+00  0.51100000000E-03 0.  1.
         11    1    4    4    0    0 -0.17996431497E-01  0.21567743110E-02  0.82425264877E-02  0.19917921226E-01  0.51100000000E-03 0. -1.
</event>
<event>
 8    1  0.1092667E+005  0.1043930E+01  0.7957747E-01            NaN
         13   -1    0    0    0    0  0.00000000000E+00  0.00000000000E+00  0.74505805969E-08  0.10566000000E+00  0.10566000000E+00 0. -1.
     999900   -1    0    0    0    0 -0.00000000000E+00 -0.00000000000E+00 -0.74505805969E-08  0.93827000000E+00  0.93827000000E+00 0. -1.
     999902    2    1    2    0    0  0.40256189718E-03  0.29766623168E-02  0.23283225970E-01  0.10204538166E+01  0.10201837387E+01 0.  0.
     999903    2    3    3    0    0 -0.94647744070E-01  0.85324366910E-01 -0.19128648614E-01  0.13050186723E+00  0.20649191418E-01 0.  0.
         14    1    1    2    0    0 -0.40256189718E-03 -0.29766623168E-02 -0.23283225970E-01  0.23476183382E-01  0.00000000000E+00 0.  1.
     999901    1    3    3    0    0  0.95050305967E-01 -0.82347704593E-01  0.42411874584E-01  0.88995194939E+00  0.88000000000E+00 0.  1.
        -11    1    4    4    0    0 -0.77709852798E-01  0.71833433207E-01 -0.79417588909E-02  0.10612349412E+00  0.51100000000E-03 0.  1.
         11    1    4    4    0    0 -0.16937891272E-01  0.13490933703E-01 -0.11186889723E-01  0.24378373112E-01  0.51100000000E-03 0. -1.
</event>
<event>
 8    1  0.1092667E+005  0.1043930E+01  0.7957747E-01            NaN
         13   -1    0    0    0    0  0.00000000000E+00  0.00000000000E+00  0.74505805969E-08  0.10566000000E+00  0.10566000000E+00 0. -1.
     999900   -1    0    0    0    0 -0.00000000000E+00 -0.00000000000E+00 -0.74505805969E-08  0.93827000000E+00  0.93827000000E+00 0. -1.
     999902    2    1    2    0    0 -0.54113978058E-02 -0.36039058610E-02  0.23853438092E-01  0.10192063702E+01  0.10189064565E+01 0.  0.
     999903    2    3    3    0    0 -0.38067854171E-01 -0.39994960660E-01  0.11907464627E+00  0.13272014269E+00  0.19675022009E-01 0.  0.
         14    1    1    2    0    0  0.54113978058E-02  0.36039058610E-02 -0.23853438092E-01  0.24723629841E-01  0.00000000000E+00 0.  1.
     999901    1    3    3    0    0  0.32656456365E-01  0.36391054799E-01 -0.95221208178E-01  0.88648622747E+00  0.88000000000E+00 0. -1.
        -11    1    4    4    0    0 -0.76214908592E-02 -0.21173924818E-01  0.52738752892E-01  0.57341602635E-01  0.51100000000E-03 0. -1.
         11    1    4    4    0    0 -0.30446363312E-01 -0.18821035841E-01  0.66335893378E-01  0.75378540052E-01  0.51100000000E-03 0.  1.
</event>
<event>
 8    1  0.1092667E+005  0.1043930E+01  0.7957747E-01            NaN
         13   -1    0    0    0    0  0.00000000000E+00  0.00000000000E+00  0.74505805969E-08  0.10566000000E+00  0.10566000000E+00 0.  1.
     999900   -1    0    0    0    0 -0.00000000000E+00 -0.00000000000E+00 -0.74505805969E-08  0.93827000000E+00  0.93827000000E+00 0.  1.
     999902    2    1    2    0    0 -0.17819349011E-01 -0.16069675876E-01  0.47860560245E-02  0.10194622659E+01  0.10191686031E+01 0.  0.
     999903    2    3    3    0    0 -0.74913570957E-01  0.73741128547E-01 -0.73174818501E-01  0.12962878215E+00  0.19981740298E-01 0.  0.
         14    1    1    2    0    0  0.17819349011E-01  0.16069675876E-01 -0.47860560245E-02  0.24467734145E-01  0.00000000000E+00 0.  1.
     999901    1    3    3    0    0  0.57094221947E-01 -0.89810804423E-01  0.77960874526E-01  0.88983348371E+00  0.88000000000E+00 0.  1.
        -11    1    4    4    0    0 -0.29992752543E-01  0.43505703280E-01 -0.35539990681E-01  0.63684091276E-01  0.51100000000E-03 0. -1.
         11    1    4    4    0    0 -0.44920818414E-01  0.30235425266E-01 -0.37634827820E-01  0.65944690871E-01  0.51100000000E-03 0.  1.
</event>
<event>
 8    1  0.1092667E+005  0.1043930E+01  0.7957747E-01            NaN
         13   -1    0    0    0    0  0.00000000000E+00  0.00000000000E+00  0.74505805969E-08  0.10566000000E+00  0.10566000000E+00 0. -1.
     999900   -1    0    0    0    0 -0.00000000000E+00 -0.00000000000E+00 -0.74505805969E-08  0.93827000000E+00  0.93827000000E+00 0.  1.
     999902    2    1    2    0    0  0.83921234753E-02 -0.19877575113E-01 -0.95927082963E-02  0.10203171691E+01  0.10200439009E+01 0.  0.
     999903    2    3    3    0    0  0.15093244192E-02  0.12464039479E+00  0.21487431644E-01  0.12796141517E+00  0.19362540624E-01 0.  0.
         14    1    1    2    0    0 -0.83921234753E-02  0.19877575113E-01  0.95927082963E-02  0.23612830861E-01  0.00000000000E+00 0.  1.
     999901    1    3    3    0    0  0.68827990560E-02 -0.14451796990E+00 -0.31080139941E-01  0.89235575397E+00  0.88000000000E+00 0. -1.
        -11    1    4    4    0    0  0.48337513899E-02  0.47797869562E-01  0.16820903765E-01  0.50903884052E-01  0.51100000000E-03 0.  1.
         11    1    4    4    0    0 -0.33244269706E-02  0.76842525228E-01  0.46665278792E-02  0.77057531115E-01  0.51100000000E-03 0. -1.
</event>
<event>
 8    1  0.1092667E+005  0.1043930E+01  0.7957747E-01            NaN
         13   -1    0    0    0    0  0.00000000000E+00  0.00000000000E+00  0.74505805969E-08  0.10566000000E+00  0.10566000000E+00 0. -1.
     999900   -1    0    0    0    0 -0.00000000000E+00 -0.00000000000E+00 -0.74505805969E-08  0.93827000000E+00  0.93827000000E+00 0. -1.
     999902    2    1    2    0    0  0.18562604353E-01  0.14242155003E-03  0.53427512908E-02  0.10246132830E+01  0.10244311808E+01 0.  0.
     999903    2    3    3    0    0  0.30257993610E-01 -0.10165554397E+00  0.81809066521E-01  0.13537388594E+00  0.19595148211E-01 0.  0.
         14    1    1    2    0    0 -0.18562604353E-01 -0.14242155003E-03 -0.53427512908E-02  0.19316716999E-01  0.00000000000E+00 0.  1.
     999901    1    3    3    0    0 -0.11695389257E-01  0.10179796552E+00 -0.76466315230E-01  0.88923939706E+00  0.88000000000E+00 0. -1.
        -11    1    4    4    0    0  0.19509784067E-01 -0.78234515198E-01  0.70957449069E-01  0.10740806181E+00  0.51100000000E-03 0.  1.
         11    1    4    4    0    0  0.10748209543E-01 -0.23421028772E-01  0.10851617452E-01  0.27965824133E-01  0.51100000000E-03 0. -1.
</event>
<event>
 8    1  0.1092667E+005  0.1043930E+01  0.7957747E-01            NaN
         13   -1    0    0    0    0  0.00000000000E+00  0.00000000000E+00  0.74505805969E-08  0.10566000000E+00  0.10566000000E+00 0. -1.
     999900   -1    0    0    0    0 -0.00000000000E+00 -0.00000000000E+00 -0.74505805969E-08  0.93827000000E+00  0.93827000000E+00 0. -1.
     999902    2    1    2    0    0 -0.19834679402E-01  0.72357243775E-02  0.12448425382E-01  0.10194201345E+01  0.10191254472E+01 0.  0.
     999903    2    3    3    0    0 -0.90885291039E-01  0.10876065793E-02  0.94608565531E-01  0.13272047990E+00  0.20065545048E-01 0.  0.
         14    1    1    2    0    0  0.19834679402E-01 -0.72357243775E-02 -0.12448425382E-01  0.24509865539E-01  0.00000000000E+00 0. -1.
     999901    1    3    3    0    0  0.71050611637E-01  0.61481177982E-02 -0.82160140149E-01  0.88669965456E+00  0.88000000000E+00 0. -1.
        -11    1    4    4    0    0 -0.70820355219E-01  0.86657505045E-02  0.76893983721E-01  0.10489787318E+00  0.51100000000E-03 0. -1.
         11    1    4    4    0    0 -0.20064935820E-01 -0.75781439252E-02  0.17714581810E-01  0.27822606717E-01  0.51100000000E-03 0.  1.
</event>
<event>
 8    1  0.1092667E+005  0.1043930E+01  0.7957747E-01            NaN
         13   -1    0    0    0    0  0.00000000000E+00  0.00000000000E+00  0.74505805969E-08  0.10566000000E+00  0.10566000000E+00 0.  1.
     999900   -1    0    0    0    0 -0.00000000000E+00 -0.00000000000E+00 -0.74505805969E-08  0.93827000000E+00  0.93827000000E+00 0.  1.
     999902    2    1    2    0    0  0.19967493376E-01  0.73348656370E-02  0.10595793036E-01  0.10201650705E+01  0.10198882287E+01 0.  0.
     999903    2    3    3    0    0 -0.67870888348E-02  0.11571620407E+00  0.59426187191E-01  0.13176947751E+00  0.19885145708E-01 0.  0.
         14    1    1    2    0    0 -0.19967493376E-01 -0.73348656370E-02 -0.10595793036E-01  0.23764929532E-01  0.00000000000E+00 0. -1.
     999901    1    3    3    0    0  0.26754582211E-01 -0.10838133844E+00 -0.48830394155E-01  0.88839559296E+00  0.88000000000E+00 0.  1.
        -11    1    4    4    0    0  0.33045525237E-02  0.72373041196E-01  0.30001004308E-01  0.78416187996E-01  0.51100000000E-03 0.  1.
         11    1    4    4    0    0 -0.10091641359E-01  0.43343162877E-01  0.29425182882E-01  0.53353289515E-01  0.51100000000E-03 0. -1.
</event>
<event>
 8    1  0.1092667E+005  0.1043930E+01  0.7957747E-01            NaN
         13   -1    0    0    0    0  0.00000000000E+00  0.00000000000E+00  0.74505805969E-08  0.10566000000E+00  0.10566000000E+00 0. -1.
     999900   -1    0    0    0    0 -0.00000000000E+00 -0.00000000000E+00 -0.74505805969E-08  0.93827000000E+00  0.93827000000E+00 0.  1.
     999902    2    1    2    0    0  0.20878943161E-01 -0.71322182238E-02 -0.15130916559E-01  0.10171766182E+01  0.10168247288E+01 0.  0.
     999903    2    3    3    0    0  0.52533801458E-01  0.21262974990E-01  0.11199209932E+00  0.12702574430E+00  0.19529337046E-01 0.  0.
         14    1    1    2    0    0 -0.20878943161E-01  0.71322182238E-02  0.15130916559E-01  0.26753381847E-01  0.00000000000E+00 0. -1.
     999901    1    3    3    0    0 -0.31654858297E-01 -0.28395193214E-01 -0.12712301587E+00  0.89015087385E+00  0.88000000000E+00 0.  1.
        -11    1    4    4    0    0  0.64740996688E-02  0.88579873470E-02  0.12187163965E-01  0.16406279068E-01  0.51100000000E-03 0.  1.
         11    1    4    4    0    0  0.46059701790E-01  0.12404987643E-01  0.99804935351E-01  0.11061946523E+00  0.51100000000E-03 0. -1.
</event>
<event>
 8    1  0.1092667E+005  0.1043930E+01  0.7957747E-01            NaN
         13   -1    0    0    0    0  0.00000000000E+00  0.00000000000E+00  0.74505805969E-08  0.10566000000E+00  0.10566000000E+00 0.  1.
     999900   -1    0    0    0    0 -0.00000000000E+00 -0.00000000000E+00 -0.74505805969E-08  0.93827000000E+00  0.93827000000E+00 0.  1.
     999902    2    1    2    0    0 -0.93878338668E-02  0.22021105478E-01 -0.23813186455E-02  0.10198731675E+01  0.10195894010E+01 0.  0.
     999903    2    3    3    0    0 -0.90676842404E-01  0.94274858872E-01 -0.13598388426E-01  0.13310694665E+00  0.20554909782E-01 0.  0.
         14    1    1    2    0    0  0.93878338668E-02 -0.22021105478E-01  0.23813186455E-02  0.24056832494E-01  0.00000000000E+00 0.  1.
     999901    1    3    3    0    0  0.81289008537E-01 -0.72253753394E-01  0.11217069780E-01  0.88676622085E+00  0.88000000000E+00 0. -1.
        -11    1    4    4    0    0 -0.29204327770E-01  0.43872363139E-01 -0.17668311538E-02  0.52735754676E-01  0.51100000000E-03 0.  1.
         11    1    4    4    0    0 -0.61472514634E-01  0.50402495733E-01 -0.11831557272E-01  0.80371191978E-01  0.51100000000E-03 0. -1.
</event>
<event>
 8    1  0.1092667E+005  0.1043930E+01  0.7957747E-01            NaN
         13   -1    0    0    0    0  0.00000000000E+00  0.00000000000E+00  0.74505805969E-08  0.10566000000E+00  0.10566000000E+00 0. -1.
     999900   -1    0    0    0    0 -0.00000000000E+00 -0.00000000000E+00 -0.74505805969E-08  0.93827000000E+00  0.93827000000E+00 0.  1.
     999902    2    1    2    0    0 -0.22608020929E-01  0.20444238646E-02 -0.78596185402E-02  0.10199075962E+01  0.10196246510E+01 0.  0.
     999903    2    3    3    0    0 -0.11271765777E+00  0.45497680488E-01 -0.50741752633E-01  0.13320200271E+00  0.19817637668E-01 0.  0.
         14    1    1    2    0    0  0.22608020929E-01 -0.20444238646E-02  0.78596185402E-02  0.24022403769E-01  0.00000000000E+00 0.  1.
     999901    1    3    3    0    0  0.90109636838E-01 -0.43453256623E-01  0.42882134093E-01  0.88670559352E+00  0.88000000000E+00 0.  1.
        -11    1    4    4    0    0 -0.68665773446E-01  0.17777162915E-01 -0.32778149241E-01  0.78138877346E-01  0.51100000000E-03 0.  1.
         11    1    4    4    0    0 -0.44051884320E-01  0.27720517572E-01 -0.17963603392E-01  0.55063125360E-01  0.51100000000E-03 0. -1.
</event>
<event>
 8    1  0.1092667E+005  0.1043930E+01  0.7957747E-01            NaN
         13   -1    0    0    0    0  0.00000000000E+00  0.00000000000E+00  0.74505805969E-08  0.10566000000E+00  0.10566000000E+00 0. -1.
     999900   -1    0    0    0    0 -0.00000000000E+00 -0.00000000000E+00 -0.74505805969E-08  0.93827000000E+00  0.93827000000E+00 0.  1.
     999902    2    1    2    0    0 -0.23895620432E-01 -0.71298602070E-02  0.62423173976E-02  0.10182239286E+01  0.10178993892E+01 0.  0.
     999903    2    3    3    0    0 -0.10781060634E-01 -0.55209550356E-01 -0.11415588252E+00  0.12862886628E+00  0.18694758880E-01 0.  0.
         14    1    1    2    0    0  0.23895620432E-01  0.71298602070E-02 -0.62423173976E-02  0.25706071440E-01  0.00000000000E+00 0.  1.
     999901    1    3    3    0    0 -0.13114559798E-01  0.48079690149E-01  0.12039819991E+00  0.88959506228E+00  0.88000000000E+00 0. -1.
        -11    1    4    4    0    0 -0.10803124310E-01 -0.56657014996E-01 -0.11013726746E+00  0.12432700289E+00  0.51100000000E-03 0. -1.
         11    1    4    4    0    0  0.22063676175E-04  0.14474646399E-02 -0.40186150561E-02  0.43018633938E-02  0.51100000000E-03 0.  1.
</event>
<event>
 8    1  0.1200276E+005  0.1043930E+01  0.7957747E-01            NaN
         13   -1    0    0    0    0  0.00000000000E+00  0.00000000000E+00  0.74505805969E-08  0.10566000000E+00  0.10566000000E+00 0.  1.
     999900   -1    0    0    0    0 -0.00000000000E+00 -0.00000000000E+00 -0.74505805969E-08  0.93827000000E+00  0.93827000000E+00 0. -1.
     999902    2    1    2    0    0  0.11506898003E-02 -0.18368774987E-01 -0.16638072487E-01  0.10191194894E+01  0.10188174381E+01 0.  0.
     999903    2    3    3    0    0  0.11609045658E-01  0.10256077554E+00 -0.74486218222E-01  0.12890617709E+00  0.20374571576E-01 0.  0.
         14    1    1    2    0    0 -0.11506898003E-02  0.18368774987E-01  0.16638072487E-01  0.24810510628E-01  0.00000000000E+00 0.  1.
     999901    1    3    3    0    0 -0.10458355858E-01 -0.12092955053E+00  0.57848145735E-01  0.89021331228E+00  0.88000000000E+00 0. -1.
        -11    1    4    4    0    0  0.83849378965E-02  0.48818174016E-01 -0.23785772615E-01  0.54950390332E-01  0.51100000000E-03 0. -1.
         11    1    4    4    0    0  0.32241077617E-02  0.53742601523E-01 -0.50700445607E-01  0.73955786759E-01  0.51100000000E-03 0.  1.
</event>
<event>
 8    1  0.1092667E+005  0.1043930E+01  0.7957747E-01            NaN
         13   -1    0    0    0    0  0.00000000000E+00  0.00000000000E+00  0.74505805969E-08  0.10566000000E+00  0.10566000000E+00 0.  1.
     999900   -1    0    0    0    0 -0.00000000000E+00 -0.00000000000E+00 -0.74505805969E-08  0.93827000000E+00  0.93827000000E+00 0.  1.
     999902    2    1    2    0    0  0.15447241769E-01  0.17698004499E-01 -0.31084507027E-02  0.10202340276E+01  0.10199588090E+01 0.  0.
     999903    2    3    3    0    0  0.25217309500E-01  0.10933489154E-01  0.12635557368E+00  0.13068237285E+00  0.18886441913E-01 0.  0.
         14    1    1    2    0    0 -0.15447241769E-01 -0.17698004499E-01  0.31084507027E-02  0.23695972385E-01  0.00000000000E+00 0.  1.
     999901    1    3    3    0    0 -0.97700677311E-02  0.67645153454E-02 -0.12946402439E+00  0.88955165477E+00  0.88000000000E+00 0.  1.
        -11    1    4    4    0    0  0.81391043479E-02  0.12859224768E-01  0.44276738958E-01  0.46821954413E-01  0.51100000000E-03 0.  1.
         11    1    4    4    0    0  0.17078205152E-01 -0.19257356148E-02  0.82078834726E-01  0.83860418433E-01  0.51100000000E-03 0. -1.
</event>
<event>
 8    1  0.1092667E+005  0.1043930E+01  0.7957747E-01            NaN
         13   -1    0    0    0    0  0.00000000000E+00  0.00000000000E+00  0.74505805969E-08  0.10566000000E+00  0.10566000000E+00 0. -1.
     999900   -1    0    0    0    0 -0.00000000000E+00 -0.00000000000E+00 -0.74505805969E-08  0.93827000000E+00  0.93827000000E+00 0.  1.
     999902    2    1    2    0    0 -0.19964679186E-02 -0.13908254552E-01 -0.11979460117E-01  0.10254656318E+01  0.10252993851E+01 0.  0.
     999903    2    3    3    0    0  0.11973778881E+00  0.40584624743E-01  0.39699015513E-01  0.13391677278E+00  0.19324605169E-01 0.  0.
         14    1    1    2    0    0  0.19964679186E-02  0.13908254552E-01  0.11979460117E-01  0.18464368214E-01  0.00000000000E+00 0.  1.
     999901    1    3    3    0    0 -0.12173425673E+00 -0.54492879295E-01 -0.51678475629E-01  0.89154885901E+00  0.88000000000E+00 0.  1.
        -11    1    4    4    0    0  0.45364800760E-01  0.25038724607E-01  0.13548019758E-01  0.53560366301E-01  0.51100000000E-03 0. -1.
         11    1    4    4    0    0  0.74372988047E-01  0.15545900136E-01  0.26150995755E-01  0.80356406478E-01  0.51100000000E-03 0.  1.
</event>
<event>
 8    1  0.1092667E+005  0.1043930E+01  0.7957747E-01            NaN
         13   -1    0    0    0    0  0.00000000000E+00  0.00000000000E+00  0.74505805969E-08  0.10566000000E+00  0.10566000000E+00 0. -1.
     999900   -1    0    0    0    0 -0.00000000000E+00 -0.00000000000E+00 -0.74505805969E-08  0.93827000000E+00  0.93827000000E+00 0. -1.
     999902    2    1    2    0    0 -0.11929158993E-01  0.14451961413E-01 -0.12548812601E-01  0.10213770241E+01  0.10211279982E+01 0.  0.
     999903    2    3    3    0    0 -0.63323003313E-01 -0.10721226353E+00 -0.34644591198E-01  0.13124684584E+00  0.22830125809E-01 0.  0.
         14    1    1    2    0    0  0.11929158993E-01 -0.14451961413E-01  0.12548812601E-01  0.22552975871E-01  0.00000000000E+00 0. -1.
     999901    1    3    3    0    0  0.51393844321E-01  0.12166422494E+00  0.22095778597E-01  0.89013017829E+00  0.88000000000E+00 0.  1.
        -11    1    4    4    0    0 -0.34996786061E-01 -0.74090382244E-01 -0.14432498238E-01  0.83202871958E-01  0.51100000000E-03 0.  1.
         11    1    4    4    0    0 -0.28326217253E-01 -0.33121881285E-01 -0.20212092961E-01  0.48043973884E-01  0.51100000000E-03 0. -1.
</event>
<event>
 8    1  0.1092667E+005  0.1043930E+01  0.7957747E-01            NaN
         13   -1    0    0    0    0  0.00000000000E+00  0.00000000000E+00  0.74505805969E-08  0.10566000000E+00  0.10566000000E+00 0.  1.
     999900   -1    0    0    0    0 -0.00000000000E+00 -0.00000000000E+00 -0.74505805969E-08  0.93827000000E+00  0.93827000000E+00 0. -1.
     999902    2    1    2    0    0  0.73595094600E-03 -0.56051817994E-02 -0.22120462117E-01  0.10210985627E+01  0.10208432789E+01 0.  0.
     999903    2    3    3    0    0  0.56660636915E-02 -0.13011982383E+00 -0.12168548742E-01  0.13226379586E+00  0.19554162868E-01 0.  0.
         14    1    1    2    0    0 -0.73595094600E-03  0.56051817994E-02  0.22120462117E-01  0.22831437341E-01  0.00000000000E+00 0.  1.
     999901    1    3    3    0    0 -0.49301127455E-02  0.12451464203E+00 -0.99519133751E-02  0.88883476680E+00  0.88000000000E+00 0. -1.
        -11    1    4    4    0    0  0.80707567243E-02 -0.49306328067E-01 -0.12115027529E-01  0.51412898329E-01  0.51100000000E-03 0. -1.
         11    1    4    4    0    0 -0.24046930328E-02 -0.80813495763E-01 -0.53521212277E-04  0.80850897530E-01  0.51100000000E-03 0.  1.
</event>
<event>
 8    1  0.1092667E+005  0.1043930E+01  0.7957747E-01            NaN
         13   -1    0    0    0    0  0.00000000000E+00  0.00000000000E+00  0.74505805969E-08  0.10566000000E+00  0.10566000000E+00 0.  1.
     999900   -1    0    0    0    0 -0.00000000000E+00 -0.00000000000E+00 -0.74505805969E-08  0.93827000000E+00  0.93827000000E+00 0. -1.
     999902    2    1    2    0    0 -0.18119724283E-01  0.14449436567E-01  0.38601440930E-02  0.10204350785E+01  0.10201645642E+01 0.  0.
     999903    2    3    3    0    0  0.21658404992E-01 -0.88461309022E-01 -0.88727374958E-01  0.12872583785E+00  0.20082444142E-01 0.  0.
         14    1    1    2    0    0  0.18119724283E-01 -0.14449436567E-01 -0.38601440930E-02  0.23494921528E-01  0.00000000000E+00 0. -1.
     999901    1    3    3    0    0 -0.39778129275E-01  0.10291074559E+00  0.92587519051E-01  0.89170924062E+00  0.88000000000E+00 0. -1.
        -11    1    4    4    0    0  0.15678877195E-01 -0.50997834861E-01 -0.64503098238E-01  0.83710914186E-01  0.51100000000E-03 0.  1.
         11    1    4    4    0    0  0.59795277971E-02 -0.37463474161E-01 -0.24224276720E-01  0.45014923664E-01  0.51100000000E-03 0. -1.
</event>
<event>
 8    1  0.1092667E+005  0.1043930E+01  0.7957747E-01            NaN
         13   -1    0    0    0    0  0.00000000000E+00  0.00000000000E+00  0.74505805969E-08  0.10566000000E+00  0.10566000000E+00 0.  1.
     999900   -1    0    0    0    0 -0.00000000000E+00 -0.00000000000E+00 -0.74505805969E-08  0.93827000000E+00  0.93827000000E+00 0.  1.
     999902    2    1    2    0    0  0.69533350197E-02 -0.12176774814E-01  0.97160798417E-02  0.10268705475E+01  0.10267288329E+01 0.  0.
     999903    2    3    3    0    0 -0.13207439129E+00 -0.69925073841E-02 -0.21052194503E-01  0.13540979567E+00  0.20001946800E-01 0.  0.
         14    1    1    2    0    0 -0.69533350197E-02  0.12176774814E-01 -0.97160798417E-02  0.17059452519E-01  0.00000000000E+00 0. -1.
     999901    1    3    3    0    0  0.13902772631E+00 -0.51842674300E-02  0.30768274345E-01  0.89146075181E+00  0.88000000000E+00 0. -1.
        -11    1    4    4    0    0 -0.88359587646E-01 -0.13825876473E-01 -0.11897334776E-01  0.90224050480E-01  0.51100000000E-03 0.  1.
         11    1    4    4    0    0 -0.43714803645E-01  0.68333690892E-02 -0.91548597268E-02  0.45185745191E-01  0.51100000000E-03 0. -1.
</event>
<event>
 8    1  0.1092667E+005  0.1043930E+01  0.7957747E-01            NaN
         13   -1    0    0    0    0  0.00000000000E+00  0.00000000000E+00  0.74505805969E-08  0.10566000000E+00  0.10566000000E+00 0. -1.
     999900   -1    0    0    0    0 -0.00000000000E+00 -0.00000000000E+00 -0.74505805969E-08  0.93827000000E+00  0.93827000000E+00 0.  1.
     999902    2    1    2    0    0  0.26716457946E-02 -0.12518492363E-01 -0.19713791143E-01  0.10204250239E+01  0.10201542753E+01 0.  0.
     999903    2    3    3    0    0 -0.71540773900E-01 -0.50449769828E-02 -0.10984742164E+00  0.13268215116E+00  0.19863611782E-01 0.  0.
         14    1    1    2    0    0 -0.26716457946E-02  0.12518492363E-01  0.19713791143E-01  0.23504976144E-01  0.00000000000E+00 0. -1.
     999901    1    3    3    0    0  0.74212419694E-01 -0.74735153806E-02  0.90133630500E-01  0.88774287269E+00  0.88000000000E+00 0. -1.
        -11    1    4    4    0    0 -0.61053270135E-01 -0.79714673646E-02 -0.80311184404E-01  0.10119878234E+00  0.51100000000E-03 0. -1.
         11    1    4    4    0    0 -0.10487503765E-01  0.29264903819E-02 -0.29536237238E-01  0.31483368822E-01  0.51100000000E-03 0.  1.
</event>
<event>
 8    1  0.1092667E+005  0.1043930E+01  0.7957747E-01            NaN
         13   -1    0    0    0    0  0.00000000000E+00  0.00000000000E+00  0.74505805969E-08  0.10566000000E+00  0.10566000000E+00 0.  1.
     999900   -1    0    0    0    0 -0.00000000000E+00 -0.00000000000E+00 -0.74505805969E-08  0.93827000000E+00  0.93827000000E+00 0. -1.
     999902    2    1    2    0    0 -0.15196890470E-01  0.65866138479E-02  0.18863325482E-01  0.10188271314E+01  0.10185178299E+01 0.  0.
     999903    2    3    3    0    0 -0.34944634701E-01  0.10630597480E+00 -0.61751179622E-01  0.12931455548E+00  0.19671255702E-01 0.  0.
         14    1    1    2    0    0  0.15196890470E-01 -0.65866138479E-02 -0.18863325482E-01  0.25102868565E-01  0.00000000000E+00 0. -1.
     999901    1    3    3    0    0  0.19747744231E-01 -0.99719360955E-01  0.80614505104E-01  0.88951257596E+00  0.88000000000E+00 0.  1.
        -11    1    4    4    0    0 -0.13919142611E-01  0.55096449454E-01 -0.41488156934E-01  0.70362557943E-01  0.51100000000E-03 0.  1.
         11    1    4    4    0    0 -0.21025492090E-01  0.51209525348E-01 -0.20263022688E-01  0.58951997536E-01  0.51100000000E-03 0. -1.
</event>
<event>
 8    1  0.1092667E+005  0.1043930E+01  0.7957747E-01            NaN
         13   -1    0    0    0    0  0.00000000000E+00  0.00000000000E+00  0.74505805969E-08  0.10566000000E+00  0.10566000000E+00 0.  1.
     999900   -1    0    0    0    0 -0.00000000000E+00 -0.00000000000E+00 -0.74505805969E-08  0.93827000000E+00  0.93827000000E+00 0. -1.
     999902    2    1    2    0    0 -0.60111674446E-02 -0.21125444150E-01 -0.88402733151E-02  0.10202536625E+01  0.10199789051E+01 0.  0.
     999903    2    3    3    0    0  0.12604177958E+00 -0.14016578221E-02 -0.24958356274E-01  0.13003638501E+00  0.19951116109E-01 0.  0.
         14    1    1    2    0    0  0.60111674446E-02  0.21125444150E-01  0.88402733151E-02  0.23676337488E-01  0.00000000000E+00 0.  1.
     999901    1    3    3    0    0 -0.13205294703E+00 -0.19723786328E-01  0.16118082959E-01  0.89021727750E+00  0.88000000000E+00 0.  1.
        -11    1    4    4    0    0  0.77520965145E-01 -0.10025976165E-01 -0.18533748401E-01  0.80335429207E-01  0.51100000000E-03 0. -1.
         11    1    4    4    0    0  0.48520814435E-01  0.86243183429E-02 -0.64246078725E-02  0.49700955802E-01  0.51100000000E-03 0.  1.
</event>
<event>
 8    1  0.1092667E+005  0.1043930E+01  0.7957747E-01            NaN
         13   -1    0    0    0    0  0.00000000000E+00  0.00000000000E+00  0.74505805969E-08  0.10566000000E+00  0.10566000000E+00 0.  1.
     999900   -1    0    0    0    0 -0.00000000000E+00 -0.00000000000E+00 -0.74505805969E-08  0.93827000000E+00  0.93827000000E+00 0. -1.
     999902    2    1    2    0    0 -0.16207201524E-01  0.37676176018E-02 -0.18123906584E-01  0.10193262541E+01  0.10190292773E+01 0.  0.
     999903    2    3    3    0    0  0.56330828187E-01 -0.40146068258E-02 -0.11620370064E+00  0.13087705757E+00  0.20885997296E-01 0.  0.
         14    1    1    2    0    0  0.16207201524E-01 -0.37676176018E-02  0.18123906584E-01  0.24603745924E-01  0.00000000000E+00 0.  1.
     999901    1    3    3    0    0 -0.72538029712E-01  0.77822244275E-02  0.98079794057E-01  0.88844919651E+00  0.88000000000E+00 0.  1.
        -11    1    4    4    0    0  0.55722566833E-01 -0.77873387613E-02 -0.10683655726E+00  0.12074749765E+00  0.51100000000E-03 0.  1.
         11    1    4    4    0    0  0.60826135417E-03  0.37727319356E-02 -0.93671433763E-02  0.10129559920E-01  0.51100000000E-03 0. -1.
</event>
<event>
 8    1  0.1092667E+005  0.1043930E+01  0.7957747E-01            NaN
         13   -1    0    0    0    0  0.00000000000E+00  0.00000000000E+00  0.74505805969E-08  0.10566000000E+00  0.10566000000E+00 0.  1.
     999900   -1    0    0    0    0 -0.00000000000E+00 -0.00000000000E+00 -0.74505805969E-08  0.93827000000E+00  0.93827000000E+00 0. -1.
     999902    2    1    2    0    0  0.95800770854E-02  0.18476617643E-01 -0.11105353562E-01  0.10203399141E+01  0.10200671782E+01 0.  0.
     999903    2    3    3    0    0  0.25046222727E-01  0.12915452033E+00 -0.71640879594E-02  0.13326363021E+00  0.19991687979E-01 0.  0.
         14    1    1    2    0    0 -0.95800770854E-02 -0.18476617643E-01  0.11105353562E-01  0.23590085931E-01  0.00000000000E+00 0.  1.
     999901    1    3    3    0    0 -0.15466145642E-01 -0.11067790268E+00 -0.39412656027E-02  0.88707628385E+00  0.88000000000E+00 0. -1.
        -11    1    4    4    0    0  0.22727969169E-01  0.64907906904E-01 -0.30442832458E-02  0.68841308404E-01  0.51100000000E-03 0. -1.
         11    1    4    4    0    0  0.23182535588E-02  0.64246613421E-01 -0.41198047136E-02  0.64422321811E-01  0.51100000000E-03 0.  1.
</event>
<event>
 8    1  0.1092667E+005  0.1043930E+01  0.7957747E-01            NaN
         13   -1    0    0    0    0  0.00000000000E+00  0.00000000000E+00  0.74505805969E-08  0.10566000000E+00  0.10566000000E+00 0.  1.
     999900   -1    0    0    0    0 -0.00000000000E+00 -0.00000000000E+00 -0.74505805969E-08  0.93827000000E+00  0.93827000000E+00 0. -1.
     999902    2    1    2    0    0  0.18675867227E-01 -0.97990106864E-02  0.11148899288E-01  0.10200740451E+01  0.10197950534E+01 0.  0.
     999903    2    3    3    0    0 -0.70991260639E-01  0.35419313412E-01 -0.98092605599E-01  0.12765116497E+00  0.19451832704E-01 0.  0.
         14    1    1    2    0    0 -0.18675867227E-01  0.97990106864E-02 -0.11148899288E-01  0.23855954863E-01  0.00000000000E+00 0. -1.
     999901    1    3    3    0    0  0.89667127865E-01 -0.45218324098E-01  0.10924150489E+00  0.89242288017E+00  0.88000000000E+00 0.  1.
        -11    1    4    4    0    0 -0.36967012882E-01  0.11590231626E-01 -0.35637904720E-01  0.52642329778E-01  0.51100000000E-03 0. -1.
         11    1    4    4    0    0 -0.34024247756E-01  0.23829081786E-01 -0.62454700879E-01  0.75008835193E-01  0.51100000000E-03 0.  1.
</event>
<event>
 8    1  0.1092667E+005  0.1043930E+01  0.7957747E-01            NaN
         13   -1    0    0    0    0  0.00000000000E+00  0.00000000000E+00  0.74505805969E-08  0.10566000000E+00  0.10566000000E+00 0. -1.
     999900   -1    0    0    0    0 -0.00000000000E+00 -0.00000000000E+00 -0.74505805969E-08  0.93827000000E+00  0.93827000000E+00 0.  1.
     999902    2    1    2    0    0  0.20961391233E-01 -0.25014412248E-02 -0.18587409825E-01  0.10158029857E+01  0.10154135004E+01 0.  0.
     999903    2    3    3    0    0  0.55323577025E-01 -0.45231556885E-01 -0.10643097750E+00  0.12973125327E+00  0.19901085113E-01 0.  0.
         14    1    1    2    0    0 -0.20961391233E-01  0.25014412248E-02  0.18587409825E-01  0.28127014322E-01  0.00000000000E+00 0. -1.
     999901    1    3    3    0    0 -0.34362185792E-01  0.42730115660E-01  0.87843567679E-01  0.88607173241E+00  0.88000000000E+00 0. -1.
        -11    1    4    4    0    0  0.30152542879E-01 -0.36523529117E-01 -0.63765691373E-01  0.79432163124E-01  0.51100000000E-03 0. -1.
         11    1    4    4    0    0  0.25171034146E-01 -0.87080277677E-02 -0.42665286130E-01  0.50299090143E-01  0.51100000000E-03 0.  1.
</event>
<event>
 8    1  0.1092667E+005  0.1043930E+01  0.7957747E-01            NaN
         13   -1    0    0    0    0  0.00000000000E+00  0.00000000000E+00  0.74505805969E-08  0.10566000000E+00  0.10566000000E+00 0. -1.
     999900   -1    0    0    0    0 -0.00000000000E+00 -0.00000000000E+00 -0.74505805969E-08  0.93827000000E+00  0.93827000000E+00 0. -1.
     999902    2    1    2    0    0 -0.47286462757E-02 -0.85621554961E-02  0.19788174488E-01  0.10218564309E+01  0.10216179927E+01 0.  0.
     999903    2    3    3    0    0 -0.11281446043E+00 -0.40398804474E-02  0.69125732924E-01  0.13386026603E+00  0.19919356207E-01 0.  0.
         14    1    1    2    0    0  0.47286462757E-02  0.85621554961E-02 -0.19788174488E-01  0.22073569080E-01  0.00000000000E+00 0.  1.
     999901    1    3    3    0    0  0.10808581416E+00 -0.45222750488E-02 -0.49337558436E-01  0.88799616489E+00  0.88000000000E+00 0. -1.
        -11    1    4    4    0    0 -0.74640061894E-01  0.59223053778E-02  0.40626738617E-01  0.85188059916E-01  0.51100000000E-03 0.  1.
         11    1    4    4    0    0 -0.38174398539E-01 -0.99621858252E-02  0.28498994307E-01  0.48672206111E-01  0.51100000000E-03 0. -1.
</event>
<event>
 8    1  0.1092667E+005  0.1043930E+01  0.7957747E-01            NaN
         13   -1    0    0    0    0  0.00000000000E+00  0.00000000000E+00  0.74505805969E-08  0.10566000000E+00  0.10566000000E+00 0.  1.
     999900   -1    0    0    0    0 -0.00000000000E+00 -0.00000000000E+00 -0.74505805969E-08  0.93827000000E+00  0.93827000000E+00 0.  1.
     999902    2    1    2    0    0  0.20374831595E-01 -0.11697657325E-01  0.36665504410E-02  0.10201515951E+01  0.10198744356E+01 0.  0.
     999903    2    3    3    0    0 -0.71255539329E-01 -0.89788802937E-01 -0.57532953834E-01  0.12984842691E+00  0.20277874029E-01 0.  0.
         14    1    1    2    0    0 -0.20374831595E-01  0.11697657325E-01 -0.36665504410E-02  0.23778404942E-01  0.00000000000E+00 0.  1.
     999901    1    3    3    0    0  0.91630370925E-01  0.78091145612E-01  0.61199504275E-01  0.89030316815E+00  0.88000000000E+00 0. -1.
        -11    1    4    4    0    0 -0.34604973834E-01 -0.59089406311E-01 -0.36725021545E-01  0.77704893544E-01  0.51100000000E-03 0. -1.
         11    1    4    4    0    0 -0.36650565495E-01 -0.30699396626E-01 -0.20807932289E-01  0.52143533362E-01  0.51100000000E-03 0.  1.
</event>
<event>
 8    1  0.1092667E+005  0.1043930E+01  0.7957747E-01            NaN
         13   -1    0    0    0    0  0.00000000000E+00  0.00000000000E+00  0.74505805969E-08  0.10566000000E+00  0.10566000000E+00 0. -1.
     999900   -1    0    0    0    0 -0.00000000000E+00 -0.00000000000E+00 -0.74505805969E-08  0.93827000000E+00  0.93827000000E+00 0.  1.
     999902    2    1    2    0    0  0.11891761482E-01 -0.24246283814E-01 -0.60788017705E-02  0.10162488132E+01  0.10158717450E+01 0.  0.
     999903    2    3    3    0    0 -0.59580700619E-01  0.89623824161E-01 -0.58989851971E-01  0.12446728530E+00  0.20736748313E-01 0.  0.
         14    1    1    2    0    0 -0.11891761482E-01  0.24246283814E-01  0.60788017705E-02  0.27681186768E-01  0.00000000000E+00 0. -1.
     999901    1    3    3    0    0  0.71472462101E-01 -0.11387010797E+00  0.52911050201E-01  0.89178152793E+00  0.88000000000E+00 0. -1.
        -11    1    4    4    0    0 -0.14276665450E-01  0.30745395354E-01 -0.28001255690E-01  0.43970830706E-01  0.51100000000E-03 0. -1.
         11    1    4    4    0    0 -0.45304035170E-01  0.58878428807E-01 -0.30988596282E-01  0.80496454592E-01  0.51100000000E-03 0.  1.
</event>
<event>
 8    1  0.1092667E+005  0.1043930E+01  0.7957747E-01            NaN
         13   -1    0    0    0    0  0.00000000000E+00  0.00000000000E+00  0.74505805969E-08  0.10566000000E+00  0.10566000000E+00 0.  1.
     999900   -1    0    0    0    0 -0.00000000000E+00 -0.00000000000E+00 -0.74505805969E-08  0.93827000000E+00  0.93827000000E+00 0.  1.
     999902    2    1    2    0    0  0.11063191288E-01 -0.26872323905E-01  0.11556618831E-01  0.10126558664E+01  0.10121728273E+01 0.  0.
     999903    2    3    3    0    0  0.11915889289E+00  0.10260218770E-02  0.32740261090E-01  0.12534997490E+00  0.20995166936E-01 0.  0.
         14    1    1    2    0    0 -0.11063191288E-01  0.26872323905E-01 -0.11556618831E-01  0.31274133599E-01  0.00000000000E+00 0.  1.
     999901    1    3    3    0    0 -0.10809570160E+00 -0.27898345782E-01 -0.21183642259E-01  0.88730589151E+00  0.88000000000E+00 0. -1.
        -11    1    4    4    0    0  0.34972777922E-01 -0.17911602914E-02  0.19487531792E-01  0.40079027772E-01  0.51100000000E-03 0.  1.
         11    1    4    4    0    0  0.84186114966E-01  0.28171821684E-02  0.13252729298E-01  0.85270947124E-01  0.51100000000E-03 0. -1.
</event>
<event>
 8    1  0.1092667E+005  0.1043930E+01  0.7957747E-01            NaN
         13   -1    0    0    0    0  0.00000000000E+00  0.00000000000E+00  0.74505805969E-08  0.10566000000E+00  0.10566000000E+00 0.  1.
     999900   -1    0    0    0    0 -0.00000000000E+00 -0.00000000000E+00 -0.74505805969E-08  0.93827000000E+00  0.93827000000E+00 0.  1.
     999902    2    1    2    0    0 -0.61283340024E-02 -0.18341070625E-01 -0.92659523047E-02  0.10224868374E+01  0.10222619642E+01 0.  0.
     999903    2    3    3    0    0  0.83051868502E-01 -0.15389439395E-01 -0.10126298436E+00  0.13320326366E+00  0.18827366881E-01 0.  0.
         14    1    1    2    0    0  0.61283340024E-02  0.18341070625E-01  0.92659523047E-02  0.21443162580E-01  0.00000000000E+00 0.  1.
     999901    1    3    3    0    0 -0.89180202505E-01 -0.29516312296E-02  0.91997032050E-01  0.88928357376E+00  0.88000000000E+00 0. -1.
        -11    1    4    4    0    0  0.43770081831E-01 -0.17307205458E-01 -0.58873015595E-01  0.75376737197E-01  0.51100000000E-03 0.  1.
         11    1    4    4    0    0  0.39281786671E-01  0.19177660627E-02 -0.42389968761E-01  0.57826526467E-01  0.51100000000E-03 0. -1.
</event>
<event>
 8    1  0.1092667E+005  0.1043930E+01  0.7957747E-01            NaN
         13   -1    0    0    0    0  0.00000000000E+00  0.00000000000E+00  0.74505805969E-08  0.10566000000E+00  0.10566000000E+00 0.  1.
     999900   -1    0    0    0    0 -0.00000000000E+00 -0.00000000000E+00 -0.74505805969E-08  0.93827000000E+00  0.93827000000E+00 0. -1.
     999902    2    1    2    0    0  0.21756312278E-01  0.11113966606E-01 -0.73923368634E-02  0.10184054232E+01  0.10180855082E+01 0.  0.
     999903    2    3    3    0    0  0.96316319483E-01  0.86164973235E-01  0.12181087553E-01  0.13185313075E+00  0.23143750398E-01 0.  0.
         14    1    1    2    0    0 -0.21756312278E-01 -0.11113966606E-01  0.73923368634E-02  0.25524576822E-01  0.00000000000E+00 0.  1.
     999901    1    3    3    0    0 -0.74560007206E-01 -0.75051006630E-01 -0.19573424416E-01  0.88655229243E+00  0.88000000000E+00 0. -1.
        -11    1    4    4    0    0  0.78740785035E-01  0.79316540702E-01  0.15023958304E-01  0.11277058704E+00  0.51100000000E-03 0. -1.
         11    1    4    4    0    0  0.17575534448E-01  0.68484325333E-02 -0.28428707506E-02  0.19082543709E-01  0.51100000000E-03 0.  1.
</event>
<event>
 8    1  0.1092667E+005  0.1043930E+01  0.7957747E-01            NaN
         13   -1    0    0    0    0  0.00000000000E+00  0.00000000000E+00  0.74505805969E-08  0.10566000000E+00  0.10566000000E+00 0.  1.
     999900   -1    0    0    0    0 -0.00000000000E+00 -0.00000000000E+00 -0.74505805969E-08  0.93827000000E+00  0.93827000000E+00 0. -1.
     999902    2    1    2    0    0 -0.16393910487E-01 -0.10595140158E-01 -0.13462693700E-01  0.10202179478E+01  0.10199423512E+01 0.  0.
     999903    2    3    3    0    0 -0.20395508746E-01 -0.11782489283E+00  0.49705898448E-01  0.13145222861E+00  0.22590482909E-01 0.  0.
         14    1    1    2    0    0  0.16393910487E-01  0.10595140158E-01  0.13462693700E-01  0.23712052162E-01  0.00000000000E+00 0.  1.
     999901    1    3    3    0    0  0.40015982581E-02  0.10722975267E+00 -0.63168592149E-01  0.88876571923E+00  0.88000000000E+00 0.  1.
        -11    1    4    4    0    0 -0.22264252549E-01 -0.65892224312E-01  0.25006844825E-01  0.73912688866E-01  0.51100000000E-03 0.  1.
         11    1    4    4    0    0  0.18687438030E-02 -0.51932668517E-01  0.24699053624E-01  0.57539539741E-01  0.51100000000E-03 0. -1.
</event>
<event>
 8    1  0.1092667E+005  0.1043930E+01  0.7957747E-01            NaN
         13   -1    0    0    0    0  0.00000000000E+00  0.00000000000E+00  0.74505805969E-08  0.10566000000E+00  0.10566000000E+00 0.  1.
     999900   -1    0    0    0    0 -0.00000000000E+00 -0.00000000000E+00 -0.74505805969E-08  0.93827000000E+00  0.93827000000E+00 0. -1.
     999902    2    1    2    0    0 -0.11860797817E-01 -0.21274128999E-01 -0.11790133736E-02  0.10195444067E+01  0.10192527361E+01 0.  0.
     999903    2    3    3    0    0  0.83669062573E-01  0.24207708127E-01  0.91989205992E-01  0.12832340780E+00  0.20453796829E-01 0.  0.
         14    1    1    2    0    0  0.11860797817E-01  0.21274128999E-01  0.11790133736E-02  0.24385593330E-01  0.00000000000E+00 0.  1.
     999901    1    3    3    0    0 -0.95529860390E-01 -0.45481837126E-01 -0.93168219365E-01  0.89122099887E+00  0.88000000000E+00 0. -1.
        -11    1    4    4    0    0  0.38711337472E-01  0.53843859063E-02  0.28962551787E-01  0.48648224916E-01  0.51100000000E-03 0.  1.
         11    1    4    4    0    0  0.44957725101E-01  0.18823322221E-01  0.63026654204E-01  0.79675182879E-01  0.51100000000E-03 0. -1.
</event>
<event>
 8    1  0.1092667E+005  0.1043930E+01  0.7957747E-01            NaN
         13   -1    0    0    0    0  0.00000000000E+00  0.00000000000E+00  0.74505805969E-08  0.10566000000E+00  0.10566000000E+00 0.  1.
     999900   -1    0    0    0    0 -0.00000000000E+00 -0.00000000000E+00 -0.74505805969E-08  0.93827000000E+00  0.93827000000E+00 0. -1.
     999902    2    1    2    0    0  0.19746825506E-01  0.63942221460E-02  0.10049479035E-01  0.10208688807E+01  0.10206083756E+01 0.  0.
     999903    2    3    3    0    0  0.56207553163E-02  0.47743868916E-01  0.12213308711E+00  0.13268417336E+00  0.19430105117E-01 0.  0.
         14    1    1    2    0    0 -0.19746825506E-01 -0.63942221460E-02 -0.10049479035E-01  0.23061119299E-01  0.00000000000E+00 0.  1.
     999901    1    3    3    0    0  0.14126070190E-01 -0.41349646770E-01 -0.11208360808E+00  0.88818470734E+00  0.88000000000E+00 0. -1.
        -11    1    4    4    0    0  0.77578197081E-02  0.19982243227E-01  0.74331055729E-01  0.77361752681E-01  0.51100000000E-03 0.  1.
         11    1    4    4    0    0 -0.21370643918E-02  0.27761625690E-01  0.47802031381E-01  0.55322420684E-01  0.51100000000E-03 0. -1.
</event>
<event>
 8    1  0.1092667E+005  0.1043930E+01  0.7957747E-01            NaN
         13   -1    0    0    0    0  0.00000000000E+00  0.00000000000E+00  0.74505805969E-08  0.10566000000E+00  0.10566000000E+00 0.  1.
     999900   -1    0    0    0    0 -0.00000000000E+00 -0.00000000000E+00 -0.74505805969E-08  0.93827000000E+00  0.93827000000E+00 0. -1.
     999902    2    1    2    0    0 -0.15147677527E-01 -0.82507930685E-03  0.17660236555E-01  0.10206487448E+01  0.10203831846E+01 0.  0.
     999903    2    3    3    0    0 -0.58890407667E-01 -0.94917975187E-01  0.69909529073E-01  0.13301318437E+00  0.18101459425E-01 0.  0.
         14    1    1    2    0    0  0.15147677527E-01  0.82507930685E-03 -0.17660236555E-01  0.23281255239E-01  0.00000000000E+00 0. -1.
     999901    1    3    3    0    0  0.43742730140E-01  0.94092895880E-01 -0.52249292518E-01  0.88763556039E+00  0.88000000000E+00 0. -1.
        -11    1    4    4    0    0 -0.27974189175E-01 -0.56989474934E-01  0.31902019806E-01  0.71051780428E-01  0.51100000000E-03 0. -1.
         11    1    4    4    0    0 -0.30916218492E-01 -0.37928500252E-01  0.38007509267E-01  0.61961403946E-01  0.51100000000E-03 0.  1.
</event>
<event>
 8    1  0.1092667E+005  0.1043930E+01  0.7957747E-01            NaN
         13   -1    0    0    0    0  0.00000000000E+00  0.00000000000E+00  0.74505805969E-08  0.10566000000E+00  0.10566000000E+00 0. -1.
     999900   -1    0    0    0    0 -0.00000000000E+00 -0.00000000000E+00 -0.74505805969E-08  0.93827000000E+00  0.93827000000E+00 0.  1.
     999902    2    1    2    0    0  0.15401660186E-01 -0.10581149186E-01  0.14181704923E-01  0.10204716836E+01  0.10202020214E+01 0.  0.
     999903    2    3    3    0    0  0.37980786954E-01 -0.99121735971E-01  0.78553859791E-01  0.13340177270E+00  0.18912042500E-01 0.  0.
         14    1    1    2    0    0 -0.15401660186E-01  0.10581149186E-01 -0.14181704923E-01  0.23458316417E-01  0.00000000000E+00 0.  1.
     999901    1    3    3    0    0 -0.22579126767E-01  0.88540586785E-01 -0.64372154868E-01  0.88706991088E+00  0.88000000000E+00 0.  1.
        -11    1    4    4    0    0  0.25315617187E-01 -0.40056441279E-01  0.35881842688E-01  0.59440446812E-01  0.51100000000E-03 0. -1.
         11    1    4    4    0    0  0.12665169766E-01 -0.59065294692E-01  0.42672017103E-01  0.73961325887E-01  0.51100000000E-03 0.  1.
</event>
<event>
 8    1  0.1092667E+005  0.1043930E+01  0.7957747E-01            NaN
         13   -1    0    0    0    0  0.00000000000E+00  0.00000000000E+00  0.74505805969E-08  0.10566000000E+00  0.10566000000E+00 0.  1.
     999900   -1    0    0    0    0 -0.00000000000E+00 -0.00000000000E+00 -0.74505805969E-08  0.93827000000E+00  0.93827000000E+00 0.  1.
     999902    2    1    2    0    0  0.20088914345E-01 -0.11803037952E-01 -0.32206637456E-02  0.10204087573E+01  0.10201376295E+01 0.  0.
     999903    2    3    3    0    0 -0.91284246302E-01 -0.90594581492E-01 -0.83526505786E-02  0.12988170797E+00  0.16102778508E-01 0.  0.
         14    1    1    2    0    0 -0.20088914345E-01  0.11803037952E-01  0.32206637456E-02  0.23521242727E-01  0.00000000000E+00 0. -1.
     999901    1    3    3    0    0  0.11137316065E+00  0.78791543540E-01  0.51319868330E-02  0.89052704930E+00  0.88000000000E+00 0.  1.
        -11    1    4    4    0    0 -0.62852445898E-01 -0.57424126455E-01  0.12595146086E-02  0.85145802906E-01  0.51100000000E-03 0.  1.
         11    1    4    4    0    0 -0.28431800404E-01 -0.33170455037E-01 -0.96121651872E-02  0.44735905067E-01  0.51100000000E-03 0. -1.
</event>
<event>
 8    1  0.1092667E+005  0.1043930E+01  0.7957747E-01            NaN
         13   -1    0    0    0    0  0.00000000000E+00  0.00000000000E+00  0.74505805969E-08  0.10566000000E+00  0.10566000000E+00 0. -1.
     999900   -1    0    0    0    0 -0.00000000000E+00 -0.00000000000E+00 -0.74505805969E-08  0.93827000000E+00  0.93827000000E+00 0.  1.
     999902    2    1    2    0    0 -0.20592672561E-01 -0.66553430420E-03 -0.11305555153E-01  0.10204285814E+01  0.10201579157E+01 0.  0.
     999903    2    3    3    0    0 -0.12565837314E+00  0.37224512610E-01  0.10437171030E-01  0.13310270933E+00  0.20777526630E-01 0.  0.
         14    1    1    2    0    0  0.20592672561E-01  0.66553430420E-03  0.11305555153E-01  0.23501418604E-01  0.00000000000E+00 0. -1.
     999901    1    3    3    0    0  0.10506570058E+00 -0.37890046914E-01 -0.21742726182E-01  0.88732587206E+00  0.88000000000E+00 0.  1.
        -11    1    4    4    0    0 -0.11947286115E+00  0.30998227600E-01  0.12534499794E-01  0.12406461813E+00  0.51100000000E-03 0.  1.
         11    1    4    4    0    0 -0.61855119894E-02  0.62262850101E-02 -0.20973287638E-02  0.90380912001E-02  0.51100000000E-03 0. -1.
</event>
<event>
 8    1  0.1092667E+005  0.1043930E+01  0.7957747E-01            NaN
         13   -1    0    0    0    0  0.00000000000E+00  0.00000000000E+00  0.74505805969E-08  0.10566000000E+00  0.10566000000E+00 0. -1.
     999900   -1    0    0    0    0 -0.00000000000E+00 -0.00000000000E+00 -0.74505805969E-08  0.93827000000E+00  0.93827000000E+00 0.  1.
     999902    2    1    2    0    0 -0.12533623659E-01  0.14128993726E-01 -0.15781204764E-01  0.10193176736E+01  0.10190204871E+01 0.  0.
     999903    2    3    3    0    0  0.53348819367E-02  0.12960426125E+00 -0.90086394738E-02  0.13156788425E+00  0.20080514945E-01 0.  0.
         14    1    1    2    0    0  0.12533623659E-01 -0.14128993726E-01  0.15781204764E-01  0.24612326374E-01  0.00000000000E+00 0.  1.
     999901    1    3    3    0    0 -0.17868505595E-01 -0.11547526752E+00 -0.67725652906E-02  0.88774978938E+00  0.88000000000E+00 0. -1.
        -11    1    4    4    0    0 -0.45311480209E-02  0.83661231518E-02  0.61422368398E-03  0.95478641964E-02  0.51100000000E-03 0. -1.
         11    1    4    4    0    0  0.98660299576E-02  0.12123813810E+00 -0.96228631578E-02  0.12202002005E+00  0.51100000000E-03 0.  1.
</event>
<event>
 8    1  0.1092667E+005  0.1043930E+01  0.7957747E-01            NaN
         13   -1    0    0    0    0  0.00000000000E+00  0.00000000000E+00  0.74505805969E-08  0.10566000000E+00  0.10566000000E+00 0. -1.
     999900   -1    0    0    0    0 -0.00000000000E+00 -0.00000000000E+00 -0.74505805969E-08  0.93827000000E+00  0.93827000000E+00 0.  1.
     999902    2    1    2    0    0 -0.33571474373E-02 -0.23302128673E-01  0.65006949223E-05  0.10203872796E+01  0.10201156507E+01 0.  0.
     999903    2    3    3    0    0  0.28228208221E-01 -0.98864364628E-01  0.81688461709E-01  0.13281799843E+00  0.19915360860E-01 0.  0.
         14    1    1    2    0    0  0.33571474373E-02  0.23302128673E-01 -0.65006949223E-05  0.23542720358E-01  0.00000000000E+00 0.  1.
     999901    1    3    3    0    0 -0.31585355658E-01  0.75562235955E-01 -0.81681961014E-01  0.88756928121E+00  0.88000000000E+00 0.  1.
        -11    1    4    4    0    0 -0.12734027191E-03 -0.22027858175E-01  0.24346231007E-01  0.32836608177E-01  0.51100000000E-03 0. -1.
         11    1    4    4    0    0  0.28355548493E-01 -0.76836506453E-01  0.57342230701E-01  0.99981390254E-01  0.51100000000E-03 0.  1.
</event>
<event>
 8    1  0.1092667E+005  0.1043930E+01  0.7957747E-01            NaN
         13   -1    0    0    0    0  0.00000000000E+00  0.00000000000E+00  0.74505805969E-08  0.10566000000E+00  0.10566000000E+00 0. -1.
     999900   -1    0    0    0    0 -0.00000000000E+00 -0.00000000000E+00 -0.74505805969E-08  0.93827000000E+00  0.93827000000E+00 0.  1.
     999902    2    1    2    0    0 -0.16522026591E-01  0.17922072369E-01 -0.95853085587E-03  0.10195353936E+01  0.10192435047E+01 0.  0.
     999903    2    3    3    0    0  0.51314142945E-01  0.82513734162E-01 -0.84908970809E-01  0.13059135427E+00  0.20072640439E-01 0.  0.
         14    1    1    2    0    0  0.16522026591E-01 -0.17922072369E-01  0.95853085587E-03  0.24394606414E-01  0.00000000000E+00 0.  1.
     999901    1    3    3    0    0 -0.67836169537E-01 -0.64591661793E-01  0.83950439953E-01  0.88894403932E+00  0.88000000000E+00 0. -1.
        -11    1    4    4    0    0  0.35841664353E-01  0.39013710865E-01 -0.47749646378E-01  0.71323098567E-01  0.51100000000E-03 0. -1.
         11    1    4    4    0    0  0.15472478592E-01  0.43500023297E-01 -0.37159324431E-01  0.59268255701E-01  0.51100000000E-03 0.  1.
</event>
<event>
 8    1  0.1092667E+005  0.1043930E+01  0.7957747E-01            NaN
         13   -1    0    0    0    0  0.00000000000E+00  0.00000000000E+00  0.74505805969E-08  0.10566000000E+00  0.10566000000E+00 0. -1.
     999900   -1    0    0    0    0 -0.00000000000E+00 -0.00000000000E+00 -0.74505805969E-08  0.93827000000E+00  0.93827000000E+00 0. -1.
     999902    2    1    2    0    0  0.33678214765E-02  0.13749054942E-01 -0.14910124387E-01  0.10233705607E+01  0.10231640211E+01 0.  0.
     999903    2    3    3    0    0  0.22633386038E-01 -0.79011349026E-01  0.99926337153E-01  0.13086674147E+00  0.19640970629E-01 0.  0.
         14    1    1    2    0    0 -0.33678214765E-02 -0.13749054942E-01  0.14910124387E-01  0.20559439256E-01  0.00000000000E+00 0.  1.
     999901    1    3    3    0    0 -0.19265564561E-01  0.92760403968E-01 -0.11483646154E+00  0.89250381928E+00  0.88000000000E+00 0. -1.
        -11    1    4    4    0    0  0.14187690546E-01 -0.67072810190E-01  0.72510186446E-01  0.99789982911E-01  0.51100000000E-03 0.  1.
         11    1    4    4    0    0  0.84456954912E-02 -0.11938538836E-01  0.27416150707E-01  0.31076758558E-01  0.51100000000E-03 0. -1.
</event>
<event>
 8    1  0.1092667E+005  0.1043930E+01  0.7957747E-01            NaN
         13   -1    0    0    0    0  0.00000000000E+00  0.00000000000E+00  0.74505805969E-08  0.10566000000E+00  0.10566000000E+00 0.  1.
     999900   -1    0    0    0    0 -0.00000000000E+00 -0.00000000000E+00 -0.74505805969E-08  0.93827000000E+00  0.93827000000E+00 0. -1.
     999902    2    1    2    0    0  0.10759158465E-01 -0.16536309178E-01  0.98209242082E-02  0.10218923149E+01  0.10216546597E+01 0.  0.
     999903    2    3    3    0    0 -0.49828691326E-01  0.10972938115E+00  0.44528430209E-01  0.13014205666E+00  0.20754234486E-01 0.  0.
         14    1    1    2    0    0 -0.10759158465E-01  0.16536309178E-01 -0.98209242082E-02  0.22037685097E-01  0.00000000000E+00 0. -1.
     999901    1    3    3    0    0  0.60587849791E-01 -0.12626569033E+00 -0.34707506001E-01  0.89175025824E+00  0.88000000000E+00 0.  1.
        -11    1    4    4    0    0 -0.51374511056E-02  0.47102243111E-02  0.72606282642E-02  0.10077572164E-01  0.51100000000E-03 0. -1.
         11    1    4    4    0    0 -0.44691240220E-01  0.10501915684E+00  0.37267801945E-01  0.12006448450E+00  0.51100000000E-03 0.  1.
</event>
<event>
 8    1  0.1092667E+005  0.1043930E+01  0.7957747E-01            NaN
         13   -1    0    0    0    0  0.00000000000E+00  0.00000000000E+00  0.74505805969E-08  0.10566000000E+00  0.10566000000E+00 0. -1.
     999900   -1    0    0    0    0 -0.00000000000E+00 -0.00000000000E+00 -0.74505805969E-08  0.93827000000E+00  0.93827000000E+00 0. -1.
     999902    2    1    2    0    0 -0.14874914995E-01 -0.13902471274E-01 -0.12338425203E-01  0.10201228889E+01  0.10198450519E+01 0.  0.
     999903    2    3    3    0    0 -0.61633748778E-02  0.10537508338E+00  0.70400439099E-01  0.12818749568E+00  0.18273391475E-01 0.  0.
         14    1    1    2    0    0  0.14874914995E-01  0.13902471274E-01  0.12338425203E-01  0.23807111125E-01  0.00000000000E+00 0. -1.
     999901    1    3    3    0    0 -0.87115401168E-02 -0.11927755465E+00 -0.82738864302E-01  0.89193539320E+00  0.88000000000E+00 0.  1.
        -11    1    4    4    0    0  0.29671520280E-02  0.77171283602E-01  0.46910156026E-01  0.90360582465E-01  0.51100000000E-03 0.  1.
         11    1    4    4    0    0 -0.91305269059E-02  0.28203799774E-01  0.23490283073E-01  0.37826913212E-01  0.51100000000E-03 0. -1.
</event>
<event>
 8    1  0.1092667E+005  0.1043930E+01  0.7957747E-01            NaN
         13   -1    0    0    0    0  0.00000000000E+00  0.00000000000E+00  0.74505805969E-08  0.10566000000E+00  0.10566000000E+00 0.  1.
     999900   -1    0    0    0    0 -0.00000000000E+00 -0.00000000000E+00 -0.74505805969E-08  0.93827000000E+00  0.93827000000E+00 0.  1.
     999902    2    1    2    0    0  0.18941899115E-01  0.50355000849E-02  0.11062538878E-01  0.10214237438E+01  0.10211757600E+01 0.  0.
     999903    2    3    3    0    0 -0.16518774572E-01 -0.58431772259E-01  0.11557692815E+00  0.13226188471E+00  0.21166905882E-01 0.  0.
         14    1    1    2    0    0 -0.18941899115E-01 -0.50355000849E-02 -0.11062538878E-01  0.22506256233E-01  0.00000000000E+00 0. -1.
     999901    1    3    3    0    0  0.35460673687E-01  0.63467272344E-01 -0.10451438927E+00  0.88916185906E+00  0.88000000000E+00 0.  1.
        -11    1    4    4    0    0  0.25952681442E-02 -0.27819105707E-01  0.44521381243E-01  0.52564746435E-01  0.51100000000E-03 0.  1.
         11    1    4    4    0    0 -0.19114042716E-01 -0.30612666552E-01  0.71055546904E-01  0.79697138275E-01  0.51100000000E-03 0. -1.
</event>
<event>
 8    1  0.1092667E+005  0.1043930E+01  0.7957747E-01            NaN
         13   -1    0    0    0    0  0.00000000000E+00  0.00000000000E+00  0.74505805969E-08  0.10566000000E+00  0.10566000000E+00 0.  1.
     999900   -1    0    0    0    0 -0.00000000000E+00 -0.00000000000E+00 -0.74505805969E-08  0.93827000000E+00  0.93827000000E+00 0. -1.
     999902    2    1    2    0    0  0.18420744216E-01 -0.16769900515E-01  0.56321721520E-02  0.10183903300E+01  0.10180700317E+01 0.  0.
     999903    2    3    3    0    0  0.10951446163E+00  0.59317570045E-01  0.31556063783E-01  0.13004387918E+00  0.20090642809E-01 0.  0.
         14    1    1    2    0    0 -0.18420744216E-01  0.16769900515E-01 -0.56321721520E-02  0.25539670004E-01  0.00000000000E+00 0. -1.
     999901    1    3    3    0    0 -0.91093717410E-01 -0.76087470560E-01 -0.25923891631E-01  0.88834645082E+00  0.88000000000E+00 0. -1.
        -11    1    4    4    0    0  0.28446034531E-01  0.23082411942E-01  0.29701686890E-02  0.36756736044E-01  0.51100000000E-03 0. -1.
         11    1    4    4    0    0  0.81068427095E-01  0.36235158103E-01  0.28585895094E-01  0.93287143132E-01  0.51100000000E-03 0.  1.
</event>
<event>
 8    1  0.1092667E+005  0.1043930E+01  0.7957747E-01            NaN
         13   -1    0    0    0    0  0.00000000000E+00  0.00000000000E+00  0.74505805969E-08  0.10566000000E+00  0.10566000000E+00 0.  1.
     999900   -1    0    0    0    0 -0.00000000000E+00 -0.00000000000E+00 -0.74505805969E-08  0.93827000000E+00  0.93827000000E+00 0.  1.
     999902    2    1    2    0    0 -0.97631478547E-02 -0.16413041330E-01 -0.13484218239E-01  0.10205519949E+01  0.10202841972E+01 0.  0.
     999903    2    3    3    0    0 -0.10261127404E+00  0.29993056063E-01  0.71824871661E-01  0.13035429705E+00  0.20118985973E-01 0.  0.
         14    1    1    2    0    0  0.97631478547E-02  0.16413041330E-01  0.13484218239E-01  0.23378005117E-01  0.00000000000E+00 0. -1.
     999901    1    3    3    0    0  0.92848126190E-01 -0.46406097393E-01 -0.85309089899E-01  0.89019769784E+00  0.88000000000E+00 0.  1.
        -11    1    4    4    0    0 -0.26488284471E-01  0.12359507514E-01  0.29308714064E-01  0.41396237525E-01  0.51100000000E-03 0. -1.
         11    1    4    4    0    0 -0.76122989574E-01  0.17633548549E-01  0.42516157597E-01  0.88958059522E-01  0.51100000000E-03 0.  1.
</event>
<event>
 8    1  0.1092667E+005  0.1043930E+01  0.7957747E-01            NaN
         13   -1    0    0    0    0  0.00000000000E+00  0.00000000000E+00  0.74505805969E-08  0.10566000000E+00  0.10566000000E+00 0.  1.
     999900   -1    0    0    0    0 -0.00000000000E+00 -0.00000000000E+00 -0.74505805969E-08  0.93827000000E+00  0.93827000000E+00 0. -1.
     999902    2    1    2    0    0  0.22435771795E-01  0.41224338591E-02 -0.88774909043E-02  0.10194520883E+01  0.10191581782E+01 0.  0.
     999903    2    3    3    0    0  0.77369910308E-01 -0.75431213576E-01  0.70578670098E-01  0.13059899361E+00  0.19969413040E-01 0.  0.
         14    1    1    2    0    0 -0.22435771795E-01 -0.41224338591E-02  0.88774909043E-02  0.24477911711E-01  0.00000000000E+00 0.  1.
     999901    1    3    3    0    0 -0.54934138513E-01  0.79553647435E-01 -0.79456161002E-01  0.88885309468E+00  0.88000000000E+00 0. -1.
        -11    1    4    4    0    0  0.41242247358E-01 -0.35636060735E-01  0.46722885683E-01  0.71792346106E-01  0.51100000000E-03 0. -1.
         11    1    4    4    0    0  0.36127662951E-01 -0.39795152841E-01  0.23855784414E-01  0.58806647507E-01  0.51100000000E-03 0.  1.
</event>
<event>
 8    1  0.1092667E+005  0.1043930E+01  0.7957747E-01            NaN
         13   -1    0    0    0    0  0.00000000000E+00  0.00000000000E+00  0.74505805969E-08  0.10566000000E+00  0.10566000000E+00 0. -1.
     999900   -1    0    0    0    0 -0.00000000000E+00 -0.00000000000E+00 -0.74505805969E-08  0.93827000000E+00  0.93827000000E+00 0.  1.
     999902    2    1    2    0    0  0.10167812088E-01 -0.17554439667E-01 -0.11438488720E-01  0.10206409086E+01  0.10203751675E+01 0.  0.
     999903    2    3    3    0    0 -0.10993008904E+00 -0.59116158732E-01  0.32182198514E-01  0.13044225283E+00  0.20003567785E-01 0.  0.
         14    1    1    2    0    0 -0.10167812088E-01  0.17554439667E-01  0.11438488720E-01  0.23289091414E-01  0.00000000000E+00 0. -1.
     999901    1    3    3    0    0  0.12009790113E+00  0.41561719065E-01 -0.43620687234E-01  0.89019865575E+00  0.88000000000E+00 0.  1.
        -11    1    4    4    0    0 -0.26453937564E-01 -0.11739121840E-01  0.16090662219E-01  0.33117794700E-01  0.51100000000E-03 0. -1.
         11    1    4    4    0    0 -0.83476151475E-01 -0.47377036892E-01  0.16091536296E-01  0.97324458134E-01  0.51100000000E-03 0.  1.
</event>
<event>
 8    1  0.1092667E+005  0.1043930E+01  0.7957747E-01            NaN
         13   -1    0    0    0    0  0.00000000000E+00  0.00000000000E+00  0.74505805969E-08  0.10566000000E+00  0.10566000000E+00 0. -1.
     999900   -1    0    0    0    0 -0.00000000000E+00 -0.00000000000E+00 -0.74505805969E-08  0.93827000000E+00  0.93827000000E+00 0. -1.
     999902    2    1    2    0    0  0.45291523795E-02 -0.24015761509E-01 -0.35010226738E-02  0.10192413957E+01  0.10189423416E+01 0.  0.
     999903    2    3    3    0    0 -0.84504382178E-01 -0.38089372562E-01  0.88394817905E-01  0.12987651990E+00  0.21505247721E-01 0.  0.
         14    1    1    2    0    0 -0.45291523795E-02  0.24015761509E-01  0.35010226738E-02  0.24688604292E-01  0.00000000000E+00 0.  1.
     999901    1    3    3    0    0  0.89033534557E-01  0.14073611053E-01 -0.91895840579E-01  0.88936487581E+00  0.88000000000E+00 0. -1.
        -11    1    4    4    0    0 -0.74500993976E-01 -0.32012305675E-01  0.65809836349E-01  0.10443362246E+00  0.51100000000E-03 0. -1.
         11    1    4    4    0    0 -0.10003388202E-01 -0.60770668872E-02  0.22584981556E-01  0.25442897444E-01  0.51100000000E-03 0.  1.
</event>
<event>
 8    1  0.1092667E+005  0.1043930E+01  0.7957747E-01            NaN
         13   -1    0    0    0    0  0.00000000000E+00  0.00000000000E+00  0.74505805969E-08  0.10566000000E+00  0.10566000000E+00 0.  1.
     999900   -1    0    0    0    0 -0.00000000000E+00 -0.00000000000E+00 -0.74505805969E-08  0.93827000000E+00  0.93827000000E+00 0.  1.
     999902    2    1    2    0    0 -0.97451354506E-02  0.20843686761E-01 -0.56690426083E-02  0.10202326376E+01  0.10199573862E+01 0.  0.
     999903    2    3    3    0    0 -0.42586110007E-01  0.12414391496E+00  0.13352669953E-01  0.13337791873E+00  0.19649097275E-01 0.  0.
         14    1    1    2    0    0  0.97451354506E-02 -0.20843686761E-01  0.56690426083E-02  0.23697362444E-01  0.00000000000E+00 0.  1.
     999901    1    3    3    0    0  0.32840974556E-01 -0.10330022820E+00 -0.19021712561E-01  0.88685471883E+00  0.88000000000E+00 0. -1.
        -11    1    4    4    0    0 -0.35916266555E-01  0.80744897539E-01  0.38976197292E-02  0.88459986674E-01  0.51100000000E-03 0.  1.
         11    1    4    4    0    0 -0.66698434517E-02  0.43399017417E-01  0.94550502233E-02  0.44917932055E-01  0.51100000000E-03 0. -1.
</event>
<event>
 8    1  0.1092667E+005  0.1043930E+01  0.7957747E-01            NaN
         13   -1    0    0    0    0  0.00000000000E+00  0.00000000000E+00  0.74505805969E-08  0.10566000000E+00  0.10566000000E+00 0. -1.
     999900   -1    0    0    0    0 -0.00000000000E+00 -0.00000000000E+00 -0.74505805969E-08  0.93827000000E+00  0.93827000000E+00 0. -1.
     999902    2    1    2    0    0 -0.22806272598E-01 -0.25705050656E-02  0.56359641109E-02  0.10202974450E+01  0.10200237147E+01 0.  0.
     999903    2    3    3    0    0  0.12204251395E+00  0.21530234536E-02  0.33343206090E-01  0.12801319992E+00  0.19406165014E-01 0.  0.
         14    1    1    2    0    0  0.22806272598E-01  0.25705050656E-02 -0.56359641109E-02  0.23632555036E-01  0.00000000000E+00 0.  1.
     999901    1    3    3    0    0 -0.14484878655E+00 -0.47235285193E-02 -0.27707241980E-01  0.89228424504E+00  0.88000000000E+00 0. -1.
        -11    1    4    4    0    0  0.57773839080E-01  0.96860021586E-02  0.11384488544E-01  0.59678327894E-01  0.51100000000E-03 0. -1.
         11    1    4    4    0    0  0.64268674873E-01 -0.75329787050E-02  0.21958717546E-01  0.68334872030E-01  0.51100000000E-03 0.  1.
</event>
<event>
 8    1  0.1092667E+005  0.1043930E+01  0.7957747E-01            NaN
         13   -1    0    0    0    0  0.00000000000E+00  0.00000000000E+00  0.74505805969E-08  0.10566000000E+00  0.10566000000E+00 0.  1.
     999900   -1    0    0    0    0 -0.00000000000E+00 -0.00000000000E+00 -0.74505805969E-08  0.93827000000E+00  0.93827000000E+00 0. -1.
     999902    2    1    2    0    0 -0.47590890259E-03  0.23399259425E-01  0.35630819554E-02  0.10202562300E+01  0.10199815330E+01 0.  0.
     999903    2    3    3    0    0  0.55721780357E-01 -0.74820503718E-01  0.88154609648E-01  0.12898689437E+00  0.12781202411E-01 0.  0.
         14    1    1    2    0    0  0.47590890259E-03 -0.23399259425E-01 -0.35630819554E-02  0.23673769956E-01  0.00000000000E+00 0.  1.
     999901    1    3    3    0    0 -0.56197689259E-01  0.98219763143E-01 -0.84591527693E-01  0.89126933567E+00  0.88000000000E+00 0. -1.
        -11    1    4    4    0    0  0.26768476466E-01 -0.31349028182E-01  0.31155221896E-01  0.51674189618E-01  0.51100000000E-03 0.  1.
         11    1    4    4    0    0  0.28953303890E-01 -0.43471475536E-01  0.56999387751E-01  0.77312704754E-01  0.51100000000E-03 0. -1.
</event>
<event>
 8    1  0.1092667E+005  0.1043930E+01  0.7957747E-01            NaN
         13   -1    0    0    0    0  0.00000000000E+00  0.00000000000E+00  0.74505805969E-08  0.10566000000E+00  0.10566000000E+00 0. -1.
     999900   -1    0    0    0    0 -0.00000000000E+00 -0.00000000000E+00 -0.74505805969E-08  0.93827000000E+00  0.93827000000E+00 0. -1.
     999902    2    1    2    0    0  0.93891816773E-02  0.43717480836E-02 -0.21749345846E-01  0.10198405218E+01  0.10195559754E+01 0.  0.
     999903    2    3    3    0    0 -0.89241166331E-01  0.35911647086E-01  0.81294071901E-01  0.12779755385E+00  0.21676173083E-01 0.  0.
         14    1    1    2    0    0 -0.93891816773E-02 -0.43717480836E-02  0.21749345846E-01  0.24089478172E-01  0.00000000000E+00 0. -1.
     999901    1    3    3    0    0  0.98630348008E-01 -0.31539899002E-01 -0.10304341775E+00  0.89204296798E+00  0.88000000000E+00 0. -1.
        -11    1    4    4    0    0 -0.32037532706E-01  0.24349338891E-01  0.32847780108E-01  0.51947392479E-01  0.51100000000E-03 0.  1.
         11    1    4    4    0    0 -0.57203633625E-01  0.11562308195E-01  0.48446291793E-01  0.75850161372E-01  0.51100000000E-03 0. -1.
</event>
<event>
 8    1  0.1092667E+005  0.1043930E+01  0.7957747E-01            NaN
         13   -1    0    0    0    0  0.00000000000E+00  0.00000000000E+00  0.74505805969E-08  0.10566000000E+00  0.10566000000E+00 0. -1.
     999900   -1    0    0    0    0 -0.00000000000E+00 -0.00000000000E+00 -0.74505805969E-08  0.93827000000E+00  0.93827000000E+00 0.  1.
     999902    2    1    2    0    0  0.88185556155E-02 -0.19427482292E-01  0.11870468179E-01  0.10195147997E+01  0.10192224118E+01 0.  0.
     999903    2    3    3    0    0  0.51637432385E-01 -0.69492178848E-01 -0.96092323063E-01  0.13047267789E+00  0.17140530298E-01 0.  0.
         14    1    1    2    0    0 -0.88185556155E-02  0.19427482292E-01 -0.11870468179E-01  0.24415200309E-01  0.00000000000E+00 0.  1.
     999901    1    3    3    0    0 -0.42818876770E-01  0.50064696556E-01  0.10796279124E+00  0.88904212180E+00  0.88000000000E+00 0. -1.
        -11    1    4    4    0    0  0.50124493190E-01 -0.58211660055E-01 -0.85034971528E-01  0.11459611550E+00  0.51100000000E-03 0.  1.
         11    1    4    4    0    0  0.15129391950E-02 -0.11280518793E-01 -0.11057351535E-01  0.15876562386E-01  0.51100000000E-03 0. -1.
</event>
<event>
 8    1  0.1092667E+005  0.1043930E+01  0.7957747E-01            NaN
         13   -1    0    0    0    0  0.00000000000E+00  0.00000000000E+00  0.74505805969E-08  0.10566000000E+00  0.10566000000E+00 0. -1.
     999900   -1    0    0    0    0 -0.00000000000E+00 -0.00000000000E+00 -0.74505805969E-08  0.93827000000E+00  0.93827000000E+00 0. -1.
     999902    2    1    2    0    0  0.16683943845E-01  0.13708467695E-01  0.96942116816E-02  0.10202603188E+01  0.10199857177E+01 0.  0.
     999903    2    3    3    0    0 -0.54181100505E-01 -0.11399720514E+00  0.90788052733E-02  0.12822277915E+00  0.20680956409E-01 0.  0.
         14    1    1    2    0    0 -0.16683943845E-01 -0.13708467695E-01 -0.96942116816E-02  0.23669681217E-01  0.00000000000E+00 0.  1.
     999901    1    3    3    0    0  0.70865044350E-01  0.12770567283E+00  0.61540640827E-03  0.89203753963E+00  0.88000000000E+00 0. -1.
        -11    1    4    4    0    0 -0.50413604576E-01 -0.88922459353E-01  0.36418303640E-02  0.10228518638E+00  0.51100000000E-03 0.  1.
         11    1    4    4    0    0 -0.37674959293E-02 -0.25074745783E-01  0.54369749093E-02  0.25937592772E-01  0.51100000000E-03 0. -1.
</event>
<event>
 8    1  0.1218309E+005  0.1043930E+01  0.7957747E-01            NaN
         13   -1    0    0    0    0  0.00000000000E+00  0.00000000000E+00  0.74505805969E-08  0.10566000000E+00  0.10566000000E+00 0.  1.
     999900   -1    0    0    0    0 -0.00000000000E+00 -0.00000000000E+00 -0.74505805969E-08  0.93827000000E+00  0.93827000000E+00 0. -1.
     999902    2    1    2    0    0 -0.25539565393E-02 -0.11332483181E-01  0.23029646319E-01  0.10181363481E+01  0.10178095651E+01 0.  0.
     999903    2    3    3    0    0  0.25820544206E-01  0.95864462733E-01 -0.74214753752E-01  0.12586241546E+00  0.21836259614E-01 0.  0.
         14    1    1    2    0    0  0.25539565393E-02  0.11332483181E-01 -0.23029646319E-01  0.25793651906E-01  0.00000000000E+00 0. -1.
     999901    1    3    3    0    0 -0.28374500745E-01 -0.10719694591E+00  0.97244400071E-01  0.89227393263E+00  0.88000000000E+00 0.  1.
        -11    1    4    4    0    0  0.31980354635E-02  0.51687874214E-01 -0.33662880090E-01  0.61768231224E-01  0.51100000000E-03 0.  1.
         11    1    4    4    0    0  0.22622508742E-01  0.44176588519E-01 -0.40551873662E-01  0.64094184241E-01  0.51100000000E-03 0. -1.
</event>
<event>
 8    1  0.1092667E+005  0.1043930E+01  0.7957747E-01            NaN
         13   -1    0    0    0    0  0.00000000000E+00  0.00000000000E+00  0.74505805969E-08  0.10566000000E+00  0.10566000000E+00 0.  1.
     999900   -1    0    0    0    0 -0.00000000000E+00 -0.00000000000E+00 -0.74505805969E-08  0.93827000000E+00  0.93827000000E+00 0.  1.
     999902    2    1    2    0    0 -0.15209522288E-01  0.16826983716E-01  0.60592732992E-02  0.10204525269E+01  0.10201824190E+01 0.  0.
     999903    2    3    3    0    0  0.39337883087E-01 -0.10326096046E+00 -0.61480223307E-01  0.12806353250E+00  0.20252296116E-01 0.  0.
         14    1    1    2    0    0  0.15209522288E-01 -0.16826983716E-01 -0.60592732992E-02  0.23477473077E-01  0.00000000000E+00 0. -1.
     999901    1    3    3    0    0 -0.54547405375E-01  0.12008794417E+00  0.67539496606E-01  0.89238899442E+00  0.88000000000E+00 0. -1.
        -11    1    4    4    0    0  0.23130035384E-01 -0.48221746978E-01 -0.19342639429E-01  0.56874724083E-01  0.51100000000E-03 0. -1.
         11    1    4    4    0    0  0.16207847703E-01 -0.55039213478E-01 -0.42137583878E-01  0.71188808415E-01  0.51100000000E-03 0.  1.
</event>
<event>
 8    1  0.1092667E+005  0.1043930E+01  0.7957747E-01            NaN
         13   -1    0    0    0    0  0.00000000000E+00  0.00000000000E+00  0.74505805969E-08  0.10566000000E+00  0.10566000000E+00 0.  1.
     999900   -1    0    0    0    0 -0.00000000000E+00 -0.00000000000E+00 -0.74505805969E-08  0.93827000000E+00  0.93827000000E+00 0. -1.
     999902    2    1    2    0    0 -0.20471102146E-01 -0.14377480280E-01 -0.46105569934E-02  0.10184931134E+01  0.10181754205E+01 0.  0.
     999903    2    3    3    0    0  0.73362413536E-01 -0.62917218995E-02 -0.10295778957E+00  0.12802004461E+00  0.19162356404E-01 0.  0.
         14    1    1    2    0    0  0.20471102146E-01  0.14377480280E-01  0.46105569934E-02  0.25436886564E-01  0.00000000000E+00 0.  1.
     999901    1    3    3    0    0 -0.93833515682E-01 -0.80857583807E-02  0.98347232580E-01  0.89047306883E+00  0.88000000000E+00 0.  1.
        -11    1    4    4    0    0  0.43795555897E-01  0.52627173273E-02 -0.64645053813E-01  0.78262321800E-01  0.51100000000E-03 0. -1.
         11    1    4    4    0    0  0.29566857638E-01 -0.11554439227E-01 -0.38312735761E-01  0.49757722807E-01  0.51100000000E-03 0.  1.
</event>
<event>
 8    1  0.1092667E+005  0.1043930E+01  0.7957747E-01            NaN
         13   -1    0    0    0    0  0.00000000000E+00  0.00000000000E+00  0.74505805969E-08  0.10566000000E+00  0.10566000000E+00 0.  1.
     999900   -1    0    0    0    0 -0.00000000000E+00 -0.00000000000E+00 -0.74505805969E-08  0.93827000000E+00  0.93827000000E+00 0. -1.
     999902    2    1    2    0    0 -0.11074295071E-01 -0.93993103931E-02  0.18220420031E-01  0.10206282672E+01  0.10203622342E+01 0.  0.
     999903    2    3    3    0    0 -0.90676799762E-01  0.82870604384E-01 -0.38893340800E-01  0.13039668066E+00  0.20019572496E-01 0.  0.
         14    1    1    2    0    0  0.11074295071E-01  0.93993103931E-02 -0.18220420031E-01  0.23301732839E-01  0.00000000000E+00 0.  1.
     999901    1    3    3    0    0  0.79602504691E-01 -0.92269914777E-01  0.57113760832E-01  0.89023158650E+00  0.88000000000E+00 0. -1.
        -11    1    4    4    0    0 -0.31713443876E-01  0.31873416762E-01 -0.45084152758E-02  0.45191195468E-01  0.51100000000E-03 0.  1.
         11    1    4    4    0    0 -0.58963355886E-01  0.50997187622E-01 -0.34384925525E-01  0.85205485193E-01  0.51100000000E-03 0. -1.
</event>
<event>
 8    1  0.1092667E+005  0.1043930E+01  0.7957747E-01            NaN
         13   -1    0    0    0    0  0.00000000000E+00  0.00000000000E+00  0.74505805969E-08  0.10566000000E+00  0.10566000000E+00 0.  1.
     999900   -1    0    0    0    0 -0.00000000000E+00 -0.00000000000E+00 -0.74505805969E-08  0.93827000000E+00  0.93827000000E+00 0.  1.
     999902    2    1    2    0    0 -0.54547243126E-02  0.16838927869E-01  0.14352239944E-01  0.10211420580E+01  0.10208877570E+01 0.  0.
     999903    2    3    3    0    0  0.24751032920E-01 -0.83550251358E-01 -0.92091138050E-01  0.12855000796E+00  0.21238378166E-01 0.  0.
         14    1    1    2    0    0  0.54547243126E-02 -0.16838927869E-01 -0.14352239944E-01  0.22787941998E-01  0.00000000000E+00 0.  1.
     999901    1    3    3    0    0 -0.30205757233E-01  0.10038917923E+00  0.10644337799E+00  0.89259205004E+00  0.88000000000E+00 0. -1.
        -11    1    4    4    0    0  0.12637540472E-01 -0.13390220816E-01 -0.16901881582E-01  0.24998803265E-01  0.51100000000E-03 0. -1.
         11    1    4    4    0    0  0.12113492448E-01 -0.70160030542E-01 -0.75189256468E-01  0.10355120470E+00  0.51100000000E-03 0.  1.
</event>
<event>
 8    1  0.1092667E+005  0.1043930E+01  0.7957747E-01            NaN
         13   -1    0    0    0    0  0.00000000000E+00  0.00000000000E+00  0.74505805969E-08  0.10566000000E+00  0.10566000000E+00 0. -1.
     999900   -1    0    0    0    0 -0.00000000000E+00 -0.00000000000E+00 -0.74505805969E-08  0.93827000000E+00  0.93827000000E+00 0. -1.
     999902    2    1    2    0    0  0.11050077320E-01 -0.68605425109E-02  0.17970993205E-01  0.10217460452E+01  0.10215051900E+01 0.  0.
     999903    2    3    3    0    0 -0.93176389095E-01  0.86906184118E-01 -0.15251676713E-01  0.13002910521E+00  0.20986429824E-01 0.  0.
         14    1    1    2    0    0 -0.11050077320E-01  0.68605425109E-02 -0.17970993205E-01  0.22183954767E-01  0.00000000000E+00 0.  1.
     999901    1    3    3    0    0  0.10422646642E+00 -0.93766726629E-01  0.33222669918E-01  0.89171694002E+00  0.88000000000E+00 0. -1.
        -11    1    4    4    0    0 -0.58991724607E-01  0.56926793723E-01 -0.19777942309E-01  0.84333335869E-01  0.51100000000E-03 0.  1.
         11    1    4    4    0    0 -0.34184664488E-01  0.29979390395E-01  0.45262655959E-02  0.45695769343E-01  0.51100000000E-03 0. -1.
</event>
<event>
 8    1  0.1092667E+005  0.1043930E+01  0.7957747E-01            NaN
         13   -1    0    0    0    0  0.00000000000E+00  0.00000000000E+00  0.74505805969E-08  0.10566000000E+00  0.10566000000E+00 0.  1.
     999900   -1    0    0    0    0 -0.00000000000E+00 -0.00000000000E+00 -0.74505805969E-08  0.93827000000E+00  0.93827000000E+00 0.  1.
     999902    2    1    2    0    0 -0.11558129056E-01 -0.11701303674E-01  0.17258314190E-01  0.10200896925E+01  0.10198110709E+01 0.  0.
     999903    2    3    3    0    0 -0.43487647505E-01 -0.11906440395E+00 -0.30082680485E-01  0.13172743570E+00  0.19484400880E-01 0.  0.
         14    1    1    2    0    0  0.11558129056E-01  0.11701303674E-01 -0.17258314190E-01  0.23840307540E-01  0.00000000000E+00 0. -1.
     999901    1    3    3    0    0  0.31929518448E-01  0.10736310028E+00  0.47340994674E-01  0.88836225676E+00  0.88000000000E+00 0.  1.
        -11    1    4    4    0    0 -0.15023470197E-01 -0.56611826339E-01 -0.22206435949E-01  0.62641762880E-01  0.51100000000E-03 0.  1.
         11    1    4    4    0    0 -0.28464177308E-01 -0.62452577616E-01 -0.78762445360E-02  0.69085672825E-01  0.51100000000E-03 0. -1.
</event>
<event>
 8    1  0.1092667E+005  0.1043930E+01  0.7957747E-01            NaN
         13   -1    0    0    0    0  0.00000000000E+00  0.00000000000E+00  0.74505805969E-08  0.10566000000E+00  0.10566000000E+00 0. -1.
     999900   -1    0    0    0    0 -0.00000000000E+00 -0.00000000000E+00 -0.74505805969E-08  0.93827000000E+00  0.93827000000E+00 0. -1.
     999902    2    1    2    0    0  0.15570618441E-01 -0.10892811590E-01  0.12442666840E-01  0.10212161835E+01  0.10209635527E+01 0.  0.
     999903    2    3    3    0    0  0.10540243695E+00 -0.10113868193E-01 -0.76517935858E-01  0.13218055359E+00  0.20118155872E-01 0.  0.
         14    1    1    2    0    0 -0.15570618441E-01  0.10892811590E-01 -0.12442666840E-01  0.22713816523E-01  0.00000000000E+00 0.  1.
     999901    1    3    3    0    0 -0.89831818508E-01 -0.77894339671E-03  0.88960602697E-01  0.88903562988E+00  0.88000000000E+00 0.  1.
        -11    1    4    4    0    0  0.42486357733E-01 -0.13647808875E-01 -0.35009590907E-01  0.56721123552E-01  0.51100000000E-03 0.  1.
         11    1    4    4    0    0  0.62916079216E-01  0.35339406813E-02 -0.41508344950E-01  0.75459430041E-01  0.51100000000E-03 0. -1.
</event>
<event>
 8    1  0.1092667E+005  0.1043930E+01  0.7957747E-01            NaN
         13   -1    0    0    0    0  0.00000000000E+00  0.00000000000E+00  0.74505805969E-08  0.10566000000E+00  0.10566000000E+00 0.  1.
     999900   -1    0    0    0    0 -0.00000000000E+00 -0.00000000000E+00 -0.74505805969E-08  0.93827000000E+00  0.93827000000E+00 0. -1.
     999902    2    1    2    0    0  0.17554493892E-01  0.14848873127E-01 -0.53596553508E-02  0.10203212051E+01  0.10200480315E+01 0.  0.
     999903    2    3    3    0    0  0.18227547459E-01 -0.78779309278E-01 -0.10052483107E+00  0.13025205041E+00  0.17942461285E-01 0.  0.
         14    1    1    2    0    0 -0.17554493892E-01 -0.14848873127E-01  0.53596553508E-02  0.23608794853E-01  0.00000000000E+00 0.  1.
     999901    1    3    3    0    0 -0.67305356655E-03  0.93628182405E-01  0.95165175724E-01  0.89006915474E+00  0.88000000000E+00 0.  1.
        -11    1    4    4    0    0  0.85014015603E-02 -0.22689073788E-01 -0.42750363986E-01  0.49141862397E-01  0.51100000000E-03 0. -1.
         11    1    4    4    0    0  0.97261458983E-02 -0.56090235490E-01 -0.57774467089E-01  0.81110188014E-01  0.51100000000E-03 0.  1.
</event>
<event>
 8    1  0.1092667E+005  0.1043930E+01  0.7957747E-01            NaN
         13   -1    0    0    0    0  0.00000000000E+00  0.00000000000E+00  0.74505805969E-08  0.10566000000E+00  0.10566000000E+00 0. -1.
     999900   -1    0    0    0    0 -0.00000000000E+00 -0.00000000000E+00 -0.74505805969E-08  0.93827000000E+00  0.93827000000E+00 0.  1.
     999902    2    1    2    0    0 -0.23293165733E-01  0.19696431108E-02  0.11743189025E-05  0.10205537072E+01  0.10202859492E+01 0.  0.
     999903    2    3    3    0    0 -0.51316623433E-01  0.66579958300E-01  0.99924290400E-01  0.13210312549E+00  0.20002131490E-01 0.  0.
         14    1    1    2    0    0  0.23293165733E-01 -0.19696431108E-02 -0.11743189026E-05  0.23376292803E-01  0.00000000000E+00 0. -1.
     999901    1    3    3    0    0  0.28023457700E-01 -0.64610315189E-01 -0.99923116081E-01  0.88845058171E+00  0.88000000000E+00 0.  1.
        -11    1    4    4    0    0 -0.15059265907E-01  0.22237264661E-01  0.18770321278E-01  0.32769856746E-01  0.51100000000E-03 0. -1.
         11    1    4    4    0    0 -0.36257357526E-01  0.44342693639E-01  0.81153969122E-01  0.99333268743E-01  0.51100000000E-03 0.  1.
</event>
<event>
 8    1  0.1092667E+005  0.1043930E+01  0.7957747E-01            NaN
         13   -1    0    0    0    0  0.00000000000E+00  0.00000000000E+00  0.74505805969E-08  0.10566000000E+00  0.10566000000E+00 0. -1.
     999900   -1    0    0    0    0 -0.00000000000E+00 -0.00000000000E+00 -0.74505805969E-08  0.93827000000E+00  0.93827000000E+00 0.  1.
     999902    2    1    2    0    0  0.11365780857E-01 -0.17090414930E-01  0.30911884970E-02  0.10231738273E+01  0.10229632751E+01 0.  0.
     999903    2    3    3    0    0  0.85413418827E-01 -0.31573967259E-02 -0.10088578472E+00  0.13385476613E+00  0.20826319574E-01 0.  0.
         14    1    1    2    0    0 -0.11365780857E-01  0.17090414930E-01 -0.30911884970E-02  0.20756172655E-01  0.00000000000E+00 0.  1.
     999901    1    3    3    0    0 -0.74047637969E-01 -0.13933018204E-01  0.10397697322E+00  0.88931906122E+00  0.88000000000E+00 0. -1.
        -11    1    4    4    0    0  0.25045846065E-01 -0.62708131439E-02 -0.18940316973E-01  0.32025212422E-01  0.51100000000E-03 0.  1.
         11    1    4    4    0    0  0.60367572762E-01  0.31134164181E-02 -0.81945467745E-01  0.10182955371E+00  0.51100000000E-03 0. -1.
</event>
<event>
 8    1  0.1092667E+005  0.1043930E+01  0.7957747E-01            NaN
         13   -1    0    0    0    0  0.00000000000E+00  0.00000000000E+00  0.74505805969E-08  0.10566000000E+00  0.10566000000E+00 0. -1.
     999900   -1    0    0    0    0 -0.00000000000E+00 -0.00000000000E+00 -0.74505805969E-08  0.93827000000E+00  0.93827000000E+00 0. -1.
     999902    2    1    2    0    0 -0.66610824856E-02 -0.14579822417E-01  0.16658859933E-01  0.10208116338E+01  0.10205498189E+01 0.  0.
     999903    2    3    3    0    0 -0.48787562402E-01  0.39473091317E-01 -0.11069952267E+00  0.12900643343E+00  0.21211420577E-01 0.  0.
         14    1    1    2    0    0  0.66610824856E-02  0.14579822417E-01 -0.16658859933E-01  0.23118366202E-01  0.00000000000E+00 0.  1.
     999901    1    3    3    0    0  0.42126479916E-01 -0.54052913734E-01  0.12735838260E+00  0.89180520037E+00  0.88000000000E+00 0.  1.
        -11    1    4    4    0    0 -0.23514936297E-01  0.30493845038E-01 -0.75455735066E-01  0.84715145574E-01  0.51100000000E-03 0. -1.
         11    1    4    4    0    0 -0.25272626105E-01  0.89792462788E-02 -0.35243787603E-01  0.44291287852E-01  0.51100000000E-03 0.  1.
</event>
<event>
 8    1  0.1092667E+005  0.1043930E+01  0.7957747E-01            NaN
         13   -1    0    0    0    0  0.00000000000E+00  0.00000000000E+00  0.74505805969E-08  0.10566000000E+00  0.10566000000E+00 0.  1.
     999900   -1    0    0    0    0 -0.00000000000E+00 -0.00000000000E+00 -0.74505805969E-08  0.93827000000E+00  0.93827000000E+00 0. -1.
     999902    2    1    2    0    0  0.19346747128E-01  0.10595437073E-01 -0.83799944124E-02  0.10203337245E+01  0.10200608438E+01 0.  0.
     999903    2    3    3    0    0  0.13277725578E-01 -0.46779251169E-01 -0.12036094100E+00  0.13136329739E+00  0.20123703585E-01 0.  0.
         14    1    1    2    0    0 -0.19346747128E-01 -0.10595437073E-01  0.83799944124E-02  0.23596275502E-01  0.00000000000E+00 0.  1.
     999901    1    3    3    0    0  0.60690215505E-02  0.57374688242E-01  0.11198094659E+00  0.88897042711E+00  0.88000000000E+00 0.  1.
        -11    1    4    4    0    0 -0.76798354335E-03 -0.11832587091E-01 -0.51742313366E-01  0.53086043641E-01  0.51100000000E-03 0.  1.
         11    1    4    4    0    0  0.14045709121E-01 -0.34946664079E-01 -0.68618627636E-01  0.78277253750E-01  0.51100000000E-03 0. -1.
</event>
<event>
 8    1  0.1092667E+005  0.1043930E+01  0.7957747E-01            NaN
         13   -1    0    0    0    0  0.00000000000E+00  0.00000000000E+00  0.74505805969E-08  0.10566000000E+00  0.10566000000E+00 0. -1.
     999900   -1    0    0    0    0 -0.00000000000E+00 -0.00000000000E+00 -0.74505805969E-08  0.93827000000E+00  0.93827000000E+00 0. -1.
     999902    2    1    2    0    0  0.84983445001E-02 -0.21887314337E-01 -0.26328839901E-02  0.10203035643E+01  0.10200299774E+01 0.  0.
     999903    2    3    3    0    0 -0.48291730784E-01  0.97264602558E-01  0.64716701580E-01  0.12791449068E+00  0.19528729860E-01 0.  0.
         14    1    1    2    0    0 -0.84983445001E-02  0.21887314337E-01  0.26328839901E-02  0.23626435749E-01  0.00000000000E+00 0. -1.
     999901    1    3    3    0    0  0.56790075284E-01 -0.11915191689E+00 -0.67349585570E-01  0.89238907357E+00  0.88000000000E+00 0. -1.
        -11    1    4    4    0    0 -0.35312832696E-01  0.54505928922E-01  0.31191870838E-01  0.72049194083E-01  0.51100000000E-03 0. -1.
         11    1    4    4    0    0 -0.12978898087E-01  0.42758673636E-01  0.33524830742E-01  0.55865296598E-01  0.51100000000E-03 0.  1.
</event>
<event>
 8    1  0.1092667E+005  0.1043930E+01  0.7957747E-01            NaN
         13   -1    0    0    0    0  0.00000000000E+00  0.00000000000E+00  0.74505805969E-08  0.10566000000E+00  0.10566000000E+00 0. -1.
     999900   -1    0    0    0    0 -0.00000000000E+00 -0.00000000000E+00 -0.74505805969E-08  0.93827000000E+00  0.93827000000E+00 0. -1.
     999902    2    1    2    0    0 -0.56185465784E-02 -0.22119486353E-01  0.65110068216E-02  0.10201974706E+01  0.10199213921E+01 0.  0.
     999903    2    3    3    0    0 -0.14890916114E-01  0.85465456151E-01 -0.92198468733E-01  0.12811896662E+00  0.19693359112E-01 0.  0.
         14    1    1    2    0    0  0.56185465784E-02  0.22119486353E-01 -0.65110068216E-02  0.23732529406E-01  0.00000000000E+00 0. -1.
     999901    1    3    3    0    0  0.92723695351E-02 -0.10758494250E+00  0.98709475554E-01  0.89207850398E+00  0.88000000000E+00 0.  1.
        -11    1    4    4    0    0  0.41040235667E-02  0.25174956587E-01 -0.30816901414E-01  0.40007049159E-01  0.51100000000E-03 0.  1.
         11    1    4    4    0    0 -0.18994939680E-01  0.60290499563E-01 -0.61381567319E-01  0.88111917460E-01  0.51100000000E-03 0. -1.
</event>
<event>
 8    1  0.1092667E+005  0.1043930E+01  0.7957747E-01            NaN
         13   -1    0    0    0    0  0.00000000000E+00  0.00000000000E+00  0.74505805969E-08  0.10566000000E+00  0.10566000000E+00 0.  1.
     999900   -1    0    0    0    0 -0.00000000000E+00 -0.00000000000E+00 -0.74505805969E-08  0.93827000000E+00  0.93827000000E+00 0. -1.
     999902    2    1    2    0    0 -0.22308982796E-01  0.87472233417E-05 -0.56731495165E-02  0.10209109771E+01  0.10206514330E+01 0.  0.
     999903    2    3    3    0    0 -0.12357236899E+00  0.46775624299E-01 -0.76462930482E-02  0.13386796378E+00  0.20101654787E-01 0.  0.
         14    1    1    2    0    0  0.22308982796E-01 -0.87472233417E-05  0.56731495165E-02  0.23019022901E-01  0.00000000000E+00 0.  1.
     999901    1    3    3    0    0  0.10126338619E+00 -0.46766877076E-01  0.19731435317E-02  0.88704301331E+00  0.88000000000E+00 0.  1.
        -11    1    4    4    0    0 -0.77010319960E-01  0.35188877786E-01  0.29707020725E-02  0.84722681095E-01  0.51100000000E-03 0. -1.
         11    1    4    4    0    0 -0.46562049025E-01  0.11586746513E-01 -0.10616995121E-01  0.49145282689E-01  0.51100000000E-03 0.  1.
</event>
<event>
 8    1  0.1276444E+005  0.1043930E+01  0.7957747E-01            NaN
         13   -1    0    0    0    0  0.00000000000E+00  0.00000000000E+00  0.74505805969E-08  0.10566000000E+00  0.10566000000E+00 0. -1.
     999900   -1    0    0    0    0 -0.00000000000E+00 -0.00000000000E+00 -0.74505805969E-08  0.93827000000E+00  0.93827000000E+00 0. -1.
     999902    2    1    2    0    0 -0.15811918944E-01  0.21743209512E-02  0.16665066332E-01  0.10208547126E+01  0.10205938837E+01 0.  0.
     999903    2    3    3    0    0 -0.11547565215E+00 -0.14412580383E-01  0.63455483282E-01  0.13383874425E+00  0.18543526894E-01 0.  0.
         14    1    1    2    0    0  0.15811918944E-01 -0.21743209512E-02 -0.16665066332E-01  0.23075287390E-01  0.00000000000E+00 0.  1.
     999901    1    3    3    0    0  0.99663733208E-01  0.16586901334E-01 -0.46790416950E-01  0.88701596836E+00  0.88000000000E+00 0. -1.
        -11    1    4    4    0    0 -0.68422375246E-01 -0.45883912291E-02  0.46539499306E-01  0.82878591234E-01  0.51100000000E-03 0. -1.
         11    1    4    4    0    0 -0.47053276906E-01 -0.98241891541E-02  0.16915983977E-01  0.50960153012E-01  0.51100000000E-03 0.  1.
</event>
<event>
 8    1  0.1092667E+005  0.1043930E+01  0.7957747E-01            NaN
         13   -1    0    0    0    0  0.00000000000E+00  0.00000000000E+00  0.74505805969E-08  0.10566000000E+00  0.10566000000E+00 0.  1.
     999900   -1    0    0    0    0 -0.00000000000E+00 -0.00000000000E+00 -0.74505805969E-08  0.93827000000E+00  0.93827000000E+00 0.  1.
     999902    2    1    2    0    0 -0.11948967685E-01  0.23171529729E-01 -0.34882337650E-02  0.10176266657E+01  0.10172866683E+01 0.  0.
     999903    2    3    3    0    0  0.38878108709E-03 -0.11713681238E+00  0.39875001592E-01  0.12537164552E+00  0.20170517707E-01 0.  0.
         14    1    1    2    0    0  0.11948967685E-01 -0.23171529729E-01  0.34882337650E-02  0.26303334266E-01  0.00000000000E+00 0.  1.
     999901    1    3    3    0    0 -0.12337748772E-01  0.14030834211E+00 -0.43363235357E-01  0.89225502021E+00  0.88000000000E+00 0.  1.
        -11    1    4    4    0    0  0.12276218145E-02 -0.24931888400E-01  0.14809723961E-03  0.24967762581E-01  0.51100000000E-03 0. -1.
         11    1    4    4    0    0 -0.83884072737E-03 -0.92204923978E-01  0.39726904352E-01  0.10040388294E+00  0.51100000000E-03 0.  1.
</event>
<event>
 8    1  0.1092667E+005  0.1043930E+01  0.7957747E-01            NaN
         13   -1    0    0    0    0  0.00000000000E+00  0.00000000000E+00  0.74505805969E-08  0.10566000000E+00  0.10566000000E+00 0. -1.
     999900   -1    0    0    0    0 -0.00000000000E+00 -0.00000000000E+00 -0.74505805969E-08  0.93827000000E+00  0.93827000000E+00 0. -1.
     999902    2    1    2    0    0 -0.10134522259E-01 -0.14759025816E-01  0.13615090402E-01  0.10214375997E+01  0.10211899246E+01 0.  0.
     999903    2    3    3    0    0 -0.12550799268E+00  0.64907674669E-02 -0.36381148373E-01  0.13224571080E+00  0.19260160422E-01 0.  0.
         14    1    1    2    0    0  0.10134522259E-01  0.14759025816E-01 -0.13615090402E-01  0.22492400297E-01  0.00000000000E+00 0.  1.
     999901    1    3    3    0    0  0.11537347042E+00 -0.21249793283E-01  0.49996238775E-01  0.88919188890E+00  0.88000000000E+00 0. -1.
        -11    1    4    4    0    0 -0.38853389320E-01 -0.15098065938E-02 -0.19870052407E-01  0.43668586893E-01  0.51100000000E-03 0. -1.
         11    1    4    4    0    0 -0.86654603363E-01  0.80005740607E-02 -0.16511095966E-01  0.88577123911E-01  0.51100000000E-03 0.  1.
</event>
<event>
 8    1  0.1092667E+005  0.1043930E+01  0.7957747E-01            NaN
         13   -1    0    0    0    0  0.00000000000E+00  0.00000000000E+00  0.74505805969E-08  0.10566000000E+00  0.10566000000E+00 0.  1.
     999900   -1    0    0    0    0 -0.00000000000E+00 -0.00000000000E+00 -0.74505805969E-08  0.93827000000E+00  0.93827000000E+00 0. -1.
     999902    2    1    2    0    0 -0.16786190214E-01  0.17045978205E-01 -0.18752017421E-02  0.10199329598E+01  0.10196506189E+01 0.  0.
     999903    2    3    3    0    0  0.57828889686E-01 -0.76920043160E-01  0.81844115486E-01  0.12785339646E+00  0.19676336680E-01 0.  0.
         14    1    1    2    0    0  0.16786190214E-01 -0.17045978205E-01  0.18752017421E-02  0.23997040160E-01  0.00000000000E+00 0.  1.
     999901    1    3    3    0    0 -0.74615079900E-01  0.93966021365E-01 -0.83719317228E-01  0.89207956338E+00  0.88000000000E+00 0. -1.
        -11    1    4    4    0    0  0.41039695856E-01 -0.62820309083E-01  0.54197829724E-01  0.92565186420E-01  0.51100000000E-03 0.  1.
         11    1    4    4    0    0  0.16789193830E-01 -0.14099734077E-01  0.27646285763E-01  0.35288210042E-01  0.51100000000E-03 0. -1.
</event>
<event>
 8    1  0.1092667E+005  0.1043930E+01  0.7957747E-01            NaN
         13   -1    0    0    0    0  0.00000000000E+00  0.00000000000E+00  0.74505805969E-08  0.10566000000E+00  0.10566000000E+00 0. -1.
     999900   -1    0    0    0    0 -0.00000000000E+00 -0.00000000000E+00 -0.74505805969E-08  0.93827000000E+00  0.93827000000E+00 0. -1.
     999902    2    1    2    0    0 -0.47303151346E-02  0.96310387984E-02 -0.20052612039E-01  0.10211870882E+01  0.10209338024E+01 0.  0.
     999903    2    3    3    0    0 -0.85108635705E-01 -0.68504188845E-01  0.66735302298E-01  0.12984095433E+00  0.21651075872E-01 0.  0.
         14    1    1    2    0    0  0.47303151346E-02 -0.96310387984E-02  0.20052612039E-01  0.22742911845E-01  0.00000000000E+00 0.  1.
     999901    1    3    3    0    0  0.80378320570E-01  0.78135227644E-01 -0.86787914338E-01  0.89134613383E+00  0.88000000000E+00 0. -1.
        -11    1    4    4    0    0 -0.73613440756E-01 -0.51691079770E-01  0.60971473230E-01  0.10866778758E+00  0.51100000000E-03 0. -1.
         11    1    4    4    0    0 -0.11495194949E-01 -0.16813109076E-01  0.57638290687E-02  0.21173166750E-01  0.51100000000E-03 0.  1.
</event>
<event>
 8    1  0.1092667E+005  0.1043930E+01  0.7957747E-01            NaN
         13   -1    0    0    0    0  0.00000000000E+00  0.00000000000E+00  0.74505805969E-08  0.10566000000E+00  0.10566000000E+00 0. -1.
     999900   -1    0    0    0    0 -0.00000000000E+00 -0.00000000000E+00 -0.74505805969E-08  0.93827000000E+00  0.93827000000E+00 0.  1.
     999902    2    1    2    0    0  0.11524424891E-01  0.13590290961E-01  0.15256950041E-01  0.10204718905E+01  0.10202022331E+01 0.  0.
     999903    2    3    3    0    0  0.26058158724E-01  0.70033606142E-01  0.10884525383E+00  0.13359205203E+00  0.20391504568E-01 0.  0.
         14    1    1    2    0    0 -0.11524424891E-01 -0.13590290961E-01 -0.15256950041E-01  0.23458109515E-01  0.00000000000E+00 0.  1.
     999901    1    3    3    0    0 -0.14533733832E-01 -0.56443315181E-01 -0.93588303793E-01  0.88687983845E+00  0.88000000000E+00 0.  1.
        -11    1    4    4    0    0  0.19609397033E-01  0.24485156438E-01  0.41219624111E-01  0.51801253563E-01  0.51100000000E-03 0.  1.
         11    1    4    4    0    0  0.64487616901E-02  0.45548449704E-01  0.67625629723E-01  0.81790798469E-01  0.51100000000E-03 0. -1.
</event>
<event>
 8    1  0.1092667E+005  0.1043930E+01  0.7957747E-01            NaN
         13   -1    0    0    0    0  0.00000000000E+00  0.00000000000E+00  0.74505805969E-08  0.10566000000E+00  0.10566000000E+00 0. -1.
     999900   -1    0    0    0    0 -0.00000000000E+00 -0.00000000000E+00 -0.74505805969E-08  0.93827000000E+00  0.93827000000E+00 0. -1.
     999902    2    1    2    0    0 -0.14169444570E-01 -0.95849827801E-02 -0.23778763957E-01  0.10146370884E+01  0.10142141522E+01 0.  0.
     999903    2    3    3    0    0  0.26918615844E-01  0.10825013034E+00 -0.53345754393E-01  0.12534099063E+00  0.20540005450E-01 0.  0.
         14    1    1    2    0    0  0.14169444570E-01  0.95849827801E-02  0.23778763957E-01  0.29292911593E-01  0.00000000000E+00 0. -1.
     999901    1    3    3    0    0 -0.41088060414E-01 -0.11783511312E+00  0.29566990436E-01  0.88929609777E+00  0.88000000000E+00 0. -1.
        -11    1    4    4    0    0  0.22834511905E-02  0.28032138360E-01 -0.52406440685E-02  0.28613640132E-01  0.51100000000E-03 0.  1.
         11    1    4    4    0    0  0.24635164653E-01  0.80217991979E-01 -0.48105110324E-01  0.96727350501E-01  0.51100000000E-03 0. -1.
</event>
<event>
 8    1  0.1092667E+005  0.1043930E+01  0.7957747E-01            NaN
         13   -1    0    0    0    0  0.00000000000E+00  0.00000000000E+00  0.74505805969E-08  0.10566000000E+00  0.10566000000E+00 0. -1.
     999900   -1    0    0    0    0 -0.00000000000E+00 -0.00000000000E+00 -0.74505805969E-08  0.93827000000E+00  0.93827000000E+00 0. -1.
     999902    2    1    2    0    0  0.25174323317E-02  0.23298687998E-01  0.77640582783E-02  0.10192430211E+01  0.10189440068E+01 0.  0.
     999903    2    3    3    0    0  0.67889605178E-01  0.89262175126E-02  0.10969639293E+00  0.13083416826E+00  0.19889824362E-01 0.  0.
         14    1    1    2    0    0 -0.25174323317E-02 -0.23298687998E-01 -0.77640582783E-02  0.24686978934E-01  0.00000000000E+00 0.  1.
     999901    1    3    3    0    0 -0.65372172846E-01  0.14372470485E-01 -0.10193233465E+00  0.88840885280E+00  0.88000000000E+00 0. -1.
        -11    1    4    4    0    0  0.43933899063E-01  0.69016155924E-02  0.52613426850E-01  0.68893059088E-01  0.51100000000E-03 0. -1.
         11    1    4    4    0    0  0.23955706115E-01  0.20246019202E-02  0.57082966080E-01  0.61941109175E-01  0.51100000000E-03 0.  1.
</event>
<event>
 8    1  0.1092667E+005  0.1043930E+01  0.7957747E-01            NaN
         13   -1    0    0    0    0  0.00000000000E+00  0.00000000000E+00  0.74505805969E-08  0.10566000000E+00  0.10566000000E+00 0.  1.
     999900   -1    0    0    0    0 -0.00000000000E+00 -0.00000000000E+00 -0.74505805969E-08  0.93827000000E+00  0.93827000000E+00 0.  1.
     999902    2    1    2    0    0  0.72778845325E-02  0.12333578325E-02 -0.20439525961E-01  0.10221983872E+01  0.10219673575E+01 0.  0.
     999903    2    3    3    0    0  0.61820341686E-01 -0.10689411901E+00  0.42449631073E-01  0.13168085396E+00  0.17022596591E-01 0.  0.
         14    1    1    2    0    0 -0.72778845325E-02 -0.12333578325E-02  0.20439525961E-01  0.21731612833E-01  0.00000000000E+00 0.  1.
     999901    1    3    3    0    0 -0.54542457153E-01  0.10812747685E+00 -0.62889157035E-01  0.89051753321E+00  0.88000000000E+00 0. -1.
        -11    1    4    4    0    0  0.26536148986E-01 -0.49693450613E-01  0.28100630819E-01  0.62956435813E-01  0.51100000000E-03 0.  1.
         11    1    4    4    0    0  0.35284192699E-01 -0.57200668401E-01  0.14349000255E-01  0.68724418144E-01  0.51100000000E-03 0. -1.
</event>
<event>
 8    1  0.1092667E+005  0.1043930E+01  0.7957747E-01            NaN
         13   -1    0    0    0    0  0.00000000000E+00  0.00000000000E+00  0.74505805969E-08  0.10566000000E+00  0.10566000000E+00 0.  1.
     999900   -1    0    0    0    0 -0.00000000000E+00 -0.00000000000E+00 -0.74505805969E-08  0.93827000000E+00  0.93827000000E+00 0.  1.
     999902    2    1    2    0    0  0.11078736641E-01 -0.95231676942E-02  0.17827506064E-01  0.10208811584E+01  0.10206209337E+01 0.  0.
     999903    2    3    3    0    0 -0.90484251738E-01  0.89266895910E-01  0.30047244052E-02  0.12942491595E+00  0.24203346502E-01 0.  0.
         14    1    1    2    0    0 -0.11078736641E-01  0.95231676942E-02 -0.17827506064E-01  0.23048841640E-01  0.00000000000E+00 0. -1.
     999901    1    3    3    0    0  0.10156298838E+00 -0.98790063604E-01  0.14822781659E-01  0.89145624241E+00  0.88000000000E+00 0. -1.
        -11    1    4    4    0    0 -0.62734436299E-01  0.45612431158E-01  0.42249737082E-02  0.77680209177E-01  0.51100000000E-03 0.  1.
         11    1    4    4    0    0 -0.27749815439E-01  0.43654464752E-01 -0.12202493031E-02  0.51744706773E-01  0.51100000000E-03 0. -1.
</event>
<event>
 8    1  0.1092667E+005  0.1043930E+01  0.7957747E-01            NaN
         13   -1    0    0    0    0  0.00000000000E+00  0.00000000000E+00  0.74505805969E-08  0.10566000000E+00  0.10566000000E+00 0. -1.
     999900   -1    0    0    0    0 -0.00000000000E+00 -0.00000000000E+00 -0.74505805969E-08  0.93827000000E+00  0.93827000000E+00 0. -1.
     999902    2    1    2    0    0 -0.82194608669E-02  0.20901280204E-01 -0.72956417087E-02  0.10203153978E+01  0.10200420881E+01 0.  0.
     999903    2    3    3    0    0 -0.30127667772E-01 -0.12321701941E+00 -0.11090105913E-02  0.12830176097E+00  0.19235428889E-01 0.  0.
         14    1    1    2    0    0  0.82194608669E-02 -0.20901280204E-01  0.72956417087E-02  0.23614602242E-01  0.00000000000E+00 0. -1.
     999901    1    3    3    0    0  0.21908206906E-01  0.14411829962E+00 -0.61866311174E-02  0.89201363679E+00  0.88000000000E+00 0. -1.
        -11    1    4    4    0    0 -0.20782346042E-01 -0.66890864431E-01 -0.91426073331E-02  0.70640937431E-01  0.51100000000E-03 0. -1.
         11    1    4    4    0    0 -0.93453217309E-02 -0.56326154982E-01  0.80335967418E-02  0.57660823536E-01  0.51100000000E-03 0.  1.
</event>
<event>
 8    1  0.1092667E+005  0.1043930E+01  0.7957747E-01            NaN
         13   -1    0    0    0    0  0.00000000000E+00  0.00000000000E+00  0.74505805969E-08  0.10566000000E+00  0.10566000000E+00 0. -1.
     999900   -1    0    0    0    0 -0.00000000000E+00 -0.00000000000E+00 -0.74505805969E-08  0.93827000000E+00  0.93827000000E+00 0.  1.
     999902    2    1    2    0    0  0.87644337779E-02 -0.20521903173E-01  0.89824690443E-02  0.10198748850E+01  0.10195911594E+01 0.  0.
     999903    2    3    3    0    0 -0.34715219733E-01  0.75684032670E-01  0.96281357359E-01  0.12927555964E+00  0.22557731797E-01 0.  0.
         14    1    1    2    0    0 -0.87644337779E-02  0.20521903173E-01 -0.89824690443E-02  0.24055115036E-01  0.00000000000E+00 0. -1.
     999901    1    3    3    0    0  0.43479653511E-01 -0.96205935843E-01 -0.87298888315E-01  0.89059932532E+00  0.88000000000E+00 0.  1.
        -11    1    4    4    0    0 -0.14927091446E-01  0.53554013764E-01  0.53174080304E-01  0.76932401408E-01  0.51100000000E-03 0.  1.
         11    1    4    4    0    0 -0.19788128287E-01  0.22130018906E-01  0.43107277055E-01  0.52343158235E-01  0.51100000000E-03 0. -1.
</event>
<event>
 8    1  0.1092667E+005  0.1043930E+01  0.7957747E-01            NaN
         13   -1    0    0    0    0  0.00000000000E+00  0.00000000000E+00  0.74505805969E-08  0.10566000000E+00  0.10566000000E+00 0.  1.
     999900   -1    0    0    0    0 -0.00000000000E+00 -0.00000000000E+00 -0.74505805969E-08  0.93827000000E+00  0.93827000000E+00 0.  1.
     999902    2    1    2    0    0  0.55349847483E-02 -0.23077681017E-01  0.30173401061E-02  0.10200067946E+01  0.10197262089E+01 0.  0.
     999903    2    3    3    0    0  0.11433826773E+00 -0.22720312161E-01  0.57745348216E-01  0.13161868288E+00  0.19987505846E-01 0.  0.
         14    1    1    2    0    0 -0.55349847483E-02  0.23077681017E-01 -0.30173401061E-02  0.23923205442E-01  0.00000000000E+00 0. -1.
     999901    1    3    3    0    0 -0.10880328298E+00 -0.35736885626E-03 -0.54728008110E-01  0.88838811168E+00  0.88000000000E+00 0.  1.
        -11    1    4    4    0    0  0.41662139615E-01  0.13835746351E-02  0.19326655937E-01  0.45950287342E-01  0.51100000000E-03 0. -1.
         11    1    4    4    0    0  0.72676128116E-01 -0.24103886796E-01  0.38418692279E-01  0.85668395538E-01  0.51100000000E-03 0.  1.
</event>
<event>
 8    1  0.1092667E+005  0.1043930E+01  0.7957747E-01            NaN
         13   -1    0    0    0    0  0.00000000000E+00  0.00000000000E+00  0.74505805969E-08  0.10566000000E+00  0.10566000000E+00 0.  1.
     999900   -1    0    0    0    0 -0.00000000000E+00 -0.00000000000E+00 -0.74505805969E-08  0.93827000000E+00  0.93827000000E+00 0. -1.
     999902    2    1    2    0    0  0.20766829179E-01 -0.57902106254E-02 -0.12106839122E-01  0.10192042384E+01  0.10189042724E+01 0.  0.
     999903    2    3    3    0    0  0.65011431895E-01  0.10840392421E+00  0.22738413167E-01  0.13004054317E+00  0.20386524343E-01 0.  0.
         14    1    1    2    0    0 -0.20766829179E-01  0.57902106254E-02  0.12106839122E-01  0.24725761601E-01  0.00000000000E+00 0. -1.
     999901    1    3    3    0    0 -0.44244602716E-01 -0.11419413483E+00 -0.34845252289E-01  0.88916369523E+00  0.88000000000E+00 0. -1.
        -11    1    4    4    0    0  0.53312271413E-01  0.89950704399E-01  0.10754730463E-01  0.10511542633E+00  0.51100000000E-03 0.  1.
         11    1    4    4    0    0  0.11699160482E-01  0.18453219809E-01  0.11983682704E-01  0.24925116839E-01  0.51100000000E-03 0. -1.
</event>
<event>
 8    1  0.1092667E+005  0.1043930E+01  0.7957747E-01            NaN
         13   -1    0    0    0    0  0.00000000000E+00  0.00000000000E+00  0.74505805969E-08  0.10566000000E+00  0.10566000000E+00 0. -1.
     999900   -1    0    0    0    0 -0.00000000000E+00 -0.00000000000E+00 -0.74505805969E-08  0.93827000000E+00  0.93827000000E+00 0.  1.
     999902    2    1    2    0    0 -0.15994968089E-01  0.11887804489E-01 -0.10315314579E-01  0.10214897546E+01  0.10212432394E+01 0.  0.
     999903    2    3    3    0    0 -0.10873633975E+00  0.47195917516E-01  0.57743884338E-01  0.13330076601E+00  0.19588053200E-01 0.  0.
         14    1    1    2    0    0  0.15994968089E-01 -0.11887804489E-01  0.10315314579E-01  0.22440245422E-01  0.00000000000E+00 0.  1.
     999901    1    3    3    0    0  0.92741371656E-01 -0.35308113027E-01 -0.68059198917E-01  0.88818898857E+00  0.88000000000E+00 0. -1.
        -11    1    4    4    0    0 -0.54920517137E-01  0.15797560707E-01  0.20527748055E-01  0.60724588826E-01  0.51100000000E-03 0. -1.
         11    1    4    4    0    0 -0.53815822608E-01  0.31398356809E-01  0.37216136283E-01  0.72576177181E-01  0.51100000000E-03 0.  1.
</event>
<event>
 8    1  0.1092667E+005  0.1043930E+01  0.7957747E-01            NaN
         13   -1    0    0    0    0  0.00000000000E+00  0.00000000000E+00  0.74505805969E-08  0.10566000000E+00  0.10566000000E+00 0.  1.
     999900   -1    0    0    0    0 -0.00000000000E+00 -0.00000000000E+00 -0.74505805969E-08  0.93827000000E+00  0.93827000000E+00 0. -1.
     999902    2    1    2    0    0 -0.18981099684E-01 -0.14011752038E-01 -0.10383909645E-02  0.10203145475E+01  0.10200412179E+01 0.  0.
     999903    2    3    3    0    0  0.46304918350E-01  0.31770977189E-01 -0.11496557525E+00  0.12939495195E+00  0.19298436257E-01 0.  0.
         14    1    1    2    0    0  0.18981099684E-01  0.14011752038E-01  0.10383909645E-02  0.23615452487E-01  0.00000000000E+00 0.  1.
     999901    1    3    3    0    0 -0.65286018034E-01 -0.45782729227E-01  0.11392718428E+00  0.89091959557E+00  0.88000000000E+00 0. -1.
        -11    1    4    4    0    0  0.23038235614E-01  0.24715491207E-01 -0.53319145369E-01  0.63125337145E-01  0.51100000000E-03 0.  1.
         11    1    4    4    0    0  0.23266682737E-01  0.70554859822E-02 -0.61646429880E-01  0.66269614801E-01  0.51100000000E-03 0. -1.
</event>
<event>
 8    1  0.1092667E+005  0.1043930E+01  0.7957747E-01            NaN
         13   -1    0    0    0    0  0.00000000000E+00  0.00000000000E+00  0.74505805969E-08  0.10566000000E+00  0.10566000000E+00 0.  1.
     999900   -1    0    0    0    0 -0.00000000000E+00 -0.00000000000E+00 -0.74505805969E-08  0.93827000000E+00  0.93827000000E+00 0.  1.
     999902    2    1    2    0    0  0.25173821199E-02 -0.24413516721E-01  0.11191245279E-02  0.10193615354E+01  0.10190654201E+01 0.  0.
     999903    2    3    3    0    0  0.29191905889E-01 -0.12427110012E+00 -0.24445074027E-01  0.13294369072E+00  0.27946190476E-01 0.  0.
         14    1    1    2    0    0 -0.25173821199E-02  0.24413516721E-01 -0.11191245279E-02  0.24568464566E-01  0.00000000000E+00 0. -1.
     999901    1    3    3    0    0 -0.26674523769E-01  0.99857583404E-01  0.25564198555E-01  0.88641784472E+00  0.88000000000E+00 0. -1.
        -11    1    4    4    0    0  0.35052072654E-02 -0.73238845584E-01 -0.99266114604E-02  0.73993335622E-01  0.51100000000E-03 0.  1.
         11    1    4    4    0    0  0.25686698624E-01 -0.51032254541E-01 -0.14518462567E-01  0.58950355097E-01  0.51100000000E-03 0. -1.
</event>
<event>
 8    1  0.1092667E+005  0.1043930E+01  0.7957747E-01            NaN
         13   -1    0    0    0    0  0.00000000000E+00  0.00000000000E+00  0.74505805969E-08  0.10566000000E+00  0.10566000000E+00 0. -1.
     999900   -1    0    0    0    0 -0.00000000000E+00 -0.00000000000E+00 -0.74505805969E-08  0.93827000000E+00  0.93827000000E+00 0. -1.
     999902    2    1    2    0    0 -0.12848320777E-01 -0.14266585621E-02  0.15382012803E-01  0.10238371899E+01  0.10236400101E+01 0.  0.
     999903    2    3    3    0    0 -0.34465092033E-01 -0.10660890959E+00  0.73492421089E-01  0.13540744572E+00  0.19512514598E-01 0.  0.
         14    1    1    2    0    0  0.12848320777E-01  0.14266585621E-02 -0.15382012803E-01  0.20092810139E-01  0.00000000000E+00 0.  1.
     999901    1    3    3    0    0  0.21616771257E-01  0.10518225102E+00 -0.58110408286E-01  0.88842974414E+00  0.88000000000E+00 0. -1.
        -11    1    4    4    0    0 -0.78770886641E-02 -0.53707973039E-01  0.30820927614E-01  0.62424238832E-01  0.51100000000E-03 0.  1.
         11    1    4    4    0    0 -0.26588003369E-01 -0.52900936546E-01  0.42671493475E-01  0.72983206884E-01  0.51100000000E-03 0. -1.
</event>
<event>
 8    1  0.1092667E+005  0.1043930E+01  0.7957747E-01            NaN
         13   -1    0    0    0    0  0.00000000000E+00  0.00000000000E+00  0.74505805969E-08  0.10566000000E+00  0.10566000000E+00 0.  1.
     999900   -1    0    0    0    0 -0.00000000000E+00 -0.00000000000E+00 -0.74505805969E-08  0.93827000000E+00  0.93827000000E+00 0.  1.
     999902    2    1    2    0    0  0.81947118216E-02 -0.13855906964E-01 -0.18066261041E-01  0.10197322884E+01  0.10194451485E+01 0.  0.
     999903    2    3    3    0    0  0.91927543326E-01  0.69897261345E-01  0.53550942231E-01  0.12891535765E+00  0.20375614307E-01 0.  0.
         14    1    1    2    0    0 -0.81947118216E-02  0.13855906964E-01  0.18066261041E-01  0.24197711620E-01  0.00000000000E+00 0.  1.
     999901    1    3    3    0    0 -0.83732831504E-01 -0.83753168309E-01 -0.71617203272E-01  0.89081693073E+00  0.88000000000E+00 0.  1.
        -11    1    4    4    0    0  0.42683140997E-01  0.42443812707E-01  0.34609979848E-01  0.69436586816E-01  0.51100000000E-03 0.  1.
         11    1    4    4    0    0  0.49244402329E-01  0.27453448638E-01  0.18940962383E-01  0.59478770833E-01  0.51100000000E-03 0. -1.
</event>
<event>
 8    1  0.1092667E+005  0.1043930E+01  0.7957747E-01            NaN
         13   -1    0    0    0    0  0.00000000000E+00  0.00000000000E+00  0.74505805969E-08  0.10566000000E+00  0.10566000000E+00 0.  1.
     999900   -1    0    0    0    0 -0.00000000000E+00 -0.00000000000E+00 -0.74505805969E-08  0.93827000000E+00  0.93827000000E+00 0. -1.
     999902    2    1    2    0    0  0.11961742123E-01 -0.15682185833E-01  0.17425740274E-01  0.10176113630E+01  0.10172709647E+01 0.  0.
     999903    2    3    3    0    0 -0.11830973145E-01  0.12273728438E+00 -0.14154393019E-01  0.12591447068E+00  0.21205994004E-01 0.  0.
         14    1    1    2    0    0 -0.11961742123E-01  0.15682185833E-01 -0.17425740274E-01  0.26318636956E-01  0.00000000000E+00 0. -1.
     999901    1    3    3    0    0  0.23792715268E-01 -0.13841947021E+00  0.31580133293E-01  0.89169689236E+00  0.88000000000E+00 0. -1.
        -11    1    4    4    0    0 -0.80371779786E-02  0.38624833876E-01  0.43839761041E-02  0.39698292020E-01  0.51100000000E-03 0.  1.
         11    1    4    4    0    0 -0.37937951660E-02  0.84112450506E-01 -0.18538369124E-01  0.86216178660E-01  0.51100000000E-03 0. -1.
</event>
<event>
 8    1  0.1092667E+005  0.1043930E+01  0.7957747E-01            NaN
         13   -1    0    0    0    0  0.00000000000E+00  0.00000000000E+00  0.74505805969E-08  0.10566000000E+00  0.10566000000E+00 0.  1.
     999900   -1    0    0    0    0 -0.00000000000E+00 -0.00000000000E+00 -0.74505805969E-08  0.93827000000E+00  0.93827000000E+00 0.  1.
     999902    2    1    2    0    0 -0.23868597722E-02 -0.11182080590E-01  0.19524982533E-01  0.10213034455E+01  0.10210527738E+01 0.  0.
     999903    2    3    3    0    0 -0.30403341283E-02 -0.83901962595E-01  0.10310923119E+00  0.13435647138E+00  0.19270829925E-01 0.  0.
         14    1    1    2    0    0  0.23868597722E-02  0.11182080590E-01 -0.19524982533E-01  0.22626554506E-01  0.00000000000E+00 0. -1.
     999901    1    3    3    0    0  0.65347435609E-03  0.72719882005E-01 -0.83584248658E-01  0.88694697411E+00  0.88000000000E+00 0.  1.
        -11    1    4    4    0    0  0.66737457958E-02 -0.58979877465E-01  0.69459879865E-01  0.91367942193E-01  0.51100000000E-03 0. -1.
         11    1    4    4    0    0 -0.97140799241E-02 -0.24922085130E-01  0.33649351325E-01  0.42988529187E-01  0.51100000000E-03 0.  1.
</event>
<event>
 8    1  0.1092667E+005  0.1043930E+01  0.7957747E-01            NaN
         13   -1    0    0    0    0  0.00000000000E+00  0.00000000000E+00  0.74505805969E-08  0.10566000000E+00  0.10566000000E+00 0.  1.
     999900   -1    0    0    0    0 -0.00000000000E+00 -0.00000000000E+00 -0.74505805969E-08  0.93827000000E+00  0.93827000000E+00 0.  1.
     999902    2    1    2    0    0 -0.19218078542E-02 -0.20256771933E-01  0.11909616797E-01  0.10203531230E+01  0.10200806961E+01 0.  0.
     999903    2    3    3    0    0 -0.70028391576E-02  0.12448623035E+00 -0.20523020601E-01  0.12792484606E+00  0.19942681924E-01 0.  0.
         14    1    1    2    0    0  0.19218078542E-02  0.20256771933E-01 -0.11909616797E-01  0.23576876953E-01  0.00000000000E+00 0. -1.
     999901    1    3    3    0    0  0.50810313034E-02 -0.14474300229E+00  0.32432637398E-01  0.89242827698E+00  0.88000000000E+00 0.  1.
        -11    1    4    4    0    0 -0.14040720582E-01  0.82202168948E-01 -0.14083415152E-01  0.84575067943E-01  0.51100000000E-03 0.  1.
         11    1    4    4    0    0  0.70378814249E-02  0.42284061405E-01 -0.64396054491E-02  0.43349778122E-01  0.51100000000E-03 0. -1.
</event>
<event>
 8    1  0.1092667E+005  0.1043930E+01  0.7957747E-01            NaN
         13   -1    0    0    0    0  0.00000000000E+00  0.00000000000E+00  0.74505805969E-08  0.10566000000E+00  0.10566000000E+00 0.  1.
     999900   -1    0    0    0    0 -0.00000000000E+00 -0.00000000000E+00 -0.74505805969E-08  0.93827000000E+00  0.93827000000E+00 0.  1.
     999902    2    1    2    0    0 -0.15263356088E-01 -0.10235908713E-01  0.13519573025E-01  0.10211150330E+01  0.10208601216E+01 0.  0.
     999903    2    3    3    0    0  0.11606646689E+00  0.27614049741E-01  0.47201073734E-01  0.12992785551E+00  0.20477934369E-01 0.  0.
         14    1    1    2    0    0  0.15263356088E-01  0.10235908713E-01 -0.13519573025E-01  0.22814967040E-01  0.00000000000E+00 0. -1.
     999901    1    3    3    0    0 -0.13132982298E+00 -0.37849958454E-01 -0.33681500709E-01  0.89118717745E+00  0.88000000000E+00 0.  1.
        -11    1    4    4    0    0  0.87624197102E-01  0.29146899220E-01  0.39328378923E-01  0.10037192915E+00  0.51100000000E-03 0.  1.
         11    1    4    4    0    0  0.28442269792E-01 -0.15328494787E-02  0.78726948106E-02  0.29555926360E-01  0.51100000000E-03 0. -1.
</event>
<event>
 8    1  0.1092667E+005  0.1043930E+01  0.7957747E-01            NaN
         13   -1    0    0    0    0  0.00000000000E+00  0.00000000000E+00  0.74505805969E-08  0.10566000000E+00  0.10566000000E+00 0. -1.
     999900   -1    0    0    0    0 -0.00000000000E+00 -0.00000000000E+00 -0.74505805969E-08  0.93827000000E+00  0.93827000000E+00 0.  1.
     999902    2    1    2    0    0 -0.11507060360E-01 -0.24510713378E-01 -0.26754594396E-02  0.10167207076E+01  0.10163565574E+01 0.  0.
     999903    2    3    3    0    0  0.11772663851E+00  0.26510351007E-02  0.39686165325E-01  0.12585954181E+00  0.19976064251E-01 0.  0.
         14    1    1    2    0    0  0.11507060360E-01  0.24510713378E-01  0.26754594396E-02  0.27209292376E-01  0.00000000000E+00 0. -1.
     999901    1    3    3    0    0 -0.12923369887E+00 -0.27161748478E-01 -0.42361624765E-01  0.89086116582E+00  0.88000000000E+00 0. -1.
        -11    1    4    4    0    0  0.19460830568E-01  0.31769117943E-02 -0.40072254369E-03  0.19729125538E-01  0.51100000000E-03 0.  1.
         11    1    4    4    0    0  0.98265807946E-01 -0.52587669359E-03  0.40086887869E-01  0.10613041627E+00  0.51100000000E-03 0. -1.
</event>
<event>
 8    1  0.1092667E+005  0.1043930E+01  0.7957747E-01            NaN
         13   -1    0    0    0    0  0.00000000000E+00  0.00000000000E+00  0.74505805969E-08  0.10566000000E+00  0.10566000000E+00 0.  1.
     999900   -1    0    0    0    0 -0.00000000000E+00 -0.00000000000E+00 -0.74505805969E-08  0.93827000000E+00  0.93827000000E+00 0. -1.
     999902    2    1    2    0    0  0.17742267726E-02 -0.22208355585E-01  0.64323001407E-02  0.10207409202E+01  0.10204774827E+01 0.  0.
     999903    2    3    3    0    0 -0.50269688906E-01  0.21236394371E-01  0.11761198515E+00  0.13115846878E+00  0.19797444622E-01 0.  0.
         14    1    1    2    0    0 -0.17742267726E-02  0.22208355585E-01 -0.64323001407E-02  0.23189079834E-01  0.00000000000E+00 0. -1.
     999901    1    3    3    0    0  0.52043915678E-01 -0.43444749956E-01 -0.11117968501E+00  0.88958245139E+00  0.88000000000E+00 0. -1.
        -11    1    4    4    0    0 -0.27068017911E-01  0.21787985637E-01  0.73977595318E-01  0.81733344736E-01  0.51100000000E-03 0. -1.
         11    1    4    4    0    0 -0.23201670995E-01 -0.55159126511E-03  0.43634389829E-01  0.49425124043E-01  0.51100000000E-03 0.  1.
</event>
<event>
 8    1  0.1092667E+005  0.1043930E+01  0.7957747E-01            NaN
         13   -1    0    0    0    0  0.00000000000E+00  0.00000000000E+00  0.74505805969E-08  0.10566000000E+00  0.10566000000E+00 0. -1.
     999900   -1    0    0    0    0 -0.00000000000E+00 -0.00000000000E+00 -0.74505805969E-08  0.93827000000E+00  0.93827000000E+00 0. -1.
     999902    2    1    2    0    0 -0.18339398086E-01 -0.33989365253E-03 -0.14846651450E-01  0.10203318622E+01  0.10200589379E+01 0.  0.
     999903    2    3    3    0    0 -0.66392265054E-01 -0.10854308886E+00  0.26097903429E-01  0.13145984323E+00  0.20274486941E-01 0.  0.
         14    1    1    2    0    0  0.18339398086E-01  0.33989365253E-03  0.14846651450E-01  0.23598137832E-01  0.00000000000E+00 0.  1.
     999901    1    3    3    0    0  0.48052866968E-01  0.10820319521E+00 -0.40944554878E-01  0.88887201894E+00  0.88000000000E+00 0. -1.
        -11    1    4    4    0    0 -0.35926923642E-01 -0.64335178926E-01  0.24810315697E-01  0.77753276303E-01  0.51100000000E-03 0.  1.
         11    1    4    4    0    0 -0.30465341412E-01 -0.44207909933E-01  0.12875877320E-02  0.53706566928E-01  0.51100000000E-03 0. -1.
</event>
<event>
 8    1  0.1092667E+005  0.1043930E+01  0.7957747E-01            NaN
         13   -1    0    0    0    0  0.00000000000E+00  0.00000000000E+00  0.74505805969E-08  0.10566000000E+00  0.10566000000E+00 0. -1.
     999900   -1    0    0    0    0 -0.00000000000E+00 -0.00000000000E+00 -0.74505805969E-08  0.93827000000E+00  0.93827000000E+00 0. -1.
     999902    2    1    2    0    0 -0.57966697588E-02  0.19672694950E-01  0.12996882232E-01  0.10196496529E+01  0.10193605248E+01 0.  0.
     999903    2    3    3    0    0  0.11644604455E+00 -0.25142037786E-01  0.46030643178E-01  0.12945704969E+00  0.21177918849E-01 0.  0.
         14    1    1    2    0    0  0.57966697588E-02 -0.19672694950E-01 -0.12996882232E-01  0.24280347086E-01  0.00000000000E+00 0.  1.
     999901    1    3    3    0    0 -0.12224271431E+00  0.44814732736E-01 -0.33033760946E-01  0.89019260322E+00  0.88000000000E+00 0. -1.
        -11    1    4    4    0    0  0.27948445839E-01 -0.15328776296E-03  0.18286821542E-01  0.33403713641E-01  0.51100000000E-03 0. -1.
         11    1    4    4    0    0  0.88497598715E-01 -0.24988750023E-01  0.27743821636E-01  0.96053336048E-01  0.51100000000E-03 0.  1.
</event>
<event>
 8    1  0.1092667E+005  0.1043930E+01  0.7957747E-01            NaN
         13   -1    0    0    0    0  0.00000000000E+00  0.00000000000E+00  0.74505805969E-08  0.10566000000E+00  0.10566000000E+00 0.  1.
     999900   -1    0    0    0    0 -0.00000000000E+00 -0.00000000000E+00 -0.74505805969E-08  0.93827000000E+00  0.93827000000E+00 0. -1.
     999902    2    1    2    0    0 -0.13001769841E-01 -0.19295019558E-01 -0.19805071999E-03  0.10206623610E+01  0.10203971150E+01 0.  0.
     999903    2    3    3    0    0 -0.60269238278E-01 -0.62252974811E-01  0.98698050259E-01  0.13282226379E+00  0.19815011433E-01 0.  0.
         14    1    1    2    0    0  0.13001769841E-01  0.19295019558E-01  0.19805071999E-03  0.23267638961E-01  0.00000000000E+00 0.  1.
     999901    1    3    3    0    0  0.47267468437E-01  0.42957955253E-01 -0.98896100979E-01  0.88784009725E+00  0.88000000000E+00 0.  1.
        -11    1    4    4    0    0 -0.55547803994E-01 -0.46838074509E-01  0.78351210302E-01  0.10685755485E+00  0.51100000000E-03 0.  1.
         11    1    4    4    0    0 -0.47214342848E-02 -0.15414900301E-01  0.20346839958E-01  0.25964708939E-01  0.51100000000E-03 0. -1.
</event>
<event>
 8    1  0.1092667E+005  0.1043930E+01  0.7957747E-01            NaN
         13   -1    0    0    0    0  0.00000000000E+00  0.00000000000E+00  0.74505805969E-08  0.10566000000E+00  0.10566000000E+00 0. -1.
     999900   -1    0    0    0    0 -0.00000000000E+00 -0.00000000000E+00 -0.74505805969E-08  0.93827000000E+00  0.93827000000E+00 0.  1.
     999902    2    1    2    0    0 -0.10397367751E-01 -0.52431940429E-02 -0.19181355893E-01  0.10214907319E+01  0.10212442384E+01 0.  0.
     999903    2    3    3    0    0 -0.12576254798E+00 -0.37826702052E-01 -0.10042254653E-01  0.13331601203E+00  0.20621210502E-01 0.  0.
         14    1    1    2    0    0  0.10397367751E-01  0.52431940429E-02  0.19181355893E-01  0.22439268121E-01  0.00000000000E+00 0. -1.
     999901    1    3    3    0    0  0.11536518023E+00  0.32583508009E-01 -0.91391012406E-02  0.88817471985E+00  0.88000000000E+00 0.  1.
        -11    1    4    4    0    0 -0.11483248233E+00 -0.28861705214E-01 -0.12099152055E-01  0.11902162672E+00  0.51100000000E-03 0. -1.
         11    1    4    4    0    0 -0.10930065649E-01 -0.89649968386E-02  0.20568974027E-02  0.14294385308E-01  0.51100000000E-03 0.  1.
</event>
<event>
 8    1  0.1092667E+005  0.1043930E+01  0.7957747E-01            NaN
         13   -1    0    0    0    0  0.00000000000E+00  0.00000000000E+00  0.74505805969E-08  0.10566000000E+00  0.10566000000E+00 0. -1.
     999900   -1    0    0    0    0 -0.00000000000E+00 -0.00000000000E+00 -0.74505805969E-08  0.93827000000E+00  0.93827000000E+00 0. -1.
     999902    2    1    2    0    0  0.11044227103E-01  0.15691690769E-01 -0.13283315115E-01  0.10205922501E+01  0.10203253845E+01 0.  0.
     999903    2    3    3    0    0  0.11267988873E+00 -0.50183641722E-01 -0.42278447805E-01  0.13182339099E+00  0.19359339901E-01 0.  0.
         14    1    1    2    0    0 -0.11044227103E-01 -0.15691690769E-01  0.13283315115E-01  0.23337749933E-01  0.00000000000E+00 0. -1.
     999901    1    3    3    0    0 -0.10163566163E+00  0.65875332491E-01  0.28995132690E-01  0.88876885908E+00  0.88000000000E+00 0. -1.
        -11    1    4    4    0    0  0.50198923693E-01 -0.18126073777E-01 -0.27566054865E-01  0.60071915172E-01  0.51100000000E-03 0. -1.
         11    1    4    4    0    0  0.62480965042E-01 -0.32057567945E-01 -0.14712392940E-01  0.71751475818E-01  0.51100000000E-03 0.  1.
</event>
<event>
 8    1  0.1092667E+005  0.1043930E+01  0.7957747E-01            NaN
         13   -1    0    0    0    0  0.00000000000E+00  0.00000000000E+00  0.74505805969E-08  0.10566000000E+00  0.10566000000E+00 0. -1.
     999900   -1    0    0    0    0 -0.00000000000E+00 -0.00000000000E+00 -0.74505805969E-08  0.93827000000E+00  0.93827000000E+00 0.  1.
     999902    2    1    2    0    0 -0.14809800555E-01 -0.45232666058E-03  0.19422895518E-01  0.10195008440E+01  0.10192081177E+01 0.  0.
     999903    2    3    3    0    0 -0.92398777419E-01 -0.82898075270E-01  0.40273681800E-01  0.13200317862E+00  0.19830400087E-01 0.  0.
         14    1    1    2    0    0  0.14809800555E-01  0.45232666058E-03 -0.19422895518E-01  0.24429155986E-01  0.00000000000E+00 0.  1.
     999901    1    3    3    0    0  0.77588976865E-01  0.82445748609E-01 -0.20850786281E-01  0.88749766540E+00  0.88000000000E+00 0. -1.
        -11    1    4    4    0    0 -0.18713755104E-01 -0.23100996582E-01  0.24113533359E-02  0.29831802143E-01  0.51100000000E-03 0. -1.
         11    1    4    4    0    0 -0.73685022315E-01 -0.59797078688E-01  0.37862328464E-01  0.10217137648E+00  0.51100000000E-03 0.  1.
</event>
<event>
 8    1  0.1092667E+005  0.1043930E+01  0.7957747E-01            NaN
         13   -1    0    0    0    0  0.00000000000E+00  0.00000000000E+00  0.74505805969E-08  0.10566000000E+00  0.10566000000E+00 0. -1.
     999900   -1    0    0    0    0 -0.00000000000E+00 -0.00000000000E+00 -0.74505805969E-08  0.93827000000E+00  0.93827000000E+00 0. -1.
     999902    2    1    2    0    0  0.16468411410E-01 -0.21048485018E-03 -0.17674887974E-01  0.10197710567E+01  0.10194848471E+01 0.  0.
     999903    2    3    3    0    0  0.32937783412E-01 -0.87023193959E-01 -0.91996676527E-01  0.13222871123E+00  0.19055438059E-01 0.  0.
         14    1    1    2    0    0 -0.16468411410E-01  0.21048485018E-03  0.17674887974E-01  0.24158943337E-01  0.00000000000E+00 0.  1.
     999901    1    3    3    0    0 -0.16469372001E-01  0.86812709109E-01  0.74321788553E-01  0.88754234543E+00  0.88000000000E+00 0.  1.
        -11    1    4    4    0    0  0.63149172083E-02 -0.43077894496E-01 -0.39966131266E-01  0.59102757490E-01  0.51100000000E-03 0.  1.
         11    1    4    4    0    0  0.26622866203E-01 -0.43945299464E-01 -0.52030545260E-01  0.73125953744E-01  0.51100000000E-03 0. -1.
</event>
<event>
 8    1  0.1092667E+005  0.1043930E+01  0.7957747E-01            NaN
         13   -1    0    0    0    0  0.00000000000E+00  0.00000000000E+00  0.74505805969E-08  0.10566000000E+00  0.10566000000E+00 0.  1.
     999900   -1    0    0    0    0 -0.00000000000E+00 -0.00000000000E+00 -0.74505805969E-08  0.93827000000E+00  0.93827000000E+00 0. -1.
     999902    2    1    2    0    0  0.84300772022E-02 -0.16707584627E-01  0.16220059791E-01  0.10191651070E+01  0.10188641791E+01 0.  0.
     999903    2    3    3    0    0  0.88007427944E-01  0.22848313065E-01 -0.88574016930E-01  0.12850298121E+00  0.20007671588E-01 0.  0.
         14    1    1    2    0    0 -0.84300772022E-02  0.16707584627E-01 -0.16220059791E-01  0.24764893001E-01  0.00000000000E+00 0. -1.
     999901    1    3    3    0    0 -0.79577350742E-01 -0.39555897692E-01  0.10479407672E+00  0.89066212579E+00  0.88000000000E+00 0.  1.
        -11    1    4    4    0    0  0.28918193342E-01  0.77015444855E-03 -0.37335857150E-01  0.47234334908E-01  0.51100000000E-03 0.  1.
         11    1    4    4    0    0  0.59089234602E-01  0.22078158616E-01 -0.51238159780E-01  0.81268646306E-01  0.51100000000E-03 0. -1.
</event>
<event>
 8    1  0.1092667E+005  0.1043930E+01  0.7957747E-01            NaN
         13   -1    0    0    0    0  0.00000000000E+00  0.00000000000E+00  0.74505805969E-08  0.10566000000E+00  0.10566000000E+00 0. -1.
     999900   -1    0    0    0    0 -0.00000000000E+00 -0.00000000000E+00 -0.74505805969E-08  0.93827000000E+00  0.93827000000E+00 0. -1.
     999902    2    1    2    0    0  0.14324584250E-01 -0.24524119461E-01  0.10415022209E-01  0.10136793994E+01  0.10132279240E+01 0.  0.
     999903    2    3    3    0    0 -0.59646684676E-01 -0.88826990931E-01 -0.61584051084E-01  0.12531546808E+00  0.21526957099E-01 0.  0.
         14    1    1    2    0    0 -0.14324584250E-01  0.24524119461E-01 -0.10415022209E-01  0.30250600603E-01  0.00000000000E+00 0.  1.
     999901    1    3    3    0    0  0.73971268926E-01  0.64302871470E-01  0.71999073293E-01  0.88836393131E+00  0.88000000000E+00 0. -1.
        -11    1    4    4    0    0 -0.54358382802E-01 -0.81271750690E-01 -0.48088476452E-01  0.10896189210E+00  0.51100000000E-03 0. -1.
         11    1    4    4    0    0 -0.52883018746E-02 -0.75552402410E-02 -0.13495574633E-01  0.16353575985E-01  0.51100000000E-03 0.  1.
</event>
<event>
 8    1  0.1092667E+005  0.1043930E+01  0.7957747E-01            NaN
         13   -1    0    0    0    0  0.00000000000E+00  0.00000000000E+00  0.74505805969E-08  0.10566000000E+00  0.10566000000E+00 0.  1.
     999900   -1    0    0    0    0 -0.00000000000E+00 -0.00000000000E+00 -0.74505805969E-08  0.93827000000E+00  0.93827000000E+00 0.  1.
     999902    2    1    2    0    0  0.20686130162E-01 -0.65188423812E-04 -0.80424657771E-02  0.10217353726E+01  0.10214942829E+01 0.  0.
     999903    2    3    3    0    0 -0.86410655964E-01  0.39261672334E-01  0.83325001662E-01  0.12967913126E+00  0.29416675591E-01 0.  0.
         14    1    1    2    0    0 -0.20686130162E-01  0.65188423812E-04  0.80424657771E-02  0.22194627421E-01  0.00000000000E+00 0.  1.
     999901    1    3    3    0    0  0.10709678613E+00 -0.39326860758E-01 -0.91367467439E-01  0.89205624132E+00  0.88000000000E+00 0.  1.
        -11    1    4    4    0    0 -0.98072383811E-02  0.14995641771E-01  0.83400310111E-02  0.19770392890E-01  0.51100000000E-03 0. -1.
         11    1    4    4    0    0 -0.76603417583E-01  0.24266030563E-01  0.74984970651E-01  0.10990873837E+00  0.51100000000E-03 0.  1.
</event>
<event>
 8    1  0.1092667E+005  0.1043930E+01  0.7957747E-01            NaN
         13   -1    0    0    0    0  0.00000000000E+00  0.00000000000E+00  0.74505805969E-08  0.10566000000E+00  0.10566000000E+00 0. -1.
     999900   -1    0    0    0    0 -0.00000000000E+00 -0.00000000000E+00 -0.74505805969E-08  0.93827000000E+00  0.93827000000E+00 0. -1.
     999902    2    1    2    0    0  0.32394759861E-02  0.20864370509E-01 -0.13331525834E-01  0.10189591021E+01  0.10186530842E+01 0.  0.
     999903    2    3    3    0    0 -0.69727528860E-01  0.24468587913E-01  0.10294311151E+00  0.12830935866E+00  0.20133733790E-01 0.  0.
         14    1    1    2    0    0 -0.32394759861E-02 -0.20864370509E-01  0.13331525834E-01  0.24970897911E-01  0.00000000000E+00 0. -1.
     999901    1    3    3    0    0  0.72967004846E-01 -0.36042174033E-02 -0.11627463735E+00  0.89064974343E+00  0.88000000000E+00 0. -1.
        -11    1    4    4    0    0 -0.14215576529E-01  0.28246509483E-02  0.35315326600E-01  0.38177148700E-01  0.51100000000E-03 0. -1.
         11    1    4    4    0    0 -0.55511952331E-01  0.21643936964E-01  0.67627784913E-01  0.90132209960E-01  0.51100000000E-03 0.  1.
</event>
<event>
 8    1  0.1092667E+005  0.1043930E+01  0.7957747E-01            NaN
         13   -1    0    0    0    0  0.00000000000E+00  0.00000000000E+00  0.74505805969E-08  0.10566000000E+00  0.10566000000E+00 0. -1.
     999900   -1    0    0    0    0 -0.00000000000E+00 -0.00000000000E+00 -0.74505805969E-08  0.93827000000E+00  0.93827000000E+00 0.  1.
     999902    2    1    2    0    0 -0.19952598872E-01 -0.10685863020E-02 -0.11498898619E-01  0.10208763073E+01  0.10206159719E+01 0.  0.
     999903    2    3    3    0    0  0.62277824521E-01  0.26489520899E-01 -0.11070694769E+00  0.13106535612E+00  0.18489920630E-01 0.  0.
         14    1    1    2    0    0  0.19952598872E-01  0.10685863020E-02  0.11498898619E-01  0.23053692717E-01  0.00000000000E+00 0. -1.
     999901    1    3    3    0    0 -0.82230423393E-01 -0.27558107201E-01  0.99208049069E-01  0.88981095116E+00  0.88000000000E+00 0.  1.
        -11    1    4    4    0    0  0.44946634844E-01  0.18893174057E-01 -0.93657530375E-01  0.10558951713E+00  0.51100000000E-03 0.  1.
         11    1    4    4    0    0  0.17331189677E-01  0.75963468425E-02 -0.17049417312E-01  0.25475838998E-01  0.51100000000E-03 0. -1.
</event>
<event>
 8    1  0.1092667E+005  0.1043930E+01  0.7957747E-01            NaN
         13   -1    0    0    0    0  0.00000000000E+00  0.00000000000E+00  0.74505805969E-08  0.10566000000E+00  0.10566000000E+00 0.  1.
     999900   -1    0    0    0    0 -0.00000000000E+00 -0.00000000000E+00 -0.74505805969E-08  0.93827000000E+00  0.93827000000E+00 0. -1.
     999902    2    1    2    0    0 -0.16029998530E-01 -0.20066156610E-01  0.22762587596E-01  0.10096116829E+01  0.10090282471E+01 0.  0.
     999903    2    3    3    0    0  0.43455578369E-01  0.95984861987E-01  0.52656798169E-01  0.11949930989E+00  0.20146107524E-01 0.  0.
         14    1    1    2    0    0  0.16029998530E-01  0.20066156610E-01 -0.22762587596E-01  0.34318317092E-01  0.00000000000E+00 0. -1.
     999901    1    3    3    0    0 -0.59485576899E-01 -0.11605101860E+00 -0.29894210573E-01  0.89011237302E+00  0.88000000000E+00 0.  1.
        -11    1    4    4    0    0  0.34564465939E-01  0.76038733466E-01  0.32038049222E-01  0.89461103345E-01  0.51100000000E-03 0.  1.
         11    1    4    4    0    0  0.88911124307E-02  0.19946128521E-01  0.20618748946E-01  0.30038206543E-01  0.51100000000E-03 0. -1.
</event>
<event>
 8    1  0.1092667E+005  0.1043930E+01  0.7957747E-01            NaN
         13   -1    0    0    0    0  0.00000000000E+00  0.00000000000E+00  0.74505805969E-08  0.10566000000E+00  0.10566000000E+00 0. -1.
     999900   -1    0    0    0    0 -0.00000000000E+00 -0.00000000000E+00 -0.74505805969E-08  0.93827000000E+00  0.93827000000E+00 0. -1.
     999902    2    1    2    0    0 -0.82949221445E-02 -0.20032655473E-01  0.52880582852E-02  0.10216123707E+01  0.10213685717E+01 0.  0.
     999903    2    3    3    0    0  0.94127397646E-01  0.77307345852E-01  0.40744744762E-01  0.12963558618E+00  0.17574363933E-01 0.  0.
         14    1    1    2    0    0  0.82949221445E-02  0.20032655473E-01 -0.52880582852E-02  0.22317629335E-01  0.00000000000E+00 0.  1.
     999901    1    3    3    0    0 -0.10242231979E+00 -0.97340001325E-01 -0.35456686477E-01  0.89197678449E+00  0.88000000000E+00 0. -1.
        -11    1    4    4    0    0  0.69593835172E-02  0.11116015660E-01  0.89739221479E-03  0.13155426898E-01  0.51100000000E-03 0. -1.
         11    1    4    4    0    0  0.87168014128E-01  0.66191330192E-01  0.39847352547E-01  0.11648015928E+00  0.51100000000E-03 0.  1.
</event>
<event>
 8    1  0.1092667E+005  0.1043930E+01  0.7957747E-01            NaN
         13   -1    0    0    0    0  0.00000000000E+00  0.00000000000E+00  0.74505805969E-08  0.10566000000E+00  0.10566000000E+00 0.  1.
     999900   -1    0    0    0    0 -0.00000000000E+00 -0.00000000000E+00 -0.74505805969E-08  0.93827000000E+00  0.93827000000E+00 0.  1.
     999902    2    1    2    0    0 -0.11954238692E-01 -0.16097760750E-01 -0.12457547307E-01  0.10203242336E+01  0.10200511308E+01 0.  0.
     999903    2    3    3    0    0 -0.18236282515E-02 -0.12464547872E+00  0.39294676848E-01  0.13208804367E+00  0.19061969077E-01 0.  0.
         14    1    1    2    0    0  0.11954238692E-01  0.16097760750E-01  0.12457547307E-01  0.23605766431E-01  0.00000000000E+00 0.  1.
     999901    1    3    3    0    0 -0.10130610440E-01  0.10854771797E+00 -0.51752224155E-01  0.88823618990E+00  0.88000000000E+00 0.  1.
        -11    1    4    4    0    0 -0.72580237155E-02 -0.29833571659E-01  0.14363466491E-01  0.33901197572E-01  0.51100000000E-03 0.  1.
         11    1    4    4    0    0  0.54343954639E-02 -0.94811907066E-01  0.24931210357E-01  0.98186846096E-01  0.51100000000E-03 0. -1.
</event>
<event>
 8    1  0.1092667E+005  0.1043930E+01  0.7957747E-01            NaN
         13   -1    0    0    0    0  0.00000000000E+00  0.00000000000E+00  0.74505805969E-08  0.10566000000E+00  0.10566000000E+00 0. -1.
     999900   -1    0    0    0    0 -0.00000000000E+00 -0.00000000000E+00 -0.74505805969E-08  0.93827000000E+00  0.93827000000E+00 0.  1.
     999902    2    1    2    0    0 -0.83840300938E-02  0.57209567455E-02  0.22152483569E-01  0.10195629354E+01  0.10192717133E+01 0.  0.
     999903    2    3    3    0    0 -0.46713055041E-01 -0.27603937284E-01  0.11963874501E+00  0.13272403582E+00  0.18924944182E-01 0.  0.
         14    1    1    2    0    0  0.83840300938E-02 -0.57209567455E-02 -0.22152483569E-01  0.24367064554E-01  0.00000000000E+00 0.  1.
     999901    1    3    3    0    0  0.38329024948E-01  0.33324894030E-01 -0.97486261442E-01  0.88683889962E+00  0.88000000000E+00 0.  1.
        -11    1    4    4    0    0 -0.17233642464E-01 -0.15120346042E-01  0.69949666659E-01  0.73612772559E-01  0.51100000000E-03 0.  1.
         11    1    4    4    0    0 -0.29479412577E-01 -0.12483591242E-01  0.49689078352E-01  0.59111263264E-01  0.51100000000E-03 0. -1.
</event>
<event>
 8    1  0.1092667E+005  0.1043930E+01  0.7957747E-01            NaN
         13   -1    0    0    0    0  0.00000000000E+00  0.00000000000E+00  0.74505805969E-08  0.10566000000E+00  0.10566000000E+00 0.  1.
     999900   -1    0    0    0    0 -0.00000000000E+00 -0.00000000000E+00 -0.74505805969E-08  0.93827000000E+00  0.93827000000E+00 0.  1.
     999902    2    1    2    0    0  0.24208977814E-01 -0.24435540260E-02 -0.29851983298E-02  0.10194155762E+01  0.10191207780E+01 0.  0.
     999903    2    3    3    0    0 -0.30150891827E-01 -0.11386457379E+00 -0.50835729728E-01  0.12943843472E+00  0.17199404739E-01 0.  0.
         14    1    1    2    0    0 -0.24208977814E-01  0.24435540260E-02  0.29851983298E-02  0.24514423758E-01  0.00000000000E+00 0.  1.
     999901    1    3    3    0    0  0.54359869641E-01  0.11142101977E+00  0.47850531399E-01  0.88997714152E+00  0.88000000000E+00 0. -1.
        -11    1    4    4    0    0 -0.26334503142E-01 -0.10157444664E+00 -0.39000704832E-01  0.11194726600E+00  0.51100000000E-03 0.  1.
         11    1    4    4    0    0 -0.38163886852E-02 -0.12290127149E-01 -0.11835024897E-01  0.17491168721E-01  0.51100000000E-03 0. -1.
</event>
<event>
 8    1  0.1092667E+005  0.1043930E+01  0.7957747E-01            NaN
         13   -1    0    0    0    0  0.00000000000E+00  0.00000000000E+00  0.74505805969E-08  0.10566000000E+00  0.10566000000E+00 0.  1.
     999900   -1    0    0    0    0 -0.00000000000E+00 -0.00000000000E+00 -0.74505805969E-08  0.93827000000E+00  0.93827000000E+00 0. -1.
     999902    2    1    2    0    0 -0.50138812756E-02 -0.80111100400E-03  0.23430455137E-01  0.10199557010E+01  0.10196739013E+01 0.  0.
     999903    2    3    3    0    0 -0.40575856655E-02 -0.80864937812E-01 -0.97261026255E-01  0.12811627345E+00  0.19961716496E-01 0.  0.
         14    1    1    2    0    0  0.50138812756E-02  0.80111100400E-03 -0.23430455137E-01  0.23974298994E-01  0.00000000000E+00 0. -1.
     999901    1    3    3    0    0 -0.95629561013E-03  0.80063826808E-01  0.12069148139E+00  0.89183942756E+00  0.88000000000E+00 0.  1.
        -11    1    4    4    0    0 -0.10858748443E-01 -0.51932029885E-01 -0.54727313435E-01  0.76224589881E-01  0.51100000000E-03 0.  1.
         11    1    4    4    0    0  0.68011627778E-02 -0.28932907927E-01 -0.42533712820E-01  0.51891683568E-01  0.51100000000E-03 0. -1.
</event>
<event>
 8    1  0.1092667E+005  0.1043930E+01  0.7957747E-01            NaN
         13   -1    0    0    0    0  0.00000000000E+00  0.00000000000E+00  0.74505805969E-08  0.10566000000E+00  0.10566000000E+00 0. -1.
     999900   -1    0    0    0    0 -0.00000000000E+00 -0.00000000000E+00 -0.74505805969E-08  0.93827000000E+00  0.93827000000E+00 0.  1.
     999902    2    1    2    0    0 -0.20358174500E-01 -0.11758736750E-01  0.69131672978E-03  0.10204097730E+01  0.10201386689E+01 0.  0.
     999903    2    3    3    0    0  0.70661095636E-01  0.11988616722E-01  0.10592217904E+00  0.12916234456E+00  0.18074453546E-01 0.  0.
         14    1    1    2    0    0  0.20358174500E-01  0.11758736750E-01 -0.69131672978E-03  0.23520226992E-01  0.00000000000E+00 0.  1.
     999901    1    3    3    0    0 -0.91019270137E-01 -0.23747353472E-01 -0.10523086231E+00  0.89124742845E+00  0.88000000000E+00 0.  1.
        -11    1    4    4    0    0  0.31475873454E-01 -0.37101411456E-02  0.45109187236E-01  0.55132528068E-01  0.51100000000E-03 0. -1.
         11    1    4    4    0    0  0.39185222182E-01  0.15698757868E-01  0.60812991808E-01  0.74029816491E-01  0.51100000000E-03 0.  1.
</event>
<event>
 8    1  0.1092667E+005  0.1043930E+01  0.7957747E-01            NaN
         13   -1    0    0    0    0  0.00000000000E+00  0.00000000000E+00  0.74505805969E-08  0.10566000000E+00  0.10566000000E+00 0. -1.
     999900   -1    0    0    0    0 -0.00000000000E+00 -0.00000000000E+00 -0.74505805969E-08  0.93827000000E+00  0.93827000000E+00 0.  1.
     999902    2    1    2    0    0  0.20337160164E-01  0.18864132918E-02  0.10931438811E-01  0.10207641848E+01  0.10205012817E+01 0.  0.
     999903    2    3    3    0    0 -0.12871574308E-01 -0.12820312320E+00  0.49981542989E-02  0.13056122402E+00  0.20482515646E-01 0.  0.
         14    1    1    2    0    0 -0.20337160164E-01 -0.18864132918E-02 -0.10931438811E-01  0.23165815184E-01  0.00000000000E+00 0.  1.
     999901    1    3    3    0    0  0.33208734472E-01  0.13008953649E+00  0.59332845123E-02  0.89020296080E+00  0.88000000000E+00 0. -1.
        -11    1    4    4    0    0 -0.16077632729E-02 -0.57392734279E-01  0.11523368134E-01  0.58562445175E-01  0.51100000000E-03 0. -1.
         11    1    4    4    0    0 -0.11263811036E-01 -0.70810388921E-01 -0.65252138356E-02  0.71998778842E-01  0.51100000000E-03 0.  1.
</event>
<event>
 8    1  0.1092667E+005  0.1043930E+01  0.7957747E-01            NaN
         13   -1    0    0    0    0  0.00000000000E+00  0.00000000000E+00  0.74505805969E-08  0.10566000000E+00  0.10566000000E+00 0.  1.
     999900   -1    0    0    0    0 -0.00000000000E+00 -0.00000000000E+00 -0.74505805969E-08  0.93827000000E+00  0.93827000000E+00 0. -1.
     999902    2    1    2    0    0  0.15027183854E-01 -0.12554131333E-01 -0.12837166009E-01  0.10205160021E+01  0.10202473696E+01 0.  0.
     999903    2    3    3    0    0 -0.58010880670E-01 -0.51829725534E-02  0.11298569821E+00  0.12854050576E+00  0.19098904164E-01 0.  0.
         14    1    1    2    0    0 -0.15027183854E-01  0.12554131333E-01  0.12837166009E-01  0.23413997934E-01  0.00000000000E+00 0.  1.
     999901    1    3    3    0    0  0.73038064524E-01 -0.73711587795E-02 -0.12582286422E+00  0.89197549631E+00  0.88000000000E+00 0. -1.
        -11    1    4    4    0    0 -0.51149215932E-01  0.11762581216E-02  0.87163456779E-01  0.10107104032E+00  0.51100000000E-03 0.  1.
         11    1    4    4    0    0 -0.68616647382E-02 -0.63592306750E-02  0.25822241431E-01  0.27469465435E-01  0.51100000000E-03 0. -1.
</event>
<event>
 8    1  0.1092667E+005  0.1043930E+01  0.7957747E-01            NaN
         13   -1    0    0    0    0  0.00000000000E+00  0.00000000000E+00  0.74505805969E-08  0.10566000000E+00  0.10566000000E+00 0.  1.
     999900   -1    0    0    0    0 -0.00000000000E+00 -0.00000000000E+00 -0.74505805969E-08  0.93827000000E+00  0.93827000000E+00 0.  1.
     999902    2    1    2    0    0 -0.24475560917E-01  0.21093603233E-02  0.27732756175E-02  0.10192076712E+01  0.10189077895E+01 0.  0.
     999903    2    3    3    0    0 -0.10237955319E-01 -0.40880765490E-01 -0.12067081735E+00  0.12943842898E+00  0.20415876698E-01 0.  0.
         14    1    1    2    0    0  0.24475560917E-01 -0.21093603233E-02 -0.27732756175E-02  0.24722328790E-01  0.00000000000E+00 0. -1.
     999901    1    3    3    0    0 -0.14237605598E-01  0.42990125813E-01  0.12344409296E+00  0.88976924223E+00  0.88000000000E+00 0. -1.
        -11    1    4    4    0    0  0.35468681068E-02 -0.72841947027E-02 -0.95550682435E-02  0.12537951028E-01  0.51100000000E-03 0.  1.
         11    1    4    4    0    0 -0.13784823425E-01 -0.33596570787E-01 -0.11111574910E+00  0.11690047795E+00  0.51100000000E-03 0. -1.
</event>
<event>
 8    1  0.1092667E+005  0.1043930E+01  0.7957747E-01            NaN
         13   -1    0    0    0    0  0.00000000000E+00  0.00000000000E+00  0.74505805969E-08  0.10566000000E+00  0.10566000000E+00 0. -1.
     999900   -1    0    0    0    0 -0.00000000000E+00 -0.00000000000E+00 -0.74505805969E-08  0.93827000000E+00  0.93827000000E+00 0. -1.
     999902    2    1    2    0    0  0.10130785893E-01 -0.18938366308E-01  0.91278905993E-02  0.10205930566E+01  0.10203262097E+01 0.  0.
     999903    2    3    3    0    0  0.11122456964E+00 -0.35337183881E-01  0.61367169045E-01  0.13311470950E+00  0.18274982709E-01 0.  0.
         14    1    1    2    0    0 -0.10130785893E-01  0.18938366308E-01 -0.91278905993E-02  0.23336943416E-01  0.00000000000E+00 0.  1.
     999901    1    3    3    0    0 -0.10109378374E+00  0.16398817574E-01 -0.52239278445E-01  0.88747834708E+00  0.88000000000E+00 0. -1.
        -11    1    4    4    0    0  0.80283039035E-01 -0.28609389071E-01  0.52979483751E-01  0.10035412458E+00  0.51100000000E-03 0. -1.
         11    1    4    4    0    0  0.30941530602E-01 -0.67277948101E-02  0.83876852933E-02  0.32760584925E-01  0.51100000000E-03 0.  1.
</event>
<event>
 8    1  0.1092667E+005  0.1043930E+01  0.7957747E-01            NaN
         13   -1    0    0    0    0  0.00000000000E+00  0.00000000000E+00  0.74505805969E-08  0.10566000000E+00  0.10566000000E+00 0.  1.
     999900   -1    0    0    0    0 -0.00000000000E+00 -0.00000000000E+00 -0.74505805969E-08  0.93827000000E+00  0.93827000000E+00 0. -1.
     999902    2    1    2    0    0 -0.24815621142E-02  0.23049155963E-01  0.24514327318E-02  0.10206183878E+01  0.10203521266E+01 0.  0.
     999903    2    3    3    0    0  0.34511169620E-02  0.11931324013E+00  0.56526989126E-01  0.13369892337E+00  0.20797647254E-01 0.  0.
         14    1    1    2    0    0  0.24815621142E-02 -0.23049155963E-01 -0.24514327318E-02  0.23311612204E-01  0.00000000000E+00 0. -1.
     999901    1    3    3    0    0 -0.59326790762E-02 -0.96264084168E-01 -0.54075556395E-01  0.88691946443E+00  0.88000000000E+00 0.  1.
        -11    1    4    4    0    0  0.32053720844E-02  0.85039208778E-01  0.50313005963E-01  0.98861525023E-01  0.51100000000E-03 0.  1.
         11    1    4    4    0    0  0.24574487755E-03  0.34274031353E-01  0.62139831634E-02  0.34837398345E-01  0.51100000000E-03 0. -1.
</event>
<event>
 8    1  0.1092667E+005  0.1043930E+01  0.7957747E-01            NaN
         13   -1    0    0    0    0  0.00000000000E+00  0.00000000000E+00  0.74505805969E-08  0.10566000000E+00  0.10566000000E+00 0.  1.
     999900   -1    0    0    0    0 -0.00000000000E+00 -0.00000000000E+00 -0.74505805969E-08  0.93827000000E+00  0.93827000000E+00 0. -1.
     999902    2    1    2    0    0  0.91942532463E-03  0.13916265746E-01  0.19402239329E-01  0.10200353419E+01  0.10197554334E+01 0.  0.
     999903    2    3    3    0    0 -0.10930150825E+00  0.64470217780E-01  0.29198971448E-01  0.13166586232E+00  0.19495914502E-01 0.  0.
         14    1    1    2    0    0 -0.91942532463E-03 -0.13916265746E-01 -0.19402239329E-01  0.23894658111E-01  0.00000000000E+00 0. -1.
     999901    1    3    3    0    0  0.11022093357E+00 -0.50553952034E-01 -0.97967321194E-02  0.88836947957E+00  0.88000000000E+00 0.  1.
        -11    1    4    4    0    0 -0.86494195046E-01  0.57077703101E-01  0.17935552629E-01  0.10517155099E+00  0.51100000000E-03 0.  1.
         11    1    4    4    0    0 -0.22807313200E-01  0.73925146795E-02  0.11263418820E-01  0.26494311337E-01  0.51100000000E-03 0. -1.
</event>
<event>
 8    1  0.1092667E+005  0.1043930E+01  0.7957747E-01            NaN
         13   -1    0    0    0    0  0.00000000000E+00  0.00000000000E+00  0.74505805969E-08  0.10566000000E+00  0.10566000000E+00 0. -1.
     999900   -1    0    0    0    0 -0.00000000000E+00 -0.00000000000E+00 -0.74505805969E-08  0.93827000000E+00  0.93827000000E+00 0. -1.
     999902    2    1    2    0    0  0.14819892584E-02  0.17224611074E-01 -0.14359133499E-01  0.10214562768E+01  0.10212090174E+01 0.  0.
     999903    2    3    3    0    0  0.10876552790E-01 -0.12510980417E+00  0.23007994367E-01  0.12918745755E+00  0.19729898238E-01 0.  0.
         14    1    1    2    0    0 -0.14819892584E-02 -0.17224611074E-01  0.14359133499E-01  0.22473723182E-01  0.00000000000E+00 0. -1.
     999901    1    3    3    0    0 -0.93945635315E-02  0.14233441524E+00 -0.37367127865E-01  0.89226881926E+00  0.88000000000E+00 0. -1.
        -11    1    4    4    0    0  0.11866424273E-01 -0.76162198857E-01  0.58370913955E-02  0.77303462515E-01  0.51100000000E-03 0.  1.
         11    1    4    4    0    0 -0.98987148353E-03 -0.48947605312E-01  0.17170902971E-01  0.51883995039E-01  0.51100000000E-03 0. -1.
</event>
<event>
 8    1  0.1092667E+005  0.1043930E+01  0.7957747E-01            NaN
         13   -1    0    0    0    0  0.00000000000E+00  0.00000000000E+00  0.74505805969E-08  0.10566000000E+00  0.10566000000E+00 0. -1.
     999900   -1    0    0    0    0 -0.00000000000E+00 -0.00000000000E+00 -0.74505805969E-08  0.93827000000E+00  0.93827000000E+00 0. -1.
     999902    2    1    2    0    0 -0.20802672017E-02  0.19885584912E-01 -0.13672905100E-01  0.10197078545E+01  0.10194201274E+01 0.  0.
     999903    2    3    3    0    0  0.71137546892E-01  0.59376063953E-01 -0.93046955714E-01  0.13222794704E+00  0.15505691256E-01 0.  0.
         14    1    1    2    0    0  0.20802672017E-02 -0.19885584912E-01  0.13672905100E-01  0.24222145504E-01  0.00000000000E+00 0. -1.
     999901    1    3    3    0    0 -0.73217814094E-01 -0.39490479041E-01  0.79374050613E-01  0.88747990746E+00  0.88000000000E+00 0.  1.
        -11    1    4    4    0    0  0.59676247823E-01  0.53909320517E-01 -0.85799873998E-01  0.11759825208E+00  0.51100000000E-03 0.  1.
         11    1    4    4    0    0  0.11461299069E-01  0.54667434358E-02 -0.72470817154E-02  0.14629694957E-01  0.51100000000E-03 0. -1.
</event>
<event>
 8    1  0.1092667E+005  0.1043930E+01  0.7957747E-01            NaN
         13   -1    0    0    0    0  0.00000000000E+00  0.00000000000E+00  0.74505805969E-08  0.10566000000E+00  0.10566000000E+00 0. -1.
     999900   -1    0    0    0    0 -0.00000000000E+00 -0.00000000000E+00 -0.74505805969E-08  0.93827000000E+00  0.93827000000E+00 0.  1.
     999902    2    1    2    0    0  0.12374749092E-01 -0.14551326540E-01  0.13909129976E-01  0.10203007932E+01  0.10200271414E+01 0.  0.
     999903    2    3    3    0    0  0.42239496514E-01 -0.71990133719E-01  0.10238166501E+00  0.13349838610E+00  0.19314744207E-01 0.  0.
         14    1    1    2    0    0 -0.12374749092E-01  0.14551326540E-01 -0.13909129976E-01  0.23629206839E-01  0.00000000000E+00 0.  1.
     999901    1    3    3    0    0 -0.29864747422E-01  0.57438807179E-01 -0.88472535031E-01  0.88680240706E+00  0.88000000000E+00 0.  1.
        -11    1    4    4    0    0  0.65246649617E-02 -0.58464790797E-02  0.38942270065E-02  0.96009736730E-02  0.51100000000E-03 0. -1.
         11    1    4    4    0    0  0.35714831552E-01 -0.66143654639E-01  0.98487438001E-01  0.12389741243E+00  0.51100000000E-03 0.  1.
</event>
<event>
 8    1  0.1092667E+005  0.1043930E+01  0.7957747E-01            NaN
         13   -1    0    0    0    0  0.00000000000E+00  0.00000000000E+00  0.74505805969E-08  0.10566000000E+00  0.10566000000E+00 0. -1.
     999900   -1    0    0    0    0 -0.00000000000E+00 -0.00000000000E+00 -0.74505805969E-08  0.93827000000E+00  0.93827000000E+00 0. -1.
     999902    2    1    2    0    0 -0.11102122015E-01 -0.18699835261E-01 -0.14234704395E-01  0.10179383136E+01  0.10176064281E+01 0.  0.
     999903    2    3    3    0    0 -0.12741207258E+00 -0.27916592683E-02  0.12880028082E-01  0.12972871933E+00  0.20543025436E-01 0.  0.
         14    1    1    2    0    0  0.11102122015E-01  0.18699835261E-01  0.14234704395E-01  0.25991686387E-01  0.00000000000E+00 0. -1.
     999901    1    3    3    0    0  0.11630995057E+00 -0.15908175992E-01 -0.27114732477E-01  0.88820959429E+00  0.88000000000E+00 0. -1.
        -11    1    4    4    0    0 -0.43462689013E-01  0.99076026176E-03 -0.51477311188E-02  0.43780671521E-01  0.51100000000E-03 0. -1.
         11    1    4    4    0    0 -0.83949383568E-01 -0.37824195301E-02  0.18027759201E-01  0.85948047806E-01  0.51100000000E-03 0.  1.
</event>
<event>
 8    1  0.1092667E+005  0.1043930E+01  0.7957747E-01            NaN
         13   -1    0    0    0    0  0.00000000000E+00  0.00000000000E+00  0.74505805969E-08  0.10566000000E+00  0.10566000000E+00 0. -1.
     999900   -1    0    0    0    0 -0.00000000000E+00 -0.00000000000E+00 -0.74505805969E-08  0.93827000000E+00  0.93827000000E+00 0.  1.
     999902    2    1    2    0    0  0.68298188190E-02 -0.23283059068E-01 -0.33458666767E-02  0.10194362847E+01  0.10191419904E+01 0.  0.
     999903    2    3    3    0    0 -0.70625525337E-01  0.53346765273E-01  0.90162565625E-01  0.12779998710E+00  0.19227747339E-01 0.  0.
         14    1    1    2    0    0 -0.68298188190E-02  0.23283059068E-01  0.33458666767E-02  0.24493715286E-01  0.00000000000E+00 0.  1.
     999901    1    3    3    0    0  0.77455344156E-01 -0.76629824341E-01 -0.93508432302E-01  0.89163629762E+00  0.88000000000E+00 0. -1.
        -11    1    4    4    0    0 -0.40724479283E-01  0.32123248202E-01  0.39212419398E-01  0.65025081653E-01  0.51100000000E-03 0. -1.
         11    1    4    4    0    0 -0.29901046054E-01  0.21223517071E-01  0.50950146227E-01  0.62774905444E-01  0.51100000000E-03 0.  1.
</event>
<event>
 8    1  0.1092667E+005  0.1043930E+01  0.7957747E-01            NaN
         13   -1    0    0    0    0  0.00000000000E+00  0.00000000000E+00  0.74505805969E-08  0.10566000000E+00  0.10566000000E+00 0.  1.
     999900   -1    0    0    0    0 -0.00000000000E+00 -0.00000000000E+00 -0.74505805969E-08  0.93827000000E+00  0.93827000000E+00 0.  1.
     999902    2    1    2    0    0 -0.18427651178E-01  0.13926699528E-01 -0.66101170735E-02  0.10199044941E+01  0.10196214749E+01 0.  0.
     999903    2    3    3    0    0  0.34177669011E-01 -0.10544395181E+00 -0.62040175737E-01  0.12856327797E+00  0.19824051160E-01 0.  0.
         14    1    1    2    0    0  0.18427651178E-01 -0.13926699528E-01  0.66101170735E-02  0.24025505934E-01  0.00000000000E+00 0.  1.
     999901    1    3    3    0    0 -0.52605320189E-01  0.11937065134E+00  0.55430058663E-01  0.89134121610E+00  0.88000000000E+00 0.  1.
        -11    1    4    4    0    0  0.28046275467E-01 -0.63488188083E-01 -0.31027966965E-01  0.76028543644E-01  0.51100000000E-03 0.  1.
         11    1    4    4    0    0  0.61313935439E-02 -0.41955763725E-01 -0.31012208772E-01  0.52534734323E-01  0.51100000000E-03 0. -1.
</event>
<event>
 8    1  0.1092667E+005  0.1043930E+01  0.7957747E-01            NaN
         13   -1    0    0    0    0  0.00000000000E+00  0.00000000000E+00  0.74505805969E-08  0.10566000000E+00  0.10566000000E+00 0. -1.
     999900   -1    0    0    0    0 -0.00000000000E+00 -0.00000000000E+00 -0.74505805969E-08  0.93827000000E+00  0.93827000000E+00 0. -1.
     999902    2    1    2    0    0  0.37967266797E-02 -0.18454193582E-01 -0.14354528585E-01  0.10202440361E+01  0.10199690526E+01 0.  0.
     999903    2    3    3    0    0  0.38305689295E-01 -0.12522508503E+00 -0.14562262663E-01  0.13311894070E+00  0.18972219852E-01 0.  0.
         14    1    1    2    0    0 -0.37967266797E-02  0.18454193582E-01  0.14354528585E-01  0.23685963885E-01  0.00000000000E+00 0. -1.
     999901    1    3    3    0    0 -0.34508962615E-01  0.10677089145E+00  0.20773407795E-03  0.88712509541E+00  0.88000000000E+00 0.  1.
        -11    1    4    4    0    0  0.35222886108E-01 -0.11174162837E+00 -0.18760938300E-01  0.11865528704E+00  0.51100000000E-03 0. -1.
         11    1    4    4    0    0  0.30828031874E-02 -0.13483456663E-01  0.41986756363E-02  0.14463653659E-01  0.51100000000E-03 0.  1.
</event>
<event>
 8    1  0.1092667E+005  0.1043930E+01  0.7957747E-01            NaN
         13   -1    0    0    0    0  0.00000000000E+00  0.00000000000E+00  0.74505805969E-08  0.10566000000E+00  0.10566000000E+00 0. -1.
     999900   -1    0    0    0    0 -0.00000000000E+00 -0.00000000000E+00 -0.74505805969E-08  0.93827000000E+00  0.93827000000E+00 0. -1.
     999902    2    1    2    0    0 -0.95045211730E-02 -0.16658279699E-01  0.10603148725E-01  0.10220151428E+01  0.10217801579E+01 0.  0.
     999903    2    3    3    0    0  0.65949404502E-01 -0.79065085907E-02 -0.11063705281E+00  0.13046083994E+00  0.19173848625E-01 0.  0.
         14    1    1    2    0    0  0.95045211730E-02  0.16658279699E-01 -0.10603148725E-01  0.21914857247E-01  0.00000000000E+00 0.  1.
     999901    1    3    3    0    0 -0.75453925675E-01 -0.87517711087E-02  0.12124020153E+00  0.89155430281E+00  0.88000000000E+00 0.  1.
        -11    1    4    4    0    0  0.16060430620E-01 -0.48944464687E-02 -0.14863992631E-01  0.22429722153E-01  0.51100000000E-03 0. -1.
         11    1    4    4    0    0  0.49888973882E-01 -0.30120621220E-02 -0.95773060179E-01  0.10803111779E+00  0.51100000000E-03 0.  1.
</event>
<event>
 8    1  0.1092667E+005  0.1043930E+01  0.7957747E-01            NaN
         13   -1    0    0    0    0  0.00000000000E+00  0.00000000000E+00  0.74505805969E-08  0.10566000000E+00  0.10566000000E+00 0.  1.
     999900   -1    0    0    0    0 -0.00000000000E+00 -0.00000000000E+00 -0.74505805969E-08  0.93827000000E+00  0.93827000000E+00 0.  1.
     999902    2    1    2    0    0 -0.14789938375E-01  0.86455406612E-02  0.14823993381E-01  0.10212752338E+01  0.10210239296E+01 0.  0.
     999903    2    3    3    0    0  0.39986100921E-02 -0.10549081454E+00  0.76050536457E-01  0.13159618681E+00  0.19737564467E-01 0.  0.
         14    1    1    2    0    0  0.14789938375E-01 -0.86455406612E-02 -0.14823993381E-01  0.22654766170E-01  0.00000000000E+00 0. -1.
     999901    1    3    3    0    0 -0.18788548467E-01  0.11413635521E+00 -0.61226543076E-01  0.88967904702E+00  0.88000000000E+00 0. -1.
        -11    1    4    4    0    0  0.19633099060E-02 -0.41729773583E-02 -0.39493550117E-03  0.46567607701E-02  0.51100000000E-03 0.  1.
         11    1    4    4    0    0  0.20353001861E-02 -0.10131783719E+00  0.76445471958E-01  0.12693942604E+00  0.51100000000E-03 0. -1.
</event>
<event>
 8    1  0.1092667E+005  0.1043930E+01  0.7957747E-01            NaN
         13   -1    0    0    0    0  0.00000000000E+00  0.00000000000E+00  0.74505805969E-08  0.10566000000E+00  0.10566000000E+00 0. -1.
     999900   -1    0    0    0    0 -0.00000000000E+00 -0.00000000000E+00 -0.74505805969E-08  0.93827000000E+00  0.93827000000E+00 0.  1.
     999902    2    1    2    0    0  0.12724833834E-01 -0.20322064364E-01  0.83070428954E-02  0.10185545265E+01  0.10182383850E+01 0.  0.
     999903    2    3    3    0    0 -0.78511306921E-01 -0.48157023948E-01 -0.87316393964E-01  0.12824971346E+00  0.18458387755E-01 0.  0.
         14    1    1    2    0    0 -0.12724833834E-01  0.20322064364E-01 -0.83070428954E-02  0.25375473548E-01  0.00000000000E+00 0. -1.
     999901    1    3    3    0    0  0.91236140755E-01  0.27834959584E-01  0.95623436859E-01  0.89030481299E+00  0.88000000000E+00 0. -1.
        -11    1    4    4    0    0 -0.58102032014E-01 -0.40869713096E-01 -0.75065102752E-01  0.10334994119E+00  0.51100000000E-03 0. -1.
         11    1    4    4    0    0 -0.20409274907E-01 -0.72873108526E-02 -0.12251291212E-01  0.24899772269E-01  0.51100000000E-03 0.  1.
</event>
<event>
 8    1  0.1092667E+005  0.1043930E+01  0.7957747E-01            NaN
         13   -1    0    0    0    0  0.00000000000E+00  0.00000000000E+00  0.74505805969E-08  0.10566000000E+00  0.10566000000E+00 0. -1.
     999900   -1    0    0    0    0 -0.00000000000E+00 -0.00000000000E+00 -0.74505805969E-08  0.93827000000E+00  0.93827000000E+00 0. -1.
     999902    2    1    2    0    0  0.21824463176E-02  0.78264715965E-02 -0.25215464298E-01  0.10174378055E+01  0.10170928432E+01 0.  0.
     999903    2    3    3    0    0  0.10933436930E+00  0.30733315931E-01 -0.60038001164E-01  0.12995886649E+00  0.19652083293E-01 0.  0.
         14    1    1    2    0    0 -0.21824463176E-02 -0.78264715965E-02  0.25215464298E-01  0.26492194499E-01  0.00000000000E+00 0. -1.
     999901    1    3    3    0    0 -0.10715192298E+00 -0.22906844335E-01  0.34822536866E-01  0.88747893901E+00  0.88000000000E+00 0.  1.
        -11    1    4    4    0    0  0.40580344531E-01  0.13262321685E-01 -0.12231450785E-01  0.44413095457E-01  0.51100000000E-03 0. -1.
         11    1    4    4    0    0  0.68754024766E-01  0.17470994246E-01 -0.47806550379E-01  0.85545771033E-01  0.51100000000E-03 0.  1.
</event>
<event>
 8    1  0.1092667E+005  0.1043930E+01  0.7957747E-01            NaN
         13   -1    0    0    0    0  0.00000000000E+00  0.00000000000E+00  0.74505805969E-08  0.10566000000E+00  0.10566000000E+00 0.  1.
     999900   -1    0    0    0    0 -0.00000000000E+00 -0.00000000000E+00 -0.74505805969E-08  0.93827000000E+00  0.93827000000E+00 0.  1.
     999902    2    1    2    0    0  0.85060999856E-02  0.11411842132E-01  0.16701750705E-01  0.10219861545E+01  0.10217505408E+01 0.  0.
     999903    2    3    3    0    0  0.10213349048E+00 -0.63133995691E-01 -0.49614594135E-01  0.13141272814E+00  0.19762233552E-01 0.  0.
         14    1    1    2    0    0 -0.85060999856E-02 -0.11411842132E-01 -0.16701750705E-01  0.21943845480E-01  0.00000000000E+00 0. -1.
     999901    1    3    3    0    0 -0.93627390497E-01  0.74545837824E-01  0.66316344840E-01  0.89057342638E+00  0.88000000000E+00 0. -1.
        -11    1    4    4    0    0  0.27439594561E-01 -0.86540877829E-02 -0.16726875272E-01  0.33284742186E-01  0.51100000000E-03 0.  1.
         11    1    4    4    0    0  0.74693895921E-01 -0.54479907909E-01 -0.32887718863E-01  0.98127985950E-01  0.51100000000E-03 0. -1.
</event>
<event>
 8    1  0.1092667E+005  0.1043930E+01  0.7957747E-01            NaN
         13   -1    0    0    0    0  0.00000000000E+00  0.00000000000E+00  0.74505805969E-08  0.10566000000E+00  0.10566000000E+00 0.  1.
     999900   -1    0    0    0    0 -0.00000000000E+00 -0.00000000000E+00 -0.74505805969E-08  0.93827000000E+00  0.93827000000E+00 0. -1.
     999902    2    1    2    0    0  0.33118423184E-03 -0.47367300818E-02 -0.23436622989E-01  0.10200172086E+01  0.10197368701E+01 0.  0.
     999903    2    3    3    0    0  0.14386670361E-02  0.58240322384E-01  0.11161894234E+00  0.12748858645E+00  0.20013657085E-01 0.  0.
         14    1    1    2    0    0 -0.33118423184E-03  0.47367300818E-02  0.23436622989E-01  0.23912791388E-01  0.00000000000E+00 0.  1.
     999901    1    3    3    0    0 -0.11074828043E-02 -0.62977052466E-01 -0.13505556533E+00  0.89252862216E+00  0.88000000000E+00 0. -1.
        -11    1    4    4    0    0  0.94812800161E-02  0.41040591267E-01  0.69231942937E-01  0.81040408724E-01  0.51100000000E-03 0.  1.
         11    1    4    4    0    0 -0.80426129800E-02  0.17199731117E-01  0.42386999407E-01  0.46448177723E-01  0.51100000000E-03 0. -1.
</event>
<event>
 8    1  0.1092667E+005  0.1043930E+01  0.7957747E-01            NaN
         13   -1    0    0    0    0  0.00000000000E+00  0.00000000000E+00  0.74505805969E-08  0.10566000000E+00  0.10566000000E+00 0.  1.
     999900   -1    0    0    0    0 -0.00000000000E+00 -0.00000000000E+00 -0.74505805969E-08  0.93827000000E+00  0.93827000000E+00 0.  1.
     999902    2    1    2    0    0  0.13108528324E-01  0.20044197681E-01  0.18703367268E-02  0.10199070623E+01  0.10196241044E+01 0.  0.
     999903    2    3    3    0    0 -0.69430645525E-01  0.96901877300E-01 -0.50867908597E-01  0.13114323505E+00  0.20010387612E-01 0.  0.
         14    1    1    2    0    0 -0.13108528324E-01 -0.20044197681E-01 -0.18703367268E-02  0.24022937684E-01  0.00000000000E+00 0. -1.
     999901    1    3    3    0    0  0.82539173848E-01 -0.76857679619E-01  0.52738245324E-01  0.88876382727E+00  0.88000000000E+00 0. -1.
        -11    1    4    4    0    0 -0.50759485646E-01  0.54617962415E-01 -0.33791621131E-01  0.81864412177E-01  0.51100000000E-03 0.  1.
         11    1    4    4    0    0 -0.18671159878E-01  0.42283914885E-01 -0.17076287466E-01  0.49278822874E-01  0.51100000000E-03 0. -1.
</event>
<event>
 8    1  0.1092667E+005  0.1043930E+01  0.7957747E-01            NaN
         13   -1    0    0    0    0  0.00000000000E+00  0.00000000000E+00  0.74505805969E-08  0.10566000000E+00  0.10566000000E+00 0. -1.
     999900   -1    0    0    0    0 -0.00000000000E+00 -0.00000000000E+00 -0.74505805969E-08  0.93827000000E+00  0.93827000000E+00 0.  1.
     999902    2    1    2    0    0 -0.18455623407E-01 -0.15950684655E-01  0.15335490533E-02  0.10194885158E+01  0.10191954904E+01 0.  0.
     999903    2    3    3    0    0  0.64570126383E-01 -0.77824101475E-01 -0.78493481698E-01  0.12981109086E+00  0.21536031403E-01 0.  0.
         14    1    1    2    0    0  0.18455623407E-01  0.15950684655E-01 -0.15335490533E-02  0.24441484181E-01  0.00000000000E+00 0.  1.
     999901    1    3    3    0    0 -0.83025749790E-01  0.61873416821E-01  0.80027030751E-01  0.88967742496E+00  0.88000000000E+00 0. -1.
        -11    1    4    4    0    0  0.51170468149E-01 -0.69770123344E-01 -0.73083889293E-01  0.11325989103E+00  0.51100000000E-03 0. -1.
         11    1    4    4    0    0  0.13399658235E-01 -0.80539781317E-02 -0.54095924052E-02  0.16551199822E-01  0.51100000000E-03 0.  1.
</event>
<event>
 7    1  0.1092667E+005  0.1043930E+01  0.7957747E-01            NaN
         13   -1    0    0    0    0  0.00000000000E+00  0.00000000000E+00  0.74505805969E-08  0.10566000000E+00  0.10566000000E+00 0. -1.
     999900   -1    0    0    0    0 -0.00000000000E+00 -0.00000000000E+00 -0.74505805969E-08  0.93827000000E+00  0.93827000000E+00 0. -1.
     999902    2    1    2    0    0  0.60882689865E-02  0.14127056672E-01 -0.17881649971E-01  0.10203419913E+01  0.10200693040E+01 0.  0.
         14    1    1    2    0    0 -0.60882689865E-02 -0.14127056672E-01  0.17881649971E-01  0.23588008716E-01  0.00000000000E+00 0. -1.
     999901    1    3    3    0    0  0.88793093912E-03  0.25833983886E-02 -0.13881330625E+00  0.89088528799E+00  0.88000000000E+00 0. -1.
        -11    1    3    3    0    0 -0.14622686395E-01 -0.92957623388E-02  0.41404737263E-01  0.44887053185E-01  0.51100000000E-03 0. -1.
         11    1    3    3    0    0  0.19823024442E-01  0.20839420622E-01  0.79526919017E-01  0.84569650107E-01  0.51100000000E-03 0.  1.
</event>
<event>
 8    1  0.1092667E+005  0.1043930E+01  0.7957747E-01            NaN
         13   -1    0    0    0    0  0.00000000000E+00  0.00000000000E+00  0.74505805969E-08  0.10566000000E+00  0.10566000000E+00 0.  1.
     999900   -1    0    0    0    0 -0.00000000000E+00 -0.00000000000E+00 -0.74505805969E-08  0.93827000000E+00  0.93827000000E+00 0.  1.
     999902    2    1    2    0    0 -0.18375815647E-01  0.56076717598E-02  0.14705881121E-01  0.10197353824E+01  0.10194483167E+01 0.  0.
     999903    2    3    3    0    0 -0.10660721057E+00 -0.14009816208E-01  0.75084518416E-01  0.13304761052E+00  0.22418953226E-01 0.  0.
         14    1    1    2    0    0  0.18375815647E-01 -0.56076717598E-02 -0.14705881121E-01  0.24194617641E-01  0.00000000000E+00 0. -1.
     999901    1    3    3    0    0  0.88231394924E-01  0.19617487967E-01 -0.60378637295E-01  0.88668777184E+00  0.88000000000E+00 0.  1.
        -11    1    4    4    0    0 -0.50706794794E-01  0.46726232427E-03  0.45649736983E-01  0.68231642073E-01  0.51100000000E-03 0. -1.
         11    1    4    4    0    0 -0.55900415777E-01 -0.14477078532E-01  0.29434781432E-01  0.64815968448E-01  0.51100000000E-03 0.  1.
</event>
<event>
 8    1  0.1092667E+005  0.1043930E+01  0.7957747E-01            NaN
         13   -1    0    0    0    0  0.00000000000E+00  0.00000000000E+00  0.74505805969E-08  0.10566000000E+00  0.10566000000E+00 0.  1.
     999900   -1    0    0    0    0 -0.00000000000E+00 -0.00000000000E+00 -0.74505805969E-08  0.93827000000E+00  0.93827000000E+00 0.  1.
     999902    2    1    2    0    0 -0.93591292230E-02  0.21099421047E-01 -0.13607351789E-02  0.10208079225E+01  0.10205460225E+01 0.  0.
     999903    2    3    3    0    0 -0.10698206526E-01 -0.98797493015E-01 -0.80123937334E-01  0.12919101756E+00  0.19876554946E-01 0.  0.
         14    1    1    2    0    0  0.93591292230E-02 -0.21099421047E-01  0.13607351789E-02  0.23122077514E-01  0.00000000000E+00 0.  1.
     999901    1    3    3    0    0  0.13390773027E-02  0.11989691406E+00  0.78763202155E-01  0.89161690492E+00  0.88000000000E+00 0. -1.
        -11    1    4    4    0    0 -0.27202316824E-02 -0.21583928432E-01 -0.28942648165E-01  0.36210545850E-01  0.51100000000E-03 0.  1.
         11    1    4    4    0    0 -0.79779748433E-02 -0.77213564582E-01 -0.51181289169E-01  0.92980471714E-01  0.51100000000E-03 0. -1.
</event>
<event>
 8    1  0.1092667E+005  0.1043930E+01  0.7957747E-01            NaN
         13   -1    0    0    0    0  0.00000000000E+00  0.00000000000E+00  0.74505805969E-08  0.10566000000E+00  0.10566000000E+00 0.  1.
     999900   -1    0    0    0    0 -0.00000000000E+00 -0.00000000000E+00 -0.74505805969E-08  0.93827000000E+00  0.93827000000E+00 0.  1.
     999902    2    1    2    0    0 -0.10232996181E-01 -0.19635357387E-01  0.10147297131E-01  0.10195737049E+01  0.10192827432E+01 0.  0.
     999903    2    3    3    0    0 -0.97072288221E-01 -0.10488922379E-01  0.86494690914E-01  0.13196250375E+00  0.19993103990E-01 0.  0.
         14    1    1    2    0    0  0.10232996181E-01  0.19635357387E-01 -0.10147297131E-01  0.24356295071E-01  0.00000000000E+00 0. -1.
     999901    1    3    3    0    0  0.86839292040E-01 -0.91464350075E-02 -0.76347393784E-01  0.88761120118E+00  0.88000000000E+00 0.  1.
        -11    1    4    4    0    0 -0.19750025919E-01 -0.10416671573E-01  0.19924622147E-01  0.29930289995E-01  0.51100000000E-03 0. -1.
         11    1    4    4    0    0 -0.77322262302E-01 -0.72250806375E-04  0.66570068767E-01  0.10203221376E+00  0.51100000000E-03 0.  1.
</event>
<event>
 8    1  0.1092667E+005  0.1043930E+01  0.7957747E-01            NaN
         13   -1    0    0    0    0  0.00000000000E+00  0.00000000000E+00  0.74505805969E-08  0.10566000000E+00  0.10566000000E+00 0.  1.
     999900   -1    0    0    0    0 -0.00000000000E+00 -0.00000000000E+00 -0.74505805969E-08  0.93827000000E+00  0.93827000000E+00 0.  1.
     999902    2    1    2    0    0 -0.26075130032E-04  0.58876403517E-03 -0.19827455119E-01  0.10240937882E+01  0.10239016611E+01 0.  0.
     999903    2    3    3    0    0 -0.13055578593E+00 -0.20823647063E-01  0.61964525615E-03  0.13397324540E+00  0.21679691125E-01 0.  0.
         14    1    1    2    0    0  0.26075130032E-04 -0.58876403517E-03  0.19827455119E-01  0.19836211823E-01  0.00000000000E+00 0.  1.
     999901    1    3    3    0    0  0.13052971080E+00  0.21412411098E-01 -0.20447100375E-01  0.89012054277E+00  0.88000000000E+00 0.  1.
        -11    1    4    4    0    0 -0.62307911280E-01 -0.60136717630E-02  0.10386833645E-01  0.63455397645E-01  0.51100000000E-03 0.  1.
         11    1    4    4    0    0 -0.68247874650E-01 -0.14809975300E-01 -0.97671883889E-02  0.70517847760E-01  0.51100000000E-03 0. -1.
</event>
<event>
 8    1  0.1092667E+005  0.1043930E+01  0.7957747E-01            NaN
         13   -1    0    0    0    0  0.00000000000E+00  0.00000000000E+00  0.74505805969E-08  0.10566000000E+00  0.10566000000E+00 0. -1.
     999900   -1    0    0    0    0 -0.00000000000E+00 -0.00000000000E+00 -0.74505805969E-08  0.93827000000E+00  0.93827000000E+00 0. -1.
     999902    2    1    2    0    0 -0.11697067910E-01 -0.18793762825E-01 -0.85499987745E-02  0.10201996524E+01  0.10199236252E+01 0.  0.
     999903    2    3    3    0    0  0.24026771275E-01  0.10006977442E+00 -0.75237543363E-01  0.12899150511E+00  0.19669137478E-01 0.  0.
         14    1    1    2    0    0  0.11697067910E-01  0.18793762825E-01  0.85499987745E-02  0.23730347613E-01  0.00000000000E+00 0. -1.
     999901    1    3    3    0    0 -0.35723839185E-01 -0.11886353724E+00  0.66687544588E-01  0.89120814728E+00  0.88000000000E+00 0.  1.
        -11    1    4    4    0    0  0.14132098623E-02  0.13534976978E-01 -0.18864193934E-01  0.23266106200E-01  0.51100000000E-03 0.  1.
         11    1    4    4    0    0  0.22613561413E-01  0.86534797440E-01 -0.56373349428E-01  0.10572539891E+00  0.51100000000E-03 0. -1.
</event>
<event>
 8    1  0.1092667E+005  0.1043930E+01  0.7957747E-01            NaN
         13   -1    0    0    0    0  0.00000000000E+00  0.00000000000E+00  0.74505805969E-08  0.10566000000E+00  0.10566000000E+00 0. -1.
     999900   -1    0    0    0    0 -0.00000000000E+00 -0.00000000000E+00 -0.74505805969E-08  0.93827000000E+00  0.93827000000E+00 0.  1.
     999902    2    1    2    0    0 -0.87424379809E-02  0.21794569413E-01  0.11483189454E-02  0.10204193191E+01  0.10201484376E+01 0.  0.
     999903    2    3    3    0    0  0.94038065762E-01  0.65133695762E-01  0.61327985873E-01  0.13133906173E+00  0.20081612191E-01 0.  0.
         14    1    1    2    0    0  0.87424379809E-02 -0.21794569413E-01 -0.11483189454E-02  0.23510680853E-01  0.00000000000E+00 0.  1.
     999901    1    3    3    0    0 -0.10278050374E+00 -0.43339126348E-01 -0.60179666928E-01  0.88908025742E+00  0.88000000000E+00 0.  1.
        -11    1    4    4    0    0  0.13201130290E-01  0.48511783206E-02  0.16686475428E-02  0.14172130315E-01  0.51100000000E-03 0.  1.
         11    1    4    4    0    0  0.80836935472E-01  0.60282517441E-01  0.59659338331E-01  0.11716693141E+00  0.51100000000E-03 0. -1.
</event>
<event>
 8    1  0.1092667E+005  0.1043930E+01  0.7957747E-01            NaN
         13   -1    0    0    0    0  0.00000000000E+00  0.00000000000E+00  0.74505805969E-08  0.10566000000E+00  0.10566000000E+00 0.  1.
     999900   -1    0    0    0    0 -0.00000000000E+00 -0.00000000000E+00 -0.74505805969E-08  0.93827000000E+00  0.93827000000E+00 0.  1.
     999902    2    1    2    0    0  0.19463084812E-01  0.20077498116E-01 -0.27783501873E-02  0.10158295226E+01  0.10154407822E+01 0.  0.
     999903    2    3    3    0    0  0.15398118079E-01 -0.12134857150E+00  0.92388952206E-02  0.12444729744E+00  0.20956975211E-01 0.  0.
         14    1    1    2    0    0 -0.19463084812E-01 -0.20077498116E-01  0.27783501873E-02  0.28100477412E-01  0.00000000000E+00 0.  1.
     999901    1    3    3    0    0  0.40649667328E-02  0.14142606962E+00 -0.12017245408E-01  0.89138222515E+00  0.88000000000E+00 0.  1.
        -11    1    4    4    0    0  0.19847993163E-01 -0.78721699925E-01  0.78142091665E-02  0.81562073647E-01  0.51100000000E-03 0. -1.
         11    1    4    4    0    0 -0.44498750836E-02 -0.42626871574E-01  0.14246860541E-02  0.42885223794E-01  0.51100000000E-03 0.  1.
</event>
<event>
 8    1  0.1092667E+005  0.1043930E+01  0.7957747E-01            NaN
         13   -1    0    0    0    0  0.00000000000E+00  0.00000000000E+00  0.74505805969E-08  0.10566000000E+00  0.10566000000E+00 0. -1.
     999900   -1    0    0    0    0 -0.00000000000E+00 -0.00000000000E+00 -0.74505805969E-08  0.93827000000E+00  0.93827000000E+00 0. -1.
     999902    2    1    2    0    0 -0.57834233727E-02 -0.18345974214E-01 -0.13666743132E-01  0.10203333345E+01  0.10200604447E+01 0.  0.
     999903    2    3    3    0    0  0.33370324198E-01  0.11006247029E+00  0.51673667476E-01  0.12775778371E+00  0.20604792795E-01 0.  0.
         14    1    1    2    0    0  0.57834233727E-02  0.18345974214E-01  0.13666743132E-01  0.23596665519E-01  0.00000000000E+00 0. -1.
     999901    1    3    3    0    0 -0.39153747571E-01 -0.12840844450E+00 -0.65340410609E-01  0.89257555077E+00  0.88000000000E+00 0.  1.
        -11    1    4    4    0    0  0.23177411794E-01  0.53114176797E-01  0.17384590213E-01  0.60504489852E-01  0.51100000000E-03 0.  1.
         11    1    4    4    0    0  0.10192912404E-01  0.56948293491E-01  0.34289077263E-01  0.67253293863E-01  0.51100000000E-03 0. -1.
</event>
<event>
 8    1  0.1092667E+005  0.1043930E+01  0.7957747E-01            NaN
         13   -1    0    0    0    0  0.00000000000E+00  0.00000000000E+00  0.74505805969E-08  0.10566000000E+00  0.10566000000E+00 0. -1.
     999900   -1    0    0    0    0 -0.00000000000E+00 -0.00000000000E+00 -0.74505805969E-08  0.93827000000E+00  0.93827000000E+00 0.  1.
     999902    2    1    2    0    0  0.14949988395E-01  0.15977813151E-01 -0.93100750024E-02  0.10201503835E+01  0.10198731954E+01 0.  0.
     999903    2    3    3    0    0  0.65632632610E-01 -0.93493966938E-01  0.57498032709E-01  0.12941129466E+00  0.19811489188E-01 0.  0.
         14    1    1    2    0    0 -0.14949988395E-01 -0.15977813151E-01  0.93100750024E-02  0.23779616537E-01  0.00000000000E+00 0.  1.
     999901    1    3    3    0    0 -0.50682644215E-01  0.10947178009E+00 -0.66808107711E-01  0.89073908880E+00  0.88000000000E+00 0. -1.
        -11    1    4    4    0    0  0.25019335443E-01 -0.48279951178E-01  0.19700360674E-01  0.57838448834E-01  0.51100000000E-03 0. -1.
         11    1    4    4    0    0  0.40613297167E-01 -0.45214015760E-01  0.37797672035E-01  0.71572845830E-01  0.51100000000E-03 0.  1.
</event>
<event>
 8    1  0.1092667E+005  0.1043930E+01  0.7957747E-01            NaN
         13   -1    0    0    0    0  0.00000000000E+00  0.00000000000E+00  0.74505805969E-08  0.10566000000E+00  0.10566000000E+00 0.  1.
     999900   -1    0    0    0    0 -0.00000000000E+00 -0.00000000000E+00 -0.74505805969E-08  0.93827000000E+00  0.93827000000E+00 0. -1.
     999902    2    1    2    0    0 -0.79791478079E-02 -0.21053704313E-01  0.79723214622E-02  0.10200452104E+01  0.10197655358E+01 0.  0.
     999903    2    3    3    0    0  0.60364627876E-01  0.47219545625E-01 -0.10047625328E+00  0.12814095449E+00  0.21238007359E-01 0.  0.
         14    1    1    2    0    0  0.79791478079E-02  0.21053704313E-01 -0.79723214622E-02  0.23884789607E-01  0.00000000000E+00 0.  1.
     999901    1    3    3    0    0 -0.68343775684E-01 -0.68273249938E-01  0.10844857474E+00  0.89190425590E+00  0.88000000000E+00 0.  1.
        -11    1    4    4    0    0  0.25351975316E-01  0.32341315048E-01 -0.58444905069E-01  0.71447542722E-01  0.51100000000E-03 0. -1.
         11    1    4    4    0    0  0.35012652561E-01  0.14878230577E-01 -0.42031348213E-01  0.56693411770E-01  0.51100000000E-03 0.  1.
</event>
<event>
 7    1  0.1092667E+005  0.1043930E+01  0.7957747E-01            NaN
         13   -1    0    0    0    0  0.00000000000E+00  0.00000000000E+00  0.74505805969E-08  0.10566000000E+00  0.10566000000E+00 0. -1.
     999900   -1    0    0    0    0 -0.00000000000E+00 -0.00000000000E+00 -0.74505805969E-08  0.93827000000E+00  0.93827000000E+00 0. -1.
     999903    2    1    2    0    0  0.34499236013E-02  0.14733941165E-01 -0.85392967528E-01  0.88772174785E-01  0.18961780446E-01 0.  0.
         14    1    1    2    0    0  0.33889074070E-01  0.40489853142E-01  0.48768744791E-01  0.71876894878E-01  0.00000000000E+00 0. -1.
     999901    1    1    2    0    0 -0.37338997672E-01 -0.55223794307E-01  0.36624222737E-01  0.88328093034E+00  0.88000000000E+00 0. -1.
        -11    1    3    3    0    0 -0.64398871711E-02  0.10965440534E-01 -0.34131958727E-01  0.36427527509E-01  0.51100000000E-03 0. -1.
         11    1    3    3    0    0  0.98898107724E-02  0.37685006302E-02 -0.51261008801E-01  0.52344647276E-01  0.51100000000E-03 0.  1.
</event>
<event>
 8    1  0.1092667E+005  0.1043930E+01  0.7957747E-01            NaN
         13   -1    0    0    0    0  0.00000000000E+00  0.00000000000E+00  0.74505805969E-08  0.10566000000E+00  0.10566000000E+00 0. -1.
     999900   -1    0    0    0    0 -0.00000000000E+00 -0.00000000000E+00 -0.74505805969E-08  0.93827000000E+00  0.93827000000E+00 0.  1.
     999902    2    1    2    0    0  0.67909486756E-02  0.23194552398E-01 -0.22582610892E-01  0.10108531416E+01  0.10103118308E+01 0.  0.
     999903    2    3    3    0    0 -0.21098614933E-01  0.14283803062E-01 -0.12091183729E+00  0.12489272154E+00  0.18147752280E-01 0.  0.
         14    1    1    2    0    0 -0.67909486756E-02 -0.23194552398E-01  0.22582610892E-01  0.33076858369E-01  0.00000000000E+00 0. -1.
     999901    1    3    3    0    0  0.27889563609E-01  0.89107493360E-02  0.98329226402E-01  0.88596042010E+00  0.88000000000E+00 0. -1.
        -11    1    4    4    0    0 -0.10298577630E-02  0.53959876332E-02 -0.57966339844E-01  0.58228300383E-01  0.51100000000E-03 0.  1.
         11    1    4    4    0    0 -0.20068757170E-01  0.88878154290E-02 -0.62945497449E-01  0.66664421153E-01  0.51100000000E-03 0. -1.
</event>
<event>
 8    1  0.1092667E+005  0.1043930E+01  0.7957747E-01            NaN
         13   -1    0    0    0    0  0.00000000000E+00  0.00000000000E+00  0.74505805969E-08  0.10566000000E+00  0.10566000000E+00 0.  1.
     999900   -1    0    0    0    0 -0.00000000000E+00 -0.00000000000E+00 -0.74505805969E-08  0.93827000000E+00  0.93827000000E+00 0. -1.
     999902    2    1    2    0    0 -0.18020243897E-01 -0.29021878296E-03  0.15068163849E-01  0.10204382359E+01  0.10201677952E+01 0.  0.
     999903    2    3    3    0    0  0.12507957312E+00 -0.21177697209E-01 -0.44051586096E-02  0.12842194983E+00  0.19478123780E-01 0.  0.
         14    1    1    2    0    0  0.18020243897E-01  0.29021878296E-03 -0.15068163849E-01  0.23491764064E-01  0.00000000000E+00 0. -1.
     999901    1    3    3    0    0 -0.14309981702E+00  0.20887478426E-01  0.19473322459E-01  0.89201628610E+00  0.88000000000E+00 0. -1.
        -11    1    4    4    0    0  0.28182615429E-01 -0.12548690344E-01 -0.42081213017E-02  0.31139987920E-01  0.51100000000E-03 0. -1.
         11    1    4    4    0    0  0.96896957690E-01 -0.86290068652E-02 -0.19703730795E-03  0.97281961914E-01  0.51100000000E-03 0.  1.
</event>
<event>
 8    1  0.1092667E+005  0.1043930E+01  0.7957747E-01            NaN
         13   -1    0    0    0    0  0.00000000000E+00  0.00000000000E+00  0.74505805969E-08  0.10566000000E+00  0.10566000000E+00 0.  1.
     999900   -1    0    0    0    0 -0.00000000000E+00 -0.00000000000E+00 -0.74505805969E-08  0.93827000000E+00  0.93827000000E+00 0. -1.
     999902    2    1    2    0    0 -0.28443002502E-02 -0.19825336613E-01 -0.12303580237E-01  0.10204244240E+01  0.10201536615E+01 0.  0.
     999903    2    3    3    0    0  0.73935760238E-02  0.92895333501E-02 -0.12997239035E+00  0.13205601022E+00  0.20124790311E-01 0.  0.
         14    1    1    2    0    0  0.28443002502E-02  0.19825336613E-01  0.12303580237E-01  0.23505575984E-01  0.00000000000E+00 0.  1.
     999901    1    3    3    0    0 -0.10237876274E-01 -0.29114869963E-01  0.11766881011E+00  0.88836841380E+00  0.88000000000E+00 0.  1.
        -11    1    4    4    0    0  0.45531537608E-02  0.15656617848E-01 -0.95256007384E-01  0.96642790499E-01  0.51100000000E-03 0.  1.
         11    1    4    4    0    0  0.28404222630E-02 -0.63670844979E-02 -0.34716382964E-01  0.35413219717E-01  0.51100000000E-03 0. -1.
</event>
<event>
 8    1  0.1092667E+005  0.1043930E+01  0.7957747E-01            NaN
         13   -1    0    0    0    0  0.00000000000E+00  0.00000000000E+00  0.74505805969E-08  0.10566000000E+00  0.10566000000E+00 0.  1.
     999900   -1    0    0    0    0 -0.00000000000E+00 -0.00000000000E+00 -0.74505805969E-08  0.93827000000E+00  0.93827000000E+00 0. -1.
     999902    2    1    2    0    0 -0.18083306623E-01  0.78801517696E-04  0.18026543297E-01  0.10183963271E+01  0.10180761811E+01 0.  0.
     999903    2    3    3    0    0  0.50355981143E-01  0.11047034268E+00 -0.31393027758E-01  0.12749087619E+00  0.22999562406E-01 0.  0.
         14    1    1    2    0    0  0.18083306623E-01 -0.78801517696E-04 -0.18026543297E-01  0.25533672891E-01  0.00000000000E+00 0. -1.
     999901    1    3    3    0    0 -0.68439287766E-01 -0.11039154117E+00  0.49419571055E-01  0.89090545092E+00  0.88000000000E+00 0.  1.
        -11    1    4    4    0    0  0.40270549880E-01  0.10340635564E+00 -0.30733185411E-01  0.11514938724E+00  0.51100000000E-03 0.  1.
         11    1    4    4    0    0  0.10085431263E-01  0.70639870423E-02 -0.65984234737E-03  0.12341488955E-01  0.51100000000E-03 0. -1.
</event>
<event>
 8    1  0.1135840E+005  0.1043930E+01  0.7957747E-01            NaN
         13   -1    0    0    0    0  0.00000000000E+00  0.00000000000E+00  0.74505805969E-08  0.10566000000E+00  0.10566000000E+00 0.  1.
     999900   -1    0    0    0    0 -0.00000000000E+00 -0.00000000000E+00 -0.74505805969E-08  0.93827000000E+00  0.93827000000E+00 0. -1.
     999902    2    1    2    0    0  0.27756904797E-01  0.24335940086E-01  0.36656758206E-02  0.10068338961E+01  0.10061502738E+01 0.  0.
     999903    2    3    3    0    0 -0.41843034715E-02 -0.25994026895E-01  0.11313804210E+00  0.11804958857E+00  0.21030714760E-01 0.  0.
         14    1    1    2    0    0 -0.27756904797E-01 -0.24335940086E-01 -0.36656758206E-02  0.37096103879E-01  0.00000000000E+00 0.  1.
     999901    1    3    3    0    0  0.31941208269E-01  0.50329966981E-01 -0.10947236628E+00  0.88878430755E+00  0.88000000000E+00 0.  1.
        -11    1    4    4    0    0 -0.64406955558E-02 -0.25894372761E-01  0.71036788164E-01  0.75884698679E-01  0.51100000000E-03 0. -1.
         11    1    4    4    0    0  0.22563920843E-02 -0.99654134287E-04  0.42101253933E-01  0.42164889896E-01  0.51100000000E-03 0.  1.
</event>
<event>
 8    1  0.1092667E+005  0.1043930E+01  0.7957747E-01            NaN
         13   -1    0    0    0    0  0.00000000000E+00  0.00000000000E+00  0.74505805969E-08  0.10566000000E+00  0.10566000000E+00 0. -1.
     999900   -1    0    0    0    0 -0.00000000000E+00 -0.00000000000E+00 -0.74505805969E-08  0.93827000000E+00  0.93827000000E+00 0.  1.
     999902    2    1    2    0    0  0.60433888821E-02  0.21203065421E-01  0.33002321728E-03  0.10218800239E+01  0.10216421006E+01 0.  0.
     999903    2    3    3    0    0 -0.97347469006E-01 -0.32419426207E-01  0.78743260929E-01  0.13074946275E+00  0.19166949395E-01 0.  0.
         14    1    1    2    0    0 -0.60433888821E-02 -0.21203065421E-01 -0.33002321728E-03  0.22049976140E-01  0.00000000000E+00 0.  1.
     999901    1    3    3    0    0  0.10339085789E+00  0.53622491629E-01 -0.78413237711E-01  0.89113056111E+00  0.88000000000E+00 0.  1.
        -11    1    4    4    0    0 -0.73423673551E-01 -0.27524667167E-01  0.69008987861E-01  0.10445642473E+00  0.51100000000E-03 0.  1.
         11    1    4    4    0    0 -0.23923795456E-01 -0.48947590406E-02  0.97342730679E-02  0.26293038018E-01  0.51100000000E-03 0. -1.
</event>
<event>
 8    1  0.1092667E+005  0.1043930E+01  0.7957747E-01            NaN
         13   -1    0    0    0    0  0.00000000000E+00  0.00000000000E+00  0.74505805969E-08  0.10566000000E+00  0.10566000000E+00 0. -1.
     999900   -1    0    0    0    0 -0.00000000000E+00 -0.00000000000E+00 -0.74505805969E-08  0.93827000000E+00  0.93827000000E+00 0. -1.
     999902    2    1    2    0    0 -0.11760824023E-01  0.10060091652E-01  0.20079910940E-01  0.10185779735E+01  0.10182624233E+01 0.  0.
     999903    2    3    3    0    0  0.80301995406E-02 -0.27023577434E-01  0.12657328564E+00  0.13116165517E+00  0.19693280820E-01 0.  0.
         14    1    1    2    0    0  0.11760824023E-01 -0.10060091652E-01 -0.20079910940E-01  0.25352026528E-01  0.00000000000E+00 0.  1.
     999901    1    3    3    0    0 -0.19791023563E-01  0.37083669086E-01 -0.10649337470E+00  0.88741631830E+00  0.88000000000E+00 0. -1.
        -11    1    4    4    0    0  0.51837315768E-02 -0.27970119929E-01  0.88362641871E-01  0.92830039757E-01  0.51100000000E-03 0.  1.
         11    1    4    4    0    0  0.28464679638E-02  0.94654249552E-03  0.38210643764E-01  0.38331615417E-01  0.51100000000E-03 0. -1.
</event>
<event>
 8    1  0.1092667E+005  0.1043930E+01  0.7957747E-01            NaN
         13   -1    0    0    0    0  0.00000000000E+00  0.00000000000E+00  0.74505805969E-08  0.10566000000E+00  0.10566000000E+00 0.  1.
     999900   -1    0    0    0    0 -0.00000000000E+00 -0.00000000000E+00 -0.74505805969E-08  0.93827000000E+00  0.93827000000E+00 0. -1.
     999902    2    1    2    0    0 -0.27991526389E-02 -0.32110074363E-02 -0.23423576936E-01  0.10201222328E+01  0.10198443803E+01 0.  0.
     999903    2    3    3    0    0  0.92559134319E-01 -0.33974353471E-01  0.80069033400E-01  0.12841022390E+00  0.18886118020E-01 0.  0.
         14    1    1    2    0    0  0.27991526389E-02  0.32110074363E-02  0.23423576936E-01  0.23807767236E-01  0.00000000000E+00 0.  1.
     999901    1    3    3    0    0 -0.95358286958E-01  0.30763346035E-01 -0.10349261034E+00  0.89171200886E+00  0.88000000000E+00 0. -1.
        -11    1    4    4    0    0  0.20243821486E-01 -0.10841687963E-01  0.28602583330E-01  0.36684102829E-01  0.51100000000E-03 0. -1.
         11    1    4    4    0    0  0.72315312834E-01 -0.23132665509E-01  0.51466450070E-01  0.91726121075E-01  0.51100000000E-03 0.  1.
</event>
<event>
 8    1  0.1092667E+005  0.1043930E+01  0.7957747E-01            NaN
         13   -1    0    0    0    0  0.00000000000E+00  0.00000000000E+00  0.74505805969E-08  0.10566000000E+00  0.10566000000E+00 0. -1.
     999900   -1    0    0    0    0 -0.00000000000E+00 -0.00000000000E+00 -0.74505805969E-08  0.93827000000E+00  0.93827000000E+00 0. -1.
     999902    2    1    2    0    0  0.89997893531E-02 -0.10208150687E-03 -0.22127292579E-01  0.10200422687E+01  0.10197625244E+01 0.  0.
     999903    2    3    3    0    0  0.40395453828E-01 -0.12248064855E+00  0.48193773191E-02  0.13061080737E+00  0.20066256343E-01 0.  0.
         14    1    1    2    0    0 -0.89997893531E-02  0.10208150687E-03  0.22127292579E-01  0.23887731284E-01  0.00000000000E+00 0. -1.
     999901    1    3    3    0    0 -0.31395664474E-01  0.12237856704E+00 -0.26946669898E-01  0.88943146135E+00  0.88000000000E+00 0. -1.
        -11    1    4    4    0    0  0.12870861636E-01 -0.38252366484E-01  0.10840970643E-01  0.41793425157E-01  0.51100000000E-03 0.  1.
         11    1    4    4    0    0  0.27524592191E-01 -0.84228282068E-01 -0.60215933238E-02  0.88817382209E-01  0.51100000000E-03 0. -1.
</event>
<event>
 8    1  0.1092667E+005  0.1043930E+01  0.7957747E-01            NaN
         13   -1    0    0    0    0  0.00000000000E+00  0.00000000000E+00  0.74505805969E-08  0.10566000000E+00  0.10566000000E+00 0. -1.
     999900   -1    0    0    0    0 -0.00000000000E+00 -0.00000000000E+00 -0.74505805969E-08  0.93827000000E+00  0.93827000000E+00 0.  1.
     999902    2    1    2    0    0 -0.90381924234E-02 -0.12308038414E-01 -0.15678205284E-01  0.10220443231E+01  0.10218099704E+01 0.  0.
     999903    2    3    3    0    0  0.46518920641E-01  0.21406312786E-01  0.11754120465E+00  0.12964830033E+00  0.19248552780E-01 0.  0.
         14    1    1    2    0    0  0.90381924234E-02  0.12308038414E-01  0.15678205284E-01  0.21885676887E-01  0.00000000000E+00 0.  1.
     999901    1    3    3    0    0 -0.55557113064E-01 -0.33714351200E-01 -0.13321940993E+00  0.89239602278E+00  0.88000000000E+00 0.  1.
        -11    1    4    4    0    0  0.57203481322E-02  0.43551180481E-02  0.51161654241E-02  0.88388746803E-02  0.51100000000E-03 0.  1.
         11    1    4    4    0    0  0.40798572508E-01  0.17051194738E-01  0.11242503923E+00  0.12080942565E+00  0.51100000000E-03 0. -1.
</event>
<event>
 8    1  0.1092667E+005  0.1043930E+01  0.7957747E-01            NaN
         13   -1    0    0    0    0  0.00000000000E+00  0.00000000000E+00  0.74505805969E-08  0.10566000000E+00  0.10566000000E+00 0. -1.
     999900   -1    0    0    0    0 -0.00000000000E+00 -0.00000000000E+00 -0.74505805969E-08  0.93827000000E+00  0.93827000000E+00 0. -1.
     999902    2    1    2    0    0 -0.24755513912E-02  0.21435227458E-01 -0.59452962272E-02  0.10215482244E+01  0.10213030064E+01 0.  0.
     999903    2    3    3    0    0  0.90263538982E-01  0.33226485507E-01 -0.89278618652E-01  0.13268152166E+00  0.19550156852E-01 0.  0.
         14    1    1    2    0    0  0.24755513912E-02 -0.21435227458E-01  0.59452962272E-02  0.22381775580E-01  0.00000000000E+00 0. -1.
     999901    1    3    3    0    0 -0.92739090373E-01 -0.11791258049E-01  0.83333322425E-01  0.88886670276E+00  0.88000000000E+00 0.  1.
        -11    1    4    4    0    0  0.16146548242E-01  0.13565024977E-01 -0.14681752332E-01  0.25700892889E-01  0.51100000000E-03 0. -1.
         11    1    4    4    0    0  0.74116990739E-01  0.19661460530E-01 -0.74596866320E-01  0.10698062877E+00  0.51100000000E-03 0.  1.
</event>
<event>
 8    1  0.1092667E+005  0.1043930E+01  0.7957747E-01            NaN
         13   -1    0    0    0    0  0.00000000000E+00  0.00000000000E+00  0.74505805969E-08  0.10566000000E+00  0.10566000000E+00 0. -1.
     999900   -1    0    0    0    0 -0.00000000000E+00 -0.00000000000E+00 -0.74505805969E-08  0.93827000000E+00  0.93827000000E+00 0.  1.
     999902    2    1    2    0    0  0.13956404010E-01 -0.10706092030E-01  0.14418543295E-01  0.10211858577E+01  0.10209325442E+01 0.  0.
     999903    2    3    3    0    0  0.11495323608E+00 -0.61860294918E-01  0.22531912874E-01  0.13389619847E+00  0.19482358535E-01 0.  0.
         14    1    1    2    0    0 -0.13956404010E-01  0.10706092030E-01 -0.14418543295E-01  0.22744142327E-01  0.00000000000E+00 0.  1.
     999901    1    3    3    0    0 -0.10099683207E+00  0.51154202888E-01 -0.81133695789E-02  0.88728965920E+00  0.88000000000E+00 0.  1.
        -11    1    4    4    0    0  0.63258149564E-01 -0.24122031521E-01  0.15915264355E-01  0.69548707043E-01  0.51100000000E-03 0.  1.
         11    1    4    4    0    0  0.51695086518E-01 -0.37738263397E-01  0.66166485194E-02  0.64347491427E-01  0.51100000000E-03 0. -1.
</event>
<event>
 8    1  0.1092667E+005  0.1043930E+01  0.7957747E-01            NaN
         13   -1    0    0    0    0  0.00000000000E+00  0.00000000000E+00  0.74505805969E-08  0.10566000000E+00  0.10566000000E+00 0. -1.
     999900   -1    0    0    0    0 -0.00000000000E+00 -0.00000000000E+00 -0.74505805969E-08  0.93827000000E+00  0.93827000000E+00 0.  1.
     999902    2    1    2    0    0 -0.11506945360E-01  0.68136803757E-02 -0.19125664367E-01  0.10205927536E+01  0.10203258997E+01 0.  0.
     999903    2    3    3    0    0 -0.12410190038E+00 -0.35458399528E-02  0.38465908146E-01  0.13149110993E+00  0.19910581159E-01 0.  0.
         14    1    1    2    0    0  0.11506945360E-01 -0.68136803757E-02  0.19125664367E-01  0.23337246394E-01  0.00000000000E+00 0. -1.
     999901    1    3    3    0    0  0.11259495502E+00  0.10359520329E-01 -0.57591572512E-01  0.88910164367E+00  0.88000000000E+00 0.  1.
        -11    1    4    4    0    0 -0.19254209907E-01  0.35715739296E-02  0.12509448421E-01  0.23242808786E-01  0.51100000000E-03 0. -1.
         11    1    4    4    0    0 -0.10484769048E+00 -0.71174138824E-02  0.25956459724E-01  0.10824830115E+00  0.51100000000E-03 0.  1.
</event>
<event>
 8    1  0.1092667E+005  0.1043930E+01  0.7957747E-01            NaN
         13   -1    0    0    0    0  0.00000000000E+00  0.00000000000E+00  0.74505805969E-08  0.10566000000E+00  0.10566000000E+00 0. -1.
     999900   -1    0    0    0    0 -0.00000000000E+00 -0.00000000000E+00 -0.74505805969E-08  0.93827000000E+00  0.93827000000E+00 0. -1.
     999902    2    1    2    0    0 -0.11678383073E-01 -0.20805152497E-01 -0.28929272570E-02  0.10198965227E+01  0.10196133135E+01 0.  0.
     999903    2    3    3    0    0  0.10602601897E+00 -0.42920371747E-01 -0.59517151937E-01  0.12998095819E+00  0.16403752879E-01 0.  0.
         14    1    1    2    0    0  0.11678383073E-01  0.20805152497E-01  0.28929272570E-02  0.24033477271E-01  0.00000000000E+00 0. -1.
     999901    1    3    3    0    0 -0.11770440204E+00  0.22115219250E-01  0.56624224680E-01  0.88991556454E+00  0.88000000000E+00 0.  1.
        -11    1    4    4    0    0  0.91117881463E-01 -0.39057637307E-01 -0.57035743932E-01  0.11437353086E+00  0.51100000000E-03 0. -1.
         11    1    4    4    0    0  0.14908137508E-01 -0.38627344400E-02 -0.24814080043E-02  0.15607427334E-01  0.51100000000E-03 0.  1.
</event>
<event>
 8    1  0.1092667E+005  0.1043930E+01  0.7957747E-01            NaN
         13   -1    0    0    0    0  0.00000000000E+00  0.00000000000E+00  0.74505805969E-08  0.10566000000E+00  0.10566000000E+00 0. -1.
     999900   -1    0    0    0    0 -0.00000000000E+00 -0.00000000000E+00 -0.74505805969E-08  0.93827000000E+00  0.93827000000E+00 0.  1.
     999902    2    1    2    0    0 -0.69313783691E-02 -0.54348327750E-02 -0.21933268745E-01  0.10202942286E+01  0.10200204229E+01 0.  0.
     999903    2    3    3    0    0 -0.77557731689E-01 -0.99817244118E-01 -0.33430644161E-01  0.13235937116E+00  0.20559941568E-01 0.  0.
         14    1    1    2    0    0  0.69313783691E-02  0.54348327750E-02  0.21933268745E-01  0.23635771433E-01  0.00000000000E+00 0. -1.
     999901    1    3    3    0    0  0.70626353320E-01  0.94382411343E-01  0.11497375416E-01  0.88793485741E+00  0.88000000000E+00 0. -1.
        -11    1    4    4    0    0 -0.44638020228E-01 -0.70634196042E-01 -0.27491229834E-01  0.87964602763E-01  0.51100000000E-03 0. -1.
         11    1    4    4    0    0 -0.32919711461E-01 -0.29183048076E-01 -0.59394143270E-02  0.44394768399E-01  0.51100000000E-03 0.  1.
</event>
<event>
 8    1  0.1092667E+005  0.1043930E+01  0.7957747E-01            NaN
         13   -1    0    0    0    0  0.00000000000E+00  0.00000000000E+00  0.74505805969E-08  0.10566000000E+00  0.10566000000E+00 0.  1.
     999900   -1    0    0    0    0 -0.00000000000E+00 -0.00000000000E+00 -0.74505805969E-08  0.93827000000E+00  0.93827000000E+00 0.  1.
     999902    2    1    2    0    0  0.62023097399E-02  0.24466672883E-02  0.22575996359E-01  0.10203900247E+01  0.10201184598E+01 0.  0.
     999903    2    3    3    0    0 -0.98083217138E-01  0.30857262313E-01  0.80465150013E-01  0.13188915965E+00  0.18644622440E-01 0.  0.
         14    1    1    2    0    0 -0.62023097399E-02 -0.24466672883E-02 -0.22575996359E-01  0.23539975330E-01  0.00000000000E+00 0. -1.
     999901    1    3    3    0    0  0.10428552688E+00 -0.28410595025E-01 -0.57889153654E-01  0.88850086502E+00  0.88000000000E+00 0.  1.
        -11    1    4    4    0    0 -0.49722070441E-01  0.25354771605E-01  0.43775636443E-01  0.70934590991E-01  0.51100000000E-03 0.  1.
         11    1    4    4    0    0 -0.48361146696E-01  0.55024907083E-02  0.36689513570E-01  0.60954568662E-01  0.51100000000E-03 0. -1.
</event>
<event>
 8    1  0.1092667E+005  0.1043930E+01  0.7957747E-01            NaN
         13   -1    0    0    0    0  0.00000000000E+00  0.00000000000E+00  0.74505805969E-08  0.10566000000E+00  0.10566000000E+00 0. -1.
     999900   -1    0    0    0    0 -0.00000000000E+00 -0.00000000000E+00 -0.74505805969E-08  0.93827000000E+00  0.93827000000E+00 0.  1.
     999902    2    1    2    0    0 -0.14669560942E-01  0.17311952348E-01 -0.82630404393E-02  0.10197809307E+01  0.10194949578E+01 0.  0.
     999903    2    3    3    0    0 -0.55333348032E-03 -0.11397306028E+00  0.54012340644E-01  0.12775332711E+00  0.20332609251E-01 0.  0.
         14    1    1    2    0    0  0.14669560942E-01 -0.17311952348E-01  0.82630404393E-02  0.24149069333E-01  0.00000000000E+00 0. -1.
     999901    1    3    3    0    0 -0.14116227461E-01  0.13128501263E+00 -0.62275381083E-01  0.89202760356E+00  0.88000000000E+00 0. -1.
        -11    1    4    4    0    0 -0.80896909901E-02 -0.26837250893E-01  0.93898605052E-02  0.29565380720E-01  0.51100000000E-03 0.  1.
         11    1    4    4    0    0  0.75363575098E-02 -0.87135809385E-01  0.44622480139E-01  0.98187946391E-01  0.51100000000E-03 0. -1.
</event>
<event>
 8    1  0.1092667E+005  0.1043930E+01  0.7957747E-01            NaN
         13   -1    0    0    0    0  0.00000000000E+00  0.00000000000E+00  0.74505805969E-08  0.10566000000E+00  0.10566000000E+00 0. -1.
     999900   -1    0    0    0    0 -0.00000000000E+00 -0.00000000000E+00 -0.74505805969E-08  0.93827000000E+00  0.93827000000E+00 0. -1.
     999902    2    1    2    0    0  0.62694725860E-02 -0.13132524476E-01  0.17976697601E-01  0.10208014215E+01  0.10205393726E+01 0.  0.
     999903    2    3    3    0    0 -0.52358855745E-01 -0.71400314386E-01  0.97520804563E-01  0.13335582816E+00  0.20833024589E-01 0.  0.
         14    1    1    2    0    0 -0.62694725860E-02  0.13132524476E-01 -0.17976697601E-01  0.23128578475E-01  0.00000000000E+00 0.  1.
     999901    1    3    3    0    0  0.58628328331E-01  0.58267789910E-01 -0.79544106961E-01  0.88744559336E+00  0.88000000000E+00 0.  1.
        -11    1    4    4    0    0  0.19010024768E-02 -0.18946512825E-02  0.37222658414E-02  0.46173474954E-02  0.51100000000E-03 0.  1.
         11    1    4    4    0    0 -0.54259858222E-01 -0.69505663103E-01  0.93798538721E-01  0.12873848067E+00  0.51100000000E-03 0. -1.
</event>
<event>
 8    1  0.1092667E+005  0.1043930E+01  0.7957747E-01            NaN
         13   -1    0    0    0    0  0.00000000000E+00  0.00000000000E+00  0.74505805969E-08  0.10566000000E+00  0.10566000000E+00 0. -1.
     999900   -1    0    0    0    0 -0.00000000000E+00 -0.00000000000E+00 -0.74505805969E-08  0.93827000000E+00  0.93827000000E+00 0.  1.
     999902    2    1    2    0    0 -0.12542221836E-01  0.14473147804E-01  0.14842243984E-01  0.10197004407E+01  0.10194125354E+01 0.  0.
     999903    2    3    3    0    0 -0.68325173567E-01 -0.77525680747E-01 -0.72202271260E-01  0.12888493245E+00  0.26825311167E-01 0.  0.
         14    1    1    2    0    0  0.12542221836E-01 -0.14473147804E-01 -0.14842243984E-01  0.24229559270E-01  0.00000000000E+00 0. -1.
     999901    1    3    3    0    0  0.55782951731E-01  0.91998828551E-01  0.87044515243E-01  0.89081550828E+00  0.88000000000E+00 0. -1.
        -11    1    4    4    0    0 -0.28829888426E-01 -0.22475953608E-01 -0.38918601301E-01  0.53397093606E-01  0.51100000000E-03 0. -1.
         11    1    4    4    0    0 -0.39495285141E-01 -0.55049727140E-01 -0.33283669959E-01  0.75487838844E-01  0.51100000000E-03 0.  1.
</event>
<event>
 8    1  0.1092667E+005  0.1043930E+01  0.7957747E-01            NaN
         13   -1    0    0    0    0  0.00000000000E+00  0.00000000000E+00  0.74505805969E-08  0.10566000000E+00  0.10566000000E+00 0.  1.
     999900   -1    0    0    0    0 -0.00000000000E+00 -0.00000000000E+00 -0.74505805969E-08  0.93827000000E+00  0.93827000000E+00 0. -1.
     999902    2    1    2    0    0 -0.53303558954E-02 -0.96060552177E-03 -0.20610131801E-01  0.10226200730E+01  0.10223980148E+01 0.  0.
     999903    2    3    3    0    0  0.60204645803E-01 -0.56157237640E-01 -0.10442631766E+00  0.13449471152E+00  0.20142911695E-01 0.  0.
         14    1    1    2    0    0  0.53303558954E-02  0.96060552177E-03  0.20610131801E-01  0.21309927024E-01  0.00000000000E+00 0.  1.
     999901    1    3    3    0    0 -0.65535001698E-01  0.55196632118E-01  0.83816185861E-01  0.88812536145E+00  0.88000000000E+00 0.  1.
        -11    1    4    4    0    0  0.18996132898E-01 -0.22803790312E-01 -0.24031442510E-01  0.38192110020E-01  0.51100000000E-03 0. -1.
         11    1    4    4    0    0  0.41208512905E-01 -0.33353447328E-01 -0.80394875152E-01  0.96302601503E-01  0.51100000000E-03 0.  1.
</event>
<event>
 8    1  0.1092667E+005  0.1043930E+01  0.7957747E-01            NaN
         13   -1    0    0    0    0  0.00000000000E+00  0.00000000000E+00  0.74505805969E-08  0.10566000000E+00  0.10566000000E+00 0.  1.
     999900   -1    0    0    0    0 -0.00000000000E+00 -0.00000000000E+00 -0.74505805969E-08  0.93827000000E+00  0.93827000000E+00 0. -1.
     999902    2    1    2    0    0  0.10859377726E-01 -0.79782821155E-02  0.19758992073E-01  0.10200135446E+01  0.10197331192E+01 0.  0.
     999903    2    3    3    0    0  0.11090711200E-02 -0.10953251578E+00  0.72016690378E-01  0.13257949192E+00  0.19806966812E-01 0.  0.
         14    1    1    2    0    0 -0.10859377726E-01  0.79782821155E-02 -0.19758992073E-01  0.23916455379E-01  0.00000000000E+00 0. -1.
     999901    1    3    3    0    0  0.97503066065E-02  0.10155423366E+00 -0.52257698305E-01  0.88743405270E+00  0.88000000000E+00 0. -1.
        -11    1    4    4    0    0  0.67956038916E-03 -0.70108256119E-01  0.34454021108E-01  0.78121508370E-01  0.51100000000E-03 0.  1.
         11    1    4    4    0    0  0.42951073084E-03 -0.39424259660E-01  0.37562669270E-01  0.54457983555E-01  0.51100000000E-03 0. -1.
</event>
<event>
 8    1  0.1092667E+005  0.1043930E+01  0.7957747E-01            NaN
         13   -1    0    0    0    0  0.00000000000E+00  0.00000000000E+00  0.74505805969E-08  0.10566000000E+00  0.10566000000E+00 0.  1.
     999900   -1    0    0    0    0 -0.00000000000E+00 -0.00000000000E+00 -0.74505805969E-08  0.93827000000E+00  0.93827000000E+00 0. -1.
     999902    2    1    2    0    0  0.15937988567E-01 -0.64769139356E-02 -0.19174720482E-01  0.10181687927E+01  0.10178428419E+01 0.  0.
     999903    2    3    3    0    0 -0.85924624401E-01 -0.64330209347E-01  0.64157963449E-01  0.12650331067E+00  0.19116129939E-01 0.  0.
         14    1    1    2    0    0 -0.15937988567E-01  0.64769139356E-02  0.19174720482E-01  0.25761207255E-01  0.00000000000E+00 0.  1.
     999901    1    3    3    0    0  0.10186261297E+00  0.57853295411E-01 -0.83332683931E-01  0.89166548207E+00  0.88000000000E+00 0.  1.
        -11    1    4    4    0    0 -0.47730101794E-01 -0.47109669080E-01  0.37414973451E-01  0.76795995322E-01  0.51100000000E-03 0. -1.
         11    1    4    4    0    0 -0.38194522606E-01 -0.17220540267E-01  0.26742989998E-01  0.49707315349E-01  0.51100000000E-03 0.  1.
</event>
<event>
 8    1  0.1092667E+005  0.1043930E+01  0.7957747E-01            NaN
         13   -1    0    0    0    0  0.00000000000E+00  0.00000000000E+00  0.74505805969E-08  0.10566000000E+00  0.10566000000E+00 0. -1.
     999900   -1    0    0    0    0 -0.00000000000E+00 -0.00000000000E+00 -0.74505805969E-08  0.93827000000E+00  0.93827000000E+00 0. -1.
     999902    2    1    2    0    0  0.31991120338E-02 -0.19765672269E-01  0.11774471504E-01  0.10207016919E+01  0.10204373521E+01 0.  0.
     999903    2    3    3    0    0 -0.51519698240E-01 -0.12060313828E+00 -0.93838966026E-02  0.13300240763E+00  0.20054591772E-01 0.  0.
         14    1    1    2    0    0 -0.31991120338E-02  0.19765672269E-01 -0.11774471504E-01  0.23228308101E-01  0.00000000000E+00 0.  1.
     999901    1    3    3    0    0  0.54718810274E-01  0.10083746601E+00  0.21158368107E-01  0.88769928427E+00  0.88000000000E+00 0.  1.
        -11    1    4    4    0    0 -0.80634240157E-02 -0.14653215026E-01 -0.78315098310E-02  0.18475096338E-01  0.51100000000E-03 0. -1.
         11    1    4    4    0    0 -0.43456274224E-01 -0.10594992325E+00 -0.15523867716E-02  0.11452731129E+00  0.51100000000E-03 0.  1.
</event>
<event>
 8    1  0.1092667E+005  0.1043930E+01  0.7957747E-01            NaN
         13   -1    0    0    0    0  0.00000000000E+00  0.00000000000E+00  0.74505805969E-08  0.10566000000E+00  0.10566000000E+00 0.  1.
     999900   -1    0    0    0    0 -0.00000000000E+00 -0.00000000000E+00 -0.74505805969E-08  0.93827000000E+00  0.93827000000E+00 0. -1.
     999902    2    1    2    0    0 -0.18288143293E-01 -0.94340330951E-02  0.10491214591E-01  0.10208318886E+01  0.10205705375E+01 0.  0.
     999903    2    3    3    0    0  0.16344678154E-01 -0.12118753042E+00  0.45749391768E-01  0.13238863464E+00  0.21912957391E-01 0.  0.
         14    1    1    2    0    0  0.18288143293E-01  0.94340330951E-02 -0.10491214591E-01  0.23098111376E-01  0.00000000000E+00 0. -1.
     999901    1    3    3    0    0 -0.34632821447E-01  0.11175349733E+00 -0.35258177178E-01  0.88844325398E+00  0.88000000000E+00 0. -1.
        -11    1    4    4    0    0  0.20427637023E-01 -0.72103305608E-01  0.26102819792E-01  0.79358637564E-01  0.51100000000E-03 0. -1.
         11    1    4    4    0    0 -0.40829588691E-02 -0.49084224815E-01  0.19646571976E-01  0.53029997079E-01  0.51100000000E-03 0.  1.
</event>
<event>
 8    1  0.1222167E+005  0.1043930E+01  0.7957747E-01            NaN
         13   -1    0    0    0    0  0.00000000000E+00  0.00000000000E+00  0.74505805969E-08  0.10566000000E+00  0.10566000000E+00 0.  1.
     999900   -1    0    0    0    0 -0.00000000000E+00 -0.00000000000E+00 -0.74505805969E-08  0.93827000000E+00  0.93827000000E+00 0.  1.
     999902    2    1    2    0    0 -0.25491304402E-02 -0.50474933289E-02 -0.24078760048E-01  0.10191961782E+01  0.10188960142E+01 0.  0.
     999903    2    3    3    0    0  0.10952227363E+00  0.51691936359E-01  0.37832639915E-01  0.12812245290E+00  0.17800831110E-01 0.  0.
         14    1    1    2    0    0  0.25491304402E-02  0.50474933289E-02  0.24078760048E-01  0.24733821791E-01  0.00000000000E+00 0.  1.
     999901    1    3    3    0    0 -0.11207140407E+00 -0.56739429688E-01 -0.61911399964E-01  0.89107372531E+00  0.88000000000E+00 0.  1.
        -11    1    4    4    0    0  0.41750431278E-01  0.20411496196E-01  0.23634451750E-01  0.52139966622E-01  0.51100000000E-03 0.  1.
         11    1    4    4    0    0  0.67771842353E-01  0.31280440164E-01  0.14198188166E-01  0.75982486277E-01  0.51100000000E-03 0. -1.
</event>
<event>
 8    1  0.1092667E+005  0.1043930E+01  0.7957747E-01            NaN
         13   -1    0    0    0    0  0.00000000000E+00  0.00000000000E+00  0.74505805969E-08  0.10566000000E+00  0.10566000000E+00 0. -1.
     999900   -1    0    0    0    0 -0.00000000000E+00 -0.00000000000E+00 -0.74505805969E-08  0.93827000000E+00  0.93827000000E+00 0. -1.
     999902    2    1    2    0    0 -0.44280303844E-02  0.23035457578E-01 -0.29578349566E-03  0.10204709453E+01  0.10202012659E+01 0.  0.
     999903    2    3    3    0    0  0.55484360631E-01  0.71945841172E-01  0.94738916166E-01  0.13198160134E+00  0.13746363826E-01 0.  0.
         14    1    1    2    0    0  0.44280303844E-02 -0.23035457578E-01  0.29578349566E-03  0.23459054687E-01  0.00000000000E+00 0.  1.
     999901    1    3    3    0    0 -0.59912391015E-01 -0.48910383593E-01 -0.95034699662E-01  0.88848934398E+00  0.88000000000E+00 0. -1.
        -11    1    4    4    0    0  0.26518263612E-01  0.38477823068E-01  0.39466336821E-01  0.61168734138E-01  0.51100000000E-03 0.  1.
         11    1    4    4    0    0  0.28966097019E-01  0.33468018104E-01  0.55272579346E-01  0.70812867198E-01  0.51100000000E-03 0. -1.
</event>
<event>
 8    1  0.1365587E+005  0.1043930E+01  0.7957747E-01            NaN
         13   -1    0    0    0    0  0.00000000000E+00  0.00000000000E+00  0.74505805969E-08  0.10566000000E+00  0.10566000000E+00 0. -1.
     999900   -1    0    0    0    0 -0.00000000000E+00 -0.00000000000E+00 -0.74505805969E-08  0.93827000000E+00  0.93827000000E+00 0. -1.
     999902    2    1    2    0    0 -0.33487107027E-01 -0.42697929620E-02  0.49785658723E-02  0.10098066416E+01  0.10092299291E+01 0.  0.
     999903    2    3    3    0    0  0.41849510953E-01 -0.85962931795E-01  0.66025017217E-01  0.12071944445E+00  0.32754757841E-01 0.  0.
         14    1    1    2    0    0  0.33487107027E-01  0.42697929620E-02 -0.49785658723E-02  0.34123358380E-01  0.00000000000E+00 0.  1.
     999901    1    3    3    0    0 -0.75336617980E-01  0.81693138833E-01 -0.61046451345E-01  0.88908719717E+00  0.88000000000E+00 0. -1.
        -11    1    4    4    0    0  0.30649450202E-01 -0.26436062327E-01  0.25550850831E-01  0.47868165708E-01  0.51100000000E-03 0.  1.
         11    1    4    4    0    0  0.11200060751E-01 -0.59526869468E-01  0.40474166386E-01  0.72851278747E-01  0.51100000000E-03 0. -1.
</event>
<event>
 8    1  0.1092667E+005  0.1043930E+01  0.7957747E-01            NaN
         13   -1    0    0    0    0  0.00000000000E+00  0.00000000000E+00  0.74505805969E-08  0.10566000000E+00  0.10566000000E+00 0.  1.
     999900   -1    0    0    0    0 -0.00000000000E+00 -0.00000000000E+00 -0.74505805969E-08  0.93827000000E+00  0.93827000000E+00 0. -1.
     999902    2    1    2    0    0  0.22282587515E-01  0.49027130814E-02 -0.65820881574E-02  0.10201839648E+01  0.10199075683E+01 0.  0.
     999903    2    3    3    0    0 -0.92243069753E-01 -0.68657491995E-01  0.51916099036E-01  0.12779992875E+00  0.20369224941E-01 0.  0.
         14    1    1    2    0    0 -0.22282587515E-01 -0.49027130814E-02  0.65820881574E-02  0.23746035173E-01  0.00000000000E+00 0. -1.
     999901    1    3    3    0    0  0.11452565727E+00  0.73560205076E-01 -0.58498187193E-01  0.89238403608E+00  0.88000000000E+00 0. -1.
        -11    1    4    4    0    0 -0.58428369036E-01 -0.32710756100E-01  0.35468861048E-01  0.75777101409E-01  0.51100000000E-03 0.  1.
         11    1    4    4    0    0 -0.33814700716E-01 -0.35946735894E-01  0.16447237988E-01  0.52022827340E-01  0.51100000000E-03 0. -1.
</event>
<event>
 8    1  0.1092667E+005  0.1043930E+01  0.7957747E-01            NaN
         13   -1    0    0    0    0  0.00000000000E+00  0.00000000000E+00  0.74505805969E-08  0.10566000000E+00  0.10566000000E+00 0.  1.
     999900   -1    0    0    0    0 -0.00000000000E+00 -0.00000000000E+00 -0.74505805969E-08  0.93827000000E+00  0.93827000000E+00 0.  1.
     999902    2    1    2    0    0 -0.12025464699E-01  0.20510982814E-01 -0.12454325278E-02  0.10201211084E+01  0.10198432294E+01 0.  0.
     999903    2    3    3    0    0 -0.39357754077E-01  0.12390134674E+00  0.20120443557E-01  0.13338940035E+00  0.22075401364E-01 0.  0.
         14    1    1    2    0    0  0.12025464699E-01 -0.20510982814E-01  0.12454325278E-02  0.23808891604E-01  0.00000000000E+00 0. -1.
     999901    1    3    3    0    0  0.27332289377E-01 -0.10339036393E+00 -0.21365876085E-01  0.88673170805E+00  0.88000000000E+00 0. -1.
        -11    1    4    4    0    0 -0.33650866927E-01  0.87863220424E-01  0.22764568335E-01  0.96802959876E-01  0.51100000000E-03 0.  1.
         11    1    4    4    0    0 -0.57068871491E-02  0.36038126321E-01 -0.26441247781E-02  0.36586440473E-01  0.51100000000E-03 0. -1.
</event>
<event>
 8    1  0.1092667E+005  0.1043930E+01  0.7957747E-01            NaN
         13   -1    0    0    0    0  0.00000000000E+00  0.00000000000E+00  0.74505805969E-08  0.10566000000E+00  0.10566000000E+00 0. -1.
     999900   -1    0    0    0    0 -0.00000000000E+00 -0.00000000000E+00 -0.74505805969E-08  0.93827000000E+00  0.93827000000E+00 0.  1.
     999902    2    1    2    0    0  0.16665672770E-02 -0.21714742731E-01  0.96589153035E-02  0.10201055977E+01  0.10198273522E+01 0.  0.
     999903    2    3    3    0    0 -0.38357053485E-02 -0.78661875435E-01 -0.10307787940E+00  0.13107082012E+00  0.18764524614E-01 0.  0.
         14    1    1    2    0    0 -0.16665672770E-02  0.21714742731E-01 -0.96589153035E-02  0.23824402263E-01  0.00000000000E+00 0.  1.
     999901    1    3    3    0    0  0.55022726255E-02  0.56947132704E-01  0.11273679470E+00  0.88903477761E+00  0.88000000000E+00 0. -1.
        -11    1    4    4    0    0 -0.53296365350E-02 -0.24479968840E-01 -0.45823853608E-01  0.52227967417E-01  0.51100000000E-03 0.  1.
         11    1    4    4    0    0  0.14939311865E-02 -0.54181906595E-01 -0.57254025791E-01  0.78842852706E-01  0.51100000000E-03 0. -1.
</event>
<event>
 8    1  0.1092667E+005  0.1043930E+01  0.7957747E-01            NaN
         13   -1    0    0    0    0  0.00000000000E+00  0.00000000000E+00  0.74505805969E-08  0.10566000000E+00  0.10566000000E+00 0.  1.
     999900   -1    0    0    0    0 -0.00000000000E+00 -0.00000000000E+00 -0.74505805969E-08  0.93827000000E+00  0.93827000000E+00 0. -1.
     999902    2    1    2    0    0  0.50859815116E-03  0.22506277541E-01 -0.24520091031E-01  0.10106429745E+01  0.10100946470E+01 0.  0.
     999903    2    3    3    0    0 -0.28759735945E-01 -0.10941011442E+00  0.29667692688E-01  0.11868171654E+00  0.20186190864E-01 0.  0.
         14    1    1    2    0    0 -0.50859815116E-03 -0.22506277541E-01  0.24520091031E-01  0.33287025475E-01  0.00000000000E+00 0. -1.
     999901    1    3    3    0    0  0.29268334097E-01  0.13191639196E+00 -0.54187783718E-01  0.89196125799E+00  0.88000000000E+00 0. -1.
        -11    1    4    4    0    0 -0.38902616540E-02 -0.41481134082E-01  0.18077803208E-01  0.45419012652E-01  0.51100000000E-03 0. -1.
         11    1    4    4    0    0 -0.24869474292E-01 -0.67928980338E-01  0.11589889480E-01  0.73262703884E-01  0.51100000000E-03 0.  1.
</event>
<event>
 8    1  0.1092667E+005  0.1043930E+01  0.7957747E-01            NaN
         13   -1    0    0    0    0  0.00000000000E+00  0.00000000000E+00  0.74505805969E-08  0.10566000000E+00  0.10566000000E+00 0.  1.
     999900   -1    0    0    0    0 -0.00000000000E+00 -0.00000000000E+00 -0.74505805969E-08  0.93827000000E+00  0.93827000000E+00 0. -1.
     999902    2    1    2    0    0 -0.95149943223E-02  0.21349790994E-01  0.27488208866E-02  0.10203948198E+01  0.10201233668E+01 0.  0.
     999903    2    3    3    0    0 -0.82317395360E-02 -0.99220411510E-01  0.79329656209E-01  0.12887732425E+00  0.20092753790E-01 0.  0.
         14    1    1    2    0    0  0.95149943223E-02 -0.21349790994E-01 -0.27488208866E-02  0.23535180235E-01  0.00000000000E+00 0.  1.
     999901    1    3    3    0    0 -0.12832547863E-02  0.12057020250E+00 -0.76580835323E-01  0.89151749552E+00  0.88000000000E+00 0.  1.
        -11    1    4    4    0    0 -0.92294788404E-02 -0.38674340930E-01  0.41503520282E-01  0.57477745631E-01  0.51100000000E-03 0.  1.
         11    1    4    4    0    0  0.99773930444E-03 -0.60546070580E-01  0.37826135927E-01  0.71399578616E-01  0.51100000000E-03 0. -1.
</event>
<event>
 8    1  0.1092667E+005  0.1043930E+01  0.7957747E-01            NaN
         13   -1    0    0    0    0  0.00000000000E+00  0.00000000000E+00  0.74505805969E-08  0.10566000000E+00  0.10566000000E+00 0.  1.
     999900   -1    0    0    0    0 -0.00000000000E+00 -0.00000000000E+00 -0.74505805969E-08  0.93827000000E+00  0.93827000000E+00 0. -1.
     999902    2    1    2    0    0  0.18801925197E-01  0.56953235992E-02  0.11841675643E-01  0.10209915087E+01  0.10207337980E+01 0.  0.
     999903    2    3    3    0    0  0.82256386002E-01  0.33239128681E-03 -0.10082841289E+00  0.13152550118E+00  0.19140665952E-01 0.  0.
         14    1    1    2    0    0 -0.18801925197E-01 -0.56953235992E-02 -0.11841675643E-01  0.22938491320E-01  0.00000000000E+00 0. -1.
     999901    1    3    3    0    0 -0.63454460805E-01  0.53629323124E-02  0.11267008854E+00  0.88946600750E+00  0.88000000000E+00 0.  1.
        -11    1    4    4    0    0  0.51717089862E-01 -0.13537950786E-02 -0.76919550676E-01  0.92700423635E-01  0.51100000000E-03 0. -1.
         11    1    4    4    0    0  0.30539296140E-01  0.16861863654E-02 -0.23908862218E-01  0.38825077549E-01  0.51100000000E-03 0.  1.
</event>
<event>
 8    1  0.1092667E+005  0.1043930E+01  0.7957747E-01            NaN
         13   -1    0    0    0    0  0.00000000000E+00  0.00000000000E+00  0.74505805969E-08  0.10566000000E+00  0.10566000000E+00 0. -1.
     999900   -1    0    0    0    0 -0.00000000000E+00 -0.00000000000E+00 -0.74505805969E-08  0.93827000000E+00  0.93827000000E+00 0. -1.
     999902    2    1    2    0    0  0.20563852796E-01  0.84549564946E-02 -0.75136618352E-02  0.10204605849E+01  0.10201906645E+01 0.  0.
     999903    2    3    3    0    0  0.51311339404E-02  0.13172197908E-01  0.12775425080E+00  0.12997878869E+00  0.19326188952E-01 0.  0.
         14    1    1    2    0    0 -0.20563852796E-01 -0.84549564946E-02  0.75136618352E-02  0.23469415104E-01  0.00000000000E+00 0. -1.
     999901    1    3    3    0    0  0.15432718855E-01 -0.47172414137E-02 -0.13526791264E+00  0.89048179620E+00  0.88000000000E+00 0. -1.
        -11    1    4    4    0    0  0.37294118778E-03  0.58736501478E-02  0.11035798823E+00  0.11051599676E+00  0.51100000000E-03 0.  1.
         11    1    4    4    0    0  0.47581927526E-02  0.72985477606E-02  0.17396262568E-01  0.19462791938E-01  0.51100000000E-03 0. -1.
</event>
<event>
 8    1  0.1092667E+005  0.1043930E+01  0.7957747E-01            NaN
         13   -1    0    0    0    0  0.00000000000E+00  0.00000000000E+00  0.74505805969E-08  0.10566000000E+00  0.10566000000E+00 0.  1.
     999900   -1    0    0    0    0 -0.00000000000E+00 -0.00000000000E+00 -0.74505805969E-08  0.93827000000E+00  0.93827000000E+00 0.  1.
     999902    2    1    2    0    0 -0.14617398299E-01  0.54563593727E-02  0.17238328095E-01  0.10206791904E+01  0.10204143323E+01 0.  0.
     999903    2    3    3    0    0  0.10680854698E+00 -0.90214190786E-02 -0.67358448141E-01  0.12820483179E+00  0.20245163618E-01 0.  0.
         14    1    1    2    0    0  0.14617398299E-01 -0.54563593727E-02 -0.17238328095E-01  0.23250809580E-01  0.00000000000E+00 0. -1.
     999901    1    3    3    0    0 -0.12142594528E+00  0.14477778451E-01  0.84596776236E-01  0.89247435863E+00  0.88000000000E+00 0. -1.
        -11    1    4    4    0    0  0.50061865981E-01 -0.13375135738E-01 -0.37221218360E-01  0.63802546178E-01  0.51100000000E-03 0.  1.
         11    1    4    4    0    0  0.56746680995E-01  0.43537166599E-02 -0.30137229781E-01  0.64402285616E-01  0.51100000000E-03 0. -1.
</event>
<event>
 8    1  0.1092667E+005  0.1043930E+01  0.7957747E-01            NaN
         13   -1    0    0    0    0  0.00000000000E+00  0.00000000000E+00  0.74505805969E-08  0.10566000000E+00  0.10566000000E+00 0. -1.
     999900   -1    0    0    0    0 -0.00000000000E+00 -0.00000000000E+00 -0.74505805969E-08  0.93827000000E+00  0.93827000000E+00 0. -1.
     999902    2    1    2    0    0 -0.16645341239E-01 -0.16626699718E-01 -0.27592886951E-02  0.10202418552E+01  0.10199668205E+01 0.  0.
     999903    2    3    3    0    0 -0.12368436708E+00  0.41781968345E-01  0.17351942237E-03  0.13182892932E+00  0.18310678801E-01 0.  0.
         14    1    1    2    0    0  0.16645341239E-01  0.16626699718E-01  0.27592886951E-02  0.23688144768E-01  0.00000000000E+00 0.  1.
     999901    1    3    3    0    0  0.10703902584E+00 -0.58408668063E-01 -0.29328081174E-02  0.88841292591E+00  0.88000000000E+00 0. -1.
        -11    1    4    4    0    0 -0.71125985240E-01  0.24808486047E-01 -0.89036408430E-02  0.75854483701E-01  0.51100000000E-03 0. -1.
         11    1    4    4    0    0 -0.52558381842E-01  0.16973482298E-01  0.90771602654E-02  0.55974445622E-01  0.51100000000E-03 0.  1.
</event>
<event>
 8    1  0.1092667E+005  0.1043930E+01  0.7957747E-01            NaN
         13   -1    0    0    0    0  0.00000000000E+00  0.00000000000E+00  0.74505805969E-08  0.10566000000E+00  0.10566000000E+00 0. -1.
     999900   -1    0    0    0    0 -0.00000000000E+00 -0.00000000000E+00 -0.74505805969E-08  0.93827000000E+00  0.93827000000E+00 0.  1.
     999902    2    1    2    0    0 -0.16910252336E-01 -0.12859731321E-01 -0.13434724903E-01  0.10187939471E+01  0.10184838170E+01 0.  0.
     999903    2    3    3    0    0 -0.34066651309E-01  0.64490174943E-01 -0.10622440018E+00  0.13037553559E+00  0.19865489916E-01 0.  0.
         14    1    1    2    0    0  0.16910252336E-01  0.12859731321E-01  0.13434724903E-01  0.25136052930E-01  0.00000000000E+00 0. -1.
     999901    1    3    3    0    0  0.17156398973E-01 -0.77349906264E-01  0.92789675280E-01  0.88841841148E+00  0.88000000000E+00 0. -1.
        -11    1    4    4    0    0 -0.86115172790E-02  0.18888739114E-01 -0.16357360588E-01  0.26434202496E-01  0.51100000000E-03 0. -1.
         11    1    4    4    0    0 -0.25455134029E-01  0.45601435829E-01 -0.89867039594E-01  0.10394133309E+00  0.51100000000E-03 0.  1.
</event>
<event>
 8    1  0.1092667E+005  0.1043930E+01  0.7957747E-01            NaN
         13   -1    0    0    0    0  0.00000000000E+00  0.00000000000E+00  0.74505805969E-08  0.10566000000E+00  0.10566000000E+00 0. -1.
     999900   -1    0    0    0    0 -0.00000000000E+00 -0.00000000000E+00 -0.74505805969E-08  0.93827000000E+00  0.93827000000E+00 0. -1.
     999902    2    1    2    0    0  0.15869544769E-01  0.14086213801E-01  0.68784371895E-02  0.10216235711E+01  0.10213800195E+01 0.  0.
     999903    2    3    3    0    0 -0.19611733030E-01  0.61768293812E-01  0.11452708518E+00  0.13307377892E+00  0.19804928812E-01 0.  0.
         14    1    1    2    0    0 -0.15869544769E-01 -0.14086213801E-01 -0.68784371895E-02  0.22306428862E-01  0.00000000000E+00 0.  1.
     999901    1    3    3    0    0  0.35481277798E-01 -0.47682080010E-01 -0.10764864799E+00  0.88854979221E+00  0.88000000000E+00 0. -1.
        -11    1    4    4    0    0 -0.15774274984E-01  0.45167818648E-01  0.65109587292E-01  0.80799004146E-01  0.51100000000E-03 0.  1.
         11    1    4    4    0    0 -0.38374580461E-02  0.16600475164E-01  0.49417497885E-01  0.52274774779E-01  0.51100000000E-03 0. -1.
</event>
<event>
 8    1  0.1092667E+005  0.1043930E+01  0.7957747E-01            NaN
         13   -1    0    0    0    0  0.00000000000E+00  0.00000000000E+00  0.74505805969E-08  0.10566000000E+00  0.10566000000E+00 0.  1.
     999900   -1    0    0    0    0 -0.00000000000E+00 -0.00000000000E+00 -0.74505805969E-08  0.93827000000E+00  0.93827000000E+00 0.  1.
     999902    2    1    2    0    0 -0.12630120393E-01 -0.10881341815E-01  0.13918350955E-01  0.10222126329E+01  0.10219819092E+01 0.  0.
     999903    2    3    3    0    0 -0.71697091993E-01 -0.45590670958E-01  0.10315461930E+00  0.13505044014E+00  0.19461850358E-01 0.  0.
         14    1    1    2    0    0  0.12630120393E-01  0.10881341815E-01 -0.13918350955E-01  0.21717367109E-01  0.00000000000E+00 0. -1.
     999901    1    3    3    0    0  0.59066971600E-01  0.34709329144E-01 -0.89236268347E-01  0.88716219275E+00  0.88000000000E+00 0.  1.
        -11    1    4    4    0    0 -0.39243416006E-01 -0.19523086058E-01  0.39585644409E-01  0.59063363884E-01  0.51100000000E-03 0. -1.
         11    1    4    4    0    0 -0.32453675987E-01 -0.26067584900E-01  0.63568974893E-01  0.75987076254E-01  0.51100000000E-03 0.  1.
</event>
<event>
 8    1  0.1092667E+005  0.1043930E+01  0.7957747E-01            NaN
         13   -1    0    0    0    0  0.00000000000E+00  0.00000000000E+00  0.74505805969E-08  0.10566000000E+00  0.10566000000E+00 0.  1.
     999900   -1    0    0    0    0 -0.00000000000E+00 -0.00000000000E+00 -0.74505805969E-08  0.93827000000E+00  0.93827000000E+00 0.  1.
     999902    2    1    2    0    0  0.19083724210E-01  0.11113366216E-01 -0.12360288350E-02  0.10218116093E+01  0.10215721912E+01 0.  0.
     999903    2    3    3    0    0 -0.89703476280E-02 -0.21205341585E-01  0.12782269842E+00  0.13136919968E+00  0.19725383287E-01 0.  0.
         14    1    1    2    0    0 -0.19083724210E-01 -0.11113366216E-01  0.12360288350E-02  0.22118390666E-01  0.00000000000E+00 0. -1.
     999901    1    3    3    0    0  0.28054071838E-01  0.32318707801E-01 -0.12905872726E+00  0.89044240965E+00  0.88000000000E+00 0.  1.
        -11    1    4    4    0    0 -0.55907345213E-02  0.12397227990E-02  0.11563873524E-01  0.12914236988E-01  0.51100000000E-03 0. -1.
         11    1    4    4    0    0 -0.33796131067E-02 -0.22445064384E-01  0.11625882490E+00  0.11845496270E+00  0.51100000000E-03 0.  1.
</event>
<event>
 8    1  0.1092667E+005  0.1043930E+01  0.7957747E-01            NaN
         13   -1    0    0    0    0  0.00000000000E+00  0.00000000000E+00  0.74505805969E-08  0.10566000000E+00  0.10566000000E+00 0.  1.
     999900   -1    0    0    0    0 -0.00000000000E+00 -0.00000000000E+00 -0.74505805969E-08  0.93827000000E+00  0.93827000000E+00 0. -1.
     999902    2    1    2    0    0  0.20193466873E-01  0.54706303289E-02 -0.99890045967E-02  0.10207462964E+01  0.10204829824E+01 0.  0.
     999903    2    3    3    0    0 -0.32708616666E-01 -0.12317578990E+00 -0.15167555855E-01  0.12980558608E+00  0.19424381749E-01 0.  0.
         14    1    1    2    0    0 -0.20193466873E-01 -0.54706303289E-02  0.99890045967E-02  0.23183703616E-01  0.00000000000E+00 0.  1.
     999901    1    3    3    0    0  0.52902083538E-01  0.12864642023E+00  0.51785512581E-02  0.89094071030E+00  0.88000000000E+00 0. -1.
        -11    1    4    4    0    0 -0.11175584768E-01 -0.70564467860E-01 -0.14759912937E-01  0.72954465046E-01  0.51100000000E-03 0.  1.
         11    1    4    4    0    0 -0.21533031898E-01 -0.52611322038E-01 -0.40764291813E-03  0.56851121035E-01  0.51100000000E-03 0. -1.
</event>
<event>
 8    1  0.1092667E+005  0.1043930E+01  0.7957747E-01            NaN
         13   -1    0    0    0    0  0.00000000000E+00  0.00000000000E+00  0.74505805969E-08  0.10566000000E+00  0.10566000000E+00 0.  1.
     999900   -1    0    0    0    0 -0.00000000000E+00 -0.00000000000E+00 -0.74505805969E-08  0.93827000000E+00  0.93827000000E+00 0.  1.
     999902    2    1    2    0    0 -0.52860033540E-02  0.22931314051E-01 -0.31897075285E-02  0.10201821321E+01  0.10199056924E+01 0.  0.
     999903    2    3    3    0    0 -0.12694759575E+00  0.26720245861E-01  0.11719812554E-01  0.13167878779E+00  0.19294702455E-01 0.  0.
         14    1    1    2    0    0  0.52860033540E-02 -0.22931314051E-01  0.31897075285E-02  0.23747867898E-01  0.00000000000E+00 0.  1.
     999901    1    3    3    0    0  0.12166159239E+00 -0.37889318095E-02 -0.14909520083E-01  0.88850334431E+00  0.88000000000E+00 0. -1.
        -11    1    4    4    0    0 -0.71215249267E-01  0.78646540485E-02  0.13035989610E-01  0.72826249784E-01  0.51100000000E-03 0. -1.
         11    1    4    4    0    0 -0.55732346478E-01  0.18855591812E-01 -0.13161770561E-02  0.58852538004E-01  0.51100000000E-03 0.  1.
</event>
<event>
 8    1  0.1092667E+005  0.1043930E+01  0.7957747E-01            NaN
         13   -1    0    0    0    0  0.00000000000E+00  0.00000000000E+00  0.74505805969E-08  0.10566000000E+00  0.10566000000E+00 0. -1.
     999900   -1    0    0    0    0 -0.00000000000E+00 -0.00000000000E+00 -0.74505805969E-08  0.93827000000E+00  0.93827000000E+00 0.  1.
     999902    2    1    2    0    0  0.20433610113E-01 -0.10810996579E-01 -0.22287044362E-02  0.10207055045E+01  0.10204412524E+01 0.  0.
     999903    2    3    3    0    0 -0.26286111983E-01 -0.22913090814E-01 -0.12456546886E+00  0.13093279358E+00  0.20269952814E-01 0.  0.
         14    1    1    2    0    0 -0.20433610113E-01  0.10810996579E-01  0.22287044362E-02  0.23224495533E-01  0.00000000000E+00 0. -1.
     999901    1    3    3    0    0  0.46719722096E-01  0.12102094235E-01  0.12233676442E+00  0.88977271089E+00  0.88000000000E+00 0. -1.
        -11    1    4    4    0    0 -0.91498750446E-02  0.87587348401E-03 -0.15822758416E-01  0.18305960029E-01  0.51100000000E-03 0.  1.
         11    1    4    4    0    0 -0.17136236938E-01 -0.23788964298E-01 -0.10874271045E+00  0.11262683355E+00  0.51100000000E-03 0. -1.
</event>
<event>
 7    1  0.1455079E+005  0.1043930E+01  0.7957747E-01            NaN
         13   -1    0    0    0    0  0.00000000000E+00  0.00000000000E+00  0.74505805969E-08  0.10566000000E+00  0.10566000000E+00 0. -1.
     999900   -1    0    0    0    0 -0.00000000000E+00 -0.00000000000E+00 -0.74505805969E-08  0.93827000000E+00  0.93827000000E+00 0. -1.
     999903    2    1    2    0    0 -0.68243605997E-01  0.74668370148E-01 -0.29453936928E-01  0.10729705876E+00  0.20311798490E-01 0.  0.
         14    1    1    2    0    0 -0.16066222670E-01 -0.21090658409E-01 -0.40299349838E-01  0.48238749780E-01  0.00000000000E+00 0.  1.
     999901    1    1    2    0    0  0.84309828667E-01 -0.53577711739E-01  0.69753286765E-01  0.88839419146E+00  0.88000000000E+00 0.  1.
        -11    1    3    3    0    0 -0.37944790403E-01  0.26643298356E-01 -0.12150291496E-01  0.47932902796E-01  0.51100000000E-03 0.  1.
         11    1    3    3    0    0 -0.30298815594E-01  0.48025071793E-01 -0.17303645431E-01  0.59364155964E-01  0.51100000000E-03 0. -1.
</event>
<event>
 8    1  0.1092667E+005  0.1043930E+01  0.7957747E-01            NaN
         13   -1    0    0    0    0  0.00000000000E+00  0.00000000000E+00  0.74505805969E-08  0.10566000000E+00  0.10566000000E+00 0. -1.
     999900   -1    0    0    0    0 -0.00000000000E+00 -0.00000000000E+00 -0.74505805969E-08  0.93827000000E+00  0.93827000000E+00 0. -1.
     999902    2    1    2    0    0 -0.44984758559E-02 -0.31109324975E-02  0.23306747255E-01  0.10199901033E+01  0.10197091214E+01 0.  0.
     999903    2    3    3    0    0 -0.10449781840E+00  0.74772819135E-01 -0.80515489883E-02  0.13035585823E+00  0.20421895150E-01 0.  0.
         14    1    1    2    0    0  0.44984758559E-02  0.31109324975E-02 -0.23306747255E-01  0.23939896692E-01  0.00000000000E+00 0.  1.
     999901    1    3    3    0    0  0.99999342542E-01 -0.77883751633E-01  0.31358296243E-01  0.88963424508E+00  0.88000000000E+00 0. -1.
        -11    1    4    4    0    0 -0.88887420782E-01  0.54201412098E-01 -0.90855561511E-02  0.10450633999E+00  0.51100000000E-03 0.  1.
         11    1    4    4    0    0 -0.15610397617E-01  0.20571407037E-01  0.10340071628E-02  0.25849518236E-01  0.51100000000E-03 0. -1.
</event>
<event>
 8    1  0.1092667E+005  0.1043930E+01  0.7957747E-01            NaN
         13   -1    0    0    0    0  0.00000000000E+00  0.00000000000E+00  0.74505805969E-08  0.10566000000E+00  0.10566000000E+00 0. -1.
     999900   -1    0    0    0    0 -0.00000000000E+00 -0.00000000000E+00 -0.74505805969E-08  0.93827000000E+00  0.93827000000E+00 0. -1.
     999902    2    1    2    0    0 -0.20367669350E-01 -0.11470590901E-01  0.27297441199E-02  0.10203956015E+01  0.10201241668E+01 0.  0.
     999903    2    3    3    0    0 -0.11375170320E-01  0.25857955561E-01 -0.12557118766E+00  0.13026335597E+00  0.20059670293E-01 0.  0.
         14    1    1    2    0    0  0.20367669350E-01  0.11470590901E-01 -0.27297441199E-02  0.23534398512E-01  0.00000000000E+00 0. -1.
     999901    1    3    3    0    0 -0.89924990299E-02 -0.37328546461E-01  0.12830093178E+00  0.89013224552E+00  0.88000000000E+00 0.  1.
        -11    1    4    4    0    0 -0.13477460782E-01  0.21738725355E-01 -0.70539071388E-01  0.75034897497E-01  0.51100000000E-03 0.  1.
         11    1    4    4    0    0  0.21022904628E-02  0.41192302052E-02 -0.55032116272E-01  0.55228458471E-01  0.51100000000E-03 0. -1.
</event>
<event>
 8    1  0.1092667E+005  0.1043930E+01  0.7957747E-01            NaN
         13   -1    0    0    0    0  0.00000000000E+00  0.00000000000E+00  0.74505805969E-08  0.10566000000E+00  0.10566000000E+00 0. -1.
     999900   -1    0    0    0    0 -0.00000000000E+00 -0.00000000000E+00 -0.74505805969E-08  0.93827000000E+00  0.93827000000E+00 0.  1.
     999902    2    1    2    0    0 -0.14970156855E-01 -0.11511590169E-01  0.13591199322E-01  0.10206632210E+01  0.10203979948E+01 0.  0.
     999903    2    3    3    0    0  0.21785674756E-01 -0.12826246625E+00  0.11174481688E-01  0.13218834871E+00  0.20567319210E-01 0.  0.
         14    1    1    2    0    0  0.14970156855E-01  0.11511590169E-01 -0.13591199322E-01  0.23266778967E-01  0.00000000000E+00 0.  1.
     999901    1    3    3    0    0 -0.36755831611E-01  0.11675087609E+00  0.24167176348E-02  0.88847487232E+00  0.88000000000E+00 0. -1.
        -11    1    4    4    0    0  0.17594869027E-01 -0.65060774987E-01  0.13772139241E-01  0.68792563539E-01  0.51100000000E-03 0.  1.
         11    1    4    4    0    0  0.41908057294E-02 -0.63201691268E-01 -0.25976575532E-02  0.63395785172E-01  0.51100000000E-03 0. -1.
</event>
<event>
 8    1  0.1092667E+005  0.1043930E+01  0.7957747E-01            NaN
         13   -1    0    0    0    0  0.00000000000E+00  0.00000000000E+00  0.74505805969E-08  0.10566000000E+00  0.10566000000E+00 0.  1.
     999900   -1    0    0    0    0 -0.00000000000E+00 -0.00000000000E+00 -0.74505805969E-08  0.93827000000E+00  0.93827000000E+00 0. -1.
     999902    2    1    2    0    0  0.13860978811E-01  0.58307894579E-02  0.18518327759E-01  0.10200751619E+01  0.10197961966E+01 0.  0.
     999903    2    3    3    0    0 -0.98169631239E-01 -0.42065849579E-02 -0.78786740884E-01  0.12759553585E+00  0.20452344006E-01 0.  0.
         14    1    1    2    0    0 -0.13860978811E-01 -0.58307894579E-02 -0.18518327759E-01  0.23854838131E-01  0.00000000000E+00 0. -1.
     999901    1    3    3    0    0  0.11203061005E+00  0.10037374416E-01  0.97305068643E-01  0.89247962602E+00  0.88000000000E+00 0.  1.
        -11    1    4    4    0    0 -0.29136063663E-01  0.63480342186E-02 -0.16880087242E-01  0.34269610598E-01  0.51100000000E-03 0.  1.
         11    1    4    4    0    0 -0.69033567576E-01 -0.10554619176E-01 -0.61906653642E-01  0.93325925253E-01  0.51100000000E-03 0. -1.
</event>
<event>
 8    1  0.1092667E+005  0.1043930E+01  0.7957747E-01            NaN
         13   -1    0    0    0    0  0.00000000000E+00  0.00000000000E+00  0.74505805969E-08  0.10566000000E+00  0.10566000000E+00 0.  1.
     999900   -1    0    0    0    0 -0.00000000000E+00 -0.00000000000E+00 -0.74505805969E-08  0.93827000000E+00  0.93827000000E+00 0.  1.
     999902    2    1    2    0    0 -0.23436249529E-01 -0.71916190275E-02 -0.55785383266E-03  0.10194088178E+01  0.10191138550E+01 0.  0.
     999903    2    3    3    0    0 -0.78860636885E-01  0.89867370792E-01  0.49184377826E-01  0.13094576294E+00  0.20797726482E-01 0.  0.
         14    1    1    2    0    0  0.23436249529E-01  0.71916190275E-02  0.55785383266E-03  0.24521182213E-01  0.00000000000E+00 0.  1.
     999901    1    3    3    0    0  0.55424387356E-01 -0.97058989819E-01 -0.49742231658E-01  0.88846305485E+00  0.88000000000E+00 0. -1.
        -11    1    4    4    0    0 -0.61080887907E-01  0.57147985443E-01  0.39266731559E-01  0.92406192629E-01  0.51100000000E-03 0.  1.
         11    1    4    4    0    0 -0.17779748977E-01  0.32719385349E-01  0.99176462666E-02  0.38539570311E-01  0.51100000000E-03 0. -1.
</event>
<event>
 8    1  0.1092667E+005  0.1043930E+01  0.7957747E-01            NaN
         13   -1    0    0    0    0  0.00000000000E+00  0.00000000000E+00  0.74505805969E-08  0.10566000000E+00  0.10566000000E+00 0.  1.
     999900   -1    0    0    0    0 -0.00000000000E+00 -0.00000000000E+00 -0.74505805969E-08  0.93827000000E+00  0.93827000000E+00 0.  1.
     999902    2    1    2    0    0 -0.14488566714E-01 -0.16938724966E-01  0.39946398891E-02  0.10212849980E+01  0.10210339127E+01 0.  0.
     999903    2    3    3    0    0  0.59724278719E-01  0.49712090778E-01 -0.10160920518E+00  0.12937578188E+00  0.19374749594E-01 0.  0.
         14    1    1    2    0    0  0.14488566714E-01  0.16938724966E-01 -0.39946398891E-02  0.22645002026E-01  0.00000000000E+00 0. -1.
     999901    1    3    3    0    0 -0.74212845433E-01 -0.66650815744E-01  0.10560384506E+00  0.89190921610E+00  0.88000000000E+00 0. -1.
        -11    1    4    4    0    0  0.29107461908E-01  0.27934667276E-01 -0.67440109496E-01  0.78587654656E-01  0.51100000000E-03 0. -1.
         11    1    4    4    0    0  0.30616816811E-01  0.21777423502E-01 -0.34169095679E-01  0.50788127220E-01  0.51100000000E-03 0.  1.
</event>
<event>
 8    1  0.1092667E+005  0.1043930E+01  0.7957747E-01            NaN
         13   -1    0    0    0    0  0.00000000000E+00  0.00000000000E+00  0.74505805969E-08  0.10566000000E+00  0.10566000000E+00 0. -1.
     999900   -1    0    0    0    0 -0.00000000000E+00 -0.00000000000E+00 -0.74505805969E-08  0.93827000000E+00  0.93827000000E+00 0.  1.
     999902    2    1    2    0    0 -0.20816707743E-01  0.24931702529E-02  0.10371328708E-01  0.10205394960E+01  0.10202714086E+01 0.  0.
     999903    2    3    3    0    0  0.71398410619E-01  0.26288304094E-01  0.10416535201E+00  0.13044559349E+00  0.19411963578E-01 0.  0.
         14    1    1    2    0    0  0.20816707743E-01 -0.24931702529E-02 -0.10371328708E-01  0.23390504021E-01  0.00000000000E+00 0.  1.
     999901    1    3    3    0    0 -0.92215118362E-01 -0.23795133841E-01 -0.93794023299E-01  0.89009390249E+00  0.88000000000E+00 0.  1.
        -11    1    4    4    0    0  0.24663352379E-01  0.57148883270E-02  0.49738922388E-01  0.55813640094E-01  0.51100000000E-03 0. -1.
         11    1    4    4    0    0  0.46735058240E-01  0.20573415767E-01  0.54426429619E-01  0.74631953392E-01  0.51100000000E-03 0.  1.
</event>
<event>
 7    1  0.1092667E+005  0.1043930E+01  0.7957747E-01            NaN
         13   -1    0    0    0    0  0.00000000000E+00  0.00000000000E+00  0.74505805969E-08  0.10566000000E+00  0.10566000000E+00 0. -1.
     999900   -1    0    0    0    0 -0.00000000000E+00 -0.00000000000E+00 -0.74505805969E-08  0.93827000000E+00  0.93827000000E+00 0.  1.
     999903    2    1    2    0    0  0.47104071337E-01 -0.10498820945E+00  0.26734559949E-01  0.11980743368E+00  0.19944092067E-01 0.  0.
         14    1    1    2    0    0 -0.57809736845E-02  0.36817337184E-01 -0.15726396949E-01  0.40450655558E-01  0.00000000000E+00 0.  1.
     999901    1    1    2    0    0 -0.41323097653E-01  0.68170872265E-01 -0.11008163000E-01  0.88367191077E+00  0.88000000000E+00 0. -1.
        -11    1    3    3    0    0  0.44780658095E-01 -0.82524086678E-01  0.24929867692E-01  0.97145723764E-01  0.51100000000E-03 0. -1.
         11    1    3    3    0    0  0.23234132418E-02 -0.22464122771E-01  0.18046922572E-02  0.22661709912E-01  0.51100000000E-03 0.  1.
</event>
<event>
 8    1  0.1092667E+005  0.1043930E+01  0.7957747E-01            NaN
         13   -1    0    0    0    0  0.00000000000E+00  0.00000000000E+00  0.74505805969E-08  0.10566000000E+00  0.10566000000E+00 0.  1.
     999900   -1    0    0    0    0 -0.00000000000E+00 -0.00000000000E+00 -0.74505805969E-08  0.93827000000E+00  0.93827000000E+00 0. -1.
     999902    2    1    2    0    0  0.24120460415E-01  0.44995454584E-02 -0.13602908290E-02  0.10193557673E+01  0.10190595113E+01 0.  0.
     999903    2    3    3    0    0 -0.90194258873E-01  0.28613682610E-01  0.83501042997E-01  0.12758741589E+00  0.18771716647E-01 0.  0.
         14    1    1    2    0    0 -0.24120460415E-01 -0.44995454584E-02  0.13602908290E-02  0.24574232666E-01  0.00000000000E+00 0. -1.
     999901    1    3    3    0    0  0.11431471929E+00 -0.24114137152E-01 -0.84861333826E-01  0.89176835144E+00  0.88000000000E+00 0. -1.
        -11    1    4    4    0    0 -0.43256774637E-01  0.67016959272E-02  0.29694493274E-01  0.52896931216E-01  0.51100000000E-03 0.  1.
         11    1    4    4    0    0 -0.46937484236E-01  0.21911986683E-01  0.53806549723E-01  0.74690484675E-01  0.51100000000E-03 0. -1.
</event>
<event>
 8    1  0.1092667E+005  0.1043930E+01  0.7957747E-01            NaN
         13   -1    0    0    0    0  0.00000000000E+00  0.00000000000E+00  0.74505805969E-08  0.10566000000E+00  0.10566000000E+00 0. -1.
     999900   -1    0    0    0    0 -0.00000000000E+00 -0.00000000000E+00 -0.74505805969E-08  0.93827000000E+00  0.93827000000E+00 0. -1.
     999902    2    1    2    0    0 -0.15083275035E-02 -0.16568941717E-01 -0.17072751408E-01  0.10200912978E+01  0.10198127142E+01 0.  0.
     999903    2    3    3    0    0  0.92313288153E-02  0.94484617675E-01  0.82729332649E-01  0.12744988646E+00  0.19666485950E-01 0.  0.
         14    1    1    2    0    0  0.15083275035E-02  0.16568941717E-01  0.17072751408E-01  0.23838702190E-01  0.00000000000E+00 0. -1.
     999901    1    3    3    0    0 -0.10739656319E-01 -0.11105355939E+00 -0.99802084057E-01  0.89264141135E+00  0.88000000000E+00 0. -1.
        -11    1    4    4    0    0  0.14608484488E-01  0.82307894409E-01  0.72490002570E-01  0.11064835694E+00  0.51100000000E-03 0.  1.
         11    1    4    4    0    0 -0.53771556724E-02  0.12176723267E-01  0.10239330079E-01  0.16801529517E-01  0.51100000000E-03 0. -1.
</event>
<event>
 8    1  0.1092667E+005  0.1043930E+01  0.7957747E-01            NaN
         13   -1    0    0    0    0  0.00000000000E+00  0.00000000000E+00  0.74505805969E-08  0.10566000000E+00  0.10566000000E+00 0.  1.
     999900   -1    0    0    0    0 -0.00000000000E+00 -0.00000000000E+00 -0.74505805969E-08  0.93827000000E+00  0.93827000000E+00 0. -1.
     999902    2    1    2    0    0  0.11753958927E-01  0.16609064271E-01  0.11670875377E-01  0.10204731055E+01  0.10202034764E+01 0.  0.
     999903    2    3    3    0    0  0.10899281101E+00 -0.20349158743E-01  0.69647945886E-01  0.13245134604E+00  0.19975024119E-01 0.  0.
         14    1    1    2    0    0 -0.11753958927E-01 -0.16609064271E-01 -0.11670875377E-01  0.23456894476E-01  0.00000000000E+00 0. -1.
     999901    1    3    3    0    0 -0.97238852087E-01  0.36958223014E-01 -0.57977070509E-01  0.88802175948E+00  0.88000000000E+00 0. -1.
        -11    1    4    4    0    0  0.80273946935E-01 -0.15087044458E-01  0.40417480496E-01  0.91133744122E-01  0.51100000000E-03 0. -1.
         11    1    4    4    0    0  0.28718864079E-01 -0.52621142850E-02  0.29230465390E-01  0.41317601923E-01  0.51100000000E-03 0.  1.
</event>
<event>
 8    1  0.1092667E+005  0.1043930E+01  0.7957747E-01            NaN
         13   -1    0    0    0    0  0.00000000000E+00  0.00000000000E+00  0.74505805969E-08  0.10566000000E+00  0.10566000000E+00 0. -1.
     999900   -1    0    0    0    0 -0.00000000000E+00 -0.00000000000E+00 -0.74505805969E-08  0.93827000000E+00  0.93827000000E+00 0.  1.
     999902    2    1    2    0    0 -0.11204116068E-01  0.18873593926E-01 -0.10884713040E-01  0.10194305767E+01  0.10191361435E+01 0.  0.
     999903    2    3    3    0    0  0.65993701061E-01  0.26254135387E-01 -0.10940746181E+00  0.13054323434E+00  0.52052979627E-02 0.  0.
         14    1    1    2    0    0  0.11204116068E-01 -0.18873593926E-01  0.10884713040E-01  0.24499423310E-01  0.00000000000E+00 0. -1.
     999901    1    3    3    0    0 -0.77197817129E-01 -0.73805414614E-02  0.98522748775E-01  0.88888734235E+00  0.88000000000E+00 0. -1.
        -11    1    4    4    0    0  0.26643559316E-01  0.10010684347E-01 -0.48364092009E-01  0.56119867881E-01  0.51100000000E-03 0. -1.
         11    1    4    4    0    0  0.39350141745E-01  0.16243451040E-01 -0.61043369806E-01  0.74423366460E-01  0.51100000000E-03 0.  1.
</event>
<event>
 8    1  0.1092667E+005  0.1043930E+01  0.7957747E-01            NaN
         13   -1    0    0    0    0  0.00000000000E+00  0.00000000000E+00  0.74505805969E-08  0.10566000000E+00  0.10566000000E+00 0. -1.
     999900   -1    0    0    0    0 -0.00000000000E+00 -0.00000000000E+00 -0.74505805969E-08  0.93827000000E+00  0.93827000000E+00 0.  1.
     999902    2    1    2    0    0  0.81478186995E-02 -0.19735297693E-01  0.11956357961E-01  0.10194591312E+01  0.10191653922E+01 0.  0.
     999903    2    3    3    0    0  0.81780295384E-01 -0.83868002110E-01 -0.56296164410E-01  0.13143145583E+00  0.19573220563E-01 0.  0.
         14    1    1    2    0    0 -0.81478186995E-02  0.19735297693E-01 -0.11956357961E-01  0.24470868809E-01  0.00000000000E+00 0.  1.
     999901    1    3    3    0    0 -0.73632476684E-01  0.64132704417E-01  0.68252522370E-01  0.88802767536E+00  0.88000000000E+00 0. -1.
        -11    1    4    4    0    0  0.32449683094E-01 -0.47265621486E-01 -0.26958565363E-01  0.63356501441E-01  0.51100000000E-03 0.  1.
         11    1    4    4    0    0  0.49330612289E-01 -0.36602380624E-01 -0.29337599046E-01  0.68074954388E-01  0.51100000000E-03 0. -1.
</event>
<event>
 8    1  0.1092667E+005  0.1043930E+01  0.7957747E-01            NaN
         13   -1    0    0    0    0  0.00000000000E+00  0.00000000000E+00  0.74505805969E-08  0.10566000000E+00  0.10566000000E+00 0.  1.
     999900   -1    0    0    0    0 -0.00000000000E+00 -0.00000000000E+00 -0.74505805969E-08  0.93827000000E+00  0.93827000000E+00 0. -1.
     999902    2    1    2    0    0 -0.14028417533E-01 -0.14786533066E-01 -0.11635062414E-01  0.10204606000E+01  0.10201906799E+01 0.  0.
     999903    2    3    3    0    0 -0.32659808285E-01  0.98525121942E-01  0.73823228790E-01  0.12889468578E+00  0.19751156463E-01 0.  0.
         14    1    1    2    0    0  0.14028417533E-01  0.14786533066E-01  0.11635062414E-01  0.23469399992E-01  0.00000000000E+00 0.  1.
     999901    1    3    3    0    0  0.18631390752E-01 -0.11331165501E+00 -0.85458291205E-01  0.89156591423E+00  0.88000000000E+00 0. -1.
        -11    1    4    4    0    0 -0.11721160377E-01  0.56224790756E-01  0.49352746616E-01  0.75726926623E-01  0.51100000000E-03 0.  1.
         11    1    4    4    0    0 -0.20938647909E-01  0.42300331186E-01  0.24470482174E-01  0.53167759155E-01  0.51100000000E-03 0. -1.
</event>
<event>
 8    1  0.1092667E+005  0.1043930E+01  0.7957747E-01            NaN
         13   -1    0    0    0    0  0.00000000000E+00  0.00000000000E+00  0.74505805969E-08  0.10566000000E+00  0.10566000000E+00 0. -1.
     999900   -1    0    0    0    0 -0.00000000000E+00 -0.00000000000E+00 -0.74505805969E-08  0.93827000000E+00  0.93827000000E+00 0.  1.
     999902    2    1    2    0    0  0.22958266005E-01 -0.55869674289E-02 -0.10244036114E-03  0.10203014859E+01  0.10200278504E+01 0.  0.
     999903    2    3    3    0    0  0.66013465317E-01 -0.66216370813E-01 -0.91954264817E-01  0.13240147332E+00  0.18225749702E-01 0.  0.
         14    1    1    2    0    0 -0.22958266005E-01  0.55869674289E-02  0.10244036114E-03  0.23628514068E-01  0.00000000000E+00 0. -1.
     999901    1    3    3    0    0 -0.43055199311E-01  0.60629403384E-01  0.91851824456E-01  0.88790001261E+00  0.88000000000E+00 0. -1.
        -11    1    4    4    0    0  0.14490202836E-01 -0.13148970683E-01 -0.30480810054E-01  0.36224333132E-01  0.51100000000E-03 0.  1.
         11    1    4    4    0    0  0.51523262480E-01 -0.53067400129E-01 -0.61473454763E-01  0.96177140187E-01  0.51100000000E-03 0. -1.
</event>
<event>
 8    1  0.1092667E+005  0.1043930E+01  0.7957747E-01            NaN
         13   -1    0    0    0    0  0.00000000000E+00  0.00000000000E+00  0.74505805969E-08  0.10566000000E+00  0.10566000000E+00 0.  1.
     999900   -1    0    0    0    0 -0.00000000000E+00 -0.00000000000E+00 -0.74505805969E-08  0.93827000000E+00  0.93827000000E+00 0.  1.
     999902    2    1    2    0    0  0.21433665826E-01  0.60958174446E-02  0.76481503694E-02  0.10203703900E+01  0.10200983666E+01 0.  0.
     999903    2    3    3    0    0  0.17223228043E-01 -0.10106389184E+00  0.78467832609E-01  0.13103560571E+00  0.22418282555E-01 0.  0.
         14    1    1    2    0    0 -0.21433665826E-01 -0.60958174446E-02 -0.76481503694E-02  0.23559610038E-01  0.00000000000E+00 0. -1.
     999901    1    3    3    0    0  0.42104377836E-02  0.10715970928E+00 -0.70819682240E-01  0.88933478425E+00  0.88000000000E+00 0.  1.
        -11    1    4    4    0    0  0.23958503634E-02 -0.36364746133E-01  0.15717457514E-01  0.39691742869E-01  0.51100000000E-03 0. -1.
         11    1    4    4    0    0  0.14827377679E-01 -0.64699145706E-01  0.62750375096E-01  0.91343862846E-01  0.51100000000E-03 0.  1.
</event>
<event>
 8    1  0.1092667E+005  0.1043930E+01  0.7957747E-01            NaN
         13   -1    0    0    0    0  0.00000000000E+00  0.00000000000E+00  0.74505805969E-08  0.10566000000E+00  0.10566000000E+00 0. -1.
     999900   -1    0    0    0    0 -0.00000000000E+00 -0.00000000000E+00 -0.74505805969E-08  0.93827000000E+00  0.93827000000E+00 0.  1.
     999902    2    1    2    0    0 -0.74066102688E-03 -0.17662222513E-01  0.15328049470E-01  0.10205323124E+01  0.10202640584E+01 0.  0.
     999903    2    3    3    0    0  0.11384253980E+00  0.11762726869E-01 -0.57432039543E-01  0.12963996871E+00  0.20238495741E-01 0.  0.
         14    1    1    2    0    0  0.74066102688E-03  0.17662222513E-01 -0.15328049470E-01  0.23397687565E-01  0.00000000000E+00 0.  1.
     999901    1    3    3    0    0 -0.11458320082E+00 -0.29424949382E-01  0.72760089013E-01  0.89089234373E+00  0.88000000000E+00 0. -1.
        -11    1    4    4    0    0  0.44049058232E-01  0.38195001092E-02 -0.33338180304E-01  0.55376922081E-01  0.51100000000E-03 0.  1.
         11    1    4    4    0    0  0.69793481565E-01  0.79432267597E-02 -0.24093859239E-01  0.74263046627E-01  0.51100000000E-03 0. -1.
</event>
<event>
 7    1  0.1092667E+005  0.1043930E+01  0.7957747E-01            NaN
         13   -1    0    0    0    0  0.00000000000E+00  0.00000000000E+00  0.74505805969E-08  0.10566000000E+00  0.10566000000E+00 0.  1.
     999900   -1    0    0    0    0 -0.00000000000E+00 -0.00000000000E+00 -0.74505805969E-08  0.93827000000E+00  0.93827000000E+00 0.  1.
     999902    2    1    2    0    0  0.59258369849E-02 -0.16438245905E-01  0.16592398653E-01  0.10198335445E+01  0.10195488313E+01 0.  0.
         14    1    1    2    0    0 -0.59258369849E-02  0.16438245905E-01 -0.16592398653E-01  0.24096455454E-01  0.00000000000E+00 0. -1.
     999901    1    3    3    0    0 -0.14415774049E-01  0.10885700144E+00 -0.19607489419E-02  0.88682664926E+00  0.88000000000E+00 0.  1.
        -11    1    3    3    0    0 -0.97804434816E-02 -0.42072405344E-01  0.63737500682E-02  0.43664976549E-01  0.51100000000E-03 0.  1.
         11    1    3    3    0    0  0.30122054516E-01 -0.83222841997E-01  0.12179397526E-01  0.89341918736E-01  0.51100000000E-03 0. -1.
</event>
<event>
 8    1  0.1092667E+005  0.1043930E+01  0.7957747E-01            NaN
         13   -1    0    0    0    0  0.00000000000E+00  0.00000000000E+00  0.74505805969E-08  0.10566000000E+00  0.10566000000E+00 0. -1.
     999900   -1    0    0    0    0 -0.00000000000E+00 -0.00000000000E+00 -0.74505805969E-08  0.93827000000E+00  0.93827000000E+00 0.  1.
     999902    2    1    2    0    0 -0.70521418332E-02  0.10326926401E-01 -0.20374315307E-01  0.10200241255E+01  0.10197439510E+01 0.  0.
     999903    2    3    3    0    0  0.47643975871E-01  0.24794684150E-01  0.11439396533E+00  0.12796837004E+00  0.20129570974E-01 0.  0.
         14    1    1    2    0    0  0.70521418332E-02 -0.10326926401E-01  0.20374315307E-01  0.23905874540E-01  0.00000000000E+00 0. -1.
     999901    1    3    3    0    0 -0.54696117704E-01 -0.14467757749E-01 -0.13476828064E+00  0.89205575542E+00  0.88000000000E+00 0.  1.
        -11    1    4    4    0    0  0.25913959534E-01  0.10964512904E-01  0.81271123420E-01  0.86005874595E-01  0.51100000000E-03 0.  1.
         11    1    4    4    0    0  0.21730016337E-01  0.13830171246E-01  0.33122841914E-01  0.41962495448E-01  0.51100000000E-03 0. -1.
</event>
<event>
 8    1  0.1092667E+005  0.1043930E+01  0.7957747E-01            NaN
         13   -1    0    0    0    0  0.00000000000E+00  0.00000000000E+00  0.74505805969E-08  0.10566000000E+00  0.10566000000E+00 0. -1.
     999900   -1    0    0    0    0 -0.00000000000E+00 -0.00000000000E+00 -0.74505805969E-08  0.93827000000E+00  0.93827000000E+00 0.  1.
     999902    2    1    2    0    0 -0.69814766272E-03 -0.21098438838E-01 -0.10440150296E-01  0.10203794529E+01  0.10201076412E+01 0.  0.
     999903    2    3    3    0    0 -0.12055502882E+00 -0.24039736361E-01  0.40566288277E-01  0.13078629870E+00  0.18654980121E-01 0.  0.
         14    1    1    2    0    0  0.69814766272E-03  0.21098438838E-01  0.10440150296E-01  0.23550547122E-01  0.00000000000E+00 0. -1.
     999901    1    3    3    0    0  0.11985688116E+00  0.29412975233E-02 -0.51006438572E-01  0.88959315418E+00  0.88000000000E+00 0. -1.
        -11    1    4    4    0    0 -0.37873497313E-01 -0.16083212219E-01  0.10739062152E-01  0.42528344559E-01  0.51100000000E-03 0.  1.
         11    1    4    4    0    0 -0.82681531509E-01 -0.79565241415E-02  0.29827226124E-01  0.88257954137E-01  0.51100000000E-03 0. -1.
</event>
<event>
 8    1  0.1092667E+005  0.1043930E+01  0.7957747E-01            NaN
         13   -1    0    0    0    0  0.00000000000E+00  0.00000000000E+00  0.74505805969E-08  0.10566000000E+00  0.10566000000E+00 0. -1.
     999900   -1    0    0    0    0 -0.00000000000E+00 -0.00000000000E+00 -0.74505805969E-08  0.93827000000E+00  0.93827000000E+00 0.  1.
     999902    2    1    2    0    0  0.35782591913E-01  0.80331664783E-02 -0.69987790027E-02  0.10065949152E+01  0.10059022889E+01 0.  0.
     999903    2    3    3    0    0 -0.40200478129E-01 -0.24345138255E-01  0.10388904306E+00  0.11579870361E+00  0.20190153298E-01 0.  0.
         14    1    1    2    0    0 -0.35782591913E-01 -0.80331664783E-02  0.69987790027E-02  0.37335084776E-01  0.00000000000E+00 0. -1.
     999901    1    3    3    0    0  0.75983070042E-01  0.32378304733E-01 -0.11088782206E+00  0.89079621162E+00  0.88000000000E+00 0.  1.
        -11    1    4    4    0    0 -0.32850819990E-01 -0.26967618782E-01  0.94213286314E-01  0.10335779253E+00  0.51100000000E-03 0.  1.
         11    1    4    4    0    0 -0.73496581384E-02  0.26224805264E-02  0.96757567474E-02  0.12440911080E-01  0.51100000000E-03 0. -1.
</event>
<event>
 8    1  0.1092667E+005  0.1043930E+01  0.7957747E-01            NaN
         13   -1    0    0    0    0  0.00000000000E+00  0.00000000000E+00  0.74505805969E-08  0.10566000000E+00  0.10566000000E+00 0. -1.
     999900   -1    0    0    0    0 -0.00000000000E+00 -0.00000000000E+00 -0.74505805969E-08  0.93827000000E+00  0.93827000000E+00 0.  1.
     999902    2    1    2    0    0 -0.15282572129E-01  0.15905189278E-01  0.85300591125E-02  0.10202806033E+01  0.10200064781E+01 0.  0.
     999903    2    3    3    0    0  0.12499164186E+00  0.25334762180E-01  0.27209022120E-02  0.12910187919E+00  0.19877907172E-01 0.  0.
         14    1    1    2    0    0  0.15282572129E-01 -0.15905189278E-01 -0.85300591125E-02  0.23649396722E-01  0.00000000000E+00 0.  1.
     999901    1    3    3    0    0 -0.14027421399E+00 -0.94295729021E-02  0.58091569004E-02  0.89117872408E+00  0.88000000000E+00 0. -1.
        -11    1    4    4    0    0  0.99391066029E-01  0.23844920508E-01  0.92636009647E-02  0.10263157245E+00  0.51100000000E-03 0. -1.
         11    1    4    4    0    0  0.25600575830E-01  0.14898416717E-02 -0.65426987526E-02  0.26470306741E-01  0.51100000000E-03 0.  1.
</event>
<event>
 8    1  0.1092667E+005  0.1043930E+01  0.7957747E-01            NaN
         13   -1    0    0    0    0  0.00000000000E+00  0.00000000000E+00  0.74505805969E-08  0.10566000000E+00  0.10566000000E+00 0. -1.
     999900   -1    0    0    0    0 -0.00000000000E+00 -0.00000000000E+00 -0.74505805969E-08  0.93827000000E+00  0.93827000000E+00 0.  1.
     999902    2    1    2    0    0 -0.15601181562E-01 -0.53407344882E-02 -0.19382822568E-01  0.10184817364E+01  0.10181637556E+01 0.  0.
     999903    2    3    3    0    0 -0.67261746875E-01 -0.11013126670E+00  0.43981766496E-03  0.13053871640E+00  0.19675480760E-01 0.  0.
         14    1    1    2    0    0  0.15601181562E-01  0.53407344882E-02  0.19382822568E-01  0.25448263629E-01  0.00000000000E+00 0. -1.
     999901    1    3    3    0    0  0.51660565313E-01  0.10479053221E+00 -0.19822640233E-01  0.88794301997E+00  0.88000000000E+00 0. -1.
        -11    1    4    4    0    0 -0.33129521230E-01 -0.67751637916E-01 -0.64098869592E-02  0.75691461798E-01  0.51100000000E-03 0.  1.
         11    1    4    4    0    0 -0.34132225645E-01 -0.42379628780E-01  0.68497046241E-02  0.54847254603E-01  0.51100000000E-03 0. -1.
</event>
<event>
 8    1  0.1092667E+005  0.1043930E+01  0.7957747E-01            NaN
         13   -1    0    0    0    0  0.00000000000E+00  0.00000000000E+00  0.74505805969E-08  0.10566000000E+00  0.10566000000E+00 0.  1.
     999900   -1    0    0    0    0 -0.00000000000E+00 -0.00000000000E+00 -0.74505805969E-08  0.93827000000E+00  0.93827000000E+00 0.  1.
     999902    2    1    2    0    0  0.16251497749E-01  0.24692714605E-02 -0.16233752883E-01  0.10208271168E+01  0.10205656565E+01 0.  0.
     999903    2    3    3    0    0  0.31477496481E-01  0.55138235715E-01 -0.11578839533E+00  0.13351827670E+00  0.19726122230E-01 0.  0.
         14    1    1    2    0    0 -0.16251497749E-01 -0.24692714605E-02  0.16233752883E-01  0.23102883225E-01  0.00000000000E+00 0.  1.
     999901    1    3    3    0    0 -0.15225998732E-01 -0.52668964254E-01  0.99554642448E-01  0.88730884007E+00  0.88000000000E+00 0. -1.
        -11    1    4    4    0    0  0.18766653333E-01  0.47540140542E-01 -0.82029576677E-01  0.96650736215E-01  0.51100000000E-03 0. -1.
         11    1    4    4    0    0  0.12710843149E-01  0.75980951726E-02 -0.33758818655E-01  0.36867540490E-01  0.51100000000E-03 0.  1.
</event>
<event>
 8    1  0.1092667E+005  0.1043930E+01  0.7957747E-01            NaN
         13   -1    0    0    0    0  0.00000000000E+00  0.00000000000E+00  0.74505805969E-08  0.10566000000E+00  0.10566000000E+00 0.  1.
     999900   -1    0    0    0    0 -0.00000000000E+00 -0.00000000000E+00 -0.74505805969E-08  0.93827000000E+00  0.93827000000E+00 0. -1.
     999902    2    1    2    0    0  0.16064849459E-01 -0.10191638131E-01 -0.13999835679E-01  0.10203091559E+01  0.10200357001E+01 0.  0.
     999903    2    3    3    0    0  0.57722875827E-01 -0.12083144292E-01  0.11437399820E+00  0.13001773724E+00  0.18581382125E-01 0.  0.
         14    1    1    2    0    0 -0.16064849459E-01  0.10191638131E-01  0.13999835679E-01  0.23620844078E-01  0.00000000000E+00 0.  1.
     999901    1    3    3    0    0 -0.41658026368E-01  0.18915061608E-02 -0.12837383388E+00  0.89029141868E+00  0.88000000000E+00 0. -1.
        -11    1    4    4    0    0  0.51289830328E-01 -0.40783896081E-02  0.92510030313E-01  0.10585672764E+00  0.51100000000E-03 0. -1.
         11    1    4    4    0    0  0.64330454995E-02 -0.80047546837E-02  0.21863967891E-01  0.24161009600E-01  0.51100000000E-03 0.  1.
</event>
<event>
 8    1  0.1092667E+005  0.1043930E+01  0.7957747E-01            NaN
         13   -1    0    0    0    0  0.00000000000E+00  0.00000000000E+00  0.74505805969E-08  0.10566000000E+00  0.10566000000E+00 0.  1.
     999900   -1    0    0    0    0 -0.00000000000E+00 -0.00000000000E+00 -0.74505805969E-08  0.93827000000E+00  0.93827000000E+00 0. -1.
     999902    2    1    2    0    0  0.48298235039E-02  0.23269525537E-02 -0.23112538063E-01  0.10202038263E+01  0.10199278974E+01 0.  0.
     999903    2    3    3    0    0  0.17264758868E-01 -0.11828880929E+00 -0.50968608571E-01  0.13145259547E+00  0.19790692123E-01 0.  0.
         14    1    1    2    0    0 -0.48298235039E-02 -0.23269525537E-02  0.23112538063E-01  0.23726173711E-01  0.00000000000E+00 0.  1.
     999901    1    3    3    0    0 -0.12434935364E-01  0.12061576184E+00  0.27856070508E-01  0.88875123082E+00  0.88000000000E+00 0. -1.
        -11    1    4    4    0    0 -0.50788247755E-04 -0.70522476361E-02  0.15322563236E-02  0.72350332831E-02  0.51100000000E-03 0.  1.
         11    1    4    4    0    0  0.17315547116E-01 -0.11123656165E+00 -0.52500864894E-01  0.12421756218E+00  0.51100000000E-03 0. -1.
</event>
<event>
 8    1  0.1092667E+005  0.1043930E+01  0.7957747E-01            NaN
         13   -1    0    0    0    0  0.00000000000E+00  0.00000000000E+00  0.74505805969E-08  0.10566000000E+00  0.10566000000E+00 0.  1.
     999900   -1    0    0    0    0 -0.00000000000E+00 -0.00000000000E+00 -0.74505805969E-08  0.93827000000E+00  0.93827000000E+00 0.  1.
     999902    2    1    2    0    0  0.22377075656E-01  0.76755876806E-02  0.32550374555E-02  0.10200502297E+01  0.10197706741E+01 0.  0.
     999903    2    3    3    0    0 -0.68414975308E-01  0.11281399015E-02 -0.10717665605E+00  0.12848911315E+00  0.18459009991E-01 0.  0.
         14    1    1    2    0    0 -0.22377075656E-01 -0.76755876806E-02 -0.32550374555E-02  0.23879770309E-01  0.00000000000E+00 0. -1.
     999901    1    3    3    0    0  0.90792050964E-01  0.65474477791E-02  0.11043169351E+00  0.89156111654E+00  0.88000000000E+00 0. -1.
        -11    1    4    4    0    0 -0.11186713762E-01  0.18492193655E-02 -0.32344619801E-01  0.34278239864E-01  0.51100000000E-03 0.  1.
         11    1    4    4    0    0 -0.57228261547E-01 -0.72107946398E-03 -0.74832036253E-01  0.94210873290E-01  0.51100000000E-03 0. -1.
</event>
<event>
 6    1  0.1092667E+005  0.1043930E+01  0.7957747E-01            NaN
         13   -1    0    0    0    0  0.00000000000E+00  0.00000000000E+00  0.74505805969E-08  0.10566000000E+00  0.10566000000E+00 0. -1.
     999900   -1    0    0    0    0 -0.00000000000E+00 -0.00000000000E+00 -0.74505805969E-08  0.93827000000E+00  0.93827000000E+00 0.  1.
         14    1    1    2    0    0  0.89758071499E-02  0.66981835538E-01  0.13048805872E-01  0.68828792963E-01  0.00000000000E+00 0.  1.
     999901    1    1    2    0    0  0.28967235913E-01 -0.88840147757E-01 -0.57627246601E-01  0.88682161237E+00  0.88000000000E+00 0. -1.
        -11    1    1    2    0    0 -0.31332718332E-01  0.38114256030E-01  0.49657117787E-01  0.70003758604E-01  0.51100000000E-03 0. -1.
         11    1    1    2    0    0 -0.66103247305E-02 -0.16255943812E-01 -0.50786770580E-02  0.18275836066E-01  0.51100000000E-03 0.  1.
</event>
<event>
 8    1  0.1092667E+005  0.1043930E+01  0.7957747E-01            NaN
         13   -1    0    0    0    0  0.00000000000E+00  0.00000000000E+00  0.74505805969E-08  0.10566000000E+00  0.10566000000E+00 0.  1.
     999900   -1    0    0    0    0 -0.00000000000E+00 -0.00000000000E+00 -0.74505805969E-08  0.93827000000E+00  0.93827000000E+00 0. -1.
     999902    2    1    2    0    0 -0.71333479743E-02 -0.22876613786E-01 -0.69083182714E-02  0.10189910952E+01  0.10186858707E+01 0.  0.
     999903    2    3    3    0    0 -0.22295919355E-01  0.28143403416E-02  0.12505711935E+00  0.12865138170E+00  0.20170929103E-01 0.  0.
         14    1    1    2    0    0  0.71333479743E-02  0.22876613786E-01  0.69083182714E-02  0.24938904807E-01  0.00000000000E+00 0. -1.
     999901    1    3    3    0    0  0.15162571381E-01 -0.25690954128E-01 -0.13196543762E+00  0.89033971349E+00  0.88000000000E+00 0. -1.
        -11    1    4    4    0    0  0.23366241935E-02 -0.22273418289E-02  0.34894167017E-01  0.35046895398E-01  0.51100000000E-03 0.  1.
         11    1    4    4    0    0 -0.24632543549E-01  0.50416821704E-02  0.90162952337E-01  0.93604486302E-01  0.51100000000E-03 0. -1.
</event>
<event>
 8    1  0.1092667E+005  0.1043930E+01  0.7957747E-01            NaN
         13   -1    0    0    0    0  0.00000000000E+00  0.00000000000E+00  0.74505805969E-08  0.10566000000E+00  0.10566000000E+00 0.  1.
     999900   -1    0    0    0    0 -0.00000000000E+00 -0.00000000000E+00 -0.74505805969E-08  0.93827000000E+00  0.93827000000E+00 0.  1.
     999902    2    1    2    0    0  0.16955324016E-01 -0.10582070407E-03  0.10001728925E-01  0.10242442490E+01  0.10240550536E+01 0.  0.
     999903    2    3    3    0    0  0.22885207492E-01  0.59223561127E-01  0.11821778378E+00  0.13561279920E+00  0.19601632369E-01 0.  0.
         14    1    1    2    0    0 -0.16955324016E-01  0.10582070407E-03 -0.10001728925E-01  0.19685750989E-01  0.00000000000E+00 0.  1.
     999901    1    3    3    0    0 -0.59298834752E-02 -0.59329381831E-01 -0.10821605485E+00  0.88863144981E+00  0.88000000000E+00 0.  1.
        -11    1    4    4    0    0  0.10512367852E-01  0.48172865803E-01  0.80447284831E-01  0.94356566466E-01  0.51100000000E-03 0. -1.
         11    1    4    4    0    0  0.12372839640E-01  0.11050695324E-01  0.37770498944E-01  0.41256232734E-01  0.51100000000E-03 0.  1.
</event>
<event>
 8    1  0.1092667E+005  0.1043930E+01  0.7957747E-01            NaN
         13   -1    0    0    0    0  0.00000000000E+00  0.00000000000E+00  0.74505805969E-08  0.10566000000E+00  0.10566000000E+00 0.  1.
     999900   -1    0    0    0    0 -0.00000000000E+00 -0.00000000000E+00 -0.74505805969E-08  0.93827000000E+00  0.93827000000E+00 0.  1.
     999902    2    1    2    0    0 -0.36290643984E-02 -0.19483484986E-01  0.14981063792E-01  0.10190863173E+01  0.10187834479E+01 0.  0.
     999903    2    3    3    0    0 -0.73829132790E-01  0.10119726946E+00 -0.14090222822E-01  0.12760606865E+00  0.19827914226E-01 0.  0.
         14    1    1    2    0    0  0.36290643984E-02  0.19483484986E-01 -0.14981063792E-01  0.24843682657E-01  0.00000000000E+00 0. -1.
     999901    1    3    3    0    0  0.70200068391E-01 -0.12068075445E+00  0.29071286614E-01  0.89148024869E+00  0.88000000000E+00 0. -1.
        -11    1    4    4    0    0 -0.34581360574E-01  0.34412799695E-01 -0.11354344871E-01  0.50092849294E-01  0.51100000000E-03 0.  1.
         11    1    4    4    0    0 -0.39247772216E-01  0.66784469770E-01 -0.27358779514E-02  0.77513219360E-01  0.51100000000E-03 0. -1.
</event>
<event>
 8    1  0.1092667E+005  0.1043930E+01  0.7957747E-01            NaN
         13   -1    0    0    0    0  0.00000000000E+00  0.00000000000E+00  0.74505805969E-08  0.10566000000E+00  0.10566000000E+00 0.  1.
     999900   -1    0    0    0    0 -0.00000000000E+00 -0.00000000000E+00 -0.74505805969E-08  0.93827000000E+00  0.93827000000E+00 0.  1.
     999902    2    1    2    0    0  0.21760694840E-01  0.70824450765E-02  0.63423614207E-02  0.10201831178E+01  0.10199067013E+01 0.  0.
     999903    2    3    3    0    0 -0.52716714470E-01 -0.40763647707E-01 -0.10786070122E+00  0.12839924673E+00  0.20290607061E-01 0.  0.
         14    1    1    2    0    0 -0.21760694840E-01 -0.70824450765E-02 -0.63423614207E-02  0.23746882249E-01  0.00000000000E+00 0.  1.
     999901    1    3    3    0    0  0.74477409309E-01  0.47846092784E-01  0.11420306264E+00  0.89178387102E+00  0.88000000000E+00 0. -1.
        -11    1    4    4    0    0 -0.49819711864E-01 -0.31157313739E-01 -0.84038412039E-01  0.10254510085E+00  0.51100000000E-03 0.  1.
         11    1    4    4    0    0 -0.28970026059E-02 -0.96063339684E-02 -0.23822289181E-01  0.25854145881E-01  0.51100000000E-03 0. -1.
</event>
<event>
 8    1  0.1092667E+005  0.1043930E+01  0.7957747E-01            NaN
         13   -1    0    0    0    0  0.00000000000E+00  0.00000000000E+00  0.74505805969E-08  0.10566000000E+00  0.10566000000E+00 0.  1.
     999900   -1    0    0    0    0 -0.00000000000E+00 -0.00000000000E+00 -0.74505805969E-08  0.93827000000E+00  0.93827000000E+00 0. -1.
     999902    2    1    2    0    0  0.27533227555E-02  0.28627698358E-01  0.89576340920E-02  0.10138074983E+01  0.10133598959E+01 0.  0.
     999903    2    3    3    0    0 -0.83257899564E-01  0.72038476617E-01 -0.57775284322E-01  0.12603742198E+00  0.20640453172E-01 0.  0.
         14    1    1    2    0    0 -0.27533227555E-02 -0.28627698358E-01 -0.89576340920E-02  0.30122501689E-01  0.00000000000E+00 0. -1.
     999901    1    3    3    0    0  0.86011222319E-01 -0.43410778258E-01  0.66732918414E-01  0.88777007633E+00  0.88000000000E+00 0. -1.
        -11    1    4    4    0    0 -0.64726333380E-01  0.43554760981E-01 -0.41099726875E-01  0.88181427223E-01  0.51100000000E-03 0. -1.
         11    1    4    4    0    0 -0.18531566184E-01  0.28483715636E-01 -0.16675557447E-01  0.37855994754E-01  0.51100000000E-03 0.  1.
</event>
<event>
 8    1  0.1092667E+005  0.1043930E+01  0.7957747E-01            NaN
         13   -1    0    0    0    0  0.00000000000E+00  0.00000000000E+00  0.74505805969E-08  0.10566000000E+00  0.10566000000E+00 0. -1.
     999900   -1    0    0    0    0 -0.00000000000E+00 -0.00000000000E+00 -0.74505805969E-08  0.93827000000E+00  0.93827000000E+00 0. -1.
     999902    2    1    2    0    0  0.22927312005E-01  0.34787609313E-02  0.11404019510E-02  0.10207122497E+01  0.10204481529E+01 0.  0.
     999903    2    3    3    0    0 -0.65623744742E-01 -0.65067934654E-01  0.88157467590E-01  0.12935827463E+00  0.20530760544E-01 0.  0.
         14    1    1    2    0    0 -0.22927312005E-01 -0.34787609313E-02 -0.11404019510E-02  0.23217750322E-01  0.00000000000E+00 0. -1.
     999901    1    3    3    0    0  0.88551056747E-01  0.68546695585E-01 -0.87017065639E-01  0.89135397505E+00  0.88000000000E+00 0.  1.
        -11    1    4    4    0    0 -0.33893419191E-01 -0.46561514822E-01  0.48435930296E-01  0.75253165991E-01  0.51100000000E-03 0. -1.
         11    1    4    4    0    0 -0.31730325551E-01 -0.18506419832E-01  0.39721537293E-01  0.54105108636E-01  0.51100000000E-03 0.  1.
</event>
<event>
 8    1  0.1092667E+005  0.1043930E+01  0.7957747E-01            NaN
         13   -1    0    0    0    0  0.00000000000E+00  0.00000000000E+00  0.74505805969E-08  0.10566000000E+00  0.10566000000E+00 0.  1.
     999900   -1    0    0    0    0 -0.00000000000E+00 -0.00000000000E+00 -0.74505805969E-08  0.93827000000E+00  0.93827000000E+00 0. -1.
     999902    2    1    2    0    0  0.28494800371E-03  0.20608329272E-01 -0.11575642920E-01  0.10202914734E+01  0.10200176032E+01 0.  0.
     999903    2    3    3    0    0  0.46486129623E-01 -0.10205085043E+00  0.58847279366E-01  0.12780101881E+00  0.17168628358E-01 0.  0.
         14    1    1    2    0    0 -0.28494800371E-03 -0.20608329272E-01  0.11575642920E-01  0.23638526599E-01  0.00000000000E+00 0. -1.
     999901    1    3    3    0    0 -0.46201181619E-01  0.12265917970E+00 -0.70422922286E-01  0.89249045459E+00  0.88000000000E+00 0.  1.
        -11    1    4    4    0    0  0.75153156496E-02 -0.17570632947E-01  0.17765390678E-01  0.26097458466E-01  0.51100000000E-03 0.  1.
         11    1    4    4    0    0  0.38970813974E-01 -0.84480217484E-01  0.41081888689E-01  0.10170356035E+00  0.51100000000E-03 0. -1.
</event>
<event>
 8    1  0.1092667E+005  0.1043930E+01  0.7957747E-01            NaN
         13   -1    0    0    0    0  0.00000000000E+00  0.00000000000E+00  0.74505805969E-08  0.10566000000E+00  0.10566000000E+00 0.  1.
     999900   -1    0    0    0    0 -0.00000000000E+00 -0.00000000000E+00 -0.74505805969E-08  0.93827000000E+00  0.93827000000E+00 0. -1.
     999902    2    1    2    0    0  0.24704476731E-01 -0.40195528973E-02  0.10099487019E-01  0.10169398608E+01  0.10165816312E+01 0.  0.
     999903    2    3    3    0    0 -0.67653037462E-01  0.73323416795E-01 -0.72829412413E-01  0.12486976952E+00  0.18305165937E-01 0.  0.
         14    1    1    2    0    0 -0.24704476731E-01  0.40195528973E-02 -0.10099487019E-01  0.26990139201E-01  0.00000000000E+00 0. -1.
     999901    1    3    3    0    0  0.92357514193E-01 -0.77342969692E-01  0.82928899432E-01  0.89207009128E+00  0.88000000000E+00 0. -1.
        -11    1    4    4    0    0 -0.48284155429E-01  0.62976600818E-01 -0.54618591609E-01  0.96337238835E-01  0.51100000000E-03 0.  1.
         11    1    4    4    0    0 -0.19368882033E-01  0.10346815976E-01 -0.18210820804E-01  0.28532530687E-01  0.51100000000E-03 0. -1.
</event>
<event>
 8    1  0.1092667E+005  0.1043930E+01  0.7957747E-01            NaN
         13   -1    0    0    0    0  0.00000000000E+00  0.00000000000E+00  0.74505805969E-08  0.10566000000E+00  0.10566000000E+00 0. -1.
     999900   -1    0    0    0    0 -0.00000000000E+00 -0.00000000000E+00 -0.74505805969E-08  0.93827000000E+00  0.93827000000E+00 0. -1.
     999902    2    1    2    0    0  0.56885329410E-02 -0.22694428192E-01  0.44460801560E-02  0.10201147925E+01  0.10198367643E+01 0.  0.
     999903    2    3    3    0    0 -0.98623399069E-01  0.69751003241E-01  0.39281468613E-01  0.12846427734E+00  0.19190088051E-01 0.  0.
         14    1    1    2    0    0 -0.56885329410E-02  0.22694428192E-01 -0.44460801560E-02  0.23815207468E-01  0.00000000000E+00 0.  1.
     999901    1    3    3    0    0  0.10431193201E+00 -0.92445431432E-01 -0.34835388457E-01  0.89165051519E+00  0.88000000000E+00 0.  1.
        -11    1    4    4    0    0 -0.62540507866E-01  0.54398150565E-01  0.30111553711E-01  0.88189799279E-01  0.51100000000E-03 0. -1.
         11    1    4    4    0    0 -0.36082891203E-01  0.15352852676E-01  0.91699149018E-02  0.40274478062E-01  0.51100000000E-03 0.  1.
</event>
<event>
 8    1  0.1092667E+005  0.1043930E+01  0.7957747E-01            NaN
         13   -1    0    0    0    0  0.00000000000E+00  0.00000000000E+00  0.74505805969E-08  0.10566000000E+00  0.10566000000E+00 0. -1.
     999900   -1    0    0    0    0 -0.00000000000E+00 -0.00000000000E+00 -0.74505805969E-08  0.93827000000E+00  0.93827000000E+00 0. -1.
     999902    2    1    2    0    0  0.19866700535E-01  0.11357020178E-01  0.89586776905E-02  0.10193551022E+01  0.10190588299E+01 0.  0.
     999903    2    3    3    0    0  0.13011714482E-01  0.22187797375E-02 -0.12671715922E+00  0.12888419810E+00  0.19485132320E-01 0.  0.
         14    1    1    2    0    0 -0.19866700535E-01 -0.11357020178E-01 -0.89586776905E-02  0.24574897832E-01  0.00000000000E+00 0.  1.
     999901    1    3    3    0    0  0.68549860537E-02  0.91382404407E-02  0.13567583691E+00  0.89047090407E+00  0.88000000000E+00 0.  1.
        -11    1    4    4    0    0  0.11429253074E-02  0.63354392422E-02 -0.86658946315E-01  0.86899241459E-01  0.51100000000E-03 0.  1.
         11    1    4    4    0    0  0.11868789174E-01 -0.41166595047E-02 -0.40058212905E-01  0.41984956640E-01  0.51100000000E-03 0. -1.
</event>
<event>
 8    1  0.1092667E+005  0.1043930E+01  0.7957747E-01            NaN
         13   -1    0    0    0    0  0.00000000000E+00  0.00000000000E+00  0.74505805969E-08  0.10566000000E+00  0.10566000000E+00 0.  1.
     999900   -1    0    0    0    0 -0.00000000000E+00 -0.00000000000E+00 -0.74505805969E-08  0.93827000000E+00  0.93827000000E+00 0. -1.
     999902    2    1    2    0    0  0.89367188422E-02  0.49157141850E-02  0.22002382209E-01  0.10196785256E+01  0.10193900929E+01 0.  0.
     999903    2    3    3    0    0 -0.49209260199E-01  0.10068876801E+00  0.65654209453E-01  0.13150122640E+00  0.20550377929E-01 0.  0.
         14    1    1    2    0    0 -0.89367188422E-02 -0.49157141850E-02 -0.22002382209E-01  0.24251474439E-01  0.00000000000E+00 0.  1.
     999901    1    3    3    0    0  0.58145979041E-01 -0.95773053828E-01 -0.43651827245E-01  0.88817729916E+00  0.88000000000E+00 0. -1.
        -11    1    4    4    0    0 -0.38311321715E-01  0.69745556114E-01  0.36255045145E-01  0.87446494434E-01  0.51100000000E-03 0. -1.
         11    1    4    4    0    0 -0.10897938484E-01  0.30943211899E-01  0.29399164308E-01  0.44054731969E-01  0.51100000000E-03 0.  1.
</event>
<event>
 8    1  0.1092667E+005  0.1043930E+01  0.7957747E-01            NaN
         13   -1    0    0    0    0  0.00000000000E+00  0.00000000000E+00  0.74505805969E-08  0.10566000000E+00  0.10566000000E+00 0.  1.
     999900   -1    0    0    0    0 -0.00000000000E+00 -0.00000000000E+00 -0.74505805969E-08  0.93827000000E+00  0.93827000000E+00 0. -1.
     999902    2    1    2    0    0  0.14581917676E-01  0.12798419154E-02  0.18227404734E-01  0.10205524766E+01  0.10202846901E+01 0.  0.
     999903    2    3    3    0    0 -0.32972604177E-01 -0.57937441632E-01  0.11237499609E+00  0.13227780724E+00  0.20623742941E-01 0.  0.
         14    1    1    2    0    0 -0.14581917676E-01 -0.12798419154E-02 -0.18227404734E-01  0.23377523431E-01  0.00000000000E+00 0. -1.
     999901    1    3    3    0    0  0.47554521853E-01  0.59217283547E-01 -0.94147591353E-01  0.88827466933E+00  0.88000000000E+00 0. -1.
        -11    1    4    4    0    0 -0.11970542326E-01 -0.22650260735E-01  0.63280133880E-01  0.68271257934E-01  0.51100000000E-03 0.  1.
         11    1    4    4    0    0 -0.21002061851E-01 -0.35287180897E-01  0.49094862206E-01  0.64006549303E-01  0.51100000000E-03 0. -1.
</event>
<event>
 8    1  0.1092667E+005  0.1043930E+01  0.7957747E-01            NaN
         13   -1    0    0    0    0  0.00000000000E+00  0.00000000000E+00  0.74505805969E-08  0.10566000000E+00  0.10566000000E+00 0. -1.
     999900   -1    0    0    0    0 -0.00000000000E+00 -0.00000000000E+00 -0.74505805969E-08  0.93827000000E+00  0.93827000000E+00 0.  1.
     999902    2    1    2    0    0 -0.88049582308E-02  0.95773545522E-02 -0.13833107537E-01  0.10249403219E+01  0.10247643903E+01 0.  0.
     999903    2    3    3    0    0 -0.88478548889E-02  0.10123139136E+00 -0.89602371532E-01  0.13694176016E+00  0.19959497986E-01 0.  0.
         14    1    1    2    0    0  0.88049582308E-02 -0.95773545522E-02  0.13833107537E-01  0.18989678086E-01  0.00000000000E+00 0. -1.
     999901    1    3    3    0    0  0.42896658077E-04 -0.91654036809E-01  0.75769263995E-01  0.88799856175E+00  0.88000000000E+00 0. -1.
        -11    1    4    4    0    0 -0.39209459656E-03  0.41887669414E-01 -0.49361967117E-01  0.64742532433E-01  0.51100000000E-03 0. -1.
         11    1    4    4    0    0 -0.84557602923E-02  0.59343721947E-01 -0.40240404415E-01  0.72199227732E-01  0.51100000000E-03 0.  1.
</event>
<event>
 8    1  0.1092667E+005  0.1043930E+01  0.7957747E-01            NaN
         13   -1    0    0    0    0  0.00000000000E+00  0.00000000000E+00  0.74505805969E-08  0.10566000000E+00  0.10566000000E+00 0.  1.
     999900   -1    0    0    0    0 -0.00000000000E+00 -0.00000000000E+00 -0.74505805969E-08  0.93827000000E+00  0.93827000000E+00 0.  1.
     999902    2    1    2    0    0  0.19516926338E-01  0.38852961910E-02  0.16597493548E-01  0.10180170161E+01  0.10176871633E+01 0.  0.
     999903    2    3    3    0    0  0.32297052711E-01 -0.70603326525E-01 -0.98901348136E-01  0.12725786297E+00  0.19625434854E-01 0.  0.
         14    1    1    2    0    0 -0.19516926338E-01 -0.38852961910E-02 -0.16597493548E-01  0.25912983854E-01  0.00000000000E+00 0.  1.
     999901    1    3    3    0    0 -0.12780126373E-01  0.74488622717E-01  0.11549884168E+00  0.89075915318E+00  0.88000000000E+00 0. -1.
        -11    1    4    4    0    0  0.10043324530E-01 -0.26215249399E-01 -0.51242614364E-01  0.58430936297E-01  0.51100000000E-03 0. -1.
         11    1    4    4    0    0  0.22253728181E-01 -0.44388077126E-01 -0.47658733772E-01  0.68826926669E-01  0.51100000000E-03 0.  1.
</event>
<event>
 8    1  0.1092667E+005  0.1043930E+01  0.7957747E-01            NaN
         13   -1    0    0    0    0  0.00000000000E+00  0.00000000000E+00  0.74505805969E-08  0.10566000000E+00  0.10566000000E+00 0. -1.
     999900   -1    0    0    0    0 -0.00000000000E+00 -0.00000000000E+00 -0.74505805969E-08  0.93827000000E+00  0.93827000000E+00 0. -1.
     999902    2    1    2    0    0  0.11415833551E-01 -0.12238174695E-01  0.18113825618E-01  0.10192681904E+01  0.10189697930E+01 0.  0.
     999903    2    3    3    0    0  0.10790946067E+00  0.46972578638E-01  0.54587985535E-01  0.13126633355E+00  0.20003182567E-01 0.  0.
         14    1    1    2    0    0 -0.11415833551E-01  0.12238174695E-01 -0.18113825618E-01  0.24661809626E-01  0.00000000000E+00 0. -1.
     999901    1    3    3    0    0 -0.96493627117E-01 -0.59210753333E-01 -0.36474159917E-01  0.88800185683E+00  0.88000000000E+00 0.  1.
        -11    1    4    4    0    0  0.40084487032E-01  0.26454088679E-01  0.27898365230E-01  0.55544259937E-01  0.51100000000E-03 0. -1.
         11    1    4    4    0    0  0.67824973636E-01  0.20518489959E-01  0.26689620305E-01  0.75722073611E-01  0.51100000000E-03 0.  1.
</event>
<event>
 8    1  0.1092667E+005  0.1043930E+01  0.7957747E-01            NaN
         13   -1    0    0    0    0  0.00000000000E+00  0.00000000000E+00  0.74505805969E-08  0.10566000000E+00  0.10566000000E+00 0. -1.
     999900   -1    0    0    0    0 -0.00000000000E+00 -0.00000000000E+00 -0.74505805969E-08  0.93827000000E+00  0.93827000000E+00 0.  1.
     999902    2    1    2    0    0 -0.80953504796E-02 -0.22060692208E-03 -0.21891930850E-01  0.10205881919E+01  0.10203212325E+01 0.  0.
     999903    2    3    3    0    0  0.72852649340E-01  0.78059104494E-01  0.69058205576E-01  0.12876297409E+00  0.20251800620E-01 0.  0.
         14    1    1    2    0    0  0.80953504796E-02  0.22060692208E-03  0.21891930850E-01  0.23341808052E-01  0.00000000000E+00 0.  1.
     999901    1    3    3    0    0 -0.80947999820E-01 -0.78279711416E-01 -0.90950136427E-01  0.89182521786E+00  0.88000000000E+00 0.  1.
        -11    1    4    4    0    0  0.75287835621E-02  0.15997047507E-01  0.17817175548E-01  0.25105795673E-01  0.51100000000E-03 0.  1.
         11    1    4    4    0    0  0.65323865778E-01  0.62062056987E-01  0.51241030029E-01  0.10365717842E+00  0.51100000000E-03 0. -1.
</event>
<event>
 8    1  0.1092667E+005  0.1043930E+01  0.7957747E-01            NaN
         13   -1    0    0    0    0  0.00000000000E+00  0.00000000000E+00  0.74505805969E-08  0.10566000000E+00  0.10566000000E+00 0. -1.
     999900   -1    0    0    0    0 -0.00000000000E+00 -0.00000000000E+00 -0.74505805969E-08  0.93827000000E+00  0.93827000000E+00 0. -1.
     999902    2    1    2    0    0  0.29698785770E-02  0.13602033105E-01  0.16936336519E-01  0.10220056989E+01  0.10217705093E+01 0.  0.
     999903    2    3    3    0    0 -0.53773679030E-01  0.11949054511E+00 -0.14100743158E-01  0.13330130002E+00  0.20020157388E-01 0.  0.
         14    1    1    2    0    0 -0.29698785770E-02 -0.13602033105E-01 -0.16936336519E-01  0.21924301085E-01  0.00000000000E+00 0.  1.
     999901    1    3    3    0    0  0.56743557607E-01 -0.10588851201E+00  0.31037079677E-01  0.88870439890E+00  0.88000000000E+00 0. -1.
        -11    1    4    4    0    0 -0.11350551451E-01  0.12699267298E-01  0.24143092435E-02  0.17210357878E-01  0.51100000000E-03 0.  1.
         11    1    4    4    0    0 -0.42423127579E-01  0.10679127781E+00 -0.16515052401E-01  0.11609094214E+00  0.51100000000E-03 0. -1.
</event>
<event>
 8    1  0.1092667E+005  0.1043930E+01  0.7957747E-01            NaN
         13   -1    0    0    0    0  0.00000000000E+00  0.00000000000E+00  0.74505805969E-08  0.10566000000E+00  0.10566000000E+00 0. -1.
     999900   -1    0    0    0    0 -0.00000000000E+00 -0.00000000000E+00 -0.74505805969E-08  0.93827000000E+00  0.93827000000E+00 0. -1.
     999902    2    1    2    0    0 -0.12119277892E-01 -0.12708442556E-02  0.19746257203E-01  0.10207264094E+01  0.10204626384E+01 0.  0.
     999903    2    3    3    0    0  0.30003131895E-01 -0.12522043724E+00 -0.65899695523E-02  0.13065259460E+00  0.21126451476E-01 0.  0.
         14    1    1    2    0    0  0.12119277892E-01  0.12708442556E-02 -0.19746257203E-01  0.23203590569E-01  0.00000000000E+00 0.  1.
     999901    1    3    3    0    0 -0.42122409787E-01  0.12394959298E+00  0.26336226755E-01  0.89007381483E+00  0.88000000000E+00 0.  1.
        -11    1    4    4    0    0  0.14511098168E-01 -0.97394694060E-01 -0.77852814685E-02  0.98778388981E-01  0.51100000000E-03 0. -1.
         11    1    4    4    0    0  0.15492033727E-01 -0.27825743177E-01  0.11953119162E-02  0.31874205620E-01  0.51100000000E-03 0.  1.
</event>
<event>
 8    1  0.1092667E+005  0.1043930E+01  0.7957747E-01            NaN
         13   -1    0    0    0    0  0.00000000000E+00  0.00000000000E+00  0.74505805969E-08  0.10566000000E+00  0.10566000000E+00 0. -1.
     999900   -1    0    0    0    0 -0.00000000000E+00 -0.00000000000E+00 -0.74505805969E-08  0.93827000000E+00  0.93827000000E+00 0. -1.
     999902    2    1    2    0    0  0.11125637956E-01 -0.11489727493E-01 -0.15621762981E-01  0.10215730517E+01  0.10213283835E+01 0.  0.
     999903    2    3    3    0    0 -0.12610674114E+00 -0.26178519107E-01 -0.10690623552E-01  0.13080214817E+00  0.20166494728E-01 0.  0.
         14    1    1    2    0    0 -0.11125637956E-01  0.11489727493E-01  0.15621762981E-01  0.22356948280E-01  0.00000000000E+00 0.  1.
     999901    1    3    3    0    0  0.13723237910E+00  0.14688791614E-01 -0.49311394282E-02  0.89077090355E+00  0.88000000000E+00 0.  1.
        -11    1    4    4    0    0 -0.53719997330E-01 -0.91818918139E-02  0.52558988594E-02  0.54754276950E-01  0.51100000000E-03 0.  1.
         11    1    4    4    0    0 -0.72386743814E-01 -0.16996627293E-01 -0.15946522412E-01  0.76047871221E-01  0.51100000000E-03 0. -1.
</event>
<event>
 8    1  0.1092667E+005  0.1043930E+01  0.7957747E-01            NaN
         13   -1    0    0    0    0  0.00000000000E+00  0.00000000000E+00  0.74505805969E-08  0.10566000000E+00  0.10566000000E+00 0.  1.
     999900   -1    0    0    0    0 -0.00000000000E+00 -0.00000000000E+00 -0.74505805969E-08  0.93827000000E+00  0.93827000000E+00 0.  1.
     999902    2    1    2    0    0  0.21009708681E-01  0.85993100790E-02  0.56580424760E-02  0.10205340722E+01  0.10202658590E+01 0.  0.
     999903    2    3    3    0    0 -0.21869383417E-02 -0.81674791219E-01 -0.97961715337E-01  0.12956574953E+00  0.22698712740E-01 0.  0.
         14    1    1    2    0    0 -0.21009708681E-01 -0.85993100790E-02 -0.56580424760E-02  0.23395927794E-01  0.00000000000E+00 0. -1.
     999901    1    3    3    0    0  0.23196647023E-01  0.90274101298E-01  0.10361975781E+00  0.89096832267E+00  0.88000000000E+00 0. -1.
        -11    1    4    4    0    0 -0.25999023923E-02 -0.33097223134E-01 -0.57246102913E-01  0.66178267515E-01  0.51100000000E-03 0.  1.
         11    1    4    4    0    0  0.41296405064E-03 -0.48577568085E-01 -0.40715612425E-01  0.63387482017E-01  0.51100000000E-03 0. -1.
</event>
<event>
 8    1  0.1092667E+005  0.1043930E+01  0.7957747E-01            NaN
         13   -1    0    0    0    0  0.00000000000E+00  0.00000000000E+00  0.74505805969E-08  0.10566000000E+00  0.10566000000E+00 0. -1.
     999900   -1    0    0    0    0 -0.00000000000E+00 -0.00000000000E+00 -0.74505805969E-08  0.93827000000E+00  0.93827000000E+00 0. -1.
     999902    2    1    2    0    0  0.15223458485E-01  0.14482008443E-01  0.92562130949E-02  0.10209700406E+01  0.10207118418E+01 0.  0.
     999903    2    3    3    0    0  0.10472606685E+00 -0.67850731782E-02 -0.77613743572E-01  0.13192032595E+00  0.19117868903E-01 0.  0.
         14    1    1    2    0    0 -0.15223458485E-01 -0.14482008443E-01 -0.92562130949E-02  0.22959959443E-01  0.00000000000E+00 0. -1.
     999901    1    3    3    0    0 -0.89502608370E-01  0.21267081622E-01  0.86869956667E-01  0.88904971460E+00  0.88000000000E+00 0. -1.
        -11    1    4    4    0    0  0.26854386818E-01  0.94820637093E-03 -0.30172893045E-01  0.40406952154E-01  0.51100000000E-03 0.  1.
         11    1    4    4    0    0  0.77871680036E-01 -0.77332795492E-02 -0.47440850528E-01  0.91513373799E-01  0.51100000000E-03 0. -1.
</event>
<event>
 8    1  0.1092667E+005  0.1043930E+01  0.7957747E-01            NaN
         13   -1    0    0    0    0  0.00000000000E+00  0.00000000000E+00  0.74505805969E-08  0.10566000000E+00  0.10566000000E+00 0. -1.
     999900   -1    0    0    0    0 -0.00000000000E+00 -0.00000000000E+00 -0.74505805969E-08  0.93827000000E+00  0.93827000000E+00 0.  1.
     999902    2    1    2    0    0 -0.15609047967E-01  0.17249643053E-01 -0.43408963644E-02  0.10202649214E+01  0.10199904283E+01 0.  0.
     999903    2    3    3    0    0  0.80088589862E-02 -0.83882297264E-01  0.95122310652E-01  0.12859323046E+00  0.19687135874E-01 0.  0.
         14    1    1    2    0    0  0.15609047967E-01 -0.17249643053E-01  0.43408963644E-02  0.23665078600E-01  0.00000000000E+00 0. -1.
     999901    1    3    3    0    0 -0.23617906953E-01  0.10113194032E+00 -0.99463207016E-01  0.89167169094E+00  0.88000000000E+00 0.  1.
        -11    1    4    4    0    0 -0.52885452363E-02 -0.44978507643E-01  0.53303566008E-01  0.69946880779E-01  0.51100000000E-03 0. -1.
         11    1    4    4    0    0  0.13297404223E-01 -0.38903789621E-01  0.41818744644E-01  0.58646349678E-01  0.51100000000E-03 0.  1.
</event>
<event>
 8    1  0.1092667E+005  0.1043930E+01  0.7957747E-01            NaN
         13   -1    0    0    0    0  0.00000000000E+00  0.00000000000E+00  0.74505805969E-08  0.10566000000E+00  0.10566000000E+00 0.  1.
     999900   -1    0    0    0    0 -0.00000000000E+00 -0.00000000000E+00 -0.74505805969E-08  0.93827000000E+00  0.93827000000E+00 0.  1.
     999902    2    1    2    0    0 -0.47972689840E-02 -0.83580803113E-02  0.21468699342E-01  0.10203975469E+01  0.10201261576E+01 0.  0.
     999903    2    3    3    0    0  0.17643274908E-01 -0.12284112038E+00  0.41020763669E-01  0.13248300842E+00  0.21629111432E-01 0.  0.
         14    1    1    2    0    0  0.47972689840E-02  0.83580803113E-02 -0.21468699342E-01  0.23532453073E-01  0.00000000000E+00 0. -1.
     999901    1    3    3    0    0 -0.22440543892E-01  0.11448304007E+00 -0.19552064327E-01  0.88791453851E+00  0.88000000000E+00 0. -1.
        -11    1    4    4    0    0  0.99265971939E-02 -0.11079360540E+00  0.39681597322E-01  0.11810440558E+00  0.51100000000E-03 0.  1.
         11    1    4    4    0    0  0.77166777140E-02 -0.12047514980E-01  0.13391663468E-02  0.14378602840E-01  0.51100000000E-03 0. -1.
</event>
<event>
 8    1  0.1092667E+005  0.1043930E+01  0.7957747E-01            NaN
         13   -1    0    0    0    0  0.00000000000E+00  0.00000000000E+00  0.74505805969E-08  0.10566000000E+00  0.10566000000E+00 0.  1.
     999900   -1    0    0    0    0 -0.00000000000E+00 -0.00000000000E+00 -0.74505805969E-08  0.93827000000E+00  0.93827000000E+00 0. -1.
     999902    2    1    2    0    0 -0.15150245741E-01 -0.43808882028E-02  0.17731182218E-01  0.10201999147E+01  0.10199238937E+01 0.  0.
     999903    2    3    3    0    0 -0.53401300574E-01  0.11374304913E+00  0.31745476317E-01  0.13137326778E+00  0.21493722126E-01 0.  0.
         14    1    1    2    0    0  0.15150245741E-01  0.43808882028E-02 -0.17731182218E-01  0.23730085341E-01  0.00000000000E+00 0.  1.
     999901    1    3    3    0    0  0.38251054833E-01 -0.11812393734E+00 -0.14014294099E-01  0.88882664688E+00  0.88000000000E+00 0. -1.
        -11    1    4    4    0    0 -0.17523364944E-01  0.61666335901E-01  0.13028071371E-01  0.65420157956E-01  0.51100000000E-03 0. -1.
         11    1    4    4    0    0 -0.35877935630E-01  0.52076713232E-01  0.18717404947E-01  0.65953109821E-01  0.51100000000E-03 0.  1.
</event>
<event>
 8    1  0.1092667E+005  0.1043930E+01  0.7957747E-01            NaN
         13   -1    0    0    0    0  0.00000000000E+00  0.00000000000E+00  0.74505805969E-08  0.10566000000E+00  0.10566000000E+00 0. -1.
     999900   -1    0    0    0    0 -0.00000000000E+00 -0.00000000000E+00 -0.74505805969E-08  0.93827000000E+00  0.93827000000E+00 0. -1.
     999902    2    1    2    0    0 -0.17062045339E-01 -0.12068151251E-01  0.18712075028E-01  0.10158783438E+01  0.10154909719E+01 0.  0.
     999903    2    3    3    0    0 -0.11736034325E+00  0.70736135271E-03  0.51341677067E-01  0.12948810622E+00  0.18901093057E-01 0.  0.
         14    1    1    2    0    0  0.17062045339E-01  0.12068151251E-01 -0.18712075028E-01  0.28051656237E-01  0.00000000000E+00 0.  1.
     999901    1    3    3    0    0  0.10029829792E+00 -0.12775512603E-01 -0.32629602039E-01  0.88639023755E+00  0.88000000000E+00 0.  1.
        -11    1    4    4    0    0 -0.41830515950E-01 -0.53480979971E-02  0.26211130917E-01  0.49655601111E-01  0.51100000000E-03 0. -1.
         11    1    4    4    0    0 -0.75529827305E-01  0.60554593498E-02  0.25130546151E-01  0.79832505106E-01  0.51100000000E-03 0.  1.
</event>
<event>
 8    1  0.1092667E+005  0.1043930E+01  0.7957747E-01            NaN
         13   -1    0    0    0    0  0.00000000000E+00  0.00000000000E+00  0.74505805969E-08  0.10566000000E+00  0.10566000000E+00 0. -1.
     999900   -1    0    0    0    0 -0.00000000000E+00 -0.00000000000E+00 -0.74505805969E-08  0.93827000000E+00  0.93827000000E+00 0. -1.
     999902    2    1    2    0    0  0.13598993122E-02  0.15107342783E-01 -0.17435021947E-01  0.10208202375E+01  0.10205586197E+01 0.  0.
     999903    2    3    3    0    0  0.92088926597E-01 -0.67840317169E-01 -0.61108678679E-01  0.13120264608E+00  0.19929493063E-01 0.  0.
         14    1    1    2    0    0 -0.13598993122E-02 -0.15107342783E-01  0.17435021947E-01  0.23109762491E-01  0.00000000000E+00 0. -1.
     999901    1    3    3    0    0 -0.90729027285E-01  0.82947659952E-01  0.43673656733E-01  0.88961759143E+00  0.88000000000E+00 0.  1.
        -11    1    4    4    0    0  0.76333776055E-01 -0.60562433507E-01 -0.58477131316E-01  0.11364193648E+00  0.51100000000E-03 0. -1.
         11    1    4    4    0    0  0.15755150542E-01 -0.72778836627E-02 -0.26315473629E-02  0.17560709602E-01  0.51100000000E-03 0.  1.
</event>
<event>
 8    1  0.1092667E+005  0.1043930E+01  0.7957747E-01            NaN
         13   -1    0    0    0    0  0.00000000000E+00  0.00000000000E+00  0.74505805969E-08  0.10566000000E+00  0.10566000000E+00 0. -1.
     999900   -1    0    0    0    0 -0.00000000000E+00 -0.00000000000E+00 -0.74505805969E-08  0.93827000000E+00  0.93827000000E+00 0.  1.
     999902    2    1    2    0    0  0.30579025773E-02 -0.17268324762E-01 -0.13658314233E-01  0.10217017442E+01  0.10214599154E+01 0.  0.
     999903    2    3    3    0    0 -0.35961337077E-01 -0.89992420058E-01 -0.91070497470E-01  0.13445660264E+00  0.19821429133E-01 0.  0.
         14    1    1    2    0    0 -0.30579025773E-02  0.17268324762E-01  0.13658314233E-01  0.22228255801E-01  0.00000000000E+00 0.  1.
     999901    1    3    3    0    0  0.39019239654E-01  0.72724095296E-01  0.77412183237E-01  0.88724514156E+00  0.88000000000E+00 0.  1.
        -11    1    4    4    0    0 -0.35865473412E-01 -0.67797271424E-01 -0.69626620333E-01  0.10359020019E+00  0.51100000000E-03 0. -1.
         11    1    4    4    0    0 -0.95863665233E-04 -0.22195148634E-01 -0.21443877137E-01  0.30866402453E-01  0.51100000000E-03 0.  1.
</event>
<event>
 8    1  0.1092667E+005  0.1043930E+01  0.7957747E-01            NaN
         13   -1    0    0    0    0  0.00000000000E+00  0.00000000000E+00  0.74505805969E-08  0.10566000000E+00  0.10566000000E+00 0.  1.
     999900   -1    0    0    0    0 -0.00000000000E+00 -0.00000000000E+00 -0.74505805969E-08  0.93827000000E+00  0.93827000000E+00 0.  1.
     999902    2    1    2    0    0 -0.51921329891E-02 -0.20906024098E-01 -0.10482768554E-01  0.10199736120E+01  0.10196922382E+01 0.  0.
     999903    2    3    3    0    0 -0.78096104643E-01  0.43901644205E-01 -0.93108833602E-01  0.13073681027E+00  0.19912376582E-01 0.  0.
         14    1    1    2    0    0  0.51921329891E-02  0.20906024098E-01  0.10482768554E-01  0.23956387982E-01  0.00000000000E+00 0. -1.
     999901    1    3    3    0    0  0.72903971654E-01 -0.64807668303E-01  0.82626065048E-01  0.88923680175E+00  0.88000000000E+00 0. -1.
        -11    1    4    4    0    0 -0.22131361042E-01  0.22212503525E-01 -0.37820157719E-01  0.49130620852E-01  0.51100000000E-03 0.  1.
         11    1    4    4    0    0 -0.55964743602E-01  0.21689140680E-01 -0.55288675883E-01  0.81606189420E-01  0.51100000000E-03 0. -1.
</event>
<event>
 8    1  0.1092667E+005  0.1043930E+01  0.7957747E-01            NaN
         13   -1    0    0    0    0  0.00000000000E+00  0.00000000000E+00  0.74505805969E-08  0.10566000000E+00  0.10566000000E+00 0. -1.
     999900   -1    0    0    0    0 -0.00000000000E+00 -0.00000000000E+00 -0.74505805969E-08  0.93827000000E+00  0.93827000000E+00 0. -1.
     999902    2    1    2    0    0  0.31756891698E-02  0.38279502244E-02 -0.23075536345E-01  0.10203245222E+01  0.10200514262E+01 0.  0.
     999903    2    3    3    0    0  0.20497233863E-01 -0.70462976470E-02  0.12450271102E+00  0.12780134364E+00  0.19038683682E-01 0.  0.
         14    1    1    2    0    0 -0.31756891698E-02 -0.38279502244E-02  0.23075536345E-01  0.23605477801E-01  0.00000000000E+00 0. -1.
     999901    1    3    3    0    0 -0.17321544693E-01  0.10874247871E-01 -0.14757824737E+00  0.89252317856E+00  0.88000000000E+00 0. -1.
        -11    1    4    4    0    0  0.23976242496E-01 -0.42751689894E-02  0.10647756472E+00  0.10922852276E+00  0.51100000000E-03 0.  1.
         11    1    4    4    0    0 -0.34790086331E-02 -0.27711286576E-02  0.18025146303E-01  0.18572820878E-01  0.51100000000E-03 0. -1.
</event>
<event>
 8    1  0.1092667E+005  0.1043930E+01  0.7957747E-01            NaN
         13   -1    0    0    0    0  0.00000000000E+00  0.00000000000E+00  0.74505805969E-08  0.10566000000E+00  0.10566000000E+00 0. -1.
     999900   -1    0    0    0    0 -0.00000000000E+00 -0.00000000000E+00 -0.74505805969E-08  0.93827000000E+00  0.93827000000E+00 0. -1.
     999902    2    1    2    0    0 -0.79204158934E-02 -0.14189031960E-01  0.83047251512E-02  0.10256808884E+01  0.10255185297E+01 0.  0.
     999903    2    3    3    0    0  0.69824508589E-01  0.90183426194E-01  0.67746208181E-01  0.13412540876E+00  0.19787980975E-01 0.  0.
         14    1    1    2    0    0  0.79204158934E-02  0.14189031960E-01 -0.83047251512E-02  0.18249111642E-01  0.00000000000E+00 0.  1.
     999901    1    3    3    0    0 -0.77744924483E-01 -0.10437245815E+00 -0.59441483029E-01  0.89155547960E+00  0.88000000000E+00 0. -1.
        -11    1    4    4    0    0  0.60202396586E-02  0.61081283706E-02 -0.21122202623E-03  0.85940824690E-02  0.51100000000E-03 0. -1.
         11    1    4    4    0    0  0.63804268931E-01  0.84075297824E-01  0.67957430207E-01  0.12553132629E+00  0.51100000000E-03 0.  1.
</event>
<event>
 8    1  0.1092667E+005  0.1043930E+01  0.7957747E-01            NaN
         13   -1    0    0    0    0  0.00000000000E+00  0.00000000000E+00  0.74505805969E-08  0.10566000000E+00  0.10566000000E+00 0. -1.
     999900   -1    0    0    0    0 -0.00000000000E+00 -0.00000000000E+00 -0.74505805969E-08  0.93827000000E+00  0.93827000000E+00 0. -1.
     999902    2    1    2    0    0  0.98224926495E-02  0.52233291083E-02  0.23221966983E-01  0.10181807422E+01  0.10178550975E+01 0.  0.
     999903    2    3    3    0    0 -0.30313063322E-01  0.10979195356E+00 -0.54492054452E-01  0.12768372970E+00  0.18989364304E-01 0.  0.
         14    1    1    2    0    0 -0.98224926495E-02 -0.52233291083E-02 -0.23221966983E-01  0.25749257842E-01  0.00000000000E+00 0.  1.
     999901    1    3    3    0    0  0.40135555972E-01 -0.10456862445E+00  0.77714021436E-01  0.89049701246E+00  0.88000000000E+00 0. -1.
        -11    1    4    4    0    0 -0.68966255333E-02  0.27740002453E-01 -0.49483161295E-02  0.29014102319E-01  0.51100000000E-03 0.  1.
         11    1    4    4    0    0 -0.23416437789E-01  0.82051951107E-01 -0.49543738323E-01  0.98669627379E-01  0.51100000000E-03 0. -1.
</event>
<event>
 8    1  0.1092667E+005  0.1043930E+01  0.7957747E-01            NaN
         13   -1    0    0    0    0  0.00000000000E+00  0.00000000000E+00  0.74505805969E-08  0.10566000000E+00  0.10566000000E+00 0. -1.
     999900   -1    0    0    0    0 -0.00000000000E+00 -0.00000000000E+00 -0.74505805969E-08  0.93827000000E+00  0.93827000000E+00 0.  1.
     999902    2    1    2    0    0  0.61887640938E-02  0.17634918294E-01 -0.15199913869E-01  0.10198399912E+01  0.10195554321E+01 0.  0.
     999903    2    3    3    0    0  0.11446968659E+00  0.46424021493E-01  0.38145704564E-01  0.13113344474E+00  0.21963301994E-01 0.  0.
         14    1    1    2    0    0 -0.61887640938E-02 -0.17634918294E-01  0.15199913869E-01  0.24090008839E-01  0.00000000000E+00 0. -1.
     999901    1    3    3    0    0 -0.10828092249E+00 -0.28789103198E-01 -0.53345618433E-01  0.88870654642E+00  0.88000000000E+00 0. -1.
        -11    1    4    4    0    0  0.63150976741E-01  0.33109956909E-01  0.13116982215E-01  0.72502630664E-01  0.51100000000E-03 0. -1.
         11    1    4    4    0    0  0.51318709847E-01  0.13314064583E-01  0.25028722349E-01  0.58630814079E-01  0.51100000000E-03 0.  1.
</event>
<event>
 8    1  0.1092667E+005  0.1043930E+01  0.7957747E-01            NaN
         13   -1    0    0    0    0  0.00000000000E+00  0.00000000000E+00  0.74505805969E-08  0.10566000000E+00  0.10566000000E+00 0.  1.
     999900   -1    0    0    0    0 -0.00000000000E+00 -0.00000000000E+00 -0.74505805969E-08  0.93827000000E+00  0.93827000000E+00 0. -1.
     999902    2    1    2    0    0  0.11316302106E-01 -0.17049060628E-01 -0.40338281501E-02  0.10230733241E+01  0.10228607068E+01 0.  0.
     999903    2    3    3    0    0  0.82381331667E-02 -0.13349981110E+00  0.66767685059E-02  0.13533182492E+00  0.19495055707E-01 0.  0.
         14    1    1    2    0    0 -0.11316302106E-01  0.17049060628E-01  0.40338281501E-02  0.20856675938E-01  0.00000000000E+00 0.  1.
     999901    1    3    3    0    0  0.30781689390E-02  0.11645075047E+00 -0.10710596656E-01  0.88774149914E+00  0.88000000000E+00 0. -1.
        -11    1    4    4    0    0  0.14052190153E-01 -0.11008352168E+00  0.39850992539E-02  0.11104948415E+00  0.51100000000E-03 0. -1.
         11    1    4    4    0    0 -0.58140569860E-02 -0.23416289426E-01  0.26916692520E-02  0.24282340774E-01  0.51100000000E-03 0.  1.
</event>
<event>
 8    1  0.1092667E+005  0.1043930E+01  0.7957747E-01            NaN
         13   -1    0    0    0    0  0.00000000000E+00  0.00000000000E+00  0.74505805969E-08  0.10566000000E+00  0.10566000000E+00 0.  1.
     999900   -1    0    0    0    0 -0.00000000000E+00 -0.00000000000E+00 -0.74505805969E-08  0.93827000000E+00  0.93827000000E+00 0.  1.
     999902    2    1    2    0    0  0.85905136545E-02  0.91798291803E-02 -0.19971003295E-01  0.10203311195E+01  0.10200581779E+01 0.  0.
     999903    2    3    3    0    0 -0.85595174481E-01 -0.51703358454E-01 -0.82398455107E-01  0.13101964811E+00  0.19413181552E-01 0.  0.
         14    1    1    2    0    0 -0.85905136545E-02 -0.91798291803E-02  0.19971003295E-01  0.23598880508E-01  0.00000000000E+00 0.  1.
     999901    1    3    3    0    0  0.94185688136E-01  0.60883187634E-01  0.62427451812E-01  0.88931147138E+00  0.88000000000E+00 0. -1.
        -11    1    4    4    0    0 -0.42644148251E-01 -0.30096254885E-01 -0.31332109582E-01  0.60879143802E-01  0.51100000000E-03 0.  1.
         11    1    4    4    0    0 -0.42951026230E-01 -0.21607103568E-01 -0.51066345525E-01  0.70140504311E-01  0.51100000000E-03 0. -1.
</event>
<event>
 8    1  0.1092667E+005  0.1043930E+01  0.7957747E-01            NaN
         13   -1    0    0    0    0  0.00000000000E+00  0.00000000000E+00  0.74505805969E-08  0.10566000000E+00  0.10566000000E+00 0. -1.
     999900   -1    0    0    0    0 -0.00000000000E+00 -0.00000000000E+00 -0.74505805969E-08  0.93827000000E+00  0.93827000000E+00 0.  1.
     999902    2    1    2    0    0  0.18809620271E-01 -0.12844028110E-01  0.83940381911E-02  0.10196559243E+01  0.10193669473E+01 0.  0.
     999903    2    3    3    0    0 -0.71213634629E-01 -0.22578293341E-01  0.10427336335E+00  0.12982909435E+00  0.20037423717E-01 0.  0.
         14    1    1    2    0    0 -0.18809620271E-01  0.12844028110E-01 -0.83940381911E-02  0.24274075677E-01  0.00000000000E+00 0.  1.
     999901    1    3    3    0    0  0.90023254901E-01  0.97342652307E-02 -0.95879325156E-01  0.88982682997E+00  0.88000000000E+00 0.  1.
        -11    1    4    4    0    0 -0.63258807089E-01 -0.16595100234E-01  0.78370282893E-01  0.10207466085E+00  0.51100000000E-03 0. -1.
         11    1    4    4    0    0 -0.79548275405E-02 -0.59831931066E-02  0.25903080454E-01  0.27754433501E-01  0.51100000000E-03 0.  1.
</event>
<event>
 8    1  0.1092667E+005  0.1043930E+01  0.7957747E-01            NaN
         13   -1    0    0    0    0  0.00000000000E+00  0.00000000000E+00  0.74505805969E-08  0.10566000000E+00  0.10566000000E+00 0.  1.
     999900   -1    0    0    0    0 -0.00000000000E+00 -0.00000000000E+00 -0.74505805969E-08  0.93827000000E+00  0.93827000000E+00 0. -1.
     999902    2    1    2    0    0 -0.53692672103E-02 -0.11299032630E-02  0.21281862665E-01  0.10219522069E+01  0.10217158557E+01 0.  0.
     999903    2    3    3    0    0 -0.82986502733E-01  0.34249259795E-01  0.97857393482E-01  0.13451774037E+00  0.21428522677E-01 0.  0.
         14    1    1    2    0    0  0.53692672103E-02  0.11299032630E-02 -0.21281862665E-01  0.21977793116E-01  0.00000000000E+00 0. -1.
     999901    1    3    3    0    0  0.77617235522E-01 -0.35379163058E-01 -0.76575530817E-01  0.88743446651E+00  0.88000000000E+00 0. -1.
        -11    1    4    4    0    0 -0.36597914934E-01  0.19640011823E-01  0.30951846393E-01  0.51801692617E-01  0.51100000000E-03 0.  1.
         11    1    4    4    0    0 -0.46388587799E-01  0.14609247973E-01  0.66905547089E-01  0.82716047757E-01  0.51100000000E-03 0. -1.
</event>
<event>
 8    1  0.1092667E+005  0.1043930E+01  0.7957747E-01            NaN
         13   -1    0    0    0    0  0.00000000000E+00  0.00000000000E+00  0.74505805969E-08  0.10566000000E+00  0.10566000000E+00 0. -1.
     999900   -1    0    0    0    0 -0.00000000000E+00 -0.00000000000E+00 -0.74505805969E-08  0.93827000000E+00  0.93827000000E+00 0. -1.
     999902    2    1    2    0    0  0.24025952036E-01 -0.86664146968E-03  0.15127527614E-02  0.10198408767E+01  0.10195563388E+01 0.  0.
     999903    2    3    3    0    0  0.82309389289E-01 -0.76144696668E-01 -0.67045248645E-01  0.13205489791E+00  0.19250462309E-01 0.  0.
         14    1    1    2    0    0 -0.24025952036E-01  0.86664146968E-03 -0.15127527614E-02  0.24089123264E-01  0.00000000000E+00 0. -1.
     999901    1    3    3    0    0 -0.58283437253E-01  0.75278055198E-01  0.68558001407E-01  0.88778597883E+00  0.88000000000E+00 0.  1.
        -11    1    4    4    0    0  0.36966679470E-01 -0.46749141799E-01 -0.38289335774E-01  0.70840327533E-01  0.51100000000E-03 0.  1.
         11    1    4    4    0    0  0.45342709819E-01 -0.29395554868E-01 -0.28755912872E-01  0.61214570372E-01  0.51100000000E-03 0. -1.
</event>
<event>
 7    1  0.1092667E+005  0.1043930E+01  0.7957747E-01            NaN
         13   -1    0    0    0    0  0.00000000000E+00  0.00000000000E+00  0.74505805969E-08  0.10566000000E+00  0.10566000000E+00 0. -1.
     999900   -1    0    0    0    0 -0.00000000000E+00 -0.00000000000E+00 -0.74505805969E-08  0.93827000000E+00  0.93827000000E+00 0.  1.
     999902    2    1    2    0    0  0.11713270829E-01  0.12403930362E-01 -0.17125052183E-01  0.10197571720E+01  0.10194706294E+01 0.  0.
         14    1    1    2    0    0 -0.11713270829E-01 -0.12403930362E-01  0.17125052183E-01  0.24172828014E-01  0.00000000000E+00 0. -1.
     999901    1    3    3    0    0 -0.99303682710E-01 -0.32580576324E-01 -0.55152446659E-01  0.88789892878E+00  0.88000000000E+00 0.  1.
        -11    1    3    3    0    0  0.11446490666E-01  0.19947723605E-01  0.11969408513E-01  0.25931866241E-01  0.51100000000E-03 0. -1.
         11    1    3    3    0    0  0.99570462873E-01  0.25036783081E-01  0.26057985963E-01  0.10592637697E+00  0.51100000000E-03 0.  1.
</event>
<event>
 8    1  0.1092667E+005  0.1043930E+01  0.7957747E-01            NaN
         13   -1    0    0    0    0  0.00000000000E+00  0.00000000000E+00  0.74505805969E-08  0.10566000000E+00  0.10566000000E+00 0. -1.
     999900   -1    0    0    0    0 -0.00000000000E+00 -0.00000000000E+00 -0.74505805969E-08  0.93827000000E+00  0.93827000000E+00 0. -1.
     999902    2    1    2    0    0 -0.58750631518E-02 -0.21488778564E-01 -0.42742238901E-02  0.10212462401E+01  0.10209942850E+01 0.  0.
     999903    2    3    3    0    0 -0.83204643541E-01 -0.99126370210E-01  0.27756517680E-01  0.13387178252E+00  0.20054423555E-01 0.  0.
         14    1    1    2    0    0  0.58750631518E-02  0.21488778564E-01  0.42742238901E-02  0.22683759853E-01  0.00000000000E+00 0. -1.
     999901    1    3    3    0    0  0.77329580389E-01  0.77637591646E-01 -0.32030741570E-01  0.88737445763E+00  0.88000000000E+00 0.  1.
        -11    1    4    4    0    0 -0.58734641033E-01 -0.57719324214E-01  0.23205578175E-01  0.85557223099E-01  0.51100000000E-03 0.  1.
         11    1    4    4    0    0 -0.24470002508E-01 -0.41407045996E-01  0.45509395052E-02  0.48314559423E-01  0.51100000000E-03 0. -1.
</event>
<event>
 8    1  0.1092667E+005  0.1043930E+01  0.7957747E-01            NaN
         13   -1    0    0    0    0  0.00000000000E+00  0.00000000000E+00  0.74505805969E-08  0.10566000000E+00  0.10566000000E+00 0. -1.
     999900   -1    0    0    0    0 -0.00000000000E+00 -0.00000000000E+00 -0.74505805969E-08  0.93827000000E+00  0.93827000000E+00 0.  1.
     999902    2    1    2    0    0  0.54293250485E-02  0.20489998364E-01  0.97445776824E-02  0.10206003108E+01  0.10203336317E+01 0.  0.
     999903    2    3    3    0    0  0.98457916132E-01  0.35689958451E-01  0.79053563981E-01  0.13285648902E+00  0.20824176176E-01 0.  0.
         14    1    1    2    0    0 -0.54293250485E-02 -0.20489998364E-01 -0.97445776824E-02  0.23329689189E-01  0.00000000000E+00 0.  1.
     999901    1    3    3    0    0 -0.93028591083E-01 -0.15199960087E-01 -0.69308986299E-01  0.88774382179E+00  0.88000000000E+00 0.  1.
        -11    1    4    4    0    0  0.14861964596E-01  0.79735689923E-02  0.22751719781E-01  0.28325918663E-01  0.51100000000E-03 0. -1.
         11    1    4    4    0    0  0.83595951536E-01  0.27716389459E-01  0.56301844200E-01  0.10453057036E+00  0.51100000000E-03 0.  1.
</event>
<event>
 8    1  0.1092667E+005  0.1043930E+01  0.7957747E-01            NaN
         13   -1    0    0    0    0  0.00000000000E+00  0.00000000000E+00  0.74505805969E-08  0.10566000000E+00  0.10566000000E+00 0.  1.
     999900   -1    0    0    0    0 -0.00000000000E+00 -0.00000000000E+00 -0.74505805969E-08  0.93827000000E+00  0.93827000000E+00 0. -1.
     999902    2    1    2    0    0 -0.20972328231E-01 -0.93696384743E-02  0.66952263687E-02  0.10200039737E+01  0.10197233212E+01 0.  0.
     999903    2    3    3    0    0  0.45518455696E-01 -0.10470538952E+00 -0.58693317587E-01  0.12995588995E+00  0.20210873320E-01 0.  0.
         14    1    1    2    0    0  0.20972328231E-01  0.93696384743E-02 -0.66952263687E-02  0.23926026262E-01  0.00000000000E+00 0. -1.
     999901    1    3    3    0    0 -0.66490783927E-01  0.95335751043E-01  0.65388543956E-01  0.89004808379E+00  0.88000000000E+00 0.  1.
        -11    1    4    4    0    0  0.49634642721E-02 -0.19213574022E-01 -0.18546926156E-01  0.27167020358E-01  0.51100000000E-03 0. -1.
         11    1    4    4    0    0  0.40554991424E-01 -0.85491815495E-01 -0.40146391431E-01  0.10278886959E+00  0.51100000000E-03 0.  1.
</event>
<event>
 8    1  0.1092667E+005  0.1043930E+01  0.7957747E-01            NaN
         13   -1    0    0    0    0  0.00000000000E+00  0.00000000000E+00  0.74505805969E-08  0.10566000000E+00  0.10566000000E+00 0.  1.
     999900   -1    0    0    0    0 -0.00000000000E+00 -0.00000000000E+00 -0.74505805969E-08  0.93827000000E+00  0.93827000000E+00 0.  1.
     999902    2    1    2    0    0  0.34311264495E-02  0.95601074283E-02  0.21949588115E-01  0.10197442046E+01  0.10194573508E+01 0.  0.
     999903    2    3    3    0    0 -0.90338535912E-01 -0.80564637292E-01  0.44490283398E-01  0.12989966637E+00  0.15582880181E-01 0.  0.
         14    1    1    2    0    0 -0.34311264495E-02 -0.95601074283E-02 -0.21949588115E-01  0.24185795442E-01  0.00000000000E+00 0. -1.
     999901    1    3    3    0    0  0.93769662361E-01  0.90124744720E-01 -0.22540695283E-01  0.88984453818E+00  0.88000000000E+00 0.  1.
        -11    1    4    4    0    0 -0.34634914343E-01 -0.41225584783E-01  0.19359829352E-01  0.57220540418E-01  0.51100000000E-03 0. -1.
         11    1    4    4    0    0 -0.55703621569E-01 -0.39339052509E-01  0.25130454047E-01  0.72679125957E-01  0.51100000000E-03 0.  1.
</event>
<event>
 8    1  0.1092667E+005  0.1043930E+01  0.7957747E-01            NaN
         13   -1    0    0    0    0  0.00000000000E+00  0.00000000000E+00  0.74505805969E-08  0.10566000000E+00  0.10566000000E+00 0.  1.
     999900   -1    0    0    0    0 -0.00000000000E+00 -0.00000000000E+00 -0.74505805969E-08  0.93827000000E+00  0.93827000000E+00 0.  1.
     999902    2    1    2    0    0  0.12811519438E-01  0.57290874434E-02 -0.20444074437E-01  0.10191324668E+01  0.10188307353E+01 0.  0.
     999903    2    3    3    0    0  0.68198081994E-01  0.61323020366E-01 -0.93645052710E-01  0.13261301416E+00  0.20132670283E-01 0.  0.
         14    1    1    2    0    0 -0.12811519438E-01 -0.57290874434E-02  0.20444074437E-01  0.24797533201E-01  0.00000000000E+00 0.  1.
     999901    1    3    3    0    0 -0.55386562556E-01 -0.55593932923E-01  0.73200978273E-01  0.88651945264E+00  0.88000000000E+00 0. -1.
        -11    1    4    4    0    0  0.62673672114E-01  0.48304444451E-01 -0.84487081064E-01  0.11575679901E+00  0.51100000000E-03 0. -1.
         11    1    4    4    0    0  0.55244098795E-02  0.13018575915E-01 -0.91579716465E-02  0.16856215146E-01  0.51100000000E-03 0.  1.
</event>
<event>
 8    1  0.1092667E+005  0.1043930E+01  0.7957747E-01            NaN
         13   -1    0    0    0    0  0.00000000000E+00  0.00000000000E+00  0.74505805969E-08  0.10566000000E+00  0.10566000000E+00 0.  1.
     999900   -1    0    0    0    0 -0.00000000000E+00 -0.00000000000E+00 -0.74505805969E-08  0.93827000000E+00  0.93827000000E+00 0.  1.
     999902    2    1    2    0    0  0.21569070863E-01 -0.86080288072E-02  0.25911962022E-03  0.10207052261E+01  0.10204409677E+01 0.  0.
     999903    2    3    3    0    0 -0.11055497521E+00  0.61669830984E-01 -0.12303581505E-02  0.12806982483E+00  0.19359639814E-01 0.  0.
         14    1    1    2    0    0 -0.21569070863E-01  0.86080288072E-02 -0.25911962022E-03  0.23224773859E-01  0.00000000000E+00 0. -1.
     999901    1    3    3    0    0  0.13212404607E+00 -0.70277859791E-01  0.14894777707E-02  0.89263540131E+00  0.88000000000E+00 0. -1.
        -11    1    4    4    0    0 -0.75766526141E-01  0.50359838146E-01 -0.60028457704E-02  0.91175517876E-01  0.51100000000E-03 0. -1.
         11    1    4    4    0    0 -0.34788449069E-01  0.11309992839E-01  0.47724876200E-02  0.36894306955E-01  0.51100000000E-03 0.  1.
</event>
<event>
 8    1  0.1092667E+005  0.1043930E+01  0.7957747E-01            NaN
         13   -1    0    0    0    0  0.00000000000E+00  0.00000000000E+00  0.74505805969E-08  0.10566000000E+00  0.10566000000E+00 0. -1.
     999900   -1    0    0    0    0 -0.00000000000E+00 -0.00000000000E+00 -0.74505805969E-08  0.93827000000E+00  0.93827000000E+00 0. -1.
     999902    2    1    2    0    0  0.10196982994E-01 -0.88758193862E-02  0.18997534792E-01  0.10206133759E+01  0.10203469989E+01 0.  0.
     999903    2    3    3    0    0 -0.11122596937E+00 -0.64558951452E-01 -0.17511520064E-02  0.13029059590E+00  0.20820623726E-01 0.  0.
         14    1    1    2    0    0 -0.10196982994E-01  0.88758193862E-02 -0.18997534792E-01  0.23316624115E-01  0.00000000000E+00 0.  1.
     999901    1    3    3    0    0  0.12142295236E+00  0.55683132066E-01  0.20748686798E-01  0.89032277999E+00  0.88000000000E+00 0.  1.
        -11    1    4    4    0    0 -0.80266289867E-01 -0.35409626153E-01 -0.64112994577E-04  0.87731317924E-01  0.51100000000E-03 0. -1.
         11    1    4    4    0    0 -0.30959679500E-01 -0.29149325299E-01 -0.16870390118E-02  0.42559277976E-01  0.51100000000E-03 0.  1.
</event>
<event>
 8    1  0.1092667E+005  0.1043930E+01  0.7957747E-01            NaN
         13   -1    0    0    0    0  0.00000000000E+00  0.00000000000E+00  0.74505805969E-08  0.10566000000E+00  0.10566000000E+00 0. -1.
     999900   -1    0    0    0    0 -0.00000000000E+00 -0.00000000000E+00 -0.74505805969E-08  0.93827000000E+00  0.93827000000E+00 0. -1.
     999902    2    1    2    0    0 -0.24243169150E-01  0.31569603969E-02 -0.74336163424E-02  0.10183769904E+01  0.10180563532E+01 0.  0.
     999903    2    3    3    0    0  0.30893037280E-01  0.39514843595E-01 -0.11759768415E+00  0.12905251709E+00  0.17593585011E-01 0.  0.
         14    1    1    2    0    0  0.24243169150E-01 -0.31569603969E-02  0.74336163424E-02  0.25553009633E-01  0.00000000000E+00 0. -1.
     999901    1    3    3    0    0 -0.55136206430E-01 -0.36357883198E-01  0.11016406781E+00  0.88932447328E+00  0.88000000000E+00 0.  1.
        -11    1    4    4    0    0  0.92669683249E-02  0.46416054748E-02 -0.12618778267E-01  0.16337560689E-01  0.51100000000E-03 0.  1.
         11    1    4    4    0    0  0.21626068955E-01  0.34873238120E-01 -0.10497890588E+00  0.11271495640E+00  0.51100000000E-03 0. -1.
</event>
<event>
 8    1  0.1092667E+005  0.1043930E+01  0.7957747E-01            NaN
         13   -1    0    0    0    0  0.00000000000E+00  0.00000000000E+00  0.74505805969E-08  0.10566000000E+00  0.10566000000E+00 0.  1.
     999900   -1    0    0    0    0 -0.00000000000E+00 -0.00000000000E+00 -0.74505805969E-08  0.93827000000E+00  0.93827000000E+00 0.  1.
     999902    2    1    2    0    0 -0.70620007406E-02  0.20690336287E-01  0.54561908406E-02  0.10213970932E+01  0.10211485152E+01 0.  0.
     999903    2    3    3    0    0  0.65521404224E-01 -0.94322035251E-01  0.56364800958E-01  0.12949581903E+00  0.20061794909E-01 0.  0.
         14    1    1    2    0    0  0.70620007406E-02 -0.20690336287E-01 -0.54561908406E-02  0.22532906795E-01  0.00000000000E+00 0. -1.
     999901    1    3    3    0    0 -0.72583404965E-01  0.11501237154E+00 -0.50908610117E-01  0.89190127417E+00  0.88000000000E+00 0.  1.
        -11    1    4    4    0    0  0.29449213856E-01 -0.54508298659E-01  0.22140546670E-01  0.65794192352E-01  0.51100000000E-03 0. -1.
         11    1    4    4    0    0  0.36072190368E-01 -0.39813736592E-01  0.34224254288E-01  0.63701626682E-01  0.51100000000E-03 0.  1.
</event>
<event>
 8    1  0.1092667E+005  0.1043930E+01  0.7957747E-01            NaN
         13   -1    0    0    0    0  0.00000000000E+00  0.00000000000E+00  0.74505805969E-08  0.10566000000E+00  0.10566000000E+00 0. -1.
     999900   -1    0    0    0    0 -0.00000000000E+00 -0.00000000000E+00 -0.74505805969E-08  0.93827000000E+00  0.93827000000E+00 0.  1.
     999902    2    1    2    0    0 -0.59995137417E-02  0.14663433455E-01  0.18707938491E-01  0.10194147515E+01  0.10191199332E+01 0.  0.
     999903    2    3    3    0    0 -0.11307362280E+00  0.31296217274E-01 -0.51867819012E-01  0.12996410540E+00  0.20863859962E-01 0.  0.
         14    1    1    2    0    0  0.59995137417E-02 -0.14663433455E-01 -0.18707938491E-01  0.24515248488E-01  0.00000000000E+00 0.  1.
     999901    1    3    3    0    0  0.10707410906E+00 -0.16632783818E-01  0.70575757503E-01  0.88945064612E+00  0.88000000000E+00 0. -1.
        -11    1    4    4    0    0 -0.88766395921E-01  0.21078626141E-01 -0.48648615303E-01  0.10339598840E+00  0.51100000000E-03 0. -1.
         11    1    4    4    0    0 -0.24307226884E-01  0.10217591133E-01 -0.32192037091E-02  0.26568116999E-01  0.51100000000E-03 0.  1.
</event>
<event>
 8    1  0.1092667E+005  0.1043930E+01  0.7957747E-01            NaN
         13   -1    0    0    0    0  0.00000000000E+00  0.00000000000E+00  0.74505805969E-08  0.10566000000E+00  0.10566000000E+00 0. -1.
     999900   -1    0    0    0    0 -0.00000000000E+00 -0.00000000000E+00 -0.74505805969E-08  0.93827000000E+00  0.93827000000E+00 0.  1.
     999902    2    1    2    0    0 -0.76432580469E-02 -0.19258827471E-01  0.10151978204E-01  0.10208565414E+01  0.10205957543E+01 0.  0.
     999903    2    3    3    0    0 -0.10062524915E+00 -0.21630134533E-01  0.81900649486E-01  0.13305073744E+00  0.20036937394E-01 0.  0.
         14    1    1    2    0    0  0.76432580469E-02  0.19258827471E-01 -0.10151978204E-01  0.23073458574E-01  0.00000000000E+00 0. -1.
     999901    1    3    3    0    0  0.92981991101E-01  0.23713070620E-02 -0.71748671282E-01  0.88780580399E+00  0.88000000000E+00 0.  1.
        -11    1    4    4    0    0 -0.74298978911E-01 -0.11258819436E-01  0.49284130194E-01  0.89868158390E-01  0.51100000000E-03 0. -1.
         11    1    4    4    0    0 -0.26326270237E-01 -0.10371315097E-01  0.32616519292E-01  0.43182579047E-01  0.51100000000E-03 0.  1.
</event>
<event>
 8    1  0.1092667E+005  0.1043930E+01  0.7957747E-01            NaN
         13   -1    0    0    0    0  0.00000000000E+00  0.00000000000E+00  0.74505805969E-08  0.10566000000E+00  0.10566000000E+00 0. -1.
     999900   -1    0    0    0    0 -0.00000000000E+00 -0.00000000000E+00 -0.74505805969E-08  0.93827000000E+00  0.93827000000E+00 0. -1.
     999902    2    1    2    0    0 -0.19891798503E-02  0.17984874810E-01 -0.13435214552E-01  0.10213929738E+01  0.10211443039E+01 0.  0.
     999903    2    3    3    0    0 -0.31515322008E-01 -0.91816724467E-01 -0.86051883937E-01  0.13111135269E+00  0.19019297087E-01 0.  0.
         14    1    1    2    0    0  0.19891798503E-02 -0.17984874810E-01  0.13435214552E-01  0.22537026167E-01  0.00000000000E+00 0. -1.
     999901    1    3    3    0    0  0.29526142158E-01  0.10980159928E+00  0.72616669385E-01  0.89028162114E+00  0.88000000000E+00 0.  1.
        -11    1    4    4    0    0 -0.30952043187E-01 -0.64613544434E-01 -0.64385224336E-01  0.96325787490E-01  0.51100000000E-03 0. -1.
         11    1    4    4    0    0 -0.56327882102E-03 -0.27203180033E-01 -0.21666659600E-01  0.34785565199E-01  0.51100000000E-03 0.  1.
</event>
<event>
 8    1  0.1092667E+005  0.1043930E+01  0.7957747E-01            NaN
         13   -1    0    0    0    0  0.00000000000E+00  0.00000000000E+00  0.74505805969E-08  0.10566000000E+00  0.10566000000E+00 0. -1.
     999900   -1    0    0    0    0 -0.00000000000E+00 -0.00000000000E+00 -0.74505805969E-08  0.93827000000E+00  0.93827000000E+00 0.  1.
     999902    2    1    2    0    0  0.53186161481E-02  0.10043008155E-01 -0.20376195689E-01  0.10205989254E+01  0.10203322143E+01 0.  0.
     999903    2    3    3    0    0 -0.11485441765E-01 -0.58505292564E-01 -0.11691486541E+00  0.13251055107E+00  0.18307805979E-01 0.  0.
         14    1    1    2    0    0 -0.53186161481E-02 -0.10043008155E-01  0.20376195689E-01  0.23331074585E-01  0.00000000000E+00 0. -1.
     999901    1    3    3    0    0  0.16804057913E-01  0.68548300718E-01  0.96538669725E-01  0.88808837434E+00  0.88000000000E+00 0. -1.
        -11    1    4    4    0    0 -0.91520486311E-03 -0.40445768900E-01 -0.65370869567E-01  0.76878537517E-01  0.51100000000E-03 0. -1.
         11    1    4    4    0    0 -0.10570236902E-01 -0.18059523664E-01 -0.51543995847E-01  0.55632013554E-01  0.51100000000E-03 0.  1.
</event>
<event>
 8    1  0.1092667E+005  0.1043930E+01  0.7957747E-01            NaN
         13   -1    0    0    0    0  0.00000000000E+00  0.00000000000E+00  0.74505805969E-08  0.10566000000E+00  0.10566000000E+00 0.  1.
     999900   -1    0    0    0    0 -0.00000000000E+00 -0.00000000000E+00 -0.74505805969E-08  0.93827000000E+00  0.93827000000E+00 0. -1.
     999902    2    1    2    0    0 -0.18005665239E-01 -0.26549697652E-01 -0.17868558707E-01  0.10072097628E+01  0.10065401783E+01 0.  0.
     999903    2    3    3    0    0  0.25202125579E-01  0.73597651772E-01  0.82059983976E-01  0.11486335118E+00  0.20198687909E-01 0.  0.
         14    1    1    2    0    0  0.18005665239E-01  0.26549697652E-01  0.17868558707E-01  0.36720237150E-01  0.00000000000E+00 0.  1.
     999901    1    3    3    0    0 -0.43207790818E-01 -0.10014734942E+00 -0.99928542684E-01  0.89234641167E+00  0.88000000000E+00 0. -1.
        -11    1    4    4    0    0 -0.39651219108E-04  0.27061752075E-01  0.22720455143E-01  0.35338650236E-01  0.51100000000E-03 0. -1.
         11    1    4    4    0    0  0.25241776798E-01  0.46535899697E-01  0.59339528833E-01  0.79524700940E-01  0.51100000000E-03 0.  1.
</event>
<event>
 8    1  0.1092667E+005  0.1043930E+01  0.7957747E-01            NaN
         13   -1    0    0    0    0  0.00000000000E+00  0.00000000000E+00  0.74505805969E-08  0.10566000000E+00  0.10566000000E+00 0. -1.
     999900   -1    0    0    0    0 -0.00000000000E+00 -0.00000000000E+00 -0.74505805969E-08  0.93827000000E+00  0.93827000000E+00 0. -1.
     999902    2    1    2    0    0 -0.87011840745E-02  0.18592366096E-01 -0.10942294844E-01  0.10206680031E+01  0.10204028872E+01 0.  0.
     999903    2    3    3    0    0  0.13739748961E-01 -0.11733856219E+00 -0.48767988014E-01  0.12914593622E+00  0.18526664849E-01 0.  0.
         14    1    1    2    0    0  0.87011840745E-02 -0.18592366096E-01  0.10942294844E-01  0.23261996857E-01  0.00000000000E+00 0.  1.
     999901    1    3    3    0    0 -0.22440933035E-01  0.13593092828E+00  0.37825693170E-01  0.89152206692E+00  0.88000000000E+00 0.  1.
        -11    1    4    4    0    0  0.27220564749E-02 -0.22579546762E-01 -0.18218334812E-02  0.22821606465E-01  0.51100000000E-03 0.  1.
         11    1    4    4    0    0  0.11017692486E-01 -0.94759015426E-01 -0.46946154532E-01  0.10632432976E+00  0.51100000000E-03 0. -1.
</event>
<event>
 8    1  0.1092667E+005  0.1043930E+01  0.7957747E-01            NaN
         13   -1    0    0    0    0  0.00000000000E+00  0.00000000000E+00  0.74505805969E-08  0.10566000000E+00  0.10566000000E+00 0.  1.
     999900   -1    0    0    0    0 -0.00000000000E+00 -0.00000000000E+00 -0.74505805969E-08  0.93827000000E+00  0.93827000000E+00 0. -1.
     999902    2    1    2    0    0  0.14127005997E-01  0.17063439918E-01 -0.82013145637E-02  0.10203080856E+01  0.10200346046E+01 0.  0.
     999903    2    3    3    0    0 -0.57192968029E-02  0.11405416953E+00  0.62656652655E-01  0.13192645087E+00  0.20920525238E-01 0.  0.
         14    1    1    2    0    0 -0.14127005997E-01 -0.17063439918E-01  0.82013145637E-02  0.23621914419E-01  0.00000000000E+00 0.  1.
     999901    1    3    3    0    0  0.19846302800E-01 -0.96990729608E-01 -0.70857967219E-01  0.88838163471E+00  0.88000000000E+00 0. -1.
        -11    1    4    4    0    0 -0.13634396761E-01  0.69039511749E-01  0.39021709059E-01  0.80469285174E-01  0.51100000000E-03 0. -1.
         11    1    4    4    0    0  0.79150999579E-02  0.45014657776E-01  0.23634943596E-01  0.51457165700E-01  0.51100000000E-03 0.  1.
</event>
<event>
 8    1  0.1092667E+005  0.1043930E+01  0.7957747E-01            NaN
         13   -1    0    0    0    0  0.00000000000E+00  0.00000000000E+00  0.74505805969E-08  0.10566000000E+00  0.10566000000E+00 0.  1.
     999900   -1    0    0    0    0 -0.00000000000E+00 -0.00000000000E+00 -0.74505805969E-08  0.93827000000E+00  0.93827000000E+00 0.  1.
     999902    2    1    2    0    0 -0.13950938009E-01  0.15355691038E-01  0.89618949857E-02  0.10213304097E+01  0.10210803418E+01 0.  0.
     999903    2    3    3    0    0  0.47751121283E-01 -0.10575539582E+00  0.56358926196E-01  0.12963454339E+00  0.12822361282E-01 0.  0.
         14    1    1    2    0    0  0.13950938009E-01 -0.15355691038E-01 -0.89618949857E-02  0.22599590269E-01  0.00000000000E+00 0. -1.
     999901    1    3    3    0    0 -0.61702059292E-01  0.12111108686E+00 -0.47397031210E-01  0.89169586634E+00  0.88000000000E+00 0.  1.
        -11    1    4    4    0    0  0.31135727425E-01 -0.76729031731E-01  0.45396805727E-01  0.94434680726E-01  0.51100000000E-03 0.  1.
         11    1    4    4    0    0  0.16615393858E-01 -0.29026364092E-01  0.10962120469E-01  0.35199862665E-01  0.51100000000E-03 0. -1.
</event>
<event>
 8    1  0.1092667E+005  0.1043930E+01  0.7957747E-01            NaN
         13   -1    0    0    0    0  0.00000000000E+00  0.00000000000E+00  0.74505805969E-08  0.10566000000E+00  0.10566000000E+00 0. -1.
     999900   -1    0    0    0    0 -0.00000000000E+00 -0.00000000000E+00 -0.74505805969E-08  0.93827000000E+00  0.93827000000E+00 0. -1.
     999902    2    1    2    0    0 -0.18869308711E-01  0.28546969244E-02 -0.14305406837E-01  0.10200795331E+01  0.10198006713E+01 0.  0.
     999903    2    3    3    0    0 -0.92213280389E-01 -0.47477081990E-01  0.77356779196E-01  0.13085819819E+00  0.19555928776E-01 0.  0.
         14    1    1    2    0    0  0.18869308711E-01 -0.28546969244E-02  0.14305406837E-01  0.23850466883E-01  0.00000000000E+00 0. -1.
     999901    1    3    3    0    0  0.73343971678E-01  0.50331778914E-01 -0.91662186032E-01  0.88922133493E+00  0.88000000000E+00 0. -1.
        -11    1    4    4    0    0 -0.55792084270E-01 -0.23779792496E-01  0.55520333763E-01  0.82225323232E-01  0.51100000000E-03 0.  1.
         11    1    4    4    0    0 -0.36421196119E-01 -0.23697289494E-01  0.21836445432E-01  0.48632874953E-01  0.51100000000E-03 0. -1.
</event>
<event>
 8    1  0.1092667E+005  0.1043930E+01  0.7957747E-01            NaN
         13   -1    0    0    0    0  0.00000000000E+00  0.00000000000E+00  0.74505805969E-08  0.10566000000E+00  0.10566000000E+00 0.  1.
     999900   -1    0    0    0    0 -0.00000000000E+00 -0.00000000000E+00 -0.74505805969E-08  0.93827000000E+00  0.93827000000E+00 0.  1.
     999902    2    1    2    0    0  0.20264098212E-01  0.11796907763E-01  0.31600286538E-02  0.10202701925E+01  0.10199958232E+01 0.  0.
     999903    2    3    3    0    0 -0.70127606534E-01  0.10386833190E+00 -0.28926594152E-01  0.13028291239E+00  0.20745549917E-01 0.  0.
         14    1    1    2    0    0 -0.20264098212E-01 -0.11796907763E-01 -0.31600286538E-02  0.23659807484E-01  0.00000000000E+00 0.  1.
     999901    1    3    3    0    0  0.90391704746E-01 -0.92071424134E-01  0.32086622806E-01  0.88998728013E+00  0.88000000000E+00 0. -1.
        -11    1    4    4    0    0 -0.60606494608E-01  0.76440533920E-01 -0.17673796964E-01  0.99140943281E-01  0.51100000000E-03 0. -1.
         11    1    4    4    0    0 -0.95211119264E-02  0.27427797977E-01 -0.11252797187E-01  0.31141969105E-01  0.51100000000E-03 0.  1.
</event>
<event>
 8    1  0.1092667E+005  0.1043930E+01  0.7957747E-01            NaN
         13   -1    0    0    0    0  0.00000000000E+00  0.00000000000E+00  0.74505805969E-08  0.10566000000E+00  0.10566000000E+00 0. -1.
     999900   -1    0    0    0    0 -0.00000000000E+00 -0.00000000000E+00 -0.74505805969E-08  0.93827000000E+00  0.93827000000E+00 0. -1.
     999902    2    1    2    0    0  0.11368414817E-02  0.17969304158E-01  0.16900552264E-01  0.10192355276E+01  0.10189363296E+01 0.  0.
     999903    2    3    3    0    0 -0.37606434578E-01  0.25703291112E-01 -0.11805714335E+00  0.12807087637E+00  0.19742268898E-01 0.  0.
         14    1    1    2    0    0 -0.11368414817E-02 -0.17969304158E-01 -0.16900552264E-01  0.24694472404E-01  0.00000000000E+00 0.  1.
     999901    1    3    3    0    0  0.38743276060E-01 -0.77339869542E-02  0.13495769562E+00  0.89116465123E+00  0.88000000000E+00 0.  1.
        -11    1    4    4    0    0 -0.24250151817E-01  0.24470786688E-01 -0.98485693307E-01  0.10433878556E+00  0.51100000000E-03 0. -1.
         11    1    4    4    0    0 -0.13356282761E-01  0.12325044236E-02 -0.19571450045E-01  0.23732090810E-01  0.51100000000E-03 0.  1.
</event>
<event>
 8    1  0.1092667E+005  0.1043930E+01  0.7957747E-01            NaN
         13   -1    0    0    0    0  0.00000000000E+00  0.00000000000E+00  0.74505805969E-08  0.10566000000E+00  0.10566000000E+00 0. -1.
     999900   -1    0    0    0    0 -0.00000000000E+00 -0.00000000000E+00 -0.74505805969E-08  0.93827000000E+00  0.93827000000E+00 0. -1.
     999902    2    1    2    0    0 -0.19164471946E-01 -0.11134817581E-01  0.53553581285E-03  0.10217591194E+01  0.10215185511E+01 0.  0.
     999903    2    3    3    0    0  0.94783210063E-01 -0.50365373472E-01  0.71152201912E-01  0.13074294431E+00  0.22595439727E-01 0.  0.
         14    1    1    2    0    0  0.19164471946E-01  0.11134817581E-01 -0.53553581285E-03  0.22170880590E-01  0.00000000000E+00 0. -1.
     999901    1    3    3    0    0 -0.11394768201E+00  0.39230555890E-01 -0.70616666099E-01  0.89101617510E+00  0.88000000000E+00 0. -1.
        -11    1    4    4    0    0  0.63092677822E-01 -0.43301627230E-01  0.56477274335E-01  0.95108677589E-01  0.51100000000E-03 0. -1.
         11    1    4    4    0    0  0.31690532241E-01 -0.70637462421E-02  0.14674927577E-01  0.35634266726E-01  0.51100000000E-03 0.  1.
</event>
<event>
 8    1  0.1092667E+005  0.1043930E+01  0.7957747E-01            NaN
         13   -1    0    0    0    0  0.00000000000E+00  0.00000000000E+00  0.74505805969E-08  0.10566000000E+00  0.10566000000E+00 0. -1.
     999900   -1    0    0    0    0 -0.00000000000E+00 -0.00000000000E+00 -0.74505805969E-08  0.93827000000E+00  0.93827000000E+00 0. -1.
     999902    2    1    2    0    0  0.14872647926E-02 -0.14619677998E-01  0.19329233191E-01  0.10196490157E+01  0.10193598722E+01 0.  0.
     999903    2    3    3    0    0 -0.16283418772E-02 -0.93210127542E-01  0.91165163788E-01  0.13322554656E+00  0.27334589720E-01 0.  0.
         14    1    1    2    0    0 -0.14872647926E-02  0.14619677998E-01 -0.19329233191E-01  0.24280984270E-01  0.00000000000E+00 0.  1.
     999901    1    3    3    0    0  0.31156066698E-02  0.78590449544E-01 -0.71835930596E-01  0.88642346917E+00  0.88000000000E+00 0. -1.
        -11    1    4    4    0    0  0.17630340611E-02 -0.27887046963E-01  0.11692764682E-01  0.30294843527E-01  0.51100000000E-03 0.  1.
         11    1    4    4    0    0 -0.33913759383E-02 -0.65323080579E-01  0.79472399105E-01  0.10293070304E+00  0.51100000000E-03 0. -1.
</event>
<event>
 8    1  0.1092667E+005  0.1043930E+01  0.7957747E-01            NaN
         13   -1    0    0    0    0  0.00000000000E+00  0.00000000000E+00  0.74505805969E-08  0.10566000000E+00  0.10566000000E+00 0. -1.
     999900   -1    0    0    0    0 -0.00000000000E+00 -0.00000000000E+00 -0.74505805969E-08  0.93827000000E+00  0.93827000000E+00 0.  1.
     999902    2    1    2    0    0  0.33212767039E-02 -0.22781820134E-01 -0.40095204356E-02  0.10205608224E+01  0.10202932293E+01 0.  0.
     999903    2    3    3    0    0  0.88364245750E-01 -0.75946020565E-01  0.60204861667E-01  0.13253929920E+00  0.19131191762E-01 0.  0.
         14    1    1    2    0    0 -0.33212767039E-02  0.22781820134E-01  0.40095204356E-02  0.23369177600E-01  0.00000000000E+00 0. -1.
     999901    1    3    3    0    0 -0.85042969047E-01  0.53164200431E-01 -0.64214382103E-01  0.88802152320E+00  0.88000000000E+00 0.  1.
        -11    1    4    4    0    0  0.62146465107E-01 -0.41974557059E-01  0.41650936911E-01  0.85785244839E-01  0.51100000000E-03 0. -1.
         11    1    4    4    0    0  0.26217780644E-01 -0.33971463506E-01  0.18553924757E-01  0.46754054364E-01  0.51100000000E-03 0.  1.
</event>
<event>
 8    1  0.1092667E+005  0.1043930E+01  0.7957747E-01            NaN
         13   -1    0    0    0    0  0.00000000000E+00  0.00000000000E+00  0.74505805969E-08  0.10566000000E+00  0.10566000000E+00 0. -1.
     999900   -1    0    0    0    0 -0.00000000000E+00 -0.00000000000E+00 -0.74505805969E-08  0.93827000000E+00  0.93827000000E+00 0.  1.
     999902    2    1    2    0    0 -0.19818349109E-02 -0.22680326219E-01 -0.46473318074E-02  0.10206937662E+01  0.10204292439E+01 0.  0.
     999903    2    3    3    0    0 -0.31997389410E-02 -0.10649765804E+00 -0.78237209305E-01  0.13365244900E+00  0.19746561859E-01 0.  0.
         14    1    1    2    0    0  0.19818349109E-02  0.22680326219E-01  0.46473318074E-02  0.23236233773E-01  0.00000000000E+00 0. -1.
     999901    1    3    3    0    0  0.12179040301E-02  0.83817331823E-01  0.73589877498E-01  0.88704131723E+00  0.88000000000E+00 0. -1.
        -11    1    4    4    0    0  0.66223518876E-02 -0.26355916924E-01 -0.14647355737E-01  0.30875492749E-01  0.51100000000E-03 0.  1.
         11    1    4    4    0    0 -0.98220908287E-02 -0.80141741118E-01 -0.63589853568E-01  0.10277695625E+00  0.51100000000E-03 0. -1.
</event>
<event>
 8    1  0.1092667E+005  0.1043930E+01  0.7957747E-01            NaN
         13   -1    0    0    0    0  0.00000000000E+00  0.00000000000E+00  0.74505805969E-08  0.10566000000E+00  0.10566000000E+00 0. -1.
     999900   -1    0    0    0    0 -0.00000000000E+00 -0.00000000000E+00 -0.74505805969E-08  0.93827000000E+00  0.93827000000E+00 0. -1.
     999902    2    1    2    0    0 -0.18263203888E-01 -0.14085377417E-01  0.41938991671E-02  0.10204879168E+01  0.10202186320E+01 0.  0.
     999903    2    3    3    0    0 -0.79860967456E-01 -0.57988525926E-01  0.87299811696E-01  0.13334172616E+00  0.20452763871E-01 0.  0.
         14    1    1    2    0    0  0.18263203888E-01  0.14085377417E-01 -0.41938991671E-02  0.23442083172E-01  0.00000000000E+00 0.  1.
     999901    1    3    3    0    0  0.61597763568E-01  0.43903148509E-01 -0.83105912529E-01  0.88714619067E+00  0.88000000000E+00 0. -1.
        -11    1    4    4    0    0 -0.59581271651E-01 -0.31433573066E-01  0.59097626262E-01  0.89614663968E-01  0.51100000000E-03 0. -1.
         11    1    4    4    0    0 -0.20279695805E-01 -0.26554952860E-01  0.28202185434E-01  0.43727062188E-01  0.51100000000E-03 0.  1.
</event>
<event>
 8    1  0.1092667E+005  0.1043930E+01  0.7957747E-01            NaN
         13   -1    0    0    0    0  0.00000000000E+00  0.00000000000E+00  0.74505805969E-08  0.10566000000E+00  0.10566000000E+00 0.  1.
     999900   -1    0    0    0    0 -0.00000000000E+00 -0.00000000000E+00 -0.74505805969E-08  0.93827000000E+00  0.93827000000E+00 0.  1.
     999902    2    1    2    0    0  0.41526176443E-02 -0.26276122825E-01  0.65470327066E-02  0.10165339692E+01  0.10161647347E+01 0.  0.
     999903    2    3    3    0    0  0.11722971023E+00 -0.21528090227E-01 -0.41796393144E-01  0.12796992568E+00  0.20569389152E-01 0.  0.
         14    1    1    2    0    0 -0.41526176443E-02  0.26276122825E-01 -0.65470327066E-02  0.27396030758E-01  0.00000000000E+00 0. -1.
     999901    1    3    3    0    0 -0.11307709259E+00 -0.47480325981E-02  0.48343425850E-01  0.88856404356E+00  0.88000000000E+00 0.  1.
        -11    1    4    4    0    0  0.42666743611E-01 -0.55137393715E-02 -0.50692071580E-02  0.43322168857E-01  0.51100000000E-03 0.  1.
         11    1    4    4    0    0  0.74562966620E-01 -0.16014350856E-01 -0.36727185986E-01  0.84647756827E-01  0.51100000000E-03 0. -1.
</event>
<event>
 8    1  0.1092667E+005  0.1043930E+01  0.7957747E-01            NaN
         13   -1    0    0    0    0  0.00000000000E+00  0.00000000000E+00  0.74505805969E-08  0.10566000000E+00  0.10566000000E+00 0.  1.
     999900   -1    0    0    0    0 -0.00000000000E+00 -0.00000000000E+00 -0.74505805969E-08  0.93827000000E+00  0.93827000000E+00 0.  1.
     999902    2    1    2    0    0 -0.10686224230E-02 -0.10630857808E-01 -0.19346497208E-01  0.10218292297E+01  0.10215901971E+01 0.  0.
     999903    2    3    3    0    0 -0.79170351361E-02 -0.43292898818E-01  0.12118651000E+00  0.13005390165E+00  0.17055573786E-01 0.  0.
         14    1    1    2    0    0  0.10686224230E-02  0.10630857808E-01  0.19346497208E-01  0.22100770254E-01  0.00000000000E+00 0.  1.
     999901    1    3    3    0    0  0.68484127130E-02  0.32662041010E-01 -0.14053300720E+00  0.89177532809E+00  0.88000000000E+00 0.  1.
        -11    1    4    4    0    0 -0.94489416320E-02 -0.28606985932E-01  0.60412482782E-01  0.67509786987E-01  0.51100000000E-03 0.  1.
         11    1    4    4    0    0  0.15319064959E-02 -0.14685912885E-01  0.60774027213E-01  0.62544114667E-01  0.51100000000E-03 0. -1.
</event>
<event>
 8    1  0.1092667E+005  0.1043930E+01  0.7957747E-01            NaN
         13   -1    0    0    0    0  0.00000000000E+00  0.00000000000E+00  0.74505805969E-08  0.10566000000E+00  0.10566000000E+00 0.  1.
     999900   -1    0    0    0    0 -0.00000000000E+00 -0.00000000000E+00 -0.74505805969E-08  0.93827000000E+00  0.93827000000E+00 0. -1.
     999902    2    1    2    0    0  0.20909306828E-01  0.87767177260E-03 -0.58156501342E-02  0.10222092448E+01  0.10219784484E+01 0.  0.
     999903    2    3    3    0    0 -0.15930336878E-01  0.12878848152E+00 -0.15443918751E-01  0.13214686601E+00  0.19596707978E-01 0.  0.
         14    1    1    2    0    0 -0.20909306828E-01 -0.87767177260E-03  0.58156501342E-02  0.21720755195E-01  0.00000000000E+00 0.  1.
     999901    1    3    3    0    0  0.36839643706E-01 -0.12791080975E+00  0.96282686166E-02  0.89006237880E+00  0.88000000000E+00 0.  1.
        -11    1    4    4    0    0 -0.55816143629E-02  0.64819758508E-01 -0.17284069963E-01  0.67318316285E-01  0.51100000000E-03 0. -1.
         11    1    4    4    0    0 -0.10348722515E-01  0.63968723011E-01  0.18401512121E-02  0.64828549721E-01  0.51100000000E-03 0.  1.
</event>
<event>
 8    1  0.1092667E+005  0.1043930E+01  0.7957747E-01            NaN
         13   -1    0    0    0    0  0.00000000000E+00  0.00000000000E+00  0.74505805969E-08  0.10566000000E+00  0.10566000000E+00 0. -1.
     999900   -1    0    0    0    0 -0.00000000000E+00 -0.00000000000E+00 -0.74505805969E-08  0.93827000000E+00  0.93827000000E+00 0. -1.
     999902    2    1    2    0    0  0.15297754300E-01  0.15226192024E-01  0.91898045913E-02  0.10204712976E+01  0.10202016264E+01 0.  0.
     999903    2    3    3    0    0  0.30848193545E-01 -0.91761496641E-01 -0.82827339823E-01  0.12909296234E+00  0.20804840631E-01 0.  0.
         14    1    1    2    0    0 -0.15297754300E-01 -0.15226192024E-01 -0.91898045913E-02  0.23458702407E-01  0.00000000000E+00 0.  1.
     999901    1    3    3    0    0 -0.15550439245E-01  0.10698768866E+00  0.92017144415E-01  0.89137833525E+00  0.88000000000E+00 0.  1.
        -11    1    4    4    0    0  0.18378530757E-01 -0.53733083727E-01 -0.34926814791E-01  0.66672019559E-01  0.51100000000E-03 0. -1.
         11    1    4    4    0    0  0.12469662788E-01 -0.38028412914E-01 -0.47900525032E-01  0.62420942785E-01  0.51100000000E-03 0.  1.
</event>
<event>
 8    1  0.1092667E+005  0.1043930E+01  0.7957747E-01            NaN
         13   -1    0    0    0    0  0.00000000000E+00  0.00000000000E+00  0.74505805969E-08  0.10566000000E+00  0.10566000000E+00 0. -1.
     999900   -1    0    0    0    0 -0.00000000000E+00 -0.00000000000E+00 -0.74505805969E-08  0.93827000000E+00  0.93827000000E+00 0.  1.
     999902    2    1    2    0    0  0.19707173866E-01 -0.89552079450E-02  0.10039540371E-01  0.10200687171E+01  0.10197895993E+01 0.  0.
     999903    2    3    3    0    0  0.91936825747E-03 -0.12198343096E+00 -0.43335121530E-01  0.13103710046E+00  0.20297444995E-01 0.  0.
         14    1    1    2    0    0 -0.19707173866E-01  0.89552079450E-02 -0.10039540371E-01  0.23861282908E-01  0.00000000000E+00 0.  1.
     999901    1    3    3    0    0  0.18787805609E-01  0.11302822301E+00  0.53374661901E-01  0.88903161663E+00  0.88000000000E+00 0. -1.
        -11    1    4    4    0    0  0.66346596201E-02 -0.66548940804E-01 -0.32099870714E-01  0.74185194286E-01  0.51100000000E-03 0. -1.
         11    1    4    4    0    0 -0.57152913626E-02 -0.55434490152E-01 -0.11235250815E-01  0.56851906175E-01  0.51100000000E-03 0.  1.
</event>
<event>
 8    1  0.1092667E+005  0.1043930E+01  0.7957747E-01            NaN
         13   -1    0    0    0    0  0.00000000000E+00  0.00000000000E+00  0.74505805969E-08  0.10566000000E+00  0.10566000000E+00 0. -1.
     999900   -1    0    0    0    0 -0.00000000000E+00 -0.00000000000E+00 -0.74505805969E-08  0.93827000000E+00  0.93827000000E+00 0.  1.
     999902    2    1    2    0    0 -0.51526312018E-02 -0.18397369158E-01 -0.14784041662E-01  0.10197725852E+01  0.10194864123E+01 0.  0.
     999903    2    3    3    0    0 -0.29320165925E-01 -0.10227720988E+00  0.74006164933E-01  0.13100737541E+00  0.19123811652E-01 0.  0.
         14    1    1    2    0    0  0.51526312018E-02  0.18397369158E-01  0.14784041662E-01  0.24157414764E-01  0.00000000000E+00 0. -1.
     999901    1    3    3    0    0  0.24167534723E-01  0.83879840723E-01 -0.88790206594E-01  0.88876520983E+00  0.88000000000E+00 0.  1.
        -11    1    4    4    0    0 -0.18038268375E-01 -0.54752899445E-01  0.51176760978E-01  0.77088138574E-01  0.51100000000E-03 0.  1.
         11    1    4    4    0    0 -0.11281897550E-01 -0.47524310436E-01  0.22829403955E-01  0.53919236833E-01  0.51100000000E-03 0. -1.
</event>
<event>
 8    1  0.1092667E+005  0.1043930E+01  0.7957747E-01            NaN
         13   -1    0    0    0    0  0.00000000000E+00  0.00000000000E+00  0.74505805969E-08  0.10566000000E+00  0.10566000000E+00 0.  1.
     999900   -1    0    0    0    0 -0.00000000000E+00 -0.00000000000E+00 -0.74505805969E-08  0.93827000000E+00  0.93827000000E+00 0. -1.
     999902    2    1    2    0    0  0.10666780821E-01 -0.13858133622E-01 -0.16155843307E-01  0.10201216117E+01  0.10198437446E+01 0.  0.
     999903    2    3    3    0    0 -0.89258267239E-01  0.89029688764E-01 -0.14685091083E-01  0.12850898150E+00  0.20139083214E-01 0.  0.
         14    1    1    2    0    0 -0.10666780821E-01  0.13858133622E-01  0.16155843307E-01  0.23808388302E-01  0.00000000000E+00 0.  1.
     999901    1    3    3    0    0  0.99925048061E-01 -0.10288782239E+00 -0.14707522241E-02  0.89161263020E+00  0.88000000000E+00 0. -1.
        -11    1    4    4    0    0 -0.37154034247E-01  0.24395797850E-01 -0.85096751717E-02  0.45257628154E-01  0.51100000000E-03 0. -1.
         11    1    4    4    0    0 -0.52104232992E-01  0.64633890915E-01 -0.61754159113E-02  0.83251353341E-01  0.51100000000E-03 0.  1.
</event>
<event>
 8    1  0.1092667E+005  0.1043930E+01  0.7957747E-01            NaN
         13   -1    0    0    0    0  0.00000000000E+00  0.00000000000E+00  0.74505805969E-08  0.10566000000E+00  0.10566000000E+00 0.  1.
     999900   -1    0    0    0    0 -0.00000000000E+00 -0.00000000000E+00 -0.74505805969E-08  0.93827000000E+00  0.93827000000E+00 0. -1.
     999902    2    1    2    0    0 -0.39322293114E-02 -0.14120577564E-01  0.18046044560E-01  0.10206810675E+01  0.10204162527E+01 0.  0.
     999903    2    3    3    0    0  0.34954026747E-01  0.32705401467E-01 -0.11725584070E+00  0.12826221216E+00  0.20269080361E-01 0.  0.
         14    1    1    2    0    0  0.39322293114E-02  0.14120577564E-01 -0.18046044560E-01  0.23248932499E-01  0.00000000000E+00 0.  1.
     999901    1    3    3    0    0 -0.38886256058E-01 -0.46825979031E-01  0.13530188526E+00  0.89241885535E+00  0.88000000000E+00 0.  1.
        -11    1    4    4    0    0  0.18384832574E-02  0.13555204016E-01 -0.33071173093E-01  0.35792278320E-01  0.51100000000E-03 0.  1.
         11    1    4    4    0    0  0.33115543489E-01  0.19150197451E-01 -0.84184667603E-01  0.92469933835E-01  0.51100000000E-03 0. -1.
</event>
<event>
 8    1  0.1092667E+005  0.1043930E+01  0.7957747E-01            NaN
         13   -1    0    0    0    0  0.00000000000E+00  0.00000000000E+00  0.74505805969E-08  0.10566000000E+00  0.10566000000E+00 0. -1.
     999900   -1    0    0    0    0 -0.00000000000E+00 -0.00000000000E+00 -0.74505805969E-08  0.93827000000E+00  0.93827000000E+00 0.  1.
     999902    2    1    2    0    0  0.23817081320E-02  0.23339688857E-01  0.13105624742E-02  0.10204325281E+01  0.10201619545E+01 0.  0.
     999903    2    3    3    0    0 -0.34515293352E-01  0.50364803662E-01 -0.11487761847E+00  0.13161790240E+00  0.19962116186E-01 0.  0.
         14    1    1    2    0    0 -0.23817081320E-02 -0.23339688857E-01 -0.13105624742E-02  0.23497471855E-01  0.00000000000E+00 0.  1.
     999901    1    3    3    0    0  0.36897001484E-01 -0.27025114805E-01  0.11618818095E+00  0.88881462575E+00  0.88000000000E+00 0. -1.
        -11    1    4    4    0    0 -0.36781631653E-01  0.44938314447E-01 -0.10735139286E+00  0.12205295245E+00  0.51100000000E-03 0.  1.
         11    1    4    4    0    0  0.22663383009E-02  0.54264892148E-02 -0.75262256165E-02  0.95649499488E-02  0.51100000000E-03 0. -1.
</event>
<event>
 8    1  0.1092667E+005  0.1043930E+01  0.7957747E-01            NaN
         13   -1    0    0    0    0  0.00000000000E+00  0.00000000000E+00  0.74505805969E-08  0.10566000000E+00  0.10566000000E+00 0. -1.
     999900   -1    0    0    0    0 -0.00000000000E+00 -0.00000000000E+00 -0.74505805969E-08  0.93827000000E+00  0.93827000000E+00 0.  1.
     999902    2    1    2    0    0  0.87762496904E-02 -0.20550113944E-01  0.83337647487E-02  0.10200808621E+01  0.10198020317E+01 0.  0.
     999903    2    3    3    0    0 -0.11433634026E+00  0.36747897791E-01  0.42531395114E-01  0.12900889542E+00  0.20277298434E-01 0.  0.
         14    1    1    2    0    0 -0.87762496904E-02  0.20550113944E-01 -0.83337647487E-02  0.23849137859E-01  0.00000000000E+00 0.  1.
     999901    1    3    3    0    0  0.12311258995E+00 -0.57298011735E-01 -0.34197630365E-01  0.89107196672E+00  0.88000000000E+00 0.  1.
        -11    1    4    4    0    0 -0.20507755296E-01  0.84886243082E-02  0.43050532698E-04  0.22201075295E-01  0.51100000000E-03 0.  1.
         11    1    4    4    0    0 -0.93828584962E-01  0.28259273483E-01  0.42488344581E-01  0.10680782013E+00  0.51100000000E-03 0. -1.
</event>
<event>
 8    1  0.1092667E+005  0.1043930E+01  0.7957747E-01            NaN
         13   -1    0    0    0    0  0.00000000000E+00  0.00000000000E+00  0.74505805969E-08  0.10566000000E+00  0.10566000000E+00 0.  1.
     999900   -1    0    0    0    0 -0.00000000000E+00 -0.00000000000E+00 -0.74505805969E-08  0.93827000000E+00  0.93827000000E+00 0.  1.
     999902    2    1    2    0    0 -0.14153530545E-01  0.14515777837E-01 -0.10953211427E-01  0.10208864961E+01  0.10206263933E+01 0.  0.
     999903    2    3    3    0    0 -0.11668453440E+00 -0.30984120438E-01  0.48981896301E-01  0.13174361405E+00  0.19541171708E-01 0.  0.
         14    1    1    2    0    0  0.14153530545E-01 -0.14515777837E-01  0.10953211427E-01  0.23043503937E-01  0.00000000000E+00 0.  1.
     999901    1    3    3    0    0  0.10253100385E+00  0.45499898275E-01 -0.59935107728E-01  0.88914288201E+00  0.88000000000E+00 0. -1.
        -11    1    4    4    0    0 -0.15832799467E-01 -0.24824074241E-02 -0.58124917045E-04  0.16034474893E-01  0.51100000000E-03 0.  1.
         11    1    4    4    0    0 -0.10085173493E+00 -0.28501713014E-01  0.49040021218E-01  0.11570913916E+00  0.51100000000E-03 0. -1.
</event>
<event>
 8    1  0.1092667E+005  0.1043930E+01  0.7957747E-01            NaN
         13   -1    0    0    0    0  0.00000000000E+00  0.00000000000E+00  0.74505805969E-08  0.10566000000E+00  0.10566000000E+00 0. -1.
     999900   -1    0    0    0    0 -0.00000000000E+00 -0.00000000000E+00 -0.74505805969E-08  0.93827000000E+00  0.93827000000E+00 0.  1.
     999902    2    1    2    0    0  0.10803739888E-01  0.10431241309E-01 -0.18820605839E-01  0.10198520683E+01  0.10195677979E+01 0.  0.
     999903    2    3    3    0    0  0.15135080133E-01  0.59688345687E-01 -0.11615903860E+00  0.13310532129E+00  0.20792668086E-01 0.  0.
         14    1    1    2    0    0 -0.10803739888E-01 -0.10431241309E-01  0.18820605839E-01  0.24077931700E-01  0.00000000000E+00 0. -1.
     999901    1    3    3    0    0 -0.43313402449E-02 -0.49257104378E-01  0.97338432759E-01  0.88674674701E+00  0.88000000000E+00 0. -1.
        -11    1    4    4    0    0  0.60657560301E-02  0.11426732088E-01 -0.43660647874E-01  0.45539838561E-01  0.51100000000E-03 0.  1.
         11    1    4    4    0    0  0.90693241028E-02  0.48261613599E-01 -0.72498390725E-01  0.87565482729E-01  0.51100000000E-03 0. -1.
</event>
<event>
 8    1  0.1092667E+005  0.1043930E+01  0.7957747E-01            NaN
         13   -1    0    0    0    0  0.00000000000E+00  0.00000000000E+00  0.74505805969E-08  0.10566000000E+00  0.10566000000E+00 0. -1.
     999900   -1    0    0    0    0 -0.00000000000E+00 -0.00000000000E+00 -0.74505805969E-08  0.93827000000E+00  0.93827000000E+00 0.  1.
     999902    2    1    2    0    0  0.17765774300E-01  0.20491966103E-02 -0.13548860946E-01  0.10214935659E+01  0.10212471354E+01 0.  0.
     999903    2    3    3    0    0  0.35231584599E-01 -0.10598242077E+00 -0.69211780574E-01  0.13296993338E+00  0.20425340829E-01 0.  0.
         14    1    1    2    0    0 -0.17765774300E-01 -0.20491966103E-02  0.13548860946E-01  0.22436434123E-01  0.00000000000E+00 0. -1.
     999901    1    3    3    0    0 -0.17465810299E-01  0.10803161738E+00  0.55662919628E-01  0.88852363250E+00  0.88000000000E+00 0. -1.
        -11    1    4    4    0    0  0.22175833284E-01 -0.59370272382E-01 -0.50624717586E-01  0.81115473100E-01  0.51100000000E-03 0. -1.
         11    1    4    4    0    0  0.13055751315E-01 -0.46612148385E-01 -0.18587062988E-01  0.51854460281E-01  0.51100000000E-03 0.  1.
</event>
<event>
 8    1  0.1092667E+005  0.1043930E+01  0.7957747E-01            NaN
         13   -1    0    0    0    0  0.00000000000E+00  0.00000000000E+00  0.74505805969E-08  0.10566000000E+00  0.10566000000E+00 0. -1.
     999900   -1    0    0    0    0 -0.00000000000E+00 -0.00000000000E+00 -0.74505805969E-08  0.93827000000E+00  0.93827000000E+00 0.  1.
     999902    2    1    2    0    0  0.16468722667E-01 -0.15443484718E-01  0.41227129451E-02  0.10209796883E+01  0.10207217089E+01 0.  0.
     999903    2    3    3    0    0  0.18321191259E-01  0.71548565257E-01 -0.10507122857E+00  0.12997218815E+00  0.19948518284E-01 0.  0.
         14    1    1    2    0    0 -0.16468722667E-01  0.15443484718E-01 -0.41227129451E-02  0.22950311731E-01  0.00000000000E+00 0.  1.
     999901    1    3    3    0    0 -0.18524685927E-02 -0.86992049975E-01  0.10919394151E+00  0.89100750012E+00  0.88000000000E+00 0. -1.
        -11    1    4    4    0    0  0.12638511765E-01  0.39217504230E-01 -0.41833438542E-01  0.58720033369E-01  0.51100000000E-03 0. -1.
         11    1    4    4    0    0  0.56826794947E-02  0.32331061028E-01 -0.63237790024E-01  0.71252154785E-01  0.51100000000E-03 0.  1.
</event>
<event>
 8    1  0.1092667E+005  0.1043930E+01  0.7957747E-01            NaN
         13   -1    0    0    0    0  0.00000000000E+00  0.00000000000E+00  0.74505805969E-08  0.10566000000E+00  0.10566000000E+00 0. -1.
     999900   -1    0    0    0    0 -0.00000000000E+00 -0.00000000000E+00 -0.74505805969E-08  0.93827000000E+00  0.93827000000E+00 0.  1.
     999902    2    1    2    0    0  0.64531974543E-02  0.16607953705E-01  0.14997722082E-01  0.10206405270E+01  0.10203747772E+01 0.  0.
     999903    2    3    3    0    0 -0.76651042956E-01 -0.90307163765E-01  0.48745096765E-01  0.12964330907E+00  0.20013418341E-01 0.  0.
         14    1    1    2    0    0 -0.64531974543E-02 -0.16607953705E-01 -0.14997722082E-01  0.23289472972E-01  0.00000000000E+00 0.  1.
     999901    1    3    3    0    0  0.83104240410E-01  0.10691511747E+00 -0.33747374682E-01  0.89099721796E+00  0.88000000000E+00 0.  1.
        -11    1    4    4    0    0 -0.41495047671E-01 -0.37424218133E-01  0.30029196315E-01  0.63438354616E-01  0.51100000000E-03 0.  1.
         11    1    4    4    0    0 -0.35155995285E-01 -0.52882945631E-01  0.18715900450E-01  0.66204954450E-01  0.51100000000E-03 0. -1.
</event>
<event>
 8    1  0.1092667E+005  0.1043930E+01  0.7957747E-01            NaN
         13   -1    0    0    0    0  0.00000000000E+00  0.00000000000E+00  0.74505805969E-08  0.10566000000E+00  0.10566000000E+00 0. -1.
     999900   -1    0    0    0    0 -0.00000000000E+00 -0.00000000000E+00 -0.74505805969E-08  0.93827000000E+00  0.93827000000E+00 0.  1.
     999902    2    1    2    0    0  0.15626784899E-01  0.12228648886E-01 -0.15460892811E-01  0.10187749714E+01  0.10184643670E+01 0.  0.
     999903    2    3    3    0    0  0.72006399475E-01  0.20114739524E-01  0.10304187064E+00  0.12900884685E+00  0.20883753205E-01 0.  0.
         14    1    1    2    0    0 -0.15626784899E-01 -0.12228648886E-01  0.15460892811E-01  0.25155028650E-01  0.00000000000E+00 0.  1.
     999901    1    3    3    0    0 -0.56379614576E-01 -0.78860906375E-02 -0.11850276345E+00  0.88976612450E+00  0.88000000000E+00 0.  1.
        -11    1    4    4    0    0  0.43643144480E-01  0.13147386662E-01  0.78863879730E-01  0.91089793518E-01  0.51100000000E-03 0. -1.
         11    1    4    4    0    0  0.28363254996E-01  0.69673528617E-02  0.24177990913E-01  0.37919053330E-01  0.51100000000E-03 0.  1.
</event>
<event>
 8    1  0.1092667E+005  0.1043930E+01  0.7957747E-01            NaN
         13   -1    0    0    0    0  0.00000000000E+00  0.00000000000E+00  0.74505805969E-08  0.10566000000E+00  0.10566000000E+00 0. -1.
     999900   -1    0    0    0    0 -0.00000000000E+00 -0.00000000000E+00 -0.74505805969E-08  0.93827000000E+00  0.93827000000E+00 0. -1.
     999902    2    1    2    0    0  0.15581601569E-01 -0.18653868654E-01  0.37274086210E-02  0.10193404352E+01  0.10190438048E+01 0.  0.
     999903    2    3    3    0    0  0.96016970603E-01 -0.32359578756E-01  0.82271485340E-01  0.13208237403E+00  0.20267097676E-01 0.  0.
         14    1    1    2    0    0 -0.15581601569E-01  0.18653868654E-01 -0.37274086210E-02  0.24589564824E-01  0.00000000000E+00 0. -1.
     999901    1    3    3    0    0 -0.80435369035E-01  0.13705710101E-01 -0.78544076719E-01  0.88725806115E+00  0.88000000000E+00 0. -1.
        -11    1    4    4    0    0  0.37808614831E-01 -0.35878205526E-02  0.36161211831E-01  0.52442903942E-01  0.51100000000E-03 0. -1.
         11    1    4    4    0    0  0.58208355773E-01 -0.28771758203E-01  0.46110273508E-01  0.79639470088E-01  0.51100000000E-03 0.  1.
</event>
<event>
 7    1  0.1153995E+005  0.1043930E+01  0.7957747E-01            NaN
         13   -1    0    0    0    0  0.00000000000E+00  0.00000000000E+00  0.74505805969E-08  0.10566000000E+00  0.10566000000E+00 0. -1.
     999900   -1    0    0    0    0 -0.00000000000E+00 -0.00000000000E+00 -0.74505805969E-08  0.93827000000E+00  0.93827000000E+00 0.  1.
     999902    2    1    2    0    0 -0.56155486339E-02 -0.22601249221E-01 -0.10517418531E-01  0.10183767821E+01  0.10180561396E+01 0.  0.
         14    1    1    2    0    0  0.56155486339E-02  0.22601249221E-01  0.10517418531E-01  0.25553217906E-01  0.00000000000E+00 0. -1.
     999901    1    3    3    0    0 -0.40392317091E-01  0.98247112017E-01  0.30067443994E-02  0.88639329578E+00  0.88000000000E+00 0.  1.
        -11    1    3    3    0    0  0.92052867229E-02 -0.59477117424E-01  0.10871903042E-01  0.61161460067E-01  0.51100000000E-03 0. -1.
         11    1    3    3    0    0  0.25571481734E-01 -0.61371243813E-01 -0.24396065972E-01  0.70822026243E-01  0.51100000000E-03 0.  1.
</event>
<event>
 8    1  0.1092667E+005  0.1043930E+01  0.7957747E-01            NaN
         13   -1    0    0    0    0  0.00000000000E+00  0.00000000000E+00  0.74505805969E-08  0.10566000000E+00  0.10566000000E+00 0.  1.
     999900   -1    0    0    0    0 -0.00000000000E+00 -0.00000000000E+00 -0.74505805969E-08  0.93827000000E+00  0.93827000000E+00 0. -1.
     999902    2    1    2    0    0 -0.62286533241E-02  0.15290269371E-01 -0.19856781051E-01  0.10181059760E+01  0.10177784131E+01 0.  0.
     999903    2    3    3    0    0 -0.29446511399E-01  0.55526073697E-02 -0.12572889561E+00  0.13140264593E+00  0.23684840764E-01 0.  0.
         14    1    1    2    0    0  0.62286533241E-02 -0.15290269371E-01  0.19856781051E-01  0.25824023958E-01  0.00000000000E+00 0.  1.
     999901    1    3    3    0    0  0.23217858075E-01  0.97376620015E-02  0.10587211456E+00  0.88670333011E+00  0.88000000000E+00 0.  1.
        -11    1    4    4    0    0 -0.14457628459E-01 -0.92046623800E-02 -0.55096039405E-01  0.57702543353E-01  0.51100000000E-03 0. -1.
         11    1    4    4    0    0 -0.14988882940E-01  0.14757269750E-01 -0.70632856209E-01  0.73700102575E-01  0.51100000000E-03 0.  1.
</event>
<event>
 8    1  0.1092667E+005  0.1043930E+01  0.7957747E-01            NaN
         13   -1    0    0    0    0  0.00000000000E+00  0.00000000000E+00  0.74505805969E-08  0.10566000000E+00  0.10566000000E+00 0.  1.
     999900   -1    0    0    0    0 -0.00000000000E+00 -0.00000000000E+00 -0.74505805969E-08  0.93827000000E+00  0.93827000000E+00 0. -1.
     999902    2    1    2    0    0  0.14270216826E-01  0.17867098520E-01 -0.42834762231E-02  0.10206658545E+01  0.10204006890E+01 0.  0.
     999903    2    3    3    0    0 -0.18309615565E-01  0.12212257684E+00 -0.45156912961E-01  0.13297148813E+00  0.19826852236E-01 0.  0.
         14    1    1    2    0    0 -0.14270216826E-01 -0.17867098520E-01  0.42834762231E-02  0.23264145511E-01  0.00000000000E+00 0. -1.
     999901    1    3    3    0    0  0.32579832391E-01 -0.10425547832E+00  0.40873436738E-01  0.88769436636E+00  0.88000000000E+00 0.  1.
        -11    1    4    4    0    0 -0.12907932715E-01  0.34748653127E-01 -0.18682686263E-01  0.41513702655E-01  0.51100000000E-03 0. -1.
         11    1    4    4    0    0 -0.54016828494E-02  0.87373923717E-01 -0.26474226698E-01  0.91457785473E-01  0.51100000000E-03 0.  1.
</event>
<event>
 8    1  0.1098323E+005  0.1043930E+01  0.7957747E-01            NaN
         13   -1    0    0    0    0  0.00000000000E+00  0.00000000000E+00  0.74505805969E-08  0.10566000000E+00  0.10566000000E+00 0. -1.
     999900   -1    0    0    0    0 -0.00000000000E+00 -0.00000000000E+00 -0.74505805969E-08  0.93827000000E+00  0.93827000000E+00 0.  1.
     999902    2    1    2    0    0  0.76439565187E-02 -0.20268599666E-01 -0.10047932113E-01  0.10200509895E+01  0.10197714518E+01 0.  0.
     999903    2    3    3    0    0  0.55898965143E-01 -0.62919132606E-01 -0.10116089857E+00  0.13300578969E+00  0.19326177569E-01 0.  0.
         14    1    1    2    0    0 -0.76439565187E-02  0.20268599666E-01  0.10047932113E-01  0.23879010520E-01  0.00000000000E+00 0. -1.
     999901    1    3    3    0    0 -0.48255008624E-01  0.42650532940E-01  0.91112966455E-01  0.88704519979E+00  0.88000000000E+00 0. -1.
        -11    1    4    4    0    0  0.36495096606E-01 -0.38585808363E-01 -0.49000873157E-01  0.72264122318E-01  0.51100000000E-03 0.  1.
         11    1    4    4    0    0  0.19403868537E-01 -0.24333324243E-01 -0.52160025412E-01  0.60741667370E-01  0.51100000000E-03 0. -1.
</event>
<event>
 8    1  0.1092667E+005  0.1043930E+01  0.7957747E-01            NaN
         13   -1    0    0    0    0  0.00000000000E+00  0.00000000000E+00  0.74505805969E-08  0.10566000000E+00  0.10566000000E+00 0. -1.
     999900   -1    0    0    0    0 -0.00000000000E+00 -0.00000000000E+00 -0.74505805969E-08  0.93827000000E+00  0.93827000000E+00 0. -1.
     999902    2    1    2    0    0  0.10364200296E-01  0.20846663411E-01  0.34038029249E-02  0.10204015938E+01  0.10201302989E+01 0.  0.
     999903    2    3    3    0    0  0.12833763024E+00 -0.16576095624E-01 -0.12790142211E-01  0.13159315724E+00  0.20195470106E-01 0.  0.
         14    1    1    2    0    0 -0.10364200296E-01 -0.20846663411E-01 -0.34038029249E-02  0.23528406182E-01  0.00000000000E+00 0.  1.
     999901    1    3    3    0    0 -0.11797342995E+00  0.37422759035E-01  0.16193945136E-01  0.88880843657E+00  0.88000000000E+00 0. -1.
        -11    1    4    4    0    0  0.10540458935E+00 -0.60774729759E-02 -0.77292921193E-02  0.10586343189E+00  0.51100000000E-03 0.  1.
         11    1    4    4    0    0  0.22933040897E-01 -0.10498622648E-01 -0.50608500921E-02  0.25729725357E-01  0.51100000000E-03 0. -1.
</event>
<event>
 8    1  0.1092667E+005  0.1043930E+01  0.7957747E-01            NaN
         13   -1    0    0    0    0  0.00000000000E+00  0.00000000000E+00  0.74505805969E-08  0.10566000000E+00  0.10566000000E+00 0.  1.
     999900   -1    0    0    0    0 -0.00000000000E+00 -0.00000000000E+00 -0.74505805969E-08  0.93827000000E+00  0.93827000000E+00 0.  1.
     999902    2    1    2    0    0  0.16894816857E-01 -0.69035817510E-02 -0.15803871428E-01  0.10197875761E+01  0.10195017625E+01 0.  0.
     999903    2    3    3    0    0  0.44287575792E-02  0.12545926657E+00 -0.25412844512E-01  0.12974956650E+00  0.20724282337E-01 0.  0.
         14    1    1    2    0    0 -0.16894816857E-01  0.69035817510E-02  0.15803871428E-01  0.24142423858E-01  0.00000000000E+00 0.  1.
     999901    1    3    3    0    0  0.12466059277E-01 -0.13236284832E+00  0.96089730840E-02  0.89003800965E+00  0.88000000000E+00 0.  1.
        -11    1    4    4    0    0 -0.25334169132E-02  0.27093585518E-01  0.23081028383E-02  0.27314264354E-01  0.51100000000E-03 0. -1.
         11    1    4    4    0    0  0.69621744924E-02  0.98365681050E-01 -0.27720947351E-01  0.10243530214E+00  0.51100000000E-03 0.  1.
</event>
<event>
 7    1  0.1092667E+005  0.1043930E+01  0.7957747E-01            NaN
         13   -1    0    0    0    0  0.00000000000E+00  0.00000000000E+00  0.74505805969E-08  0.10566000000E+00  0.10566000000E+00 0.  1.
     999900   -1    0    0    0    0 -0.00000000000E+00 -0.00000000000E+00 -0.74505805969E-08  0.93827000000E+00  0.93827000000E+00 0.  1.
     999902    2    1    2    0    0  0.14644463913E-02  0.15812373608E-01  0.17233035812E-01  0.10204959802E+01  0.10202268827E+01 0.  0.
         14    1    1    2    0    0 -0.14644463913E-02 -0.15812373608E-01 -0.17233035812E-01  0.23434019836E-01  0.00000000000E+00 0. -1.
     999901    1    3    3    0    0 -0.42636981603E-01  0.10967643769E+00  0.45417385141E-01  0.88899357256E+00  0.88000000000E+00 0. -1.
        -11    1    3    3    0    0 -0.16468336165E-01 -0.32899525126E-01  0.89744607957E-02  0.37873300848E-01  0.51100000000E-03 0. -1.
         11    1    3    3    0    0  0.60569764159E-01 -0.60964538957E-01 -0.37158810125E-01  0.93629106754E-01  0.51100000000E-03 0.  1.
</event>
<event>
 8    1  0.1092667E+005  0.1043930E+01  0.7957747E-01            NaN
         13   -1    0    0    0    0  0.00000000000E+00  0.00000000000E+00  0.74505805969E-08  0.10566000000E+00  0.10566000000E+00 0. -1.
     999900   -1    0    0    0    0 -0.00000000000E+00 -0.00000000000E+00 -0.74505805969E-08  0.93827000000E+00  0.93827000000E+00 0. -1.
     999902    2    1    2    0    0 -0.80511716410E-03  0.14807302574E-01 -0.18486509544E-01  0.10202307287E+01  0.10199554326E+01 0.  0.
     999903    2    3    3    0    0 -0.35611242813E-01  0.75495048586E-01 -0.10214395405E+00  0.13349906870E+00  0.20517090884E-01 0.  0.
         14    1    1    2    0    0  0.80511716410E-03 -0.14807302574E-01  0.18486509544E-01  0.23699271261E-01  0.00000000000E+00 0. -1.
     999901    1    3    3    0    0  0.34806125649E-01 -0.60687746012E-01  0.83657444507E-01  0.88673166004E+00  0.88000000000E+00 0.  1.
        -11    1    4    4    0    0 -0.22897406433E-01  0.45977904033E-01 -0.46753695835E-01  0.69458103025E-01  0.51100000000E-03 0. -1.
         11    1    4    4    0    0 -0.12713836380E-01  0.29517144554E-01 -0.55390258216E-01  0.64040965673E-01  0.51100000000E-03 0.  1.
</event>
<event>
 8    1  0.1092667E+005  0.1043930E+01  0.7957747E-01            NaN
         13   -1    0    0    0    0  0.00000000000E+00  0.00000000000E+00  0.74505805969E-08  0.10566000000E+00  0.10566000000E+00 0. -1.
     999900   -1    0    0    0    0 -0.00000000000E+00 -0.00000000000E+00 -0.74505805969E-08  0.93827000000E+00  0.93827000000E+00 0.  1.
     999902    2    1    2    0    0  0.39455027603E-02 -0.12074917402E-01  0.20060577112E-01  0.10201855822E+01  0.10199092238E+01 0.  0.
     999903    2    3    3    0    0  0.97829126931E-02 -0.25500571489E-01 -0.12338173226E+00  0.12845130583E+00  0.23036961349E-01 0.  0.
         14    1    1    2    0    0 -0.39455027603E-02  0.12074917402E-01 -0.20060577112E-01  0.23744417793E-01  0.00000000000E+00 0. -1.
     999901    1    3    3    0    0 -0.58374099328E-02  0.13425654087E-01  0.14344230937E+00  0.89173427637E+00  0.88000000000E+00 0. -1.
        -11    1    4    4    0    0  0.15618237501E-01 -0.85899560512E-02 -0.60832906840E-01  0.63392589182E-01  0.51100000000E-03 0.  1.
         11    1    4    4    0    0 -0.58353248079E-02 -0.16910615438E-01 -0.62548825418E-01  0.65058716651E-01  0.51100000000E-03 0. -1.
</event>
<event>
 8    1  0.1092667E+005  0.1043930E+01  0.7957747E-01            NaN
         13   -1    0    0    0    0  0.00000000000E+00  0.00000000000E+00  0.74505805969E-08  0.10566000000E+00  0.10566000000E+00 0.  1.
     999900   -1    0    0    0    0 -0.00000000000E+00 -0.00000000000E+00 -0.74505805969E-08  0.93827000000E+00  0.93827000000E+00 0.  1.
     999902    2    1    2    0    0 -0.20608740353E-01 -0.12166771809E-01  0.34168495530E-02  0.10197551086E+01  0.10194685165E+01 0.  0.
     999903    2    3    3    0    0 -0.83350931289E-01 -0.90401577437E-01 -0.46467620144E-01  0.13265549316E+00  0.17844248173E-01 0.  0.
         14    1    1    2    0    0  0.20608740353E-01  0.12166771809E-01 -0.34168495530E-02  0.24174891439E-01  0.00000000000E+00 0. -1.
     999901    1    3    3    0    0  0.62742190936E-01  0.78234805628E-01  0.49884469697E-01  0.88709961541E+00  0.88000000000E+00 0. -1.
        -11    1    4    4    0    0 -0.58614259660E-01 -0.52211276637E-01 -0.25349926707E-01  0.82489567513E-01  0.51100000000E-03 0.  1.
         11    1    4    4    0    0 -0.24736671629E-01 -0.38190300800E-01 -0.21117693437E-01  0.50165925643E-01  0.51100000000E-03 0. -1.
</event>
<event>
 8    1  0.1092667E+005  0.1043930E+01  0.7957747E-01            NaN
         13   -1    0    0    0    0  0.00000000000E+00  0.00000000000E+00  0.74505805969E-08  0.10566000000E+00  0.10566000000E+00 0.  1.
     999900   -1    0    0    0    0 -0.00000000000E+00 -0.00000000000E+00 -0.74505805969E-08  0.93827000000E+00  0.93827000000E+00 0. -1.
     999902    2    1    2    0    0  0.17145615520E-01 -0.49978191633E-02 -0.13502601542E-01  0.10215409273E+01  0.10212955476E+01 0.  0.
     999903    2    3    3    0    0  0.11885096388E+00  0.44132243971E-03 -0.59778844036E-01  0.13445860149E+00  0.19489970222E-01 0.  0.
         14    1    1    2    0    0 -0.17145615520E-01  0.49978191633E-02  0.13502601542E-01  0.22389072700E-01  0.00000000000E+00 0.  1.
     999901    1    3    3    0    0 -0.10170534836E+00 -0.54391416030E-02  0.46276242494E-01  0.88708232581E+00  0.88000000000E+00 0.  1.
        -11    1    4    4    0    0  0.40907279289E-01  0.10895925139E-02 -0.10537400274E-01  0.42259799293E-01  0.51100000000E-03 0.  1.
         11    1    4    4    0    0  0.77943684592E-01 -0.64827007419E-03 -0.49241443761E-01  0.92198802197E-01  0.51100000000E-03 0. -1.
</event>
<event>
 8    1  0.1092667E+005  0.1043930E+01  0.7957747E-01            NaN
         13   -1    0    0    0    0  0.00000000000E+00  0.00000000000E+00  0.74505805969E-08  0.10566000000E+00  0.10566000000E+00 0.  1.
     999900   -1    0    0    0    0 -0.00000000000E+00 -0.00000000000E+00 -0.74505805969E-08  0.93827000000E+00  0.93827000000E+00 0.  1.
     999902    2    1    2    0    0  0.19131699206E-01 -0.15427970342E-01 -0.43216555550E-03  0.10193488904E+01  0.10190524664E+01 0.  0.
     999903    2    3    3    0    0  0.37902994246E-01 -0.71731710028E-02 -0.12317030918E+00  0.13059405628E+00  0.19894499685E-01 0.  0.
         14    1    1    2    0    0 -0.19131699206E-01  0.15427970342E-01  0.43216555550E-03  0.24581109626E-01  0.00000000000E+00 0. -1.
     999901    1    3    3    0    0 -0.18771295040E-01 -0.82547993392E-02  0.12273814362E+00  0.88875483410E+00  0.88000000000E+00 0. -1.
        -11    1    4    4    0    0  0.30447021038E-01 -0.29663283070E-02 -0.11401761036E+00  0.11805124644E+00  0.51100000000E-03 0.  1.
         11    1    4    4    0    0  0.74559732083E-02 -0.42068426958E-02 -0.91526988180E-02  0.12542809837E-01  0.51100000000E-03 0. -1.
</event>
<event>
 8    1  0.1092667E+005  0.1043930E+01  0.7957747E-01            NaN
         13   -1    0    0    0    0  0.00000000000E+00  0.00000000000E+00  0.74505805969E-08  0.10566000000E+00  0.10566000000E+00 0. -1.
     999900   -1    0    0    0    0 -0.00000000000E+00 -0.00000000000E+00 -0.74505805969E-08  0.93827000000E+00  0.93827000000E+00 0. -1.
     999902    2    1    2    0    0  0.16372741852E-01  0.95233533824E-02  0.10536238575E-01  0.10222557466E+01  0.10220259479E+01 0.  0.
     999903    2    3    3    0    0  0.11183848430E+00  0.29674157962E-01  0.67855342079E-01  0.13500987174E+00  0.15326963050E-01 0.  0.
         14    1    1    2    0    0 -0.16372741852E-01 -0.95233533824E-02 -0.10536238575E-01  0.21674253360E-01  0.00000000000E+00 0.  1.
     999901    1    3    3    0    0 -0.95465742449E-01 -0.20150804580E-01 -0.57319103504E-01  0.88724587490E+00  0.88000000000E+00 0. -1.
        -11    1    4    4    0    0  0.55115837555E-01  0.10598582575E-01  0.40462534947E-01  0.69192220353E-01  0.51100000000E-03 0. -1.
         11    1    4    4    0    0  0.56722646746E-01  0.19075575387E-01  0.27392807132E-01  0.65817651384E-01  0.51100000000E-03 0.  1.
</event>
<event>
 8    1  0.1092667E+005  0.1043930E+01  0.7957747E-01            NaN
         13   -1    0    0    0    0  0.00000000000E+00  0.00000000000E+00  0.74505805969E-08  0.10566000000E+00  0.10566000000E+00 0. -1.
     999900   -1    0    0    0    0 -0.00000000000E+00 -0.00000000000E+00 -0.74505805969E-08  0.93827000000E+00  0.93827000000E+00 0.  1.
     999902    2    1    2    0    0  0.91750921047E-02 -0.14596568968E-01  0.17244045708E-01  0.10195455941E+01  0.10192539522E+01 0.  0.
     999903    2    3    3    0    0 -0.99113740897E-02  0.14187710192E-02  0.12990895126E+00  0.13201296635E+00  0.21232979512E-01 0.  0.
         14    1    1    2    0    0 -0.91750921047E-02  0.14596568968E-01 -0.17244045708E-01  0.24384405942E-01  0.00000000000E+00 0.  1.
     999901    1    3    3    0    0  0.19086466194E-01 -0.16015339987E-01 -0.11266490555E+00  0.88753262771E+00  0.88000000000E+00 0.  1.
        -11    1    4    4    0    0 -0.12009472671E-01 -0.32557031360E-02  0.12161265749E+00  0.12224862624E+00  0.51100000000E-03 0. -1.
         11    1    4    4    0    0  0.20980985810E-02  0.46744741552E-02  0.82962937751E-02  0.97643401050E-02  0.51100000000E-03 0.  1.
</event>
<event>
 8    1  0.1092667E+005  0.1043930E+01  0.7957747E-01            NaN
         13   -1    0    0    0    0  0.00000000000E+00  0.00000000000E+00  0.74505805969E-08  0.10566000000E+00  0.10566000000E+00 0. -1.
     999900   -1    0    0    0    0 -0.00000000000E+00 -0.00000000000E+00 -0.74505805969E-08  0.93827000000E+00  0.93827000000E+00 0. -1.
     999902    2    1    2    0    0  0.16353142844E-01 -0.80028581394E-02  0.15102642616E-01  0.10202749618E+01  0.10200007043E+01 0.  0.
     999903    2    3    3    0    0  0.93228168711E-02 -0.99350211793E-01 -0.81336444138E-01  0.13027818540E+00  0.19985218275E-01 0.  0.
         14    1    1    2    0    0 -0.16353142844E-01  0.80028581394E-02 -0.15102642616E-01  0.23655038221E-01  0.00000000000E+00 0.  1.
     999901    1    3    3    0    0  0.70303259728E-02  0.91347353654E-01  0.96439086754E-01  0.88999677637E+00  0.88000000000E+00 0.  1.
        -11    1    4    4    0    0  0.58153478817E-03 -0.27592929312E-01 -0.34322308343E-01  0.44045316456E-01  0.51100000000E-03 0. -1.
         11    1    4    4    0    0  0.87412820829E-02 -0.71757282481E-01 -0.47014135795E-01  0.86232868948E-01  0.51100000000E-03 0.  1.
</event>
<event>
 7    1  0.1359913E+005  0.1043930E+01  0.7957747E-01            NaN
         13   -1    0    0    0    0  0.00000000000E+00  0.00000000000E+00  0.74505805969E-08  0.10566000000E+00  0.10566000000E+00 0. -1.
     999900   -1    0    0    0    0 -0.00000000000E+00 -0.00000000000E+00 -0.74505805969E-08  0.93827000000E+00  0.93827000000E+00 0. -1.
     999903    2    1    2    0    0  0.46105255491E-02 -0.20288766496E-01  0.90742959502E-01  0.95302896265E-01  0.20382991578E-01 0.  0.
         14    1    1    2    0    0 -0.28448920496E-01 -0.52550373525E-01 -0.17490199768E-01  0.62263873337E-01  0.00000000000E+00 0.  1.
     999901    1    1    2    0    0  0.23838394946E-01  0.72839140021E-01 -0.73252759733E-01  0.88636323040E+00  0.88000000000E+00 0. -1.
        -11    1    3    3    0    0  0.11296436741E-01 -0.78648354163E-02  0.58583548580E-01  0.60181046886E-01  0.51100000000E-03 0.  1.
         11    1    3    3    0    0 -0.66859111917E-02 -0.12423931080E-01  0.32159410922E-01  0.35121849379E-01  0.51100000000E-03 0. -1.
</event>
<event>
 8    1  0.1092667E+005  0.1043930E+01  0.7957747E-01            NaN
         13   -1    0    0    0    0  0.00000000000E+00  0.00000000000E+00  0.74505805969E-08  0.10566000000E+00  0.10566000000E+00 0.  1.
     999900   -1    0    0    0    0 -0.00000000000E+00 -0.00000000000E+00 -0.74505805969E-08  0.93827000000E+00  0.93827000000E+00 0.  1.
     999902    2    1    2    0    0 -0.11018118034E-01 -0.16434644701E-01 -0.90630138395E-02  0.10221668502E+01  0.10219351422E+01 0.  0.
     999903    2    3    3    0    0  0.77363290362E-01  0.73764405444E-01 -0.72441457813E-01  0.13089586490E+00  0.21440532430E-01 0.  0.
         14    1    1    2    0    0  0.11018118034E-01  0.16434644701E-01  0.90630138395E-02  0.21763149848E-01  0.00000000000E+00 0.  1.
     999901    1    3    3    0    0 -0.88381408396E-01 -0.90199050145E-01  0.63378443973E-01  0.89127098526E+00  0.88000000000E+00 0.  1.
        -11    1    4    4    0    0  0.55780826991E-01  0.61497772351E-01 -0.47283679723E-01  0.95548334120E-01  0.51100000000E-03 0. -1.
         11    1    4    4    0    0  0.21582463371E-01  0.12266633093E-01 -0.25157778090E-01  0.35347530777E-01  0.51100000000E-03 0.  1.
</event>
<event>
 8    1  0.1092667E+005  0.1043930E+01  0.7957747E-01            NaN
         13   -1    0    0    0    0  0.00000000000E+00  0.00000000000E+00  0.74505805969E-08  0.10566000000E+00  0.10566000000E+00 0. -1.
     999900   -1    0    0    0    0 -0.00000000000E+00 -0.00000000000E+00 -0.74505805969E-08  0.93827000000E+00  0.93827000000E+00 0. -1.
     999902    2    1    2    0    0 -0.28510063885E-02 -0.23088305095E-01 -0.10446813078E-01  0.10184283535E+01  0.10181090203E+01 0.  0.
     999903    2    3    3    0    0 -0.30210197309E-01  0.40478133196E-01 -0.11734000211E+00  0.12926280579E+00  0.19724643952E-01 0.  0.
         14    1    1    2    0    0  0.28510063885E-02  0.23088305095E-01  0.10446813078E-01  0.25501646478E-01  0.00000000000E+00 0. -1.
     999901    1    3    3    0    0  0.27359190920E-01 -0.63566438291E-01  0.10689318903E+00  0.88916554773E+00  0.88000000000E+00 0.  1.
        -11    1    4    4    0    0 -0.76974990143E-02  0.12009572789E-01 -0.57752068443E-01  0.59489863507E-01  0.51100000000E-03 0. -1.
         11    1    4    4    0    0 -0.22512698294E-01  0.28468560407E-01 -0.59587933663E-01  0.69772942287E-01  0.51100000000E-03 0.  1.
</event>
<event>
 8    1  0.1092667E+005  0.1043930E+01  0.7957747E-01            NaN
         13   -1    0    0    0    0  0.00000000000E+00  0.00000000000E+00  0.74505805969E-08  0.10566000000E+00  0.10566000000E+00 0.  1.
     999900   -1    0    0    0    0 -0.00000000000E+00 -0.00000000000E+00 -0.74505805969E-08  0.93827000000E+00  0.93827000000E+00 0. -1.
     999902    2    1    2    0    0 -0.88670101548E-02 -0.32922399902E-01 -0.30753298689E-02  0.10096960119E+01  0.10091154892E+01 0.  0.
     999903    2    3    3    0    0 -0.47534015242E-01 -0.11395199512E+00 -0.89162474316E-02  0.12510850983E+00  0.18113529930E-01 0.  0.
         14    1    1    2    0    0  0.88670101548E-02  0.32922399902E-01  0.30753298689E-02  0.34233988056E-01  0.00000000000E+00 0.  1.
     999901    1    3    3    0    0  0.38667005087E-01  0.81029595216E-01  0.58409175627E-02  0.88458750212E+00  0.88000000000E+00 0.  1.
        -11    1    4    4    0    0 -0.36646706139E-01 -0.79351755645E-01  0.13161985369E-02  0.87416678583E-01  0.51100000000E-03 0.  1.
         11    1    4    4    0    0 -0.10887309103E-01 -0.34600239473E-01 -0.10232445969E-01  0.37691831245E-01  0.51100000000E-03 0. -1.
</event>
<event>
 8    1  0.1092667E+005  0.1043930E+01  0.7957747E-01            NaN
         13   -1    0    0    0    0  0.00000000000E+00  0.00000000000E+00  0.74505805969E-08  0.10566000000E+00  0.10566000000E+00 0. -1.
     999900   -1    0    0    0    0 -0.00000000000E+00 -0.00000000000E+00 -0.74505805969E-08  0.93827000000E+00  0.93827000000E+00 0. -1.
     999902    2    1    2    0    0  0.49093154793E-02  0.11326262999E-01  0.18804311902E-01  0.10214358284E+01  0.10211881138E+01 0.  0.
     999903    2    3    3    0    0 -0.41787821767E-01  0.11532165848E+00  0.49749501004E-01  0.13354322807E+00  0.17705195561E-01 0.  0.
         14    1    1    2    0    0 -0.49093154793E-02 -0.11326262999E-01 -0.18804311902E-01  0.22494171647E-01  0.00000000000E+00 0.  1.
     999901    1    3    3    0    0  0.46697137247E-01 -0.10399539548E+00 -0.30945189102E-01  0.88789260028E+00  0.88000000000E+00 0. -1.
        -11    1    4    4    0    0 -0.30798091032E-01  0.10252946309E+00  0.43223336563E-01  0.11545272260E+00  0.51100000000E-03 0.  1.
         11    1    4    4    0    0 -0.10989730736E-01  0.12792195397E-01  0.65261644408E-02  0.18090505466E-01  0.51100000000E-03 0. -1.
</event>
<event>
 8    1  0.1092667E+005  0.1043930E+01  0.7957747E-01            NaN
         13   -1    0    0    0    0  0.00000000000E+00  0.00000000000E+00  0.74505805969E-08  0.10566000000E+00  0.10566000000E+00 0. -1.
     999900   -1    0    0    0    0 -0.00000000000E+00 -0.00000000000E+00 -0.74505805969E-08  0.93827000000E+00  0.93827000000E+00 0. -1.
     999902    2    1    2    0    0 -0.13162991467E-01 -0.18851876224E-01 -0.12954790981E-01  0.10175390131E+01  0.10171967159E+01 0.  0.
     999903    2    3    3    0    0  0.94429558408E-01 -0.47757582523E-01  0.68112644049E-01  0.12681816698E+00  0.15677595709E-01 0.  0.
         14    1    1    2    0    0  0.13162991467E-01  0.18851876224E-01  0.12954790981E-01  0.26390986925E-01  0.00000000000E+00 0. -1.
     999901    1    3    3    0    0 -0.10759254988E+00  0.28905706300E-01 -0.81067435030E-01  0.89072084609E+00  0.88000000000E+00 0. -1.
        -11    1    4    4    0    0  0.67459732206E-01 -0.36873128014E-01  0.41369426684E-01  0.87304831619E-01  0.51100000000E-03 0.  1.
         11    1    4    4    0    0  0.26969826202E-01 -0.10884454509E-01  0.26743217365E-01  0.39513335361E-01  0.51100000000E-03 0. -1.
</event>
<event>
 8    1  0.1092667E+005  0.1043930E+01  0.7957747E-01            NaN
         13   -1    0    0    0    0  0.00000000000E+00  0.00000000000E+00  0.74505805969E-08  0.10566000000E+00  0.10566000000E+00 0. -1.
     999900   -1    0    0    0    0 -0.00000000000E+00 -0.00000000000E+00 -0.74505805969E-08  0.93827000000E+00  0.93827000000E+00 0.  1.
     999902    2    1    2    0    0  0.22428673827E-02  0.21830635376E-01 -0.94902853966E-02  0.10200203239E+01  0.10197400593E+01 0.  0.
     999903    2    3    3    0    0 -0.25001491435E-01  0.98883943557E-01 -0.83599637205E-01  0.13313156907E+00  0.18221044847E-01 0.  0.
         14    1    1    2    0    0 -0.22428673827E-02 -0.21830635376E-01  0.94902853966E-02  0.23909676115E-01  0.00000000000E+00 0. -1.
     999901    1    3    3    0    0  0.27244358818E-01 -0.77053308181E-01  0.74109351809E-01  0.88688875481E+00  0.88000000000E+00 0. -1.
        -11    1    4    4    0    0  0.18193308720E-02  0.20063941399E-01 -0.19649296348E-01  0.28146539347E-01  0.51100000000E-03 0. -1.
         11    1    4    4    0    0 -0.26820822307E-01  0.78820002158E-01 -0.63950340858E-01  0.10498502972E+00  0.51100000000E-03 0.  1.
</event>
<event>
 8    1  0.1092667E+005  0.1043930E+01  0.7957747E-01            NaN
         13   -1    0    0    0    0  0.00000000000E+00  0.00000000000E+00  0.74505805969E-08  0.10566000000E+00  0.10566000000E+00 0.  1.
     999900   -1    0    0    0    0 -0.00000000000E+00 -0.00000000000E+00 -0.74505805969E-08  0.93827000000E+00  0.93827000000E+00 0.  1.
     999902    2    1    2    0    0  0.21334611204E-01 -0.42271146759E-02 -0.92166343175E-02  0.10203083895E+01  0.10200349157E+01 0.  0.
     999903    2    3    3    0    0  0.59389795471E-01  0.39255750494E-01  0.10764695701E+00  0.13070395181E+00  0.20675925889E-01 0.  0.
         14    1    1    2    0    0 -0.21334611204E-01  0.42271146759E-02  0.92166343175E-02  0.23621610484E-01  0.00000000000E+00 0.  1.
     999901    1    3    3    0    0 -0.38055184267E-01 -0.43482865170E-01 -0.11686359133E+00  0.88960443771E+00  0.88000000000E+00 0.  1.
        -11    1    4    4    0    0  0.42742402509E-01  0.22843677009E-01  0.86619963698E-01  0.99257371432E-01  0.51100000000E-03 0. -1.
         11    1    4    4    0    0  0.16647392962E-01  0.16412073485E-01  0.21026993313E-01  0.31446580376E-01  0.51100000000E-03 0.  1.
</event>
<event>
 8    1  0.1092667E+005  0.1043930E+01  0.7957747E-01            NaN
         13   -1    0    0    0    0  0.00000000000E+00  0.00000000000E+00  0.74505805969E-08  0.10566000000E+00  0.10566000000E+00 0.  1.
     999900   -1    0    0    0    0 -0.00000000000E+00 -0.00000000000E+00 -0.74505805969E-08  0.93827000000E+00  0.93827000000E+00 0.  1.
     999902    2    1    2    0    0  0.16588049164E-01 -0.14114684780E-02 -0.16858462294E-01  0.10202368919E+01  0.10199617406E+01 0.  0.
     999903    2    3    3    0    0 -0.99371250049E-01 -0.30921973249E-01 -0.75618567901E-01  0.13019746643E+00  0.20059877541E-01 0.  0.
         14    1    1    2    0    0 -0.16588049164E-01  0.14114684780E-02  0.16858462294E-01  0.23693108054E-01  0.00000000000E+00 0.  1.
     999901    1    3    3    0    0  0.11595929921E+00  0.29510504771E-01  0.58760105606E-01  0.89003942552E+00  0.88000000000E+00 0.  1.
        -11    1    4    4    0    0 -0.79329225879E-01 -0.29066379325E-01 -0.68744243114E-01  0.10892204813E+00  0.51100000000E-03 0.  1.
         11    1    4    4    0    0 -0.20042024170E-01 -0.18555939241E-02 -0.68743247864E-02  0.21275418302E-01  0.51100000000E-03 0. -1.
</event>
<event>
 8    1  0.1092667E+005  0.1043930E+01  0.7957747E-01            NaN
         13   -1    0    0    0    0  0.00000000000E+00  0.00000000000E+00  0.74505805969E-08  0.10566000000E+00  0.10566000000E+00 0. -1.
     999900   -1    0    0    0    0 -0.00000000000E+00 -0.00000000000E+00 -0.74505805969E-08  0.93827000000E+00  0.93827000000E+00 0. -1.
     999902    2    1    2    0    0  0.20054802434E-01 -0.11292297926E-01 -0.53345128808E-02  0.10203044181E+01  0.10200308512E+01 0.  0.
     999903    2    3    3    0    0  0.10427304514E+00  0.65101391777E-01  0.41557689910E-01  0.13175076922E+00  0.22807113918E-01 0.  0.
         14    1    1    2    0    0 -0.20054802434E-01  0.11292297926E-01  0.53345128808E-02  0.23625581914E-01  0.00000000000E+00 0.  1.
     999901    1    3    3    0    0 -0.84218242706E-01 -0.76393689703E-01 -0.46892202791E-01  0.88855364887E+00  0.88000000000E+00 0. -1.
        -11    1    4    4    0    0  0.63136210813E-01  0.36714803260E-01  0.13000710670E-01  0.74185156825E-01  0.51100000000E-03 0.  1.
         11    1    4    4    0    0  0.41136834327E-01  0.28386588517E-01  0.28556979239E-01  0.57565612394E-01  0.51100000000E-03 0. -1.
</event>
<event>
 8    1  0.1092667E+005  0.1043930E+01  0.7957747E-01            NaN
         13   -1    0    0    0    0  0.00000000000E+00  0.00000000000E+00  0.74505805969E-08  0.10566000000E+00  0.10566000000E+00 0. -1.
     999900   -1    0    0    0    0 -0.00000000000E+00 -0.00000000000E+00 -0.74505805969E-08  0.93827000000E+00  0.93827000000E+00 0.  1.
     999902    2    1    2    0    0  0.11301359427E-01 -0.11969947852E-01  0.16158175837E-01  0.10208629884E+01  0.10206023487E+01 0.  0.
     999903    2    3    3    0    0  0.51102406079E-01 -0.10336947406E+00  0.65085092410E-01  0.13388393576E+00  0.19802396980E-01 0.  0.
         14    1    1    2    0    0 -0.11301359427E-01  0.11969947852E-01 -0.16158175837E-01  0.23067011572E-01  0.00000000000E+00 0.  1.
     999901    1    3    3    0    0 -0.39801046653E-01  0.91399526209E-01 -0.48926916573E-01  0.88697905267E+00  0.88000000000E+00 0.  1.
        -11    1    4    4    0    0  0.12082615492E-01 -0.24380899841E-01  0.25507783064E-01  0.37300482463E-01  0.51100000000E-03 0. -1.
         11    1    4    4    0    0  0.39019790588E-01 -0.78988574220E-01  0.39577309346E-01  0.96583453297E-01  0.51100000000E-03 0.  1.
</event>
<event>
 8    1  0.1092667E+005  0.1043930E+01  0.7957747E-01            NaN
         13   -1    0    0    0    0  0.00000000000E+00  0.00000000000E+00  0.74505805969E-08  0.10566000000E+00  0.10566000000E+00 0. -1.
     999900   -1    0    0    0    0 -0.00000000000E+00 -0.00000000000E+00 -0.74505805969E-08  0.93827000000E+00  0.93827000000E+00 0.  1.
     999902    2    1    2    0    0 -0.87158487104E-02 -0.64538598753E-02 -0.20459375290E-01  0.10207739130E+01  0.10205112332E+01 0.  0.
     999903    2    3    3    0    0 -0.80881493257E-01 -0.40942125230E-01 -0.96558812760E-01  0.13387569730E+00  0.19519847232E-01 0.  0.
         14    1    1    2    0    0  0.87158487104E-02  0.64538598753E-02  0.20459375290E-01  0.23156086960E-01  0.00000000000E+00 0. -1.
     999901    1    3    3    0    0  0.72165644547E-01  0.34488265355E-01  0.76099437470E-01  0.88689821574E+00  0.88000000000E+00 0. -1.
        -11    1    4    4    0    0 -0.22511891911E-01 -0.16734444803E-01 -0.41315570238E-01  0.49940608580E-01  0.51100000000E-03 0.  1.
         11    1    4    4    0    0 -0.58369601346E-01 -0.24207680427E-01 -0.55243242523E-01  0.83935088720E-01  0.51100000000E-03 0. -1.
</event>
<event>
 8    1  0.1092667E+005  0.1043930E+01  0.7957747E-01            NaN
         13   -1    0    0    0    0  0.00000000000E+00  0.00000000000E+00  0.74505805969E-08  0.10566000000E+00  0.10566000000E+00 0. -1.
     999900   -1    0    0    0    0 -0.00000000000E+00 -0.00000000000E+00 -0.74505805969E-08  0.93827000000E+00  0.93827000000E+00 0.  1.
     999902    2    1    2    0    0  0.13595741915E-02 -0.24043364224E-01  0.56451359970E-02  0.10191954217E+01  0.10188952391E+01 0.  0.
     999903    2    3    3    0    0  0.87954506430E-01 -0.87370025900E-01  0.40792645592E-01  0.13198389345E+00  0.19651757362E-01 0.  0.
         14    1    1    2    0    0 -0.13595741915E-02  0.24043364224E-01 -0.56451359970E-02  0.24734578339E-01  0.00000000000E+00 0.  1.
     999901    1    3    3    0    0 -0.86594932239E-01  0.63326661677E-01 -0.35147509595E-01  0.88721152822E+00  0.88000000000E+00 0.  1.
        -11    1    4    4    0    0  0.44276029238E-01 -0.33661124435E-01  0.11421342313E-01  0.56781566063E-01  0.51100000000E-03 0.  1.
         11    1    4    4    0    0  0.43678477192E-01 -0.53708901465E-01  0.29371303279E-01  0.75202327382E-01  0.51100000000E-03 0. -1.
</event>
<event>
 8    1  0.1092667E+005  0.1043930E+01  0.7957747E-01            NaN
         13   -1    0    0    0    0  0.00000000000E+00  0.00000000000E+00  0.74505805969E-08  0.10566000000E+00  0.10566000000E+00 0. -1.
     999900   -1    0    0    0    0 -0.00000000000E+00 -0.00000000000E+00 -0.74505805969E-08  0.93827000000E+00  0.93827000000E+00 0. -1.
     999902    2    1    2    0    0  0.68054857746E-02  0.22646996860E-01  0.41216619186E-02  0.10199260586E+01  0.10196435534E+01 0.  0.
     999903    2    3    3    0    0 -0.48737702721E-01  0.12147363405E+00  0.65395388603E-02  0.13265068080E+00  0.20548238679E-01 0.  0.
         14    1    1    2    0    0 -0.68054857746E-02 -0.22646996860E-01 -0.41216619186E-02  0.24003941350E-01  0.00000000000E+00 0. -1.
     999901    1    3    3    0    0  0.55543188496E-01 -0.98826637190E-01 -0.24178769416E-02  0.88727537785E+00  0.88000000000E+00 0.  1.
        -11    1    4    4    0    0 -0.18570717329E-01  0.28579483583E-01  0.78149540511E-02  0.34971317558E-01  0.51100000000E-03 0. -1.
         11    1    4    4    0    0 -0.30166985392E-01  0.92894150467E-01 -0.12754151908E-02  0.97679363243E-01  0.51100000000E-03 0.  1.
</event>
<event>
 8    1  0.1092667E+005  0.1043930E+01  0.7957747E-01            NaN
         13   -1    0    0    0    0  0.00000000000E+00  0.00000000000E+00  0.74505805969E-08  0.10566000000E+00  0.10566000000E+00 0. -1.
     999900   -1    0    0    0    0 -0.00000000000E+00 -0.00000000000E+00 -0.74505805969E-08  0.93827000000E+00  0.93827000000E+00 0. -1.
     999902    2    1    2    0    0  0.17851603218E-01  0.91383672312E-02 -0.11869535156E-01  0.10206260227E+01  0.10203599379E+01 0.  0.
     999903    2    3    3    0    0  0.65241587099E-01 -0.91644125624E-01 -0.64803251167E-01  0.13202887003E+00  0.24021879859E-01 0.  0.
         14    1    1    2    0    0 -0.17851603218E-01 -0.91383672312E-02  0.11869535156E-01  0.23303977298E-01  0.00000000000E+00 0. -1.
     999901    1    3    3    0    0 -0.47389983881E-01  0.10078249286E+00  0.52933716011E-01  0.88859715267E+00  0.88000000000E+00 0.  1.
        -11    1    4    4    0    0  0.38030383035E-01 -0.33688156312E-01 -0.24868658835E-01  0.56567775480E-01  0.51100000000E-03 0. -1.
         11    1    4    4    0    0  0.27211204064E-01 -0.57955969313E-01 -0.39934592332E-01  0.75461094554E-01  0.51100000000E-03 0.  1.
</event>
<event>
 8    1  0.1092667E+005  0.1043930E+01  0.7957747E-01            NaN
         13   -1    0    0    0    0  0.00000000000E+00  0.00000000000E+00  0.74505805969E-08  0.10566000000E+00  0.10566000000E+00 0.  1.
     999900   -1    0    0    0    0 -0.00000000000E+00 -0.00000000000E+00 -0.74505805969E-08  0.93827000000E+00  0.93827000000E+00 0. -1.
     999902    2    1    2    0    0 -0.24494879034E-01  0.45723713149E-02  0.95565773216E-02  0.10172422903E+01  0.10168921493E+01 0.  0.
     999903    2    3    3    0    0 -0.63048587195E-01  0.97923940263E-01 -0.52504861153E-01  0.12929379744E+00  0.19897316128E-01 0.  0.
         14    1    1    2    0    0  0.24494879034E-01 -0.45723713149E-02 -0.95565773216E-02  0.26687709689E-01  0.00000000000E+00 0. -1.
     999901    1    3    3    0    0  0.38553708160E-01 -0.93351568948E-01  0.62061438475E-01  0.88794849287E+00  0.88000000000E+00 0.  1.
        -11    1    4    4    0    0 -0.42150696786E-01  0.59596358664E-01 -0.42627890897E-01  0.84532865850E-01  0.51100000000E-03 0.  1.
         11    1    4    4    0    0 -0.20897890408E-01  0.38327581599E-01 -0.98769702564E-02  0.44760931594E-01  0.51100000000E-03 0. -1.
</event>
<event>
 8    1  0.1092667E+005  0.1043930E+01  0.7957747E-01            NaN
         13   -1    0    0    0    0  0.00000000000E+00  0.00000000000E+00  0.74505805969E-08  0.10566000000E+00  0.10566000000E+00 0. -1.
     999900   -1    0    0    0    0 -0.00000000000E+00 -0.00000000000E+00 -0.74505805969E-08  0.93827000000E+00  0.93827000000E+00 0. -1.
     999902    2    1    2    0    0  0.13632754402E-01  0.82913694869E-02  0.16320371371E-01  0.10211055981E+01  0.10208504734E+01 0.  0.
     999903    2    3    3    0    0 -0.88664268539E-01  0.62908506881E-01  0.72365970570E-01  0.13173007460E+00  0.17237926352E-01 0.  0.
         14    1    1    2    0    0 -0.13632754402E-01 -0.82913694869E-02 -0.16320371371E-01  0.22824401904E-01  0.00000000000E+00 0.  1.
     999901    1    3    3    0    0  0.10229702294E+00 -0.54617137394E-01 -0.56045599199E-01  0.88937552349E+00  0.88000000000E+00 0. -1.
        -11    1    4    4    0    0 -0.76903999679E-01  0.60499525177E-01  0.61818047404E-01  0.11574173758E+00  0.51100000000E-03 0. -1.
         11    1    4    4    0    0 -0.11760268860E-01  0.24089817041E-02  0.10547923166E-01  0.15988337018E-01  0.51100000000E-03 0.  1.
</event>
<event>
 7    1  0.1092667E+005  0.1043930E+01  0.7957747E-01            NaN
         13   -1    0    0    0    0  0.00000000000E+00  0.00000000000E+00  0.74505805969E-08  0.10566000000E+00  0.10566000000E+00 0. -1.
     999900   -1    0    0    0    0 -0.00000000000E+00 -0.00000000000E+00 -0.74505805969E-08  0.93827000000E+00  0.93827000000E+00 0.  1.
     999903    2    1    2    0    0  0.67571870728E-01  0.58469725354E-01 -0.12955621686E-01  0.92402554266E-01  0.19639689533E-01 0.  0.
         14    1    1    2    0    0  0.20762273810E-01 -0.61050616482E-01  0.18493515349E-01  0.67083976452E-01  0.00000000000E+00 0. -1.
     999901    1    1    2    0    0 -0.88334144538E-01  0.25808911278E-02 -0.55378936627E-02  0.88444346928E+00  0.88000000000E+00 0. -1.
        -11    1    3    3    0    0  0.20811670320E-01  0.11107515898E-01 -0.10425925655E-01  0.25796580736E-01  0.51100000000E-03 0.  1.
         11    1    3    3    0    0  0.46760200408E-01  0.47362209457E-01 -0.25296960306E-02  0.66605973530E-01  0.51100000000E-03 0. -1.
</event>
<event>
 8    1  0.1092667E+005  0.1043930E+01  0.7957747E-01            NaN
         13   -1    0    0    0    0  0.00000000000E+00  0.00000000000E+00  0.74505805969E-08  0.10566000000E+00  0.10566000000E+00 0.  1.
     999900   -1    0    0    0    0 -0.00000000000E+00 -0.00000000000E+00 -0.74505805969E-08  0.93827000000E+00  0.93827000000E+00 0. -1.
     999902    2    1    2    0    0  0.14912896642E-01 -0.15943379927E-01 -0.10415564734E-01  0.10197417831E+01  0.10194548711E+01 0.  0.
     999903    2    3    3    0    0 -0.56851330203E-01  0.10657491451E+00  0.35065569799E-01  0.12720082024E+00  0.18978101442E-01 0.  0.
         14    1    1    2    0    0 -0.14912896642E-01  0.15943379927E-01  0.10415564734E-01  0.24188216935E-01  0.00000000000E+00 0.  1.
     999901    1    3    3    0    0  0.71764226846E-01 -0.12251829444E+00 -0.45481134533E-01  0.89254096283E+00  0.88000000000E+00 0.  1.
        -11    1    4    4    0    0 -0.30106441460E-01  0.61897411252E-01  0.10518367932E-01  0.69631778105E-01  0.51100000000E-03 0.  1.
         11    1    4    4    0    0 -0.26744888743E-01  0.44677503261E-01  0.24547201867E-01  0.57569042133E-01  0.51100000000E-03 0. -1.
</event>
<event>
 8    1  0.1092667E+005  0.1043930E+01  0.7957747E-01            NaN
         13   -1    0    0    0    0  0.00000000000E+00  0.00000000000E+00  0.74505805969E-08  0.10566000000E+00  0.10566000000E+00 0.  1.
     999900   -1    0    0    0    0 -0.00000000000E+00 -0.00000000000E+00 -0.74505805969E-08  0.93827000000E+00  0.93827000000E+00 0.  1.
     999902    2    1    2    0    0  0.40741226648E-02  0.13278538709E-01  0.19034437272E-01  0.10203667263E+01  0.10200946173E+01 0.  0.
     999903    2    3    3    0    0 -0.68989838079E-01 -0.83316498217E-01  0.70772048111E-01  0.13056578007E+00  0.18371268267E-01 0.  0.
         14    1    1    2    0    0 -0.40741226648E-02 -0.13278538709E-01 -0.19034437272E-01  0.23563273712E-01  0.00000000000E+00 0. -1.
     999901    1    3    3    0    0  0.73063960744E-01  0.96595036926E-01 -0.51737610839E-01  0.88980094622E+00  0.88000000000E+00 0. -1.
        -11    1    4    4    0    0 -0.41402508806E-01 -0.63239090990E-01  0.49536015950E-01  0.90373825646E-01  0.51100000000E-03 0.  1.
         11    1    4    4    0    0 -0.27587329273E-01 -0.20077407227E-01  0.21236032162E-01  0.40191954423E-01  0.51100000000E-03 0. -1.
</event>
<event>
 8    1  0.1092667E+005  0.1043930E+01  0.7957747E-01            NaN
         13   -1    0    0    0    0  0.00000000000E+00  0.00000000000E+00  0.74505805969E-08  0.10566000000E+00  0.10566000000E+00 0. -1.
     999900   -1    0    0    0    0 -0.00000000000E+00 -0.00000000000E+00 -0.74505805969E-08  0.93827000000E+00  0.93827000000E+00 0.  1.
     999902    2    1    2    0    0 -0.38014355331E-02 -0.24228993388E-01 -0.14643365448E-02  0.10193609277E+01  0.10190647975E+01 0.  0.
     999903    2    3    3    0    0  0.89439934842E-01  0.53965519965E-02  0.90678457314E-01  0.12915762476E+00  0.20748125077E-01 0.  0.
         14    1    1    2    0    0  0.38014355331E-02  0.24228993388E-01  0.14643365448E-02  0.24569072311E-01  0.00000000000E+00 0.  1.
     999901    1    3    3    0    0 -0.93241370375E-01 -0.29625545385E-01 -0.92142793859E-01  0.89020330293E+00  0.88000000000E+00 0.  1.
        -11    1    4    4    0    0  0.11545294637E-01  0.43953486415E-02  0.49435918235E-02  0.13315897981E-01  0.51100000000E-03 0. -1.
         11    1    4    4    0    0  0.77894640205E-01  0.10012033550E-02  0.85734865491E-01  0.11584172678E+00  0.51100000000E-03 0.  1.
</event>
<event>
 8    1  0.1092667E+005  0.1043930E+01  0.7957747E-01            NaN
         13   -1    0    0    0    0  0.00000000000E+00  0.00000000000E+00  0.74505805969E-08  0.10566000000E+00  0.10566000000E+00 0.  1.
     999900   -1    0    0    0    0 -0.00000000000E+00 -0.00000000000E+00 -0.74505805969E-08  0.93827000000E+00  0.93827000000E+00 0. -1.
     999902    2    1    2    0    0 -0.94332618106E-02 -0.83905011142E-02  0.20046296316E-01  0.10202394759E+01  0.10199643853E+01 0.  0.
     999903    2    3    3    0    0  0.88049790435E-01  0.76136368995E-01 -0.49638478603E-01  0.12810512215E+00  0.19935683659E-01 0.  0.
         14    1    1    2    0    0  0.94332618106E-02  0.83905011142E-02 -0.20046296316E-01  0.23690524125E-01  0.00000000000E+00 0. -1.
     999901    1    3    3    0    0 -0.97483052246E-01 -0.84526870110E-01  0.69684774918E-01  0.89213435373E+00  0.88000000000E+00 0. -1.
        -11    1    4    4    0    0  0.56668432839E-01  0.59779925925E-01 -0.30255356476E-01  0.87753054309E-01  0.51100000000E-03 0.  1.
         11    1    4    4    0    0  0.31381357596E-01  0.16356443071E-01 -0.19383122127E-01  0.40352067839E-01  0.51100000000E-03 0. -1.
</event>
<event>
 8    1  0.1092667E+005  0.1043930E+01  0.7957747E-01            NaN
         13   -1    0    0    0    0  0.00000000000E+00  0.00000000000E+00  0.74505805969E-08  0.10566000000E+00  0.10566000000E+00 0. -1.
     999900   -1    0    0    0    0 -0.00000000000E+00 -0.00000000000E+00 -0.74505805969E-08  0.93827000000E+00  0.93827000000E+00 0.  1.
     999902    2    1    2    0    0  0.17729962583E-01  0.14550768608E-01  0.53647984308E-02  0.10203745866E+01  0.10201026612E+01 0.  0.
     999903    2    3    3    0    0  0.95506234047E-01 -0.34966536089E-01  0.82115641983E-01  0.13223506832E+00  0.19975866621E-01 0.  0.
         14    1    1    2    0    0 -0.17729962583E-01 -0.14550768608E-01 -0.53647984308E-02  0.23555413444E-01  0.00000000000E+00 0.  1.
     999901    1    3    3    0    0 -0.77776271464E-01  0.49517304698E-01 -0.76750843553E-01  0.88813951824E+00  0.88000000000E+00 0.  1.
        -11    1    4    4    0    0  0.24106000319E-01 -0.16536530826E-02  0.13090862455E-01  0.27485734858E-01  0.51100000000E-03 0.  1.
         11    1    4    4    0    0  0.71400233728E-01 -0.33312883007E-01  0.69024779528E-01  0.10474933346E+00  0.51100000000E-03 0. -1.
</event>
<event>
 8    1  0.1092667E+005  0.1043930E+01  0.7957747E-01            NaN
         13   -1    0    0    0    0  0.00000000000E+00  0.00000000000E+00  0.74505805969E-08  0.10566000000E+00  0.10566000000E+00 0.  1.
     999900   -1    0    0    0    0 -0.00000000000E+00 -0.00000000000E+00 -0.74505805969E-08  0.93827000000E+00  0.93827000000E+00 0. -1.
     999902    2    1    2    0    0  0.13310797694E-01 -0.71901563447E-02  0.17002310831E-01  0.10211713916E+01  0.10209177522E+01 0.  0.
     999903    2    3    3    0    0 -0.93641731603E-01 -0.85622223503E-01  0.26770687886E-01  0.13117933888E+00  0.19784088661E-01 0.  0.
         14    1    1    2    0    0 -0.13310797694E-01  0.71901563447E-02 -0.17002310831E-01  0.22758608417E-01  0.00000000000E+00 0. -1.
     999901    1    3    3    0    0  0.10695252930E+00  0.78432067159E-01 -0.97683770551E-02  0.88999205270E+00  0.88000000000E+00 0. -1.
        -11    1    4    4    0    0 -0.87168595981E-01 -0.71045949770E-01  0.23011147771E-01  0.11478530022E+00  0.51100000000E-03 0. -1.
         11    1    4    4    0    0 -0.64731356224E-02 -0.14576273733E-01  0.37595401145E-02  0.16394038661E-01  0.51100000000E-03 0.  1.
</event>
<event>
 8    1  0.1092667E+005  0.1043930E+01  0.7957747E-01            NaN
         13   -1    0    0    0    0  0.00000000000E+00  0.00000000000E+00  0.74505805969E-08  0.10566000000E+00  0.10566000000E+00 0.  1.
     999900   -1    0    0    0    0 -0.00000000000E+00 -0.00000000000E+00 -0.74505805969E-08  0.93827000000E+00  0.93827000000E+00 0. -1.
     999902    2    1    2    0    0 -0.11693860481E-01  0.10658005505E-01  0.19333638062E-01  0.10189474258E+01  0.10186411181E+01 0.  0.
     999903    2    3    3    0    0  0.82235606986E-01 -0.95441888956E-01 -0.70916921735E-02  0.12721975964E+00  0.16208822352E-01 0.  0.
         14    1    1    2    0    0  0.11693860481E-01 -0.10658005505E-01 -0.19333638062E-01  0.24982574227E-01  0.00000000000E+00 0. -1.
     999901    1    3    3    0    0 -0.93929467467E-01  0.10609989446E+00  0.26425330235E-01  0.89172766613E+00  0.88000000000E+00 0.  1.
        -11    1    4    4    0    0  0.72483352859E-01 -0.83475620929E-01 -0.11517703200E-01  0.11115275228E+00  0.51100000000E-03 0.  1.
         11    1    4    4    0    0  0.97522541279E-02 -0.11966268026E-01  0.44260110266E-02  0.16067007365E-01  0.51100000000E-03 0. -1.
</event>
<event>
 8    1  0.1092667E+005  0.1043930E+01  0.7957747E-01            NaN
         13   -1    0    0    0    0  0.00000000000E+00  0.00000000000E+00  0.74505805969E-08  0.10566000000E+00  0.10566000000E+00 0. -1.
     999900   -1    0    0    0    0 -0.00000000000E+00 -0.00000000000E+00 -0.74505805969E-08  0.93827000000E+00  0.93827000000E+00 0. -1.
     999902    2    1    2    0    0 -0.23619862934E-01  0.59111219405E-02 -0.16173172045E-02  0.10195280533E+01  0.10192359866E+01 0.  0.
     999903    2    3    3    0    0 -0.60766069913E-01  0.11070606863E+00  0.32548097341E-01  0.13187434994E+00  0.19573365752E-01 0.  0.
         14    1    1    2    0    0  0.23619862934E-01 -0.59111219405E-02  0.16173172045E-02  0.24401946696E-01  0.00000000000E+00 0.  1.
     999901    1    3    3    0    0  0.37146206979E-01 -0.10479494669E+00 -0.34165414545E-01  0.88765370336E+00  0.88000000000E+00 0. -1.
        -11    1    4    4    0    0 -0.45734659812E-01  0.70940120252E-01  0.28842062971E-01  0.89198012797E-01  0.51100000000E-03 0.  1.
         11    1    4    4    0    0 -0.15031410101E-01  0.39765948380E-01  0.37060343702E-02  0.42676337143E-01  0.51100000000E-03 0. -1.
</event>
<event>
 8    1  0.1092667E+005  0.1043930E+01  0.7957747E-01            NaN
         13   -1    0    0    0    0  0.00000000000E+00  0.00000000000E+00  0.74505805969E-08  0.10566000000E+00  0.10566000000E+00 0.  1.
     999900   -1    0    0    0    0 -0.00000000000E+00 -0.00000000000E+00 -0.74505805969E-08  0.93827000000E+00  0.93827000000E+00 0.  1.
     999902    2    1    2    0    0  0.39904195489E-03 -0.15295110041E-01  0.19163124980E-01  0.10194080714E+01  0.10191130904E+01 0.  0.
     999903    2    3    3    0    0  0.27430576970E-02  0.65326730709E-01  0.11160159636E+00  0.13089794389E+00  0.20105951697E-01 0.  0.
         14    1    1    2    0    0 -0.39904195489E-03  0.15295110041E-01 -0.19163124980E-01  0.24521928649E-01  0.00000000000E+00 0. -1.
     999901    1    3    3    0    0 -0.23440157421E-02 -0.80621840749E-01 -0.92438471378E-01  0.88851012746E+00  0.88000000000E+00 0. -1.
        -11    1    4    4    0    0  0.41292437629E-02  0.10618882888E-01  0.86867650391E-02  0.14336398979E-01  0.51100000000E-03 0. -1.
         11    1    4    4    0    0 -0.13861860659E-02  0.54707847821E-01  0.10291483132E+00  0.11656154491E+00  0.51100000000E-03 0.  1.
</event>
<event>
 8    1  0.1092667E+005  0.1043930E+01  0.7957747E-01            NaN
         13   -1    0    0    0    0  0.00000000000E+00  0.00000000000E+00  0.74505805969E-08  0.10566000000E+00  0.10566000000E+00 0. -1.
     999900   -1    0    0    0    0 -0.00000000000E+00 -0.00000000000E+00 -0.74505805969E-08  0.93827000000E+00  0.93827000000E+00 0.  1.
     999902    2    1    2    0    0  0.17578274776E-02  0.17221910208E-01 -0.15704512905E-01  0.10205565990E+01  0.10202889081E+01 0.  0.
     999903    2    3    3    0    0 -0.43147152915E-01 -0.43780092702E-01  0.10917213798E+00  0.12851855073E+00  0.28637193454E-01 0.  0.
         14    1    1    2    0    0 -0.17578274776E-02 -0.17221910208E-01  0.15704512905E-01  0.23373400998E-01  0.00000000000E+00 0. -1.
     999901    1    3    3    0    0  0.44904980393E-01  0.61002002910E-01 -0.12487665089E+00  0.89203804827E+00  0.88000000000E+00 0.  1.
        -11    1    4    4    0    0 -0.33231516715E-01 -0.14277858111E-01  0.50761910217E-01  0.62331561711E-01  0.51100000000E-03 0. -1.
         11    1    4    4    0    0 -0.99156362001E-02 -0.29502234590E-01  0.58410227766E-01  0.66186989021E-01  0.51100000000E-03 0.  1.
</event>
<event>
 8    1  0.1092667E+005  0.1043930E+01  0.7957747E-01            NaN
         13   -1    0    0    0    0  0.00000000000E+00  0.00000000000E+00  0.74505805969E-08  0.10566000000E+00  0.10566000000E+00 0.  1.
     999900   -1    0    0    0    0 -0.00000000000E+00 -0.00000000000E+00 -0.74505805969E-08  0.93827000000E+00  0.93827000000E+00 0. -1.
     999902    2    1    2    0    0 -0.15463403939E-01  0.11163466026E-01  0.25128640634E-02  0.10246932040E+01  0.10245126197E+01 0.  0.
     999903    2    3    3    0    0 -0.11005417692E+00 -0.21589991342E-01  0.74469132567E-01  0.13609998553E+00  0.19987615521E-01 0.  0.
         14    1    1    2    0    0  0.15463403939E-01 -0.11163466026E-01 -0.25128640634E-02  0.19236796014E-01  0.00000000000E+00 0. -1.
     999901    1    3    3    0    0  0.94590772977E-01  0.32753457368E-01 -0.71956268503E-01  0.88859321845E+00  0.88000000000E+00 0. -1.
        -11    1    4    4    0    0 -0.92674987131E-01 -0.10569532054E-01  0.59328308115E-01  0.11054626865E+00  0.51100000000E-03 0. -1.
         11    1    4    4    0    0 -0.17379189785E-01 -0.11020459288E-01  0.15140824452E-01  0.25553716884E-01  0.51100000000E-03 0.  1.
</event>
<event>
 8    1  0.1092667E+005  0.1043930E+01  0.7957747E-01            NaN
         13   -1    0    0    0    0  0.00000000000E+00  0.00000000000E+00  0.74505805969E-08  0.10566000000E+00  0.10566000000E+00 0.  1.
     999900   -1    0    0    0    0 -0.00000000000E+00 -0.00000000000E+00 -0.74505805969E-08  0.93827000000E+00  0.93827000000E+00 0. -1.
     999902    2    1    2    0    0 -0.10812410330E-01  0.13976000139E-01  0.12547839559E-01  0.10222577810E+01  0.10220280259E+01 0.  0.
     999903    2    3    3    0    0  0.79700538524E-01 -0.98168650090E-01 -0.21542958580E-01  0.12988386894E+00  0.20407367397E-01 0.  0.
         14    1    1    2    0    0  0.10812410330E-01 -0.13976000139E-01 -0.12547839559E-01  0.21672218959E-01  0.00000000000E+00 0. -1.
     999901    1    3    3    0    0 -0.90512948854E-01  0.11214465023E+00  0.34090798138E-01  0.89237391210E+00  0.88000000000E+00 0.  1.
        -11    1    4    4    0    0  0.40764194852E-01 -0.65987870748E-01 -0.12602242538E-01  0.78582417281E-01  0.51100000000E-03 0. -1.
         11    1    4    4    0    0  0.38936343672E-01 -0.32180779343E-01 -0.89407160422E-02  0.51301451656E-01  0.51100000000E-03 0.  1.
</event>
<event>
 8    1  0.1092667E+005  0.1043930E+01  0.7957747E-01            NaN
         13   -1    0    0    0    0  0.00000000000E+00  0.00000000000E+00  0.74505805969E-08  0.10566000000E+00  0.10566000000E+00 0. -1.
     999900   -1    0    0    0    0 -0.00000000000E+00 -0.00000000000E+00 -0.74505805969E-08  0.93827000000E+00  0.93827000000E+00 0. -1.
     999902    2    1    2    0    0 -0.12265825116E-01  0.13966366521E-01  0.15984811572E-01  0.10194142079E+01  0.10191193764E+01 0.  0.
     999903    2    3    3    0    0 -0.10969835787E+00 -0.59829066848E-01  0.33059950236E-01  0.13080269283E+00  0.20078276371E-01 0.  0.
         14    1    1    2    0    0  0.12265825116E-01 -0.13966366521E-01 -0.15984811572E-01  0.24515792065E-01  0.00000000000E+00 0.  1.
     999901    1    3    3    0    0  0.97432532752E-01  0.73795433368E-01 -0.17075138664E-01  0.88861151511E+00  0.88000000000E+00 0.  1.
        -11    1    4    4    0    0 -0.10089877823E-01 -0.11011531418E-01 -0.36133439941E-03  0.14948282249E-01  0.51100000000E-03 0.  1.
         11    1    4    4    0    0 -0.99608480046E-01 -0.48817535429E-01  0.33421284636E-01  0.11585441058E+00  0.51100000000E-03 0. -1.
</event>
<event>
 8    1  0.1092667E+005  0.1043930E+01  0.7957747E-01            NaN
         13   -1    0    0    0    0  0.00000000000E+00  0.00000000000E+00  0.74505805969E-08  0.10566000000E+00  0.10566000000E+00 0.  1.
     999900   -1    0    0    0    0 -0.00000000000E+00 -0.00000000000E+00 -0.74505805969E-08  0.93827000000E+00  0.93827000000E+00 0.  1.
     999902    2    1    2    0    0 -0.14883314456E-01  0.17882308242E-01  0.76747044694E-02  0.10194312024E+01  0.10191367844E+01 0.  0.
     999903    2    3    3    0    0 -0.10673202623E+00 -0.66707913711E-01 -0.25483063386E-01  0.12999816436E+00  0.20210518154E-01 0.  0.
         14    1    1    2    0    0  0.14883314456E-01 -0.17882308242E-01 -0.76747044694E-02  0.24498797643E-01  0.00000000000E+00 0. -1.
     999901    1    3    3    0    0  0.91848711773E-01  0.84590221953E-01  0.33157767856E-01  0.88943303799E+00  0.88000000000E+00 0.  1.
        -11    1    4    4    0    0 -0.78373916322E-01 -0.38553382599E-01 -0.20561932339E-01  0.89732314425E-01  0.51100000000E-03 0. -1.
         11    1    4    4    0    0 -0.28358109906E-01 -0.28154531111E-01 -0.49211310476E-02  0.40265849939E-01  0.51100000000E-03 0.  1.
</event>
<event>
 8    1  0.1092667E+005  0.1043930E+01  0.7957747E-01            NaN
         13   -1    0    0    0    0  0.00000000000E+00  0.00000000000E+00  0.74505805969E-08  0.10566000000E+00  0.10566000000E+00 0.  1.
     999900   -1    0    0    0    0 -0.00000000000E+00 -0.00000000000E+00 -0.74505805969E-08  0.93827000000E+00  0.93827000000E+00 0. -1.
     999902    2    1    2    0    0 -0.13892997850E-01  0.19095984133E-01 -0.42255748655E-02  0.10199398461E+01  0.10196576692E+01 0.  0.
     999903    2    3    3    0    0 -0.66649385669E-01 -0.63890333491E-01 -0.89806603076E-01  0.13033652007E+00  0.19956632577E-01 0.  0.
         14    1    1    2    0    0  0.13892997850E-01 -0.19095984133E-01  0.42255748655E-02  0.23990153860E-01  0.00000000000E+00 0.  1.
     999901    1    3    3    0    0  0.52756387819E-01  0.82986317624E-01  0.85581028210E-01  0.88960332607E+00  0.88000000000E+00 0.  1.
        -11    1    4    4    0    0 -0.45316842211E-01 -0.50508829863E-01 -0.54875596241E-01  0.87271703696E-01  0.51100000000E-03 0.  1.
         11    1    4    4    0    0 -0.21332543458E-01 -0.13381503628E-01 -0.34931006834E-01  0.43064816373E-01  0.51100000000E-03 0. -1.
</event>
<event>
 8    1  0.1092667E+005  0.1043930E+01  0.7957747E-01            NaN
         13   -1    0    0    0    0  0.00000000000E+00  0.00000000000E+00  0.74505805969E-08  0.10566000000E+00  0.10566000000E+00 0.  1.
     999900   -1    0    0    0    0 -0.00000000000E+00 -0.00000000000E+00 -0.74505805969E-08  0.93827000000E+00  0.93827000000E+00 0. -1.
     999902    2    1    2    0    0  0.19560046507E-01 -0.80247378634E-02 -0.32350016648E-02  0.10225417539E+01  0.10223180431E+01 0.  0.
     999903    2    3    3    0    0 -0.16237507865E-01  0.52109162246E-01 -0.11880171897E+00  0.13223101205E+00  0.19803299322E-01 0.  0.
         14    1    1    2    0    0 -0.19560046507E-01  0.80247378634E-02  0.32350016648E-02  0.21388246139E-01  0.00000000000E+00 0.  1.
     999901    1    3    3    0    0  0.35797554372E-01 -0.60133900110E-01  0.11556671731E+00  0.89031074181E+00  0.88000000000E+00 0.  1.
        -11    1    4    4    0    0 -0.69682923221E-02  0.21013917656E-01 -0.27343733915E-01  0.35186399909E-01  0.51100000000E-03 0. -1.
         11    1    4    4    0    0 -0.92692155430E-02  0.31095244590E-01 -0.91457985059E-01  0.97044612138E-01  0.51100000000E-03 0.  1.
</event>
<event>
 8    1  0.1092667E+005  0.1043930E+01  0.7957747E-01            NaN
         13   -1    0    0    0    0  0.00000000000E+00  0.00000000000E+00  0.74505805969E-08  0.10566000000E+00  0.10566000000E+00 0.  1.
     999900   -1    0    0    0    0 -0.00000000000E+00 -0.00000000000E+00 -0.74505805969E-08  0.93827000000E+00  0.93827000000E+00 0. -1.
     999902    2    1    2    0    0  0.22239570247E-01  0.41168637655E-02 -0.73613995511E-02  0.10201447681E+01  0.10198674476E+01 0.  0.
     999903    2    3    3    0    0  0.71186862792E-01 -0.29213592973E-01  0.10427429163E+00  0.13111761199E+00  0.19942337676E-01 0.  0.
         14    1    1    2    0    0 -0.22239570247E-01 -0.41168637655E-02  0.73613995511E-02  0.23785231876E-01  0.00000000000E+00 0.  1.
     999901    1    3    3    0    0 -0.48947292545E-01  0.33330456738E-01 -0.11163569118E+00  0.88902715613E+00  0.88000000000E+00 0. -1.
        -11    1    4    4    0    0  0.25337401207E-01 -0.20960270328E-01  0.44351589521E-01  0.55214503947E-01  0.51100000000E-03 0. -1.
         11    1    4    4    0    0  0.45849461586E-01 -0.82533226454E-02  0.59922702105E-01  0.75903108046E-01  0.51100000000E-03 0.  1.
</event>
<event>
 8    1  0.1092667E+005  0.1043930E+01  0.7957747E-01            NaN
         13   -1    0    0    0    0  0.00000000000E+00  0.00000000000E+00  0.74505805969E-08  0.10566000000E+00  0.10566000000E+00 0. -1.
     999900   -1    0    0    0    0 -0.00000000000E+00 -0.00000000000E+00 -0.74505805969E-08  0.93827000000E+00  0.93827000000E+00 0. -1.
     999902    2    1    2    0    0 -0.61271053845E-02  0.17711464854E-01  0.15440153824E-01  0.10196475834E+01  0.10193584053E+01 0.  0.
     999903    2    3    3    0    0 -0.11683885774E+00  0.26331164080E-01 -0.47782045640E-01  0.13041845775E+00  0.19524378547E-01 0.  0.
         14    1    1    2    0    0  0.61271053845E-02 -0.17711464854E-01 -0.15440153824E-01  0.24282416638E-01  0.00000000000E+00 0.  1.
     999901    1    3    3    0    0  0.11071175236E+00 -0.86196992264E-02  0.63222199465E-01  0.88922912561E+00  0.88000000000E+00 0.  1.
        -11    1    4    4    0    0 -0.27693591360E-01 -0.14383174607E-02 -0.75272445136E-02  0.28738898561E-01  0.51100000000E-03 0.  1.
         11    1    4    4    0    0 -0.89145266380E-01  0.27769481541E-01 -0.40254801127E-01  0.10167955919E+00  0.51100000000E-03 0. -1.
</event>
<event>
 8    1  0.1092667E+005  0.1043930E+01  0.7957747E-01            NaN
         13   -1    0    0    0    0  0.00000000000E+00  0.00000000000E+00  0.74505805969E-08  0.10566000000E+00  0.10566000000E+00 0. -1.
     999900   -1    0    0    0    0 -0.00000000000E+00 -0.00000000000E+00 -0.74505805969E-08  0.93827000000E+00  0.93827000000E+00 0.  1.
     999902    2    1    2    0    0 -0.31844204314E-02  0.23662674682E-01  0.12195299776E-01  0.10171197773E+01  0.10167663710E+01 0.  0.
     999903    2    3    3    0    0 -0.67961252066E-01 -0.81815092979E-01  0.66176461859E-01  0.12681894988E+00  0.19780817016E-01 0.  0.
         14    1    1    2    0    0  0.31844204314E-02 -0.23662674682E-01 -0.12195299776E-01  0.26810222737E-01  0.00000000000E+00 0.  1.
     999901    1    3    3    0    0  0.64776831635E-01  0.10547776766E+00 -0.53981162084E-01  0.89030082739E+00  0.88000000000E+00 0.  1.
        -11    1    4    4    0    0 -0.35866385237E-02 -0.35225470785E-02  0.93169039897E-02  0.10598968571E-01  0.51100000000E-03 0. -1.
         11    1    4    4    0    0 -0.64374613542E-01 -0.78292545901E-01  0.56859557869E-01  0.11621998130E+00  0.51100000000E-03 0.  1.
</event>
<event>
 8    1  0.1092667E+005  0.1043930E+01  0.7957747E-01            NaN
         13   -1    0    0    0    0  0.00000000000E+00  0.00000000000E+00  0.74505805969E-08  0.10566000000E+00  0.10566000000E+00 0. -1.
     999900   -1    0    0    0    0 -0.00000000000E+00 -0.00000000000E+00 -0.74505805969E-08  0.93827000000E+00  0.93827000000E+00 0. -1.
     999902    2    1    2    0    0  0.18970744384E-01 -0.93338449430E-02 -0.11661114991E-01  0.10197847850E+01  0.10194989045E+01 0.  0.
     999903    2    3    3    0    0  0.77942104219E-01 -0.86709157680E-01 -0.60997259189E-01  0.13304997943E+00  0.19702328878E-01 0.  0.
         14    1    1    2    0    0 -0.18970744384E-01  0.93338449430E-02  0.11661114991E-01  0.24145214986E-01  0.00000000000E+00 0. -1.
     999901    1    3    3    0    0 -0.58971359835E-01  0.77375312737E-01  0.49336144199E-01  0.88673480558E+00  0.88000000000E+00 0.  1.
        -11    1    4    4    0    0  0.24302847974E-01 -0.14795405352E-01 -0.12739318183E-01  0.31178258257E-01  0.51100000000E-03 0. -1.
         11    1    4    4    0    0  0.53639256245E-01 -0.71913752328E-01 -0.48257941007E-01  0.10187172118E+00  0.51100000000E-03 0.  1.
</event>
<event>
 7    1  0.1092667E+005  0.1043930E+01  0.7957747E-01            NaN
         13   -1    0    0    0    0  0.00000000000E+00  0.00000000000E+00  0.74505805969E-08  0.10566000000E+00  0.10566000000E+00 0. -1.
     999900   -1    0    0    0    0 -0.00000000000E+00 -0.00000000000E+00 -0.74505805969E-08  0.93827000000E+00  0.93827000000E+00 0. -1.
     999903    2    1    2    0    0 -0.94767734976E-02 -0.18239762387E-01 -0.10543244742E+00  0.10921173991E+00  0.19715602910E-01 0.  0.
         14    1    1    2    0    0  0.20824397977E-01  0.23536584668E-01  0.41849249011E-01  0.52335322792E-01  0.00000000000E+00 0. -1.
     999901    1    1    2    0    0 -0.11347624479E-01 -0.52968222809E-02  0.63583198410E-01  0.88238293729E+00  0.88000000000E+00 0.  1.
        -11    1    3    3    0    0 -0.36633405788E-02  0.37842991164E-02 -0.13552507192E-01  0.14548970967E-01  0.51100000000E-03 0.  1.
         11    1    3    3    0    0 -0.58134329188E-02 -0.22024061503E-01 -0.91879940229E-01  0.94662768948E-01  0.51100000000E-03 0. -1.
</event>
<event>
 8    1  0.1092667E+005  0.1043930E+01  0.7957747E-01            NaN
         13   -1    0    0    0    0  0.00000000000E+00  0.00000000000E+00  0.74505805969E-08  0.10566000000E+00  0.10566000000E+00 0.  1.
     999900   -1    0    0    0    0 -0.00000000000E+00 -0.00000000000E+00 -0.74505805969E-08  0.93827000000E+00  0.93827000000E+00 0.  1.
     999902    2    1    2    0    0  0.18700966293E-01 -0.78258981613E-02 -0.11631843135E-01  0.10205575676E+01  0.10202898991E+01 0.  0.
     999903    2    3    3    0    0 -0.11185715786E+00 -0.27760748466E-01  0.53203749856E-01  0.12834320088E+00  0.18938196659E-01 0.  0.
         14    1    1    2    0    0 -0.18700966293E-01  0.78258981613E-02  0.11631843135E-01  0.23372432416E-01  0.00000000000E+00 0.  1.
     999901    1    3    3    0    0  0.13055812415E+00  0.19934850304E-01 -0.64835592991E-01  0.89221436671E+00  0.88000000000E+00 0. -1.
        -11    1    4    4    0    0 -0.68054353967E-01 -0.25829375394E-01  0.36386004932E-01  0.81380305990E-01  0.51100000000E-03 0.  1.
         11    1    4    4    0    0 -0.43802803893E-01 -0.19313730717E-02  0.16817744923E-01  0.46962894887E-01  0.51100000000E-03 0. -1.
</event>
<event>
 8    1  0.1092667E+005  0.1043930E+01  0.7957747E-01            NaN
         13   -1    0    0    0    0  0.00000000000E+00  0.00000000000E+00  0.74505805969E-08  0.10566000000E+00  0.10566000000E+00 0. -1.
     999900   -1    0    0    0    0 -0.00000000000E+00 -0.00000000000E+00 -0.74505805969E-08  0.93827000000E+00  0.93827000000E+00 0. -1.
     999902    2    1    2    0    0  0.99899260235E-02  0.14949045831E-01  0.15067198727E-01  0.10204716737E+01  0.10202020113E+01 0.  0.
     999903    2    3    3    0    0  0.83139451865E-02 -0.10706812610E+00  0.70991261206E-01  0.13029275919E+00  0.20093248064E-01 0.  0.
         14    1    1    2    0    0 -0.99899260235E-02 -0.14949045831E-01 -0.15067198727E-01  0.23458326255E-01  0.00000000000E+00 0. -1.
     999901    1    3    3    0    0  0.16759808370E-02  0.12201717193E+00 -0.55924062479E-01  0.89017891456E+00  0.88000000000E+00 0. -1.
        -11    1    4    4    0    0  0.44589776219E-02 -0.52776088946E-01  0.46984891105E-01  0.70802818864E-01  0.51100000000E-03 0.  1.
         11    1    4    4    0    0  0.38549675645E-02 -0.54292037154E-01  0.24006370102E-01  0.59489940324E-01  0.51100000000E-03 0. -1.
</event>
<event>
 8    1  0.1092667E+005  0.1043930E+01  0.7957747E-01            NaN
         13   -1    0    0    0    0  0.00000000000E+00  0.00000000000E+00  0.74505805969E-08  0.10566000000E+00  0.10566000000E+00 0. -1.
     999900   -1    0    0    0    0 -0.00000000000E+00 -0.00000000000E+00 -0.74505805969E-08  0.93827000000E+00  0.93827000000E+00 0.  1.
     999902    2    1    2    0    0 -0.10407979833E-01 -0.16291716325E-01  0.14130225461E-01  0.10199840330E+01  0.10197029068E+01 0.  0.
     999903    2    3    3    0    0 -0.46061234795E-01  0.26646872109E-01 -0.11557319285E+00  0.12872769853E+00  0.19543907462E-01 0.  0.
         14    1    1    2    0    0  0.10407979833E-01  0.16291716325E-01 -0.14130225461E-01  0.23945967022E-01  0.00000000000E+00 0. -1.
     999901    1    3    3    0    0  0.35653254962E-01 -0.42938588434E-01  0.12970341832E+00  0.89125633445E+00  0.88000000000E+00 0. -1.
        -11    1    4    4    0    0 -0.23864103808E-01  0.24755769681E-01 -0.71649441255E-01  0.79474820769E-01  0.51100000000E-03 0.  1.
         11    1    4    4    0    0 -0.22197130987E-01  0.18911024274E-02 -0.43923751600E-01  0.49252877764E-01  0.51100000000E-03 0. -1.
</event>
<event>
 8    1  0.1092667E+005  0.1043930E+01  0.7957747E-01            NaN
         13   -1    0    0    0    0  0.00000000000E+00  0.00000000000E+00  0.74505805969E-08  0.10566000000E+00  0.10566000000E+00 0. -1.
     999900   -1    0    0    0    0 -0.00000000000E+00 -0.00000000000E+00 -0.74505805969E-08  0.93827000000E+00  0.93827000000E+00 0.  1.
     999902    2    1    2    0    0  0.21487717565E-01 -0.93164032416E-02 -0.71260708430E-02  0.10194494309E+01  0.10191554562E+01 0.  0.
     999903    2    3    3    0    0  0.10913379574E+00 -0.62018092409E-01 -0.38960443966E-01  0.13295480018E+00  0.20065730484E-01 0.  0.
         14    1    1    2    0    0 -0.21487717565E-01  0.93164032416E-02  0.71260708430E-02  0.24480569053E-01  0.00000000000E+00 0.  1.
     999901    1    3    3    0    0 -0.87646078173E-01  0.52701689167E-01  0.31834373123E-01  0.88649463076E+00  0.88000000000E+00 0. -1.
        -11    1    4    4    0    0  0.46471976420E-01 -0.25085441861E-01 -0.61847152085E-02  0.53173638289E-01  0.51100000000E-03 0. -1.
         11    1    4    4    0    0  0.62661819318E-01 -0.36932650548E-01 -0.32775728757E-01  0.79781161895E-01  0.51100000000E-03 0.  1.
</event>
<event>
 8    1  0.1092667E+005  0.1043930E+01  0.7957747E-01            NaN
         13   -1    0    0    0    0  0.00000000000E+00  0.00000000000E+00  0.74505805969E-08  0.10566000000E+00  0.10566000000E+00 0. -1.
     999900   -1    0    0    0    0 -0.00000000000E+00 -0.00000000000E+00 -0.74505805969E-08  0.93827000000E+00  0.93827000000E+00 0. -1.
     999902    2    1    2    0    0 -0.20757091250E-01  0.17113660018E-01  0.14510620937E-01  0.10133638044E+01  0.10129027138E+01 0.  0.
     999903    2    3    3    0    0  0.57629364418E-01  0.97098255262E-01 -0.47375920306E-01  0.12411023203E+00  0.20239986422E-01 0.  0.
         14    1    1    2    0    0  0.20757091250E-01 -0.17113660018E-01 -0.14510620937E-01  0.30566195648E-01  0.00000000000E+00 0.  1.
     999901    1    3    3    0    0 -0.78386455669E-01 -0.79984595244E-01  0.61886541243E-01  0.88925357233E+00  0.88000000000E+00 0.  1.
        -11    1    4    4    0    0  0.30130769696E-01  0.50075937104E-01 -0.13572860276E-01  0.59999553468E-01  0.51100000000E-03 0. -1.
         11    1    4    4    0    0  0.27498594722E-01  0.47022318158E-01 -0.33803060030E-01  0.64110678557E-01  0.51100000000E-03 0.  1.
</event>
<event>
 8    1  0.1092667E+005  0.1043930E+01  0.7957747E-01            NaN
         13   -1    0    0    0    0  0.00000000000E+00  0.00000000000E+00  0.74505805969E-08  0.10566000000E+00  0.10566000000E+00 0.  1.
     999900   -1    0    0    0    0 -0.00000000000E+00 -0.00000000000E+00 -0.74505805969E-08  0.93827000000E+00  0.93827000000E+00 0. -1.
     999902    2    1    2    0    0 -0.13695993836E-01 -0.20287632934E-01  0.99726738717E-02  0.10174985316E+01  0.10171551697E+01 0.  0.
     999903    2    3    3    0    0 -0.11352286295E+00  0.42516934335E-01 -0.37549070046E-01  0.12835954719E+00  0.19264230498E-01 0.  0.
         14    1    1    2    0    0  0.13695993836E-01  0.20287632934E-01 -0.99726738717E-02  0.26431468392E-01  0.00000000000E+00 0. -1.
     999901    1    3    3    0    0  0.99826869111E-01 -0.62804567268E-01  0.47521743918E-01  0.88913898442E+00  0.88000000000E+00 0. -1.
        -11    1    4    4    0    0 -0.41965446128E-01  0.24796497545E-01 -0.19185306755E-01  0.52386086659E-01  0.51100000000E-03 0. -1.
         11    1    4    4    0    0 -0.71557416819E-01  0.17720436790E-01 -0.18363763291E-01  0.75973460531E-01  0.51100000000E-03 0.  1.
</event>
<event>
 8    1  0.1092667E+005  0.1043930E+01  0.7957747E-01            NaN
         13   -1    0    0    0    0  0.00000000000E+00  0.00000000000E+00  0.74505805969E-08  0.10566000000E+00  0.10566000000E+00 0. -1.
     999900   -1    0    0    0    0 -0.00000000000E+00 -0.00000000000E+00 -0.74505805969E-08  0.93827000000E+00  0.93827000000E+00 0. -1.
     999902    2    1    2    0    0 -0.74730227170E-02  0.21867925344E-01  0.13169230053E-01  0.10173314879E+01  0.10169837144E+01 0.  0.
     999903    2    3    3    0    0  0.89100072319E-01  0.58757803265E-01 -0.67060138571E-01  0.12765515494E+00  0.20185986889E-01 0.  0.
         14    1    1    2    0    0  0.74730227170E-02 -0.21867925344E-01 -0.13169230053E-01  0.26598512131E-01  0.00000000000E+00 0. -1.
     999901    1    3    3    0    0 -0.96573095036E-01 -0.36889877920E-01  0.80229368624E-01  0.88967633293E+00  0.88000000000E+00 0.  1.
        -11    1    4    4    0    0  0.60608789776E-01  0.42161148113E-01 -0.35171309061E-01  0.81781843403E-01  0.51100000000E-03 0.  1.
         11    1    4    4    0    0  0.28491282544E-01  0.16596655152E-01 -0.31888829510E-01  0.45873311541E-01  0.51100000000E-03 0. -1.
</event>
<event>
 8    1  0.1092667E+005  0.1043930E+01  0.7957747E-01            NaN
         13   -1    0    0    0    0  0.00000000000E+00  0.00000000000E+00  0.74505805969E-08  0.10566000000E+00  0.10566000000E+00 0. -1.
     999900   -1    0    0    0    0 -0.00000000000E+00 -0.00000000000E+00 -0.74505805969E-08  0.93827000000E+00  0.93827000000E+00 0. -1.
     999902    2    1    2    0    0 -0.22170851617E-01 -0.84507656809E-02 -0.14147226121E-02  0.10201610383E+01  0.10198841015E+01 0.  0.
     999903    2    3    3    0    0 -0.12100042664E+00 -0.50843426986E-01  0.11982246887E-01  0.13351347501E+00  0.21356883064E-01 0.  0.
         14    1    1    2    0    0  0.22170851617E-01  0.84507656809E-02  0.14147226121E-02  0.23768961738E-01  0.00000000000E+00 0. -1.
     999901    1    3    3    0    0  0.98829575021E-01  0.42392661305E-01 -0.13396969499E-01  0.88664756325E+00  0.88000000000E+00 0.  1.
        -11    1    4    4    0    0 -0.81452586458E-01 -0.27633611295E-01  0.15962984915E-01  0.87482674412E-01  0.51100000000E-03 0.  1.
         11    1    4    4    0    0 -0.39547840181E-01 -0.23209815691E-01 -0.39807380284E-02  0.46030800597E-01  0.51100000000E-03 0. -1.
</event>
<event>
 7    1  0.1092667E+005  0.1043930E+01  0.7957747E-01            NaN
         13   -1    0    0    0    0  0.00000000000E+00  0.00000000000E+00  0.74505805969E-08  0.10566000000E+00  0.10566000000E+00 0.  1.
     999900   -1    0    0    0    0 -0.00000000000E+00 -0.00000000000E+00 -0.74505805969E-08  0.93827000000E+00  0.93827000000E+00 0.  1.
     999902    2    1    2    0    0 -0.16731108524E-01  0.15583355307E-01  0.21495948701E-04  0.10210658049E+01  0.10208097798E+01 0.  0.
         14    1    1    2    0    0  0.16731108524E-01 -0.15583355307E-01 -0.21495948701E-04  0.22864195091E-01  0.00000000000E+00 0. -1.
     999901    1    3    3    0    0  0.10614195543E+00 -0.14984130803E-01 -0.22879446787E-01  0.88679992555E+00  0.88000000000E+00 0.  1.
        -11    1    3    3    0    0 -0.82814495332E-01  0.23500535149E-01 -0.28274571931E-02  0.86132290255E-01  0.51100000000E-03 0.  1.
         11    1    3    3    0    0 -0.40058568620E-01  0.70669509614E-02  0.25728399929E-01  0.48133589100E-01  0.51100000000E-03 0. -1.
</event>
<event>
 8    1  0.1092667E+005  0.1043930E+01  0.7957747E-01            NaN
         13   -1    0    0    0    0  0.00000000000E+00  0.00000000000E+00  0.74505805969E-08  0.10566000000E+00  0.10566000000E+00 0.  1.
     999900   -1    0    0    0    0 -0.00000000000E+00 -0.00000000000E+00 -0.74505805969E-08  0.93827000000E+00  0.93827000000E+00 0.  1.
     999902    2    1    2    0    0  0.11839542854E-02 -0.22684946005E-01 -0.39072081106E-02  0.10208806009E+01  0.10206203636E+01 0.  0.
     999903    2    3    3    0    0  0.53170843473E-01 -0.12096489660E+00 -0.61123232680E-02  0.13388203955E+00  0.20673538919E-01 0.  0.
         14    1    1    2    0    0 -0.11839542854E-02  0.22684946005E-01  0.39072081106E-02  0.23049399085E-01  0.00000000000E+00 0.  1.
     999901    1    3    3    0    0 -0.51986889188E-01  0.98279950598E-01  0.22051151574E-02  0.88699856137E+00  0.88000000000E+00 0. -1.
        -11    1    4    4    0    0  0.42106461013E-01 -0.77461964987E-01  0.23565495530E-02  0.88199345380E-01  0.51100000000E-03 0. -1.
         11    1    4    4    0    0  0.11064382461E-01 -0.43502931616E-01 -0.84688728210E-02  0.45682694166E-01  0.51100000000E-03 0.  1.
</event>
<event>
 8    1  0.1092667E+005  0.1043930E+01  0.7957747E-01            NaN
         13   -1    0    0    0    0  0.00000000000E+00  0.00000000000E+00  0.74505805969E-08  0.10566000000E+00  0.10566000000E+00 0.  1.
     999900   -1    0    0    0    0 -0.00000000000E+00 -0.00000000000E+00 -0.74505805969E-08  0.93827000000E+00  0.93827000000E+00 0. -1.
     999902    2    1    2    0    0  0.20267110834E-01  0.47218721527E-02  0.11731170719E-01  0.10200412532E+01  0.10197614848E+01 0.  0.
     999903    2    3    3    0    0 -0.17011494169E-01  0.12210597790E+00 -0.37453287638E-01  0.13010427023E+00  0.18030851468E-01 0.  0.
         14    1    1    2    0    0 -0.20267110834E-01 -0.47218721527E-02 -0.11731170719E-01  0.23888746820E-01  0.00000000000E+00 0. -1.
     999901    1    3    3    0    0  0.37278605003E-01 -0.11738410575E+00  0.49184458357E-01  0.88993698295E+00  0.88000000000E+00 0.  1.
        -11    1    4    4    0    0 -0.58562779828E-02  0.61768951756E-01 -0.98705627007E-02  0.62828246211E-01  0.51100000000E-03 0.  1.
         11    1    4    4    0    0 -0.11155216186E-01  0.60337026146E-01 -0.27582724937E-01  0.67276024022E-01  0.51100000000E-03 0. -1.
</event>
<event>
 8    1  0.1092667E+005  0.1043930E+01  0.7957747E-01            NaN
         13   -1    0    0    0    0  0.00000000000E+00  0.00000000000E+00  0.74505805969E-08  0.10566000000E+00  0.10566000000E+00 0. -1.
     999900   -1    0    0    0    0 -0.00000000000E+00 -0.00000000000E+00 -0.74505805969E-08  0.93827000000E+00  0.93827000000E+00 0.  1.
     999902    2    1    2    0    0  0.13008294313E-02 -0.19198850455E-01 -0.13270567206E-01  0.10205548857E+01  0.10202871550E+01 0.  0.
     999903    2    3    3    0    0 -0.66921792681E-02  0.81505132425E-01  0.96344169269E-01  0.12801885233E+00  0.20463521808E-01 0.  0.
         14    1    1    2    0    0 -0.13008294313E-02  0.19198850455E-01  0.13270567206E-01  0.23375114331E-01  0.00000000000E+00 0. -1.
     999901    1    3    3    0    0  0.79930086994E-02 -0.10070398288E+00 -0.10961473648E+00  0.89253603334E+00  0.88000000000E+00 0.  1.
        -11    1    4    4    0    0 -0.31786039877E-02  0.32638164614E-01  0.23981029357E-01  0.40628859235E-01  0.51100000000E-03 0. -1.
         11    1    4    4    0    0 -0.35135752804E-02  0.48866967810E-01  0.72363139912E-01  0.87389993095E-01  0.51100000000E-03 0.  1.
</event>
<event>
 8    1  0.1092667E+005  0.1043930E+01  0.7957747E-01            NaN
         13   -1    0    0    0    0  0.00000000000E+00  0.00000000000E+00  0.74505805969E-08  0.10566000000E+00  0.10566000000E+00 0.  1.
     999900   -1    0    0    0    0 -0.00000000000E+00 -0.00000000000E+00 -0.74505805969E-08  0.93827000000E+00  0.93827000000E+00 0.  1.
     999902    2    1    2    0    0 -0.12491690251E-01 -0.14963144472E-02 -0.19965804708E-01  0.10203309610E+01  0.10200580157E+01 0.  0.
     999903    2    3    3    0    0 -0.11458486096E+00  0.61795329572E-01 -0.10692541510E-01  0.13212217865E+00  0.19839015282E-01 0.  0.
         14    1    1    2    0    0  0.12491690251E-01  0.14963144472E-02  0.19965804708E-01  0.23599038961E-01  0.00000000000E+00 0. -1.
     999901    1    3    3    0    0  0.10209317071E+00 -0.63291644020E-01 -0.92732631979E-02  0.88820878239E+00  0.88000000000E+00 0.  1.
        -11    1    4    4    0    0 -0.76614152786E-01  0.51410839735E-01 -0.92268437213E-02  0.92726472031E-01  0.51100000000E-03 0.  1.
         11    1    4    4    0    0 -0.37970708178E-01  0.10384489838E-01 -0.14656977885E-02  0.39395706615E-01  0.51100000000E-03 0. -1.
</event>
<event>
 8    1  0.1092667E+005  0.1043930E+01  0.7957747E-01            NaN
         13   -1    0    0    0    0  0.00000000000E+00  0.00000000000E+00  0.74505805969E-08  0.10566000000E+00  0.10566000000E+00 0. -1.
     999900   -1    0    0    0    0 -0.00000000000E+00 -0.00000000000E+00 -0.74505805969E-08  0.93827000000E+00  0.93827000000E+00 0.  1.
     999902    2    1    2    0    0  0.12715352716E-01  0.56539436326E-02  0.19485230588E-01  0.10199858674E+01  0.10197047849E+01 0.  0.
     999903    2    3    3    0    0  0.94690551561E-02 -0.12477044296E+00  0.30556931037E-01  0.13029848323E+00  0.19663220871E-01 0.  0.
         14    1    1    2    0    0 -0.12715352716E-01 -0.56539436326E-02 -0.19485230588E-01  0.23944132566E-01  0.00000000000E+00 0. -1.
     999901    1    3    3    0    0  0.32462975600E-02  0.13042438659E+00 -0.11071700449E-01  0.88968738421E+00  0.88000000000E+00 0.  1.
        -11    1    4    4    0    0  0.13545706702E-01 -0.68815564987E-01  0.11688619734E-01  0.71105225594E-01  0.51100000000E-03 0.  1.
         11    1    4    4    0    0 -0.40766515461E-02 -0.55954877973E-01  0.18868311304E-01  0.59193257633E-01  0.51100000000E-03 0. -1.
</event>
<event>
 8    1  0.1092667E+005  0.1043930E+01  0.7957747E-01            NaN
         13   -1    0    0    0    0  0.00000000000E+00  0.00000000000E+00  0.74505805969E-08  0.10566000000E+00  0.10566000000E+00 0.  1.
     999900   -1    0    0    0    0 -0.00000000000E+00 -0.00000000000E+00 -0.74505805969E-08  0.93827000000E+00  0.93827000000E+00 0. -1.
     999902    2    1    2    0    0 -0.71462939935E-02 -0.23989565215E-01 -0.73468454550E-02  0.10178427446E+01  0.10175083822E+01 0.  0.
     999903    2    3    3    0    0 -0.32119839312E-01 -0.12118953684E+00 -0.36361144330E-01  0.13166367578E+00  0.17163996751E-01 0.  0.
         14    1    1    2    0    0  0.71462939935E-02  0.23989565215E-01  0.73468454550E-02  0.26087255417E-01  0.00000000000E+00 0.  1.
     999901    1    3    3    0    0  0.24973545318E-01  0.97199971629E-01  0.29014298875E-01  0.88617906881E+00  0.88000000000E+00 0.  1.
        -11    1    4    4    0    0 -0.97922810352E-02 -0.15472847832E-01 -0.77468317962E-02  0.19888999768E-01  0.51100000000E-03 0.  1.
         11    1    4    4    0    0 -0.22327558276E-01 -0.10571668901E+00 -0.28614312533E-01  0.11177467601E+00  0.51100000000E-03 0. -1.
</event>
<event>
 8    1  0.1092667E+005  0.1043930E+01  0.7957747E-01            NaN
         13   -1    0    0    0    0  0.00000000000E+00  0.00000000000E+00  0.74505805969E-08  0.10566000000E+00  0.10566000000E+00 0.  1.
     999900   -1    0    0    0    0 -0.00000000000E+00 -0.00000000000E+00 -0.74505805969E-08  0.93827000000E+00  0.93827000000E+00 0.  1.
     999902    2    1    2    0    0 -0.36373433145E-02 -0.20068854609E-01  0.46239368375E-02  0.10230166076E+01  0.10228028204E+01 0.  0.
     999903    2    3    3    0    0  0.51731977255E-01  0.11528138492E+00  0.26795647012E-01  0.13067304494E+00  0.19784913366E-01 0.  0.
         14    1    1    2    0    0  0.36373433145E-02  0.20068854609E-01 -0.46239368375E-02  0.20913392445E-01  0.00000000000E+00 0.  1.
     999901    1    3    3    0    0 -0.55369320569E-01 -0.13535023953E+00 -0.22171710174E-01  0.89234356261E+00  0.88000000000E+00 0.  1.
        -11    1    4    4    0    0  0.47045808832E-01  0.85820291210E-01  0.17503139612E-01  0.99423596442E-01  0.51100000000E-03 0.  1.
         11    1    4    4    0    0  0.46861684225E-02  0.29461093708E-01  0.92925074003E-02  0.31249448503E-01  0.51100000000E-03 0. -1.
</event>
<event>
 8    1  0.1092667E+005  0.1043930E+01  0.7957747E-01            NaN
         13   -1    0    0    0    0  0.00000000000E+00  0.00000000000E+00  0.74505805969E-08  0.10566000000E+00  0.10566000000E+00 0. -1.
     999900   -1    0    0    0    0 -0.00000000000E+00 -0.00000000000E+00 -0.74505805969E-08  0.93827000000E+00  0.93827000000E+00 0. -1.
     999902    2    1    2    0    0 -0.69882227798E-02  0.23198670401E-01  0.51098499973E-02  0.10191686565E+01  0.10188678159E+01 0.  0.
     999903    2    3    3    0    0  0.62244457870E-01 -0.98411119246E-01 -0.44736418362E-01  0.12671879487E+00  0.22297643818E-01 0.  0.
         14    1    1    2    0    0  0.69882227798E-02 -0.23198670401E-01 -0.51098499973E-02  0.24761343521E-01  0.00000000000E+00 0. -1.
     999901    1    3    3    0    0 -0.69232680650E-01  0.12160978965E+00  0.49846268359E-01  0.89244986160E+00  0.88000000000E+00 0.  1.
        -11    1    4    4    0    0  0.12386722604E-01 -0.29353095526E-01 -0.34089752435E-02  0.32045551127E-01  0.51100000000E-03 0. -1.
         11    1    4    4    0    0  0.49857735266E-01 -0.69058023720E-01 -0.41327443118E-01  0.94673243747E-01  0.51100000000E-03 0.  1.
</event>
<event>
 8    1  0.1092667E+005  0.1043930E+01  0.7957747E-01            NaN
         13   -1    0    0    0    0  0.00000000000E+00  0.00000000000E+00  0.74505805969E-08  0.10566000000E+00  0.10566000000E+00 0. -1.
     999900   -1    0    0    0    0 -0.00000000000E+00 -0.00000000000E+00 -0.74505805969E-08  0.93827000000E+00  0.93827000000E+00 0.  1.
     999902    2    1    2    0    0 -0.22067600275E-02 -0.19333083031E-01 -0.13290227476E-01  0.10203658740E+01  0.10200937451E+01 0.  0.
     999903    2    3    3    0    0 -0.10464078927E+00  0.16854859898E-01  0.71851402039E-01  0.12960698704E+00  0.20039112596E-01 0.  0.
         14    1    1    2    0    0  0.22067600275E-02  0.19333083031E-01  0.13290227476E-01  0.23564126032E-01  0.00000000000E+00 0.  1.
     999901    1    3    3    0    0  0.10243402924E+00 -0.36187942929E-01 -0.85141629515E-01  0.89075888693E+00  0.88000000000E+00 0.  1.
        -11    1    4    4    0    0 -0.63978840028E-01  0.57289378919E-03  0.45095969211E-01  0.78278526677E-01  0.51100000000E-03 0. -1.
         11    1    4    4    0    0 -0.40661949244E-01  0.16281966109E-01  0.26755432828E-01  0.51328460365E-01  0.51100000000E-03 0.  1.
</event>
<event>
 8    1  0.1092667E+005  0.1043930E+01  0.7957747E-01            NaN
         13   -1    0    0    0    0  0.00000000000E+00  0.00000000000E+00  0.74505805969E-08  0.10566000000E+00  0.10566000000E+00 0.  1.
     999900   -1    0    0    0    0 -0.00000000000E+00 -0.00000000000E+00 -0.74505805969E-08  0.93827000000E+00  0.93827000000E+00 0.  1.
     999902    2    1    2    0    0  0.16237032493E-02 -0.16289501383E-01 -0.13964076458E-01  0.10224130370E+01  0.10221865967E+01 0.  0.
     999903    2    3    3    0    0  0.13036616827E+00 -0.11392803925E-01 -0.13281511889E-01  0.13303175435E+00  0.19897620381E-01 0.  0.
         14    1    1    2    0    0 -0.16237032493E-02  0.16289501383E-01  0.13964076458E-01  0.21516963049E-01  0.00000000000E+00 0.  1.
     999901    1    3    3    0    0 -0.12874246502E+00 -0.48966974579E-02 -0.68256456810E-03  0.88938128260E+00  0.88000000000E+00 0.  1.
        -11    1    4    4    0    0  0.10243905711E+00 -0.16964497174E-01 -0.11915262804E-01  0.10451693257E+00  0.51100000000E-03 0. -1.
         11    1    4    4    0    0  0.27927111162E-01  0.55716932484E-02 -0.13662490851E-02  0.28514821778E-01  0.51100000000E-03 0.  1.
</event>
<event>
 8    1  0.1092667E+005  0.1043930E+01  0.7957747E-01            NaN
         13   -1    0    0    0    0  0.00000000000E+00  0.00000000000E+00  0.74505805969E-08  0.10566000000E+00  0.10566000000E+00 0. -1.
     999900   -1    0    0    0    0 -0.00000000000E+00 -0.00000000000E+00 -0.74505805969E-08  0.93827000000E+00  0.93827000000E+00 0.  1.
     999902    2    1    2    0    0 -0.11719837124E-01  0.17639829864E-01  0.12052899026E-01  0.10195621820E+01  0.10192709416E+01 0.  0.
     999903    2    3    3    0    0 -0.29912009454E-02  0.13004942100E+00 -0.93087639460E-02  0.13211166172E+00  0.21095944943E-01 0.  0.
         14    1    1    2    0    0  0.11719837124E-01 -0.17639829864E-01 -0.12052899026E-01  0.24367818014E-01  0.00000000000E+00 0.  1.
     999901    1    3    3    0    0 -0.87286361784E-02 -0.11240959113E+00  0.21361662972E-01  0.88745052026E+00  0.88000000000E+00 0.  1.
        -11    1    4    4    0    0  0.44944286458E-02  0.11234362525E+00 -0.59616877046E-02  0.11259259685E+00  0.51100000000E-03 0.  1.
         11    1    4    4    0    0 -0.74856295912E-02  0.17705795741E-01 -0.33470762414E-02  0.19519064874E-01  0.51100000000E-03 0. -1.
</event>
<event>
 8    1  0.1092667E+005  0.1043930E+01  0.7957747E-01            NaN
         13   -1    0    0    0    0  0.00000000000E+00  0.00000000000E+00  0.74505805969E-08  0.10566000000E+00  0.10566000000E+00 0. -1.
     999900   -1    0    0    0    0 -0.00000000000E+00 -0.00000000000E+00 -0.74505805969E-08  0.93827000000E+00  0.93827000000E+00 0. -1.
     999902    2    1    2    0    0  0.11362595393E-01  0.16788391286E-01  0.11492960441E-01  0.10206266355E+01  0.10203605649E+01 0.  0.
     999903    2    3    3    0    0  0.94692533397E-01  0.86272841038E-01  0.32504745465E-01  0.13371431605E+00  0.20329310315E-01 0.  0.
         14    1    1    2    0    0 -0.11362595393E-01 -0.16788391286E-01 -0.11492960441E-01  0.23303364473E-01  0.00000000000E+00 0. -1.
     999901    1    3    3    0    0 -0.83329938004E-01 -0.69484449751E-01 -0.21011785023E-01  0.88691231947E+00  0.88000000000E+00 0. -1.
        -11    1    4    4    0    0  0.33181471591E-01  0.35741046964E-01  0.21683652777E-01  0.53374848138E-01  0.51100000000E-03 0.  1.
         11    1    4    4    0    0  0.61511061806E-01  0.50531794074E-01  0.10821092687E-01  0.80339467914E-01  0.51100000000E-03 0. -1.
</event>
<event>
 8    1  0.1092667E+005  0.1043930E+01  0.7957747E-01            NaN
         13   -1    0    0    0    0  0.00000000000E+00  0.00000000000E+00  0.74505805969E-08  0.10566000000E+00  0.10566000000E+00 0. -1.
     999900   -1    0    0    0    0 -0.00000000000E+00 -0.00000000000E+00 -0.74505805969E-08  0.93827000000E+00  0.93827000000E+00 0. -1.
     999902    2    1    2    0    0  0.88291232676E-02 -0.21180898043E-01 -0.46936685293E-02  0.10205074813E+01  0.10202386510E+01 0.  0.
     999903    2    3    3    0    0  0.12080085172E+00  0.64067257999E-04 -0.49145322315E-01  0.13204534586E+00  0.20684795807E-01 0.  0.
         14    1    1    2    0    0 -0.88291232676E-02  0.21180898043E-01  0.46936685293E-02  0.23422518734E-01  0.00000000000E+00 0.  1.
     999901    1    3    3    0    0 -0.11197172845E+00 -0.21244965301E-01  0.44451653786E-01  0.88846213540E+00  0.88000000000E+00 0.  1.
        -11    1    4    4    0    0  0.28522517759E-01 -0.22328827764E-02 -0.27862087359E-02  0.28749675910E-01  0.51100000000E-03 0. -1.
         11    1    4    4    0    0  0.92278333960E-01  0.22969500344E-02 -0.46359113579E-01  0.10329566995E+00  0.51100000000E-03 0.  1.
</event>
<event>
 7    1  0.1092667E+005  0.1043930E+01  0.7957747E-01            NaN
         13   -1    0    0    0    0  0.00000000000E+00  0.00000000000E+00  0.74505805969E-08  0.10566000000E+00  0.10566000000E+00 0.  1.
     999900   -1    0    0    0    0 -0.00000000000E+00 -0.00000000000E+00 -0.74505805969E-08  0.93827000000E+00  0.93827000000E+00 0.  1.
     999902    2    1    2    0    0  0.18114206949E-01  0.13762913414E-01 -0.23883423291E-02  0.10210554190E+01  0.10207991586E+01 0.  0.
         14    1    1    2    0    0 -0.18114206949E-01 -0.13762913414E-01  0.23883423291E-02  0.22874581047E-01  0.00000000000E+00 0.  1.
     999901    1    3    3    0    0 -0.12474679246E-01 -0.12781076710E-01 -0.11975053867E+00  0.88829002305E+00  0.88000000000E+00 0.  1.
        -11    1    3    3    0    0  0.17260459428E-01  0.11020171996E-01  0.88072972100E-02  0.22297920433E-01  0.51100000000E-03 0.  1.
         11    1    3    3    0    0  0.13328426767E-01  0.15523818127E-01  0.10855489913E+00  0.11046747547E+00  0.51100000000E-03 0. -1.
</event>
<event>
 8    1  0.1092667E+005  0.1043930E+01  0.7957747E-01            NaN
         13   -1    0    0    0    0  0.00000000000E+00  0.00000000000E+00  0.74505805969E-08  0.10566000000E+00  0.10566000000E+00 0.  1.
     999900   -1    0    0    0    0 -0.00000000000E+00 -0.00000000000E+00 -0.74505805969E-08  0.93827000000E+00  0.93827000000E+00 0. -1.
     999902    2    1    2    0    0 -0.63489372983E-02 -0.20775776838E-01  0.15152713531E-02  0.10221529948E+01  0.10219209885E+01 0.  0.
     999903    2    3    3    0    0  0.46228667171E-02  0.44647097187E-01 -0.12156425011E+00  0.13111477927E+00  0.19962070403E-01 0.  0.
         14    1    1    2    0    0  0.63489372983E-02  0.20775776838E-01 -0.15152713531E-02  0.21777005196E-01  0.00000000000E+00 0. -1.
     999901    1    3    3    0    0 -0.10971804015E-01 -0.65422874026E-01  0.12307952147E+00  0.89103821553E+00  0.88000000000E+00 0.  1.
        -11    1    4    4    0    0 -0.25614903816E-02  0.12250533295E-01 -0.58768856772E-01  0.60088904519E-01  0.51100000000E-03 0. -1.
         11    1    4    4    0    0  0.71843570988E-02  0.32396563893E-01 -0.62795393341E-01  0.71025874755E-01  0.51100000000E-03 0.  1.
</event>
<event>
 8    1  0.1092667E+005  0.1043930E+01  0.7957747E-01            NaN
         13   -1    0    0    0    0  0.00000000000E+00  0.00000000000E+00  0.74505805969E-08  0.10566000000E+00  0.10566000000E+00 0. -1.
     999900   -1    0    0    0    0 -0.00000000000E+00 -0.00000000000E+00 -0.74505805969E-08  0.93827000000E+00  0.93827000000E+00 0.  1.
     999902    2    1    2    0    0 -0.92590626890E-02  0.11017936229E-01 -0.18549844411E-01  0.10204518849E+01  0.10201817620E+01 0.  0.
     999903    2    3    3    0    0  0.50515066711E-01 -0.11062418025E+00  0.36196077009E-01  0.12839422592E+00  0.19632626898E-01 0.  0.
         14    1    1    2    0    0  0.92590626890E-02 -0.11017936229E-01  0.18549844411E-01  0.23478115092E-01  0.00000000000E+00 0. -1.
     999901    1    3    3    0    0 -0.59774129400E-01  0.12164211647E+00 -0.54745921420E-01  0.89205765899E+00  0.88000000000E+00 0.  1.
        -11    1    4    4    0    0  0.40299365847E-02 -0.57763740907E-02  0.72189130392E-02  0.10098550043E-01  0.51100000000E-03 0. -1.
         11    1    4    4    0    0  0.46485130127E-01 -0.10484780616E+00  0.28977163970E-01  0.11829567588E+00  0.51100000000E-03 0.  1.
</event>
<event>
 8    1  0.1390361E+005  0.1043930E+01  0.7957747E-01            NaN
         13   -1    0    0    0    0  0.00000000000E+00  0.00000000000E+00  0.74505805969E-08  0.10566000000E+00  0.10566000000E+00 0.  1.
     999900   -1    0    0    0    0 -0.00000000000E+00 -0.00000000000E+00 -0.74505805969E-08  0.93827000000E+00  0.93827000000E+00 0.  1.
     999902    2    1    2    0    0  0.27292911621E-02  0.24019308154E-02 -0.23996714688E-01  0.10196594290E+01  0.10193705364E+01 0.  0.
     999903    2    3    3    0    0  0.16807870786E-02 -0.18548388449E-01 -0.12983703600E+00  0.13306922553E+00  0.22425322853E-01 0.  0.
         14    1    1    2    0    0 -0.27292911621E-02 -0.24019308154E-02  0.23996714688E-01  0.24270571022E-01  0.00000000000E+00 0.  1.
     999901    1    3    3    0    0  0.10485040835E-02  0.20950319265E-01  0.10584032132E+00  0.88659020345E+00  0.88000000000E+00 0. -1.
        -11    1    4    4    0    0 -0.39086911319E-02 -0.13737226047E-02 -0.79114546843E-01  0.79224602387E-01  0.51100000000E-03 0.  1.
         11    1    4    4    0    0  0.55894782105E-02 -0.17174665844E-01 -0.50722489161E-01  0.53844623141E-01  0.51100000000E-03 0. -1.
</event>
<event>
 8    1  0.1092667E+005  0.1043930E+01  0.7957747E-01            NaN
         13   -1    0    0    0    0  0.00000000000E+00  0.00000000000E+00  0.74505805969E-08  0.10566000000E+00  0.10566000000E+00 0.  1.
     999900   -1    0    0    0    0 -0.00000000000E+00 -0.00000000000E+00 -0.74505805969E-08  0.93827000000E+00  0.93827000000E+00 0.  1.
     999902    2    1    2    0    0  0.55146788492E-02 -0.16861080074E-01  0.19876314586E-01  0.10172883862E+01  0.10169394697E+01 0.  0.
     999903    2    3    3    0    0 -0.40959859284E-01  0.55675213121E-01  0.10650725119E+00  0.12884800233E+00  0.21921991661E-01 0.  0.
         14    1    1    2    0    0 -0.55146788492E-02  0.16861080074E-01 -0.19876314586E-01  0.26641613795E-01  0.00000000000E+00 0.  1.
     999901    1    3    3    0    0  0.46474538133E-01 -0.72536293195E-01 -0.86630936608E-01  0.88844038388E+00  0.88000000000E+00 0.  1.
        -11    1    4    4    0    0 -0.20367858937E-01  0.40649421196E-01  0.54888374845E-01  0.71275661592E-01  0.51100000000E-03 0.  1.
         11    1    4    4    0    0 -0.20592000347E-01  0.15025791924E-01  0.51618876350E-01  0.57572340736E-01  0.51100000000E-03 0. -1.
</event>
<event>
 8    1  0.1092667E+005  0.1043930E+01  0.7957747E-01            NaN
         13   -1    0    0    0    0  0.00000000000E+00  0.00000000000E+00  0.74505805969E-08  0.10566000000E+00  0.10566000000E+00 0.  1.
     999900   -1    0    0    0    0 -0.00000000000E+00 -0.00000000000E+00 -0.74505805969E-08  0.93827000000E+00  0.93827000000E+00 0.  1.
     999902    2    1    2    0    0  0.11961923121E-01  0.19708756224E-01 -0.93679391132E-02  0.10190446437E+01  0.10187407447E+01 0.  0.
     999903    2    3    3    0    0 -0.71564578690E-01  0.91726452603E-01  0.54866419658E-01  0.12983753734E+00  0.17670061288E-01 0.  0.
         14    1    1    2    0    0 -0.11961923121E-01 -0.19708756224E-01  0.93679391132E-02  0.24885356334E-01  0.00000000000E+00 0.  1.
     999901    1    3    3    0    0  0.83526501811E-01 -0.72017696379E-01 -0.64234358771E-01  0.88920710633E+00  0.88000000000E+00 0.  1.
        -11    1    4    4    0    0 -0.16706990095E-01  0.25653006807E-01  0.65910439259E-02  0.31319375110E-01  0.51100000000E-03 0. -1.
         11    1    4    4    0    0 -0.54857588595E-01  0.66073445796E-01  0.48275375732E-01  0.98518162229E-01  0.51100000000E-03 0.  1.
</event>
<event>
 8    1  0.1092667E+005  0.1043930E+01  0.7957747E-01            NaN
         13   -1    0    0    0    0  0.00000000000E+00  0.00000000000E+00  0.74505805969E-08  0.10566000000E+00  0.10566000000E+00 0.  1.
     999900   -1    0    0    0    0 -0.00000000000E+00 -0.00000000000E+00 -0.74505805969E-08  0.93827000000E+00  0.93827000000E+00 0.  1.
     999902    2    1    2    0    0  0.90946501345E-02 -0.18920427937E-01 -0.69167960587E-02  0.10218271196E+01  0.10215880408E+01 0.  0.
     999903    2    3    3    0    0 -0.76888457649E-01 -0.49374706969E-01  0.92330113292E-01  0.13156282909E+00  0.20838223769E-01 0.  0.
         14    1    1    2    0    0 -0.90946501345E-02  0.18920427937E-01  0.69167960587E-02  0.22102880403E-01  0.00000000000E+00 0.  1.
     999901    1    3    3    0    0  0.85983107784E-01  0.30454279033E-01 -0.99246909351E-01  0.89026429051E+00  0.88000000000E+00 0.  1.
        -11    1    4    4    0    0 -0.13019468902E-01 -0.14785654607E-03  0.11358106824E-01  0.17285720803E-01  0.51100000000E-03 0.  1.
         11    1    4    4    0    0 -0.63868988748E-01 -0.49226850423E-01  0.80972006468E-01  0.11427710829E+00  0.51100000000E-03 0. -1.
</event>
<event>
 8    1  0.1092667E+005  0.1043930E+01  0.7957747E-01            NaN
         13   -1    0    0    0    0  0.00000000000E+00  0.00000000000E+00  0.74505805969E-08  0.10566000000E+00  0.10566000000E+00 0. -1.
     999900   -1    0    0    0    0 -0.00000000000E+00 -0.00000000000E+00 -0.74505805969E-08  0.93827000000E+00  0.93827000000E+00 0. -1.
     999902    2    1    2    0    0  0.11915609804E-01  0.91189194413E-02 -0.17190138803E-01  0.10211125216E+01  0.10208575534E+01 0.  0.
     999903    2    3    3    0    0 -0.11960900445E+00 -0.38998610914E-01 -0.25959102150E-01  0.12999473162E+00  0.19938647571E-01 0.  0.
         14    1    1    2    0    0 -0.11915609804E-01 -0.91189194413E-02  0.17190138803E-01  0.22817478407E-01  0.00000000000E+00 0. -1.
     999901    1    3    3    0    0  0.13152461425E+00  0.48117530355E-01  0.87689633474E-02  0.89111778997E+00  0.88000000000E+00 0. -1.
        -11    1    4    4    0    0 -0.61948143091E-01 -0.12792711639E-01 -0.57871279379E-02  0.63521475694E-01  0.51100000000E-03 0.  1.
         11    1    4    4    0    0 -0.57660861358E-01 -0.26205899274E-01 -0.20171974212E-01  0.66473255930E-01  0.51100000000E-03 0. -1.
</event>
<event>
 8    1  0.1092667E+005  0.1043930E+01  0.7957747E-01            NaN
         13   -1    0    0    0    0  0.00000000000E+00  0.00000000000E+00  0.74505805969E-08  0.10566000000E+00  0.10566000000E+00 0.  1.
     999900   -1    0    0    0    0 -0.00000000000E+00 -0.00000000000E+00 -0.74505805969E-08  0.93827000000E+00  0.93827000000E+00 0. -1.
     999902    2    1    2    0    0  0.43024538106E-02 -0.18485604480E-01  0.14738541251E-01  0.10198997424E+01  0.10196166099E+01 0.  0.
     999903    2    3    3    0    0  0.18205924354E-01 -0.10107070501E+00 -0.77984747504E-01  0.13107399256E+00  0.23495267374E-01 0.  0.
         14    1    1    2    0    0 -0.43024538106E-02  0.18485604480E-01 -0.14738541251E-01  0.24030257593E-01  0.00000000000E+00 0. -1.
     999901    1    3    3    0    0 -0.13903470543E-01  0.82585100527E-01  0.92723288755E-01  0.88882574985E+00  0.88000000000E+00 0.  1.
        -11    1    4    4    0    0  0.69910945820E-02 -0.58119517820E-01 -0.57936393869E-01  0.82362859412E-01  0.51100000000E-03 0. -1.
         11    1    4    4    0    0  0.11214829772E-01 -0.42951187187E-01 -0.20048353635E-01  0.48711133143E-01  0.51100000000E-03 0.  1.
</event>
<event>
 8    1  0.1092667E+005  0.1043930E+01  0.7957747E-01            NaN
         13   -1    0    0    0    0  0.00000000000E+00  0.00000000000E+00  0.74505805969E-08  0.10566000000E+00  0.10566000000E+00 0. -1.
     999900   -1    0    0    0    0 -0.00000000000E+00 -0.00000000000E+00 -0.74505805969E-08  0.93827000000E+00  0.93827000000E+00 0.  1.
     999902    2    1    2    0    0  0.19759868590E-01  0.12465597098E-01 -0.45062605629E-02  0.10201360953E+01  0.10198585701E+01 0.  0.
     999903    2    3    3    0    0 -0.10335260623E+00 -0.68490488930E-01 -0.22906529716E-01  0.12769610333E+00  0.20220717467E-01 0.  0.
         14    1    1    2    0    0 -0.19759868590E-01 -0.12465597098E-01  0.45062605629E-02  0.23793904723E-01  0.00000000000E+00 0.  1.
     999901    1    3    3    0    0  0.12311247482E+00  0.80956086027E-01  0.18400269153E-01  0.89243999195E+00  0.88000000000E+00 0. -1.
        -11    1    4    4    0    0 -0.71752038132E-01 -0.37410477983E-01 -0.10046501530E-01  0.81541965594E-01  0.51100000000E-03 0. -1.
         11    1    4    4    0    0 -0.31600568094E-01 -0.31080010947E-01 -0.12860028186E-01  0.46154137737E-01  0.51100000000E-03 0.  1.
</event>
<event>
 7    1  0.1092667E+005  0.1043930E+01  0.7957747E-01            NaN
         13   -1    0    0    0    0  0.00000000000E+00  0.00000000000E+00  0.74505805969E-08  0.10566000000E+00  0.10566000000E+00 0.  1.
     999900   -1    0    0    0    0 -0.00000000000E+00 -0.00000000000E+00 -0.74505805969E-08  0.93827000000E+00  0.93827000000E+00 0. -1.
     999903    2    1    2    0    0  0.74752288844E-01  0.24423164300E-01 -0.80119351590E-01  0.11593480427E+00  0.28937392768E-01 0.  0.
         14    1    1    2    0    0  0.28959709558E-01  0.35069260798E-02  0.27202907462E-01  0.39886858521E-01  0.00000000000E+00 0.  1.
     999901    1    1    2    0    0 -0.10371199840E+00 -0.27930090380E-01  0.52916444128E-01  0.88810833721E+00  0.88000000000E+00 0.  1.
        -11    1    3    3    0    0  0.61171351888E-01  0.14793902250E-01 -0.76187347230E-01  0.98820882583E-01  0.51100000000E-03 0. -1.
         11    1    3    3    0    0  0.13580936956E-01  0.96292620497E-02 -0.39320043594E-02  0.17113921687E-01  0.51100000000E-03 0.  1.
</event>
<event>
 8    1  0.1092667E+005  0.1043930E+01  0.7957747E-01            NaN
         13   -1    0    0    0    0  0.00000000000E+00  0.00000000000E+00  0.74505805969E-08  0.10566000000E+00  0.10566000000E+00 0. -1.
     999900   -1    0    0    0    0 -0.00000000000E+00 -0.00000000000E+00 -0.74505805969E-08  0.93827000000E+00  0.93827000000E+00 0.  1.
     999902    2    1    2    0    0  0.15377381121E-02 -0.18074169433E-01  0.69358705593E-02  0.10245097389E+01  0.10243256604E+01 0.  0.
     999903    2    3    3    0    0  0.33202233226E-01 -0.12539629921E+00 -0.37355801883E-01  0.13631920080E+00  0.18996010773E-01 0.  0.
         14    1    1    2    0    0 -0.15377381121E-02  0.18074169433E-01 -0.69358705593E-02  0.19420261059E-01  0.00000000000E+00 0.  1.
     999901    1    3    3    0    0 -0.31664495114E-01  0.10732212978E+00  0.44291672442E-01  0.88819053814E+00  0.88000000000E+00 0.  1.
        -11    1    4    4    0    0  0.12293179385E-01 -0.66488728042E-01 -0.27682618561E-01  0.73064777475E-01  0.51100000000E-03 0. -1.
         11    1    4    4    0    0  0.20909053841E-01 -0.58907571172E-01 -0.96731833218E-02  0.63254423328E-01  0.51100000000E-03 0.  1.
</event>
<event>
 8    1  0.1092667E+005  0.1043930E+01  0.7957747E-01            NaN
         13   -1    0    0    0    0  0.00000000000E+00  0.00000000000E+00  0.74505805969E-08  0.10566000000E+00  0.10566000000E+00 0. -1.
     999900   -1    0    0    0    0 -0.00000000000E+00 -0.00000000000E+00 -0.74505805969E-08  0.93827000000E+00  0.93827000000E+00 0.  1.
     999902    2    1    2    0    0 -0.83092769252E-02 -0.58165436366E-02 -0.21560137410E-01  0.10201032128E+01  0.10198249109E+01 0.  0.
     999903    2    3    3    0    0  0.10918750975E-01  0.38316260369E-01 -0.12505672816E+00  0.13273126951E+00  0.19774977053E-01 0.  0.
         14    1    1    2    0    0  0.83092769252E-02  0.58165436366E-02  0.21560137410E-01  0.23826787195E-01  0.00000000000E+00 0. -1.
     999901    1    3    3    0    0 -0.19228027901E-01 -0.44132804006E-01  0.10349659075E+00  0.88737194329E+00  0.88000000000E+00 0. -1.
        -11    1    4    4    0    0  0.56234667962E-02  0.38503853302E-01 -0.11401330389E+00  0.12047184187E+00  0.51100000000E-03 0.  1.
         11    1    4    4    0    0  0.52952841793E-02 -0.18759293251E-03 -0.11043424264E-01  0.12259427642E-01  0.51100000000E-03 0. -1.
</event>
<event>
 7    1  0.1092667E+005  0.1043930E+01  0.7957747E-01            NaN
         13   -1    0    0    0    0  0.00000000000E+00  0.00000000000E+00  0.74505805969E-08  0.10566000000E+00  0.10566000000E+00 0.  1.
     999900   -1    0    0    0    0 -0.00000000000E+00 -0.00000000000E+00 -0.74505805969E-08  0.93827000000E+00  0.93827000000E+00 0. -1.
     999902    2    1    2    0    0 -0.16814790730E-01 -0.12509461147E-01  0.13067316423E-01  0.10192322559E+01  0.10189329776E+01 0.  0.
         14    1    1    2    0    0  0.16814790730E-01  0.12509461147E-01 -0.13067316423E-01  0.24697744107E-01  0.00000000000E+00 0. -1.
     999901    1    3    3    0    0 -0.73845702314E-01 -0.11709532660E+00  0.55944452523E-01  0.89257732720E+00  0.88000000000E+00 0. -1.
        -11    1    3    3    0    0  0.40505698405E-01  0.74385180276E-01 -0.32076863584E-01  0.90570706890E-01  0.51100000000E-03 0. -1.
         11    1    3    3    0    0  0.16525213179E-01  0.30200685177E-01 -0.10800272515E-01  0.36084221804E-01  0.51100000000E-03 0.  1.
</event>
<event>
 8    1  0.1092667E+005  0.1043930E+01  0.7957747E-01            NaN
         13   -1    0    0    0    0  0.00000000000E+00  0.00000000000E+00  0.74505805969E-08  0.10566000000E+00  0.10566000000E+00 0. -1.
     999900   -1    0    0    0    0 -0.00000000000E+00 -0.00000000000E+00 -0.74505805969E-08  0.93827000000E+00  0.93827000000E+00 0.  1.
     999902    2    1    2    0    0  0.10369620740E-01 -0.10310121374E-01 -0.18710283338E-01  0.10201833720E+01  0.10199069616E+01 0.  0.
     999903    2    3    3    0    0  0.10091285212E+00 -0.45070264315E-01 -0.71688345908E-01  0.13327130233E+00  0.20181393307E-01 0.  0.
         14    1    1    2    0    0 -0.10369620740E-01  0.10310121374E-01  0.18710283338E-01  0.23746627963E-01  0.00000000000E+00 0.  1.
     999901    1    3    3    0    0 -0.90543231382E-01  0.34760142942E-01  0.52978062571E-01  0.88691206971E+00  0.88000000000E+00 0. -1.
        -11    1    4    4    0    0  0.26251042418E-01 -0.73651885688E-02 -0.27268454244E-01  0.38564140707E-01  0.51100000000E-03 0. -1.
         11    1    4    4    0    0  0.74661809704E-01 -0.37705075746E-01 -0.44419891665E-01  0.94707161618E-01  0.51100000000E-03 0.  1.
</event>
<event>
 8    1  0.1092667E+005  0.1043930E+01  0.7957747E-01            NaN
         13   -1    0    0    0    0  0.00000000000E+00  0.00000000000E+00  0.74505805969E-08  0.10566000000E+00  0.10566000000E+00 0. -1.
     999900   -1    0    0    0    0 -0.00000000000E+00 -0.00000000000E+00 -0.74505805969E-08  0.93827000000E+00  0.93827000000E+00 0. -1.
     999902    2    1    2    0    0  0.78370855831E-02  0.13371413675E-01 -0.19076467286E-01  0.10193510208E+01  0.10190546489E+01 0.  0.
     999903    2    3    3    0    0 -0.83319864493E-01  0.17703408634E-01 -0.97514907580E-01  0.13116131999E+00  0.20940968547E-01 0.  0.
         14    1    1    2    0    0 -0.78370855831E-02 -0.13371413675E-01  0.19076467286E-01  0.24578979194E-01  0.00000000000E+00 0. -1.
     999901    1    3    3    0    0  0.91156950076E-01 -0.43319949583E-02  0.78438440294E-01  0.88818970082E+00  0.88000000000E+00 0.  1.
        -11    1    4    4    0    0 -0.53857700398E-01  0.27188623147E-02 -0.68461344189E-01  0.87150793878E-01  0.51100000000E-03 0.  1.
         11    1    4    4    0    0 -0.29462164096E-01  0.14984546319E-01 -0.29053563391E-01  0.44010526108E-01  0.51100000000E-03 0. -1.
</event>
<event>
 8    1  0.1092667E+005  0.1043930E+01  0.7957747E-01            NaN
         13   -1    0    0    0    0  0.00000000000E+00  0.00000000000E+00  0.74505805969E-08  0.10566000000E+00  0.10566000000E+00 0.  1.
     999900   -1    0    0    0    0 -0.00000000000E+00 -0.00000000000E+00 -0.74505805969E-08  0.93827000000E+00  0.93827000000E+00 0. -1.
     999902    2    1    2    0    0 -0.10034828846E-01  0.81411728115E-02  0.24176659530E-01  0.10165167304E+01  0.10161470247E+01 0.  0.
     999903    2    3    3    0    0 -0.10332616727E-01  0.82109866446E-01  0.98562145599E-01  0.13028614140E+00  0.20277794765E-01 0.  0.
         14    1    1    2    0    0  0.10034828846E-01 -0.81411728115E-02 -0.24176659530E-01  0.27413269611E-01  0.00000000000E+00 0. -1.
     999901    1    3    3    0    0  0.29778788044E-03 -0.73968693635E-01 -0.74385486069E-01  0.88623058899E+00  0.88000000000E+00 0. -1.
        -11    1    4    4    0    0 -0.15222568037E-01  0.62708780973E-01  0.67934246608E-01  0.93698670066E-01  0.51100000000E-03 0. -1.
         11    1    4    4    0    0  0.48899513100E-02  0.19401085473E-01  0.30627898990E-01  0.36587471338E-01  0.51100000000E-03 0.  1.
</event>
<event>
 8    1  0.1092667E+005  0.1043930E+01  0.7957747E-01            NaN
         13   -1    0    0    0    0  0.00000000000E+00  0.00000000000E+00  0.74505805969E-08  0.10566000000E+00  0.10566000000E+00 0.  1.
     999900   -1    0    0    0    0 -0.00000000000E+00 -0.00000000000E+00 -0.74505805969E-08  0.93827000000E+00  0.93827000000E+00 0. -1.
     999902    2    1    2    0    0  0.25259330112E-01  0.96078500375E-02 -0.92341481608E-02  0.10153710429E+01  0.10149693299E+01 0.  0.
     999903    2    3    3    0    0 -0.93963215279E-01 -0.38723221656E-01  0.65758772044E-01  0.12286118528E+00  0.21025722963E-01 0.  0.
         14    1    1    2    0    0 -0.25259330112E-01 -0.96078500375E-02  0.92341481608E-02  0.28558957129E-01  0.00000000000E+00 0. -1.
     999901    1    3    3    0    0  0.11922254539E+00  0.48331071693E-01 -0.74992920204E-01  0.89250985759E+00  0.88000000000E+00 0.  1.
        -11    1    4    4    0    0 -0.13571941863E-01 -0.12816204046E-01  0.17448952874E-01  0.25557381898E-01  0.51100000000E-03 0.  1.
         11    1    4    4    0    0 -0.80391273416E-01 -0.25907017610E-01  0.48309819170E-01  0.97303803380E-01  0.51100000000E-03 0. -1.
</event>
<event>
 7    1  0.1092667E+005  0.1043930E+01  0.7957747E-01            NaN
         13   -1    0    0    0    0  0.00000000000E+00  0.00000000000E+00  0.74505805969E-08  0.10566000000E+00  0.10566000000E+00 0. -1.
     999900   -1    0    0    0    0 -0.00000000000E+00 -0.00000000000E+00 -0.74505805969E-08  0.93827000000E+00  0.93827000000E+00 0. -1.
     999902    2    1    2    0    0 -0.15457292669E-02 -0.22347932392E-01  0.13038667105E-02  0.10214907614E+01  0.10212442686E+01 0.  0.
         14    1    1    2    0    0  0.15457292669E-02  0.22347932392E-01 -0.13038667105E-02  0.22439238614E-01  0.00000000000E+00 0.  1.
     999901    1    3    3    0    0  0.20236443445E-01 -0.36881763316E-01 -0.12163686918E+00  0.88936230303E+00  0.88000000000E+00 0. -1.
        -11    1    3    3    0    0  0.11503221497E-02 -0.12127247360E-01  0.44950117487E-01  0.46574322891E-01  0.51100000000E-03 0. -1.
         11    1    3    3    0    0 -0.22932494862E-01  0.26661078284E-01  0.77990618400E-01  0.85554135465E-01  0.51100000000E-03 0.  1.
</event>
<event>
 8    1  0.1092667E+005  0.1043930E+01  0.7957747E-01            NaN
         13   -1    0    0    0    0  0.00000000000E+00  0.00000000000E+00  0.74505805969E-08  0.10566000000E+00  0.10566000000E+00 0.  1.
     999900   -1    0    0    0    0 -0.00000000000E+00 -0.00000000000E+00 -0.74505805969E-08  0.93827000000E+00  0.93827000000E+00 0.  1.
     999902    2    1    2    0    0  0.15699218625E-01 -0.14979029754E-01 -0.93716844180E-02  0.10202938991E+01  0.10200200857E+01 0.  0.
     999903    2    3    3    0    0 -0.55035020862E-01 -0.60919265454E-01  0.98392675664E-01  0.12971712238E+00  0.20134616712E-01 0.  0.
         14    1    1    2    0    0 -0.15699218625E-01  0.14979029754E-01  0.93716844180E-02  0.23636100918E-01  0.00000000000E+00 0. -1.
     999901    1    3    3    0    0  0.70734239486E-01  0.45940235700E-01 -0.10776436008E+00  0.89057677670E+00  0.88000000000E+00 0.  1.
        -11    1    4    4    0    0 -0.13627930905E-01 -0.10008805608E-01  0.32946339431E-01  0.37035376241E-01  0.51100000000E-03 0.  1.
         11    1    4    4    0    0 -0.41407089956E-01 -0.50910459846E-01  0.65446336234E-01  0.92681746141E-01  0.51100000000E-03 0. -1.
</event>
<event>
 8    1  0.1092667E+005  0.1043930E+01  0.7957747E-01            NaN
         13   -1    0    0    0    0  0.00000000000E+00  0.00000000000E+00  0.74505805969E-08  0.10566000000E+00  0.10566000000E+00 0.  1.
     999900   -1    0    0    0    0 -0.00000000000E+00 -0.00000000000E+00 -0.74505805969E-08  0.93827000000E+00  0.93827000000E+00 0. -1.
     999902    2    1    2    0    0  0.14148388356E-01  0.11204188953E-01  0.13646577020E-01  0.10213039131E+01  0.10210532519E+01 0.  0.
     999903    2    3    3    0    0 -0.22281557198E-01  0.12244422097E+00  0.42073059194E-01  0.13309810896E+00  0.21352031717E-01 0.  0.
         14    1    1    2    0    0 -0.14148388356E-01 -0.11204188953E-01 -0.13646577020E-01  0.22626086880E-01  0.00000000000E+00 0. -1.
     999901    1    3    3    0    0  0.36429945554E-01 -0.11124003202E+00 -0.28426482174E-01  0.88820580416E+00  0.88000000000E+00 0.  1.
        -11    1    4    4    0    0 -0.79404735763E-02  0.43700059523E-01  0.44047574603E-02  0.44636412628E-01  0.51100000000E-03 0. -1.
         11    1    4    4    0    0 -0.14341083622E-01  0.78744161446E-01  0.37668301734E-01  0.88461696331E-01  0.51100000000E-03 0.  1.
</event>
<event>
 8    1  0.1092667E+005  0.1043930E+01  0.7957747E-01            NaN
         13   -1    0    0    0    0  0.00000000000E+00  0.00000000000E+00  0.74505805969E-08  0.10566000000E+00  0.10566000000E+00 0.  1.
     999900   -1    0    0    0    0 -0.00000000000E+00 -0.00000000000E+00 -0.74505805969E-08  0.93827000000E+00  0.93827000000E+00 0. -1.
     999902    2    1    2    0    0 -0.62436853496E-03  0.32436279883E-01  0.16333327087E-02  0.10114466217E+01  0.10109248729E+01 0.  0.
     999903    2    3    3    0    0 -0.93184873476E-02  0.59769639314E-01 -0.10679414862E+00  0.12432812966E+00  0.19830523348E-01 0.  0.
         14    1    1    2    0    0  0.62436853496E-03 -0.32436279883E-01 -0.16333327087E-02  0.32483378279E-01  0.00000000000E+00 0. -1.
     999901    1    3    3    0    0  0.86941188126E-02 -0.27333359431E-01  0.10842748133E+00  0.88711849206E+00  0.88000000000E+00 0.  1.
        -11    1    4    4    0    0 -0.99614477370E-02  0.51794029952E-01 -0.76018874354E-01  0.92525576781E-01  0.51100000000E-03 0. -1.
         11    1    4    4    0    0  0.64296038943E-03  0.79756093628E-02 -0.30775274266E-01  0.31802552884E-01  0.51100000000E-03 0.  1.
</event>
<event>
 8    1  0.1109892E+005  0.1043930E+01  0.7957747E-01            NaN
         13   -1    0    0    0    0  0.00000000000E+00  0.00000000000E+00  0.74505805969E-08  0.10566000000E+00  0.10566000000E+00 0.  1.
     999900   -1    0    0    0    0 -0.00000000000E+00 -0.00000000000E+00 -0.74505805969E-08  0.93827000000E+00  0.93827000000E+00 0.  1.
     999902    2    1    2    0    0 -0.24981399097E-01  0.33088813795E-02 -0.79667975883E-02  0.10175010602E+01  0.10171577648E+01 0.  0.
     999903    2    3    3    0    0  0.50697019285E-01  0.37393906200E-01 -0.10931873549E+00  0.12780379298E+00  0.20364959743E-01 0.  0.
         14    1    1    2    0    0  0.24981399097E-01 -0.33088813795E-02  0.79667975883E-02  0.26428939832E-01  0.00000000000E+00 0.  1.
     999901    1    3    3    0    0 -0.75678418382E-01 -0.34085024821E-01  0.10135193790E+00  0.88969726719E+00  0.88000000000E+00 0. -1.
        -11    1    4    4    0    0  0.40285471382E-01  0.21308689939E-01 -0.63736561581E-01  0.78355535060E-01  0.51100000000E-03 0. -1.
         11    1    4    4    0    0  0.10411547903E-01  0.16085216261E-01 -0.45582173910E-01  0.49448257920E-01  0.51100000000E-03 0.  1.
</event>
<event>
 8    1  0.1092667E+005  0.1043930E+01  0.7957747E-01            NaN
         13   -1    0    0    0    0  0.00000000000E+00  0.00000000000E+00  0.74505805969E-08  0.10566000000E+00  0.10566000000E+00 0. -1.
     999900   -1    0    0    0    0 -0.00000000000E+00 -0.00000000000E+00 -0.74505805969E-08  0.93827000000E+00  0.93827000000E+00 0. -1.
     999902    2    1    2    0    0 -0.18326414559E-02 -0.20690931454E-01 -0.12576847965E-01  0.10196472834E+01  0.10193580982E+01 0.  0.
     999903    2    3    3    0    0  0.64122238563E-01 -0.11341676131E+00 -0.12248088697E-01  0.13232083065E+00  0.19589878058E-01 0.  0.
         14    1    1    2    0    0  0.18326414559E-02  0.20690931454E-01  0.12576847965E-01  0.24282716568E-01  0.00000000000E+00 0.  1.
     999901    1    3    3    0    0 -0.65954880019E-01  0.92725829860E-01 -0.32875926832E-03  0.88732645278E+00  0.88000000000E+00 0. -1.
        -11    1    4    4    0    0  0.11852310416E-01 -0.32407425468E-01 -0.98182913942E-02  0.35880056502E-01  0.51100000000E-03 0. -1.
         11    1    4    4    0    0  0.52269928147E-01 -0.81009335846E-01 -0.24297973029E-02  0.96440774150E-01  0.51100000000E-03 0.  1.
</event>
<event>
 8    1  0.1092667E+005  0.1043930E+01  0.7957747E-01            NaN
         13   -1    0    0    0    0  0.00000000000E+00  0.00000000000E+00  0.74505805969E-08  0.10566000000E+00  0.10566000000E+00 0. -1.
     999900   -1    0    0    0    0 -0.00000000000E+00 -0.00000000000E+00 -0.74505805969E-08  0.93827000000E+00  0.93827000000E+00 0. -1.
     999902    2    1    2    0    0 -0.76409424665E-02 -0.28465909509E-02 -0.22248824770E-01  0.10202340661E+01  0.10199588483E+01 0.  0.
     999903    2    3    3    0    0  0.35138280118E-01 -0.98355092150E-01 -0.78704549596E-01  0.13223677746E+00  0.19589188466E-01 0.  0.
         14    1    1    2    0    0  0.76409424665E-02  0.28465909509E-02  0.22248824770E-01  0.23695933944E-01  0.00000000000E+00 0. -1.
     999901    1    3    3    0    0 -0.42779222584E-01  0.95508501199E-01  0.56455724826E-01  0.88799728859E+00  0.88000000000E+00 0.  1.
        -11    1    4    4    0    0  0.22350439350E-01 -0.74401095392E-01 -0.67287276608E-01  0.10277598868E+00  0.51100000000E-03 0. -1.
         11    1    4    4    0    0  0.12787840767E-01 -0.23953996757E-01 -0.11417272988E-01  0.29460788782E-01  0.51100000000E-03 0.  1.
</event>
<event>
 8    1  0.1092667E+005  0.1043930E+01  0.7957747E-01            NaN
         13   -1    0    0    0    0  0.00000000000E+00  0.00000000000E+00  0.74505805969E-08  0.10566000000E+00  0.10566000000E+00 0.  1.
     999900   -1    0    0    0    0 -0.00000000000E+00 -0.00000000000E+00 -0.74505805969E-08  0.93827000000E+00  0.93827000000E+00 0. -1.
     999902    2    1    2    0    0 -0.99514439090E-02 -0.16263134107E-01  0.10468297955E-01  0.10221789994E+01  0.10219475528E+01 0.  0.
     999903    2    3    3    0    0 -0.40808169381E-01  0.40277443655E-01  0.11865395381E+00  0.13321718321E+00  0.19505845048E-01 0.  0.
         14    1    1    2    0    0  0.99514439090E-02  0.16263134107E-01 -0.10468297955E-01  0.21751000642E-01  0.00000000000E+00 0. -1.
     999901    1    3    3    0    0  0.30856725472E-01 -0.56540577762E-01 -0.10818565586E+00  0.88896181615E+00  0.88000000000E+00 0. -1.
        -11    1    4    4    0    0 -0.18676502372E-01  0.11203533166E-01  0.62799056646E-01  0.66470395913E-01  0.51100000000E-03 0.  1.
         11    1    4    4    0    0 -0.22131667009E-01  0.29073910489E-01  0.55854897166E-01  0.66746787294E-01  0.51100000000E-03 0. -1.
</event>
<event>
 8    1  0.1092667E+005  0.1043930E+01  0.7957747E-01            NaN
         13   -1    0    0    0    0  0.00000000000E+00  0.00000000000E+00  0.74505805969E-08  0.10566000000E+00  0.10566000000E+00 0. -1.
     999900   -1    0    0    0    0 -0.00000000000E+00 -0.00000000000E+00 -0.74505805969E-08  0.93827000000E+00  0.93827000000E+00 0.  1.
     999902    2    1    2    0    0  0.37977188044E-02  0.10915389364E-01  0.21310471264E-01  0.10196873809E+01  0.10193991614E+01 0.  0.
     999903    2    3    3    0    0  0.39994273746E-01  0.12355963274E+00  0.76596083224E-02  0.13166414802E+00  0.20254715482E-01 0.  0.
         14    1    1    2    0    0 -0.37977188044E-02 -0.10915389364E-01 -0.21310471264E-01  0.24242619053E-01  0.00000000000E+00 0.  1.
     999901    1    3    3    0    0 -0.36196554941E-01 -0.11264424338E+00  0.13650862941E-01  0.88802323292E+00  0.88000000000E+00 0.  1.
        -11    1    4    4    0    0  0.13779297444E-01  0.31169815181E-01 -0.61627295055E-02  0.34636206092E-01  0.51100000000E-03 0. -1.
         11    1    4    4    0    0  0.26214976301E-01  0.92389817559E-01  0.13822337828E-01  0.97027941930E-01  0.51100000000E-03 0.  1.
</event>
<event>
 8    1  0.1092667E+005  0.1043930E+01  0.7957747E-01            NaN
         13   -1    0    0    0    0  0.00000000000E+00  0.00000000000E+00  0.74505805969E-08  0.10566000000E+00  0.10566000000E+00 0. -1.
     999900   -1    0    0    0    0 -0.00000000000E+00 -0.00000000000E+00 -0.74505805969E-08  0.93827000000E+00  0.93827000000E+00 0.  1.
     999902    2    1    2    0    0  0.21240497381E-01  0.25414056837E-02  0.10526469304E-01  0.10200883552E+01  0.10198097020E+01 0.  0.
     999903    2    3    3    0    0 -0.65352397488E-01  0.85903326757E-01 -0.66842884429E-01  0.12855397209E+00  0.20194928484E-01 0.  0.
         14    1    1    2    0    0 -0.21240497381E-01 -0.25414056837E-02 -0.10526469304E-01  0.23841644822E-01  0.00000000000E+00 0.  1.
     999901    1    3    3    0    0  0.86592894869E-01 -0.83361921073E-01  0.77369353733E-01  0.89153438309E+00  0.88000000000E+00 0. -1.
        -11    1    4    4    0    0 -0.49241360816E-01  0.67970973878E-01 -0.41717250433E-01  0.93730224633E-01  0.51100000000E-03 0. -1.
         11    1    4    4    0    0 -0.16111036672E-01  0.17932352878E-01 -0.25125633996E-01  0.34823747459E-01  0.51100000000E-03 0.  1.
</event>
<event>
 8    1  0.1092667E+005  0.1043930E+01  0.7957747E-01            NaN
         13   -1    0    0    0    0  0.00000000000E+00  0.00000000000E+00  0.74505805969E-08  0.10566000000E+00  0.10566000000E+00 0.  1.
     999900   -1    0    0    0    0 -0.00000000000E+00 -0.00000000000E+00 -0.74505805969E-08  0.93827000000E+00  0.93827000000E+00 0. -1.
     999902    2    1    2    0    0  0.21308150065E-01 -0.51672538344E-02  0.85536503823E-02  0.10203948623E+01  0.10201234103E+01 0.  0.
     999903    2    3    3    0    0  0.10675212911E+00 -0.15353147376E-01  0.76424701093E-01  0.13359674238E+00  0.19380878048E-01 0.  0.
         14    1    1    2    0    0 -0.21308150065E-01  0.51672538344E-02 -0.85536503823E-02  0.23535137693E-01  0.00000000000E+00 0. -1.
     999901    1    3    3    0    0 -0.85443979043E-01  0.10185893541E-01 -0.67871050711E-01  0.88679811993E+00  0.88000000000E+00 0. -1.
        -11    1    4    4    0    0  0.24571833592E-01 -0.11902182656E-01  0.18057371633E-01  0.32737848881E-01  0.51100000000E-03 0. -1.
         11    1    4    4    0    0  0.82180295515E-01 -0.34509647202E-02  0.58367329461E-01  0.10085889350E+00  0.51100000000E-03 0.  1.
</event>
<event>
 8    1  0.1092667E+005  0.1043930E+01  0.7957747E-01            NaN
         13   -1    0    0    0    0  0.00000000000E+00  0.00000000000E+00  0.74505805969E-08  0.10566000000E+00  0.10566000000E+00 0. -1.
     999900   -1    0    0    0    0 -0.00000000000E+00 -0.00000000000E+00 -0.74505805969E-08  0.93827000000E+00  0.93827000000E+00 0.  1.
     999902    2    1    2    0    0 -0.18298682095E-01 -0.82191957217E-02 -0.10701824296E-01  0.10211939936E+01  0.10209408634E+01 0.  0.
     999903    2    3    3    0    0  0.94528693145E-01  0.12305270887E-01 -0.86864367994E-01  0.13049089861E+00  0.19883728840E-01 0.  0.
         14    1    1    2    0    0  0.18298682095E-01  0.82191957217E-02  0.10701824296E-01  0.22736006421E-01  0.00000000000E+00 0.  1.
     999901    1    3    3    0    0 -0.11282737524E+00 -0.20524466609E-01  0.76162543698E-01  0.89070309497E+00  0.88000000000E+00 0. -1.
        -11    1    4    4    0    0  0.57359692858E-01  0.15016817931E-01 -0.44984914987E-01  0.74428105464E-01  0.51100000000E-03 0.  1.
         11    1    4    4    0    0  0.37169000287E-01 -0.27115470440E-02 -0.41879453006E-01  0.56062793142E-01  0.51100000000E-03 0. -1.
</event>
<event>
 8    1  0.1092667E+005  0.1043930E+01  0.7957747E-01            NaN
         13   -1    0    0    0    0  0.00000000000E+00  0.00000000000E+00  0.74505805969E-08  0.10566000000E+00  0.10566000000E+00 0. -1.
     999900   -1    0    0    0    0 -0.00000000000E+00 -0.00000000000E+00 -0.74505805969E-08  0.93827000000E+00  0.93827000000E+00 0.  1.
     999902    2    1    2    0    0 -0.19317892497E-01 -0.10528761111E-01  0.11584431781E-01  0.10190656713E+01  0.10187622920E+01 0.  0.
     999903    2    3    3    0    0 -0.18045336518E-01  0.12440820289E+00 -0.16480760081E-01  0.12833717248E+00  0.19894201964E-01 0.  0.
         14    1    1    2    0    0  0.19317892497E-01  0.10528761111E-01 -0.11584431781E-01  0.24864328681E-01  0.00000000000E+00 0.  1.
     999901    1    3    3    0    0 -0.12725559787E-02 -0.13493696400E+00  0.28065191862E-01  0.89072849884E+00  0.88000000000E+00 0. -1.
        -11    1    4    4    0    0 -0.13508575203E-01  0.38694354658E-01 -0.10400655300E-01  0.42286752513E-01  0.51100000000E-03 0. -1.
         11    1    4    4    0    0 -0.45367613151E-02  0.85713848228E-01 -0.60801047815E-02  0.86050419967E-01  0.51100000000E-03 0.  1.
</event>
<event>
 8    1  0.1092667E+005  0.1043930E+01  0.7957747E-01            NaN
         13   -1    0    0    0    0  0.00000000000E+00  0.00000000000E+00  0.74505805969E-08  0.10566000000E+00  0.10566000000E+00 0.  1.
     999900   -1    0    0    0    0 -0.00000000000E+00 -0.00000000000E+00 -0.74505805969E-08  0.93827000000E+00  0.93827000000E+00 0.  1.
     999902    2    1    2    0    0 -0.82168419468E-02 -0.22004670778E-01  0.39608408608E-02  0.10201096245E+01  0.10198314742E+01 0.  0.
     999903    2    3    3    0    0  0.61326254478E-01  0.80779591865E-01  0.76085881043E-01  0.12848029104E+00  0.20781528838E-01 0.  0.
         14    1    1    2    0    0  0.82168419468E-02  0.22004670778E-01 -0.39608408608E-02  0.23820375478E-01  0.00000000000E+00 0.  1.
     999901    1    3    3    0    0 -0.69543096425E-01 -0.10278426264E+00 -0.72125040182E-01  0.89162933348E+00  0.88000000000E+00 0.  1.
        -11    1    4    4    0    0  0.25414056450E-01  0.44525009589E-01  0.47984642219E-01  0.70222060309E-01  0.51100000000E-03 0.  1.
         11    1    4    4    0    0  0.35912198028E-01  0.36254582276E-01  0.28101238824E-01  0.58258230729E-01  0.51100000000E-03 0. -1.
</event>
<event>
 8    1  0.1092667E+005  0.1043930E+01  0.7957747E-01            NaN
         13   -1    0    0    0    0  0.00000000000E+00  0.00000000000E+00  0.74505805969E-08  0.10566000000E+00  0.10566000000E+00 0. -1.
     999900   -1    0    0    0    0 -0.00000000000E+00 -0.00000000000E+00 -0.74505805969E-08  0.93827000000E+00  0.93827000000E+00 0. -1.
     999902    2    1    2    0    0  0.14628965443E-01 -0.16288908022E-01 -0.22334397001E-02  0.10219226511E+01  0.10216856568E+01 0.  0.
     999903    2    3    3    0    0 -0.12409968341E+00 -0.45056081223E-03  0.34443112254E-01  0.13015941975E+00  0.18820524432E-01 0.  0.
         14    1    1    2    0    0 -0.14628965443E-01  0.16288908022E-01  0.22334397001E-02  0.22007348940E-01  0.00000000000E+00 0.  1.
     999901    1    3    3    0    0  0.13872864885E+00 -0.15838347209E-01 -0.36676551954E-01  0.89176323131E+00  0.88000000000E+00 0. -1.
        -11    1    4    4    0    0 -0.10398223700E+00  0.62602593930E-02  0.30850518082E-01  0.10864396921E+00  0.51100000000E-03 0.  1.
         11    1    4    4    0    0 -0.20117446408E-01 -0.67108202052E-02  0.35925941725E-02  0.21515450535E-01  0.51100000000E-03 0. -1.
</event>
<event>
 8    1  0.1092667E+005  0.1043930E+01  0.7957747E-01            NaN
         13   -1    0    0    0    0  0.00000000000E+00  0.00000000000E+00  0.74505805969E-08  0.10566000000E+00  0.10566000000E+00 0.  1.
     999900   -1    0    0    0    0 -0.00000000000E+00 -0.00000000000E+00 -0.74505805969E-08  0.93827000000E+00  0.93827000000E+00 0.  1.
     999902    2    1    2    0    0  0.13286915958E-01  0.11473887248E-01  0.16595733583E-01  0.10197719662E+01  0.10194857784E+01 0.  0.
     999903    2    3    3    0    0 -0.91107308046E-01  0.90120696999E-01 -0.60536365908E-02  0.12983013177E+00  0.19923227452E-01 0.  0.
         14    1    1    2    0    0 -0.13286915958E-01 -0.11473887248E-01 -0.16595733583E-01  0.24158033807E-01  0.00000000000E+00 0. -1.
     999901    1    3    3    0    0  0.10439422400E+00 -0.78646809751E-01  0.22649370174E-01  0.88994183442E+00  0.88000000000E+00 0.  1.
        -11    1    4    4    0    0 -0.91496705389E-01  0.86661680242E-01 -0.48710640346E-02  0.12611852483E+00  0.51100000000E-03 0. -1.
         11    1    4    4    0    0  0.38939734309E-03  0.34590167575E-02 -0.11825725561E-02  0.37116069391E-02  0.51100000000E-03 0.  1.
</event>
<event>
 8    1  0.1092667E+005  0.1043930E+01  0.7957747E-01            NaN
         13   -1    0    0    0    0  0.00000000000E+00  0.00000000000E+00  0.74505805969E-08  0.10566000000E+00  0.10566000000E+00 0. -1.
     999900   -1    0    0    0    0 -0.00000000000E+00 -0.00000000000E+00 -0.74505805969E-08  0.93827000000E+00  0.93827000000E+00 0. -1.
     999902    2    1    2    0    0  0.52118375077E-02 -0.22389691350E-01 -0.20037108911E-01  0.10134349633E+01  0.10129760499E+01 0.  0.
     999903    2    3    3    0    0  0.48480883474E-01  0.18165026544E-01 -0.11365401050E+00  0.12648455898E+00  0.20018623978E-01 0.  0.
         14    1    1    2    0    0 -0.52118375077E-02  0.22389691350E-01  0.20037108911E-01  0.30495036686E-01  0.00000000000E+00 0. -1.
     999901    1    3    3    0    0 -0.43269045966E-01 -0.40554717894E-01  0.93616901590E-01  0.88695040433E+00  0.88000000000E+00 0.  1.
        -11    1    4    4    0    0  0.81912568267E-02  0.95553313604E-02 -0.41788150510E-01  0.43645294017E-01  0.51100000000E-03 0. -1.
         11    1    4    4    0    0  0.40289626647E-01  0.86096951834E-02 -0.71865859992E-01  0.82839264965E-01  0.51100000000E-03 0.  1.
</event>
<event>
 8    1  0.1092667E+005  0.1043930E+01  0.7957747E-01            NaN
         13   -1    0    0    0    0  0.00000000000E+00  0.00000000000E+00  0.74505805969E-08  0.10566000000E+00  0.10566000000E+00 0. -1.
     999900   -1    0    0    0    0 -0.00000000000E+00 -0.00000000000E+00 -0.74505805969E-08  0.93827000000E+00  0.93827000000E+00 0.  1.
     999902    2    1    2    0    0  0.37745744044E-02 -0.11216901404E-01  0.21078841867E-01  0.10197559672E+01  0.10194693957E+01 0.  0.
     999903    2    3    3    0    0 -0.27379125892E-01  0.53914434012E-01  0.11457096784E+00  0.13186328136E+00  0.24597470755E-01 0.  0.
         14    1    1    2    0    0 -0.37745744044E-02  0.11216901404E-01 -0.21078841867E-01  0.24174032834E-01  0.00000000000E+00 0.  1.
     999901    1    3    3    0    0  0.31153700296E-01 -0.65131335417E-01 -0.93492125978E-01  0.88789268581E+00  0.88000000000E+00 0.  1.
        -11    1    4    4    0    0 -0.22327366827E-01  0.53151507510E-01  0.11232967581E+00  0.12626088566E+00  0.51100000000E-03 0. -1.
         11    1    4    4    0    0 -0.50517590650E-02  0.76292650232E-03  0.22412920336E-02  0.56023956911E-02  0.51100000000E-03 0.  1.
</event>
<event>
 8    1  0.1092667E+005  0.1043930E+01  0.7957747E-01            NaN
         13   -1    0    0    0    0  0.00000000000E+00  0.00000000000E+00  0.74505805969E-08  0.10566000000E+00  0.10566000000E+00 0.  1.
     999900   -1    0    0    0    0 -0.00000000000E+00 -0.00000000000E+00 -0.74505805969E-08  0.93827000000E+00  0.93827000000E+00 0. -1.
     999902    2    1    2    0    0 -0.87767803098E-02  0.15105197750E-01  0.15865862523E-01  0.10203307529E+01  0.10200578027E+01 0.  0.
     999903    2    3    3    0    0 -0.56645452874E-01  0.10255424363E+00  0.59614700764E-01  0.13362183429E+00  0.23975025227E-01 0.  0.
         14    1    1    2    0    0  0.87767803098E-02 -0.15105197750E-01 -0.15865862523E-01  0.23599247134E-01  0.00000000000E+00 0. -1.
     999901    1    3    3    0    0  0.47868672564E-01 -0.87449045876E-01 -0.43748838240E-01  0.88670891858E+00  0.88000000000E+00 0.  1.
        -11    1    4    4    0    0 -0.39894879138E-01  0.87242268483E-01  0.54571606871E-01  0.11036818468E+00  0.51100000000E-03 0. -1.
         11    1    4    4    0    0 -0.16750573735E-01  0.15311975143E-01  0.50430938925E-02  0.23253649611E-01  0.51100000000E-03 0.  1.
</event>
<event>
 8    1  0.1414422E+005  0.1043930E+01  0.7957747E-01            NaN
         13   -1    0    0    0    0  0.00000000000E+00  0.00000000000E+00  0.74505805969E-08  0.10566000000E+00  0.10566000000E+00 0. -1.
     999900   -1    0    0    0    0 -0.00000000000E+00 -0.00000000000E+00 -0.74505805969E-08  0.93827000000E+00  0.93827000000E+00 0. -1.
     999902    2    1    2    0    0 -0.79354587760E-02 -0.14694259873E-02 -0.21063278390E-01  0.10213735726E+01  0.10211244696E+01 0.  0.
     999903    2    3    3    0    0 -0.97756898057E-01  0.86106695457E-01  0.67278843637E-02  0.13204246629E+00  0.20473747934E-01 0.  0.
         14    1    1    2    0    0  0.79354587760E-02  0.14694259873E-02  0.21063278390E-01  0.22556427360E-01  0.00000000000E+00 0. -1.
     999901    1    3    3    0    0  0.89821439281E-01 -0.87576121444E-01 -0.27791162754E-01  0.88933110635E+00  0.88000000000E+00 0. -1.
        -11    1    4    4    0    0 -0.32666347495E-01  0.28016103622E-01  0.11876486606E-01  0.44646437438E-01  0.51100000000E-03 0. -1.
         11    1    4    4    0    0 -0.65090550563E-01  0.58090591835E-01 -0.51486022425E-02  0.87396028848E-01  0.51100000000E-03 0.  1.
</event>
<event>
 8    1  0.1092667E+005  0.1043930E+01  0.7957747E-01            NaN
         13   -1    0    0    0    0  0.00000000000E+00  0.00000000000E+00  0.74505805969E-08  0.10566000000E+00  0.10566000000E+00 0.  1.
     999900   -1    0    0    0    0 -0.00000000000E+00 -0.00000000000E+00 -0.74505805969E-08  0.93827000000E+00  0.93827000000E+00 0. -1.
     999902    2    1    2    0    0  0.15613212211E-01 -0.11258168934E-01 -0.13381002404E-01  0.10204870909E+01  0.10202177869E+01 0.  0.
     999903    2    3    3    0    0  0.10137803315E+00 -0.57895528298E-01  0.58628239502E-01  0.13216508916E+00  0.20023549200E-01 0.  0.
         14    1    1    2    0    0 -0.15613212211E-01  0.11258168934E-01  0.13381002404E-01  0.23442909133E-01  0.00000000000E+00 0.  1.
     999901    1    3    3    0    0 -0.85764820940E-01  0.46637359364E-01 -0.72009241906E-01  0.88832200171E+00  0.88000000000E+00 0.  1.
        -11    1    4    4    0    0  0.56570473488E-01 -0.41907463811E-01  0.29179225529E-01  0.76211169242E-01  0.51100000000E-03 0. -1.
         11    1    4    4    0    0  0.44807559664E-01 -0.15988064487E-01  0.29449013973E-01  0.55953919917E-01  0.51100000000E-03 0.  1.
</event>
<event>
 8    1  0.1092667E+005  0.1043930E+01  0.7957747E-01            NaN
         13   -1    0    0    0    0  0.00000000000E+00  0.00000000000E+00  0.74505805969E-08  0.10566000000E+00  0.10566000000E+00 0. -1.
     999900   -1    0    0    0    0 -0.00000000000E+00 -0.00000000000E+00 -0.74505805969E-08  0.93827000000E+00  0.93827000000E+00 0.  1.
     999902    2    1    2    0    0 -0.24756798595E-02  0.17219042028E-01 -0.16064806844E-01  0.10202508442E+01  0.10199760207E+01 0.  0.
     999903    2    3    3    0    0  0.97684085902E-01  0.77522118830E-01  0.34784284295E-01  0.13106353560E+00  0.20392262857E-01 0.  0.
         14    1    1    2    0    0  0.24756798595E-02 -0.17219042028E-01  0.16064806844E-01  0.23679155772E-01  0.00000000000E+00 0. -1.
     999901    1    3    3    0    0 -0.10015976576E+00 -0.60303076802E-01 -0.50849091140E-01  0.88918730862E+00  0.88000000000E+00 0.  1.
        -11    1    4    4    0    0  0.41226741405E-01  0.27129316706E-01  0.45301105247E-02  0.49562355212E-01  0.51100000000E-03 0.  1.
         11    1    4    4    0    0  0.56457344497E-01  0.50392802125E-01  0.30254173771E-01  0.81501180391E-01  0.51100000000E-03 0. -1.
</event>
<event>
 8    1  0.1092667E+005  0.1043930E+01  0.7957747E-01            NaN
         13   -1    0    0    0    0  0.00000000000E+00  0.00000000000E+00  0.74505805969E-08  0.10566000000E+00  0.10566000000E+00 0. -1.
     999900   -1    0    0    0    0 -0.00000000000E+00 -0.00000000000E+00 -0.74505805969E-08  0.93827000000E+00  0.93827000000E+00 0. -1.
     999902    2    1    2    0    0 -0.15006880701E-01  0.18430173839E-01 -0.18955332817E-02  0.10200873738E+01  0.10198086975E+01 0.  0.
     999903    2    3    3    0    0 -0.71342755883E-01 -0.10604873413E+00  0.32030773170E-02  0.12952871479E+00  0.20767894061E-01 0.  0.
         14    1    1    2    0    0  0.15006880701E-01 -0.18430173839E-01  0.18955332817E-02  0.23842626167E-01  0.00000000000E+00 0. -1.
     999901    1    3    3    0    0  0.56335875182E-01  0.12447890797E+00 -0.50986105987E-02  0.89055865904E+00  0.88000000000E+00 0. -1.
        -11    1    4    4    0    0 -0.48219393518E-01 -0.79816403282E-01 -0.57455997718E-02  0.93429337907E-01  0.51100000000E-03 0. -1.
         11    1    4    4    0    0 -0.23123362365E-01 -0.26232330849E-01  0.89486770887E-02  0.36099376885E-01  0.51100000000E-03 0.  1.
</event>
<event>
 8    1  0.1092667E+005  0.1043930E+01  0.7957747E-01            NaN
         13   -1    0    0    0    0  0.00000000000E+00  0.00000000000E+00  0.74505805969E-08  0.10566000000E+00  0.10566000000E+00 0.  1.
     999900   -1    0    0    0    0 -0.00000000000E+00 -0.00000000000E+00 -0.74505805969E-08  0.93827000000E+00  0.93827000000E+00 0. -1.
     999902    2    1    2    0    0  0.14711443915E-01  0.10052013332E-01 -0.15421575689E-01  0.10203653114E+01  0.10200931693E+01 0.  0.
     999903    2    3    3    0    0 -0.12730946023E+00 -0.27403584949E-02 -0.39507733224E-02  0.12881320335E+00  0.19026941866E-01 0.  0.
         14    1    1    2    0    0 -0.14711443915E-01 -0.10052013332E-01  0.15421575689E-01  0.23564688642E-01  0.00000000000E+00 0.  1.
     999901    1    3    3    0    0  0.14202090415E+00  0.12792371827E-01 -0.11470802367E-01  0.89155210801E+00  0.88000000000E+00 0. -1.
        -11    1    4    4    0    0 -0.34020451648E-01 -0.84019572419E-02  0.24527094879E-02  0.35132049764E-01  0.51100000000E-03 0.  1.
         11    1    4    4    0    0 -0.93289008586E-01  0.56615987469E-02 -0.64034828103E-02  0.93681153582E-01  0.51100000000E-03 0. -1.
</event>
<event>
 8    1  0.1092667E+005  0.1043930E+01  0.7957747E-01            NaN
         13   -1    0    0    0    0  0.00000000000E+00  0.00000000000E+00  0.74505805969E-08  0.10566000000E+00  0.10566000000E+00 0. -1.
     999900   -1    0    0    0    0 -0.00000000000E+00 -0.00000000000E+00 -0.74505805969E-08  0.93827000000E+00  0.93827000000E+00 0. -1.
     999902    2    1    2    0    0 -0.11764537023E-01  0.61484406438E-02  0.23143202875E-01  0.10172501294E+01  0.10169001969E+01 0.  0.
     999903    2    3    3    0    0  0.13933860419E-01 -0.10176528038E+00  0.75045567272E-01  0.12876848402E+00  0.19979002830E-01 0.  0.
         14    1    1    2    0    0  0.11764537023E-01 -0.61484406438E-02 -0.23143202875E-01  0.26679870559E-01  0.00000000000E+00 0. -1.
     999901    1    3    3    0    0 -0.25698397441E-01  0.10791372102E+00 -0.51902364397E-01  0.88848164542E+00  0.88000000000E+00 0. -1.
        -11    1    4    4    0    0 -0.36988101314E-02 -0.35788567946E-01  0.31071073905E-01  0.47541303586E-01  0.51100000000E-03 0.  1.
         11    1    4    4    0    0  0.17632670550E-01 -0.65976712431E-01  0.43974493366E-01  0.81227180437E-01  0.51100000000E-03 0. -1.
</event>
<event>
 8    1  0.1092667E+005  0.1043930E+01  0.7957747E-01            NaN
         13   -1    0    0    0    0  0.00000000000E+00  0.00000000000E+00  0.74505805969E-08  0.10566000000E+00  0.10566000000E+00 0. -1.
     999900   -1    0    0    0    0 -0.00000000000E+00 -0.00000000000E+00 -0.74505805969E-08  0.93827000000E+00  0.93827000000E+00 0.  1.
     999902    2    1    2    0    0  0.15502348574E-01  0.45877367732E-02 -0.17078821807E-01  0.10204128511E+01  0.10201418187E+01 0.  0.
     999903    2    3    3    0    0  0.99120493886E-01  0.82498449089E-01 -0.24974747348E-01  0.13298712518E+00  0.20759842169E-01 0.  0.
         14    1    1    2    0    0 -0.15502348574E-01 -0.45877367732E-02  0.17078821807E-01  0.23517148941E-01  0.00000000000E+00 0. -1.
     999901    1    3    3    0    0 -0.83618145312E-01 -0.77910712316E-01  0.78959255411E-02  0.88742572588E+00  0.88000000000E+00 0. -1.
        -11    1    4    4    0    0  0.57936906107E-01  0.35284365405E-01 -0.10025032400E-01  0.68574294943E-01  0.51100000000E-03 0.  1.
         11    1    4    4    0    0  0.41183587779E-01  0.47214083684E-01 -0.14949714949E-01  0.64412830233E-01  0.51100000000E-03 0. -1.
</event>
<event>
 8    1  0.1092667E+005  0.1043930E+01  0.7957747E-01            NaN
         13   -1    0    0    0    0  0.00000000000E+00  0.00000000000E+00  0.74505805969E-08  0.10566000000E+00  0.10566000000E+00 0. -1.
     999900   -1    0    0    0    0 -0.00000000000E+00 -0.00000000000E+00 -0.74505805969E-08  0.93827000000E+00  0.93827000000E+00 0.  1.
     999902    2    1    2    0    0 -0.84640499832E-02  0.19153592281E-01 -0.11968837579E-01  0.10198104371E+01  0.10195251710E+01 0.  0.
     999903    2    3    3    0    0  0.94698177423E-01  0.14213165073E-01  0.83554330365E-01  0.12863619571E+00  0.19904417977E-01 0.  0.
         14    1    1    2    0    0  0.84640499832E-02 -0.19153592281E-01  0.11968837579E-01  0.24119562856E-01  0.00000000000E+00 0. -1.
     999901    1    3    3    0    0 -0.10316222741E+00  0.49404272083E-02 -0.95523167943E-01  0.89117424144E+00  0.88000000000E+00 0.  1.
        -11    1    4    4    0    0  0.48837730895E-01  0.78918253241E-02  0.56150711484E-01  0.74836945335E-01  0.51100000000E-03 0. -1.
         11    1    4    4    0    0  0.45860446528E-01  0.63213397487E-02  0.27403618881E-01  0.53799250373E-01  0.51100000000E-03 0.  1.
</event>
<event>
 8    1  0.1092667E+005  0.1043930E+01  0.7957747E-01            NaN
         13   -1    0    0    0    0  0.00000000000E+00  0.00000000000E+00  0.74505805969E-08  0.10566000000E+00  0.10566000000E+00 0. -1.
     999900   -1    0    0    0    0 -0.00000000000E+00 -0.00000000000E+00 -0.74505805969E-08  0.93827000000E+00  0.93827000000E+00 0. -1.
     999902    2    1    2    0    0 -0.13040147472E-01  0.17079274165E-01  0.95730977506E-02  0.10204057306E+01  0.10201345322E+01 0.  0.
     999903    2    3    3    0    0  0.64947835708E-01  0.99192829798E-01  0.54544035493E-01  0.13200990280E+00  0.19852551053E-01 0.  0.
         14    1    1    2    0    0  0.13040147472E-01 -0.17079274165E-01 -0.95730977506E-02  0.23524269439E-01  0.00000000000E+00 0.  1.
     999901    1    3    3    0    0 -0.77987983180E-01 -0.82113555633E-01 -0.44970937742E-01  0.88839582776E+00  0.88000000000E+00 0. -1.
        -11    1    4    4    0    0  0.33130060370E-01  0.45582329292E-01  0.15484994786E-01  0.58441387974E-01  0.51100000000E-03 0. -1.
         11    1    4    4    0    0  0.31817775338E-01  0.53610500505E-01  0.39059040707E-01  0.73568514827E-01  0.51100000000E-03 0.  1.
</event>
<event>
 8    1  0.1092667E+005  0.1043930E+01  0.7957747E-01            NaN
         13   -1    0    0    0    0  0.00000000000E+00  0.00000000000E+00  0.74505805969E-08  0.10566000000E+00  0.10566000000E+00 0.  1.
     999900   -1    0    0    0    0 -0.00000000000E+00 -0.00000000000E+00 -0.74505805969E-08  0.93827000000E+00  0.93827000000E+00 0. -1.
     999902    2    1    2    0    0  0.74531228122E-02  0.80595271191E-02 -0.20885459312E-01  0.10203353517E+01  0.10200625091E+01 0.  0.
     999903    2    3    3    0    0 -0.77255830887E-02 -0.65390688113E-01  0.10887253372E+00  0.12766381975E+00  0.10449667315E-01 0.  0.
         14    1    1    2    0    0 -0.74531228122E-02 -0.80595271191E-02  0.20885459312E-01  0.23594648286E-01  0.00000000000E+00 0. -1.
     999901    1    3    3    0    0  0.15178705901E-01  0.73450215232E-01 -0.12975799304E+00  0.89267153197E+00  0.88000000000E+00 0. -1.
        -11    1    4    4    0    0 -0.69064179565E-02 -0.27813472905E-01  0.54258670710E-01  0.61364096605E-01  0.51100000000E-03 0. -1.
         11    1    4    4    0    0 -0.81916513220E-03 -0.37577215208E-01  0.54613863013E-01  0.66299723141E-01  0.51100000000E-03 0.  1.
</event>
<event>
 8    1  0.1092667E+005  0.1043930E+01  0.7957747E-01            NaN
         13   -1    0    0    0    0  0.00000000000E+00  0.00000000000E+00  0.74505805969E-08  0.10566000000E+00  0.10566000000E+00 0.  1.
     999900   -1    0    0    0    0 -0.00000000000E+00 -0.00000000000E+00 -0.74505805969E-08  0.93827000000E+00  0.93827000000E+00 0. -1.
     999902    2    1    2    0    0  0.16239696662E-01  0.16675483894E-01  0.27375653048E-02  0.10204929828E+01  0.10202238157E+01 0.  0.
     999903    2    3    3    0    0 -0.39729884645E-03 -0.12692455881E+00 -0.46490456277E-02  0.12866770626E+00  0.20585517540E-01 0.  0.
         14    1    1    2    0    0 -0.16239696662E-01 -0.16675483894E-01 -0.27375653048E-02  0.23437017185E-01  0.00000000000E+00 0. -1.
     999901    1    3    3    0    0  0.16636995508E-01  0.14360004271E+00  0.73866109326E-02  0.89182527656E+00  0.88000000000E+00 0.  1.
        -11    1    4    4    0    0  0.82657138686E-02 -0.32057747726E-01 -0.44250338326E-02  0.33404539519E-01  0.51100000000E-03 0.  1.
         11    1    4    4    0    0 -0.86630127150E-02 -0.94866811086E-01 -0.22401179515E-03  0.95263166739E-01  0.51100000000E-03 0. -1.
</event>
<event>
 8    1  0.1092667E+005  0.1043930E+01  0.7957747E-01            NaN
         13   -1    0    0    0    0  0.00000000000E+00  0.00000000000E+00  0.74505805969E-08  0.10566000000E+00  0.10566000000E+00 0. -1.
     999900   -1    0    0    0    0 -0.00000000000E+00 -0.00000000000E+00 -0.74505805969E-08  0.93827000000E+00  0.93827000000E+00 0.  1.
     999902    2    1    2    0    0  0.20054664972E-02 -0.17124123444E-01  0.11900067084E-01  0.10229807972E+01  0.10227662697E+01 0.  0.
     999903    2    3    3    0    0 -0.21255953174E-01 -0.12929033864E+00 -0.24683196807E-01  0.13480249945E+00  0.19865710172E-01 0.  0.
         14    1    1    2    0    0 -0.20054664972E-02  0.17124123444E-01 -0.11900067084E-01  0.20949202758E-01  0.00000000000E+00 0.  1.
     999901    1    3    3    0    0  0.23261419671E-01  0.11216621520E+00  0.36583263891E-01  0.88817829780E+00  0.88000000000E+00 0. -1.
        -11    1    4    4    0    0 -0.41074576336E-03 -0.61987344549E-01 -0.13794130602E-01  0.63506997696E-01  0.51100000000E-03 0. -1.
         11    1    4    4    0    0 -0.20845207410E-01 -0.67302994094E-01 -0.10889066205E-01  0.71295501750E-01  0.51100000000E-03 0.  1.
</event>
<event>
 8    1  0.1092667E+005  0.1043930E+01  0.7957747E-01            NaN
         13   -1    0    0    0    0  0.00000000000E+00  0.00000000000E+00  0.74505805969E-08  0.10566000000E+00  0.10566000000E+00 0. -1.
     999900   -1    0    0    0    0 -0.00000000000E+00 -0.00000000000E+00 -0.74505805969E-08  0.93827000000E+00  0.93827000000E+00 0. -1.
     999902    2    1    2    0    0 -0.16461554992E-01  0.16855200932E-01  0.87566075699E-03  0.10203535844E+01  0.10200811682E+01 0.  0.
     999903    2    3    3    0    0  0.65927941196E-01  0.10772367114E+00 -0.29945785818E-01  0.13131192646E+00  0.19879365903E-01 0.  0.
         14    1    1    2    0    0  0.16461554992E-01 -0.16855200932E-01 -0.87566075699E-03  0.23576415609E-01  0.00000000000E+00 0.  1.
     999901    1    3    3    0    0 -0.82389496188E-01 -0.90868470211E-01  0.30821446575E-01  0.88904165793E+00  0.88000000000E+00 0.  1.
        -11    1    4    4    0    0  0.47745264412E-01  0.60975807845E-01 -0.22118538497E-01  0.80542847494E-01  0.51100000000E-03 0. -1.
         11    1    4    4    0    0  0.18182676784E-01  0.46747863297E-01 -0.78272473217E-02  0.50769078971E-01  0.51100000000E-03 0.  1.
</event>
<event>
 8    1  0.1092667E+005  0.1043930E+01  0.7957747E-01            NaN
         13   -1    0    0    0    0  0.00000000000E+00  0.00000000000E+00  0.74505805969E-08  0.10566000000E+00  0.10566000000E+00 0. -1.
     999900   -1    0    0    0    0 -0.00000000000E+00 -0.00000000000E+00 -0.74505805969E-08  0.93827000000E+00  0.93827000000E+00 0. -1.
     999902    2    1    2    0    0 -0.88963362419E-02  0.11870400149E-01 -0.15771423639E-01  0.10222784642E+01  0.10220491521E+01 0.  0.
     999903    2    3    3    0    0  0.31854394683E-01 -0.12364000759E+00  0.18153855002E-01  0.13032856808E+00  0.18826026374E-01 0.  0.
         14    1    1    2    0    0  0.88963362419E-02 -0.11870400149E-01  0.15771423639E-01  0.21651535785E-01  0.00000000000E+00 0.  1.
     999901    1    3    3    0    0 -0.40750730924E-01  0.13551040774E+00 -0.33925278642E-01  0.89194989613E+00  0.88000000000E+00 0. -1.
        -11    1    4    4    0    0  0.25456285406E-01 -0.91549630360E-01  0.53103824738E-02  0.95172572565E-01  0.51100000000E-03 0. -1.
         11    1    4    4    0    0  0.63981092768E-02 -0.32090377234E-01  0.12843472528E-01  0.35155995519E-01  0.51100000000E-03 0.  1.
</event>
<event>
 8    1  0.1092667E+005  0.1043930E+01  0.7957747E-01            NaN
         13   -1    0    0    0    0  0.00000000000E+00  0.00000000000E+00  0.74505805969E-08  0.10566000000E+00  0.10566000000E+00 0.  1.
     999900   -1    0    0    0    0 -0.00000000000E+00 -0.00000000000E+00 -0.74505805969E-08  0.93827000000E+00  0.93827000000E+00 0.  1.
     999902    2    1    2    0    0 -0.24674725283E-01  0.35964008850E-02 -0.52738207127E-02  0.10184429572E+01  0.10181239942E+01 0.  0.
     999903    2    3    3    0    0  0.24367758685E-01  0.48809183490E-01 -0.11527595509E+00  0.12908935454E+00  0.19984783692E-01 0.  0.
         14    1    1    2    0    0  0.24674725283E-01 -0.35964008850E-02  0.52738207127E-02  0.25487042826E-01  0.00000000000E+00 0. -1.
     999901    1    3    3    0    0 -0.49042483968E-01 -0.45212782605E-01  0.11000213437E+00  0.88935360263E+00  0.88000000000E+00 0. -1.
        -11    1    4    4    0    0  0.19592206070E-01  0.17279470563E-01 -0.48613832902E-01  0.55190583545E-01  0.51100000000E-03 0. -1.
         11    1    4    4    0    0  0.47755526153E-02  0.31529712927E-01 -0.66662122185E-01  0.73898770999E-01  0.51100000000E-03 0.  1.
</event>
<event>
 8    1  0.1092667E+005  0.1043930E+01  0.7957747E-01            NaN
         13   -1    0    0    0    0  0.00000000000E+00  0.00000000000E+00  0.74505805969E-08  0.10566000000E+00  0.10566000000E+00 0.  1.
     999900   -1    0    0    0    0 -0.00000000000E+00 -0.00000000000E+00 -0.74505805969E-08  0.93827000000E+00  0.93827000000E+00 0. -1.
     999902    2    1    2    0    0 -0.17790271614E-01 -0.39671414870E-02 -0.14757510373E-01  0.10204775782E+01  0.10202080531E+01 0.  0.
     999903    2    3    3    0    0 -0.59521297995E-01 -0.91349887005E-01 -0.74152408915E-01  0.13317550070E+00  0.18696188568E-01 0.  0.
         14    1    1    2    0    0  0.17790271614E-01  0.39671414870E-02  0.14757510373E-01  0.23452421796E-01  0.00000000000E+00 0.  1.
     999901    1    3    3    0    0  0.41731026381E-01  0.87382745518E-01  0.59394898541E-01  0.88730207751E+00  0.88000000000E+00 0.  1.
        -11    1    4    4    0    0 -0.12326640684E-01 -0.34930590285E-01 -0.23687973143E-01  0.43971279272E-01  0.51100000000E-03 0. -1.
         11    1    4    4    0    0 -0.47194657311E-01 -0.56419296721E-01 -0.50464435772E-01  0.89204221424E-01  0.51100000000E-03 0.  1.
</event>
<event>
 8    1  0.1092667E+005  0.1043930E+01  0.7957747E-01            NaN
         13   -1    0    0    0    0  0.00000000000E+00  0.00000000000E+00  0.74505805969E-08  0.10566000000E+00  0.10566000000E+00 0.  1.
     999900   -1    0    0    0    0 -0.00000000000E+00 -0.00000000000E+00 -0.74505805969E-08  0.93827000000E+00  0.93827000000E+00 0. -1.
     999902    2    1    2    0    0  0.13105064536E-01  0.19159607567E-01  0.53357102533E-02  0.10201118749E+01  0.10198337778E+01 0.  0.
     999903    2    3    3    0    0  0.93235735587E-01  0.15857964477E-01 -0.88777389852E-01  0.13146734480E+00  0.21397672133E-01 0.  0.
         14    1    1    2    0    0 -0.13105064536E-01 -0.19159607567E-01 -0.53357102533E-02  0.23818125084E-01  0.00000000000E+00 0. -1.
     999901    1    3    3    0    0 -0.80130671051E-01  0.33016430901E-02  0.94113100105E-01  0.88864453011E+00  0.88000000000E+00 0.  1.
        -11    1    4    4    0    0  0.48122238203E-01  0.21587662624E-02 -0.56892106390E-01  0.74547856924E-01  0.51100000000E-03 0. -1.
         11    1    4    4    0    0  0.45113497383E-01  0.13699198214E-01 -0.31885283462E-01  0.56919487878E-01  0.51100000000E-03 0.  1.
</event>
<event>
 8    1  0.1092667E+005  0.1043930E+01  0.7957747E-01            NaN
         13   -1    0    0    0    0  0.00000000000E+00  0.00000000000E+00  0.74505805969E-08  0.10566000000E+00  0.10566000000E+00 0. -1.
     999900   -1    0    0    0    0 -0.00000000000E+00 -0.00000000000E+00 -0.74505805969E-08  0.93827000000E+00  0.93827000000E+00 0.  1.
     999902    2    1    2    0    0  0.18668162023E-01  0.14293513155E-01 -0.22200653694E-02  0.10203136184E+01  0.10200402670E+01 0.  0.
     999903    2    3    3    0    0  0.10090262385E+00  0.36721947380E-01 -0.76236943130E-01  0.13310223454E+00  0.19346638560E-01 0.  0.
         14    1    1    2    0    0 -0.18668162023E-01 -0.14293513155E-01  0.22200653694E-02  0.23616381642E-01  0.00000000000E+00 0.  1.
     999901    1    3    3    0    0 -0.82234461828E-01 -0.22428434225E-01  0.74016877761E-01  0.88721138381E+00  0.88000000000E+00 0. -1.
        -11    1    4    4    0    0  0.38916378973E-01  0.18261434017E-01 -0.41189298250E-01  0.59538088112E-01  0.51100000000E-03 0.  1.
         11    1    4    4    0    0  0.61986244878E-01  0.18460513363E-01 -0.35047644880E-01  0.73564146432E-01  0.51100000000E-03 0. -1.
</event>
<event>
 8    1  0.1092667E+005  0.1043930E+01  0.7957747E-01            NaN
         13   -1    0    0    0    0  0.00000000000E+00  0.00000000000E+00  0.74505805969E-08  0.10566000000E+00  0.10566000000E+00 0.  1.
     999900   -1    0    0    0    0 -0.00000000000E+00 -0.00000000000E+00 -0.74505805969E-08  0.93827000000E+00  0.93827000000E+00 0. -1.
     999902    2    1    2    0    0  0.25713296680E-02  0.23774049778E-01  0.50927962118E-02  0.10194809969E+01  0.10191877890E+01 0.  0.
     999903    2    3    3    0    0 -0.86152126240E-01 -0.73120320260E-01  0.56522517177E-01  0.12824287677E+00  0.21969761148E-01 0.  0.
         14    1    1    2    0    0 -0.25713296680E-02 -0.23774049778E-01 -0.50927962118E-02  0.24449003096E-01  0.00000000000E+00 0.  1.
     999901    1    3    3    0    0  0.88723455908E-01  0.96894370038E-01 -0.51429720965E-01  0.89123812013E+00  0.88000000000E+00 0.  1.
        -11    1    4    4    0    0 -0.70441675591E-01 -0.64198863938E-01  0.55154235995E-01  0.11011709522E+00  0.51100000000E-03 0. -1.
         11    1    4    4    0    0 -0.15710450649E-01 -0.89214563219E-02  0.13682811816E-02  0.18125781553E-01  0.51100000000E-03 0.  1.
</event>
<event>
 8    1  0.1092667E+005  0.1043930E+01  0.7957747E-01            NaN
         13   -1    0    0    0    0  0.00000000000E+00  0.00000000000E+00  0.74505805969E-08  0.10566000000E+00  0.10566000000E+00 0. -1.
     999900   -1    0    0    0    0 -0.00000000000E+00 -0.00000000000E+00 -0.74505805969E-08  0.93827000000E+00  0.93827000000E+00 0. -1.
     999902    2    1    2    0    0  0.97897468111E-02  0.15232684403E-01  0.12431909066E-01  0.10219657978E+01  0.10217297420E+01 0.  0.
     999903    2    3    3    0    0  0.95653500427E-01  0.43388385975E-01 -0.78526473115E-01  0.13267464465E+00  0.20100004288E-01 0.  0.
         14    1    1    2    0    0 -0.97897468111E-02 -0.15232684403E-01 -0.12431909066E-01  0.21964202234E-01  0.00000000000E+00 0.  1.
     999901    1    3    3    0    0 -0.85863753616E-01 -0.28155701571E-01  0.90958382181E-01  0.88929115311E+00  0.88000000000E+00 0. -1.
        -11    1    4    4    0    0  0.50748618598E-01  0.33467257591E-01 -0.48245380690E-01  0.77610292482E-01  0.51100000000E-03 0.  1.
         11    1    4    4    0    0  0.44904881830E-01  0.99211283840E-02 -0.30281092425E-01  0.55064352171E-01  0.51100000000E-03 0. -1.
</event>
<event>
 8    1  0.1092667E+005  0.1043930E+01  0.7957747E-01            NaN
         13   -1    0    0    0    0  0.00000000000E+00  0.00000000000E+00  0.74505805969E-08  0.10566000000E+00  0.10566000000E+00 0.  1.
     999900   -1    0    0    0    0 -0.00000000000E+00 -0.00000000000E+00 -0.74505805969E-08  0.93827000000E+00  0.93827000000E+00 0. -1.
     999902    2    1    2    0    0  0.19850526354E-01  0.45639090967E-02  0.12281921992E-01  0.10201451672E+01  0.10198678561E+01 0.  0.
     999903    2    3    3    0    0 -0.11178415120E+00 -0.40769973725E-01 -0.41509989662E-01  0.12757784817E+00  0.19878150918E-01 0.  0.
         14    1    1    2    0    0 -0.19850526354E-01 -0.45639090967E-02 -0.12281921992E-01  0.23784832785E-01  0.00000000000E+00 0. -1.
     999901    1    3    3    0    0  0.13163467756E+00  0.45333882821E-01  0.53791911654E-01  0.89256731904E+00  0.88000000000E+00 0. -1.
        -11    1    4    4    0    0 -0.54671745186E-01 -0.19480089413E-01 -0.30744763119E-01  0.65680858592E-01  0.51100000000E-03 0.  1.
         11    1    4    4    0    0 -0.57112406019E-01 -0.21289884311E-01 -0.10765226543E-01  0.61896989578E-01  0.51100000000E-03 0. -1.
</event>
<event>
 8    1  0.1092667E+005  0.1043930E+01  0.7957747E-01            NaN
         13   -1    0    0    0    0  0.00000000000E+00  0.00000000000E+00  0.74505805969E-08  0.10566000000E+00  0.10566000000E+00 0.  1.
     999900   -1    0    0    0    0 -0.00000000000E+00 -0.00000000000E+00 -0.74505805969E-08  0.93827000000E+00  0.93827000000E+00 0.  1.
     999902    2    1    2    0    0  0.13474571072E-01 -0.19125033557E-01  0.34619928486E-03  0.10205323328E+01  0.10202640793E+01 0.  0.
     999903    2    3    3    0    0 -0.90012581036E-01  0.76524412163E-02  0.90514546735E-01  0.12948971059E+00  0.20343976405E-01 0.  0.
         14    1    1    2    0    0 -0.13474571072E-01  0.19125033557E-01 -0.34619928486E-03  0.23397667150E-01  0.00000000000E+00 0.  1.
     999901    1    3    3    0    0  0.10348715211E+00 -0.26777474773E-01 -0.90168347450E-01  0.89104262226E+00  0.88000000000E+00 0.  1.
        -11    1    4    4    0    0 -0.14108431510E-01  0.42064462335E-04  0.25980138123E-01  0.29568197561E-01  0.51100000000E-03 0.  1.
         11    1    4    4    0    0 -0.75904149526E-01  0.76103767539E-02  0.64534408612E-01  0.99921513027E-01  0.51100000000E-03 0. -1.
</event>
<event>
 8    1  0.1092667E+005  0.1043930E+01  0.7957747E-01            NaN
         13   -1    0    0    0    0  0.00000000000E+00  0.00000000000E+00  0.74505805969E-08  0.10566000000E+00  0.10566000000E+00 0.  1.
     999900   -1    0    0    0    0 -0.00000000000E+00 -0.00000000000E+00 -0.74505805969E-08  0.93827000000E+00  0.93827000000E+00 0. -1.
     999902    2    1    2    0    0  0.20431988521E-01  0.79896616335E-02 -0.87274929923E-02  0.10203191978E+01  0.10200459771E+01 0.  0.
     999903    2    3    3    0    0 -0.74598428289E-01 -0.84994804233E-01 -0.58449556852E-01  0.12894431892E+00  0.20524240207E-01 0.  0.
         14    1    1    2    0    0 -0.20431988521E-01 -0.79896616335E-02  0.87274929923E-02  0.23610802228E-01  0.00000000000E+00 0.  1.
     999901    1    3    3    0    0  0.95030416810E-01  0.92984465867E-01  0.49722063859E-01  0.89137487885E+00  0.88000000000E+00 0.  1.
        -11    1    4    4    0    0 -0.66221797811E-01 -0.70544466218E-01 -0.56688141207E-01  0.11214122656E+00  0.51100000000E-03 0. -1.
         11    1    4    4    0    0 -0.83766304783E-02 -0.14450338015E-01 -0.17614156449E-02  0.16803092364E-01  0.51100000000E-03 0.  1.
</event>
<event>
 8    1  0.1092667E+005  0.1043930E+01  0.7957747E-01            NaN
         13   -1    0    0    0    0  0.00000000000E+00  0.00000000000E+00  0.74505805969E-08  0.10566000000E+00  0.10566000000E+00 0. -1.
     999900   -1    0    0    0    0 -0.00000000000E+00 -0.00000000000E+00 -0.74505805969E-08  0.93827000000E+00  0.93827000000E+00 0.  1.
     999902    2    1    2    0    0 -0.97098977053E-02  0.19320437632E-01 -0.10146279080E-01  0.10200446823E+01  0.10197649952E+01 0.  0.
     999903    2    3    3    0    0 -0.11128383250E+00  0.48924493186E-01  0.46755036872E-01  0.13188285913E+00  0.20720947125E-01 0.  0.
         14    1    1    2    0    0  0.97098977053E-02 -0.19320437632E-01  0.10146279080E-01  0.23885317727E-01  0.00000000000E+00 0. -1.
     999901    1    3    3    0    0  0.10157393479E+00 -0.29604055554E-01 -0.56901315952E-01  0.88816182314E+00  0.88000000000E+00 0.  1.
        -11    1    4    4    0    0 -0.25828790343E-01  0.45010893367E-02  0.40799225253E-02  0.26538521146E-01  0.51100000000E-03 0. -1.
         11    1    4    4    0    0 -0.85455042157E-01  0.44423403849E-01  0.42675114346E-01  0.10534433798E+00  0.51100000000E-03 0.  1.
</event>
<event>
 8    1  0.1092667E+005  0.1043930E+01  0.7957747E-01            NaN
         13   -1    0    0    0    0  0.00000000000E+00  0.00000000000E+00  0.74505805969E-08  0.10566000000E+00  0.10566000000E+00 0.  1.
     999900   -1    0    0    0    0 -0.00000000000E+00 -0.00000000000E+00 -0.74505805969E-08  0.93827000000E+00  0.93827000000E+00 0.  1.
     999902    2    1    2    0    0  0.53078996670E-02  0.19213312283E-01 -0.11003865512E-01  0.10211613763E+01  0.10209075111E+01 0.  0.
     999903    2    3    3    0    0 -0.97957634333E-01 -0.50001892464E-01 -0.67686968455E-01  0.13061800892E+00  0.19587015612E-01 0.  0.
         14    1    1    2    0    0 -0.53078996670E-02 -0.19213312283E-01  0.11003865512E-01  0.22768623673E-01  0.00000000000E+00 0.  1.
     999901    1    3    3    0    0  0.10326553400E+00  0.69215204747E-01  0.56683102943E-01  0.89054336741E+00  0.88000000000E+00 0. -1.
        -11    1    4    4    0    0 -0.35611754871E-01 -0.28197909519E-01 -0.31766069290E-01  0.55431610705E-01  0.51100000000E-03 0. -1.
         11    1    4    4    0    0 -0.62345879462E-01 -0.21803982945E-01 -0.35920899165E-01  0.75186398211E-01  0.51100000000E-03 0.  1.
</event>
<event>
 8    1  0.1092667E+005  0.1043930E+01  0.7957747E-01            NaN
         13   -1    0    0    0    0  0.00000000000E+00  0.00000000000E+00  0.74505805969E-08  0.10566000000E+00  0.10566000000E+00 0.  1.
     999900   -1    0    0    0    0 -0.00000000000E+00 -0.00000000000E+00 -0.74505805969E-08  0.93827000000E+00  0.93827000000E+00 0. -1.
     999902    2    1    2    0    0  0.66631563740E-04  0.73729972677E-02  0.23257921453E-01  0.10195313025E+01  0.10192393146E+01 0.  0.
     999903    2    3    3    0    0 -0.95636783216E-01 -0.25131617708E-01 -0.80264148095E-01  0.12771713327E+00  0.95572039769E-02 0.  0.
         14    1    1    2    0    0 -0.66631563740E-04 -0.73729972677E-02 -0.23257921453E-01  0.24398697481E-01  0.00000000000E+00 0. -1.
     999901    1    3    3    0    0  0.95703414780E-01  0.32504614976E-01  0.10352206955E+00  0.89181416925E+00  0.88000000000E+00 0. -1.
        -11    1    4    4    0    0 -0.60841968293E-01 -0.20319175335E-01 -0.49595869966E-01  0.81084063975E-01  0.51100000000E-03 0. -1.
         11    1    4    4    0    0 -0.34794814923E-01 -0.48124423735E-02 -0.30668278130E-01  0.46633069292E-01  0.51100000000E-03 0.  1.
</event>
<event>
 8    1  0.1092667E+005  0.1043930E+01  0.7957747E-01            NaN
         13   -1    0    0    0    0  0.00000000000E+00  0.00000000000E+00  0.74505805969E-08  0.10566000000E+00  0.10566000000E+00 0.  1.
     999900   -1    0    0    0    0 -0.00000000000E+00 -0.00000000000E+00 -0.74505805969E-08  0.93827000000E+00  0.93827000000E+00 0. -1.
     999902    2    1    2    0    0  0.16465746099E-01  0.16800345116E-01  0.14865216936E-02  0.10203592101E+01  0.10200869254E+01 0.  0.
     999903    2    3    3    0    0  0.36205091712E-01  0.34590139856E-01 -0.12003838950E+00  0.13161041396E+00  0.20119633905E-01 0.  0.
         14    1    1    2    0    0 -0.16465746099E-01 -0.16800345116E-01 -0.14865216936E-02  0.23570789918E-01  0.00000000000E+00 0.  1.
     999901    1    3    3    0    0 -0.19739345613E-01 -0.17789794740E-01  0.12152491119E+00  0.88874879612E+00  0.88000000000E+00 0.  1.
        -11    1    4    4    0    0  0.14935113471E-01  0.20516886629E-01 -0.81771866934E-01  0.85620672704E-01  0.51100000000E-03 0.  1.
         11    1    4    4    0    0  0.21269978241E-01  0.14073253227E-01 -0.38266522567E-01  0.45989741259E-01  0.51100000000E-03 0. -1.
</event>
<event>
 8    1  0.1451395E+005  0.1043930E+01  0.7957747E-01            NaN
         13   -1    0    0    0    0  0.00000000000E+00  0.00000000000E+00  0.74505805969E-08  0.10566000000E+00  0.10566000000E+00 0. -1.
     999900   -1    0    0    0    0 -0.00000000000E+00 -0.00000000000E+00 -0.74505805969E-08  0.93827000000E+00  0.93827000000E+00 0. -1.
     999902    2    1    2    0    0  0.16178116203E-01  0.16877932905E-01 -0.41247596712E-02  0.10201895344E+01  0.10199132691E+01 0.  0.
     999903    2    3    3    0    0 -0.11629499895E+00 -0.42302119339E-02 -0.52760317251E-01  0.12869635023E+00  0.15384343133E-01 0.  0.
         14    1    1    2    0    0 -0.16178116203E-01 -0.16877932905E-01  0.41247596712E-02  0.23740465568E-01  0.00000000000E+00 0.  1.
     999901    1    3    3    0    0  0.13247311515E+00  0.21108144839E-01  0.48635557580E-01  0.89149318420E+00  0.88000000000E+00 0. -1.
        -11    1    4    4    0    0 -0.30702206064E-01 -0.34677467365E-02 -0.72023911964E-02  0.31729895754E-01  0.51100000000E-03 0. -1.
         11    1    4    4    0    0 -0.85592792882E-01 -0.76246519739E-03 -0.45557926055E-01  0.96966454477E-01  0.51100000000E-03 0.  1.
</event>
<event>
 8    1  0.1092667E+005  0.1043930E+01  0.7957747E-01            NaN
         13   -1    0    0    0    0  0.00000000000E+00  0.00000000000E+00  0.74505805969E-08  0.10566000000E+00  0.10566000000E+00 0.  1.
     999900   -1    0    0    0    0 -0.00000000000E+00 -0.00000000000E+00 -0.74505805969E-08  0.93827000000E+00  0.93827000000E+00 0. -1.
     999902    2    1    2    0    0 -0.14017735708E-02 -0.23604083798E-01 -0.11523488510E-02  0.10202562667E+01  0.10199815705E+01 0.  0.
     999903    2    3    3    0    0  0.96490484361E-01 -0.41869753674E-01  0.75917706551E-01  0.13129264409E+00  0.20267470970E-01 0.  0.
         14    1    1    2    0    0  0.14017735708E-02  0.23604083798E-01  0.11523488510E-02  0.23673733313E-01  0.00000000000E+00 0.  1.
     999901    1    3    3    0    0 -0.97892257932E-01  0.18265669876E-01 -0.77070055402E-01  0.88896362260E+00  0.88000000000E+00 0. -1.
        -11    1    4    4    0    0  0.74801392742E-01 -0.31411316905E-01  0.47388250284E-01  0.93956514260E-01  0.51100000000E-03 0. -1.
         11    1    4    4    0    0  0.21689091619E-01 -0.10458436769E-01  0.28529456267E-01  0.37336129832E-01  0.51100000000E-03 0.  1.
</event>
<event>
 8    1  0.1092667E+005  0.1043930E+01  0.7957747E-01            NaN
         13   -1    0    0    0    0  0.00000000000E+00  0.00000000000E+00  0.74505805969E-08  0.10566000000E+00  0.10566000000E+00 0.  1.
     999900   -1    0    0    0    0 -0.00000000000E+00 -0.00000000000E+00 -0.74505805969E-08  0.93827000000E+00  0.93827000000E+00 0.  1.
     999902    2    1    2    0    0 -0.55352020287E-02 -0.10934853235E-01 -0.19964359229E-01  0.10205038369E+01  0.10202349220E+01 0.  0.
     999903    2    3    3    0    0  0.13998283937E-01 -0.32833367574E-02  0.12581565742E+00  0.12826400592E+00  0.20379973233E-01 0.  0.
         14    1    1    2    0    0  0.55352020287E-02  0.10934853235E-01  0.19964359229E-01  0.23426163070E-01  0.00000000000E+00 0. -1.
     999901    1    3    3    0    0 -0.19533485966E-01 -0.76515164778E-02 -0.14578001665E+00  0.89223983101E+00  0.88000000000E+00 0.  1.
        -11    1    4    4    0    0  0.99584019817E-02 -0.10788185595E-01  0.99991141734E-01  0.10106455494E+00  0.51100000000E-03 0.  1.
         11    1    4    4    0    0  0.40398819553E-02  0.75048488378E-02  0.25824515690E-01  0.27199450986E-01  0.51100000000E-03 0. -1.
</event>
<event>
 8    1  0.1092667E+005  0.1043930E+01  0.7957747E-01            NaN
         13   -1    0    0    0    0  0.00000000000E+00  0.00000000000E+00  0.74505805969E-08  0.10566000000E+00  0.10566000000E+00 0. -1.
     999900   -1    0    0    0    0 -0.00000000000E+00 -0.00000000000E+00 -0.74505805969E-08  0.93827000000E+00  0.93827000000E+00 0.  1.
     999902    2    1    2    0    0 -0.16118940658E-01 -0.17267338800E-01  0.17469031479E-02  0.10202438668E+01  0.10199688793E+01 0.  0.
     999903    2    3    3    0    0  0.20471969091E-01 -0.77706424336E-01 -0.10155671405E+00  0.13138875199E+00  0.22177648148E-01 0.  0.
         14    1    1    2    0    0  0.16118940658E-01  0.17267338800E-01 -0.17469031479E-02  0.23686133238E-01  0.00000000000E+00 0.  1.
     999901    1    3    3    0    0 -0.36590909749E-01  0.60439085537E-01  0.10330361720E+00  0.88885511478E+00  0.88000000000E+00 0. -1.
        -11    1    4    4    0    0 -0.39909086317E-02 -0.21975228090E-01 -0.30913594578E-01  0.38141177906E-01  0.51100000000E-03 0.  1.
         11    1    4    4    0    0  0.24462877723E-01 -0.55731196246E-01 -0.70643119476E-01  0.93247574080E-01  0.51100000000E-03 0. -1.
</event>
<event>
 8    1  0.1092667E+005  0.1043930E+01  0.7957747E-01            NaN
         13   -1    0    0    0    0  0.00000000000E+00  0.00000000000E+00  0.74505805969E-08  0.10566000000E+00  0.10566000000E+00 0.  1.
     999900   -1    0    0    0    0 -0.00000000000E+00 -0.00000000000E+00 -0.74505805969E-08  0.93827000000E+00  0.93827000000E+00 0. -1.
     999902    2    1    2    0    0  0.87395980397E-02  0.16340194298E-01 -0.14658892038E-01  0.10203023543E+01  0.10200287391E+01 0.  0.
     999903    2    3    3    0    0 -0.10182235610E+00 -0.60550158782E-01  0.44542642700E-01  0.12809111600E+00  0.19727469428E-01 0.  0.
         14    1    1    2    0    0 -0.87395980397E-02 -0.16340194298E-01  0.14658892038E-01  0.23627645658E-01  0.00000000000E+00 0.  1.
     999901    1    3    3    0    0  0.11056195414E+00  0.76890353080E-01 -0.59201534737E-01  0.89221123834E+00  0.88000000000E+00 0. -1.
        -11    1    4    4    0    0 -0.12186906944E-01 -0.48668743444E-02  0.11660172660E-01  0.17562115881E-01  0.51100000000E-03 0.  1.
         11    1    4    4    0    0 -0.89635449157E-01 -0.55683284438E-01  0.32882470039E-01  0.11052900012E+00  0.51100000000E-03 0. -1.
</event>
<event>
 8    1  0.1092667E+005  0.1043930E+01  0.7957747E-01            NaN
         13   -1    0    0    0    0  0.00000000000E+00  0.00000000000E+00  0.74505805969E-08  0.10566000000E+00  0.10566000000E+00 0. -1.
     999900   -1    0    0    0    0 -0.00000000000E+00 -0.00000000000E+00 -0.74505805969E-08  0.93827000000E+00  0.93827000000E+00 0.  1.
     999902    2    1    2    0    0 -0.15671274805E-01 -0.15214616803E-01 -0.82011208936E-02  0.10205990806E+01  0.10203323730E+01 0.  0.
     999903    2    3    3    0    0  0.53975107953E-01  0.49775801454E-01 -0.10500483365E+00  0.13018045322E+00  0.23021568595E-01 0.  0.
         14    1    1    2    0    0  0.15671274805E-01  0.15214616803E-01  0.82011208936E-02  0.23330919450E-01  0.00000000000E+00 0. -1.
     999901    1    3    3    0    0 -0.69646382758E-01 -0.64990418257E-01  0.96803712759E-01  0.89041862733E+00  0.88000000000E+00 0. -1.
        -11    1    4    4    0    0  0.44344842603E-01  0.50285368119E-01 -0.88093513669E-01  0.11070596905E+00  0.51100000000E-03 0.  1.
         11    1    4    4    0    0  0.96302653497E-02 -0.50956666519E-03 -0.16911319983E-01  0.19474484164E-01  0.51100000000E-03 0. -1.
</event>
<event>
 8    1  0.1092667E+005  0.1043930E+01  0.7957747E-01            NaN
         13   -1    0    0    0    0  0.00000000000E+00  0.00000000000E+00  0.74505805969E-08  0.10566000000E+00  0.10566000000E+00 0.  1.
     999900   -1    0    0    0    0 -0.00000000000E+00 -0.00000000000E+00 -0.74505805969E-08  0.93827000000E+00  0.93827000000E+00 0. -1.
     999902    2    1    2    0    0  0.17437472193E-01 -0.45829090373E-02  0.16122067477E-01  0.10197434428E+01  0.10194565707E+01 0.  0.
     999903    2    3    3    0    0  0.83396939036E-01  0.17457416175E-01  0.97702723884E-01  0.13323803910E+00  0.30769172714E-01 0.  0.
         14    1    1    2    0    0 -0.17437472193E-01  0.45829090373E-02 -0.16122067477E-01  0.24186557247E-01  0.00000000000E+00 0.  1.
     999901    1    3    3    0    0 -0.65959466844E-01 -0.22040325212E-01 -0.81580656406E-01  0.88650540365E+00  0.88000000000E+00 0. -1.
        -11    1    4    4    0    0  0.68896836134E-01  0.13344928644E-01  0.58944302758E-01  0.91649075819E-01  0.51100000000E-03 0.  1.
         11    1    4    4    0    0  0.14500102902E-01  0.41124875312E-02  0.38758421126E-01  0.41588963284E-01  0.51100000000E-03 0. -1.
</event>
<event>
 8    1  0.1400604E+005  0.1043930E+01  0.7957747E-01            NaN
         13   -1    0    0    0    0  0.00000000000E+00  0.00000000000E+00  0.74505805969E-08  0.10566000000E+00  0.10566000000E+00 0.  1.
     999900   -1    0    0    0    0 -0.00000000000E+00 -0.00000000000E+00 -0.74505805969E-08  0.93827000000E+00  0.93827000000E+00 0. -1.
     999902    2    1    2    0    0 -0.99396428382E-03 -0.21752437054E-02 -0.20945906989E-01  0.10228480013E+01  0.10226307169E+01 0.  0.
     999903    2    3    3    0    0 -0.11622327246E+00  0.53437140773E-01  0.27323158361E-01  0.13228613738E+00  0.19740569526E-01 0.  0.
         14    1    1    2    0    0  0.99396428382E-03  0.21752437054E-02  0.20945906989E-01  0.21081998714E-01  0.00000000000E+00 0.  1.
     999901    1    3    3    0    0  0.11522930818E+00 -0.55612384479E-01 -0.48269065350E-01  0.89056186390E+00  0.88000000000E+00 0. -1.
        -11    1    4    4    0    0 -0.64345641669E-01  0.32677351598E-01  0.24934901269E-01  0.76355624099E-01  0.51100000000E-03 0. -1.
         11    1    4    4    0    0 -0.51877630792E-01  0.20759789175E-01  0.23882570911E-02  0.55930513283E-01  0.51100000000E-03 0.  1.
</event>
<event>
 8    1  0.1092667E+005  0.1043930E+01  0.7957747E-01            NaN
         13   -1    0    0    0    0  0.00000000000E+00  0.00000000000E+00  0.74505805969E-08  0.10566000000E+00  0.10566000000E+00 0.  1.
     999900   -1    0    0    0    0 -0.00000000000E+00 -0.00000000000E+00 -0.74505805969E-08  0.93827000000E+00  0.93827000000E+00 0. -1.
     999902    2    1    2    0    0 -0.19473061072E-01  0.11891776892E-01 -0.50016230851E-02  0.10205712608E+01  0.10203039094E+01 0.  0.
     999903    2    3    3    0    0 -0.50484320658E-01  0.91315163932E-01  0.78925612968E-01  0.13247579654E+00  0.20819665936E-01 0.  0.
         14    1    1    2    0    0  0.19473061072E-01 -0.11891776892E-01  0.50016230851E-02  0.23358739235E-01  0.00000000000E+00 0.  1.
     999901    1    3    3    0    0  0.31011259586E-01 -0.79423387040E-01 -0.83927236053E-01  0.88809546423E+00  0.88000000000E+00 0.  1.
        -11    1    4    4    0    0 -0.91429704815E-02  0.68313298279E-02  0.14540746289E-01  0.18492036126E-01  0.51100000000E-03 0.  1.
         11    1    4    4    0    0 -0.41341350177E-01  0.84483834104E-01  0.64384866679E-01  0.11398376041E+00  0.51100000000E-03 0. -1.
</event>
<event>
 8    1  0.1092667E+005  0.1043930E+01  0.7957747E-01            NaN
         13   -1    0    0    0    0  0.00000000000E+00  0.00000000000E+00  0.74505805969E-08  0.10566000000E+00  0.10566000000E+00 0. -1.
     999900   -1    0    0    0    0 -0.00000000000E+00 -0.00000000000E+00 -0.74505805969E-08  0.93827000000E+00  0.93827000000E+00 0.  1.
     999902    2    1    2    0    0 -0.70389143440E-03  0.20839297445E-01 -0.10201671480E-01  0.10207169459E+01  0.10204529571E+01 0.  0.
     999903    2    3    3    0    0  0.63187017523E-01 -0.10458576921E+00  0.33744710204E-01  0.12844749102E+00  0.20718836286E-01 0.  0.
         14    1    1    2    0    0  0.70389143440E-03 -0.20839297445E-01  0.10201671480E-01  0.23213054133E-01  0.00000000000E+00 0.  1.
     999901    1    3    3    0    0 -0.63890908958E-01  0.12542506666E+00 -0.43946381684E-01  0.89226945485E+00  0.88000000000E+00 0. -1.
        -11    1    4    4    0    0  0.19717364300E-01 -0.50366171926E-01  0.99982961777E-02  0.55006843001E-01  0.51100000000E-03 0.  1.
         11    1    4    4    0    0  0.43469653223E-01 -0.54219597286E-01  0.23746414026E-01  0.73440648018E-01  0.51100000000E-03 0. -1.
</event>
<event>
 8    1  0.1092667E+005  0.1043930E+01  0.7957747E-01            NaN
         13   -1    0    0    0    0  0.00000000000E+00  0.00000000000E+00  0.74505805969E-08  0.10566000000E+00  0.10566000000E+00 0.  1.
     999900   -1    0    0    0    0 -0.00000000000E+00 -0.00000000000E+00 -0.74505805969E-08  0.93827000000E+00  0.93827000000E+00 0.  1.
     999902    2    1    2    0    0 -0.66201042725E-02  0.22183464304E-01 -0.11743388685E-02  0.10207500315E+01  0.10204868034E+01 0.  0.
     999903    2    3    3    0    0  0.87205710357E-01  0.97133440160E-01 -0.11559084200E-01  0.13253348957E+00  0.19793239109E-01 0.  0.
         14    1    1    2    0    0  0.66201042725E-02 -0.22183464304E-01  0.11743388685E-02  0.23179968526E-01  0.00000000000E+00 0. -1.
     999901    1    3    3    0    0 -0.93825814630E-01 -0.74949975856E-01  0.10384745332E-01  0.88821654190E+00  0.88000000000E+00 0. -1.
        -11    1    4    4    0    0  0.50768704553E-01  0.70520516915E-01 -0.68796071708E-02  0.87167624630E-01  0.51100000000E-03 0. -1.
         11    1    4    4    0    0  0.36437005805E-01  0.26612923245E-01 -0.46794770297E-02  0.45365864942E-01  0.51100000000E-03 0.  1.
</event>
<event>
 8    1  0.1092667E+005  0.1043930E+01  0.7957747E-01            NaN
         13   -1    0    0    0    0  0.00000000000E+00  0.00000000000E+00  0.74505805969E-08  0.10566000000E+00  0.10566000000E+00 0.  1.
     999900   -1    0    0    0    0 -0.00000000000E+00 -0.00000000000E+00 -0.74505805969E-08  0.93827000000E+00  0.93827000000E+00 0. -1.
     999902    2    1    2    0    0 -0.92480623842E-02 -0.36770546969E-02 -0.19832185294E-01  0.10217407467E+01  0.10214997751E+01 0.  0.
     999903    2    3    3    0    0  0.10808638607E+00 -0.95625472210E-02  0.68444132579E-01  0.12955538472E+00  0.18052403213E-01 0.  0.
         14    1    1    2    0    0  0.92480623842E-02  0.36770546969E-02  0.19832185294E-01  0.22189253314E-01  0.00000000000E+00 0.  1.
     999901    1    3    3    0    0 -0.11733444845E+00  0.58854925242E-02 -0.88276317873E-01  0.89218536197E+00  0.88000000000E+00 0.  1.
        -11    1    4    4    0    0  0.61459140152E-01  0.24763532143E-02  0.33388344225E-01  0.69988576815E-01  0.51100000000E-03 0.  1.
         11    1    4    4    0    0  0.46627245916E-01 -0.12038900435E-01  0.35055788353E-01  0.59566807901E-01  0.51100000000E-03 0. -1.
</event>
<event>
 8    1  0.1092667E+005  0.1043930E+01  0.7957747E-01            NaN
         13   -1    0    0    0    0  0.00000000000E+00  0.00000000000E+00  0.74505805969E-08  0.10566000000E+00  0.10566000000E+00 0. -1.
     999900   -1    0    0    0    0 -0.00000000000E+00 -0.00000000000E+00 -0.74505805969E-08  0.93827000000E+00  0.93827000000E+00 0. -1.
     999902    2    1    2    0    0  0.48125984466E-02  0.19164721632E-01 -0.11830989944E-01  0.10208991515E+01  0.10206393377E+01 0.  0.
     999903    2    3    3    0    0  0.31720800508E-01 -0.87678394942E-01 -0.89488433332E-01  0.13063504384E+00  0.19068950001E-01 0.  0.
         14    1    1    2    0    0 -0.48125984466E-02 -0.19164721632E-01  0.11830989944E-01  0.23030848488E-01  0.00000000000E+00 0.  1.
     999901    1    3    3    0    0 -0.26908202061E-01  0.10684311657E+00  0.77657443389E-01  0.89026410767E+00  0.88000000000E+00 0.  1.
        -11    1    4    4    0    0  0.20923899185E-01 -0.75275278935E-01 -0.68047202152E-01  0.10360916956E+00  0.51100000000E-03 0.  1.
         11    1    4    4    0    0  0.10796901323E-01 -0.12403116006E-01 -0.21441231180E-01  0.27025874275E-01  0.51100000000E-03 0. -1.
</event>
<event>
 8    1  0.1092667E+005  0.1043930E+01  0.7957747E-01            NaN
         13   -1    0    0    0    0  0.00000000000E+00  0.00000000000E+00  0.74505805969E-08  0.10566000000E+00  0.10566000000E+00 0. -1.
     999900   -1    0    0    0    0 -0.00000000000E+00 -0.00000000000E+00 -0.74505805969E-08  0.93827000000E+00  0.93827000000E+00 0. -1.
     999902    2    1    2    0    0  0.45464718500E-02  0.17626902750E-01  0.14674410789E-01  0.10205480318E+01  0.10202801423E+01 0.  0.
     999903    2    3    3    0    0 -0.40554325600E-01  0.26766982269E-01  0.12207571951E+00  0.13282472796E+00  0.19462846639E-01 0.  0.
         14    1    1    2    0    0 -0.45464718500E-02 -0.17626902750E-01 -0.14674410789E-01  0.23381968241E-01  0.00000000000E+00 0.  1.
     999901    1    3    3    0    0  0.45100797450E-01 -0.91400795188E-02 -0.10740130872E+00  0.88772330379E+00  0.88000000000E+00 0. -1.
        -11    1    4    4    0    0 -0.24855729991E-01  0.20800040025E-01  0.99738620178E-01  0.10487374531E+00  0.51100000000E-03 0. -1.
         11    1    4    4    0    0 -0.15698595609E-01  0.59669422432E-02  0.22337099335E-01  0.27950982658E-01  0.51100000000E-03 0.  1.
</event>
<event>
 8    1  0.1092667E+005  0.1043930E+01  0.7957747E-01            NaN
         13   -1    0    0    0    0  0.00000000000E+00  0.00000000000E+00  0.74505805969E-08  0.10566000000E+00  0.10566000000E+00 0.  1.
     999900   -1    0    0    0    0 -0.00000000000E+00 -0.00000000000E+00 -0.74505805969E-08  0.93827000000E+00  0.93827000000E+00 0.  1.
     999902    2    1    2    0    0  0.90976126093E-02  0.21614515563E-01  0.44654470690E-02  0.10200575461E+01  0.10197781638E+01 0.  0.
     999903    2    3    3    0    0 -0.65823654678E-01 -0.97079712887E-01  0.47239054609E-01  0.12790784023E+00  0.19278566934E-01 0.  0.
         14    1    1    2    0    0 -0.90976126093E-02 -0.21614515563E-01 -0.44654470690E-02  0.23872453911E-01  0.00000000000E+00 0. -1.
     999901    1    3    3    0    0  0.74921267288E-01  0.11869422845E+00 -0.42773607540E-01  0.89214970586E+00  0.88000000000E+00 0.  1.
        -11    1    4    4    0    0 -0.29641912771E-01 -0.55953758118E-01  0.32525695425E-01  0.71187414788E-01  0.51100000000E-03 0.  1.
         11    1    4    4    0    0 -0.36181741907E-01 -0.41125954769E-01  0.14713359183E-01  0.56720425444E-01  0.51100000000E-03 0. -1.
</event>
<event>
 8    1  0.1092667E+005  0.1043930E+01  0.7957747E-01            NaN
         13   -1    0    0    0    0  0.00000000000E+00  0.00000000000E+00  0.74505805969E-08  0.10566000000E+00  0.10566000000E+00 0. -1.
     999900   -1    0    0    0    0 -0.00000000000E+00 -0.00000000000E+00 -0.74505805969E-08  0.93827000000E+00  0.93827000000E+00 0. -1.
     999902    2    1    2    0    0  0.18523069382E-02  0.71880730222E-02 -0.22157718818E-01  0.10205619890E+01  0.10202944229E+01 0.  0.
     999903    2    3    3    0    0  0.63309545479E-01 -0.10845804289E+00 -0.18721319184E-01  0.13086382382E+00  0.31679756550E-01 0.  0.
         14    1    1    2    0    0 -0.18523069382E-02 -0.71880730222E-02  0.22157718818E-01  0.23368010997E-01  0.00000000000E+00 0. -1.
     999901    1    3    3    0    0 -0.61457238541E-01  0.11564611591E+00 -0.34363996341E-02  0.88969816519E+00  0.88000000000E+00 0.  1.
        -11    1    4    4    0    0  0.25424597556E-01 -0.52013933821E-01 -0.24006712371E-01  0.62677291201E-01  0.51100000000E-03 0. -1.
         11    1    4    4    0    0  0.37884947923E-01 -0.56444109070E-01  0.52853931875E-02  0.68186532615E-01  0.51100000000E-03 0.  1.
</event>
<event>
 8    1  0.1092667E+005  0.1043930E+01  0.7957747E-01            NaN
         13   -1    0    0    0    0  0.00000000000E+00  0.00000000000E+00  0.74505805969E-08  0.10566000000E+00  0.10566000000E+00 0.  1.
     999900   -1    0    0    0    0 -0.00000000000E+00 -0.00000000000E+00 -0.74505805969E-08  0.93827000000E+00  0.93827000000E+00 0.  1.
     999902    2    1    2    0    0  0.16420824523E-01  0.17883903455E-01 -0.10314758360E-02  0.10196289419E+01  0.10193393144E+01 0.  0.
     999903    2    3    3    0    0 -0.53944009247E-01 -0.11300617450E+00  0.63818495338E-02  0.12713895334E+00  0.21053119617E-01 0.  0.
         14    1    1    2    0    0 -0.16420824523E-01 -0.17883903455E-01  0.10314758360E-02  0.24301058068E-01  0.00000000000E+00 0. -1.
     999901    1    3    3    0    0  0.70364833771E-01  0.13089007795E+00 -0.74133253699E-02  0.89248998859E+00  0.88000000000E+00 0. -1.
        -11    1    4    4    0    0 -0.62835023306E-02 -0.31517422853E-01  0.62003466346E-02  0.32734320891E-01  0.51100000000E-03 0.  1.
         11    1    4    4    0    0 -0.47660506917E-01 -0.81488751644E-01  0.18150289928E-03  0.94404632452E-01  0.51100000000E-03 0. -1.
</event>
<event>
 8    1  0.1092667E+005  0.1043930E+01  0.7957747E-01            NaN
         13   -1    0    0    0    0  0.00000000000E+00  0.00000000000E+00  0.74505805969E-08  0.10566000000E+00  0.10566000000E+00 0. -1.
     999900   -1    0    0    0    0 -0.00000000000E+00 -0.00000000000E+00 -0.74505805969E-08  0.93827000000E+00  0.93827000000E+00 0.  1.
     999902    2    1    2    0    0 -0.21329319476E-01 -0.13577342381E-02  0.10559150647E-01  0.10200913974E+01  0.10198128162E+01 0.  0.
     999903    2    3    3    0    0 -0.48026036014E-02 -0.98608600206E-01 -0.81714292133E-01  0.12978512902E+00  0.20499588791E-01 0.  0.
         14    1    1    2    0    0  0.21329319476E-01  0.13577342381E-02 -0.10559150647E-01  0.23838602600E-01  0.00000000000E+00 0. -1.
     999901    1    3    3    0    0 -0.16526715874E-01  0.97250865968E-01  0.92273442780E-01  0.89030626838E+00  0.88000000000E+00 0. -1.
        -11    1    4    4    0    0 -0.53484326151E-03 -0.65698975051E-01 -0.41789996662E-01  0.77867235228E-01  0.51100000000E-03 0. -1.
         11    1    4    4    0    0 -0.42677603399E-02 -0.32909625156E-01 -0.39924295471E-01  0.51917893795E-01  0.51100000000E-03 0.  1.
</event>
<event>
 8    1  0.1092667E+005  0.1043930E+01  0.7957747E-01            NaN
         13   -1    0    0    0    0  0.00000000000E+00  0.00000000000E+00  0.74505805969E-08  0.10566000000E+00  0.10566000000E+00 0. -1.
     999900   -1    0    0    0    0 -0.00000000000E+00 -0.00000000000E+00 -0.74505805969E-08  0.93827000000E+00  0.93827000000E+00 0.  1.
     999902    2    1    2    0    0  0.41533890456E-03  0.27534287564E-02 -0.25411482754E-01  0.10183664061E+01  0.10180454999E+01 0.  0.
     999903    2    3    3    0    0  0.73445629887E-01  0.10125327268E+00  0.23130363559E-01  0.12853948278E+00  0.18463454087E-01 0.  0.
         14    1    1    2    0    0 -0.41533890456E-03 -0.27534287564E-02  0.25411482754E-01  0.25563593880E-01  0.00000000000E+00 0. -1.
     999901    1    3    3    0    0 -0.73030290982E-01 -0.98499843927E-01 -0.48541846313E-01  0.88982692334E+00  0.88000000000E+00 0.  1.
        -11    1    4    4    0    0  0.37345608143E-01  0.36224860165E-01  0.80992029789E-02  0.52657318119E-01  0.51100000000E-03 0. -1.
         11    1    4    4    0    0  0.36100021744E-01  0.65028412518E-01  0.15031160580E-01  0.75882164662E-01  0.51100000000E-03 0.  1.
</event>
<event>
 8    1  0.1092667E+005  0.1043930E+01  0.7957747E-01            NaN
         13   -1    0    0    0    0  0.00000000000E+00  0.00000000000E+00  0.74505805969E-08  0.10566000000E+00  0.10566000000E+00 0.  1.
     999900   -1    0    0    0    0 -0.00000000000E+00 -0.00000000000E+00 -0.74505805969E-08  0.93827000000E+00  0.93827000000E+00 0. -1.
     999902    2    1    2    0    0  0.15983239179E-01 -0.15949802575E-01  0.10029058884E-01  0.10192228723E+01  0.10189233638E+01 0.  0.
     999903    2    3    3    0    0  0.47589054818E-02 -0.46218657506E-01  0.12148648560E+00  0.13160530420E+00  0.20054386716E-01 0.  0.
         14    1    1    2    0    0 -0.15983239179E-01  0.15949802575E-01 -0.10029058884E-01  0.24707127695E-01  0.00000000000E+00 0.  1.
     999901    1    3    3    0    0  0.11224333698E-01  0.30268854931E-01 -0.11145742671E+00  0.88761756811E+00  0.88000000000E+00 0. -1.
        -11    1    4    4    0    0  0.59626316946E-02 -0.36751491881E-01  0.70482701936E-01  0.79713847764E-01  0.51100000000E-03 0.  1.
         11    1    4    4    0    0 -0.12037262129E-02 -0.94671656249E-02  0.51003783662E-01  0.51891456432E-01  0.51100000000E-03 0. -1.
</event>
<event>
 8    1  0.1092667E+005  0.1043930E+01  0.7957747E-01            NaN
         13   -1    0    0    0    0  0.00000000000E+00  0.00000000000E+00  0.74505805969E-08  0.10566000000E+00  0.10566000000E+00 0. -1.
     999900   -1    0    0    0    0 -0.00000000000E+00 -0.00000000000E+00 -0.74505805969E-08  0.93827000000E+00  0.93827000000E+00 0.  1.
     999902    2    1    2    0    0  0.57231030764E-02  0.23358124878E-01 -0.27289608228E-02  0.10197266297E+01  0.10194393539E+01 0.  0.
     999903    2    3    3    0    0 -0.11373167149E+00  0.33661596636E-01  0.49452846446E-01  0.13006458954E+00  0.20080269981E-01 0.  0.
         14    1    1    2    0    0 -0.57231030764E-02 -0.23358124878E-01  0.27289608228E-02  0.24203370299E-01  0.00000000000E+00 0. -1.
     999901    1    3    3    0    0  0.11945477456E+00 -0.10303471757E-01 -0.52181807269E-01  0.88966204016E+00  0.88000000000E+00 0. -1.
        -11    1    4    4    0    0 -0.66183467955E-01  0.25939815939E-01  0.37753561415E-01  0.80490483922E-01  0.51100000000E-03 0. -1.
         11    1    4    4    0    0 -0.47548203534E-01  0.77217806964E-02  0.11699285031E-01  0.49574105616E-01  0.51100000000E-03 0.  1.
</event>
<event>
 8    1  0.1092667E+005  0.1043930E+01  0.7957747E-01            NaN
         13   -1    0    0    0    0  0.00000000000E+00  0.00000000000E+00  0.74505805969E-08  0.10566000000E+00  0.10566000000E+00 0. -1.
     999900   -1    0    0    0    0 -0.00000000000E+00 -0.00000000000E+00 -0.74505805969E-08  0.93827000000E+00  0.93827000000E+00 0. -1.
     999902    2    1    2    0    0  0.40698259615E-02 -0.21674420347E-01  0.61809932848E-02  0.10210269727E+01  0.10207700673E+01 0.  0.
     999903    2    3    3    0    0  0.89467894042E-01  0.86486659800E-01 -0.20783345940E-01  0.12989357929E+00  0.30918410126E-01 0.  0.
         14    1    1    2    0    0 -0.40698259615E-02  0.21674420347E-01 -0.61809932848E-02  0.22903027283E-01  0.00000000000E+00 0. -1.
     999901    1    3    3    0    0 -0.85398068080E-01 -0.10816108015E+00  0.26964339225E-01  0.89113339343E+00  0.88000000000E+00 0.  1.
        -11    1    4    4    0    0  0.36440999723E-01  0.55481798426E-01 -0.15983753840E-01  0.68278239031E-01  0.51100000000E-03 0. -1.
         11    1    4    4    0    0  0.53026894318E-01  0.31004861374E-01 -0.47995921002E-02  0.61615340259E-01  0.51100000000E-03 0.  1.
</event>
<event>
 8    1  0.1092667E+005  0.1043930E+01  0.7957747E-01            NaN
         13   -1    0    0    0    0  0.00000000000E+00  0.00000000000E+00  0.74505805969E-08  0.10566000000E+00  0.10566000000E+00 0.  1.
     999900   -1    0    0    0    0 -0.00000000000E+00 -0.00000000000E+00 -0.74505805969E-08  0.93827000000E+00  0.93827000000E+00 0. -1.
     999902    2    1    2    0    0 -0.28636138236E-02  0.23061754960E-01 -0.52414186128E-04  0.10206910763E+01  0.10204264921E+01 0.  0.
     999903    2    3    3    0    0 -0.36968296949E-01  0.39028898423E-01  0.11877836098E+00  0.13190604484E+00  0.20024877923E-01 0.  0.
         14    1    1    2    0    0  0.28636138236E-02 -0.23061754960E-01  0.52414186128E-04  0.23238923667E-01  0.00000000000E+00 0.  1.
     999901    1    3    3    0    0  0.34104683125E-01 -0.15967143463E-01 -0.11883077517E+00  0.88878503149E+00  0.88000000000E+00 0. -1.
        -11    1    4    4    0    0 -0.26622474003E-01  0.24571011361E-01  0.56345941355E-01  0.66989677933E-01  0.51100000000E-03 0. -1.
         11    1    4    4    0    0 -0.10345822946E-01  0.14457887062E-01  0.62432419627E-01  0.64916366906E-01  0.51100000000E-03 0.  1.
</event>
<event>
 8    1  0.1092667E+005  0.1043930E+01  0.7957747E-01            NaN
         13   -1    0    0    0    0  0.00000000000E+00  0.00000000000E+00  0.74505805969E-08  0.10566000000E+00  0.10566000000E+00 0. -1.
     999900   -1    0    0    0    0 -0.00000000000E+00 -0.00000000000E+00 -0.74505805969E-08  0.93827000000E+00  0.93827000000E+00 0. -1.
     999902    2    1    2    0    0 -0.14638339199E-01 -0.17645057527E-01 -0.78750142201E-02  0.10196886123E+01  0.10194004224E+01 0.  0.
     999903    2    3    3    0    0 -0.31629654676E-03 -0.12664886992E+00  0.30687821948E-01  0.13200959126E+00  0.21089179083E-01 0.  0.
         14    1    1    2    0    0  0.14638339199E-01  0.17645057527E-01  0.78750142201E-02  0.24241387721E-01  0.00000000000E+00 0. -1.
     999901    1    3    3    0    0 -0.14322042653E-01  0.10900381239E+00 -0.38562836168E-01  0.88767902102E+00  0.88000000000E+00 0. -1.
        -11    1    4    4    0    0 -0.62471228292E-02 -0.72744223474E-01  0.26276662772E-01  0.77598148946E-01  0.51100000000E-03 0. -1.
         11    1    4    4    0    0  0.59308262824E-02 -0.53904646444E-01  0.44111591756E-02  0.54411442316E-01  0.51100000000E-03 0.  1.
</event>
<event>
 8    1  0.1092667E+005  0.1043930E+01  0.7957747E-01            NaN
         13   -1    0    0    0    0  0.00000000000E+00  0.00000000000E+00  0.74505805969E-08  0.10566000000E+00  0.10566000000E+00 0. -1.
     999900   -1    0    0    0    0 -0.00000000000E+00 -0.00000000000E+00 -0.74505805969E-08  0.93827000000E+00  0.93827000000E+00 0. -1.
     999902    2    1    2    0    0 -0.13632585203E-01  0.18162103575E-01 -0.62648930634E-02  0.10203724477E+01  0.10201004724E+01 0.  0.
     999903    2    3    3    0    0  0.60119867078E-01 -0.82081922090E-01  0.74683513752E-01  0.12793705313E+00  0.20938528754E-01 0.  0.
         14    1    1    2    0    0  0.13632585203E-01 -0.18162103575E-01  0.62648930634E-02  0.23557552307E-01  0.00000000000E+00 0. -1.
     999901    1    3    3    0    0 -0.73752452281E-01  0.10024402567E+00 -0.80948406815E-01  0.89243539456E+00  0.88000000000E+00 0. -1.
        -11    1    4    4    0    0  0.47465435268E-01 -0.48220647287E-01  0.50729082360E-01  0.84568902606E-01  0.51100000000E-03 0.  1.
         11    1    4    4    0    0  0.12654431810E-01 -0.33861274804E-01  0.23954431392E-01  0.43368150526E-01  0.51100000000E-03 0. -1.
</event>
<event>
 8    1  0.1092667E+005  0.1043930E+01  0.7957747E-01            NaN
         13   -1    0    0    0    0  0.00000000000E+00  0.00000000000E+00  0.74505805969E-08  0.10566000000E+00  0.10566000000E+00 0. -1.
     999900   -1    0    0    0    0 -0.00000000000E+00 -0.00000000000E+00 -0.74505805969E-08  0.93827000000E+00  0.93827000000E+00 0. -1.
     999902    2    1    2    0    0 -0.41996941334E-02 -0.22597061115E-01  0.54327784411E-02  0.10203126402E+01  0.10200392660E+01 0.  0.
     999903    2    3    3    0    0  0.11836376865E+00 -0.42328425770E-01  0.33275847382E-01  0.13116340322E+00  0.17172040296E-01 0.  0.
         14    1    1    2    0    0  0.41996941334E-02  0.22597061115E-01 -0.54327784411E-02  0.23617359790E-01  0.00000000000E+00 0.  1.
     999901    1    3    3    0    0 -0.12256346278E+00  0.19731364655E-01 -0.27843068941E-01  0.88914923699E+00  0.88000000000E+00 0.  1.
        -11    1    4    4    0    0  0.54206215632E-01 -0.26735118285E-01  0.21119591763E-01  0.64026390185E-01  0.51100000000E-03 0.  1.
         11    1    4    4    0    0  0.64157553014E-01 -0.15593307485E-01  0.12156255618E-01  0.67137013031E-01  0.51100000000E-03 0. -1.
</event>
<event>
 8    1  0.1092667E+005  0.1043930E+01  0.7957747E-01            NaN
         13   -1    0    0    0    0  0.00000000000E+00  0.00000000000E+00  0.74505805969E-08  0.10566000000E+00  0.10566000000E+00 0. -1.
     999900   -1    0    0    0    0 -0.00000000000E+00 -0.00000000000E+00 -0.74505805969E-08  0.93827000000E+00  0.93827000000E+00 0. -1.
     999902    2    1    2    0    0 -0.21654246084E-01 -0.25812682238E-02  0.85250510826E-02  0.10205153504E+01  0.10202467028E+01 0.  0.
     999903    2    3    3    0    0  0.12489474604E+00 -0.46117950043E-02 -0.17604190049E-01  0.12801130708E+00  0.21378049290E-01 0.  0.
         14    1    1    2    0    0  0.21654246084E-01  0.25812682238E-02 -0.85250510826E-02  0.23414649582E-01  0.00000000000E+00 0.  1.
     999901    1    3    3    0    0 -0.14654899212E+00  0.20305267806E-02  0.26129241131E-01  0.89250404334E+00  0.88000000000E+00 0.  1.
        -11    1    4    4    0    0  0.23028516741E-01  0.64740446004E-02  0.61825275213E-03  0.23934686007E-01  0.51100000000E-03 0.  1.
         11    1    4    4    0    0  0.10186622930E+00 -0.11085839605E-01 -0.18222442801E-01  0.10407662107E+00  0.51100000000E-03 0. -1.
</event>
<event>
 8    1  0.1092667E+005  0.1043930E+01  0.7957747E-01            NaN
         13   -1    0    0    0    0  0.00000000000E+00  0.00000000000E+00  0.74505805969E-08  0.10566000000E+00  0.10566000000E+00 0. -1.
     999900   -1    0    0    0    0 -0.00000000000E+00 -0.00000000000E+00 -0.74505805969E-08  0.93827000000E+00  0.93827000000E+00 0.  1.
     999902    2    1    2    0    0  0.93754155023E-02 -0.20233409559E-01 -0.89707133050E-02  0.10198932994E+01  0.10196100133E+01 0.  0.
     999903    2    3    3    0    0 -0.12502730262E+00  0.19514428730E-01  0.11743412263E-01  0.12856111874E+00  0.19427150925E-01 0.  0.
         14    1    1    2    0    0 -0.93754155023E-02  0.20233409559E-01  0.89707133050E-02  0.24036700593E-01  0.00000000000E+00 0.  1.
     999901    1    3    3    0    0  0.13440271812E+00 -0.39747838289E-01 -0.20714125568E-01  0.89133218066E+00  0.88000000000E+00 0.  1.
        -11    1    4    4    0    0 -0.99203159716E-01  0.18596836305E-01  0.16527077863E-01  0.10227665737E+00  0.51100000000E-03 0. -1.
         11    1    4    4    0    0 -0.25824142901E-01  0.91759242487E-03 -0.47836656003E-02  0.26284461379E-01  0.51100000000E-03 0.  1.
</event>
<event>
 8    1  0.1092667E+005  0.1043930E+01  0.7957747E-01            NaN
         13   -1    0    0    0    0  0.00000000000E+00  0.00000000000E+00  0.74505805969E-08  0.10566000000E+00  0.10566000000E+00 0.  1.
     999900   -1    0    0    0    0 -0.00000000000E+00 -0.00000000000E+00 -0.74505805969E-08  0.93827000000E+00  0.93827000000E+00 0.  1.
     999902    2    1    2    0    0 -0.17500143908E-02 -0.24692951382E-01  0.79662549073E-02  0.10179248925E+01  0.10175926597E+01 0.  0.
     999903    2    3    3    0    0  0.10891853517E+00 -0.17540315491E-01 -0.61746864771E-01  0.12822909780E+00  0.21426998026E-01 0.  0.
         14    1    1    2    0    0  0.17500143908E-02  0.24692951382E-01 -0.79662549073E-02  0.26005107491E-01  0.00000000000E+00 0.  1.
     999901    1    3    3    0    0 -0.11066854956E+00 -0.71526358913E-02  0.69713119678E-01  0.88969579471E+00  0.88000000000E+00 0. -1.
        -11    1    4    4    0    0  0.86769283653E-01 -0.12995677789E-01 -0.38557765697E-01  0.95837146469E-01  0.51100000000E-03 0.  1.
         11    1    4    4    0    0  0.22149251513E-01 -0.45446377023E-02 -0.23189099074E-01  0.32391951335E-01  0.51100000000E-03 0. -1.
</event>
<event>
 8    1  0.1092667E+005  0.1043930E+01  0.7957747E-01            NaN
         13   -1    0    0    0    0  0.00000000000E+00  0.00000000000E+00  0.74505805969E-08  0.10566000000E+00  0.10566000000E+00 0.  1.
     999900   -1    0    0    0    0 -0.00000000000E+00 -0.00000000000E+00 -0.74505805969E-08  0.93827000000E+00  0.93827000000E+00 0. -1.
     999902    2    1    2    0    0 -0.27025477213E-01 -0.10321920059E-01  0.26878481346E-03  0.10149992085E+01  0.10145868137E+01 0.  0.
     999903    2    3    3    0    0  0.10559411634E+00  0.33468600782E-02 -0.58565873036E-01  0.12301473042E+00  0.23266790488E-01 0.  0.
         14    1    1    2    0    0  0.27025477213E-01  0.10321920059E-01 -0.26878481346E-03  0.28930791513E-01  0.00000000000E+00 0.  1.
     999901    1    3    3    0    0 -0.13261959355E+00 -0.13668780137E-01  0.58834657850E-01  0.89198447806E+00  0.88000000000E+00 0.  1.
        -11    1    4    4    0    0  0.36352335375E-01  0.69275558104E-02 -0.31439186467E-01  0.48560960487E-01  0.51100000000E-03 0. -1.
         11    1    4    4    0    0  0.69241780960E-01 -0.35806957322E-02 -0.27126686569E-01  0.74453769936E-01  0.51100000000E-03 0.  1.
</event>
<event>
 8    1  0.1092667E+005  0.1043930E+01  0.7957747E-01            NaN
         13   -1    0    0    0    0  0.00000000000E+00  0.00000000000E+00  0.74505805969E-08  0.10566000000E+00  0.10566000000E+00 0.  1.
     999900   -1    0    0    0    0 -0.00000000000E+00 -0.00000000000E+00 -0.74505805969E-08  0.93827000000E+00  0.93827000000E+00 0.  1.
     999902    2    1    2    0    0  0.22932265615E-01 -0.22456635894E-02  0.58402506768E-02  0.10201594228E+01  0.10198824480E+01 0.  0.
     999903    2    3    3    0    0  0.99361443948E-01  0.45539060255E-01  0.72983135885E-01  0.13301063814E+00  0.20464339294E-01 0.  0.
         14    1    1    2    0    0 -0.22932265615E-01  0.22456635894E-02 -0.58402506768E-02  0.23770577174E-01  0.00000000000E+00 0. -1.
     999901    1    3    3    0    0 -0.76429178333E-01 -0.47784723844E-01 -0.67142885209E-01  0.88714878468E+00  0.88000000000E+00 0.  1.
        -11    1    4    4    0    0  0.28597664105E-01  0.17690345748E-01  0.12631173438E-01  0.35924676594E-01  0.51100000000E-03 0.  1.
         11    1    4    4    0    0  0.70763779843E-01  0.27848714507E-01  0.60351962447E-01  0.97085961547E-01  0.51100000000E-03 0. -1.
</event>
<event>
 8    1  0.1092667E+005  0.1043930E+01  0.7957747E-01            NaN
         13   -1    0    0    0    0  0.00000000000E+00  0.00000000000E+00  0.74505805969E-08  0.10566000000E+00  0.10566000000E+00 0. -1.
     999900   -1    0    0    0    0 -0.00000000000E+00 -0.00000000000E+00 -0.74505805969E-08  0.93827000000E+00  0.93827000000E+00 0.  1.
     999902    2    1    2    0    0  0.46507021058E-02 -0.51341571303E-02 -0.22506945353E-01  0.10203810894E+01  0.10201093160E+01 0.  0.
     999903    2    3    3    0    0  0.36803452188E-01  0.11732479343E+00  0.35244611200E-01  0.12944605466E+00  0.19861953654E-01 0.  0.
         14    1    1    2    0    0 -0.46507021058E-02  0.51341571303E-02  0.22506945353E-01  0.23548910561E-01  0.00000000000E+00 0. -1.
     999901    1    3    3    0    0 -0.32152750083E-01 -0.12245895056E+00 -0.57751556553E-01  0.89093503478E+00  0.88000000000E+00 0.  1.
        -11    1    4    4    0    0  0.21653307260E-01  0.41250338476E-01  0.82670743883E-02  0.47318725465E-01  0.51100000000E-03 0.  1.
         11    1    4    4    0    0  0.15150144928E-01  0.76074454951E-01  0.26977536811E-01  0.82127329196E-01  0.51100000000E-03 0. -1.
</event>
<event>
 8    1  0.1092667E+005  0.1043930E+01  0.7957747E-01            NaN
         13   -1    0    0    0    0  0.00000000000E+00  0.00000000000E+00  0.74505805969E-08  0.10566000000E+00  0.10566000000E+00 0. -1.
     999900   -1    0    0    0    0 -0.00000000000E+00 -0.00000000000E+00 -0.74505805969E-08  0.93827000000E+00  0.93827000000E+00 0.  1.
     999902    2    1    2    0    0  0.23264480243E-01 -0.47460663308E-02 -0.46993574202E-02  0.10197257618E+01  0.10194384651E+01 0.  0.
     999903    2    3    3    0    0 -0.34241187571E-01  0.12023708363E+00 -0.29707061219E-01  0.12868531667E+00  0.69271953980E-02 0.  0.
         14    1    1    2    0    0 -0.23264480243E-01  0.47460663308E-02  0.46993574202E-02  0.24204238198E-01  0.00000000000E+00 0.  1.
     999901    1    3    3    0    0  0.57505667814E-01 -0.12498314996E+00  0.25007703799E-01  0.89104044513E+00  0.88000000000E+00 0.  1.
        -11    1    4    4    0    0 -0.16243292756E-01  0.46470479470E-01 -0.13410350188E-01  0.51024000577E-01  0.51100000000E-03 0.  1.
         11    1    4    4    0    0 -0.17997894815E-01  0.73766604156E-01 -0.16296711031E-01  0.77661316097E-01  0.51100000000E-03 0. -1.
</event>
<event>
 8    1  0.1092667E+005  0.1043930E+01  0.7957747E-01            NaN
         13   -1    0    0    0    0  0.00000000000E+00  0.00000000000E+00  0.74505805969E-08  0.10566000000E+00  0.10566000000E+00 0.  1.
     999900   -1    0    0    0    0 -0.00000000000E+00 -0.00000000000E+00 -0.74505805969E-08  0.93827000000E+00  0.93827000000E+00 0.  1.
     999902    2    1    2    0    0 -0.14979040408E-02 -0.20243008212E-01  0.11648848298E-01  0.10205266078E+01  0.10202582215E+01 0.  0.
     999903    2    3    3    0    0  0.34342918721E-01  0.12150846180E+00  0.12893181960E-01  0.12846181636E+00  0.19810647842E-01 0.  0.
         14    1    1    2    0    0  0.14979040408E-02  0.20243008212E-01 -0.11648848298E-01  0.23403392162E-01  0.00000000000E+00 0. -1.
     999901    1    3    3    0    0 -0.35840822761E-01 -0.14175147001E+00 -0.12443336619E-02  0.89206479148E+00  0.88000000000E+00 0. -1.
        -11    1    4    4    0    0  0.28224973443E-01  0.10594115260E+00  0.44737340669E-02  0.10972899506E+00  0.51100000000E-03 0.  1.
         11    1    4    4    0    0  0.61179452772E-02  0.15567309196E-01  0.84194478930E-02  0.18732821300E-01  0.51100000000E-03 0. -1.
</event>
<event>
 8    1  0.1092667E+005  0.1043930E+01  0.7957747E-01            NaN
         13   -1    0    0    0    0  0.00000000000E+00  0.00000000000E+00  0.74505805969E-08  0.10566000000E+00  0.10566000000E+00 0. -1.
     999900   -1    0    0    0    0 -0.00000000000E+00 -0.00000000000E+00 -0.74505805969E-08  0.93827000000E+00  0.93827000000E+00 0.  1.
     999902    2    1    2    0    0 -0.14324655754E-01 -0.72234081921E-02 -0.26180170523E-01  0.10132253633E+01  0.10127600219E+01 0.  0.
     999903    2    3    3    0    0  0.90311064142E-01  0.66799341246E-01  0.41366251078E-01  0.12137867219E+00  0.20084198690E-01 0.  0.
         14    1    1    2    0    0  0.14324655754E-01  0.72234081921E-02  0.26180170523E-01  0.30704636734E-01  0.00000000000E+00 0. -1.
     999901    1    3    3    0    0 -0.10463571990E+00 -0.74022749438E-01 -0.67546421600E-01  0.89184669108E+00  0.88000000000E+00 0. -1.
        -11    1    4    4    0    0  0.27305591626E-01  0.11823653775E-01  0.49309949752E-02  0.30165708264E-01  0.51100000000E-03 0. -1.
         11    1    4    4    0    0  0.63005472515E-01  0.54975687471E-01  0.36435256102E-01  0.91212963925E-01  0.51100000000E-03 0.  1.
</event>
<event>
 7    1  0.1092667E+005  0.1043930E+01  0.7957747E-01            NaN
         13   -1    0    0    0    0  0.00000000000E+00  0.00000000000E+00  0.74505805969E-08  0.10566000000E+00  0.10566000000E+00 0.  1.
     999900   -1    0    0    0    0 -0.00000000000E+00 -0.00000000000E+00 -0.74505805969E-08  0.93827000000E+00  0.93827000000E+00 0.  1.
     999903    2    1    2    0    0 -0.78819389944E-01 -0.46065438035E-01 -0.32850152343E-01  0.10002690334E+00  0.24325461355E-01 0.  0.
         14    1    1    2    0    0 -0.50851855524E-01  0.46495500080E-03  0.15127342801E-01  0.53056233316E-01  0.00000000000E+00 0. -1.
     999901    1    1    2    0    0  0.12967124547E+00  0.45600483034E-01  0.17722809543E-01  0.89084686335E+00  0.88000000000E+00 0. -1.
        -11    1    3    3    0    0 -0.32919621699E-02  0.27964425279E-02 -0.28495986198E-02  0.51998499049E-02  0.51100000000E-03 0.  1.
         11    1    3    3    0    0 -0.75527427774E-01 -0.48861880563E-01 -0.30000553724E-01  0.94827053434E-01  0.51100000000E-03 0. -1.
</event>
<event>
 8    1  0.1092667E+005  0.1043930E+01  0.7957747E-01            NaN
         13   -1    0    0    0    0  0.00000000000E+00  0.00000000000E+00  0.74505805969E-08  0.10566000000E+00  0.10566000000E+00 0. -1.
     999900   -1    0    0    0    0 -0.00000000000E+00 -0.00000000000E+00 -0.74505805969E-08  0.93827000000E+00  0.93827000000E+00 0. -1.
     999902    2    1    2    0    0 -0.14431521040E-01 -0.77479949766E-02  0.17848324268E-01  0.10197047465E+01  0.10194169447E+01 0.  0.
     999903    2    3    3    0    0 -0.11535721371E+00  0.56049362981E-01 -0.17028140323E-01  0.13095705113E+00  0.20272489560E-01 0.  0.
         14    1    1    2    0    0  0.14431521040E-01  0.77479949766E-02 -0.17848324268E-01  0.24225253453E-01  0.00000000000E+00 0.  1.
     999901    1    3    3    0    0  0.10092569267E+00 -0.63797357958E-01  0.34876464591E-01  0.88874769542E+00  0.88000000000E+00 0.  1.
        -11    1    4    4    0    0 -0.63242499600E-01  0.19475172976E-01 -0.86951469536E-02  0.66744009616E-01  0.51100000000E-03 0.  1.
         11    1    4    4    0    0 -0.52114714110E-01  0.36574190005E-01 -0.83329933696E-02  0.64213041516E-01  0.51100000000E-03 0. -1.
</event>
<event>
 8    1  0.1092667E+005  0.1043930E+01  0.7957747E-01            NaN
         13   -1    0    0    0    0  0.00000000000E+00  0.00000000000E+00  0.74505805969E-08  0.10566000000E+00  0.10566000000E+00 0.  1.
     999900   -1    0    0    0    0 -0.00000000000E+00 -0.00000000000E+00 -0.74505805969E-08  0.93827000000E+00  0.93827000000E+00 0. -1.
     999902    2    1    2    0    0 -0.34158631158E-02  0.22818972555E-01  0.50421175938E-02  0.10203122825E+01  0.10200388999E+01 0.  0.
     999903    2    3    3    0    0  0.42810257234E-01 -0.10636809244E+00 -0.52446760129E-01  0.12782635936E+00  0.21024421214E-01 0.  0.
         14    1    1    2    0    0  0.34158631158E-02 -0.22818972555E-01 -0.50421175938E-02  0.23617717483E-01  0.00000000000E+00 0.  1.
     999901    1    3    3    0    0 -0.46226120350E-01  0.12918706499E+00  0.57488877723E-01  0.89248592315E+00  0.88000000000E+00 0.  1.
        -11    1    4    4    0    0  0.16962442614E-01 -0.41432084310E-01 -0.94262440243E-02  0.45754314191E-01  0.51100000000E-03 0. -1.
         11    1    4    4    0    0  0.25847814620E-01 -0.64936008126E-01 -0.43020516105E-01  0.82072045173E-01  0.51100000000E-03 0.  1.
</event>
<event>
 8    1  0.1092667E+005  0.1043930E+01  0.7957747E-01            NaN
         13   -1    0    0    0    0  0.00000000000E+00  0.00000000000E+00  0.74505805969E-08  0.10566000000E+00  0.10566000000E+00 0. -1.
     999900   -1    0    0    0    0 -0.00000000000E+00 -0.00000000000E+00 -0.74505805969E-08  0.93827000000E+00  0.93827000000E+00 0. -1.
     999902    2    1    2    0    0  0.20607575217E-01 -0.10775595341E-01 -0.39714553850E-02  0.10203385170E+01  0.10200657485E+01 0.  0.
     999903    2    3    3    0    0  0.54688739868E-01 -0.11707450605E+00 -0.23846422289E-01  0.13306403947E+00  0.20978286585E-01 0.  0.
         14    1    1    2    0    0 -0.20607575217E-01  0.10775595341E-01  0.39714553850E-02  0.23591482979E-01  0.00000000000E+00 0. -1.
     999901    1    3    3    0    0 -0.34081164652E-01  0.10629891071E+00  0.19874966904E-01  0.88727447755E+00  0.88000000000E+00 0.  1.
        -11    1    4    4    0    0  0.33671337001E-01 -0.73631447413E-01 -0.45746680165E-02  0.81095854962E-01  0.51100000000E-03 0.  1.
         11    1    4    4    0    0  0.21017402867E-01 -0.43443058642E-01 -0.19271754272E-01  0.51968184509E-01  0.51100000000E-03 0. -1.
</event>
<event>
 8    1  0.1092667E+005  0.1043930E+01  0.7957747E-01            NaN
         13   -1    0    0    0    0  0.00000000000E+00  0.00000000000E+00  0.74505805969E-08  0.10566000000E+00  0.10566000000E+00 0.  1.
     999900   -1    0    0    0    0 -0.00000000000E+00 -0.00000000000E+00 -0.74505805969E-08  0.93827000000E+00  0.93827000000E+00 0.  1.
     999902    2    1    2    0    0  0.88834289104E-02 -0.14497711353E-01 -0.16909843184E-01  0.10199499721E+01  0.10196680361E+01 0.  0.
     999903    2    3    3    0    0  0.39040805842E-01  0.48940346513E-01 -0.11413385204E+00  0.13181351719E+00  0.20710506838E-01 0.  0.
         14    1    1    2    0    0 -0.88834289104E-02  0.14497711353E-01  0.16909843184E-01  0.23980027944E-01  0.00000000000E+00 0.  1.
     999901    1    3    3    0    0 -0.30157376932E-01 -0.63438057866E-01  0.97224008858E-01  0.88813645487E+00  0.88000000000E+00 0. -1.
        -11    1    4    4    0    0  0.29192777878E-01  0.20553647070E-01 -0.66855097524E-01  0.75792716497E-01  0.51100000000E-03 0.  1.
         11    1    4    4    0    0  0.98480279640E-02  0.28386699443E-01 -0.47278754519E-01  0.56020800690E-01  0.51100000000E-03 0. -1.
</event>
<event>
 8    1  0.1092667E+005  0.1043930E+01  0.7957747E-01            NaN
         13   -1    0    0    0    0  0.00000000000E+00  0.00000000000E+00  0.74505805969E-08  0.10566000000E+00  0.10566000000E+00 0.  1.
     999900   -1    0    0    0    0 -0.00000000000E+00 -0.00000000000E+00 -0.74505805969E-08  0.93827000000E+00  0.93827000000E+00 0. -1.
     999902    2    1    2    0    0  0.67282565101E-02 -0.12455415286E-01 -0.19532726771E-01  0.10198066872E+01  0.10195213313E+01 0.  0.
     999903    2    3    3    0    0  0.45022481253E-01  0.79264592943E-02 -0.12304069706E+00  0.13267886756E+00  0.19360170167E-01 0.  0.
         14    1    1    2    0    0 -0.67282565101E-02  0.12455415286E-01  0.19532726771E-01  0.24123312805E-01  0.00000000000E+00 0.  1.
     999901    1    3    3    0    0 -0.38294224742E-01 -0.20381874580E-01  0.10350797029E+00  0.88712781964E+00  0.88000000000E+00 0.  1.
        -11    1    4    4    0    0  0.11634579198E-01  0.59005876543E-02 -0.16682533218E-01  0.21183682478E-01  0.51100000000E-03 0.  1.
         11    1    4    4    0    0  0.33387902055E-01  0.20258716400E-02 -0.10635816384E+00  0.11149518508E+00  0.51100000000E-03 0. -1.
</event>
<event>
 8    1  0.1092667E+005  0.1043930E+01  0.7957747E-01            NaN
         13   -1    0    0    0    0  0.00000000000E+00  0.00000000000E+00  0.74505805969E-08  0.10566000000E+00  0.10566000000E+00 0. -1.
     999900   -1    0    0    0    0 -0.00000000000E+00 -0.00000000000E+00 -0.74505805969E-08  0.93827000000E+00  0.93827000000E+00 0.  1.
     999902    2    1    2    0    0 -0.12448146769E-01  0.74449187448E-02 -0.18534959406E-01  0.10203943272E+01  0.10201228628E+01 0.  0.
     999903    2    3    3    0    0 -0.66695715959E-01  0.80205160438E-01 -0.80792636077E-01  0.13353871899E+00  0.20590122343E-01 0.  0.
         14    1    1    2    0    0  0.12448146769E-01 -0.74449187448E-02  0.18534959406E-01  0.23535672782E-01  0.00000000000E+00 0. -1.
     999901    1    3    3    0    0  0.54247569190E-01 -0.72760241694E-01  0.62257676670E-01  0.88685560822E+00  0.88000000000E+00 0. -1.
        -11    1    4    4    0    0 -0.52844017868E-01  0.72795330122E-01 -0.63137967422E-01  0.10990138472E+00  0.51100000000E-03 0.  1.
         11    1    4    4    0    0 -0.13851698091E-01  0.74098303169E-02 -0.17654668655E-01  0.23637334275E-01  0.51100000000E-03 0. -1.
</event>
<event>
 8    1  0.1092667E+005  0.1043930E+01  0.7957747E-01            NaN
         13   -1    0    0    0    0  0.00000000000E+00  0.00000000000E+00  0.74505805969E-08  0.10566000000E+00  0.10566000000E+00 0. -1.
     999900   -1    0    0    0    0 -0.00000000000E+00 -0.00000000000E+00 -0.74505805969E-08  0.93827000000E+00  0.93827000000E+00 0.  1.
     999902    2    1    2    0    0  0.11163012438E-01  0.14919243408E-01  0.13578802119E-01  0.10208739696E+01  0.10206135808E+01 0.  0.
     999903    2    3    3    0    0  0.71137061667E-01  0.90583335869E-01  0.65226144835E-01  0.13408798106E+00  0.21431621850E-01 0.  0.
         14    1    1    2    0    0 -0.11163012438E-01 -0.14919243408E-01 -0.13578802119E-01  0.23056030395E-01  0.00000000000E+00 0.  1.
     999901    1    3    3    0    0 -0.59974049229E-01 -0.75664092461E-01 -0.51647342716E-01  0.88678598854E+00  0.88000000000E+00 0.  1.
        -11    1    4    4    0    0  0.50164453267E-01  0.72802949378E-01  0.57702254342E-01  0.10557723754E+00  0.51100000000E-03 0. -1.
         11    1    4    4    0    0  0.20972608401E-01  0.17780386491E-01  0.75238904933E-02  0.28510743520E-01  0.51100000000E-03 0.  1.
</event>
<event>
 8    1  0.1092667E+005  0.1043930E+01  0.7957747E-01            NaN
         13   -1    0    0    0    0  0.00000000000E+00  0.00000000000E+00  0.74505805969E-08  0.10566000000E+00  0.10566000000E+00 0. -1.
     999900   -1    0    0    0    0 -0.00000000000E+00 -0.00000000000E+00 -0.74505805969E-08  0.93827000000E+00  0.93827000000E+00 0.  1.
     999902    2    1    2    0    0 -0.11615265925E-01  0.13023270287E-01 -0.15040178615E-01  0.10208924883E+01  0.10206325224E+01 0.  0.
     999903    2    3    3    0    0  0.64114240878E-01  0.38931272322E-01 -0.10790935181E+00  0.13239326711E+00  0.16039610957E-01 0.  0.
         14    1    1    2    0    0  0.11615265925E-01 -0.13023270287E-01  0.15040178615E-01  0.23037511676E-01  0.00000000000E+00 0. -1.
     999901    1    3    3    0    0 -0.75729506803E-01 -0.25908002035E-01  0.92869173195E-01  0.88849922122E+00  0.88000000000E+00 0. -1.
        -11    1    4    4    0    0  0.27457982735E-01  0.13114584688E-01 -0.56520350833E-01  0.64193023972E-01  0.51100000000E-03 0. -1.
         11    1    4    4    0    0  0.36656258143E-01  0.25816687634E-01 -0.51389000977E-01  0.68200243136E-01  0.51100000000E-03 0.  1.
</event>
<event>
 8    1  0.1092667E+005  0.1043930E+01  0.7957747E-01            NaN
         13   -1    0    0    0    0  0.00000000000E+00  0.00000000000E+00  0.74505805969E-08  0.10566000000E+00  0.10566000000E+00 0. -1.
     999900   -1    0    0    0    0 -0.00000000000E+00 -0.00000000000E+00 -0.74505805969E-08  0.93827000000E+00  0.93827000000E+00 0.  1.
     999902    2    1    2    0    0  0.20215407264E-01 -0.11498839510E-01 -0.30819198362E-02  0.10204697308E+01  0.10202000232E+01 0.  0.
     999903    2    3    3    0    0  0.38009407245E-01  0.86284574525E-01 -0.88530189444E-01  0.13076212194E+00  0.19271617738E-01 0.  0.
         14    1    1    2    0    0 -0.20215407264E-01  0.11498839510E-01  0.30819198362E-02  0.23460269197E-01  0.00000000000E+00 0. -1.
     999901    1    3    3    0    0 -0.17793999981E-01 -0.97783414035E-01  0.85448269608E-01  0.88970760887E+00  0.88000000000E+00 0.  1.
        -11    1    4    4    0    0  0.15720479456E-01  0.17969605221E-01 -0.16579968149E-01  0.29072266009E-01  0.51100000000E-03 0. -1.
         11    1    4    4    0    0  0.22288927789E-01  0.68314969304E-01 -0.71950221296E-01  0.10168985593E+00  0.51100000000E-03 0.  1.
</event>
<event>
 8    1  0.1092667E+005  0.1043930E+01  0.7957747E-01            NaN
         13   -1    0    0    0    0  0.00000000000E+00  0.00000000000E+00  0.74505805969E-08  0.10566000000E+00  0.10566000000E+00 0. -1.
     999900   -1    0    0    0    0 -0.00000000000E+00 -0.00000000000E+00 -0.74505805969E-08  0.93827000000E+00  0.93827000000E+00 0. -1.
     999902    2    1    2    0    0  0.17796112175E-01 -0.11167953021E-01 -0.11673153737E-01  0.10198948736E+01  0.10196116250E+01 0.  0.
     999903    2    3    3    0    0  0.81573922458E-01 -0.94334328427E-01 -0.41969699804E-01  0.13315808300E+00  0.20404632374E-01 0.  0.
         14    1    1    2    0    0 -0.17796112175E-01  0.11167953021E-01  0.11673153737E-01  0.24035126408E-01  0.00000000000E+00 0.  1.
     999901    1    3    3    0    0 -0.63777810282E-01  0.83166375406E-01  0.30296546066E-01  0.88673679059E+00  0.88000000000E+00 0.  1.
        -11    1    4    4    0    0  0.82208352739E-01 -0.92078609620E-01 -0.39241156470E-01  0.12952533764E+00  0.51100000000E-03 0. -1.
         11    1    4    4    0    0 -0.63443028102E-03 -0.22557188078E-02 -0.27285433337E-02  0.36327453593E-02  0.51100000000E-03 0.  1.
</event>
<event>
 8    1  0.1092667E+005  0.1043930E+01  0.7957747E-01            NaN
         13   -1    0    0    0    0  0.00000000000E+00  0.00000000000E+00  0.74505805969E-08  0.10566000000E+00  0.10566000000E+00 0.  1.
     999900   -1    0    0    0    0 -0.00000000000E+00 -0.00000000000E+00 -0.74505805969E-08  0.93827000000E+00  0.93827000000E+00 0.  1.
     999902    2    1    2    0    0  0.64754729450E-02 -0.19626723793E-01  0.59175687034E-02  0.10224321476E+01  0.10222061137E+01 0.  0.
     999903    2    3    3    0    0  0.66679690828E-01  0.69554694240E-01 -0.86706180281E-01  0.13105286134E+00  0.19309430496E-01 0.  0.
         14    1    1    2    0    0 -0.64754729450E-02  0.19626723793E-01 -0.59175687034E-02  0.21497852360E-01  0.00000000000E+00 0. -1.
     999901    1    3    3    0    0 -0.60204217883E-01 -0.89181418033E-01  0.92623748985E-01  0.89137928630E+00  0.88000000000E+00 0. -1.
        -11    1    4    4    0    0  0.21272163375E-01  0.15678393364E-01 -0.14425511104E-01  0.30111018660E-01  0.51100000000E-03 0. -1.
         11    1    4    4    0    0  0.45407527453E-01  0.53876300876E-01 -0.72280669177E-01  0.10094184268E+00  0.51100000000E-03 0.  1.
</event>
<event>
 8    1  0.1092667E+005  0.1043930E+01  0.7957747E-01            NaN
         13   -1    0    0    0    0  0.00000000000E+00  0.00000000000E+00  0.74505805969E-08  0.10566000000E+00  0.10566000000E+00 0.  1.
     999900   -1    0    0    0    0 -0.00000000000E+00 -0.00000000000E+00 -0.74505805969E-08  0.93827000000E+00  0.93827000000E+00 0. -1.
     999902    2    1    2    0    0 -0.65178624721E-03  0.47275482444E-02 -0.24215976392E-01  0.10192482648E+01  0.10189493792E+01 0.  0.
     999903    2    3    3    0    0 -0.50198855507E-01 -0.56573865678E-01  0.10011984125E+00  0.12701949879E+00  0.19734312496E-01 0.  0.
         14    1    1    2    0    0  0.65178624721E-03 -0.47275482444E-02  0.24215976392E-01  0.24681735157E-01  0.00000000000E+00 0.  1.
     999901    1    3    3    0    0  0.49547069260E-01  0.61301413922E-01 -0.12433581764E+00  0.89222876605E+00  0.88000000000E+00 0.  1.
        -11    1    4    4    0    0 -0.91465677504E-02 -0.21603793362E-01  0.22550834535E-01  0.32545120194E-01  0.51100000000E-03 0.  1.
         11    1    4    4    0    0 -0.41052287757E-01 -0.34970072316E-01  0.77569006714E-01  0.94474378598E-01  0.51100000000E-03 0. -1.
</event>
<event>
 8    1  0.1092667E+005  0.1043930E+01  0.7957747E-01            NaN
         13   -1    0    0    0    0  0.00000000000E+00  0.00000000000E+00  0.74505805969E-08  0.10566000000E+00  0.10566000000E+00 0.  1.
     999900   -1    0    0    0    0 -0.00000000000E+00 -0.00000000000E+00 -0.74505805969E-08  0.93827000000E+00  0.93827000000E+00 0. -1.
     999902    2    1    2    0    0  0.23677059619E-01  0.16347551014E-02 -0.39597102030E-02  0.10198685187E+01  0.10195846412E+01 0.  0.
     999903    2    3    3    0    0 -0.76592529017E-01  0.96124159442E-03 -0.10143733955E+00  0.12882624574E+00  0.20960158608E-01 0.  0.
         14    1    1    2    0    0 -0.23677059619E-01 -0.16347551014E-02  0.39597102030E-02  0.24061481279E-01  0.00000000000E+00 0. -1.
     999901    1    3    3    0    0  0.10026958864E+00  0.67351350699E-03  0.97477629346E-01  0.89104227299E+00  0.88000000000E+00 0.  1.
        -11    1    4    4    0    0 -0.16797954962E-01 -0.50055501187E-02 -0.35616511663E-01  0.39699166829E-01  0.51100000000E-03 0. -1.
         11    1    4    4    0    0 -0.59794574054E-01  0.59667917131E-02 -0.65820827886E-01  0.89127078906E-01  0.51100000000E-03 0.  1.
</event>
<event>
 8    1  0.1092667E+005  0.1043930E+01  0.7957747E-01            NaN
         13   -1    0    0    0    0  0.00000000000E+00  0.00000000000E+00  0.74505805969E-08  0.10566000000E+00  0.10566000000E+00 0. -1.
     999900   -1    0    0    0    0 -0.00000000000E+00 -0.00000000000E+00 -0.74505805969E-08  0.93827000000E+00  0.93827000000E+00 0. -1.
     999902    2    1    2    0    0 -0.13786419271E-01 -0.15051423405E-01 -0.11097252311E-01  0.10206972707E+01  0.10204328291E+01 0.  0.
     999903    2    3    3    0    0 -0.11065251372E+00  0.66465689708E-01  0.12604087107E-01  0.13132117843E+00  0.20608789155E-01 0.  0.
         14    1    1    2    0    0  0.13786419271E-01  0.15051423405E-01  0.11097252311E-01  0.23232729320E-01  0.00000000000E+00 0. -1.
     999901    1    3    3    0    0  0.96866094448E-01 -0.81517113113E-01 -0.23701339418E-01  0.88937609225E+00  0.88000000000E+00 0.  1.
        -11    1    4    4    0    0 -0.80184963852E-01  0.51916019704E-01  0.17759829826E-01  0.97162617330E-01  0.51100000000E-03 0.  1.
         11    1    4    4    0    0 -0.30467549867E-01  0.14549670004E-01 -0.51557427193E-02  0.34158561096E-01  0.51100000000E-03 0. -1.
</event>
<event>
 8    1  0.1092667E+005  0.1043930E+01  0.7957747E-01            NaN
         13   -1    0    0    0    0  0.00000000000E+00  0.00000000000E+00  0.74505805969E-08  0.10566000000E+00  0.10566000000E+00 0.  1.
     999900   -1    0    0    0    0 -0.00000000000E+00 -0.00000000000E+00 -0.74505805969E-08  0.93827000000E+00  0.93827000000E+00 0.  1.
     999902    2    1    2    0    0 -0.22495641141E-01 -0.47022009129E-02 -0.56128897239E-02  0.10202726735E+01  0.10199983624E+01 0.  0.
     999903    2    3    3    0    0 -0.81714510190E-01 -0.19699866033E-01  0.99713633983E-01  0.13188903963E+00  0.19661232830E-01 0.  0.
         14    1    1    2    0    0  0.22495641141E-01  0.47022009129E-02  0.56128897239E-02  0.23657326451E-01  0.00000000000E+00 0. -1.
     999901    1    3    3    0    0  0.59218869050E-01  0.14997665120E-01 -0.10532652371E+00  0.88838363391E+00  0.88000000000E+00 0. -1.
        -11    1    4    4    0    0 -0.21336945393E-01 -0.13838870820E-01  0.25230859291E-01  0.35827879728E-01  0.51100000000E-03 0.  1.
         11    1    4    4    0    0 -0.60377564798E-01 -0.58609952123E-02  0.74482774692E-01  0.96061159907E-01  0.51100000000E-03 0. -1.
</event>
<event>
 7    1  0.1092667E+005  0.1043930E+01  0.7957747E-01            NaN
         13   -1    0    0    0    0  0.00000000000E+00  0.00000000000E+00  0.74505805969E-08  0.10566000000E+00  0.10566000000E+00 0.  1.
     999900   -1    0    0    0    0 -0.00000000000E+00 -0.00000000000E+00 -0.74505805969E-08  0.93827000000E+00  0.93827000000E+00 0. -1.
     999903    2    1    2    0    0 -0.63899776762E-01  0.43825452020E-01  0.26517216730E-01  0.84242231552E-01  0.19741810424E-01 0.  0.
         14    1    1    2    0    0 -0.49739086009E-01 -0.27904166674E-01 -0.44053321674E-01  0.72064653925E-01  0.00000000000E+00 0. -1.
     999901    1    1    2    0    0  0.11363886277E+00 -0.15921285345E-01  0.17536104945E-01  0.88762311452E+00  0.88000000000E+00 0.  1.
        -11    1    3    3    0    0 -0.13222628727E-01  0.19935068249E-01  0.75310223595E-02  0.25084303365E-01  0.51100000000E-03 0. -1.
         11    1    3    3    0    0 -0.50677148035E-01  0.23890383771E-01  0.18986194370E-01  0.59157928187E-01  0.51100000000E-03 0.  1.
</event>
<event>
 8    1  0.1092667E+005  0.1043930E+01  0.7957747E-01            NaN
         13   -1    0    0    0    0  0.00000000000E+00  0.00000000000E+00  0.74505805969E-08  0.10566000000E+00  0.10566000000E+00 0. -1.
     999900   -1    0    0    0    0 -0.00000000000E+00 -0.00000000000E+00 -0.74505805969E-08  0.93827000000E+00  0.93827000000E+00 0. -1.
     999902    2    1    2    0    0 -0.11437018620E-01  0.16556411714E-01  0.18050348918E-01  0.10168978847E+01  0.10165385249E+01 0.  0.
     999903    2    3    3    0    0  0.21800582959E-01 -0.10531378478E+00 -0.59881140845E-01  0.12446839162E+00  0.18449140919E-01 0.  0.
         14    1    1    2    0    0  0.11437018620E-01 -0.16556411714E-01 -0.18050348918E-01  0.27032115342E-01  0.00000000000E+00 0.  1.
     999901    1    3    3    0    0 -0.33237601579E-01  0.12187019650E+00  0.77931489764E-01  0.89242949304E+00  0.88000000000E+00 0. -1.
        -11    1    4    4    0    0  0.20380473783E-01 -0.63527996051E-01 -0.30469817074E-01  0.73347398505E-01  0.51100000000E-03 0. -1.
         11    1    4    4    0    0  0.14201091760E-02 -0.41785788730E-01 -0.29411323771E-01  0.51120993113E-01  0.51100000000E-03 0.  1.
</event>
<event>
 8    1  0.1092667E+005  0.1043930E+01  0.7957747E-01            NaN
         13   -1    0    0    0    0  0.00000000000E+00  0.00000000000E+00  0.74505805969E-08  0.10566000000E+00  0.10566000000E+00 0.  1.
     999900   -1    0    0    0    0 -0.00000000000E+00 -0.00000000000E+00 -0.74505805969E-08  0.93827000000E+00  0.93827000000E+00 0. -1.
     999902    2    1    2    0    0  0.21647869728E-01 -0.58081979450E-02  0.63246792002E-02  0.10206412260E+01  0.10203754923E+01 0.  0.
     999903    2    3    3    0    0 -0.93500996523E-01 -0.87001818790E-01  0.13200485106E-02  0.12941919318E+00  0.20876594835E-01 0.  0.
         14    1    1    2    0    0 -0.21647869728E-01  0.58081979450E-02 -0.63246792002E-02  0.23288773994E-01  0.00000000000E+00 0. -1.
     999901    1    3    3    0    0  0.11514886625E+00  0.81193620845E-01  0.50046306897E-02  0.89122203283E+00  0.88000000000E+00 0.  1.
        -11    1    4    4    0    0 -0.32884444546E-01 -0.32557797009E-01 -0.94461435101E-02  0.47232272731E-01  0.51100000000E-03 0. -1.
         11    1    4    4    0    0 -0.60616551978E-01 -0.54444021781E-01  0.10766192021E-01  0.82186920450E-01  0.51100000000E-03 0.  1.
</event>
<event>
 7    1  0.1092667E+005  0.1043930E+01  0.7957747E-01            NaN
         13   -1    0    0    0    0  0.00000000000E+00  0.00000000000E+00  0.74505805969E-08  0.10566000000E+00  0.10566000000E+00 0.  1.
     999900   -1    0    0    0    0 -0.00000000000E+00 -0.00000000000E+00 -0.74505805969E-08  0.93827000000E+00  0.93827000000E+00 0. -1.
     999903    2    1    2    0    0 -0.28146285689E-02  0.51520914096E-01  0.10344291558E+00  0.11734603525E+00  0.20182380507E-01 0.  0.
         14    1    1    2    0    0 -0.35794702375E-01  0.10561803080E-01 -0.99017293886E-02  0.38611612856E-01  0.00000000000E+00 0. -1.
     999901    1    1    2    0    0  0.38609330944E-01 -0.62082717176E-01 -0.93541186191E-01  0.88797235189E+00  0.88000000000E+00 0. -1.
        -11    1    3    3    0    0 -0.14804237573E-02  0.25721977763E-01  0.30316588500E-01  0.39789049421E-01  0.51100000000E-03 0.  1.
         11    1    3    3    0    0 -0.13342048116E-02  0.25798936334E-01  0.73126327079E-01  0.77556985833E-01  0.51100000000E-03 0. -1.
</event>
<event>
 8    1  0.1092667E+005  0.1043930E+01  0.7957747E-01            NaN
         13   -1    0    0    0    0  0.00000000000E+00  0.00000000000E+00  0.74505805969E-08  0.10566000000E+00  0.10566000000E+00 0.  1.
     999900   -1    0    0    0    0 -0.00000000000E+00 -0.00000000000E+00 -0.74505805969E-08  0.93827000000E+00  0.93827000000E+00 0.  1.
     999902    2    1    2    0    0  0.78504740501E-02  0.28455748121E-02 -0.21414290488E-01  0.10209452425E+01  0.10206864794E+01 0.  0.
     999903    2    3    3    0    0 -0.65573325970E-01  0.10984813771E+00 -0.22580775303E-01  0.13142741609E+00  0.19919835545E-01 0.  0.
         14    1    1    2    0    0 -0.78504740501E-02 -0.28455748121E-02  0.21414290488E-01  0.22984757469E-01  0.00000000000E+00 0.  1.
     999901    1    3    3    0    0  0.73423800020E-01 -0.10700256290E+00  0.11664848159E-02  0.88951782644E+00  0.88000000000E+00 0.  1.
        -11    1    4    4    0    0 -0.24355926256E-01  0.40602495191E-01 -0.18183670023E-01  0.50721600291E-01  0.51100000000E-03 0. -1.
         11    1    4    4    0    0 -0.41217399714E-01  0.69245642521E-01 -0.43971052801E-02  0.80705815795E-01  0.51100000000E-03 0.  1.
</event>
<event>
 8    1  0.1092667E+005  0.1043930E+01  0.7957747E-01            NaN
         13   -1    0    0    0    0  0.00000000000E+00  0.00000000000E+00  0.74505805969E-08  0.10566000000E+00  0.10566000000E+00 0.  1.
     999900   -1    0    0    0    0 -0.00000000000E+00 -0.00000000000E+00 -0.74505805969E-08  0.93827000000E+00  0.93827000000E+00 0. -1.
     999902    2    1    2    0    0  0.19463773707E-01 -0.96884170532E-02  0.11791036740E-01  0.10191967742E+01  0.10188966248E+01 0.  0.
     999903    2    3    3    0    0  0.15209204046E-01  0.15652287580E-01  0.12781827356E+00  0.13120883938E+00  0.20048303681E-01 0.  0.
         14    1    1    2    0    0 -0.19463773707E-01  0.96884170532E-02 -0.11791036740E-01  0.24733225817E-01  0.00000000000E+00 0.  1.
     999901    1    3    3    0    0  0.42545696612E-02 -0.25340704633E-01 -0.11602723682E+00  0.88798793480E+00  0.88000000000E+00 0. -1.
        -11    1    4    4    0    0  0.16837149802E-01  0.51721459461E-02  0.97634666346E-01  0.99212045139E-01  0.51100000000E-03 0.  1.
         11    1    4    4    0    0 -0.16279457557E-02  0.10480141634E-01  0.30183607215E-01  0.31996794239E-01  0.51100000000E-03 0. -1.
</event>
<event>
 8    1  0.1274394E+005  0.1043930E+01  0.7957747E-01            NaN
         13   -1    0    0    0    0  0.00000000000E+00  0.00000000000E+00  0.74505805969E-08  0.10566000000E+00  0.10566000000E+00 0.  1.
     999900   -1    0    0    0    0 -0.00000000000E+00 -0.00000000000E+00 -0.74505805969E-08  0.93827000000E+00  0.93827000000E+00 0. -1.
     999902    2    1    2    0    0 -0.16628995633E-01 -0.19557888863E-01  0.40137968692E-02  0.10179464460E+01  0.10176147709E+01 0.  0.
     999903    2    3    3    0    0  0.11958280275E+00 -0.31000290561E-01  0.25380627261E-01  0.12713719369E+00  0.16081823658E-01 0.  0.
         14    1    1    2    0    0  0.16628995633E-01  0.19557888863E-01 -0.40137968692E-02  0.25983553988E-01  0.00000000000E+00 0.  1.
     999901    1    3    3    0    0 -0.13621179838E+00  0.11442401698E-01 -0.21366830392E-01  0.89080925232E+00  0.88000000000E+00 0.  1.
        -11    1    4    4    0    0  0.70433295339E-01 -0.26364181767E-01  0.15416641479E-01  0.76771434323E-01  0.51100000000E-03 0. -1.
         11    1    4    4    0    0  0.49149507409E-01 -0.46361087946E-02  0.99639857822E-02  0.50365759371E-01  0.51100000000E-03 0.  1.
</event>
<event>
 8    1  0.1092667E+005  0.1043930E+01  0.7957747E-01            NaN
         13   -1    0    0    0    0  0.00000000000E+00  0.00000000000E+00  0.74505805969E-08  0.10566000000E+00  0.10566000000E+00 0. -1.
     999900   -1    0    0    0    0 -0.00000000000E+00 -0.00000000000E+00 -0.74505805969E-08  0.93827000000E+00  0.93827000000E+00 0. -1.
     999902    2    1    2    0    0 -0.45990378407E-02  0.15725902672E-01  0.15782847005E-01  0.10211801995E+01  0.10209267586E+01 0.  0.
     999903    2    3    3    0    0  0.61374003725E-01 -0.59403645683E-01  0.98214236462E-01  0.13169055636E+00  0.20020113340E-01 0.  0.
         14    1    1    2    0    0  0.45990378407E-02 -0.15725902672E-01 -0.15782847005E-01  0.22749800516E-01  0.00000000000E+00 0.  1.
     999901    1    3    3    0    0 -0.65973041566E-01  0.75129548355E-01 -0.82431389457E-01  0.88948964312E+00  0.88000000000E+00 0. -1.
        -11    1    4    4    0    0  0.46834454221E-01 -0.38580062365E-01  0.56861154848E-01  0.83158519503E-01  0.51100000000E-03 0.  1.
         11    1    4    4    0    0  0.14539549504E-01 -0.20823583319E-01  0.41353081614E-01  0.48532036862E-01  0.51100000000E-03 0. -1.
</event>
<event>
 8    1  0.1092667E+005  0.1043930E+01  0.7957747E-01            NaN
         13   -1    0    0    0    0  0.00000000000E+00  0.00000000000E+00  0.74505805969E-08  0.10566000000E+00  0.10566000000E+00 0. -1.
     999900   -1    0    0    0    0 -0.00000000000E+00 -0.00000000000E+00 -0.74505805969E-08  0.93827000000E+00  0.93827000000E+00 0.  1.
     999902    2    1    2    0    0  0.14668317233E-02  0.17929702704E-02 -0.23905643126E-01  0.10199123792E+01  0.10196295479E+01 0.  0.
     999903    2    3    3    0    0 -0.12432443591E+00 -0.29654741553E-01  0.12107708725E-01  0.12968242959E+00  0.18302100265E-01 0.  0.
         14    1    1    2    0    0 -0.14668317233E-02 -0.17929702704E-02  0.23905643126E-01  0.24017620843E-01  0.00000000000E+00 0. -1.
     999901    1    3    3    0    0  0.12579126763E+00  0.31447711823E-01 -0.36013351852E-01  0.89022994956E+00  0.88000000000E+00 0.  1.
        -11    1    4    4    0    0 -0.92495808947E-01 -0.25960896046E-01  0.20440843153E-02  0.96093091312E-01  0.51100000000E-03 0.  1.
         11    1    4    4    0    0 -0.31828626960E-01 -0.36938455067E-02  0.10063624410E-01  0.33589338280E-01  0.51100000000E-03 0. -1.
</event>
<event>
 8    1  0.1092667E+005  0.1043930E+01  0.7957747E-01            NaN
         13   -1    0    0    0    0  0.00000000000E+00  0.00000000000E+00  0.74505805969E-08  0.10566000000E+00  0.10566000000E+00 0. -1.
     999900   -1    0    0    0    0 -0.00000000000E+00 -0.00000000000E+00 -0.74505805969E-08  0.93827000000E+00  0.93827000000E+00 0. -1.
     999902    2    1    2    0    0  0.89058581017E-02 -0.21829639531E-01 -0.38514658395E-03  0.10203504366E+01  0.10200779469E+01 0.  0.
     999903    2    3    3    0    0 -0.12243568641E+00 -0.35388402703E-01  0.17963816754E-01  0.13031047920E+00  0.20378565333E-01 0.  0.
         14    1    1    2    0    0 -0.89058581017E-02  0.21829639531E-01  0.38514658395E-03  0.23579563365E-01  0.00000000000E+00 0. -1.
     999901    1    3    3    0    0  0.13134154451E+00  0.13558763171E-01 -0.18348963338E-01  0.89003995743E+00  0.88000000000E+00 0.  1.
        -11    1    4    4    0    0 -0.80956859601E-01 -0.33171062704E-01  0.13588868804E-01  0.88539544801E-01  0.51100000000E-03 0. -1.
         11    1    4    4    0    0 -0.41478826808E-01 -0.22173399986E-02  0.43749479508E-02  0.41770934400E-01  0.51100000000E-03 0.  1.
</event>
<event>
 8    1  0.1092667E+005  0.1043930E+01  0.7957747E-01            NaN
         13   -1    0    0    0    0  0.00000000000E+00  0.00000000000E+00  0.74505805969E-08  0.10566000000E+00  0.10566000000E+00 0.  1.
     999900   -1    0    0    0    0 -0.00000000000E+00 -0.00000000000E+00 -0.74505805969E-08  0.93827000000E+00  0.93827000000E+00 0. -1.
     999902    2    1    2    0    0  0.41206580309E-02  0.20909002597E-01 -0.10267796134E-01  0.10202742639E+01  0.10199999901E+01 0.  0.
     999903    2    3    3    0    0  0.12537324793E+00  0.27646740635E-01  0.20698766449E-01  0.13139490446E+00  0.18798628188E-01 0.  0.
         14    1    1    2    0    0 -0.41206580309E-02 -0.20909002597E-01  0.10267796134E-01  0.23655736084E-01  0.00000000000E+00 0.  1.
     999901    1    3    3    0    0 -0.12125258990E+00 -0.67377380381E-02 -0.30966562583E-01  0.88887935946E+00  0.88000000000E+00 0. -1.
        -11    1    4    4    0    0  0.14828643031E-01  0.31338933339E-02  0.88184308893E-02  0.17542399663E-01  0.51100000000E-03 0.  1.
         11    1    4    4    0    0  0.11054460490E+00  0.24512847301E-01  0.11880335559E-01  0.11385250480E+00  0.51100000000E-03 0. -1.
</event>
<event>
 8    1  0.1092667E+005  0.1043930E+01  0.7957747E-01            NaN
         13   -1    0    0    0    0  0.00000000000E+00  0.00000000000E+00  0.74505805969E-08  0.10566000000E+00  0.10566000000E+00 0. -1.
     999900   -1    0    0    0    0 -0.00000000000E+00 -0.00000000000E+00 -0.74505805969E-08  0.93827000000E+00  0.93827000000E+00 0. -1.
     999902    2    1    2    0    0  0.12217705858E-01  0.15651913469E-01  0.14315173351E-01  0.10194518685E+01  0.10191579531E+01 0.  0.
     999903    2    3    3    0    0 -0.50232382087E-01 -0.11441330295E+00 -0.13427488128E-01  0.12727104086E+00  0.20097868099E-01 0.  0.
         14    1    1    2    0    0 -0.12217705858E-01 -0.15651913469E-01 -0.14315173351E-01  0.24478131460E-01  0.00000000000E+00 0.  1.
     999901    1    3    3    0    0  0.62450087945E-01  0.13006521642E+00  0.27742661479E-01  0.89218082768E+00  0.88000000000E+00 0.  1.
        -11    1    4    4    0    0 -0.37191622320E-01 -0.87686422001E-01 -0.18691564664E-01  0.97065756499E-01  0.51100000000E-03 0. -1.
         11    1    4    4    0    0 -0.13040759767E-01 -0.26726880953E-01  0.52640765359E-02  0.30205284365E-01  0.51100000000E-03 0.  1.
</event>
<event>
 8    1  0.1092667E+005  0.1043930E+01  0.7957747E-01            NaN
         13   -1    0    0    0    0  0.00000000000E+00  0.00000000000E+00  0.74505805969E-08  0.10566000000E+00  0.10566000000E+00 0. -1.
     999900   -1    0    0    0    0 -0.00000000000E+00 -0.00000000000E+00 -0.74505805969E-08  0.93827000000E+00  0.93827000000E+00 0.  1.
     999902    2    1    2    0    0  0.21144520135E-01  0.20318249653E-03  0.12050562118E-01  0.10195917983E+01  0.10193012740E+01 0.  0.
     999903    2    3    3    0    0  0.39826661474E-02  0.71186493357E-01 -0.10524994964E+00  0.12880979931E+00  0.20761359147E-01 0.  0.
         14    1    1    2    0    0 -0.21144520135E-01 -0.20318249653E-03 -0.12050562118E-01  0.24338201705E-01  0.00000000000E+00 0.  1.
     999901    1    3    3    0    0  0.17161853988E-01 -0.70983310860E-01  0.11730051176E+00  0.89078199898E+00  0.88000000000E+00 0. -1.
        -11    1    4    4    0    0  0.65724426566E-02  0.27028919417E-01 -0.56517684986E-01  0.62994200721E-01  0.51100000000E-03 0. -1.
         11    1    4    4    0    0 -0.25897765092E-02  0.44157573940E-01 -0.48732264654E-01  0.65815598591E-01  0.51100000000E-03 0.  1.
</event>
<event>
 8    1  0.1092667E+005  0.1043930E+01  0.7957747E-01            NaN
         13   -1    0    0    0    0  0.00000000000E+00  0.00000000000E+00  0.74505805969E-08  0.10566000000E+00  0.10566000000E+00 0.  1.
     999900   -1    0    0    0    0 -0.00000000000E+00 -0.00000000000E+00 -0.74505805969E-08  0.93827000000E+00  0.93827000000E+00 0.  1.
     999902    2    1    2    0    0 -0.16082299448E-01 -0.17295843736E-01  0.45283958147E-02  0.10198822780E+01  0.10195987289E+01 0.  0.
     999903    2    3    3    0    0  0.40250623512E-01 -0.11444330607E+00  0.47138880667E-01  0.13172312497E+00  0.20286068700E-01 0.  0.
         14    1    1    2    0    0  0.16082299448E-01  0.17295843736E-01 -0.45283958147E-02  0.24047722028E-01  0.00000000000E+00 0. -1.
     999901    1    3    3    0    0 -0.56332922960E-01  0.97147462334E-01 -0.42610484852E-01  0.88815915300E+00  0.88000000000E+00 0. -1.
        -11    1    4    4    0    0  0.44310479540E-02 -0.13159030888E-01 -0.11394939555E-02  0.13941084870E-01  0.51100000000E-03 0.  1.
         11    1    4    4    0    0  0.35819575558E-01 -0.10128427518E+00  0.48278374622E-01  0.11778204010E+00  0.51100000000E-03 0. -1.
</event>
<event>
 8    1  0.1092667E+005  0.1043930E+01  0.7957747E-01            NaN
         13   -1    0    0    0    0  0.00000000000E+00  0.00000000000E+00  0.74505805969E-08  0.10566000000E+00  0.10566000000E+00 0.  1.
     999900   -1    0    0    0    0 -0.00000000000E+00 -0.00000000000E+00 -0.74505805969E-08  0.93827000000E+00  0.93827000000E+00 0. -1.
     999902    2    1    2    0    0 -0.89873262184E-02 -0.21317444626E-01  0.68974236217E-02  0.10197891647E+01  0.10195033891E+01 0.  0.
     999903    2    3    3    0    0 -0.53020110042E-01  0.22029641306E-01  0.11609156391E+00  0.13089028618E+00  0.18936172741E-01 0.  0.
         14    1    1    2    0    0  0.89873262184E-02  0.21317444626E-01 -0.68974236217E-02  0.24140835333E-01  0.00000000000E+00 0. -1.
     999901    1    3    3    0    0  0.44032783824E-01 -0.43347085932E-01 -0.10919414029E+00  0.88889887849E+00  0.88000000000E+00 0. -1.
        -11    1    4    4    0    0 -0.43219157380E-01  0.25226151988E-01  0.93438995411E-01  0.10599698719E+00  0.51100000000E-03 0.  1.
         11    1    4    4    0    0 -0.98009526618E-02 -0.31965106822E-02  0.22652568503E-01  0.24893298986E-01  0.51100000000E-03 0. -1.
</event>
<event>
 8    1  0.1092667E+005  0.1043930E+01  0.7957747E-01            NaN
         13   -1    0    0    0    0  0.00000000000E+00  0.00000000000E+00  0.74505805969E-08  0.10566000000E+00  0.10566000000E+00 0. -1.
     999900   -1    0    0    0    0 -0.00000000000E+00 -0.00000000000E+00 -0.74505805969E-08  0.93827000000E+00  0.93827000000E+00 0.  1.
     999902    2    1    2    0    0  0.23577776074E-03  0.23077002051E-01  0.74138418143E-02  0.10196901843E+01  0.10194020322E+01 0.  0.
     999903    2    3    3    0    0 -0.53985904791E-01 -0.11030302322E+00 -0.27022754625E-01  0.12732473160E+00  0.20003078806E-01 0.  0.
         14    1    1    2    0    0 -0.23577776074E-03 -0.23077002051E-01 -0.74138418143E-02  0.24239815702E-01  0.00000000000E+00 0.  1.
     999901    1    3    3    0    0  0.54221682551E-01  0.13338002527E+00  0.34436596439E-01  0.89236545270E+00  0.88000000000E+00 0. -1.
        -11    1    4    4    0    0 -0.36548461167E-01 -0.72360852336E-01 -0.80850239348E-02  0.81470925474E-01  0.51100000000E-03 0.  1.
         11    1    4    4    0    0 -0.17437443623E-01 -0.37942170882E-01 -0.18937730690E-01  0.45853806124E-01  0.51100000000E-03 0. -1.
</event>
<event>
 8    1  0.1092667E+005  0.1043930E+01  0.7957747E-01            NaN
         13   -1    0    0    0    0  0.00000000000E+00  0.00000000000E+00  0.74505805969E-08  0.10566000000E+00  0.10566000000E+00 0.  1.
     999900   -1    0    0    0    0 -0.00000000000E+00 -0.00000000000E+00 -0.74505805969E-08  0.93827000000E+00  0.93827000000E+00 0.  1.
     999902    2    1    2    0    0 -0.17939491365E-01 -0.60346125139E-02  0.15223200751E-01  0.10196403368E+01  0.10193509840E+01 0.  0.
     999903    2    3    3    0    0 -0.91153320814E-01  0.92504055130E-01 -0.25823577465E-02  0.13094062835E+00  0.16518216276E-01 0.  0.
         14    1    1    2    0    0  0.17939491365E-01  0.60346125139E-02 -0.15223200751E-01  0.24289663229E-01  0.00000000000E+00 0. -1.
     999901    1    3    3    0    0  0.73213829448E-01 -0.98538667644E-01  0.17805558498E-01  0.88869970843E+00  0.88000000000E+00 0. -1.
        -11    1    4    4    0    0 -0.69400150816E-01  0.59779949879E-01 -0.79199574456E-03  0.91601919844E-01  0.51100000000E-03 0. -1.
         11    1    4    4    0    0 -0.21753169998E-01  0.32724105251E-01 -0.17903620019E-02  0.39338708501E-01  0.51100000000E-03 0.  1.
</event>
<event>
 8    1  0.1092667E+005  0.1043930E+01  0.7957747E-01            NaN
         13   -1    0    0    0    0  0.00000000000E+00  0.00000000000E+00  0.74505805969E-08  0.10566000000E+00  0.10566000000E+00 0. -1.
     999900   -1    0    0    0    0 -0.00000000000E+00 -0.00000000000E+00 -0.74505805969E-08  0.93827000000E+00  0.93827000000E+00 0.  1.
     999902    2    1    2    0    0  0.71950887914E-02 -0.21604250472E-01 -0.74636255007E-02  0.10199671403E+01  0.10196856126E+01 0.  0.
     999903    2    3    3    0    0 -0.93378476484E-01  0.54534750400E-01 -0.67207667961E-01  0.12896683718E+00  0.20542531183E-01 0.  0.
         14    1    1    2    0    0 -0.71950887914E-02  0.21604250472E-01  0.74636255007E-02  0.23962859738E-01  0.00000000000E+00 0.  1.
     999901    1    3    3    0    0  0.10057356528E+00 -0.76139000872E-01  0.59744042460E-01  0.89100030308E+00  0.88000000000E+00 0. -1.
        -11    1    4    4    0    0 -0.66514479387E-01  0.32809980560E-01 -0.54942202526E-01  0.92301557581E-01  0.51100000000E-03 0.  1.
         11    1    4    4    0    0 -0.26863997098E-01  0.21724769839E-01 -0.12265465434E-01  0.36665279597E-01  0.51100000000E-03 0. -1.
</event>
<event>
 8    1  0.1092667E+005  0.1043930E+01  0.7957747E-01            NaN
         13   -1    0    0    0    0  0.00000000000E+00  0.00000000000E+00  0.74505805969E-08  0.10566000000E+00  0.10566000000E+00 0. -1.
     999900   -1    0    0    0    0 -0.00000000000E+00 -0.00000000000E+00 -0.74505805969E-08  0.93827000000E+00  0.93827000000E+00 0.  1.
     999902    2    1    2    0    0  0.11166379562E-01 -0.49722380446E-02 -0.19317019362E-01  0.10210704632E+01  0.10208145436E+01 0.  0.
     999903    2    3    3    0    0 -0.50786842036E-01  0.83630329454E-01  0.81156540835E-01  0.12877928155E+00  0.20600580258E-01 0.  0.
         14    1    1    2    0    0 -0.11166379562E-01  0.49722380446E-02  0.19317019362E-01  0.22859536756E-01  0.00000000000E+00 0. -1.
     999901    1    3    3    0    0  0.61953221598E-01 -0.88602567499E-01 -0.10047356020E+00  0.89229118170E+00  0.88000000000E+00 0.  1.
        -11    1    4    4    0    0 -0.51112163063E-02  0.23185101157E-01  0.14201412015E-01  0.27669742898E-01  0.51100000000E-03 0. -1.
         11    1    4    4    0    0 -0.45675625730E-01  0.60445228297E-01  0.66955128820E-01  0.10110953865E+00  0.51100000000E-03 0.  1.
</event>
<event>
 8    1  0.1092667E+005  0.1043930E+01  0.7957747E-01            NaN
         13   -1    0    0    0    0  0.00000000000E+00  0.00000000000E+00  0.74505805969E-08  0.10566000000E+00  0.10566000000E+00 0.  1.
     999900   -1    0    0    0    0 -0.00000000000E+00 -0.00000000000E+00 -0.74505805969E-08  0.93827000000E+00  0.93827000000E+00 0.  1.
     999902    2    1    2    0    0  0.57558860125E-02  0.19492019232E-01  0.15005152320E-01  0.10186669116E+01  0.10183535993E+01 0.  0.
     999903    2    3    3    0    0 -0.49973651264E-01 -0.53702717308E-01 -0.10176949344E+00  0.12619866645E+00  0.13701312043E-01 0.  0.
         14    1    1    2    0    0 -0.57558860125E-02 -0.19492019232E-01 -0.15005152320E-01  0.25263088364E-01  0.00000000000E+00 0. -1.
     999901    1    3    3    0    0  0.55729537276E-01  0.73194736540E-01  0.11677464576E+00  0.89246824519E+00  0.88000000000E+00 0. -1.
        -11    1    4    4    0    0 -0.19543478106E-01 -0.25773610719E-01 -0.54920723215E-01  0.63739889437E-01  0.51100000000E-03 0.  1.
         11    1    4    4    0    0 -0.30430173158E-01 -0.27929106589E-01 -0.46848770220E-01  0.62458777009E-01  0.51100000000E-03 0. -1.
</event>
<event>
 8    1  0.1092667E+005  0.1043930E+01  0.7957747E-01            NaN
         13   -1    0    0    0    0  0.00000000000E+00  0.00000000000E+00  0.74505805969E-08  0.10566000000E+00  0.10566000000E+00 0. -1.
     999900   -1    0    0    0    0 -0.00000000000E+00 -0.00000000000E+00 -0.74505805969E-08  0.93827000000E+00  0.93827000000E+00 0. -1.
     999902    2    1    2    0    0 -0.57501833325E-02 -0.13187123033E-01 -0.18858415351E-01  0.10202107114E+01  0.10199349445E+01 0.  0.
     999903    2    3    3    0    0 -0.48506067855E-01  0.11673538329E+00 -0.21187509960E-01  0.12964159673E+00  0.19443371478E-01 0.  0.
         14    1    1    2    0    0  0.57501833325E-02  0.13187123033E-01  0.18858415351E-01  0.23719288602E-01  0.00000000000E+00 0. -1.
     999901    1    3    3    0    0  0.42755884522E-01 -0.12992250633E+00  0.23290946098E-02  0.89056911466E+00  0.88000000000E+00 0. -1.
        -11    1    4    4    0    0 -0.12025597002E-01  0.40971667635E-01 -0.15239598114E-01  0.45340919749E-01  0.51100000000E-03 0. -1.
         11    1    4    4    0    0 -0.36480470852E-01  0.75763715658E-01 -0.59479118466E-02  0.84300676985E-01  0.51100000000E-03 0.  1.
</event>
<event>
 8    1  0.1092667E+005  0.1043930E+01  0.7957747E-01            NaN
         13   -1    0    0    0    0  0.00000000000E+00  0.00000000000E+00  0.74505805969E-08  0.10566000000E+00  0.10566000000E+00 0.  1.
     999900   -1    0    0    0    0 -0.00000000000E+00 -0.00000000000E+00 -0.74505805969E-08  0.93827000000E+00  0.93827000000E+00 0.  1.
     999902    2    1    2    0    0  0.12293226542E-01 -0.12729690189E-01  0.16764373109E-01  0.10195535229E+01  0.10192620730E+01 0.  0.
     999903    2    3    3    0    0  0.75623294039E-01  0.10300191975E+00  0.97942927542E-02  0.12969224998E+00  0.19896569072E-01 0.  0.
         14    1    1    2    0    0 -0.12293226542E-01  0.12729690189E-01 -0.16764373109E-01  0.24376477122E-01  0.00000000000E+00 0. -1.
     999901    1    3    3    0    0 -0.63330067497E-01 -0.11573160994E+00  0.69700803549E-02  0.88986127290E+00  0.88000000000E+00 0.  1.
        -11    1    4    4    0    0  0.24573310194E-01  0.34867237611E-01  0.12679924017E-01  0.44504083258E-01  0.51100000000E-03 0.  1.
         11    1    4    4    0    0  0.51049983845E-01  0.68134682136E-01 -0.28856312629E-02  0.85188166720E-01  0.51100000000E-03 0. -1.
</event>
<event>
 8    1  0.1092667E+005  0.1043930E+01  0.7957747E-01            NaN
         13   -1    0    0    0    0  0.00000000000E+00  0.00000000000E+00  0.74505805969E-08  0.10566000000E+00  0.10566000000E+00 0.  1.
     999900   -1    0    0    0    0 -0.00000000000E+00 -0.00000000000E+00 -0.74505805969E-08  0.93827000000E+00  0.93827000000E+00 0. -1.
     999902    2    1    2    0    0 -0.91895507755E-03 -0.21363675247E-01 -0.11871350612E-01  0.10194722801E+01  0.10191788605E+01 0.  0.
     999903    2    3    3    0    0 -0.63791413171E-01 -0.66766931203E-01 -0.92439868757E-01  0.13239523283E+00  0.21358858661E-01 0.  0.
         14    1    1    2    0    0  0.91895507755E-03  0.21363675247E-01  0.11871350612E-01  0.24457719924E-01  0.00000000000E+00 0.  1.
     999901    1    3    3    0    0  0.62872458094E-01  0.45403255956E-01  0.80568518145E-01  0.88707704725E+00  0.88000000000E+00 0.  1.
        -11    1    4    4    0    0 -0.22974073514E-01 -0.21503672281E-01 -0.18257371349E-01  0.36384182071E-01  0.51100000000E-03 0.  1.
         11    1    4    4    0    0 -0.40817339658E-01 -0.45263258922E-01 -0.74182497407E-01  0.96011050757E-01  0.51100000000E-03 0. -1.
</event>
<event>
 8    1  0.1092667E+005  0.1043930E+01  0.7957747E-01            NaN
         13   -1    0    0    0    0  0.00000000000E+00  0.00000000000E+00  0.74505805969E-08  0.10566000000E+00  0.10566000000E+00 0. -1.
     999900   -1    0    0    0    0 -0.00000000000E+00 -0.00000000000E+00 -0.74505805969E-08  0.93827000000E+00  0.93827000000E+00 0. -1.
     999902    2    1    2    0    0  0.11040761359E-01  0.34833494400E-02 -0.20873992879E-01  0.10200604438E+01  0.10197811301E+01 0.  0.
     999903    2    3    3    0    0 -0.15200403893E-01 -0.65462986840E-01 -0.11042133813E+00  0.13244514251E+00  0.28851151374E-01 0.  0.
         14    1    1    2    0    0 -0.11040761359E-01 -0.34833494400E-02  0.20873992879E-01  0.23869556205E-01  0.00000000000E+00 0. -1.
     999901    1    3    3    0    0  0.26241165252E-01  0.68946336280E-01  0.89547345248E-01  0.88761530129E+00  0.88000000000E+00 0.  1.
        -11    1    4    4    0    0  0.42902748273E-02 -0.43483009797E-01 -0.68578251959E-01  0.81316765565E-01  0.51100000000E-03 0.  1.
         11    1    4    4    0    0 -0.19490678720E-01 -0.21979977042E-01 -0.41843086167E-01  0.51128376942E-01  0.51100000000E-03 0. -1.
</event>
<event>
 8    1  0.1092667E+005  0.1043930E+01  0.7957747E-01            NaN
         13   -1    0    0    0    0  0.00000000000E+00  0.00000000000E+00  0.74505805969E-08  0.10566000000E+00  0.10566000000E+00 0. -1.
     999900   -1    0    0    0    0 -0.00000000000E+00 -0.00000000000E+00 -0.74505805969E-08  0.93827000000E+00  0.93827000000E+00 0. -1.
     999902    2    1    2    0    0  0.22054335036E-01  0.81268189218E-02  0.32635732445E-02  0.10202004869E+01  0.10199244794E+01 0.  0.
     999903    2    3    3    0    0 -0.91206132643E-01  0.85075796995E-01  0.28421856036E-01  0.12925603415E+00  0.18516765317E-01 0.  0.
         14    1    1    2    0    0 -0.22054335036E-01 -0.81268189218E-02 -0.32635732445E-02  0.23729513059E-01  0.00000000000E+00 0. -1.
     999901    1    3    3    0    0  0.11326046768E+00 -0.76948978073E-01 -0.25158282791E-01  0.89094445279E+00  0.88000000000E+00 0. -1.
        -11    1    4    4    0    0 -0.23057050533E-01  0.17741673493E-01 -0.75608585202E-03  0.29107169984E-01  0.51100000000E-03 0.  1.
         11    1    4    4    0    0 -0.68149082110E-01  0.67334123502E-01  0.29177941888E-01  0.10014886417E+00  0.51100000000E-03 0. -1.
</event>
<event>
 8    1  0.1104028E+005  0.1043930E+01  0.7957747E-01            NaN
         13   -1    0    0    0    0  0.00000000000E+00  0.00000000000E+00  0.74505805969E-08  0.10566000000E+00  0.10566000000E+00 0. -1.
     999900   -1    0    0    0    0 -0.00000000000E+00 -0.00000000000E+00 -0.74505805969E-08  0.93827000000E+00  0.93827000000E+00 0. -1.
     999902    2    1    2    0    0 -0.71719813672E-02  0.16618583909E-01  0.18015452008E-01  0.10183923580E+01  0.10180721112E+01 0.  0.
     999903    2    3    3    0    0 -0.81038130761E-01  0.21254544915E-01 -0.94754960347E-01  0.12811438677E+00  0.20392627820E-01 0.  0.
         14    1    1    2    0    0  0.71719813672E-02 -0.16618583909E-01 -0.18015452008E-01  0.25537642000E-01  0.00000000000E+00 0.  1.
     999901    1    3    3    0    0  0.73866149394E-01 -0.46359610065E-02  0.11277041236E+00  0.89027797123E+00  0.88000000000E+00 0.  1.
        -11    1    4    4    0    0 -0.33434522954E-01  0.18482921376E-01 -0.36609542695E-01  0.52915077672E-01  0.51100000000E-03 0. -1.
         11    1    4    4    0    0 -0.47603607807E-01  0.27716235395E-02 -0.58145417653E-01  0.75199309094E-01  0.51100000000E-03 0.  1.
</event>
<event>
 8    1  0.1092667E+005  0.1043930E+01  0.7957747E-01            NaN
         13   -1    0    0    0    0  0.00000000000E+00  0.00000000000E+00  0.74505805969E-08  0.10566000000E+00  0.10566000000E+00 0. -1.
     999900   -1    0    0    0    0 -0.00000000000E+00 -0.00000000000E+00 -0.74505805969E-08  0.93827000000E+00  0.93827000000E+00 0.  1.
     999902    2    1    2    0    0  0.20082276465E-01 -0.61842987063E-02 -0.10007243731E-01  0.10206558017E+01  0.10203904043E+01 0.  0.
     999903    2    3    3    0    0  0.56073021825E-01 -0.79926599752E-01 -0.88553008023E-01  0.13335500841E+00  0.20235560634E-01 0.  0.
         14    1    1    2    0    0 -0.20082276465E-01  0.61842987063E-02  0.10007243731E-01  0.23274198281E-01  0.00000000000E+00 0.  1.
     999901    1    3    3    0    0 -0.35990745360E-01  0.73742301046E-01  0.78545764292E-01  0.88730079331E+00  0.88000000000E+00 0. -1.
        -11    1    4    4    0    0  0.31903794570E-01 -0.29377479412E-01 -0.33506110286E-01  0.54807015537E-01  0.51100000000E-03 0.  1.
         11    1    4    4    0    0  0.24169227255E-01 -0.50549120340E-01 -0.55046897737E-01  0.78547992875E-01  0.51100000000E-03 0. -1.
</event>
<event>
 8    1  0.1092667E+005  0.1043930E+01  0.7957747E-01            NaN
         13   -1    0    0    0    0  0.00000000000E+00  0.00000000000E+00  0.74505805969E-08  0.10566000000E+00  0.10566000000E+00 0. -1.
     999900   -1    0    0    0    0 -0.00000000000E+00 -0.00000000000E+00 -0.74505805969E-08  0.93827000000E+00  0.93827000000E+00 0. -1.
     999902    2    1    2    0    0  0.36549621141E-02 -0.19789478409E-01 -0.12473152915E-01  0.10202538148E+01  0.10199790610E+01 0.  0.
     999903    2    3    3    0    0 -0.55377768437E-01 -0.10867317752E+00 -0.48804384951E-01  0.13306435717E+00  0.21158884870E-01 0.  0.
         14    1    1    2    0    0 -0.36549621141E-02  0.19789478409E-01  0.12473152915E-01  0.23676185237E-01  0.00000000000E+00 0. -1.
     999901    1    3    3    0    0  0.59032730551E-01  0.88883699112E-01  0.36331232036E-01  0.88718945759E+00  0.88000000000E+00 0.  1.
        -11    1    4    4    0    0 -0.48638623086E-02 -0.17124642843E-01 -0.14667348537E-01  0.23071687913E-01  0.51100000000E-03 0.  1.
         11    1    4    4    0    0 -0.50513906128E-01 -0.91548534678E-01 -0.34137036414E-01  0.10999266926E+00  0.51100000000E-03 0. -1.
</event>
<event>
 8    1  0.1092667E+005  0.1043930E+01  0.7957747E-01            NaN
         13   -1    0    0    0    0  0.00000000000E+00  0.00000000000E+00  0.74505805969E-08  0.10566000000E+00  0.10566000000E+00 0.  1.
     999900   -1    0    0    0    0 -0.00000000000E+00 -0.00000000000E+00 -0.74505805969E-08  0.93827000000E+00  0.93827000000E+00 0. -1.
     999902    2    1    2    0    0  0.32505027889E-03  0.18342042878E-01 -0.15409736562E-01  0.10199717827E+01  0.10196903654E+01 0.  0.
     999903    2    3    3    0    0 -0.91254673098E-01  0.92781796269E-01 -0.10370158816E-01  0.13207904146E+00  0.20036364922E-01 0.  0.
         14    1    1    2    0    0 -0.32505027889E-03 -0.18342042878E-01  0.15409736562E-01  0.23958217286E-01  0.00000000000E+00 0. -1.
     999901    1    3    3    0    0  0.91579723377E-01 -0.74439753392E-01 -0.50395777465E-02  0.88789274125E+00  0.88000000000E+00 0.  1.
        -11    1    4    4    0    0 -0.75801815943E-01  0.65903622148E-01 -0.11135834285E-01  0.10106171698E+00  0.51100000000E-03 0. -1.
         11    1    4    4    0    0 -0.15452857154E-01  0.26878174121E-01  0.76567546913E-03  0.31017324486E-01  0.51100000000E-03 0.  1.
</event>
<event>
 8    1  0.1092667E+005  0.1043930E+01  0.7957747E-01            NaN
         13   -1    0    0    0    0  0.00000000000E+00  0.00000000000E+00  0.74505805969E-08  0.10566000000E+00  0.10566000000E+00 0. -1.
     999900   -1    0    0    0    0 -0.00000000000E+00 -0.00000000000E+00 -0.74505805969E-08  0.93827000000E+00  0.93827000000E+00 0. -1.
     999902    2    1    2    0    0  0.11318972597E-01  0.15760370614E-01 -0.11848734235E-01  0.10211945447E+01  0.10209414270E+01 0.  0.
     999903    2    3    3    0    0  0.77792104545E-01 -0.80915844794E-01 -0.66055502814E-01  0.13175464141E+00  0.19924121359E-01 0.  0.
         14    1    1    2    0    0 -0.11318972597E-01 -0.15760370614E-01  0.11848734235E-01  0.22735455252E-01  0.00000000000E+00 0.  1.
     999901    1    3    3    0    0 -0.66473131948E-01  0.96676215408E-01  0.54206768579E-01  0.88943990334E+00  0.88000000000E+00 0.  1.
        -11    1    4    4    0    0  0.37464491329E-01 -0.47649024670E-01 -0.44538262133E-01  0.75219250045E-01  0.51100000000E-03 0.  1.
         11    1    4    4    0    0  0.40327613217E-01 -0.33266820124E-01 -0.21517240681E-01  0.56535391362E-01  0.51100000000E-03 0. -1.
</event>
<event>
 8    1  0.1389143E+005  0.1043930E+01  0.7957747E-01            NaN
         13   -1    0    0    0    0  0.00000000000E+00  0.00000000000E+00  0.74505805969E-08  0.10566000000E+00  0.10566000000E+00 0. -1.
     999900   -1    0    0    0    0 -0.00000000000E+00 -0.00000000000E+00 -0.74505805969E-08  0.93827000000E+00  0.93827000000E+00 0.  1.
     999902    2    1    2    0    0 -0.12142362700E-01 -0.20982641487E-01  0.52449628369E-02  0.10191264146E+01  0.10188245340E+01 0.  0.
     999903    2    3    3    0    0 -0.79384357283E-01 -0.32835648167E-01 -0.94673365433E-01  0.13084399779E+00  0.27875610574E-01 0.  0.
         14    1    1    2    0    0  0.12142362700E-01  0.20982641487E-01 -0.52449628369E-02  0.24803585444E-01  0.00000000000E+00 0.  1.
     999901    1    3    3    0    0  0.67241994583E-01  0.11853006679E-01  0.99918328270E-01  0.88828241676E+00  0.88000000000E+00 0. -1.
        -11    1    4    4    0    0 -0.36491021312E-01 -0.16877242634E-02 -0.30387302467E-01  0.47519388903E-01  0.51100000000E-03 0. -1.
         11    1    4    4    0    0 -0.42893335971E-01 -0.31147923903E-01 -0.64286062966E-01  0.83324608891E-01  0.51100000000E-03 0.  1.
</event>
<event>
 8    1  0.1092667E+005  0.1043930E+01  0.7957747E-01            NaN
         13   -1    0    0    0    0  0.00000000000E+00  0.00000000000E+00  0.74505805969E-08  0.10566000000E+00  0.10566000000E+00 0. -1.
     999900   -1    0    0    0    0 -0.00000000000E+00 -0.00000000000E+00 -0.74505805969E-08  0.93827000000E+00  0.93827000000E+00 0. -1.
     999902    2    1    2    0    0 -0.80411736835E-02  0.22801383141E-01 -0.63303069813E-02  0.10189372744E+01  0.10186307146E+01 0.  0.
     999903    2    3    3    0    0 -0.10543713865E+00  0.73543885433E-01 -0.22393854787E-01  0.13196556508E+00  0.19690920332E-01 0.  0.
         14    1    1    2    0    0  0.80411736835E-02 -0.22801383141E-01  0.63303069813E-02  0.24992725619E-01  0.00000000000E+00 0.  1.
     999901    1    3    3    0    0  0.97395964968E-01 -0.50742502291E-01  0.16063547806E-01  0.88697170930E+00  0.88000000000E+00 0.  1.
        -11    1    4    4    0    0 -0.38262513748E-01  0.29343804897E-01  0.95361250544E-03  0.48231207138E-01  0.51100000000E-03 0. -1.
         11    1    4    4    0    0 -0.67174624903E-01  0.44200080536E-01 -0.23347467293E-01  0.83734357943E-01  0.51100000000E-03 0.  1.
</event>
<event>
 8    1  0.1092667E+005  0.1043930E+01  0.7957747E-01            NaN
         13   -1    0    0    0    0  0.00000000000E+00  0.00000000000E+00  0.74505805969E-08  0.10566000000E+00  0.10566000000E+00 0. -1.
     999900   -1    0    0    0    0 -0.00000000000E+00 -0.00000000000E+00 -0.74505805969E-08  0.93827000000E+00  0.93827000000E+00 0. -1.
     999902    2    1    2    0    0  0.19617093647E-01  0.11191209055E-01 -0.39517735932E-02  0.10210020686E+01  0.10207445979E+01 0.  0.
     999903    2    3    3    0    0  0.65272977854E-01  0.92847705509E-01 -0.67548612272E-01  0.13376095084E+00  0.21164094428E-01 0.  0.
         14    1    1    2    0    0 -0.19617093647E-01 -0.11191209055E-01  0.39517735932E-02  0.22927931390E-01  0.00000000000E+00 0.  1.
     999901    1    3    3    0    0 -0.45655884207E-01 -0.81656496454E-01  0.63596838679E-01  0.88724111777E+00  0.88000000000E+00 0.  1.
        -11    1    4    4    0    0  0.33717347306E-01  0.60902011456E-01 -0.32661525769E-01  0.76895714414E-01  0.51100000000E-03 0.  1.
         11    1    4    4    0    0  0.31555630548E-01  0.31945694053E-01 -0.34887086503E-01  0.56865236424E-01  0.51100000000E-03 0. -1.
</event>
<event>
 8    1  0.1092667E+005  0.1043930E+01  0.7957747E-01            NaN
         13   -1    0    0    0    0  0.00000000000E+00  0.00000000000E+00  0.74505805969E-08  0.10566000000E+00  0.10566000000E+00 0.  1.
     999900   -1    0    0    0    0 -0.00000000000E+00 -0.00000000000E+00 -0.74505805969E-08  0.93827000000E+00  0.93827000000E+00 0.  1.
     999902    2    1    2    0    0 -0.22012832323E-01 -0.12381336312E-02 -0.93556773064E-02  0.10199794998E+01  0.10196982659E+01 0.  0.
     999903    2    3    3    0    0 -0.12315187849E+00  0.42942196924E-01 -0.17395690628E-01  0.13304903461E+00  0.19723541942E-01 0.  0.
         14    1    1    2    0    0  0.22012832323E-01  0.12381336312E-02  0.93556773064E-02  0.23950500196E-01  0.00000000000E+00 0. -1.
     999901    1    3    3    0    0  0.10113904617E+00 -0.44180330555E-01  0.80400133214E-02  0.88693046519E+00  0.88000000000E+00 0.  1.
        -11    1    4    4    0    0 -0.87120008464E-01  0.22096481245E-01 -0.70733801035E-02  0.90157884765E-01  0.51100000000E-03 0.  1.
         11    1    4    4    0    0 -0.36031870027E-01  0.20845715679E-01 -0.10322310524E-01  0.42891149849E-01  0.51100000000E-03 0. -1.
</event>
<event>
 8    1  0.1092667E+005  0.1043930E+01  0.7957747E-01            NaN
         13   -1    0    0    0    0  0.00000000000E+00  0.00000000000E+00  0.74505805969E-08  0.10566000000E+00  0.10566000000E+00 0.  1.
     999900   -1    0    0    0    0 -0.00000000000E+00 -0.00000000000E+00 -0.74505805969E-08  0.93827000000E+00  0.93827000000E+00 0.  1.
     999902    2    1    2    0    0  0.11869741668E-01  0.11339131847E-01 -0.17980975120E-01  0.10195828822E+01  0.10192921424E+01 0.  0.
     999903    2    3    3    0    0  0.12498785274E+00  0.35675038501E-01 -0.97705950024E-02  0.13197071817E+00  0.20643018749E-01 0.  0.
         14    1    1    2    0    0 -0.11869741668E-01 -0.11339131847E-01  0.17980975120E-01  0.24347117789E-01  0.00000000000E+00 0. -1.
     999901    1    3    3    0    0 -0.11311811108E+00 -0.24335906654E-01 -0.82103801181E-02  0.88761216404E+00  0.88000000000E+00 0.  1.
        -11    1    4    4    0    0  0.81269160116E-01  0.27713458572E-01  0.23797977204E-02  0.85898991439E-01  0.51100000000E-03 0. -1.
         11    1    4    4    0    0  0.43718692627E-01  0.79615799293E-02 -0.12150392723E-01  0.46071726735E-01  0.51100000000E-03 0.  1.
</event>
<event>
 8    1  0.1092667E+005  0.1043930E+01  0.7957747E-01            NaN
         13   -1    0    0    0    0  0.00000000000E+00  0.00000000000E+00  0.74505805969E-08  0.10566000000E+00  0.10566000000E+00 0. -1.
     999900   -1    0    0    0    0 -0.00000000000E+00 -0.00000000000E+00 -0.74505805969E-08  0.93827000000E+00  0.93827000000E+00 0.  1.
     999902    2    1    2    0    0 -0.15103810299E-01 -0.83441553668E-02 -0.16304072079E-01  0.10201903121E+01  0.10199140651E+01 0.  0.
     999903    2    3    3    0    0  0.12566421216E+00  0.17869752778E-01 -0.20270574810E-02  0.12850278934E+00  0.19950830183E-01 0.  0.
         14    1    1    2    0    0  0.15103810299E-01  0.83441553668E-02  0.16304072079E-01  0.23739687882E-01  0.00000000000E+00 0.  1.
     999901    1    3    3    0    0 -0.14076802246E+00 -0.26213908145E-01 -0.14277014598E-01  0.89168752278E+00  0.88000000000E+00 0.  1.
        -11    1    4    4    0    0  0.54370685248E-01 -0.12289629706E-02  0.34092194534E-02  0.54493721314E-01  0.51100000000E-03 0. -1.
         11    1    4    4    0    0  0.71293526911E-01  0.19098715749E-01 -0.54362769344E-02  0.74009068029E-01  0.51100000000E-03 0.  1.
</event>
<event>
 8    1  0.1092667E+005  0.1043930E+01  0.7957747E-01            NaN
         13   -1    0    0    0    0  0.00000000000E+00  0.00000000000E+00  0.74505805969E-08  0.10566000000E+00  0.10566000000E+00 0. -1.
     999900   -1    0    0    0    0 -0.00000000000E+00 -0.00000000000E+00 -0.74505805969E-08  0.93827000000E+00  0.93827000000E+00 0.  1.
     999902    2    1    2    0    0  0.27971899196E-02 -0.11259603149E-01  0.21843182137E-01  0.10191968736E+01  0.10188967267E+01 0.  0.
     999903    2    3    3    0    0 -0.79230388140E-01 -0.33183639188E-01  0.97879204929E-01  0.13184651233E+00  0.20604750478E-01 0.  0.
         14    1    1    2    0    0 -0.27971899196E-02  0.11259603149E-01 -0.21843182137E-01  0.24733126377E-01  0.00000000000E+00 0.  1.
     999901    1    3    3    0    0  0.82027578060E-01  0.21924036039E-01 -0.76036022792E-01  0.88735036129E+00  0.88000000000E+00 0.  1.
        -11    1    4    4    0    0 -0.70448784889E-01 -0.31853360581E-01  0.76850924638E-01  0.10901373130E+00  0.51100000000E-03 0. -1.
         11    1    4    4    0    0 -0.87816032512E-02 -0.13302786070E-02  0.21028280291E-01  0.22832781036E-01  0.51100000000E-03 0.  1.
</event>
<event>
 8    1  0.1128640E+005  0.1043930E+01  0.7957747E-01            NaN
         13   -1    0    0    0    0  0.00000000000E+00  0.00000000000E+00  0.74505805969E-08  0.10566000000E+00  0.10566000000E+00 0. -1.
     999900   -1    0    0    0    0 -0.00000000000E+00 -0.00000000000E+00 -0.74505805969E-08  0.93827000000E+00  0.93827000000E+00 0.  1.
     999902    2    1    2    0    0  0.22374742700E-01  0.77675082980E-02  0.14761627367E-02  0.10201993794E+01  0.10199233459E+01 0.  0.
     999903    2    3    3    0    0  0.29141827259E-01  0.17715062843E-01 -0.12492460428E+00  0.13108639382E+00  0.20357218445E-01 0.  0.
         14    1    1    2    0    0 -0.22374742700E-01 -0.77675082980E-02 -0.14761627367E-02  0.23730620567E-01  0.00000000000E+00 0.  1.
     999901    1    3    3    0    0 -0.67670845590E-02 -0.99475545453E-02  0.12640076702E+00  0.88911298561E+00  0.88000000000E+00 0. -1.
        -11    1    4    4    0    0  0.21089726938E-01  0.14754696303E-01 -0.56070136754E-01  0.61697641786E-01  0.51100000000E-03 0.  1.
         11    1    4    4    0    0  0.80521003214E-02  0.29603665405E-02 -0.68854467530E-01  0.69388752039E-01  0.51100000000E-03 0. -1.
</event>
<event>
 8    1  0.1092667E+005  0.1043930E+01  0.7957747E-01            NaN
         13   -1    0    0    0    0  0.00000000000E+00  0.00000000000E+00  0.74505805969E-08  0.10566000000E+00  0.10566000000E+00 0. -1.
     999900   -1    0    0    0    0 -0.00000000000E+00 -0.00000000000E+00 -0.74505805969E-08  0.93827000000E+00  0.93827000000E+00 0. -1.
     999902    2    1    2    0    0 -0.12746722202E-01  0.14922170536E-01  0.12367922519E-01  0.10207326810E+01  0.10204690542E+01 0.  0.
     999903    2    3    3    0    0 -0.89702802334E-01  0.33998716822E-01 -0.87739601945E-01  0.13151523329E+00  0.19887517360E-01 0.  0.
         14    1    1    2    0    0  0.12746722202E-01 -0.14922170536E-01 -0.12367922519E-01  0.23197318979E-01  0.00000000000E+00 0. -1.
     999901    1    3    3    0    0  0.76956080132E-01 -0.19076546286E-01  0.10010752446E+00  0.88921744773E+00  0.88000000000E+00 0.  1.
        -11    1    4    4    0    0 -0.68045976681E-01  0.16255255551E-01 -0.63260831243E-01  0.94322225197E-01  0.51100000000E-03 0. -1.
         11    1    4    4    0    0 -0.21656825654E-01  0.17743461271E-01 -0.24478770702E-01  0.37193008097E-01  0.51100000000E-03 0.  1.
</event>
<event>
 8    1  0.1092667E+005  0.1043930E+01  0.7957747E-01            NaN
         13   -1    0    0    0    0  0.00000000000E+00  0.00000000000E+00  0.74505805969E-08  0.10566000000E+00  0.10566000000E+00 0. -1.
     999900   -1    0    0    0    0 -0.00000000000E+00 -0.00000000000E+00 -0.74505805969E-08  0.93827000000E+00  0.93827000000E+00 0.  1.
     999902    2    1    2    0    0 -0.20363959495E-01  0.13253221064E-01  0.12697739504E-03  0.10196327813E+01  0.10193432463E+01 0.  0.
     999903    2    3    3    0    0 -0.12313818494E+00 -0.26626273571E-01  0.34374010204E-01  0.13209361325E+00  0.19879110874E-01 0.  0.
         14    1    1    2    0    0  0.20363959495E-01 -0.13253221064E-01 -0.12697739504E-03  0.24297218732E-01  0.00000000000E+00 0. -1.
     999901    1    3    3    0    0  0.10277422545E+00  0.39879494636E-01 -0.34247032809E-01  0.88753916802E+00  0.88000000000E+00 0.  1.
        -11    1    4    4    0    0 -0.71213016364E-01 -0.25281691501E-01  0.21738233242E-01  0.78633768384E-01  0.51100000000E-03 0. -1.
         11    1    4    4    0    0 -0.51925168577E-01 -0.13445820707E-02  0.12635776963E-01  0.53459844866E-01  0.51100000000E-03 0.  1.
</event>
<event>
 8    1  0.1092667E+005  0.1043930E+01  0.7957747E-01            NaN
         13   -1    0    0    0    0  0.00000000000E+00  0.00000000000E+00  0.74505805969E-08  0.10566000000E+00  0.10566000000E+00 0.  1.
     999900   -1    0    0    0    0 -0.00000000000E+00 -0.00000000000E+00 -0.74505805969E-08  0.93827000000E+00  0.93827000000E+00 0.  1.
     999902    2    1    2    0    0 -0.21723082490E-01 -0.23625406640E-02  0.85290586528E-02  0.10204732578E+01  0.10202036322E+01 0.  0.
     999903    2    3    3    0    0  0.10705060514E+00 -0.20820699893E-01 -0.63768905586E-01  0.12797655650E+00  0.20449745492E-01 0.  0.
         14    1    1    2    0    0  0.21723082490E-01  0.23625406640E-02 -0.85290586528E-02  0.23456742160E-01  0.00000000000E+00 0. -1.
     999901    1    3    3    0    0 -0.12877368762E+00  0.18458159229E-01  0.72297964239E-01  0.89249670134E+00  0.88000000000E+00 0. -1.
        -11    1    4    4    0    0  0.21267451339E-01 -0.11978619678E-01 -0.10236949165E-01  0.26473535182E-01  0.51100000000E-03 0.  1.
         11    1    4    4    0    0  0.85783153797E-01 -0.88420802145E-02 -0.53531956421E-01  0.10150302132E+00  0.51100000000E-03 0. -1.
</event>
<event>
 8    1  0.1092667E+005  0.1043930E+01  0.7957747E-01            NaN
         13   -1    0    0    0    0  0.00000000000E+00  0.00000000000E+00  0.74505805969E-08  0.10566000000E+00  0.10566000000E+00 0.  1.
     999900   -1    0    0    0    0 -0.00000000000E+00 -0.00000000000E+00 -0.74505805969E-08  0.93827000000E+00  0.93827000000E+00 0.  1.
     999902    2    1    2    0    0  0.55285110178E-02  0.21855656507E-01 -0.72931009602E-02  0.10202356235E+01  0.10199604424E+01 0.  0.
     999903    2    3    3    0    0  0.41707335531E-01  0.60910999454E-01  0.10675193667E+00  0.13128090152E+00  0.19724285224E-01 0.  0.
         14    1    1    2    0    0 -0.55285110178E-02 -0.21855656507E-01  0.72931009602E-02  0.23694376485E-01  0.00000000000E+00 0.  1.
     999901    1    3    3    0    0 -0.36178824513E-01 -0.39055342948E-01 -0.11404503763E+00  0.88895472200E+00  0.88000000000E+00 0.  1.
        -11    1    4    4    0    0  0.13181556399E-01  0.33978832773E-01  0.60479886732E-01  0.70614391776E-01  0.51100000000E-03 0. -1.
         11    1    4    4    0    0  0.28525779132E-01  0.26932166681E-01  0.46272049942E-01  0.60666509740E-01  0.51100000000E-03 0.  1.
</event>
<event>
 8    1  0.1092667E+005  0.1043930E+01  0.7957747E-01            NaN
         13   -1    0    0    0    0  0.00000000000E+00  0.00000000000E+00  0.74505805969E-08  0.10566000000E+00  0.10566000000E+00 0.  1.
     999900   -1    0    0    0    0 -0.00000000000E+00 -0.00000000000E+00 -0.74505805969E-08  0.93827000000E+00  0.93827000000E+00 0.  1.
     999902    2    1    2    0    0 -0.90827569333E-02  0.12797683161E-01  0.16454422840E-01  0.10211918119E+01  0.10209386326E+01 0.  0.
     999903    2    3    3    0    0 -0.12720616848E+00  0.22425670472E-02  0.33918616310E-01  0.13306482272E+00  0.19218119234E-01 0.  0.
         14    1    1    2    0    0  0.90827569333E-02 -0.12797683161E-01 -0.16454422840E-01  0.22738188116E-01  0.00000000000E+00 0. -1.
     999901    1    3    3    0    0  0.11812341154E+00  0.10555116113E-01 -0.17464193470E-01  0.88812698917E+00  0.88000000000E+00 0.  1.
        -11    1    4    4    0    0 -0.42184871718E-01 -0.57540025363E-02  0.48446612853E-02  0.42853282383E-01  0.51100000000E-03 0.  1.
         11    1    4    4    0    0 -0.85021296760E-01  0.79965695835E-02  0.29073955025E-01  0.90211540335E-01  0.51100000000E-03 0. -1.
</event>
<event>
 8    1  0.1092667E+005  0.1043930E+01  0.7957747E-01            NaN
         13   -1    0    0    0    0  0.00000000000E+00  0.00000000000E+00  0.74505805969E-08  0.10566000000E+00  0.10566000000E+00 0.  1.
     999900   -1    0    0    0    0 -0.00000000000E+00 -0.00000000000E+00 -0.74505805969E-08  0.93827000000E+00  0.93827000000E+00 0.  1.
     999902    2    1    2    0    0  0.87289731392E-02  0.61025830621E-03  0.19927024325E-01  0.10221664138E+01  0.10219346964E+01 0.  0.
     999903    2    3    3    0    0  0.38184336603E-02 -0.75439485111E-01  0.10901746110E+00  0.13439122669E+00  0.21690980501E-01 0.  0.
         14    1    1    2    0    0 -0.87289731392E-02 -0.61025830621E-03 -0.19927024325E-01  0.21763586233E-01  0.00000000000E+00 0. -1.
     999901    1    3    3    0    0  0.49105394790E-02  0.76049743417E-01 -0.89090436779E-01  0.88777518708E+00  0.88000000000E+00 0.  1.
        -11    1    4    4    0    0  0.83425893106E-02 -0.43821307914E-01  0.78054401954E-01  0.89903596196E-01  0.51100000000E-03 0.  1.
         11    1    4    4    0    0 -0.45241556504E-02 -0.31618177197E-01  0.30963059151E-01  0.44487630489E-01  0.51100000000E-03 0. -1.
</event>
<event>
 8    1  0.1092667E+005  0.1043930E+01  0.7957747E-01            NaN
         13   -1    0    0    0    0  0.00000000000E+00  0.00000000000E+00  0.74505805969E-08  0.10566000000E+00  0.10566000000E+00 0. -1.
     999900   -1    0    0    0    0 -0.00000000000E+00 -0.00000000000E+00 -0.74505805969E-08  0.93827000000E+00  0.93827000000E+00 0.  1.
     999902    2    1    2    0    0  0.23009355498E-01  0.49812797080E-02 -0.14589421320E-03  0.10203871694E+01  0.10201155379E+01 0.  0.
     999903    2    3    3    0    0 -0.11840521781E+00  0.26727290908E-01 -0.36110268390E-01  0.12810671642E+00  0.19319307025E-01 0.  0.
         14    1    1    2    0    0 -0.23009355498E-01 -0.49812797080E-02  0.14589421320E-03  0.23542830609E-01  0.00000000000E+00 0.  1.
     999901    1    3    3    0    0  0.14141457331E+00 -0.21746011200E-01  0.35964374177E-01  0.89228045297E+00  0.88000000000E+00 0.  1.
        -11    1    4    4    0    0 -0.34001349588E-01  0.62237926537E-02 -0.14920602872E-02  0.34602235964E-01  0.51100000000E-03 0.  1.
         11    1    4    4    0    0 -0.84403868224E-01  0.20503498254E-01 -0.34618208103E-01  0.93504480454E-01  0.51100000000E-03 0. -1.
</event>
<event>
 8    1  0.1092667E+005  0.1043930E+01  0.7957747E-01            NaN
         13   -1    0    0    0    0  0.00000000000E+00  0.00000000000E+00  0.74505805969E-08  0.10566000000E+00  0.10566000000E+00 0. -1.
     999900   -1    0    0    0    0 -0.00000000000E+00 -0.00000000000E+00 -0.74505805969E-08  0.93827000000E+00  0.93827000000E+00 0. -1.
     999902    2    1    2    0    0 -0.89152116500E-02 -0.17554921763E-02  0.21855274910E-01  0.10202611218E+01  0.10199865396E+01 0.  0.
     999903    2    3    3    0    0  0.34528933151E-01 -0.81981002977E-01  0.95797949385E-01  0.13245987979E+00  0.21336367376E-01 0.  0.
         14    1    1    2    0    0  0.89152116500E-02  0.17554921763E-02 -0.21855274910E-01  0.23668878151E-01  0.00000000000E+00 0.  1.
     999901    1    3    3    0    0 -0.43444144801E-01  0.80225510801E-01 -0.73942674475E-01  0.88780124206E+00  0.88000000000E+00 0. -1.
        -11    1    4    4    0    0  0.30290505793E-01 -0.69879943008E-01  0.69101879885E-01  0.10283993437E+00  0.51100000000E-03 0. -1.
         11    1    4    4    0    0  0.42384273573E-02 -0.12101059969E-01  0.26696069500E-01  0.29619945418E-01  0.51100000000E-03 0.  1.
</event>
<event>
 8    1  0.1092667E+005  0.1043930E+01  0.7957747E-01            NaN
         13   -1    0    0    0    0  0.00000000000E+00  0.00000000000E+00  0.74505805969E-08  0.10566000000E+00  0.10566000000E+00 0.  1.
     999900   -1    0    0    0    0 -0.00000000000E+00 -0.00000000000E+00 -0.74505805969E-08  0.93827000000E+00  0.93827000000E+00 0. -1.
     999902    2    1    2    0    0  0.86090570842E-02 -0.15004567493E-01  0.16063451956E-01  0.10203230646E+01  0.10200499345E+01 0.  0.
     999903    2    3    3    0    0 -0.62637681621E-01  0.11047385434E+00 -0.11899388030E-02  0.12840456407E+00  0.18930516815E-01 0.  0.
         14    1    1    2    0    0 -0.86090570842E-02  0.15004567493E-01 -0.16063451956E-01  0.23606935385E-01  0.00000000000E+00 0. -1.
     999901    1    3    3    0    0  0.71246738705E-01 -0.12547842184E+00  0.17253390759E-01  0.89191850055E+00  0.88000000000E+00 0.  1.
        -11    1    4    4    0    0 -0.38071709519E-01  0.55297720204E-01  0.67854600749E-02  0.67480341692E-01  0.51100000000E-03 0.  1.
         11    1    4    4    0    0 -0.24565972102E-01  0.55176134141E-01 -0.79753988779E-02  0.60924222377E-01  0.51100000000E-03 0. -1.
</event>
<event>
 8    1  0.1092667E+005  0.1043930E+01  0.7957747E-01            NaN
         13   -1    0    0    0    0  0.00000000000E+00  0.00000000000E+00  0.74505805969E-08  0.10566000000E+00  0.10566000000E+00 0.  1.
     999900   -1    0    0    0    0 -0.00000000000E+00 -0.00000000000E+00 -0.74505805969E-08  0.93827000000E+00  0.93827000000E+00 0. -1.
     999902    2    1    2    0    0  0.59952382023E-03 -0.17829493340E-01  0.15635793229E-01  0.10202081052E+01  0.10199322770E+01 0.  0.
     999903    2    3    3    0    0 -0.62506341505E-01  0.68491217364E-01  0.89880756772E-01  0.13063184096E+00  0.19698676388E-01 0.  0.
         14    1    1    2    0    0 -0.59952382023E-03  0.17829493340E-01 -0.15635793229E-01  0.23721894770E-01  0.00000000000E+00 0. -1.
     999901    1    3    3    0    0  0.63105865325E-01 -0.86320710704E-01 -0.74244963543E-01  0.88957626427E+00  0.88000000000E+00 0. -1.
        -11    1    4    4    0    0 -0.52246168147E-01  0.65268656087E-01  0.75373498072E-01  0.11256591352E+00  0.51100000000E-03 0.  1.
         11    1    4    4    0    0 -0.10260173358E-01  0.32225612770E-02  0.14507258700E-01  0.18065927446E-01  0.51100000000E-03 0. -1.
</event>
<event>
 8    1  0.1092667E+005  0.1043930E+01  0.7957747E-01            NaN
         13   -1    0    0    0    0  0.00000000000E+00  0.00000000000E+00  0.74505805969E-08  0.10566000000E+00  0.10566000000E+00 0. -1.
     999900   -1    0    0    0    0 -0.00000000000E+00 -0.00000000000E+00 -0.74505805969E-08  0.93827000000E+00  0.93827000000E+00 0.  1.
     999902    2    1    2    0    0  0.33764667043E-02  0.22154109749E-01  0.80890614127E-02  0.10201048448E+01  0.10198265815E+01 0.  0.
     999903    2    3    3    0    0  0.33142291827E-01  0.76205750700E-01 -0.99855713530E-01  0.13136435473E+00  0.19485949349E-01 0.  0.
         14    1    1    2    0    0 -0.33764667043E-02 -0.22154109749E-01 -0.80890614127E-02  0.23825155208E-01  0.00000000000E+00 0.  1.
     999901    1    3    3    0    0 -0.29765825123E-01 -0.54051640951E-01  0.10794477494E+00  0.88874049006E+00  0.88000000000E+00 0. -1.
        -11    1    4    4    0    0  0.17684116380E-01  0.43022700017E-01 -0.70374016980E-01  0.84359018936E-01  0.51100000000E-03 0.  1.
         11    1    4    4    0    0  0.15458175447E-01  0.33183050683E-01 -0.29481696551E-01  0.47005335796E-01  0.51100000000E-03 0. -1.
</event>
<event>
 8    1  0.1092667E+005  0.1043930E+01  0.7957747E-01            NaN
         13   -1    0    0    0    0  0.00000000000E+00  0.00000000000E+00  0.74505805969E-08  0.10566000000E+00  0.10566000000E+00 0.  1.
     999900   -1    0    0    0    0 -0.00000000000E+00 -0.00000000000E+00 -0.74505805969E-08  0.93827000000E+00  0.93827000000E+00 0.  1.
     999902    2    1    2    0    0  0.21176590194E-01  0.13424521897E-02 -0.76627612064E-02  0.10213696795E+01  0.10211204896E+01 0.  0.
     999903    2    3    3    0    0 -0.92819794555E-01  0.51019413619E-01  0.71418600580E-01  0.12911588267E+00  0.18756327537E-01 0.  0.
         14    1    1    2    0    0 -0.21176590194E-01 -0.13424521897E-02  0.76627612064E-02  0.22560320463E-01  0.00000000000E+00 0.  1.
     999901    1    3    3    0    0  0.11399638475E+00 -0.49676961429E-01 -0.79081361786E-01  0.89225379686E+00  0.88000000000E+00 0.  1.
        -11    1    4    4    0    0 -0.14066174487E-01  0.14263530937E-02  0.60652475671E-02  0.15392858633E-01  0.51100000000E-03 0. -1.
         11    1    4    4    0    0 -0.78753620069E-01  0.49593060525E-01  0.65353353013E-01  0.11372302404E+00  0.51100000000E-03 0.  1.
</event>
<event>
 8    1  0.1092667E+005  0.1043930E+01  0.7957747E-01            NaN
         13   -1    0    0    0    0  0.00000000000E+00  0.00000000000E+00  0.74505805969E-08  0.10566000000E+00  0.10566000000E+00 0. -1.
     999900   -1    0    0    0    0 -0.00000000000E+00 -0.00000000000E+00 -0.74505805969E-08  0.93827000000E+00  0.93827000000E+00 0. -1.
     999902    2    1    2    0    0  0.56181424711E-03  0.31572763205E-02 -0.23163659641E-01  0.10205454077E+01  0.10202774574E+01 0.  0.
     999903    2    3    3    0    0  0.11320239395E+00 -0.41541808592E-01  0.43102880037E-01  0.12977205680E+00  0.21033891767E-01 0.  0.
         14    1    1    2    0    0 -0.56181424711E-03 -0.31572763205E-02  0.23163659641E-01  0.23384592299E-01  0.00000000000E+00 0. -1.
     999901    1    3    3    0    0 -0.11264057970E+00  0.44699084912E-01 -0.66266539679E-01  0.89077335090E+00  0.88000000000E+00 0. -1.
        -11    1    4    4    0    0  0.50573230203E-01 -0.20051244699E-01  0.30487044869E-01  0.62365255175E-01  0.51100000000E-03 0. -1.
         11    1    4    4    0    0  0.62629163745E-01 -0.21490563893E-01  0.12615835168E-01  0.67406801629E-01  0.51100000000E-03 0.  1.
</event>
<event>
 8    1  0.1092667E+005  0.1043930E+01  0.7957747E-01            NaN
         13   -1    0    0    0    0  0.00000000000E+00  0.00000000000E+00  0.74505805969E-08  0.10566000000E+00  0.10566000000E+00 0. -1.
     999900   -1    0    0    0    0 -0.00000000000E+00 -0.00000000000E+00 -0.74505805969E-08  0.93827000000E+00  0.93827000000E+00 0. -1.
     999902    2    1    2    0    0 -0.17449492940E-01  0.15584037261E-01  0.52336117152E-03  0.10205286982E+01  0.10202603603E+01 0.  0.
     999903    2    3    3    0    0  0.40992152697E-01  0.77365481627E-01 -0.95673098704E-01  0.13121090810E+00  0.19929532324E-01 0.  0.
         14    1    1    2    0    0  0.17449492940E-01 -0.15584037261E-01 -0.52336117152E-03  0.23401301847E-01  0.00000000000E+00 0. -1.
     999901    1    3    3    0    0 -0.58441645637E-01 -0.61781444366E-01  0.96196459875E-01  0.88931779005E+00  0.88000000000E+00 0.  1.
        -11    1    4    4    0    0  0.27307016324E-01  0.36738400566E-01 -0.38937057441E-01  0.60097743550E-01  0.51100000000E-03 0.  1.
         11    1    4    4    0    0  0.13685136373E-01  0.40627081061E-01 -0.56736041263E-01  0.71113164550E-01  0.51100000000E-03 0. -1.
</event>
<event>
 8    1  0.1092667E+005  0.1043930E+01  0.7957747E-01            NaN
         13   -1    0    0    0    0  0.00000000000E+00  0.00000000000E+00  0.74505805969E-08  0.10566000000E+00  0.10566000000E+00 0.  1.
     999900   -1    0    0    0    0 -0.00000000000E+00 -0.00000000000E+00 -0.74505805969E-08  0.93827000000E+00  0.93827000000E+00 0.  1.
     999902    2    1    2    0    0  0.64108988069E-03  0.24552342578E-01 -0.45988575176E-02  0.10189424428E+01  0.10186360114E+01 0.  0.
     999903    2    3    3    0    0  0.25624170672E-01  0.44712016096E-01 -0.11796216150E+00  0.13109008718E+00  0.24774521289E-01 0.  0.
         14    1    1    2    0    0 -0.64108988069E-03 -0.24552342578E-01  0.45988575176E-02  0.24987557159E-01  0.00000000000E+00 0. -1.
     999901    1    3    3    0    0 -0.24983080791E-01 -0.20159673518E-01  0.11336330398E+00  0.88785235566E+00  0.88000000000E+00 0. -1.
        -11    1    4    4    0    0  0.88097773224E-02  0.38021136022E-01 -0.82948256876E-01  0.91672751680E-01  0.51100000000E-03 0.  1.
         11    1    4    4    0    0  0.16814393349E-01  0.66908800737E-02 -0.35013904625E-01  0.39417335500E-01  0.51100000000E-03 0. -1.
</event>
<event>
 8    1  0.1092667E+005  0.1043930E+01  0.7957747E-01            NaN
         13   -1    0    0    0    0  0.00000000000E+00  0.00000000000E+00  0.74505805969E-08  0.10566000000E+00  0.10566000000E+00 0.  1.
     999900   -1    0    0    0    0 -0.00000000000E+00 -0.00000000000E+00 -0.74505805969E-08  0.93827000000E+00  0.93827000000E+00 0.  1.
     999902    2    1    2    0    0 -0.18158660217E-01 -0.93345871202E-02 -0.14635149169E-01  0.10188091113E+01  0.10184993600E+01 0.  0.
     999903    2    3    3    0    0 -0.50874461754E-01  0.99730553143E-01 -0.63246912647E-01  0.13014233909E+00  0.20061464944E-01 0.  0.
         14    1    1    2    0    0  0.18158660217E-01  0.93345871202E-02  0.14635149169E-01  0.25120888694E-01  0.00000000000E+00 0. -1.
     999901    1    3    3    0    0  0.32715801537E-01 -0.10906514026E+00  0.48611763478E-01  0.88866677222E+00  0.88000000000E+00 0. -1.
        -11    1    4    4    0    0 -0.21686440583E-01  0.63361017032E-01 -0.34181282512E-01  0.75190035109E-01  0.51100000000E-03 0. -1.
         11    1    4    4    0    0 -0.29188021171E-01  0.36369536110E-01 -0.29065630135E-01  0.54952303982E-01  0.51100000000E-03 0.  1.
</event>
<event>
 8    1  0.1092667E+005  0.1043930E+01  0.7957747E-01            NaN
         13   -1    0    0    0    0  0.00000000000E+00  0.00000000000E+00  0.74505805969E-08  0.10566000000E+00  0.10566000000E+00 0. -1.
     999900   -1    0    0    0    0 -0.00000000000E+00 -0.00000000000E+00 -0.74505805969E-08  0.93827000000E+00  0.93827000000E+00 0. -1.
     999902    2    1    2    0    0 -0.27235120767E-02 -0.16992394940E-01 -0.17675841033E-01  0.10192602947E+01  0.10189617039E+01 0.  0.
     999903    2    3    3    0    0 -0.85598084382E-01 -0.88984816613E-01 -0.42422455249E-01  0.13209430209E+00  0.20097519687E-01 0.  0.
         14    1    1    2    0    0  0.27235120767E-02  0.16992394940E-01  0.17675841033E-01  0.24669705310E-01  0.00000000000E+00 0.  1.
     999901    1    3    3    0    0  0.82874572305E-01  0.71992421673E-01  0.24746614216E-01  0.88716599260E+00  0.88000000000E+00 0.  1.
        -11    1    4    4    0    0 -0.66001612802E-01 -0.57995229436E-01 -0.35571182900E-01  0.94790451543E-01  0.51100000000E-03 0. -1.
         11    1    4    4    0    0 -0.19596471580E-01 -0.30989587177E-01 -0.68512723497E-02  0.37303850546E-01  0.51100000000E-03 0.  1.
</event>
<event>
 8    1  0.1092667E+005  0.1043930E+01  0.7957747E-01            NaN
         13   -1    0    0    0    0  0.00000000000E+00  0.00000000000E+00  0.74505805969E-08  0.10566000000E+00  0.10566000000E+00 0. -1.
     999900   -1    0    0    0    0 -0.00000000000E+00 -0.00000000000E+00 -0.74505805969E-08  0.93827000000E+00  0.93827000000E+00 0.  1.
     999902    2    1    2    0    0 -0.24100331277E-01 -0.37581043225E-02 -0.21461199490E-02  0.10194441848E+01  0.10191500825E+01 0.  0.
     999903    2    3    3    0    0  0.82971859413E-01 -0.70440899696E-01  0.64533847617E-01  0.12795258792E+00  0.18999933205E-01 0.  0.
         14    1    1    2    0    0  0.24100331277E-01  0.37581043225E-02  0.21461199490E-02  0.24485815212E-01  0.00000000000E+00 0. -1.
     999901    1    3    3    0    0 -0.10707219069E+00  0.66682795373E-01 -0.66679967566E-01  0.89149159687E+00  0.88000000000E+00 0.  1.
        -11    1    4    4    0    0  0.62982768286E-01 -0.41951125359E-01  0.43760422882E-01  0.87418314738E-01  0.51100000000E-03 0. -1.
         11    1    4    4    0    0  0.19989091127E-01 -0.28489774337E-01  0.20773424735E-01  0.40534273178E-01  0.51100000000E-03 0.  1.
</event>
<event>
 8    1  0.1092667E+005  0.1043930E+01  0.7957747E-01            NaN
         13   -1    0    0    0    0  0.00000000000E+00  0.00000000000E+00  0.74505805969E-08  0.10566000000E+00  0.10566000000E+00 0. -1.
     999900   -1    0    0    0    0 -0.00000000000E+00 -0.00000000000E+00 -0.74505805969E-08  0.93827000000E+00  0.93827000000E+00 0. -1.
     999902    2    1    2    0    0  0.17138380292E-01 -0.78554909052E-02 -0.14192255337E-01  0.10203322686E+01  0.10200593539E+01 0.  0.
     999903    2    3    3    0    0  0.94475393022E-01  0.87908017567E-01 -0.14646434781E-01  0.13176495579E+00  0.22227597316E-01 0.  0.
         14    1    1    2    0    0 -0.17138380292E-01  0.78554909052E-02  0.14192255337E-01  0.23597731416E-01  0.00000000000E+00 0.  1.
     999901    1    3    3    0    0 -0.77337012730E-01 -0.95763508473E-01  0.45417944318E-03  0.88856731280E+00  0.88000000000E+00 0.  1.
        -11    1    4    4    0    0  0.39998865081E-01  0.31607235340E-01  0.42987765716E-02  0.51163142345E-01  0.51100000000E-03 0.  1.
         11    1    4    4    0    0  0.54476527941E-01  0.56300782227E-01 -0.18945211352E-01  0.80601813442E-01  0.51100000000E-03 0. -1.
</event>
<event>
 8    1  0.1092667E+005  0.1043930E+01  0.7957747E-01            NaN
         13   -1    0    0    0    0  0.00000000000E+00  0.00000000000E+00  0.74505805969E-08  0.10566000000E+00  0.10566000000E+00 0. -1.
     999900   -1    0    0    0    0 -0.00000000000E+00 -0.00000000000E+00 -0.74505805969E-08  0.93827000000E+00  0.93827000000E+00 0.  1.
     999902    2    1    2    0    0 -0.22584082556E-01  0.66682509530E-03  0.70809295450E-02  0.10202524789E+01  0.10199776938E+01 0.  0.
     999903    2    3    3    0    0  0.70466835926E-01 -0.94254114773E-01  0.49458793152E-01  0.12926182714E+00  0.20323253162E-01 0.  0.
         14    1    1    2    0    0  0.22584082556E-01 -0.66682509530E-03 -0.70809295450E-02  0.23677521066E-01  0.00000000000E+00 0.  1.
     999901    1    3    3    0    0 -0.93050918482E-01  0.94920939869E-01 -0.42377863607E-01  0.89099065179E+00  0.88000000000E+00 0.  1.
        -11    1    4    4    0    0  0.51787766381E-01 -0.82094034244E-01  0.38529416781E-01  0.10443265909E+00  0.51100000000E-03 0.  1.
         11    1    4    4    0    0  0.18679069545E-01 -0.12160080529E-01  0.10929376372E-01  0.24829168057E-01  0.51100000000E-03 0. -1.
</event>
<event>
 8    1  0.1092667E+005  0.1043930E+01  0.7957747E-01            NaN
         13   -1    0    0    0    0  0.00000000000E+00  0.00000000000E+00  0.74505805969E-08  0.10566000000E+00  0.10566000000E+00 0. -1.
     999900   -1    0    0    0    0 -0.00000000000E+00 -0.00000000000E+00 -0.74505805969E-08  0.93827000000E+00  0.93827000000E+00 0.  1.
     999902    2    1    2    0    0 -0.54110288127E-02 -0.10093526246E-01  0.20482007744E-01  0.10204636167E+01  0.10201937668E+01 0.  0.
     999903    2    3    3    0    0 -0.28155751733E-01  0.10300006135E-01 -0.12310052175E+00  0.12830378719E+00  0.20230839567E-01 0.  0.
         14    1    1    2    0    0  0.54110288127E-02  0.10093526246E-01 -0.20482007744E-01  0.23466383320E-01  0.00000000000E+00 0.  1.
     999901    1    3    3    0    0  0.22744722920E-01 -0.20393532381E-01  0.14358252949E+00  0.89215982949E+00  0.88000000000E+00 0.  1.
        -11    1    4    4    0    0 -0.28631780255E-01  0.34179436506E-02 -0.10610349787E+00  0.10995305617E+00  0.51100000000E-03 0.  1.
         11    1    4    4    0    0  0.47602852209E-03  0.68820624843E-02 -0.16997023879E-01  0.18350731019E-01  0.51100000000E-03 0. -1.
</event>
<event>
 8    1  0.1092667E+005  0.1043930E+01  0.7957747E-01            NaN
         13   -1    0    0    0    0  0.00000000000E+00  0.00000000000E+00  0.74505805969E-08  0.10566000000E+00  0.10566000000E+00 0.  1.
     999900   -1    0    0    0    0 -0.00000000000E+00 -0.00000000000E+00 -0.74505805969E-08  0.93827000000E+00  0.93827000000E+00 0. -1.
     999902    2    1    2    0    0 -0.11509001095E-01 -0.19017809597E-01  0.20965902956E-02  0.10216022173E+01  0.10213581941E+01 0.  0.
     999903    2    3    3    0    0  0.10196084586E+00 -0.77361356530E-01 -0.25590547289E-01  0.13196973522E+00  0.19502341654E-01 0.  0.
         14    1    1    2    0    0  0.11509001095E-01  0.19017809597E-01 -0.20965902956E-02  0.22327782670E-01  0.00000000000E+00 0.  1.
     999901    1    3    3    0    0 -0.11346984696E+00  0.58343546933E-01  0.27687137585E-01  0.88963248211E+00  0.88000000000E+00 0.  1.
        -11    1    4    4    0    0  0.63482682884E-01 -0.52507266413E-01 -0.25217317560E-01  0.86158216545E-01  0.51100000000E-03 0. -1.
         11    1    4    4    0    0  0.38478162981E-01 -0.24854090117E-01 -0.37322972957E-03  0.45811518676E-01  0.51100000000E-03 0.  1.
</event>
<event>
 8    1  0.1092667E+005  0.1043930E+01  0.7957747E-01            NaN
         13   -1    0    0    0    0  0.00000000000E+00  0.00000000000E+00  0.74505805969E-08  0.10566000000E+00  0.10566000000E+00 0. -1.
     999900   -1    0    0    0    0 -0.00000000000E+00 -0.00000000000E+00 -0.74505805969E-08  0.93827000000E+00  0.93827000000E+00 0.  1.
     999902    2    1    2    0    0 -0.15812492919E-01 -0.56025439941E-02  0.86296306555E-02  0.10250648481E+01  0.10248912376E+01 0.  0.
     999903    2    3    3    0    0 -0.34544565611E-01  0.42586193488E-01  0.12299121546E+00  0.13616011919E+00  0.20145175306E-01 0.  0.
         14    1    1    2    0    0  0.15812492919E-01  0.56025439941E-02 -0.86296306555E-02  0.18865151915E-01  0.00000000000E+00 0.  1.
     999901    1    3    3    0    0  0.18732072692E-01 -0.48188737482E-01 -0.11436158481E+00  0.88890472889E+00  0.88000000000E+00 0.  1.
        -11    1    4    4    0    0 -0.16696951638E-01  0.11641382536E-01  0.64336042967E-01  0.67481090144E-01  0.51100000000E-03 0. -1.
         11    1    4    4    0    0 -0.17847613973E-01  0.30944810952E-01  0.58655172497E-01  0.68679029048E-01  0.51100000000E-03 0.  1.
</event>
<event>
 8    1  0.1092667E+005  0.1043930E+01  0.7957747E-01            NaN
         13   -1    0    0    0    0  0.00000000000E+00  0.00000000000E+00  0.74505805969E-08  0.10566000000E+00  0.10566000000E+00 0.  1.
     999900   -1    0    0    0    0 -0.00000000000E+00 -0.00000000000E+00 -0.74505805969E-08  0.93827000000E+00  0.93827000000E+00 0. -1.
     999902    2    1    2    0    0 -0.21198080339E-01 -0.24153251904E-02 -0.11222194689E-01  0.10198233607E+01  0.10195384038E+01 0.  0.
     999903    2    3    3    0    0 -0.40592762331E-02  0.92776096353E-02 -0.12976292980E+00  0.13163285791E+00  0.19652978540E-01 0.  0.
         14    1    1    2    0    0  0.21198080339E-01  0.24153251904E-02  0.11222194689E-01  0.24106639324E-01  0.00000000000E+00 0.  1.
     999901    1    3    3    0    0 -0.17138804106E-01 -0.11692934826E-01  0.11854073511E+00  0.88819050277E+00  0.88000000000E+00 0.  1.
        -11    1    4    4    0    0 -0.31424976642E-02 -0.54069572084E-02 -0.22291966822E-01  0.23158224967E-01  0.51100000000E-03 0. -1.
         11    1    4    4    0    0 -0.91677856893E-03  0.14684566844E-01 -0.10747096298E+00  0.10847463294E+00  0.51100000000E-03 0.  1.
</event>
<event>
 8    1  0.1092667E+005  0.1043930E+01  0.7957747E-01            NaN
         13   -1    0    0    0    0  0.00000000000E+00  0.00000000000E+00  0.74505805969E-08  0.10566000000E+00  0.10566000000E+00 0. -1.
     999900   -1    0    0    0    0 -0.00000000000E+00 -0.00000000000E+00 -0.74505805969E-08  0.93827000000E+00  0.93827000000E+00 0. -1.
     999902    2    1    2    0    0 -0.20467847802E-01 -0.13028137594E-01  0.26731106954E-02  0.10195207664E+01  0.10192285232E+01 0.  0.
     999903    2    3    3    0    0  0.41872642020E-01 -0.57621971504E-01 -0.10625879993E+00  0.12949767243E+00  0.20127216706E-01 0.  0.
         14    1    1    2    0    0  0.20467847802E-01  0.13028137594E-01 -0.26731106954E-02  0.24409233572E-01  0.00000000000E+00 0. -1.
     999901    1    3    3    0    0 -0.62340489822E-01  0.44593833911E-01  0.10893191063E+00  0.89002309400E+00  0.88000000000E+00 0.  1.
        -11    1    4    4    0    0  0.30815402509E-01 -0.53037210394E-01 -0.81626966393E-01  0.10210659862E+00  0.51100000000E-03 0. -1.
         11    1    4    4    0    0  0.11057239512E-01 -0.45847611100E-02 -0.24631833539E-01  0.27391073811E-01  0.51100000000E-03 0.  1.
</event>
<event>
 8    1  0.1092667E+005  0.1043930E+01  0.7957747E-01            NaN
         13   -1    0    0    0    0  0.00000000000E+00  0.00000000000E+00  0.74505805969E-08  0.10566000000E+00  0.10566000000E+00 0. -1.
     999900   -1    0    0    0    0 -0.00000000000E+00 -0.00000000000E+00 -0.74505805969E-08  0.93827000000E+00  0.93827000000E+00 0. -1.
     999902    2    1    2    0    0 -0.77200336071E-02 -0.20825907048E-01 -0.79986132598E-02  0.10203229007E+01  0.10200497667E+01 0.  0.
     999903    2    3    3    0    0 -0.14681027467E-01 -0.38252287487E-01 -0.12428400921E+00  0.13247470000E+00  0.20597600093E-01 0.  0.
         14    1    1    2    0    0  0.77200336071E-02  0.20825907048E-01  0.79986132598E-02  0.23607099300E-01  0.00000000000E+00 0. -1.
     999901    1    3    3    0    0  0.69609938596E-02  0.17426380439E-01  0.11628539595E+00  0.88784820070E+00  0.88000000000E+00 0.  1.
        -11    1    4    4    0    0 -0.19361573920E-01 -0.25000595263E-01 -0.80584676265E-01  0.86568189758E-01  0.51100000000E-03 0.  1.
         11    1    4    4    0    0  0.46805464530E-02 -0.13251692224E-01 -0.43699332946E-01  0.45906510245E-01  0.51100000000E-03 0. -1.
</event>
<event>
 8    1  0.1092667E+005  0.1043930E+01  0.7957747E-01            NaN
         13   -1    0    0    0    0  0.00000000000E+00  0.00000000000E+00  0.74505805969E-08  0.10566000000E+00  0.10566000000E+00 0.  1.
     999900   -1    0    0    0    0 -0.00000000000E+00 -0.00000000000E+00 -0.74505805969E-08  0.93827000000E+00  0.93827000000E+00 0.  1.
     999902    2    1    2    0    0 -0.57051080985E-02 -0.22772380562E-01 -0.49791336444E-02  0.10199316387E+01  0.10196492663E+01 0.  0.
     999903    2    3    3    0    0  0.12533160537E+00  0.22664587240E-01 -0.61644463010E-02  0.12906883033E+00  0.19976680030E-01 0.  0.
         14    1    1    2    0    0  0.57051080985E-02  0.22772380562E-01  0.49791336444E-02  0.23998361334E-01  0.00000000000E+00 0.  1.
     999901    1    3    3    0    0 -0.13103671346E+00 -0.45436967802E-01  0.11853126566E-02  0.89086280834E+00  0.88000000000E+00 0.  1.
        -11    1    4    4    0    0  0.82340242262E-01  0.19177670119E-01 -0.12519902553E-01  0.85467582204E-01  0.51100000000E-03 0. -1.
         11    1    4    4    0    0  0.42991363104E-01  0.34869171216E-02  0.63554562516E-02  0.43601248121E-01  0.51100000000E-03 0.  1.
</event>
<event>
 8    1  0.1092667E+005  0.1043930E+01  0.7957747E-01            NaN
         13   -1    0    0    0    0  0.00000000000E+00  0.00000000000E+00  0.74505805969E-08  0.10566000000E+00  0.10566000000E+00 0.  1.
     999900   -1    0    0    0    0 -0.00000000000E+00 -0.00000000000E+00 -0.74505805969E-08  0.93827000000E+00  0.93827000000E+00 0.  1.
     999902    2    1    2    0    0  0.18569932875E-01 -0.10598242750E-02  0.14950718272E-01  0.10200660185E+01  0.10197868368E+01 0.  0.
     999903    2    3    3    0    0  0.35690505542E-01  0.64123358442E-01 -0.10476662902E+00  0.12940659734E+00  0.19606213174E-01 0.  0.
         14    1    1    2    0    0 -0.18569932875E-01  0.10598242750E-02 -0.14950718272E-01  0.23863981464E-01  0.00000000000E+00 0. -1.
     999901    1    3    3    0    0 -0.17120572667E-01 -0.65183182717E-01  0.11971734730E+00  0.89065942119E+00  0.88000000000E+00 0. -1.
        -11    1    4    4    0    0  0.24936159241E-01  0.29106547353E-01 -0.43101737252E-01  0.57680360711E-01  0.51100000000E-03 0. -1.
         11    1    4    4    0    0  0.10754346300E-01  0.35016811089E-01 -0.61664891772E-01  0.71726236632E-01  0.51100000000E-03 0.  1.
</event>
<event>
 8    1  0.1092667E+005  0.1043930E+01  0.7957747E-01            NaN
         13   -1    0    0    0    0  0.00000000000E+00  0.00000000000E+00  0.74505805969E-08  0.10566000000E+00  0.10566000000E+00 0.  1.
     999900   -1    0    0    0    0 -0.00000000000E+00 -0.00000000000E+00 -0.74505805969E-08  0.93827000000E+00  0.93827000000E+00 0. -1.
     999902    2    1    2    0    0  0.36955020951E-02  0.21370469275E-01 -0.10322924646E-01  0.10199109145E+01  0.10196280484E+01 0.  0.
     999903    2    3    3    0    0  0.11711200994E+00 -0.26831617272E-01  0.44293543350E-01  0.12964707502E+00  0.20280224854E-01 0.  0.
         14    1    1    2    0    0 -0.36955020951E-02 -0.21370469275E-01  0.10322924646E-01  0.24019085453E-01  0.00000000000E+00 0.  1.
     999901    1    3    3    0    0 -0.11341650784E+00  0.48202086547E-01 -0.54616467996E-01  0.89026383953E+00  0.88000000000E+00 0. -1.
        -11    1    4    4    0    0  0.12483389421E-01 -0.11521310526E-02 -0.13956218648E-02  0.12624234583E-01  0.51100000000E-03 0. -1.
         11    1    4    4    0    0  0.10462862052E+00 -0.25679486219E-01  0.45689165215E-01  0.11702284043E+00  0.51100000000E-03 0.  1.
</event>
<event>
 8    1  0.1092667E+005  0.1043930E+01  0.7957747E-01            NaN
         13   -1    0    0    0    0  0.00000000000E+00  0.00000000000E+00  0.74505805969E-08  0.10566000000E+00  0.10566000000E+00 0.  1.
     999900   -1    0    0    0    0 -0.00000000000E+00 -0.00000000000E+00 -0.74505805969E-08  0.93827000000E+00  0.93827000000E+00 0. -1.
     999902    2    1    2    0    0 -0.21801535477E-02  0.75797784224E-02 -0.22462496287E-01  0.10201230714E+01  0.10198452387E+01 0.  0.
     999903    2    3    3    0    0  0.96150217506E-01  0.41980893573E-01 -0.78623055658E-01  0.13220060460E+00  0.16975135488E-01 0.  0.
         14    1    1    2    0    0  0.21801535477E-02 -0.75797784224E-02  0.22462496287E-01  0.23806928611E-01  0.00000000000E+00 0.  1.
     999901    1    3    3    0    0 -0.98330371054E-01 -0.34401115150E-01  0.56160559371E-01  0.88792246679E+00  0.88000000000E+00 0.  1.
        -11    1    4    4    0    0  0.85807624218E-01  0.34953177641E-01 -0.62385667722E-01  0.11170007010E+00  0.51100000000E-03 0. -1.
         11    1    4    4    0    0  0.10342593288E-01  0.70277159318E-02 -0.16237387935E-01  0.20500534508E-01  0.51100000000E-03 0.  1.
</event>
<event>
 8    1  0.1092667E+005  0.1043930E+01  0.7957747E-01            NaN
         13   -1    0    0    0    0  0.00000000000E+00  0.00000000000E+00  0.74505805969E-08  0.10566000000E+00  0.10566000000E+00 0.  1.
     999900   -1    0    0    0    0 -0.00000000000E+00 -0.00000000000E+00 -0.74505805969E-08  0.93827000000E+00  0.93827000000E+00 0. -1.
     999902    2    1    2    0    0  0.12421514218E-01 -0.18103049069E-01  0.66593310067E-02  0.10209874393E+01  0.10207296362E+01 0.  0.
     999903    2    3    3    0    0 -0.83243868822E-01 -0.89996790791E-01  0.45792903347E-01  0.13202624101E+00  0.17463512534E-01 0.  0.
         14    1    1    2    0    0 -0.12421514218E-01  0.18103049069E-01 -0.66593310067E-02  0.22942560680E-01  0.00000000000E+00 0. -1.
     999901    1    3    3    0    0  0.95665383040E-01  0.71893741722E-01 -0.39133572341E-01  0.88896119831E+00  0.88000000000E+00 0. -1.
        -11    1    4    4    0    0 -0.49035099850E-01 -0.40199439840E-01  0.23965857956E-01  0.67786867823E-01  0.51100000000E-03 0. -1.
         11    1    4    4    0    0 -0.34208768972E-01 -0.49797350952E-01  0.21827045392E-01  0.64239373190E-01  0.51100000000E-03 0.  1.
</event>
<event>
 8    1  0.1092667E+005  0.1043930E+01  0.7957747E-01            NaN
         13   -1    0    0    0    0  0.00000000000E+00  0.00000000000E+00  0.74505805969E-08  0.10566000000E+00  0.10566000000E+00 0.  1.
     999900   -1    0    0    0    0 -0.00000000000E+00 -0.00000000000E+00 -0.74505805969E-08  0.93827000000E+00  0.93827000000E+00 0. -1.
     999902    2    1    2    0    0  0.85426922672E-02  0.17569295351E-02  0.21663866420E-01  0.10205764671E+01  0.10203092363E+01 0.  0.
     999903    2    3    3    0    0  0.57071394852E-01 -0.90679883154E-01 -0.70078055920E-01  0.12966896365E+00  0.20569902612E-01 0.  0.
         14    1    1    2    0    0 -0.85426922672E-02 -0.17569295351E-02 -0.21663866420E-01  0.23353532941E-01  0.00000000000E+00 0. -1.
     999901    1    3    3    0    0 -0.48528702584E-01  0.92436812689E-01  0.91741922340E-01  0.89090750341E+00  0.88000000000E+00 0.  1.
        -11    1    4    4    0    0  0.39576666799E-01 -0.56016921900E-01 -0.55357011465E-01  0.88141181825E-01  0.51100000000E-03 0.  1.
         11    1    4    4    0    0  0.17494728052E-01 -0.34662961254E-01 -0.14721044455E-01  0.41527781826E-01  0.51100000000E-03 0. -1.
</event>
<event>
 8    1  0.1092667E+005  0.1043930E+01  0.7957747E-01            NaN
         13   -1    0    0    0    0  0.00000000000E+00  0.00000000000E+00  0.74505805969E-08  0.10566000000E+00  0.10566000000E+00 0.  1.
     999900   -1    0    0    0    0 -0.00000000000E+00 -0.00000000000E+00 -0.74505805969E-08  0.93827000000E+00  0.93827000000E+00 0.  1.
     999902    2    1    2    0    0 -0.14252459664E-01 -0.21918410600E-02 -0.17558480972E-01  0.10212091499E+01  0.10209563609E+01 0.  0.
     999903    2    3    3    0    0 -0.39254056557E-01 -0.43694883137E-01  0.11460836436E+00  0.13002137098E+00  0.17898490507E-01 0.  0.
         14    1    1    2    0    0  0.14252459664E-01  0.21918410600E-02  0.17558480972E-01  0.22720850067E-01  0.00000000000E+00 0.  1.
     999901    1    3    3    0    0  0.25001596892E-01  0.41503042077E-01 -0.13216684533E+00  0.89118777895E+00  0.88000000000E+00 0.  1.
        -11    1    4    4    0    0 -0.32755159977E-03 -0.70348096068E-02  0.21738729261E-01  0.22856712518E-01  0.51100000000E-03 0. -1.
         11    1    4    4    0    0 -0.38926504957E-01 -0.36660073530E-01  0.92869635098E-01  0.10716465846E+00  0.51100000000E-03 0.  1.
</event>
<event>
 8    1  0.1092667E+005  0.1043930E+01  0.7957747E-01            NaN
         13   -1    0    0    0    0  0.00000000000E+00  0.00000000000E+00  0.74505805969E-08  0.10566000000E+00  0.10566000000E+00 0.  1.
     999900   -1    0    0    0    0 -0.00000000000E+00 -0.00000000000E+00 -0.74505805969E-08  0.93827000000E+00  0.93827000000E+00 0. -1.
     999902    2    1    2    0    0  0.20782187320E-01  0.46198063467E-02  0.11957303166E-01  0.10195124035E+01  0.10192199575E+01 0.  0.
     999903    2    3    3    0    0 -0.12247451190E+00 -0.48252934746E-02 -0.27635277665E-01  0.12699951045E+00  0.18489931328E-01 0.  0.
         14    1    1    2    0    0 -0.20782187320E-01 -0.46198063467E-02 -0.11957303166E-01  0.24417596513E-01  0.00000000000E+00 0. -1.
     999901    1    3    3    0    0  0.14325669922E+00  0.94450998214E-02  0.39592580831E-01  0.89251289304E+00  0.88000000000E+00 0. -1.
        -11    1    4    4    0    0 -0.15030056445E-01 -0.57232747435E-02 -0.15513834316E-03  0.16091726428E-01  0.51100000000E-03 0.  1.
         11    1    4    4    0    0 -0.10744445546E+00  0.89798126885E-03 -0.27480139322E-01  0.11090778402E+00  0.51100000000E-03 0. -1.
</event>
<event>
 8    1  0.1092667E+005  0.1043930E+01  0.7957747E-01            NaN
         13   -1    0    0    0    0  0.00000000000E+00  0.00000000000E+00  0.74505805969E-08  0.10566000000E+00  0.10566000000E+00 0.  1.
     999900   -1    0    0    0    0 -0.00000000000E+00 -0.00000000000E+00 -0.74505805969E-08  0.93827000000E+00  0.93827000000E+00 0. -1.
     999902    2    1    2    0    0  0.16476365044E-01  0.46559625807E-02 -0.14829218768E-01  0.10212792975E+01  0.10210280845E+01 0.  0.
     999903    2    3    3    0    0 -0.56070429386E-01  0.10804287814E+00  0.42959479709E-01  0.13038568697E+00  0.18378082086E-01 0.  0.
         14    1    1    2    0    0 -0.16476365044E-01 -0.46559625807E-02  0.14829218768E-01  0.22650702458E-01  0.00000000000E+00 0.  1.
     999901    1    3    3    0    0  0.72546794430E-01 -0.10338691556E+00 -0.57788698476E-01  0.89089361057E+00  0.88000000000E+00 0. -1.
        -11    1    4    4    0    0 -0.34056334124E-01  0.54631548527E-01  0.14536900421E-01  0.66000171085E-01  0.51100000000E-03 0. -1.
         11    1    4    4    0    0 -0.22014095263E-01  0.53411329611E-01  0.28422579288E-01  0.64385515882E-01  0.51100000000E-03 0.  1.
</event>
<event>
 8    1  0.1092667E+005  0.1043930E+01  0.7957747E-01            NaN
         13   -1    0    0    0    0  0.00000000000E+00  0.00000000000E+00  0.74505805969E-08  0.10566000000E+00  0.10566000000E+00 0. -1.
     999900   -1    0    0    0    0 -0.00000000000E+00 -0.00000000000E+00 -0.74505805969E-08  0.93827000000E+00  0.93827000000E+00 0. -1.
     999902    2    1    2    0    0 -0.14509292989E-01 -0.18700901325E-01  0.40705657151E-02  0.10199130727E+01  0.10196302580E+01 0.  0.
     999903    2    3    3    0    0  0.11526765275E+00 -0.49748064805E-01  0.17216005328E-01  0.12975646589E+00  0.27907846187E-01 0.  0.
         14    1    1    2    0    0  0.14509292989E-01  0.18700901325E-01 -0.40705657151E-02  0.24016927336E-01  0.00000000000E+00 0.  1.
     999901    1    3    3    0    0 -0.12977694574E+00  0.31047163480E-01 -0.13145439613E-01  0.89015660678E+00  0.88000000000E+00 0. -1.
        -11    1    4    4    0    0  0.85616044893E-01 -0.48320901198E-01  0.78552793394E-02  0.98625469176E-01  0.51100000000E-03 0. -1.
         11    1    4    4    0    0  0.29651607853E-01 -0.14271636070E-02  0.93607259882E-02  0.31130996712E-01  0.51100000000E-03 0.  1.
</event>
<event>
 8    1  0.1092667E+005  0.1043930E+01  0.7957747E-01            NaN
         13   -1    0    0    0    0  0.00000000000E+00  0.00000000000E+00  0.74505805969E-08  0.10566000000E+00  0.10566000000E+00 0.  1.
     999900   -1    0    0    0    0 -0.00000000000E+00 -0.00000000000E+00 -0.74505805969E-08  0.93827000000E+00  0.93827000000E+00 0. -1.
     999902    2    1    2    0    0  0.20050140440E-01  0.73808701406E-02  0.21616567968E-01  0.10135365569E+01  0.10130807424E+01 0.  0.
     999903    2    3    3    0    0  0.72345649454E-03  0.36274972454E-01  0.12042453192E+00  0.12732472913E+00  0.19827297897E-01 0.  0.
         14    1    1    2    0    0 -0.20050140440E-01 -0.73808701406E-02 -0.21616567968E-01  0.30393443148E-01  0.00000000000E+00 0. -1.
     999901    1    3    3    0    0  0.19326683945E-01 -0.28894102313E-01 -0.98807963956E-01  0.88621182773E+00  0.88000000000E+00 0. -1.
        -11    1    4    4    0    0 -0.49344413237E-02  0.11239127107E-01  0.18432967473E-01  0.22151796771E-01  0.51100000000E-03 0. -1.
         11    1    4    4    0    0  0.56578978182E-02  0.25035845347E-01  0.10199156445E+00  0.10517293235E+00  0.51100000000E-03 0.  1.
</event>
<event>
 8    1  0.1092667E+005  0.1043930E+01  0.7957747E-01            NaN
         13   -1    0    0    0    0  0.00000000000E+00  0.00000000000E+00  0.74505805969E-08  0.10566000000E+00  0.10566000000E+00 0.  1.
     999900   -1    0    0    0    0 -0.00000000000E+00 -0.00000000000E+00 -0.74505805969E-08  0.93827000000E+00  0.93827000000E+00 0.  1.
     999902    2    1    2    0    0  0.82720668508E-02  0.22194384951E-01 -0.11117097207E-03  0.10202439245E+01  0.10199689384E+01 0.  0.
     999903    2    3    3    0    0 -0.37228969553E-01  0.39054207539E-01  0.11778220352E+00  0.13105696684E+00  0.19800348231E-01 0.  0.
         14    1    1    2    0    0 -0.82720668508E-02 -0.22194384951E-01  0.11117097207E-03  0.23686075495E-01  0.00000000000E+00 0.  1.
     999901    1    3    3    0    0  0.45501036403E-01 -0.16859822588E-01 -0.11789337450E+00  0.88918695766E+00  0.88000000000E+00 0.  1.
        -11    1    4    4    0    0 -0.79830687503E-02  0.59674282890E-02  0.43571742647E-01  0.44700083505E-01  0.51100000000E-03 0.  1.
         11    1    4    4    0    0 -0.29245900802E-01  0.33086779250E-01  0.74210460876E-01  0.86356883335E-01  0.51100000000E-03 0. -1.
</event>
<event>
 8    1  0.1092667E+005  0.1043930E+01  0.7957747E-01            NaN
         13   -1    0    0    0    0  0.00000000000E+00  0.00000000000E+00  0.74505805969E-08  0.10566000000E+00  0.10566000000E+00 0.  1.
     999900   -1    0    0    0    0 -0.00000000000E+00 -0.00000000000E+00 -0.74505805969E-08  0.93827000000E+00  0.93827000000E+00 0.  1.
     999902    2    1    2    0    0  0.60331805636E-02  0.23689681840E-01  0.21388370983E-01  0.10114482712E+01  0.10109265763E+01 0.  0.
     999903    2    3    3    0    0 -0.50667211508E-01 -0.10227793260E+00 -0.28613806633E-01  0.11926948187E+00  0.19455527646E-01 0.  0.
         14    1    1    2    0    0 -0.60331805636E-02 -0.23689681840E-01 -0.21388370983E-01  0.32481728813E-01  0.00000000000E+00 0. -1.
     999901    1    3    3    0    0  0.56700392071E-01  0.12596761444E+00  0.50002177616E-01  0.89217878932E+00  0.88000000000E+00 0. -1.
        -11    1    4    4    0    0 -0.23519571838E-01 -0.28985294486E-01 -0.13256200691E-01  0.39614461168E-01  0.51100000000E-03 0.  1.
         11    1    4    4    0    0 -0.27147639669E-01 -0.73292638111E-01 -0.15357605943E-01  0.79655020697E-01  0.51100000000E-03 0. -1.
</event>
<event>
 8    1  0.1092667E+005  0.1043930E+01  0.7957747E-01            NaN
         13   -1    0    0    0    0  0.00000000000E+00  0.00000000000E+00  0.74505805969E-08  0.10566000000E+00  0.10566000000E+00 0.  1.
     999900   -1    0    0    0    0 -0.00000000000E+00 -0.00000000000E+00 -0.74505805969E-08  0.93827000000E+00  0.93827000000E+00 0. -1.
     999902    2    1    2    0    0  0.17092883956E-02 -0.11615315305E-01  0.17783958262E-01  0.10226202279E+01  0.10223981730E+01 0.  0.
     999903    2    3    3    0    0 -0.53916744148E-01  0.62505429966E-04 -0.11745174829E+00  0.13047712090E+00  0.17954016207E-01 0.  0.
         14    1    1    2    0    0 -0.17092883956E-02  0.11615315305E-01 -0.17783958262E-01  0.21309772123E-01  0.00000000000E+00 0. -1.
     999901    1    3    3    0    0  0.55626032543E-01 -0.11677820735E-01  0.13523570655E+00  0.89214310697E+00  0.88000000000E+00 0. -1.
        -11    1    4    4    0    0 -0.26264385135E-01  0.72667809978E-02 -0.45250683775E-01  0.52825273645E-01  0.51100000000E-03 0. -1.
         11    1    4    4    0    0 -0.27652359013E-01 -0.72042755679E-02 -0.72201064510E-01  0.77651847259E-01  0.51100000000E-03 0.  1.
</event>
<event>
 8    1  0.1092667E+005  0.1043930E+01  0.7957747E-01            NaN
         13   -1    0    0    0    0  0.00000000000E+00  0.00000000000E+00  0.74505805969E-08  0.10566000000E+00  0.10566000000E+00 0.  1.
     999900   -1    0    0    0    0 -0.00000000000E+00 -0.00000000000E+00 -0.74505805969E-08  0.93827000000E+00  0.93827000000E+00 0. -1.
     999902    2    1    2    0    0  0.24026938471E-01 -0.51113906878E-02 -0.18932251567E-02  0.10192925409E+01  0.10189947398E+01 0.  0.
     999903    2    3    3    0    0 -0.10352473422E+00 -0.77451114738E-02 -0.70819525805E-01  0.12742528591E+00  0.21081767153E-01 0.  0.
         14    1    1    2    0    0 -0.24026938471E-01  0.51113906878E-02  0.18932251567E-02  0.24637459053E-01  0.00000000000E+00 0. -1.
     999901    1    3    3    0    0  0.12755167269E+00  0.26337207860E-02  0.68926300649E-01  0.89186725504E+00  0.88000000000E+00 0. -1.
        -11    1    4    4    0    0 -0.77001950123E-01  0.20661958382E-02 -0.57709023853E-01  0.96250517106E-01  0.51100000000E-03 0. -1.
         11    1    4    4    0    0 -0.26522784097E-01 -0.98113073120E-02 -0.13110501952E-01  0.31174768802E-01  0.51100000000E-03 0.  1.
</event>
<event>
 8    1  0.1092667E+005  0.1043930E+01  0.7957747E-01            NaN
         13   -1    0    0    0    0  0.00000000000E+00  0.00000000000E+00  0.74505805969E-08  0.10566000000E+00  0.10566000000E+00 0. -1.
     999900   -1    0    0    0    0 -0.00000000000E+00 -0.00000000000E+00 -0.74505805969E-08  0.93827000000E+00  0.93827000000E+00 0.  1.
     999902    2    1    2    0    0  0.17422275405E-01  0.14035484755E-01 -0.11439787118E-01  0.10188023411E+01  0.10184924207E+01 0.  0.
     999903    2    3    3    0    0  0.11150079848E+00  0.60066871241E-01 -0.33182295206E-01  0.13232482096E+00  0.19192093304E-01 0.  0.
         14    1    1    2    0    0 -0.17422275405E-01 -0.14035484755E-01  0.11439787118E-01  0.25127658902E-01  0.00000000000E+00 0. -1.
     999901    1    3    3    0    0 -0.94078523075E-01 -0.46031386486E-01  0.21742508088E-01  0.88647752013E+00  0.88000000000E+00 0.  1.
        -11    1    4    4    0    0  0.61883608649E-01  0.36257762217E-01 -0.28177895736E-01  0.77061412325E-01  0.51100000000E-03 0.  1.
         11    1    4    4    0    0  0.49617189831E-01  0.23809109024E-01 -0.50043994699E-02  0.55263408638E-01  0.51100000000E-03 0. -1.
</event>
<event>
 8    1  0.1092667E+005  0.1043930E+01  0.7957747E-01            NaN
         13   -1    0    0    0    0  0.00000000000E+00  0.00000000000E+00  0.74505805969E-08  0.10566000000E+00  0.10566000000E+00 0.  1.
     999900   -1    0    0    0    0 -0.00000000000E+00 -0.00000000000E+00 -0.74505805969E-08  0.93827000000E+00  0.93827000000E+00 0. -1.
     999902    2    1    2    0    0  0.21619182776E-02  0.23988447056E-01  0.41868690186E-02  0.10194831320E+01  0.10191899760E+01 0.  0.
     999903    2    3    3    0    0 -0.43861658024E-01  0.84054054746E-01 -0.88652810894E-01  0.13136982112E+00  0.20243019958E-01 0.  0.
         14    1    1    2    0    0 -0.21619182776E-02 -0.23988447056E-01 -0.41868690186E-02  0.24446867999E-01  0.00000000000E+00 0. -1.
     999901    1    3    3    0    0  0.46023576302E-01 -0.60065607690E-01  0.92839679913E-01  0.88811331088E+00  0.88000000000E+00 0.  1.
        -11    1    4    4    0    0 -0.27451844881E-01  0.36503360572E-01 -0.32996743388E-01  0.56348427801E-01  0.51100000000E-03 0.  1.
         11    1    4    4    0    0 -0.16409813142E-01  0.47550694174E-01 -0.55656067506E-01  0.75021393316E-01  0.51100000000E-03 0. -1.
</event>
<event>
 8    1  0.1092667E+005  0.1043930E+01  0.7957747E-01            NaN
         13   -1    0    0    0    0  0.00000000000E+00  0.00000000000E+00  0.74505805969E-08  0.10566000000E+00  0.10566000000E+00 0. -1.
     999900   -1    0    0    0    0 -0.00000000000E+00 -0.00000000000E+00 -0.74505805969E-08  0.93827000000E+00  0.93827000000E+00 0.  1.
     999902    2    1    2    0    0 -0.86547874444E-02  0.82146190065E-02 -0.21175870468E-01  0.10196235646E+01  0.10193338073E+01 0.  0.
     999903    2    3    3    0    0  0.73852259250E-01  0.20260568447E-01 -0.10519000079E+00  0.13169851612E+00  0.20369488224E-01 0.  0.
         14    1    1    2    0    0  0.86547874444E-02 -0.82146190065E-02  0.21175870468E-01  0.24306435387E-01  0.00000000000E+00 0. -1.
     999901    1    3    3    0    0 -0.82507046694E-01 -0.12045949440E-01  0.84014130325E-01  0.88792504850E+00  0.88000000000E+00 0. -1.
        -11    1    4    4    0    0  0.43927507276E-01  0.22092174217E-01 -0.68290539295E-01  0.84151939581E-01  0.51100000000E-03 0.  1.
         11    1    4    4    0    0  0.29924751974E-01 -0.18316057707E-02 -0.36899461498E-01  0.47546576536E-01  0.51100000000E-03 0. -1.
</event>
<event>
 7    1  0.1161005E+005  0.1043930E+01  0.7957747E-01            NaN
         13   -1    0    0    0    0  0.00000000000E+00  0.00000000000E+00  0.74505805969E-08  0.10566000000E+00  0.10566000000E+00 0.  1.
     999900   -1    0    0    0    0 -0.00000000000E+00 -0.00000000000E+00 -0.74505805969E-08  0.93827000000E+00  0.93827000000E+00 0.  1.
     999902    2    1    2    0    0 -0.68972342249E-02 -0.19799981258E-01 -0.11042446709E-01  0.10202330228E+01  0.10199577806E+01 0.  0.
         14    1    1    2    0    0  0.68972342249E-02  0.19799981258E-01  0.11042446709E-01  0.23696977172E-01  0.00000000000E+00 0.  1.
     999901    1    3    3    0    0 -0.12053423458E+00 -0.50836361113E-01 -0.24253097620E-01  0.89000058992E+00  0.88000000000E+00 0.  1.
        -11    1    3    3    0    0  0.53030633036E-01  0.37017909531E-01  0.22806350427E-01  0.68578162757E-01  0.51100000000E-03 0.  1.
         11    1    3    3    0    0  0.60606367323E-01 -0.59815296759E-02 -0.95956995166E-02  0.61654270149E-01  0.51100000000E-03 0. -1.
</event>
<event>
 8    1  0.1477789E+005  0.1043930E+01  0.7957747E-01            NaN
         13   -1    0    0    0    0  0.00000000000E+00  0.00000000000E+00  0.74505805969E-08  0.10566000000E+00  0.10566000000E+00 0. -1.
     999900   -1    0    0    0    0 -0.00000000000E+00 -0.00000000000E+00 -0.74505805969E-08  0.93827000000E+00  0.93827000000E+00 0.  1.
     999902    2    1    2    0    0  0.18641612082E-01 -0.10293242770E-01  0.10790228549E-01  0.10200576398E+01  0.10197782597E+01 0.  0.
     999903    2    3    3    0    0 -0.23116788086E-02  0.95893527339E-01 -0.81877801014E-01  0.12859702138E+00  0.25145718631E-01 0.  0.
         14    1    1    2    0    0 -0.18641612082E-01  0.10293242770E-01 -0.10790228549E-01  0.23872360165E-01  0.00000000000E+00 0.  1.
     999901    1    3    3    0    0  0.20953290890E-01 -0.10618677011E+00  0.92668029563E-01  0.89146061845E+00  0.88000000000E+00 0. -1.
        -11    1    4    4    0    0  0.10978970609E-01  0.48989664531E-01 -0.45639183053E-01  0.67850727168E-01  0.51100000000E-03 0.  1.
         11    1    4    4    0    0 -0.13290649417E-01  0.46903862808E-01 -0.36238617961E-01  0.60746294216E-01  0.51100000000E-03 0. -1.
</event>
<event>
 8    1  0.1094631E+005  0.1043930E+01  0.7957747E-01            NaN
         13   -1    0    0    0    0  0.00000000000E+00  0.00000000000E+00  0.74505805969E-08  0.10566000000E+00  0.10566000000E+00 0. -1.
     999900   -1    0    0    0    0 -0.00000000000E+00 -0.00000000000E+00 -0.74505805969E-08  0.93827000000E+00  0.93827000000E+00 0. -1.
     999902    2    1    2    0    0  0.54664407259E-02  0.95084855613E-02 -0.21860262474E-01  0.10194726014E+01  0.10191791896E+01 0.  0.
     999903    2    3    3    0    0 -0.43276345756E-01 -0.11901941077E+00  0.60602633929E-02  0.12836383409E+00  0.20052053946E-01 0.  0.
         14    1    1    2    0    0 -0.54664407259E-02 -0.95084855613E-02  0.21860262474E-01  0.24457398621E-01  0.00000000000E+00 0. -1.
     999901    1    3    3    0    0  0.48742786482E-01  0.12852789634E+00 -0.27920525867E-01  0.89110876729E+00  0.88000000000E+00 0.  1.
        -11    1    4    4    0    0 -0.27898070954E-01 -0.51231366230E-01  0.76285708970E-02  0.58833761257E-01  0.51100000000E-03 0.  1.
         11    1    4    4    0    0 -0.15378274802E-01 -0.67788044545E-01 -0.15683075040E-02  0.69530072835E-01  0.51100000000E-03 0. -1.
</event>
<event>
 8    1  0.1092667E+005  0.1043930E+01  0.7957747E-01            NaN
         13   -1    0    0    0    0  0.00000000000E+00  0.00000000000E+00  0.74505805969E-08  0.10566000000E+00  0.10566000000E+00 0. -1.
     999900   -1    0    0    0    0 -0.00000000000E+00 -0.00000000000E+00 -0.74505805969E-08  0.93827000000E+00  0.93827000000E+00 0. -1.
     999902    2    1    2    0    0 -0.22689516297E-01 -0.36499492224E-02 -0.66059725963E-02  0.10200181796E+01  0.10197378642E+01 0.  0.
     999903    2    3    3    0    0 -0.63795785889E-01 -0.11247499653E+00  0.16368816377E-01  0.13206522072E+00  0.21278092790E-01 0.  0.
         14    1    1    2    0    0  0.22689516297E-01  0.36499492224E-02  0.66059725963E-02  0.23911820363E-01  0.00000000000E+00 0.  1.
     999901    1    3    3    0    0  0.41106269592E-01  0.10882504731E+00 -0.22974788974E-01  0.88795295892E+00  0.88000000000E+00 0. -1.
        -11    1    4    4    0    0 -0.45948845574E-01 -0.84461243001E-01  0.21295401953E-01  0.98482248371E-01  0.51100000000E-03 0.  1.
         11    1    4    4    0    0 -0.17846940315E-01 -0.28013753528E-01 -0.49265855760E-02  0.33582972349E-01  0.51100000000E-03 0. -1.
</event>
<event>
 8    1  0.1092667E+005  0.1043930E+01  0.7957747E-01            NaN
         13   -1    0    0    0    0  0.00000000000E+00  0.00000000000E+00  0.74505805969E-08  0.10566000000E+00  0.10566000000E+00 0.  1.
     999900   -1    0    0    0    0 -0.00000000000E+00 -0.00000000000E+00 -0.74505805969E-08  0.93827000000E+00  0.93827000000E+00 0.  1.
     999902    2    1    2    0    0  0.22544777028E-01 -0.33499238536E-02  0.78885038295E-02  0.10198111805E+01  0.10195259322E+01 0.  0.
     999903    2    3    3    0    0  0.69037168175E-01 -0.23833104541E-01  0.10838218092E+00  0.13263584143E+00  0.22614637507E-01 0.  0.
         14    1    1    2    0    0 -0.22544777028E-01  0.33499238536E-02 -0.78885038295E-02  0.24118819493E-01  0.00000000000E+00 0.  1.
     999901    1    3    3    0    0 -0.46492391147E-01  0.20483180687E-01 -0.10049367709E+00  0.88717533907E+00  0.88000000000E+00 0.  1.
        -11    1    4    4    0    0  0.29304009388E-01 -0.28752779227E-02  0.28466134779E-01  0.40958199907E-01  0.51100000000E-03 0. -1.
         11    1    4    4    0    0  0.39733158787E-01 -0.20957826618E-01  0.79916046142E-01  0.91677641526E-01  0.51100000000E-03 0.  1.
</event>
<event>
 7    1  0.1092667E+005  0.1043930E+01  0.7957747E-01            NaN
         13   -1    0    0    0    0  0.00000000000E+00  0.00000000000E+00  0.74505805969E-08  0.10566000000E+00  0.10566000000E+00 0.  1.
     999900   -1    0    0    0    0 -0.00000000000E+00 -0.00000000000E+00 -0.74505805969E-08  0.93827000000E+00  0.93827000000E+00 0.  1.
     999903    2    1    2    0    0 -0.32605351408E-01 -0.77934176433E-01  0.71159609804E-01  0.11217553238E+00  0.19565663824E-01 0.  0.
         14    1    1    2    0    0  0.16003523189E-01 -0.37256034748E-01  0.48839065544E-02  0.40840879310E-01  0.00000000000E+00 0. -1.
     999901    1    1    2    0    0  0.16601828219E-01  0.11519021118E+00 -0.76043516358E-01  0.89091358831E+00  0.88000000000E+00 0. -1.
        -11    1    3    3    0    0 -0.84817433729E-02 -0.12929595125E-01  0.47994086762E-02  0.16199069275E-01  0.51100000000E-03 0. -1.
         11    1    3    3    0    0 -0.24123608035E-01 -0.65004581308E-01  0.66360201128E-01  0.95976463106E-01  0.51100000000E-03 0.  1.
</event>
<event>
 8    1  0.1092667E+005  0.1043930E+01  0.7957747E-01            NaN
         13   -1    0    0    0    0  0.00000000000E+00  0.00000000000E+00  0.74505805969E-08  0.10566000000E+00  0.10566000000E+00 0.  1.
     999900   -1    0    0    0    0 -0.00000000000E+00 -0.00000000000E+00 -0.74505805969E-08  0.93827000000E+00  0.93827000000E+00 0.  1.
     999902    2    1    2    0    0 -0.52944227347E-02  0.11599820562E-01  0.19938770824E-01  0.10202626949E+01  0.10199881496E+01 0.  0.
     999903    2    3    3    0    0  0.52869691389E-01 -0.67132877670E-01  0.97788359695E-01  0.13141936762E+00  0.20160837346E-01 0.  0.
         14    1    1    2    0    0  0.52944227347E-02 -0.11599820562E-01 -0.19938770824E-01  0.23667305109E-01  0.00000000000E+00 0. -1.
     999901    1    3    3    0    0 -0.58164114124E-01  0.78732698232E-01 -0.77849588871E-01  0.88884332727E+00  0.88000000000E+00 0. -1.
        -11    1    4    4    0    0  0.13417812880E-01 -0.22039751421E-01  0.17268870345E-01  0.31052590056E-01  0.51100000000E-03 0.  1.
         11    1    4    4    0    0  0.39451878509E-01 -0.45093126249E-01  0.80519489350E-01  0.10036677757E+00  0.51100000000E-03 0. -1.
</event>
<event>
 8    1  0.1092667E+005  0.1043930E+01  0.7957747E-01            NaN
         13   -1    0    0    0    0  0.00000000000E+00  0.00000000000E+00  0.74505805969E-08  0.10566000000E+00  0.10566000000E+00 0. -1.
     999900   -1    0    0    0    0 -0.00000000000E+00 -0.00000000000E+00 -0.74505805969E-08  0.93827000000E+00  0.93827000000E+00 0.  1.
     999902    2    1    2    0    0  0.22732334801E-01 -0.64019533017E-02 -0.53348260888E-02  0.10197183412E+01  0.10194308662E+01 0.  0.
     999903    2    3    3    0    0 -0.11207342851E+00  0.39512643603E-01 -0.41917334392E-01  0.12751935896E+00  0.19555602864E-01 0.  0.
         14    1    1    2    0    0 -0.22732334801E-01  0.64019533017E-02  0.53348260888E-02  0.24211658782E-01  0.00000000000E+00 0.  1.
     999901    1    3    3    0    0  0.13480576331E+00 -0.45914596905E-01  0.36582508303E-01  0.89219898226E+00  0.88000000000E+00 0. -1.
        -11    1    4    4    0    0 -0.38428716972E-01  0.57343787602E-02 -0.19366997915E-01  0.43416484394E-01  0.51100000000E-03 0. -1.
         11    1    4    4    0    0 -0.73644711541E-01  0.33778264843E-01 -0.22550336477E-01  0.84102874564E-01  0.51100000000E-03 0.  1.
</event>
<event>
 8    1  0.1092667E+005  0.1043930E+01  0.7957747E-01            NaN
         13   -1    0    0    0    0  0.00000000000E+00  0.00000000000E+00  0.74505805969E-08  0.10566000000E+00  0.10566000000E+00 0. -1.
     999900   -1    0    0    0    0 -0.00000000000E+00 -0.00000000000E+00 -0.74505805969E-08  0.93827000000E+00  0.93827000000E+00 0.  1.
     999902    2    1    2    0    0  0.11807888018E-01  0.86355515019E-03 -0.20370795856E-01  0.10203685639E+01  0.10200964979E+01 0.  0.
     999903    2    3    3    0    0 -0.95372979281E-01 -0.92398144586E-02 -0.87733501542E-01  0.13125240136E+00  0.18672070605E-01 0.  0.
         14    1    1    2    0    0 -0.11807888018E-01 -0.86355515019E-03  0.20370795856E-01  0.23561436093E-01  0.00000000000E+00 0.  1.
     999901    1    3    3    0    0  0.10718086730E+00  0.10103369609E-01  0.67362705686E-01  0.88911616255E+00  0.88000000000E+00 0. -1.
        -11    1    4    4    0    0 -0.32515921537E-01 -0.92462183139E-02 -0.22203441172E-01  0.40447887799E-01  0.51100000000E-03 0.  1.
         11    1    4    4    0    0 -0.62857057745E-01  0.64038552034E-05 -0.65530060370E-01  0.90804513557E-01  0.51100000000E-03 0. -1.
</event>
<event>
 8    1  0.1092667E+005  0.1043930E+01  0.7957747E-01            NaN
         13   -1    0    0    0    0  0.00000000000E+00  0.00000000000E+00  0.74505805969E-08  0.10566000000E+00  0.10566000000E+00 0.  1.
     999900   -1    0    0    0    0 -0.00000000000E+00 -0.00000000000E+00 -0.74505805969E-08  0.93827000000E+00  0.93827000000E+00 0.  1.
     999902    2    1    2    0    0 -0.11759119195E-01 -0.16850835023E-01 -0.12455557963E-01  0.10199015076E+01  0.10196184172E+01 0.  0.
     999903    2    3    3    0    0  0.82796385813E-01  0.86146266615E-01  0.39661676709E-01  0.12734038773E+00  0.19133870265E-01 0.  0.
         14    1    1    2    0    0  0.11759119195E-01  0.16850835023E-01  0.12455557963E-01  0.24028492449E-01  0.00000000000E+00 0.  1.
     999901    1    3    3    0    0 -0.94555505008E-01 -0.10299710164E+00 -0.52117234672E-01  0.89256111982E+00  0.88000000000E+00 0.  1.
        -11    1    4    4    0    0  0.49064392193E-01  0.42094815531E-01  0.28927213620E-01  0.70826074892E-01  0.51100000000E-03 0. -1.
         11    1    4    4    0    0  0.33731993620E-01  0.44051451085E-01  0.10734463089E-01  0.56514312834E-01  0.51100000000E-03 0.  1.
</event>
<event>
 8    1  0.1092667E+005  0.1043930E+01  0.7957747E-01            NaN
         13   -1    0    0    0    0  0.00000000000E+00  0.00000000000E+00  0.74505805969E-08  0.10566000000E+00  0.10566000000E+00 0. -1.
     999900   -1    0    0    0    0 -0.00000000000E+00 -0.00000000000E+00 -0.74505805969E-08  0.93827000000E+00  0.93827000000E+00 0. -1.
     999902    2    1    2    0    0 -0.89205317269E-02  0.11721853092E-01  0.14505199965E-01  0.10232568640E+01  0.10230480102E+01 0.  0.
     999903    2    3    3    0    0 -0.17591391853E-02 -0.73031553456E-01  0.11043212395E+00  0.13396703486E+00  0.20376703769E-01 0.  0.
         14    1    1    2    0    0  0.89205317269E-02 -0.11721853092E-01 -0.14505199965E-01  0.20673136004E-01  0.00000000000E+00 0.  1.
     999901    1    3    3    0    0 -0.71613925416E-02  0.84753406549E-01 -0.95926923989E-01  0.88928982914E+00  0.88000000000E+00 0. -1.
        -11    1    4    4    0    0  0.48595784981E-02 -0.56618629413E-01  0.93819287509E-01  0.10968867093E+00  0.51100000000E-03 0.  1.
         11    1    4    4    0    0 -0.66187176835E-02 -0.16412924043E-01  0.16612836445E-01  0.24278363931E-01  0.51100000000E-03 0. -1.
</event>
<event>
 8    1  0.1092667E+005  0.1043930E+01  0.7957747E-01            NaN
         13   -1    0    0    0    0  0.00000000000E+00  0.00000000000E+00  0.74505805969E-08  0.10566000000E+00  0.10566000000E+00 0.  1.
     999900   -1    0    0    0    0 -0.00000000000E+00 -0.00000000000E+00 -0.74505805969E-08  0.93827000000E+00  0.93827000000E+00 0.  1.
     999902    2    1    2    0    0 -0.93685037917E-03 -0.15080489953E-03  0.23619630197E-01  0.10202913164E+01  0.10200174425E+01 0.  0.
     999903    2    3    3    0    0  0.76103207018E-02  0.10422837777E+00  0.78744144391E-01  0.13236858331E+00  0.19983239406E-01 0.  0.
         14    1    1    2    0    0  0.93685037917E-03  0.15080489953E-03 -0.23619630197E-01  0.23638683580E-01  0.00000000000E+00 0. -1.
     999901    1    3    3    0    0 -0.85471710810E-02 -0.10437918267E+00 -0.55124514193E-01  0.88792273311E+00  0.88000000000E+00 0.  1.
        -11    1    4    4    0    0 -0.56301033769E-02  0.27358355174E-01  0.15504919464E-01  0.31950607357E-01  0.51100000000E-03 0.  1.
         11    1    4    4    0    0  0.13240424079E-01  0.76870022599E-01  0.63239224926E-01  0.10041797595E+00  0.51100000000E-03 0. -1.
</event>
<event>
 8    1  0.1092667E+005  0.1043930E+01  0.7957747E-01            NaN
         13   -1    0    0    0    0  0.00000000000E+00  0.00000000000E+00  0.74505805969E-08  0.10566000000E+00  0.10566000000E+00 0. -1.
     999900   -1    0    0    0    0 -0.00000000000E+00 -0.00000000000E+00 -0.74505805969E-08  0.93827000000E+00  0.93827000000E+00 0.  1.
     999902    2    1    2    0    0 -0.23044700301E-01  0.16582498547E-02 -0.66081622976E-02  0.10198992736E+01  0.10196161299E+01 0.  0.
     999903    2    3    3    0    0 -0.71167056222E-02 -0.34477198157E-01 -0.12480866848E+00  0.13111874312E+00  0.19380308992E-01 0.  0.
         14    1    1    2    0    0  0.23044700301E-01 -0.16582498547E-02  0.66081622976E-02  0.24030726445E-01  0.00000000000E+00 0. -1.
     999901    1    3    3    0    0 -0.15927994679E-01  0.36135448012E-01  0.11820050619E+00  0.88878053044E+00  0.88000000000E+00 0. -1.
        -11    1    4    4    0    0 -0.68403140988E-02 -0.20324775059E-01 -0.10229547091E+00  0.10452038494E+00  0.51100000000E-03 0.  1.
         11    1    4    4    0    0 -0.27639152336E-03 -0.14152423098E-01 -0.22513197571E-01  0.26598358177E-01  0.51100000000E-03 0. -1.
</event>
<event>
 8    1  0.1092667E+005  0.1043930E+01  0.7957747E-01            NaN
         13   -1    0    0    0    0  0.00000000000E+00  0.00000000000E+00  0.74505805969E-08  0.10566000000E+00  0.10566000000E+00 0. -1.
     999900   -1    0    0    0    0 -0.00000000000E+00 -0.00000000000E+00 -0.74505805969E-08  0.93827000000E+00  0.93827000000E+00 0.  1.
     999902    2    1    2    0    0 -0.16950696433E-01 -0.71451723534E-02 -0.14854565596E-01  0.10202860216E+01  0.10200120235E+01 0.  0.
     999903    2    3    3    0    0  0.56757951968E-01 -0.88789052452E-01  0.72068736046E-01  0.12918874944E+00  0.19770415271E-01 0.  0.
         14    1    1    2    0    0  0.16950696433E-01  0.71451723534E-02  0.14854565596E-01  0.23643978442E-01  0.00000000000E+00 0. -1.
     999901    1    3    3    0    0 -0.73708648401E-01  0.81643880098E-01 -0.86923301642E-01  0.89109727212E+00  0.88000000000E+00 0.  1.
        -11    1    4    4    0    0 -0.14982699745E-02 -0.40362757323E-02  0.36182711843E-02  0.56470649073E-02  0.51100000000E-03 0. -1.
         11    1    4    4    0    0  0.58256221942E-01 -0.84752776720E-01  0.68450464862E-01  0.12354168453E+00  0.51100000000E-03 0.  1.
</event>
<event>
 8    1  0.1092667E+005  0.1043930E+01  0.7957747E-01            NaN
         13   -1    0    0    0    0  0.00000000000E+00  0.00000000000E+00  0.74505805969E-08  0.10566000000E+00  0.10566000000E+00 0. -1.
     999900   -1    0    0    0    0 -0.00000000000E+00 -0.00000000000E+00 -0.74505805969E-08  0.93827000000E+00  0.93827000000E+00 0. -1.
     999902    2    1    2    0    0  0.18349463012E-01 -0.83706099796E-03 -0.13750922642E-01  0.10209846010E+01  0.10207267333E+01 0.  0.
     999903    2    3    3    0    0  0.20016771463E-02  0.33942780238E-01  0.12337042060E+00  0.12953681772E+00  0.20085004945E-01 0.  0.
         14    1    1    2    0    0 -0.18349463012E-01  0.83706099796E-03  0.13750922642E-01  0.22945399048E-01  0.00000000000E+00 0.  1.
     999901    1    3    3    0    0  0.16347785866E-01 -0.34779841236E-01 -0.13712134324E+00  0.89144778323E+00  0.88000000000E+00 0. -1.
        -11    1    4    4    0    0  0.99070319627E-02  0.10169346725E-01  0.51479945034E-01  0.53404220402E-01  0.51100000000E-03 0. -1.
         11    1    4    4    0    0 -0.79053548163E-02  0.23773433513E-01  0.71890475568E-01  0.76132597316E-01  0.51100000000E-03 0.  1.
</event>
<event>
 8    1  0.1092667E+005  0.1043930E+01  0.7957747E-01            NaN
         13   -1    0    0    0    0  0.00000000000E+00  0.00000000000E+00  0.74505805969E-08  0.10566000000E+00  0.10566000000E+00 0.  1.
     999900   -1    0    0    0    0 -0.00000000000E+00 -0.00000000000E+00 -0.74505805969E-08  0.93827000000E+00  0.93827000000E+00 0. -1.
     999902    2    1    2    0    0  0.14930042576E-01 -0.16546626605E-01  0.69969601396E-02  0.10205707518E+01  0.10203033887E+01 0.  0.
     999903    2    3    3    0    0  0.10518696528E+00  0.32821551691E-01  0.70470500246E-01  0.13230704133E+00  0.19937649302E-01 0.  0.
         14    1    1    2    0    0 -0.14930042576E-01  0.16546626605E-01 -0.69969601396E-02  0.23359248158E-01  0.00000000000E+00 0. -1.
     999901    1    3    3    0    0 -0.90256922704E-01 -0.49368178296E-01 -0.63473540106E-01  0.88826371051E+00  0.88000000000E+00 0. -1.
        -11    1    4    4    0    0  0.21938842524E-01  0.14303810352E-01  0.22022390615E-01  0.34222194717E-01  0.51100000000E-03 0.  1.
         11    1    4    4    0    0  0.83248122756E-01  0.18517741339E-01  0.48448109631E-01  0.98084846610E-01  0.51100000000E-03 0. -1.
</event>
<event>
 7    1  0.1092667E+005  0.1043930E+01  0.7957747E-01            NaN
         13   -1    0    0    0    0  0.00000000000E+00  0.00000000000E+00  0.74505805969E-08  0.10566000000E+00  0.10566000000E+00 0.  1.
     999900   -1    0    0    0    0 -0.00000000000E+00 -0.00000000000E+00 -0.74505805969E-08  0.93827000000E+00  0.93827000000E+00 0. -1.
     999903    2    1    2    0    0 -0.69566194670E-01  0.49415604718E-01 -0.60073605098E-01  0.10625299551E+00  0.19987586026E-01 0.  0.
         14    1    1    2    0    0 -0.22778880522E-01 -0.30595953551E-01  0.35798935885E-01  0.52312078739E-01  0.00000000000E+00 0.  1.
     999901    1    1    2    0    0  0.92345075192E-01 -0.18819651166E-01  0.24274669213E-01  0.88536492575E+00  0.88000000000E+00 0.  1.
        -11    1    3    3    0    0 -0.54782762792E-01  0.34121122972E-01 -0.35187100500E-01  0.73510511456E-01  0.51100000000E-03 0.  1.
         11    1    3    3    0    0 -0.14783431878E-01  0.15294481746E-01 -0.24886504598E-01  0.32742484055E-01  0.51100000000E-03 0. -1.
</event>
<event>
 8    1  0.1092667E+005  0.1043930E+01  0.7957747E-01            NaN
         13   -1    0    0    0    0  0.00000000000E+00  0.00000000000E+00  0.74505805969E-08  0.10566000000E+00  0.10566000000E+00 0. -1.
     999900   -1    0    0    0    0 -0.00000000000E+00 -0.00000000000E+00 -0.74505805969E-08  0.93827000000E+00  0.93827000000E+00 0.  1.
     999902    2    1    2    0    0  0.10374786096E-01 -0.14922860342E-01  0.86149536207E-02  0.10238166867E+01  0.10236191003E+01 0.  0.
     999903    2    3    3    0    0  0.59845395117E-01 -0.77376347126E-01 -0.90555390577E-01  0.13466960303E+00  0.19158622266E-01 0.  0.
         14    1    1    2    0    0 -0.10374786096E-01  0.14922860342E-01 -0.86149536207E-02  0.20113313332E-01  0.00000000000E+00 0.  1.
     999901    1    3    3    0    0 -0.49470609021E-01  0.62453486785E-01  0.99170344197E-01  0.88914708364E+00  0.88000000000E+00 0. -1.
        -11    1    4    4    0    0  0.53449210892E-01 -0.62537814190E-01 -0.66995239652E-01  0.10609627517E+00  0.51100000000E-03 0. -1.
         11    1    4    4    0    0  0.63961842245E-02 -0.14838532936E-01 -0.23560150925E-01  0.28573327859E-01  0.51100000000E-03 0.  1.
</event>
<event>
 8    1  0.1092667E+005  0.1043930E+01  0.7957747E-01            NaN
         13   -1    0    0    0    0  0.00000000000E+00  0.00000000000E+00  0.74505805969E-08  0.10566000000E+00  0.10566000000E+00 0. -1.
     999900   -1    0    0    0    0 -0.00000000000E+00 -0.00000000000E+00 -0.74505805969E-08  0.93827000000E+00  0.93827000000E+00 0. -1.
     999902    2    1    2    0    0 -0.14181493099E-01  0.21085438990E-02 -0.10871871228E-01  0.10259367155E+01  0.10257789167E+01 0.  0.
     999903    2    3    3    0    0 -0.90632709565E-02  0.12399617120E+00 -0.52416255535E-01  0.13655000220E+00  0.21005854034E-01 0.  0.
         14    1    1    2    0    0  0.14181493099E-01 -0.21085438990E-02  0.10871871228E-01  0.17993284521E-01  0.00000000000E+00 0. -1.
     999901    1    3    3    0    0 -0.51182221422E-02 -0.12188762730E+00  0.41544384308E-01  0.88938671328E+00  0.88000000000E+00 0.  1.
        -11    1    4    4    0    0 -0.19130653610E-02  0.11036280792E+00 -0.49025141415E-01  0.12077803941E+00  0.51100000000E-03 0.  1.
         11    1    4    4    0    0 -0.71502055955E-02  0.13633363283E-01 -0.33911141199E-02  0.15771962796E-01  0.51100000000E-03 0. -1.
</event>
<event>
 8    1  0.1092667E+005  0.1043930E+01  0.7957747E-01            NaN
         13   -1    0    0    0    0  0.00000000000E+00  0.00000000000E+00  0.74505805969E-08  0.10566000000E+00  0.10566000000E+00 0.  1.
     999900   -1    0    0    0    0 -0.00000000000E+00 -0.00000000000E+00 -0.74505805969E-08  0.93827000000E+00  0.93827000000E+00 0.  1.
     999902    2    1    2    0    0  0.16309846622E-01  0.16026379803E-01 -0.10135744668E-02  0.10210415033E+01  0.10207849275E+01 0.  0.
     999903    2    3    3    0    0  0.12362456165E+00 -0.41326411859E-01  0.13702372362E-01  0.13254707461E+00  0.19750124543E-01 0.  0.
         14    1    1    2    0    0 -0.16309846622E-01 -0.16026379803E-01  0.10135744668E-02  0.22888496666E-01  0.00000000000E+00 0.  1.
     999901    1    3    3    0    0 -0.10731471503E+00  0.57352791663E-01 -0.14715946829E-01  0.88849442872E+00  0.88000000000E+00 0.  1.
        -11    1    4    4    0    0  0.95286043150E-01 -0.39934057252E-01  0.13276063768E-01  0.10416656824E+00  0.51100000000E-03 0. -1.
         11    1    4    4    0    0  0.28338518503E-01 -0.13923546069E-02  0.42630859346E-03  0.28380506379E-01  0.51100000000E-03 0.  1.
</event>
<event>
 8    1  0.1092667E+005  0.1043930E+01  0.7957747E-01            NaN
         13   -1    0    0    0    0  0.00000000000E+00  0.00000000000E+00  0.74505805969E-08  0.10566000000E+00  0.10566000000E+00 0. -1.
     999900   -1    0    0    0    0 -0.00000000000E+00 -0.00000000000E+00 -0.74505805969E-08  0.93827000000E+00  0.93827000000E+00 0.  1.
     999902    2    1    2    0    0 -0.92871288546E-02 -0.10277337883E-01 -0.61489847617E-02  0.10287746561E+01  0.10286630199E+01 0.  0.
     999903    2    3    3    0    0 -0.95936000091E-01 -0.57482205349E-01  0.80290830538E-01  0.13905100904E+00  0.19510140981E-01 0.  0.
         14    1    1    2    0    0  0.92871288546E-02  0.10277337883E-01  0.61489847617E-02  0.15155343940E-01  0.00000000000E+00 0. -1.
     999901    1    3    3    0    0  0.86648871237E-01  0.47204867465E-01 -0.86439815300E-01  0.88972364702E+00  0.88000000000E+00 0.  1.
        -11    1    4    4    0    0 -0.55517421915E-01 -0.22422748360E-01  0.45880651238E-01  0.75433805811E-01  0.51100000000E-03 0. -1.
         11    1    4    4    0    0 -0.40418578176E-01 -0.35059456988E-01  0.34410179300E-01  0.63617203228E-01  0.51100000000E-03 0.  1.
</event>
<event>
 8    1  0.1092667E+005  0.1043930E+01  0.7957747E-01            NaN
         13   -1    0    0    0    0  0.00000000000E+00  0.00000000000E+00  0.74505805969E-08  0.10566000000E+00  0.10566000000E+00 0.  1.
     999900   -1    0    0    0    0 -0.00000000000E+00 -0.00000000000E+00 -0.74505805969E-08  0.93827000000E+00  0.93827000000E+00 0. -1.
     999902    2    1    2    0    0 -0.78490076161E-02  0.15647181003E-01 -0.91585616775E-02  0.10241734708E+01  0.10239828992E+01 0.  0.
     999903    2    3    3    0    0 -0.49590333288E-01  0.15118323294E-01  0.12146151367E+00  0.13355333739E+00  0.19895471076E-01 0.  0.
         14    1    1    2    0    0  0.78490076161E-02 -0.15647181003E-01  0.91585616775E-02  0.19756529197E-01  0.00000000000E+00 0. -1.
     999901    1    3    3    0    0  0.41741325672E-01  0.52885770862E-03 -0.13062007535E+00  0.89062013341E+00  0.88000000000E+00 0. -1.
        -11    1    4    4    0    0  0.16582536091E-02  0.16189529772E-02  0.34538116988E-02  0.41905548588E-02  0.51100000000E-03 0.  1.
         11    1    4    4    0    0 -0.51248586897E-01  0.13499370317E-01  0.11800770197E+00  0.12936278253E+00  0.51100000000E-03 0. -1.
</event>
<event>
 8    1  0.1092667E+005  0.1043930E+01  0.7957747E-01            NaN
         13   -1    0    0    0    0  0.00000000000E+00  0.00000000000E+00  0.74505805969E-08  0.10566000000E+00  0.10566000000E+00 0. -1.
     999900   -1    0    0    0    0 -0.00000000000E+00 -0.00000000000E+00 -0.74505805969E-08  0.93827000000E+00  0.93827000000E+00 0.  1.
     999902    2    1    2    0    0  0.89563152734E-03 -0.15042030935E-01 -0.17745077282E-01  0.10206501242E+01  0.10203845958E+01 0.  0.
     999903    2    3    3    0    0  0.10914315868E+00 -0.42959321056E-01 -0.58319951678E-01  0.13265056187E+00  0.20909864914E-01 0.  0.
         14    1    1    2    0    0 -0.89563152734E-03  0.15042030935E-01  0.17745077282E-01  0.23279875821E-01  0.00000000000E+00 0. -1.
     999901    1    3    3    0    0 -0.10824752715E+00  0.27917290121E-01  0.40574874396E-01  0.88799956230E+00  0.88000000000E+00 0. -1.
        -11    1    4    4    0    0  0.90015509016E-01 -0.27177621490E-01 -0.42171714888E-01  0.10305401317E+00  0.51100000000E-03 0.  1.
         11    1    4    4    0    0  0.19127649659E-01 -0.15781699566E-01 -0.16148236789E-01  0.29596548702E-01  0.51100000000E-03 0. -1.
</event>
<event>
 8    1  0.1092667E+005  0.1043930E+01  0.7957747E-01            NaN
         13   -1    0    0    0    0  0.00000000000E+00  0.00000000000E+00  0.74505805969E-08  0.10566000000E+00  0.10566000000E+00 0.  1.
     999900   -1    0    0    0    0 -0.00000000000E+00 -0.00000000000E+00 -0.74505805969E-08  0.93827000000E+00  0.93827000000E+00 0.  1.
     999902    2    1    2    0    0 -0.22745928332E-01 -0.49734149736E-02 -0.87859756765E-03  0.10206301278E+01  0.10203641378E+01 0.  0.
     999903    2    3    3    0    0  0.99417215648E-01 -0.71049805950E-01 -0.36527354121E-01  0.12902440940E+00  0.19524162693E-01 0.  0.
         14    1    1    2    0    0  0.22745928332E-01  0.49734149736E-02  0.87859756765E-03  0.23299872228E-01  0.00000000000E+00 0.  1.
     999901    1    3    3    0    0 -0.12216314398E+00  0.66076390976E-01  0.35648756553E-01  0.89160571837E+00  0.88000000000E+00 0. -1.
        -11    1    4    4    0    0  0.87340909349E-01 -0.63205393851E-01 -0.38499300055E-01  0.11448062493E+00  0.51100000000E-03 0.  1.
         11    1    4    4    0    0  0.12076306300E-01 -0.78444120992E-02  0.19719459346E-02  0.14543784473E-01  0.51100000000E-03 0. -1.
</event>
<event>
 7    1  0.1092667E+005  0.1043930E+01  0.7957747E-01            NaN
         13   -1    0    0    0    0  0.00000000000E+00  0.00000000000E+00  0.74505805969E-08  0.10566000000E+00  0.10566000000E+00 0. -1.
     999900   -1    0    0    0    0 -0.00000000000E+00 -0.00000000000E+00 -0.74505805969E-08  0.93827000000E+00  0.93827000000E+00 0.  1.
     999903    2    1    2    0    0 -0.19690550622E-01 -0.56962206608E-03  0.27568456080E-01  0.44783110402E-01  0.29282502515E-01 0.  0.
         14    1    1    2    0    0 -0.64607688938E-01 -0.40878837877E-01  0.76372143875E-01  0.10806450489E+00  0.00000000000E+00 0. -1.
     999901    1    1    2    0    0  0.84298239560E-01  0.41448459943E-01 -0.10394059996E+00  0.89108238471E+00  0.88000000000E+00 0.  1.
        -11    1    3    3    0    0 -0.96422404526E-02  0.11143450883E-01  0.25150300374E-01  0.29153868156E-01  0.51100000000E-03 0.  1.
         11    1    3    3    0    0 -0.10048310170E-01 -0.11713072950E-01  0.24181557065E-02  0.15629242247E-01  0.51100000000E-03 0. -1.
</event>
<event>
 8    1  0.1092667E+005  0.1043930E+01  0.7957747E-01            NaN
         13   -1    0    0    0    0  0.00000000000E+00  0.00000000000E+00  0.74505805969E-08  0.10566000000E+00  0.10566000000E+00 0. -1.
     999900   -1    0    0    0    0 -0.00000000000E+00 -0.00000000000E+00 -0.74505805969E-08  0.93827000000E+00  0.93827000000E+00 0. -1.
     999902    2    1    2    0    0 -0.50959685013E-02  0.24457827834E-02  0.23934204494E-01  0.10193373813E+01  0.10190406764E+01 0.  0.
     999903    2    3    3    0    0 -0.10978867483E-01  0.12486353502E+00 -0.25984706348E-01  0.12944266159E+00  0.19203118660E-01 0.  0.
         14    1    1    2    0    0  0.50959685013E-02 -0.24457827834E-02 -0.23934204494E-01  0.24592618672E-01  0.00000000000E+00 0.  1.
     999901    1    3    3    0    0  0.58828989820E-02 -0.12241775223E+00  0.49918910843E-01  0.88989471974E+00  0.88000000000E+00 0.  1.
        -11    1    4    4    0    0 -0.77844428990E-02  0.63584115596E-01 -0.37382757736E-02  0.64169877155E-01  0.51100000000E-03 0.  1.
         11    1    4    4    0    0 -0.31944245843E-02  0.61279419423E-01 -0.22246430575E-01  0.65272784432E-01  0.51100000000E-03 0. -1.
</event>
<event>
 8    1  0.1092667E+005  0.1043930E+01  0.7957747E-01            NaN
         13   -1    0    0    0    0  0.00000000000E+00  0.00000000000E+00  0.74505805969E-08  0.10566000000E+00  0.10566000000E+00 0. -1.
     999900   -1    0    0    0    0 -0.00000000000E+00 -0.00000000000E+00 -0.74505805969E-08  0.93827000000E+00  0.93827000000E+00 0.  1.
     999902    2    1    2    0    0 -0.10416643750E-01 -0.96817511239E-02  0.19227713405E-01  0.10200145712E+01  0.10197341701E+01 0.  0.
     999903    2    3    3    0    0  0.88478546980E-01 -0.88770251320E-01  0.34452668287E-01  0.13081996434E+00  0.14773825632E-01 0.  0.
         14    1    1    2    0    0  0.10416643750E-01  0.96817511239E-02 -0.19227713405E-01  0.23915428799E-01  0.00000000000E+00 0.  1.
     999901    1    3    3    0    0 -0.98895190730E-01  0.79088500196E-01 -0.15224954881E-01  0.88919460686E+00  0.88000000000E+00 0.  1.
        -11    1    4    4    0    0  0.14679911450E-01 -0.23315592844E-01  0.75667933747E-02  0.28576811453E-01  0.51100000000E-03 0.  1.
         11    1    4    4    0    0  0.73798635530E-01 -0.65454658476E-01  0.26885874912E-01  0.10224315289E+00  0.51100000000E-03 0. -1.
</event>
<event>
 8    1  0.1092667E+005  0.1043930E+01  0.7957747E-01            NaN
         13   -1    0    0    0    0  0.00000000000E+00  0.00000000000E+00  0.74505805969E-08  0.10566000000E+00  0.10566000000E+00 0. -1.
     999900   -1    0    0    0    0 -0.00000000000E+00 -0.00000000000E+00 -0.74505805969E-08  0.93827000000E+00  0.93827000000E+00 0.  1.
     999902    2    1    2    0    0 -0.14446130960E-01  0.11622814445E-01 -0.14867496179E-01  0.10201639958E+01  0.10198871287E+01 0.  0.
     999903    2    3    3    0    0 -0.12221376716E+00 -0.10622694055E-01 -0.46748273160E-01  0.13273788052E+00  0.19618801420E-01 0.  0.
         14    1    1    2    0    0  0.14446130960E-01 -0.11622814445E-01  0.14867496179E-01  0.23766004249E-01  0.00000000000E+00 0. -1.
     999901    1    3    3    0    0  0.10776763620E+00  0.22245508501E-01  0.31880776981E-01  0.88742611523E+00  0.88000000000E+00 0. -1.
        -11    1    4    4    0    0 -0.45608877241E-01  0.33323492715E-04 -0.26643666300E-01  0.52823449987E-01  0.51100000000E-03 0.  1.
         11    1    4    4    0    0 -0.76604889915E-01 -0.10656017548E-01 -0.20104606861E-01  0.79914430529E-01  0.51100000000E-03 0. -1.
</event>
<event>
 8    1  0.1092667E+005  0.1043930E+01  0.7957747E-01            NaN
         13   -1    0    0    0    0  0.00000000000E+00  0.00000000000E+00  0.74505805969E-08  0.10566000000E+00  0.10566000000E+00 0. -1.
     999900   -1    0    0    0    0 -0.00000000000E+00 -0.00000000000E+00 -0.74505805969E-08  0.93827000000E+00  0.93827000000E+00 0.  1.
     999902    2    1    2    0    0  0.12885146024E-01 -0.91819035691E-02 -0.18367689221E-01  0.10196873444E+01  0.10193991240E+01 0.  0.
     999903    2    3    3    0    0  0.34475336518E-01 -0.12363662526E+00  0.18685215006E-01  0.13123985733E+00  0.20004973377E-01 0.  0.
         14    1    1    2    0    0 -0.12885146024E-01  0.91819035691E-02  0.18367689221E-01  0.24242655559E-01  0.00000000000E+00 0. -1.
     999901    1    3    3    0    0 -0.21590190494E-01  0.11445472169E+00 -0.37052904228E-01  0.88844748711E+00  0.88000000000E+00 0. -1.
        -11    1    4    4    0    0  0.30613790684E-01 -0.78610330516E-01  0.16714362955E-01  0.86002437721E-01  0.51100000000E-03 0. -1.
         11    1    4    4    0    0  0.38615458335E-02 -0.45026294739E-01  0.19708520516E-02  0.45237419610E-01  0.51100000000E-03 0.  1.
</event>
<event>
 8    1  0.1092667E+005  0.1043930E+01  0.7957747E-01            NaN
         13   -1    0    0    0    0  0.00000000000E+00  0.00000000000E+00  0.74505805969E-08  0.10566000000E+00  0.10566000000E+00 0.  1.
     999900   -1    0    0    0    0 -0.00000000000E+00 -0.00000000000E+00 -0.74505805969E-08  0.93827000000E+00  0.93827000000E+00 0.  1.
     999902    2    1    2    0    0 -0.61463721342E-02 -0.17957728750E-01 -0.25407681107E-02  0.10247802372E+01  0.10246012986E+01 0.  0.
     999903    2    3    3    0    0 -0.11205927401E+00 -0.57196301669E-01 -0.45755254838E-01  0.13650961389E+00  0.26695196635E-01 0.  0.
         14    1    1    2    0    0  0.61463721342E-02  0.17957728750E-01  0.25407681107E-02  0.19149762789E-01  0.00000000000E+00 0.  1.
     999901    1    3    3    0    0  0.10591290188E+00  0.39238572919E-01  0.43214486727E-01  0.88827062332E+00  0.88000000000E+00 0. -1.
        -11    1    4    4    0    0 -0.35498149043E-01 -0.30008158018E-01 -0.24415232498E-01  0.52506883664E-01  0.51100000000E-03 0.  1.
         11    1    4    4    0    0 -0.76561124967E-01 -0.27188143651E-01 -0.21340022340E-01  0.84002730228E-01  0.51100000000E-03 0. -1.
</event>
<event>
 8    1  0.1092667E+005  0.1043930E+01  0.7957747E-01            NaN
         13   -1    0    0    0    0  0.00000000000E+00  0.00000000000E+00  0.74505805969E-08  0.10566000000E+00  0.10566000000E+00 0. -1.
     999900   -1    0    0    0    0 -0.00000000000E+00 -0.00000000000E+00 -0.74505805969E-08  0.93827000000E+00  0.93827000000E+00 0. -1.
     999902    2    1    2    0    0 -0.76302306144E-02 -0.21233176279E-01  0.85866806813E-02  0.10197887639E+01  0.10195029788E+01 0.  0.
     999903    2    3    3    0    0  0.18993844219E-01  0.99635440246E-01  0.76507637746E-01  0.12853609480E+00  0.19496716665E-01 0.  0.
         14    1    1    2    0    0  0.76302306144E-02  0.21233176279E-01 -0.85866806813E-02  0.24141236075E-01  0.00000000000E+00 0.  1.
     999901    1    3    3    0    0 -0.26624074833E-01 -0.12086861652E+00 -0.67920957065E-01  0.89125266913E+00  0.88000000000E+00 0.  1.
        -11    1    4    4    0    0  0.75754121088E-02  0.39399887364E-01  0.18691856577E-01  0.44264936646E-01  0.51100000000E-03 0. -1.
         11    1    4    4    0    0  0.11418432110E-01  0.60235552881E-01  0.57815781169E-01  0.84271158150E-01  0.51100000000E-03 0.  1.
</event>
<event>
 8    1  0.1092667E+005  0.1043930E+01  0.7957747E-01            NaN
         13   -1    0    0    0    0  0.00000000000E+00  0.00000000000E+00  0.74505805969E-08  0.10566000000E+00  0.10566000000E+00 0. -1.
     999900   -1    0    0    0    0 -0.00000000000E+00 -0.00000000000E+00 -0.74505805969E-08  0.93827000000E+00  0.93827000000E+00 0. -1.
     999902    2    1    2    0    0 -0.12656555482E-01 -0.17449083556E-01 -0.70840890794E-02  0.10212398428E+01  0.10209877440E+01 0.  0.
     999903    2    3    3    0    0  0.98713648857E-01 -0.36874870501E-01 -0.75755556160E-01  0.13135420188E+00  0.20270212534E-01 0.  0.
         14    1    1    2    0    0  0.12656555482E-01  0.17449083556E-01  0.70840890794E-02  0.22690157155E-01  0.00000000000E+00 0.  1.
     999901    1    3    3    0    0 -0.11137020434E+00  0.19425786944E-01  0.68671467080E-01  0.88988564097E+00  0.88000000000E+00 0. -1.
        -11    1    4    4    0    0  0.33751147082E-01 -0.11732862595E-01 -0.37826798246E-01  0.52037753416E-01  0.51100000000E-03 0. -1.
         11    1    4    4    0    0  0.64962501775E-01 -0.25142007905E-01 -0.37928757914E-01  0.79316448460E-01  0.51100000000E-03 0.  1.
</event>
<event>
 8    1  0.1092667E+005  0.1043930E+01  0.7957747E-01            NaN
         13   -1    0    0    0    0  0.00000000000E+00  0.00000000000E+00  0.74505805969E-08  0.10566000000E+00  0.10566000000E+00 0. -1.
     999900   -1    0    0    0    0 -0.00000000000E+00 -0.00000000000E+00 -0.74505805969E-08  0.93827000000E+00  0.93827000000E+00 0.  1.
     999902    2    1    2    0    0  0.11006005094E-01 -0.14941669005E-01 -0.15492151305E-01  0.10197557912E+01  0.10194692154E+01 0.  0.
     999903    2    3    3    0    0  0.12482885910E+00 -0.36908380124E-01  0.69092493620E-02  0.13187066276E+00  0.19941448865E-01 0.  0.
         14    1    1    2    0    0 -0.11006005094E-01  0.14941669005E-01  0.15492151305E-01  0.24174208836E-01  0.00000000000E+00 0. -1.
     999901    1    3    3    0    0 -0.11382285400E+00  0.21966711120E-01 -0.22401400667E-01  0.88788512840E+00  0.88000000000E+00 0. -1.
        -11    1    4    4    0    0  0.11275009718E+00 -0.34464823518E-01  0.35139537851E-03  0.11790162456E+00  0.51100000000E-03 0.  1.
         11    1    4    4    0    0  0.12078761922E-01 -0.24435566065E-02  0.65578539835E-02  0.13969038203E-01  0.51100000000E-03 0. -1.
</event>
<event>
 8    1  0.1092667E+005  0.1043930E+01  0.7957747E-01            NaN
         13   -1    0    0    0    0  0.00000000000E+00  0.00000000000E+00  0.74505805969E-08  0.10566000000E+00  0.10566000000E+00 0.  1.
     999900   -1    0    0    0    0 -0.00000000000E+00 -0.00000000000E+00 -0.74505805969E-08  0.93827000000E+00  0.93827000000E+00 0. -1.
     999902    2    1    2    0    0 -0.78374414501E-02 -0.17356612992E-01  0.13642440297E-01  0.10205036541E+01  0.10202347350E+01 0.  0.
     999903    2    3    3    0    0  0.25435387584E-01 -0.11960302402E+00 -0.45747745036E-01  0.13197194180E+00  0.19284578077E-01 0.  0.
         14    1    1    2    0    0  0.78374414501E-02  0.17356612992E-01 -0.13642440297E-01  0.23426345859E-01  0.00000000000E+00 0.  1.
     999901    1    3    3    0    0 -0.33272829035E-01  0.10224641102E+00  0.59390185332E-01  0.88853171234E+00  0.88000000000E+00 0. -1.
        -11    1    4    4    0    0  0.94762011220E-02 -0.14404328207E-01 -0.85635157654E-02  0.19258192596E-01  0.51100000000E-03 0.  1.
         11    1    4    4    0    0  0.15959186462E-01 -0.10519869581E+00 -0.37184229270E-01  0.11271374921E+00  0.51100000000E-03 0. -1.
</event>
<event>
 8    1  0.1092667E+005  0.1043930E+01  0.7957747E-01            NaN
         13   -1    0    0    0    0  0.00000000000E+00  0.00000000000E+00  0.74505805969E-08  0.10566000000E+00  0.10566000000E+00 0. -1.
     999900   -1    0    0    0    0 -0.00000000000E+00 -0.00000000000E+00 -0.74505805969E-08  0.93827000000E+00  0.93827000000E+00 0.  1.
     999902    2    1    2    0    0  0.16808413566E-01  0.66009566223E-02 -0.65094702595E-03  0.10258601597E+01  0.10257010033E+01 0.  0.
     999903    2    3    3    0    0 -0.54524610518E-01  0.10791527017E+00 -0.57528401562E-01  0.13536140326E+00  0.19863378831E-01 0.  0.
         14    1    1    2    0    0 -0.16808413566E-01 -0.66009566223E-02  0.65094702595E-03  0.18069840259E-01  0.00000000000E+00 0.  1.
     999901    1    3    3    0    0  0.71333024085E-01 -0.10131431355E+00  0.56877454536E-01  0.89049875648E+00  0.88000000000E+00 0. -1.
        -11    1    4    4    0    0 -0.29601434631E-01  0.49454454182E-01 -0.37344689390E-01  0.68679508715E-01  0.51100000000E-03 0. -1.
         11    1    4    4    0    0 -0.24923175887E-01  0.58460815990E-01 -0.20183712172E-01  0.66681894548E-01  0.51100000000E-03 0.  1.
</event>
<event>
 8    1  0.1092667E+005  0.1043930E+01  0.7957747E-01            NaN
         13   -1    0    0    0    0  0.00000000000E+00  0.00000000000E+00  0.74505805969E-08  0.10566000000E+00  0.10566000000E+00 0. -1.
     999900   -1    0    0    0    0 -0.00000000000E+00 -0.00000000000E+00 -0.74505805969E-08  0.93827000000E+00  0.93827000000E+00 0.  1.
     999902    2    1    2    0    0 -0.66602177380E-02  0.23389504307E-01 -0.18596160545E-02  0.10195397236E+01  0.10192479396E+01 0.  0.
     999903    2    3    3    0    0  0.71886802089E-01  0.35204240181E-01 -0.10104577684E+00  0.13041255787E+00  0.19751845258E-01 0.  0.
         14    1    1    2    0    0  0.66602177380E-02 -0.23389504307E-01  0.18596160545E-02  0.24390276421E-01  0.00000000000E+00 0. -1.
     999901    1    3    3    0    0 -0.78547019827E-01 -0.11814735874E-01  0.99186160790E-01  0.88912716571E+00  0.88000000000E+00 0. -1.
        -11    1    4    4    0    0  0.22582768924E-01  0.81178441745E-02 -0.45006508528E-01  0.51007134572E-01  0.51100000000E-03 0. -1.
         11    1    4    4    0    0  0.49304033165E-01  0.27086396007E-01 -0.56039268316E-01  0.79405423299E-01  0.51100000000E-03 0.  1.
</event>
<event>
 8    1  0.1092667E+005  0.1043930E+01  0.7957747E-01            NaN
         13   -1    0    0    0    0  0.00000000000E+00  0.00000000000E+00  0.74505805969E-08  0.10566000000E+00  0.10566000000E+00 0. -1.
     999900   -1    0    0    0    0 -0.00000000000E+00 -0.00000000000E+00 -0.74505805969E-08  0.93827000000E+00  0.93827000000E+00 0. -1.
     999902    2    1    2    0    0  0.14309950013E-01 -0.15828067813E-01 -0.46996763919E-02  0.10220807584E+01  0.10218471937E+01 0.  0.
     999903    2    3    3    0    0  0.64229388509E-01  0.76888816788E-01 -0.84210883406E-01  0.13224346818E+00  0.18962001414E-01 0.  0.
         14    1    1    2    0    0 -0.14309950013E-01  0.15828067813E-01  0.46996763919E-02  0.21849241595E-01  0.00000000000E+00 0. -1.
     999901    1    3    3    0    0 -0.49919438495E-01 -0.92716884602E-01  0.79511207014E-01  0.88983729022E+00  0.88000000000E+00 0.  1.
        -11    1    4    4    0    0  0.32201904461E-01  0.50649905519E-01 -0.43091893386E-01  0.73888754060E-01  0.51100000000E-03 0. -1.
         11    1    4    4    0    0  0.32027484048E-01  0.26238911269E-01 -0.41118990020E-01  0.58354714122E-01  0.51100000000E-03 0.  1.
</event>
<event>
 8    1  0.1092667E+005  0.1043930E+01  0.7957747E-01            NaN
         13   -1    0    0    0    0  0.00000000000E+00  0.00000000000E+00  0.74505805969E-08  0.10566000000E+00  0.10566000000E+00 0. -1.
     999900   -1    0    0    0    0 -0.00000000000E+00 -0.00000000000E+00 -0.74505805969E-08  0.93827000000E+00  0.93827000000E+00 0. -1.
     999902    2    1    2    0    0  0.43014183117E-02  0.22751872906E-01  0.50257552886E-02  0.10202359472E+01  0.10199607737E+01 0.  0.
     999903    2    3    3    0    0 -0.11610497396E+00  0.19255218488E-01  0.53147288064E-01  0.13072731444E+00  0.20343748353E-01 0.  0.
         14    1    1    2    0    0 -0.43014183117E-02 -0.22751872906E-01 -0.50257552886E-02  0.23694052766E-01  0.00000000000E+00 0. -1.
     999901    1    3    3    0    0  0.12040639227E+00  0.34966544185E-02 -0.48121532776E-01  0.88950863279E+00  0.88000000000E+00 0.  1.
        -11    1    4    4    0    0 -0.63836398108E-01  0.18223197697E-01  0.22351088761E-01  0.70050003194E-01  0.51100000000E-03 0. -1.
         11    1    4    4    0    0 -0.52268575848E-01  0.10320207906E-02  0.30796199303E-01  0.60677311250E-01  0.51100000000E-03 0.  1.
</event>
<event>
 8    1  0.1092667E+005  0.1043930E+01  0.7957747E-01            NaN
         13   -1    0    0    0    0  0.00000000000E+00  0.00000000000E+00  0.74505805969E-08  0.10566000000E+00  0.10566000000E+00 0.  1.
     999900   -1    0    0    0    0 -0.00000000000E+00 -0.00000000000E+00 -0.74505805969E-08  0.93827000000E+00  0.93827000000E+00 0. -1.
     999902    2    1    2    0    0  0.19754395213E-01  0.15712752644E-02 -0.11662809695E-01  0.10209359537E+01  0.10206769789E+01 0.  0.
     999903    2    3    3    0    0 -0.10993632597E+00 -0.53053829884E-01  0.35169026731E-01  0.12852528242E+00  0.19523912154E-01 0.  0.
         14    1    1    2    0    0 -0.19754395213E-01 -0.15712752644E-02  0.11662809695E-01  0.22994046320E-01  0.00000000000E+00 0. -1.
     999901    1    3    3    0    0  0.12969072119E+00  0.54625105148E-01 -0.46831836426E-01  0.89241067126E+00  0.88000000000E+00 0. -1.
        -11    1    4    4    0    0 -0.80252579543E-01 -0.32079985505E-01  0.17813662329E-01  0.88245054705E-01  0.51100000000E-03 0.  1.
         11    1    4    4    0    0 -0.29683746431E-01 -0.20973844379E-01  0.17355364402E-01  0.40280227715E-01  0.51100000000E-03 0. -1.
</event>
<event>
 8    1  0.1092667E+005  0.1043930E+01  0.7957747E-01            NaN
         13   -1    0    0    0    0  0.00000000000E+00  0.00000000000E+00  0.74505805969E-08  0.10566000000E+00  0.10566000000E+00 0. -1.
     999900   -1    0    0    0    0 -0.00000000000E+00 -0.00000000000E+00 -0.74505805969E-08  0.93827000000E+00  0.93827000000E+00 0. -1.
     999902    2    1    2    0    0  0.20254640278E-01 -0.10712637066E-01 -0.54373403075E-02  0.10203805687E+01  0.10201087830E+01 0.  0.
     999903    2    3    3    0    0  0.10932782410E+00  0.40174419811E-01 -0.60294454893E-01  0.13272476396E+00  0.20344152687E-01 0.  0.
         14    1    1    2    0    0 -0.20254640278E-01  0.10712637066E-01  0.54373403075E-02  0.23549431316E-01  0.00000000000E+00 0. -1.
     999901    1    3    3    0    0 -0.89073183823E-01 -0.50887056877E-01  0.54857114586E-01  0.88765580472E+00  0.88000000000E+00 0.  1.
        -11    1    4    4    0    0  0.15401589872E-01  0.65636906087E-02 -0.12392115257E-02  0.16795468770E-01  0.51100000000E-03 0. -1.
         11    1    4    4    0    0  0.93926234228E-01  0.33610729202E-01 -0.59055243368E-01  0.11592929519E+00  0.51100000000E-03 0.  1.
</event>
<event>
 8    1  0.1092667E+005  0.1043930E+01  0.7957747E-01            NaN
         13   -1    0    0    0    0  0.00000000000E+00  0.00000000000E+00  0.74505805969E-08  0.10566000000E+00  0.10566000000E+00 0.  1.
     999900   -1    0    0    0    0 -0.00000000000E+00 -0.00000000000E+00 -0.74505805969E-08  0.93827000000E+00  0.93827000000E+00 0. -1.
     999902    2    1    2    0    0 -0.68596145110E-02  0.65916064744E-02 -0.21377390688E-01  0.10205313586E+01  0.10202630825E+01 0.  0.
     999903    2    3    3    0    0  0.70608389994E-01  0.43278399497E-01  0.96523268500E-01  0.12854045172E+00  0.18637107230E-01 0.  0.
         14    1    1    2    0    0  0.68596145110E-02 -0.65916064744E-02  0.21377390688E-01  0.23398641408E-01  0.00000000000E+00 0.  1.
     999901    1    3    3    0    0 -0.77468004505E-01 -0.36686793023E-01 -0.11790065919E+00  0.89199090687E+00  0.88000000000E+00 0.  1.
        -11    1    4    4    0    0  0.57012205906E-01  0.37203639347E-01  0.67254003547E-01  0.95696732008E-01  0.51100000000E-03 0.  1.
         11    1    4    4    0    0  0.13596184088E-01  0.60747601504E-02  0.29269264953E-01  0.32843719712E-01  0.51100000000E-03 0. -1.
</event>
<event>
 8    1  0.1092667E+005  0.1043930E+01  0.7957747E-01            NaN
         13   -1    0    0    0    0  0.00000000000E+00  0.00000000000E+00  0.74505805969E-08  0.10566000000E+00  0.10566000000E+00 0. -1.
     999900   -1    0    0    0    0 -0.00000000000E+00 -0.00000000000E+00 -0.74505805969E-08  0.93827000000E+00  0.93827000000E+00 0. -1.
     999902    2    1    2    0    0  0.21103313138E-01  0.58699710873E-02 -0.11398693892E-01  0.10192371547E+01  0.10189379966E+01 0.  0.
     999903    2    3    3    0    0 -0.47769186690E-01  0.21639293590E-01 -0.11731736985E+00  0.13007414453E+00  0.20143574225E-01 0.  0.
         14    1    1    2    0    0 -0.21103313138E-01 -0.58699710873E-02  0.11398693892E-01  0.24692845288E-01  0.00000000000E+00 0. -1.
     999901    1    3    3    0    0  0.68872499828E-01 -0.15769322502E-01  0.10591867596E+00  0.88916301018E+00  0.88000000000E+00 0.  1.
        -11    1    4    4    0    0 -0.19984371087E-01  0.19360962356E-01 -0.66956619790E-01  0.72509806273E-01  0.51100000000E-03 0. -1.
         11    1    4    4    0    0 -0.27784815603E-01  0.22783312339E-02 -0.50360750058E-01  0.57564338254E-01  0.51100000000E-03 0.  1.
</event>
<event>
 8    1  0.1092667E+005  0.1043930E+01  0.7957747E-01            NaN
         13   -1    0    0    0    0  0.00000000000E+00  0.00000000000E+00  0.74505805969E-08  0.10566000000E+00  0.10566000000E+00 0. -1.
     999900   -1    0    0    0    0 -0.00000000000E+00 -0.00000000000E+00 -0.74505805969E-08  0.93827000000E+00  0.93827000000E+00 0. -1.
     999902    2    1    2    0    0 -0.59562324600E-03  0.10798538524E-01  0.21393336663E-01  0.10199583906E+01  0.10196766549E+01 0.  0.
     999903    2    3    3    0    0 -0.14173229991E-01 -0.12610934303E+00  0.19898584435E-01  0.12926744890E+00  0.14480083993E-01 0.  0.
         14    1    1    2    0    0  0.59562324600E-03 -0.10798538524E-01 -0.21393336663E-01  0.23971609351E-01  0.00000000000E+00 0.  1.
     999901    1    3    3    0    0  0.13577606745E-01  0.13690788156E+00  0.14947522279E-02  0.89069094175E+00  0.88000000000E+00 0. -1.
        -11    1    4    4    0    0 -0.48454985263E-02 -0.76364155805E-01  0.18047211835E-01  0.78618866208E-01  0.51100000000E-03 0. -1.
         11    1    4    4    0    0 -0.93277314645E-02 -0.49745187229E-01  0.18513726005E-02  0.50648582688E-01  0.51100000000E-03 0.  1.
</event>
<event>
 8    1  0.1092667E+005  0.1043930E+01  0.7957747E-01            NaN
         13   -1    0    0    0    0  0.00000000000E+00  0.00000000000E+00  0.74505805969E-08  0.10566000000E+00  0.10566000000E+00 0. -1.
     999900   -1    0    0    0    0 -0.00000000000E+00 -0.00000000000E+00 -0.74505805969E-08  0.93827000000E+00  0.93827000000E+00 0. -1.
     999902    2    1    2    0    0 -0.36516128491E-02 -0.11513229138E-02 -0.22788078652E-01  0.10208225045E+01  0.10205609385E+01 0.  0.
     999903    2    3    3    0    0  0.23128680745E-01  0.11389351817E+00 -0.59525068323E-01  0.13217065701E+00  0.20473872672E-01 0.  0.
         14    1    1    2    0    0  0.36516128491E-02  0.11513229138E-02  0.22788078652E-01  0.23107495526E-01  0.00000000000E+00 0. -1.
     999901    1    3    3    0    0 -0.26780293594E-01 -0.11504484108E+00  0.36736989671E-01  0.88865184746E+00  0.88000000000E+00 0.  1.
        -11    1    4    4    0    0  0.92111181178E-02  0.79269024635E-01 -0.32867345880E-01  0.86307279588E-01  0.51100000000E-03 0.  1.
         11    1    4    4    0    0  0.13917562627E-01  0.34624493535E-01 -0.26657722442E-01  0.45863377425E-01  0.51100000000E-03 0. -1.
</event>
<event>
 8    1  0.1092667E+005  0.1043930E+01  0.7957747E-01            NaN
         13   -1    0    0    0    0  0.00000000000E+00  0.00000000000E+00  0.74505805969E-08  0.10566000000E+00  0.10566000000E+00 0. -1.
     999900   -1    0    0    0    0 -0.00000000000E+00 -0.00000000000E+00 -0.74505805969E-08  0.93827000000E+00  0.93827000000E+00 0.  1.
     999902    2    1    2    0    0  0.12922480694E-01  0.36009700121E-03  0.19702093283E-01  0.10203653515E+01  0.10200932104E+01 0.  0.
     999903    2    3    3    0    0  0.98791281656E-01 -0.55019029434E-01 -0.64667346106E-01  0.13044484896E+00  0.68689180867E-02 0.  0.
         14    1    1    2    0    0 -0.12922480694E-01 -0.36009700121E-03 -0.19702093283E-01  0.23564648456E-01  0.00000000000E+00 0.  1.
     999901    1    3    3    0    0 -0.85868800962E-01  0.55379126435E-01  0.84369439389E-01  0.88992050259E+00  0.88000000000E+00 0. -1.
        -11    1    4    4    0    0  0.64809460901E-01 -0.39677061528E-01 -0.44063361619E-01  0.87842907465E-01  0.51100000000E-03 0.  1.
         11    1    4    4    0    0  0.33981820755E-01 -0.15341967906E-01 -0.20603984487E-01  0.42601941491E-01  0.51100000000E-03 0. -1.
</event>
<event>
 8    1  0.1092667E+005  0.1043930E+01  0.7957747E-01            NaN
         13   -1    0    0    0    0  0.00000000000E+00  0.00000000000E+00  0.74505805969E-08  0.10566000000E+00  0.10566000000E+00 0.  1.
     999900   -1    0    0    0    0 -0.00000000000E+00 -0.00000000000E+00 -0.74505805969E-08  0.93827000000E+00  0.93827000000E+00 0. -1.
     999902    2    1    2    0    0 -0.12509871556E-01  0.14929874610E-01  0.13299014062E-01  0.10203447966E+01  0.10200721750E+01 0.  0.
     999903    2    3    3    0    0  0.13140096972E-01 -0.23332731858E-01 -0.12400983357E+00  0.12850643260E+00  0.20454482960E-01 0.  0.
         14    1    1    2    0    0  0.12509871556E-01 -0.14929874610E-01 -0.13299014062E-01  0.23585203354E-01  0.00000000000E+00 0. -1.
     999901    1    3    3    0    0 -0.25649968528E-01  0.38262606468E-01  0.13730884764E+00  0.89183836404E+00  0.88000000000E+00 0.  1.
        -11    1    4    4    0    0  0.97517920086E-03 -0.99331085994E-02 -0.83980096572E-01  0.84572663208E-01  0.51100000000E-03 0. -1.
         11    1    4    4    0    0  0.12164917771E-01 -0.13399623259E-01 -0.40029737002E-01  0.43933769396E-01  0.51100000000E-03 0.  1.
</event>
<event>
 8    1  0.1092667E+005  0.1043930E+01  0.7957747E-01            NaN
         13   -1    0    0    0    0  0.00000000000E+00  0.00000000000E+00  0.74505805969E-08  0.10566000000E+00  0.10566000000E+00 0. -1.
     999900   -1    0    0    0    0 -0.00000000000E+00 -0.00000000000E+00 -0.74505805969E-08  0.93827000000E+00  0.93827000000E+00 0. -1.
     999902    2    1    2    0    0 -0.16429933121E-01  0.24889500865E-02  0.16473216583E-01  0.10205311872E+01  0.10202629071E+01 0.  0.
     999903    2    3    3    0    0 -0.68234649109E-01 -0.93136933732E-01  0.62192614263E-01  0.13265827876E+00  0.19996046877E-01 0.  0.
         14    1    1    2    0    0  0.16429933121E-01 -0.24889500865E-02 -0.16473216583E-01  0.23398812779E-01  0.00000000000E+00 0.  1.
     999901    1    3    3    0    0  0.51804715988E-01  0.95625883818E-01 -0.45719397681E-01  0.88787290846E+00  0.88000000000E+00 0. -1.
        -11    1    4    4    0    0 -0.35092942547E-01 -0.33560390909E-01  0.20247764593E-01  0.52612237613E-01  0.51100000000E-03 0. -1.
         11    1    4    4    0    0 -0.33141706561E-01 -0.59576542822E-01  0.41944849670E-01  0.80046041147E-01  0.51100000000E-03 0.  1.
</event>
<event>
 8    1  0.1092667E+005  0.1043930E+01  0.7957747E-01            NaN
         13   -1    0    0    0    0  0.00000000000E+00  0.00000000000E+00  0.74505805969E-08  0.10566000000E+00  0.10566000000E+00 0.  1.
     999900   -1    0    0    0    0 -0.00000000000E+00 -0.00000000000E+00 -0.74505805969E-08  0.93827000000E+00  0.93827000000E+00 0. -1.
     999902    2    1    2    0    0  0.16333809851E-01 -0.36867710153E-02 -0.16858272552E-01  0.10201689609E+01  0.10198922109E+01 0.  0.
     999903    2    3    3    0    0  0.32649117984E-02 -0.11313959956E+00 -0.64735971585E-01  0.13200062562E+00  0.20547274965E-01 0.  0.
         14    1    1    2    0    0 -0.16333809851E-01  0.36867710153E-02  0.16858272552E-01  0.23761039081E-01  0.00000000000E+00 0. -1.
     999901    1    3    3    0    0  0.13068898053E-01  0.10945282854E+00  0.47877699034E-01  0.88816833530E+00  0.88000000000E+00 0.  1.
        -11    1    4    4    0    0 -0.81240628566E-02 -0.63095693422E-01 -0.38447166582E-01  0.74333792214E-01  0.51100000000E-03 0.  1.
         11    1    4    4    0    0  0.11388974655E-01 -0.50043906136E-01 -0.26288805003E-01  0.57666833401E-01  0.51100000000E-03 0. -1.
</event>
<event>
 8    1  0.1092667E+005  0.1043930E+01  0.7957747E-01            NaN
         13   -1    0    0    0    0  0.00000000000E+00  0.00000000000E+00  0.74505805969E-08  0.10566000000E+00  0.10566000000E+00 0.  1.
     999900   -1    0    0    0    0 -0.00000000000E+00 -0.00000000000E+00 -0.74505805969E-08  0.93827000000E+00  0.93827000000E+00 0. -1.
     999902    2    1    2    0    0 -0.11605424034E-01 -0.20800617366E-01 -0.19446134211E-02  0.10200316094E+01  0.10197516125E+01 0.  0.
     999903    2    3    3    0    0  0.96254804866E-01 -0.75693038593E-01  0.41377590851E-01  0.13069263005E+00  0.19339983796E-01 0.  0.
         14    1    1    2    0    0  0.11605424034E-01  0.20800617366E-01  0.19446134211E-02  0.23898390556E-01  0.00000000000E+00 0. -1.
     999901    1    3    3    0    0 -0.10786022890E+00  0.54892421227E-01 -0.43322204273E-01  0.88933897939E+00  0.88000000000E+00 0.  1.
        -11    1    4    4    0    0  0.71338693768E-01 -0.55462534789E-01  0.39260547962E-01  0.98523873965E-01  0.51100000000E-03 0.  1.
         11    1    4    4    0    0  0.24916111099E-01 -0.20230503804E-01  0.21170428893E-02  0.32168756085E-01  0.51100000000E-03 0. -1.
</event>
<event>
 8    1  0.1092667E+005  0.1043930E+01  0.7957747E-01            NaN
         13   -1    0    0    0    0  0.00000000000E+00  0.00000000000E+00  0.74505805969E-08  0.10566000000E+00  0.10566000000E+00 0.  1.
     999900   -1    0    0    0    0 -0.00000000000E+00 -0.00000000000E+00 -0.74505805969E-08  0.93827000000E+00  0.93827000000E+00 0.  1.
     999902    2    1    2    0    0 -0.99570538982E-02 -0.84488595952E-02 -0.20406038391E-01  0.10197033091E+01  0.10194154727E+01 0.  0.
     999903    2    3    3    0    0  0.43024094614E-02 -0.11621203425E+00  0.53857983016E-01  0.12991042362E+00  0.21267068470E-01 0.  0.
         14    1    1    2    0    0  0.99570538982E-02  0.84488595952E-02  0.20406038391E-01  0.24226690934E-01  0.00000000000E+00 0.  1.
     999901    1    3    3    0    0 -0.14259463360E-01  0.10776317465E+00 -0.74264021407E-01  0.88979288544E+00  0.88000000000E+00 0.  1.
        -11    1    4    4    0    0  0.12154359878E-01 -0.48171039877E-01  0.24363780434E-01  0.55335634675E-01  0.51100000000E-03 0. -1.
         11    1    4    4    0    0 -0.78519504169E-02 -0.68040994368E-01  0.29494202582E-01  0.74574788950E-01  0.51100000000E-03 0.  1.
</event>
<event>
 8    1  0.1092667E+005  0.1043930E+01  0.7957747E-01            NaN
         13   -1    0    0    0    0  0.00000000000E+00  0.00000000000E+00  0.74505805969E-08  0.10566000000E+00  0.10566000000E+00 0. -1.
     999900   -1    0    0    0    0 -0.00000000000E+00 -0.00000000000E+00 -0.74505805969E-08  0.93827000000E+00  0.93827000000E+00 0.  1.
     999902    2    1    2    0    0  0.22621766079E-02 -0.13435297050E-01  0.18025538120E-01  0.10213347643E+01  0.10210847938E+01 0.  0.
     999903    2    3    3    0    0 -0.76367683961E-01 -0.21628357027E-01 -0.10081477935E+00  0.12983445461E+00  0.19838268261E-01 0.  0.
         14    1    1    2    0    0 -0.22621766079E-02  0.13435297050E-01 -0.18025538120E-01  0.22595235656E-01  0.00000000000E+00 0.  1.
     999901    1    3    3    0    0  0.78629860569E-01  0.81930599767E-02  0.11884031747E+00  0.89150030974E+00  0.88000000000E+00 0. -1.
        -11    1    4    4    0    0 -0.75082753856E-01 -0.18409398599E-01 -0.90955534463E-01  0.11937125388E+00  0.51100000000E-03 0. -1.
         11    1    4    4    0    0 -0.12849301049E-02 -0.32189584285E-02 -0.98592448822E-02  0.10463200724E-01  0.51100000000E-03 0.  1.
</event>
<event>
 8    1  0.1092667E+005  0.1043930E+01  0.7957747E-01            NaN
         13   -1    0    0    0    0  0.00000000000E+00  0.00000000000E+00  0.74505805969E-08  0.10566000000E+00  0.10566000000E+00 0.  1.
     999900   -1    0    0    0    0 -0.00000000000E+00 -0.00000000000E+00 -0.74505805969E-08  0.93827000000E+00  0.93827000000E+00 0. -1.
     999902    2    1    2    0    0  0.62778928326E-03 -0.24639421149E-01 -0.41032338983E-02  0.10189433691E+01  0.10186369607E+01 0.  0.
     999903    2    3    3    0    0  0.11353646183E+00  0.38711586218E-01  0.40987112538E-01  0.12832849287E+00  0.19978578919E-01 0.  0.
         14    1    1    2    0    0 -0.62778928326E-03  0.24639421149E-01  0.41032338983E-02  0.24986630873E-01  0.00000000000E+00 0. -1.
     999901    1    3    3    0    0 -0.11290867255E+00 -0.63351007367E-01 -0.45090346436E-01  0.89061487626E+00  0.88000000000E+00 0. -1.
        -11    1    4    4    0    0  0.68332645478E-01  0.22413553596E-01  0.14176269157E-01  0.73300378929E-01  0.51100000000E-03 0.  1.
         11    1    4    4    0    0  0.45203816351E-01  0.16298032621E-01  0.26810843381E-01  0.55028113940E-01  0.51100000000E-03 0. -1.
</event>
<event>
 8    1  0.1092667E+005  0.1043930E+01  0.7957747E-01            NaN
         13   -1    0    0    0    0  0.00000000000E+00  0.00000000000E+00  0.74505805969E-08  0.10566000000E+00  0.10566000000E+00 0. -1.
     999900   -1    0    0    0    0 -0.00000000000E+00 -0.00000000000E+00 -0.74505805969E-08  0.93827000000E+00  0.93827000000E+00 0.  1.
     999902    2    1    2    0    0 -0.26376995220E-01 -0.29950818049E-02 -0.22565492767E-01  0.10090886760E+01  0.10084870045E+01 0.  0.
     999903    2    3    3    0    0  0.77201519398E-01  0.86442001847E-01 -0.13044362308E-01  0.11846072198E+00  0.20748324815E-01 0.  0.
         14    1    1    2    0    0  0.26376995220E-01  0.29950818049E-02  0.22565492767E-01  0.34841323965E-01  0.00000000000E+00 0. -1.
     999901    1    3    3    0    0 -0.10357851462E+00 -0.89437083652E-01 -0.95211304584E-02  0.89062795406E+00  0.88000000000E+00 0.  1.
        -11    1    4    4    0    0  0.25326529485E-01  0.42775976259E-01 -0.19631546272E-02  0.49752711864E-01  0.51100000000E-03 0. -1.
         11    1    4    4    0    0  0.51874989913E-01  0.43666025588E-01 -0.11081207681E-01  0.68708010114E-01  0.51100000000E-03 0.  1.
</event>
<event>
 8    1  0.1092667E+005  0.1043930E+01  0.7957747E-01            NaN
         13   -1    0    0    0    0  0.00000000000E+00  0.00000000000E+00  0.74505805969E-08  0.10566000000E+00  0.10566000000E+00 0. -1.
     999900   -1    0    0    0    0 -0.00000000000E+00 -0.00000000000E+00 -0.74505805969E-08  0.93827000000E+00  0.93827000000E+00 0.  1.
     999902    2    1    2    0    0 -0.12407195827E-01 -0.20464808933E-01  0.17224347368E-03  0.10199972488E+01  0.10197164365E+01 0.  0.
     999903    2    3    3    0    0  0.10538464270E-01 -0.11819271040E+00  0.55471627956E-01  0.13256541029E+00  0.20393883316E-01 0.  0.
         14    1    1    2    0    0  0.12407195827E-01  0.20464808933E-01 -0.17224347368E-03  0.23932751216E-01  0.00000000000E+00 0. -1.
     999901    1    3    3    0    0 -0.22945660098E-01  0.97727901470E-01 -0.55299384483E-01  0.88743183849E+00  0.88000000000E+00 0.  1.
        -11    1    4    4    0    0 -0.57148546345E-02 -0.43616136651E-01  0.17956184108E-01  0.47515393385E-01  0.51100000000E-03 0. -1.
         11    1    4    4    0    0  0.16253318905E-01 -0.74576573752E-01  0.37515443848E-01  0.85050016908E-01  0.51100000000E-03 0.  1.
</event>
<event>
 8    1  0.1092667E+005  0.1043930E+01  0.7957747E-01            NaN
         13   -1    0    0    0    0  0.00000000000E+00  0.00000000000E+00  0.74505805969E-08  0.10566000000E+00  0.10566000000E+00 0.  1.
     999900   -1    0    0    0    0 -0.00000000000E+00 -0.00000000000E+00 -0.74505805969E-08  0.93827000000E+00  0.93827000000E+00 0. -1.
     999902    2    1    2    0    0  0.30474582934E-02  0.13312536918E-01  0.18518088856E-01  0.10209206485E+01  0.10206613250E+01 0.  0.
     999903    2    3    3    0    0  0.15468986856E-02 -0.21006289430E-01 -0.12528425774E+00  0.12858710750E+00  0.19870628732E-01 0.  0.
         14    1    1    2    0    0 -0.30474582934E-02 -0.13312536918E-01 -0.18518088856E-01  0.23009351493E-01  0.00000000000E+00 0. -1.
     999901    1    3    3    0    0  0.15005596078E-02  0.34318826348E-01  0.14380234660E+00  0.89233354101E+00  0.88000000000E+00 0.  1.
        -11    1    4    4    0    0 -0.77848085028E-02 -0.17091198462E-01 -0.78255830221E-01  0.80479490511E-01  0.51100000000E-03 0.  1.
         11    1    4    4    0    0  0.93317071883E-02 -0.39150909682E-02 -0.47028427519E-01  0.48107616988E-01  0.51100000000E-03 0. -1.
</event>
<event>
 8    1  0.1092667E+005  0.1043930E+01  0.7957747E-01            NaN
         13   -1    0    0    0    0  0.00000000000E+00  0.00000000000E+00  0.74505805969E-08  0.10566000000E+00  0.10566000000E+00 0. -1.
     999900   -1    0    0    0    0 -0.00000000000E+00 -0.00000000000E+00 -0.74505805969E-08  0.93827000000E+00  0.93827000000E+00 0.  1.
     999902    2    1    2    0    0 -0.23742333380E-01  0.46605976740E-02  0.61953218205E-02  0.10189539800E+01  0.10186478350E+01 0.  0.
     999903    2    3    3    0    0 -0.11775655785E+00 -0.55258435882E-01 -0.18872544830E-02  0.13188335535E+00  0.21669241737E-01 0.  0.
         14    1    1    2    0    0  0.23742333380E-01 -0.46605976740E-02 -0.61953218205E-02  0.24976020048E-01  0.00000000000E+00 0.  1.
     999901    1    3    3    0    0  0.94014224469E-01  0.59919033556E-01  0.80825763035E-02  0.88707062460E+00  0.88000000000E+00 0. -1.
        -11    1    4    4    0    0 -0.58967365534E-01 -0.33679806865E-01  0.83659437899E-02  0.68423166581E-01  0.51100000000E-03 0.  1.
         11    1    4    4    0    0 -0.58789192315E-01 -0.21578629016E-01 -0.10253198273E-01  0.63460188773E-01  0.51100000000E-03 0. -1.
</event>
<event>
 8    1  0.1092667E+005  0.1043930E+01  0.7957747E-01            NaN
         13   -1    0    0    0    0  0.00000000000E+00  0.00000000000E+00  0.74505805969E-08  0.10566000000E+00  0.10566000000E+00 0.  1.
     999900   -1    0    0    0    0 -0.00000000000E+00 -0.00000000000E+00 -0.74505805969E-08  0.93827000000E+00  0.93827000000E+00 0.  1.
     999902    2    1    2    0    0  0.17084409446E-01  0.22117137325E-02  0.16027210861E-01  0.10204004396E+01  0.10201291178E+01 0.  0.
     999903    2    3    3    0    0 -0.20750080392E-03  0.10964526536E+00  0.70750715508E-01  0.13201108796E+00  0.19978396504E-01 0.  0.
         14    1    1    2    0    0 -0.17084409446E-01 -0.22117137325E-02 -0.16027210861E-01  0.23529560381E-01  0.00000000000E+00 0. -1.
     999901    1    3    3    0    0  0.17291910250E-01 -0.10743355163E+00 -0.54723504648E-01  0.88838935166E+00  0.88000000000E+00 0.  1.
        -11    1    4    4    0    0  0.58955966550E-02  0.73528534978E-01  0.55581822664E-01  0.92362349729E-01  0.51100000000E-03 0.  1.
         11    1    4    4    0    0 -0.61030974589E-02  0.36116730386E-01  0.15168892844E-01  0.39648738233E-01  0.51100000000E-03 0. -1.
</event>
<event>
 8    1  0.1092667E+005  0.1043930E+01  0.7957747E-01            NaN
         13   -1    0    0    0    0  0.00000000000E+00  0.00000000000E+00  0.74505805969E-08  0.10566000000E+00  0.10566000000E+00 0.  1.
     999900   -1    0    0    0    0 -0.00000000000E+00 -0.00000000000E+00 -0.74505805969E-08  0.93827000000E+00  0.93827000000E+00 0. -1.
     999902    2    1    2    0    0  0.75443456953E-02  0.20977360617E-01  0.71471502769E-02  0.10205195629E+01  0.10202510130E+01 0.  0.
     999903    2    3    3    0    0  0.92817571512E-01 -0.24233937373E-01 -0.86024633961E-01  0.13035296839E+00  0.19730013160E-01 0.  0.
         14    1    1    2    0    0 -0.75443456953E-02 -0.20977360617E-01 -0.71471502769E-02  0.23410437149E-01  0.00000000000E+00 0. -1.
     999901    1    3    3    0    0 -0.85273225817E-01  0.45211297990E-01  0.93171784238E-01  0.89016659446E+00  0.88000000000E+00 0. -1.
        -11    1    4    4    0    0  0.56309802068E-01 -0.23186861719E-01 -0.47216067571E-01  0.77058695312E-01  0.51100000000E-03 0.  1.
         11    1    4    4    0    0  0.36507769444E-01 -0.10470756538E-02 -0.38808566390E-01  0.53294273083E-01  0.51100000000E-03 0. -1.
</event>
<event>
 8    1  0.1092667E+005  0.1043930E+01  0.7957747E-01            NaN
         13   -1    0    0    0    0  0.00000000000E+00  0.00000000000E+00  0.74505805969E-08  0.10566000000E+00  0.10566000000E+00 0.  1.
     999900   -1    0    0    0    0 -0.00000000000E+00 -0.00000000000E+00 -0.74505805969E-08  0.93827000000E+00  0.93827000000E+00 0. -1.
     999902    2    1    2    0    0 -0.18971627139E-01 -0.46181768265E-02  0.14980521855E-01  0.10193197130E+01  0.10190225763E+01 0.  0.
     999903    2    3    3    0    0  0.50887042904E-01  0.25762038862E-01  0.11550429911E+00  0.13032690023E+00  0.19765728587E-01 0.  0.
         14    1    1    2    0    0  0.18971627139E-01  0.46181768265E-02 -0.14980521855E-01  0.24610287047E-01  0.00000000000E+00 0.  1.
     999901    1    3    3    0    0 -0.69858670043E-01 -0.30380215689E-01 -0.10052377726E+00  0.88899281273E+00  0.88000000000E+00 0. -1.
        -11    1    4    4    0    0  0.37772316841E-01  0.26466792530E-01  0.78380581989E-01  0.90945125105E-01  0.51100000000E-03 0. -1.
         11    1    4    4    0    0  0.13114726063E-01 -0.70475366819E-03  0.37123717126E-01  0.39381775121E-01  0.51100000000E-03 0.  1.
</event>
<event>
 8    1  0.1092667E+005  0.1043930E+01  0.7957747E-01            NaN
         13   -1    0    0    0    0  0.00000000000E+00  0.00000000000E+00  0.74505805969E-08  0.10566000000E+00  0.10566000000E+00 0.  1.
     999900   -1    0    0    0    0 -0.00000000000E+00 -0.00000000000E+00 -0.74505805969E-08  0.93827000000E+00  0.93827000000E+00 0.  1.
     999902    2    1    2    0    0  0.92397219613E-02 -0.14033291279E-01 -0.15902731429E-01  0.10207955540E+01  0.10205333706E+01 0.  0.
     999903    2    3    3    0    0  0.51800736009E-01  0.11718934360E+00  0.17499092147E-01  0.12942217450E+00  0.52175204700E-02 0.  0.
         14    1    1    2    0    0 -0.92397219613E-02  0.14033291279E-01  0.15902731429E-01  0.23134446026E-01  0.00000000000E+00 0.  1.
     999901    1    3    3    0    0 -0.42561014047E-01 -0.13122263488E+00 -0.33401823576E-01  0.89137337948E+00  0.88000000000E+00 0. -1.
        -11    1    4    4    0    0  0.78587931678E-02  0.16750847408E-01  0.42656191259E-02  0.18994950552E-01  0.51100000000E-03 0.  1.
         11    1    4    4    0    0  0.43941942841E-01  0.10043849620E+00  0.13233473021E-01  0.11042722394E+00  0.51100000000E-03 0. -1.
</event>
<event>
 8    1  0.1092667E+005  0.1043930E+01  0.7957747E-01            NaN
         13   -1    0    0    0    0  0.00000000000E+00  0.00000000000E+00  0.74505805969E-08  0.10566000000E+00  0.10566000000E+00 0.  1.
     999900   -1    0    0    0    0 -0.00000000000E+00 -0.00000000000E+00 -0.74505805969E-08  0.93827000000E+00  0.93827000000E+00 0. -1.
     999902    2    1    2    0    0  0.62395993226E-02 -0.30708137312E-02 -0.22844463727E-01  0.10200504686E+01  0.10197709186E+01 0.  0.
     999903    2    3    3    0    0 -0.10960758783E+00 -0.63155486473E-01 -0.24043780942E-01  0.13042572916E+00  0.20744364110E-01 0.  0.
         14    1    1    2    0    0 -0.62395993226E-02  0.30708137312E-02  0.22844463727E-01  0.23879531395E-01  0.00000000000E+00 0.  1.
     999901    1    3    3    0    0  0.11584718716E+00  0.60084672742E-01  0.11993172150E-02  0.88962473944E+00  0.88000000000E+00 0.  1.
        -11    1    4    4    0    0 -0.39646096815E-01 -0.32706994420E-01 -0.15282056955E-01  0.53622410077E-01  0.51100000000E-03 0. -1.
         11    1    4    4    0    0 -0.69961491019E-01 -0.30448492053E-01 -0.87617239874E-02  0.76803319083E-01  0.51100000000E-03 0.  1.
</event>
<event>
 8    1  0.1092667E+005  0.1043930E+01  0.7957747E-01            NaN
         13   -1    0    0    0    0  0.00000000000E+00  0.00000000000E+00  0.74505805969E-08  0.10566000000E+00  0.10566000000E+00 0.  1.
     999900   -1    0    0    0    0 -0.00000000000E+00 -0.00000000000E+00 -0.74505805969E-08  0.93827000000E+00  0.93827000000E+00 0. -1.
     999902    2    1    2    0    0  0.69055146065E-02  0.71616817431E-02 -0.26006947793E-01  0.10160851234E+01  0.10157035202E+01 0.  0.
     999903    2    3    3    0    0  0.13765563036E-01  0.94638200832E-01 -0.85427907249E-01  0.12972737846E+00  0.19631240477E-01 0.  0.
         14    1    1    2    0    0 -0.69055146065E-02 -0.71616817431E-02  0.26006947793E-01  0.27844876564E-01  0.00000000000E+00 0.  1.
     999901    1    3    3    0    0 -0.68600484299E-02 -0.87476519089E-01  0.59420959456E-01  0.88635774498E+00  0.88000000000E+00 0.  1.
        -11    1    4    4    0    0  0.99166043632E-03  0.62117868586E-01 -0.61187682013E-01  0.87199808138E-01  0.51100000000E-03 0. -1.
         11    1    4    4    0    0  0.12773902600E-01  0.32520332245E-01 -0.24240225236E-01  0.42527570322E-01  0.51100000000E-03 0.  1.
</event>
<event>
 8    1  0.1092667E+005  0.1043930E+01  0.7957747E-01            NaN
         13   -1    0    0    0    0  0.00000000000E+00  0.00000000000E+00  0.74505805969E-08  0.10566000000E+00  0.10566000000E+00 0.  1.
     999900   -1    0    0    0    0 -0.00000000000E+00 -0.00000000000E+00 -0.74505805969E-08  0.93827000000E+00  0.93827000000E+00 0.  1.
     999902    2    1    2    0    0  0.18765432511E-01  0.10874312856E-01 -0.84714877217E-02  0.10206457083E+01  0.10203800780E+01 0.  0.
     999903    2    3    3    0    0  0.14453200262E-01  0.12885055634E+00  0.18241310257E-01  0.13236052717E+00  0.19370154496E-01 0.  0.
         14    1    1    2    0    0 -0.18765432511E-01 -0.10874312856E-01  0.84714877217E-02  0.23284291736E-01  0.00000000000E+00 0.  1.
     999901    1    3    3    0    0  0.43122322490E-02 -0.11797624349E+00 -0.26712797978E-01  0.88828518109E+00  0.88000000000E+00 0.  1.
        -11    1    4    4    0    0  0.14653077583E-01  0.11210886714E+00  0.94888920314E-02  0.11346105484E+00  0.51100000000E-03 0.  1.
         11    1    4    4    0    0 -0.19987732117E-03  0.16741689206E-01  0.87524182251E-02  0.18899472326E-01  0.51100000000E-03 0. -1.
</event>
<event>
 8    1  0.1092667E+005  0.1043930E+01  0.7957747E-01            NaN
         13   -1    0    0    0    0  0.00000000000E+00  0.00000000000E+00  0.74505805969E-08  0.10566000000E+00  0.10566000000E+00 0. -1.
     999900   -1    0    0    0    0 -0.00000000000E+00 -0.00000000000E+00 -0.74505805969E-08  0.93827000000E+00  0.93827000000E+00 0. -1.
     999902    2    1    2    0    0  0.36167771134E-02  0.19144896456E-01  0.76782560406E-02  0.10229880862E+01  0.10227737095E+01 0.  0.
     999903    2    3    3    0    0 -0.72149142952E-01  0.61768260012E-01 -0.91542661300E-01  0.13315550859E+00  0.18152516559E-01 0.  0.
         14    1    1    2    0    0 -0.36167771134E-02 -0.19144896456E-01 -0.76782560406E-02  0.20941913781E-01  0.00000000000E+00 0. -1.
     999901    1    3    3    0    0  0.75765920066E-01 -0.42623363557E-01  0.99220917340E-01  0.88983257762E+00  0.88000000000E+00 0. -1.
        -11    1    4    4    0    0 -0.16583443740E-01  0.12758069911E-01 -0.10737587210E-01  0.23523091936E-01  0.51100000000E-03 0.  1.
         11    1    4    4    0    0 -0.55565699213E-01  0.49010190102E-01 -0.80805074090E-01  0.10963241666E+00  0.51100000000E-03 0. -1.
</event>
<event>
 8    1  0.1092667E+005  0.1043930E+01  0.7957747E-01            NaN
         13   -1    0    0    0    0  0.00000000000E+00  0.00000000000E+00  0.74505805969E-08  0.10566000000E+00  0.10566000000E+00 0. -1.
     999900   -1    0    0    0    0 -0.00000000000E+00 -0.00000000000E+00 -0.74505805969E-08  0.93827000000E+00  0.93827000000E+00 0. -1.
     999902    2    1    2    0    0  0.37113411828E-02  0.21102113262E-01 -0.95062163513E-02  0.10204898339E+01  0.10202205936E+01 0.  0.
     999903    2    3    3    0    0 -0.71152454747E-01  0.10132223147E+00  0.42145392517E-01  0.13217246719E+00  0.19090850276E-01 0.  0.
         14    1    1    2    0    0 -0.37113411828E-02 -0.21102113262E-01  0.95062163513E-02  0.23440166100E-01  0.00000000000E+00 0.  1.
     999901    1    3    3    0    0  0.74863795930E-01 -0.80220118212E-01 -0.51651608868E-01  0.88831736671E+00  0.88000000000E+00 0. -1.
        -11    1    4    4    0    0 -0.30331609412E-01  0.30735451075E-01  0.87806044652E-02  0.44068521851E-01  0.51100000000E-03 0.  1.
         11    1    4    4    0    0 -0.40820845334E-01  0.70586780399E-01  0.33364788052E-01  0.88103945335E-01  0.51100000000E-03 0. -1.
</event>
<event>
 8    1  0.1092667E+005  0.1043930E+01  0.7957747E-01            NaN
         13   -1    0    0    0    0  0.00000000000E+00  0.00000000000E+00  0.74505805969E-08  0.10566000000E+00  0.10566000000E+00 0. -1.
     999900   -1    0    0    0    0 -0.00000000000E+00 -0.00000000000E+00 -0.74505805969E-08  0.93827000000E+00  0.93827000000E+00 0. -1.
     999902    2    1    2    0    0  0.26463781267E-02  0.57058589078E-02 -0.24028428720E-01  0.10190920144E+01  0.10187892855E+01 0.  0.
     999903    2    3    3    0    0 -0.79141182659E-01  0.32598652395E-02 -0.10336963147E+00  0.13174190622E+00  0.19917219441E-01 0.  0.
         14    1    1    2    0    0 -0.26463781267E-02 -0.57058589078E-02  0.24028428720E-01  0.24837985623E-01  0.00000000000E+00 0. -1.
     999901    1    3    3    0    0  0.81787560786E-01  0.24459936683E-02  0.79341202754E-01  0.88735010815E+00  0.88000000000E+00 0.  1.
        -11    1    4    4    0    0 -0.36859199521E-01  0.42498746614E-02 -0.63884360931E-01  0.73879190010E-01  0.51100000000E-03 0.  1.
         11    1    4    4    0    0 -0.42281983138E-01 -0.99000942192E-03 -0.39485270543E-01  0.57862716214E-01  0.51100000000E-03 0. -1.
</event>
<event>
 8    1  0.1092667E+005  0.1043930E+01  0.7957747E-01            NaN
         13   -1    0    0    0    0  0.00000000000E+00  0.00000000000E+00  0.74505805969E-08  0.10566000000E+00  0.10566000000E+00 0. -1.
     999900   -1    0    0    0    0 -0.00000000000E+00 -0.00000000000E+00 -0.74505805969E-08  0.93827000000E+00  0.93827000000E+00 0.  1.
     999902    2    1    2    0    0  0.22061302129E-01 -0.42578575245E-02 -0.78023753267E-02  0.10201453944E+01  0.10198680887E+01 0.  0.
     999903    2    3    3    0    0 -0.11703081337E+00 -0.46290963591E-01 -0.14432442539E-01  0.12820517422E+00  0.19728322594E-01 0.  0.
         14    1    1    2    0    0 -0.22061302129E-01  0.42578575245E-02  0.78023753267E-02  0.23784605590E-01  0.00000000000E+00 0. -1.
     999901    1    3    3    0    0  0.13909211549E+00  0.42033106067E-01  0.66300672125E-02  0.89194022019E+00  0.88000000000E+00 0.  1.
        -11    1    4    4    0    0 -0.24542329849E-01 -0.58602727398E-02  0.41263499745E-02  0.25572575860E-01  0.51100000000E-03 0. -1.
         11    1    4    4    0    0 -0.92488483517E-01 -0.40430690851E-01 -0.18558792514E-01  0.10263259836E+00  0.51100000000E-03 0.  1.
</event>
<event>
 8    1  0.1092667E+005  0.1043930E+01  0.7957747E-01            NaN
         13   -1    0    0    0    0  0.00000000000E+00  0.00000000000E+00  0.74505805969E-08  0.10566000000E+00  0.10566000000E+00 0.  1.
     999900   -1    0    0    0    0 -0.00000000000E+00 -0.00000000000E+00 -0.74505805969E-08  0.93827000000E+00  0.93827000000E+00 0. -1.
     999902    2    1    2    0    0  0.81656530484E-02 -0.17119388615E-01 -0.16243147097E-01  0.10189581922E+01  0.10186521518E+01 0.  0.
     999903    2    3    3    0    0  0.88666010940E-01  0.69802717218E-01 -0.61168465918E-01  0.12988336726E+00  0.19850114382E-01 0.  0.
         14    1    1    2    0    0 -0.81656530484E-02  0.17119388615E-01  0.16243147097E-01  0.24971807782E-01  0.00000000000E+00 0.  1.
     999901    1    3    3    0    0 -0.80500357892E-01 -0.86922105833E-01  0.44925318821E-01  0.88907482496E+00  0.88000000000E+00 0.  1.
        -11    1    4    4    0    0  0.42863356948E-01  0.42550519356E-01 -0.24450391316E-01  0.65160546521E-01  0.51100000000E-03 0.  1.
         11    1    4    4    0    0  0.45802653992E-01  0.27252197862E-01 -0.36718074602E-01  0.64722820740E-01  0.51100000000E-03 0. -1.
</event>
<event>
 8    1  0.1092667E+005  0.1043930E+01  0.7957747E-01            NaN
         13   -1    0    0    0    0  0.00000000000E+00  0.00000000000E+00  0.74505805969E-08  0.10566000000E+00  0.10566000000E+00 0. -1.
     999900   -1    0    0    0    0 -0.00000000000E+00 -0.00000000000E+00 -0.74505805969E-08  0.93827000000E+00  0.93827000000E+00 0. -1.
     999902    2    1    2    0    0  0.11840408142E-01  0.21583772208E-01 -0.12754653238E-01  0.10162039172E+01  0.10158256079E+01 0.  0.
     999903    2    3    3    0    0  0.49046065186E-02  0.12259298812E+00 -0.38379712743E-01  0.13002808211E+00  0.19524443247E-01 0.  0.
         14    1    1    2    0    0 -0.11840408142E-01 -0.21583772208E-01  0.12754653238E-01  0.27726082791E-01  0.00000000000E+00 0.  1.
     999901    1    3    3    0    0  0.69358016232E-02 -0.10100921591E+00  0.25625059505E-01  0.88617583510E+00  0.88000000000E+00 0.  1.
        -11    1    4    4    0    0  0.11448419166E-01  0.49151161865E-01 -0.14173609462E-01  0.52421897526E-01  0.51100000000E-03 0. -1.
         11    1    4    4    0    0 -0.65438126475E-02  0.73441826259E-01 -0.24206103282E-01  0.77606184581E-01  0.51100000000E-03 0.  1.
</event>
<event>
 8    1  0.1092667E+005  0.1043930E+01  0.7957747E-01            NaN
         13   -1    0    0    0    0  0.00000000000E+00  0.00000000000E+00  0.74505805969E-08  0.10566000000E+00  0.10566000000E+00 0.  1.
     999900   -1    0    0    0    0 -0.00000000000E+00 -0.00000000000E+00 -0.74505805969E-08  0.93827000000E+00  0.93827000000E+00 0.  1.
     999902    2    1    2    0    0  0.20998477358E-01  0.31952224916E-02 -0.11642273697E-01  0.10197083561E+01  0.10194206410E+01 0.  0.
     999903    2    3    3    0    0  0.18261224046E-01  0.81233675314E-02  0.12587001129E+00  0.12901120905E+00  0.20029251480E-01 0.  0.
         14    1    1    2    0    0 -0.20998477358E-01 -0.31952224916E-02  0.11642273697E-01  0.24221643936E-01  0.00000000000E+00 0. -1.
     999901    1    3    3    0    0  0.27372533122E-02 -0.49281450398E-02 -0.13751228499E+00  0.89069714701E+00  0.88000000000E+00 0.  1.
        -11    1    4    4    0    0  0.14497104127E-01  0.95137995376E-02  0.48041380912E-01  0.51077527452E-01  0.51100000000E-03 0. -1.
         11    1    4    4    0    0  0.37641199191E-02 -0.13904320062E-02  0.77828630381E-01  0.77933681602E-01  0.51100000000E-03 0.  1.
</event>
<event>
 8    1  0.1092667E+005  0.1043930E+01  0.7957747E-01            NaN
         13   -1    0    0    0    0  0.00000000000E+00  0.00000000000E+00  0.74505805969E-08  0.10566000000E+00  0.10566000000E+00 0.  1.
     999900   -1    0    0    0    0 -0.00000000000E+00 -0.00000000000E+00 -0.74505805969E-08  0.93827000000E+00  0.93827000000E+00 0.  1.
     999902    2    1    2    0    0  0.96147557984E-03  0.20344273774E-01  0.13153437780E-01  0.10196848595E+01  0.10193965793E+01 0.  0.
     999903    2    3    3    0    0 -0.11021527188E+00  0.31861418303E-01 -0.57264026400E-01  0.12982445866E+00  0.20314162882E-01 0.  0.
         14    1    1    2    0    0 -0.96147557984E-03 -0.20344273774E-01 -0.13153437780E-01  0.24245140463E-01  0.00000000000E+00 0. -1.
     999901    1    3    3    0    0  0.11117674746E+00 -0.11517144529E-01  0.70417464180E-01  0.88986040088E+00  0.88000000000E+00 0. -1.
        -11    1    4    4    0    0 -0.43975704572E-01  0.19434913346E-01 -0.15417622215E-01  0.50492996001E-01  0.51100000000E-03 0.  1.
         11    1    4    4    0    0 -0.66239567309E-01  0.12426504957E-01 -0.41846404185E-01  0.79331462655E-01  0.51100000000E-03 0. -1.
</event>
<event>
 8    1  0.1092667E+005  0.1043930E+01  0.7957747E-01            NaN
         13   -1    0    0    0    0  0.00000000000E+00  0.00000000000E+00  0.74505805969E-08  0.10566000000E+00  0.10566000000E+00 0. -1.
     999900   -1    0    0    0    0 -0.00000000000E+00 -0.00000000000E+00 -0.74505805969E-08  0.93827000000E+00  0.93827000000E+00 0.  1.
     999902    2    1    2    0    0  0.96044869381E-02  0.87369628387E-02  0.19646467169E-01  0.10203808098E+01  0.10201090297E+01 0.  0.
     999903    2    3    3    0    0 -0.49681868033E-01  0.58737176960E-01 -0.10139310504E+00  0.12871637100E+00  0.19209332278E-01 0.  0.
         14    1    1    2    0    0 -0.96044869381E-02 -0.87369628387E-02 -0.19646467169E-01  0.23549190246E-01  0.00000000000E+00 0.  1.
     999901    1    3    3    0    0  0.59286354971E-01 -0.50000214121E-01  0.12103957220E+00  0.89166443875E+00  0.88000000000E+00 0. -1.
        -11    1    4    4    0    0 -0.42286447617E-01  0.44737512587E-01 -0.67820259376E-01  0.91593871996E-01  0.51100000000E-03 0.  1.
         11    1    4    4    0    0 -0.73954204168E-02  0.13999664373E-01 -0.33572845659E-01  0.37122499005E-01  0.51100000000E-03 0. -1.
</event>
<event>
 8    1  0.1092667E+005  0.1043930E+01  0.7957747E-01            NaN
         13   -1    0    0    0    0  0.00000000000E+00  0.00000000000E+00  0.74505805969E-08  0.10566000000E+00  0.10566000000E+00 0. -1.
     999900   -1    0    0    0    0 -0.00000000000E+00 -0.00000000000E+00 -0.74505805969E-08  0.93827000000E+00  0.93827000000E+00 0.  1.
     999902    2    1    2    0    0 -0.54660468058E-02  0.23533844926E-01 -0.12334203394E-02  0.10197382483E+01  0.10194512515E+01 0.  0.
     999903    2    3    3    0    0 -0.22702477082E-01  0.11668578823E+00  0.55369439803E-01  0.13284577294E+00  0.21242619473E-01 0.  0.
         14    1    1    2    0    0  0.54660468058E-02 -0.23533844926E-01  0.12334203394E-02  0.24191751703E-01  0.00000000000E+00 0. -1.
     999901    1    3    3    0    0  0.17236430276E-01 -0.93151943308E-01 -0.56602860143E-01  0.88689247536E+00  0.88000000000E+00 0. -1.
        -11    1    4    4    0    0 -0.25475156143E-01  0.81865868814E-01  0.41564678423E-01  0.95283197211E-01  0.51100000000E-03 0. -1.
         11    1    4    4    0    0  0.27726790609E-02  0.34819919420E-01  0.13804761380E-01  0.37562575729E-01  0.51100000000E-03 0.  1.
</event>
<event>
 8    1  0.1092667E+005  0.1043930E+01  0.7957747E-01            NaN
         13   -1    0    0    0    0  0.00000000000E+00  0.00000000000E+00  0.74505805969E-08  0.10566000000E+00  0.10566000000E+00 0. -1.
     999900   -1    0    0    0    0 -0.00000000000E+00 -0.00000000000E+00 -0.74505805969E-08  0.93827000000E+00  0.93827000000E+00 0. -1.
     999902    2    1    2    0    0  0.20154418797E-01  0.12237128993E-01 -0.54357955823E-02  0.10197329796E+01  0.10194458563E+01 0.  0.
     999903    2    3    3    0    0 -0.29459424907E-01 -0.75082638031E-01 -0.97624229280E-01  0.12923593720E+00  0.25810406270E-01 0.  0.
         14    1    1    2    0    0 -0.20154418797E-01 -0.12237128993E-01  0.54357955823E-02  0.24197020409E-01  0.00000000000E+00 0. -1.
     999901    1    3    3    0    0  0.49613843705E-01  0.87319767024E-01  0.92188433698E-01  0.89049704239E+00  0.88000000000E+00 0. -1.
        -11    1    4    4    0    0 -0.24840604333E-01 -0.66030378385E-01 -0.68293271115E-01  0.98190114034E-01  0.51100000000E-03 0.  1.
         11    1    4    4    0    0 -0.46188205748E-02 -0.90522596457E-02 -0.29330958165E-01  0.31045823166E-01  0.51100000000E-03 0. -1.
</event>
<event>
 8    1  0.1092667E+005  0.1043930E+01  0.7957747E-01            NaN
         13   -1    0    0    0    0  0.00000000000E+00  0.00000000000E+00  0.74505805969E-08  0.10566000000E+00  0.10566000000E+00 0.  1.
     999900   -1    0    0    0    0 -0.00000000000E+00 -0.00000000000E+00 -0.74505805969E-08  0.93827000000E+00  0.93827000000E+00 0.  1.
     999902    2    1    2    0    0  0.99816662981E-02 -0.16075120040E-01  0.14310752426E-01  0.10202057343E+01  0.10199298503E+01 0.  0.
     999903    2    3    3    0    0 -0.83427041482E-01 -0.51266818823E-01  0.86290772009E-01  0.13164241888E+00  0.17183455762E-01 0.  0.
         14    1    1    2    0    0 -0.99816662981E-02  0.16075120040E-01 -0.14310752426E-01  0.23724265666E-01  0.00000000000E+00 0. -1.
     999901    1    3    3    0    0  0.93408707780E-01  0.35191698783E-01 -0.71980019582E-01  0.88856331545E+00  0.88000000000E+00 0.  1.
        -11    1    4    4    0    0 -0.50036420519E-01 -0.23998221177E-01  0.40171968268E-01  0.68509898216E-01  0.51100000000E-03 0. -1.
         11    1    4    4    0    0 -0.33390620963E-01 -0.27268597646E-01  0.46118803740E-01  0.63132520663E-01  0.51100000000E-03 0.  1.
</event>
<event>
 8    1  0.1092667E+005  0.1043930E+01  0.7957747E-01            NaN
         13   -1    0    0    0    0  0.00000000000E+00  0.00000000000E+00  0.74505805969E-08  0.10566000000E+00  0.10566000000E+00 0. -1.
     999900   -1    0    0    0    0 -0.00000000000E+00 -0.00000000000E+00 -0.74505805969E-08  0.93827000000E+00  0.93827000000E+00 0. -1.
     999902    2    1    2    0    0  0.13559938448E-01  0.81672694536E-02  0.17202075348E-01  0.10205529254E+01  0.10202851493E+01 0.  0.
     999903    2    3    3    0    0 -0.21615373798E-01 -0.12538958266E+00 -0.12333786549E-01  0.12929140234E+00  0.19348710641E-01 0.  0.
         14    1    1    2    0    0 -0.13559938448E-01 -0.81672694536E-02 -0.17202075348E-01  0.23377074610E-01  0.00000000000E+00 0. -1.
     999901    1    3    3    0    0  0.35175312245E-01  0.13355685211E+00  0.29535861897E-01  0.89126152305E+00  0.88000000000E+00 0.  1.
        -11    1    4    4    0    0 -0.93586906587E-02 -0.24185262277E-01 -0.84233477631E-02  0.27271338632E-01  0.51100000000E-03 0. -1.
         11    1    4    4    0    0 -0.12256683139E-01 -0.10120432038E+00 -0.39104387858E-02  0.10202006370E+00  0.51100000000E-03 0.  1.
</event>
<event>
 8    1  0.1092667E+005  0.1043930E+01  0.7957747E-01            NaN
         13   -1    0    0    0    0  0.00000000000E+00  0.00000000000E+00  0.74505805969E-08  0.10566000000E+00  0.10566000000E+00 0. -1.
     999900   -1    0    0    0    0 -0.00000000000E+00 -0.00000000000E+00 -0.74505805969E-08  0.93827000000E+00  0.93827000000E+00 0. -1.
     999902    2    1    2    0    0  0.22000196219E-01 -0.20067545109E-02 -0.13554060219E-01  0.10180118935E+01  0.10176819086E+01 0.  0.
     999903    2    3    3    0    0 -0.68611107347E-01  0.64927556263E-01  0.80418219424E-01  0.12586762284E+00  0.21271973339E-01 0.  0.
         14    1    1    2    0    0 -0.22000196219E-01  0.20067545109E-02  0.13554060219E-01  0.25918106523E-01  0.00000000000E+00 0.  1.
     999901    1    3    3    0    0  0.90611303566E-01 -0.66934310774E-01 -0.93972279644E-01  0.89214427064E+00  0.88000000000E+00 0. -1.
        -11    1    4    4    0    0 -0.52967902655E-01  0.36356081307E-01  0.52866763391E-01  0.83201677580E-01  0.51100000000E-03 0.  1.
         11    1    4    4    0    0 -0.15643204693E-01  0.28571474955E-01  0.27551456033E-01  0.42665945258E-01  0.51100000000E-03 0. -1.
</event>
<event>
 8    1  0.1092667E+005  0.1043930E+01  0.7957747E-01            NaN
         13   -1    0    0    0    0  0.00000000000E+00  0.00000000000E+00  0.74505805969E-08  0.10566000000E+00  0.10566000000E+00 0.  1.
     999900   -1    0    0    0    0 -0.00000000000E+00 -0.00000000000E+00 -0.74505805969E-08  0.93827000000E+00  0.93827000000E+00 0. -1.
     999902    2    1    2    0    0 -0.55185249637E-02  0.21103346901E-01 -0.76199575786E-02  0.10208243920E+01  0.10205628693E+01 0.  0.
     999903    2    3    3    0    0  0.11354865241E+00  0.47061932319E-01 -0.43089158862E-01  0.13171871484E+00  0.19621984866E-01 0.  0.
         14    1    1    2    0    0  0.55185249637E-02 -0.21103346901E-01  0.76199575786E-02  0.23105608014E-01  0.00000000000E+00 0.  1.
     999901    1    3    3    0    0 -0.11906717738E+00 -0.25958585418E-01  0.35469201284E-01  0.88910567714E+00  0.88000000000E+00 0.  1.
        -11    1    4    4    0    0  0.60652613219E-01  0.15138352197E-01 -0.18217336766E-01  0.65115602411E-01  0.51100000000E-03 0.  1.
         11    1    4    4    0    0  0.52896039195E-01  0.31923580123E-01 -0.24871822097E-01  0.66603112433E-01  0.51100000000E-03 0. -1.
</event>
<event>
 8    1  0.1092667E+005  0.1043930E+01  0.7957747E-01            NaN
         13   -1    0    0    0    0  0.00000000000E+00  0.00000000000E+00  0.74505805969E-08  0.10566000000E+00  0.10566000000E+00 0.  1.
     999900   -1    0    0    0    0 -0.00000000000E+00 -0.00000000000E+00 -0.74505805969E-08  0.93827000000E+00  0.93827000000E+00 0.  1.
     999902    2    1    2    0    0 -0.20938858309E-01 -0.56716414107E-02 -0.56993949391E-02  0.10215004123E+01  0.10212541338E+01 0.  0.
     999903    2    3    3    0    0 -0.18785201340E-01  0.46532089245E-01  0.11947605536E+00  0.13110793639E+00  0.19915924815E-01 0.  0.
         14    1    1    2    0    0  0.20938858309E-01  0.56716414107E-02  0.56993949391E-02  0.22429587742E-01  0.00000000000E+00 0. -1.
     999901    1    3    3    0    0 -0.21536569693E-02 -0.52203730655E-01 -0.12517545030E+00  0.89039247587E+00  0.88000000000E+00 0.  1.
        -11    1    4    4    0    0 -0.78111686038E-02  0.38089572984E-02  0.31656247818E-01  0.32831412665E-01  0.51100000000E-03 0. -1.
         11    1    4    4    0    0 -0.10974032736E-01  0.42723131946E-01  0.87819807538E-01  0.98276523721E-01  0.51100000000E-03 0.  1.
</event>
<event>
 8    1  0.1092667E+005  0.1043930E+01  0.7957747E-01            NaN
         13   -1    0    0    0    0  0.00000000000E+00  0.00000000000E+00  0.74505805969E-08  0.10566000000E+00  0.10566000000E+00 0.  1.
     999900   -1    0    0    0    0 -0.00000000000E+00 -0.00000000000E+00 -0.74505805969E-08  0.93827000000E+00  0.93827000000E+00 0.  1.
     999902    2    1    2    0    0 -0.12010104982E-01 -0.18024473168E-01 -0.98544284704E-02  0.10201343278E+01  0.10198567609E+01 0.  0.
     999903    2    3    3    0    0  0.15159090204E-02  0.12581755218E+00  0.11553285126E-01  0.12809634010E+00  0.21043752809E-01 0.  0.
         14    1    1    2    0    0  0.12010104982E-01  0.18024473168E-01  0.98544284704E-02  0.23795672193E-01  0.00000000000E+00 0.  1.
     999901    1    3    3    0    0 -0.13526014002E-01 -0.14384202535E+00 -0.21407713597E-01  0.89203798771E+00  0.88000000000E+00 0.  1.
        -11    1    4    4    0    0  0.18022431315E-02  0.34892414457E-01  0.12652065784E-01  0.37162676929E-01  0.51100000000E-03 0. -1.
         11    1    4    4    0    0 -0.28633411106E-03  0.90925137726E-01 -0.10987806573E-02  0.90933663170E-01  0.51100000000E-03 0.  1.
</event>
<event>
 8    1  0.1092667E+005  0.1043930E+01  0.7957747E-01            NaN
         13   -1    0    0    0    0  0.00000000000E+00  0.00000000000E+00  0.74505805969E-08  0.10566000000E+00  0.10566000000E+00 0.  1.
     999900   -1    0    0    0    0 -0.00000000000E+00 -0.00000000000E+00 -0.74505805969E-08  0.93827000000E+00  0.93827000000E+00 0. -1.
     999902    2    1    2    0    0  0.17502433399E-01 -0.11895398954E-01  0.11023026380E-01  0.10200690947E+01  0.10197899858E+01 0.  0.
     999903    2    3    3    0    0 -0.10666421157E+00  0.42645246428E-01  0.54140686139E-01  0.12863700514E+00  0.20503514838E-01 0.  0.
         14    1    1    2    0    0 -0.17502433399E-01  0.11895398954E-01 -0.11023026380E-01  0.23860905300E-01  0.00000000000E+00 0. -1.
     999901    1    3    3    0    0  0.12416664497E+00 -0.54540645382E-01 -0.43117659759E-01  0.89143208956E+00  0.88000000000E+00 0. -1.
        -11    1    4    4    0    0 -0.73859631782E-01  0.32317381186E-01  0.47599068800E-01  0.93624733940E-01  0.51100000000E-03 0. -1.
         11    1    4    4    0    0 -0.32804579793E-01  0.10327865242E-01  0.65416173397E-02  0.35012271196E-01  0.51100000000E-03 0.  1.
</event>
<event>
 8    1  0.1092667E+005  0.1043930E+01  0.7957747E-01            NaN
         13   -1    0    0    0    0  0.00000000000E+00  0.00000000000E+00  0.74505805969E-08  0.10566000000E+00  0.10566000000E+00 0. -1.
     999900   -1    0    0    0    0 -0.00000000000E+00 -0.00000000000E+00 -0.74505805969E-08  0.93827000000E+00  0.93827000000E+00 0. -1.
     999902    2    1    2    0    0 -0.16252474462E-01  0.54306349530E-02 -0.17979240788E-01  0.10190927735E+01  0.10187900633E+01 0.  0.
     999903    2    3    3    0    0  0.90783840941E-01 -0.65080308311E-01 -0.60884724510E-01  0.12877291721E+00  0.19959013528E-01 0.  0.
         14    1    1    2    0    0  0.16252474462E-01 -0.54306349530E-02  0.17979240788E-01  0.24837226525E-01  0.00000000000E+00 0. -1.
     999901    1    3    3    0    0 -0.10703631540E+00  0.70510943264E-01  0.42905483722E-01  0.89031985627E+00  0.88000000000E+00 0. -1.
        -11    1    4    4    0    0  0.58082566002E-01 -0.29515660639E-01 -0.34891522905E-01  0.73908309330E-01  0.51100000000E-03 0.  1.
         11    1    4    4    0    0  0.32701274939E-01 -0.35564647671E-01 -0.25993201606E-01  0.54864607875E-01  0.51100000000E-03 0. -1.
</event>
<event>
 8    1  0.1092667E+005  0.1043930E+01  0.7957747E-01            NaN
         13   -1    0    0    0    0  0.00000000000E+00  0.00000000000E+00  0.74505805969E-08  0.10566000000E+00  0.10566000000E+00 0.  1.
     999900   -1    0    0    0    0 -0.00000000000E+00 -0.00000000000E+00 -0.74505805969E-08  0.93827000000E+00  0.93827000000E+00 0. -1.
     999902    2    1    2    0    0  0.21154132172E-01 -0.14163840101E-02  0.98585984270E-02  0.10205484813E+01  0.10202806023E+01 0.  0.
     999903    2    3    3    0    0 -0.81684625102E-01 -0.51728806009E-01 -0.82074401523E-01  0.12838323528E+00  0.19944933367E-01 0.  0.
         14    1    1    2    0    0 -0.21154132172E-01  0.14163840101E-02 -0.98585984270E-02  0.23381518654E-01  0.00000000000E+00 0. -1.
     999901    1    3    3    0    0  0.10283875727E+00  0.50312421999E-01  0.91932999950E-01  0.89216524606E+00  0.88000000000E+00 0.  1.
        -11    1    4    4    0    0 -0.26740038009E-01 -0.13714387115E-01 -0.37525154903E-01  0.48078190670E-01  0.51100000000E-03 0.  1.
         11    1    4    4    0    0 -0.54944587093E-01 -0.38014418894E-01 -0.44549246620E-01  0.80305044612E-01  0.51100000000E-03 0. -1.
</event>
<event>
 8    1  0.1092667E+005  0.1043930E+01  0.7957747E-01            NaN
         13   -1    0    0    0    0  0.00000000000E+00  0.00000000000E+00  0.74505805969E-08  0.10566000000E+00  0.10566000000E+00 0.  1.
     999900   -1    0    0    0    0 -0.00000000000E+00 -0.00000000000E+00 -0.74505805969E-08  0.93827000000E+00  0.93827000000E+00 0.  1.
     999902    2    1    2    0    0  0.11944561511E-01 -0.14590858267E-02 -0.20346587181E-01  0.10202913644E+01  0.10200174916E+01 0.  0.
     999903    2    3    3    0    0  0.99236110718E-01 -0.80613773526E-01 -0.28710178477E-01  0.13239766089E+00  0.18933570934E-01 0.  0.
         14    1    1    2    0    0 -0.11944561511E-01  0.14590858267E-02  0.20346587181E-01  0.23638635558E-01  0.00000000000E+00 0.  1.
     999901    1    3    3    0    0 -0.87291549208E-01  0.79154687699E-01  0.83635912957E-02  0.88789370355E+00  0.88000000000E+00 0. -1.
        -11    1    4    4    0    0  0.40717927067E-01 -0.39050240149E-01 -0.21022258067E-01  0.60208531750E-01  0.51100000000E-03 0.  1.
         11    1    4    4    0    0  0.58518183652E-01 -0.41563533378E-01 -0.76879204095E-02  0.72189129140E-01  0.51100000000E-03 0. -1.
</event>
<event>
 8    1  0.1092667E+005  0.1043930E+01  0.7957747E-01            NaN
         13   -1    0    0    0    0  0.00000000000E+00  0.00000000000E+00  0.74505805969E-08  0.10566000000E+00  0.10566000000E+00 0. -1.
     999900   -1    0    0    0    0 -0.00000000000E+00 -0.00000000000E+00 -0.74505805969E-08  0.93827000000E+00  0.93827000000E+00 0. -1.
     999902    2    1    2    0    0 -0.25066041645E-01  0.52127585713E-03 -0.45775635059E-02  0.10184440772E+01  0.10181251427E+01 0.  0.
     999903    2    3    3    0    0 -0.86597958875E-01 -0.95960471728E-01 -0.14828412035E-01  0.13097577674E+00  0.15071618187E-01 0.  0.
         14    1    1    2    0    0  0.25066041645E-01 -0.52127585713E-03  0.45775635059E-02  0.25485922779E-01  0.00000000000E+00 0. -1.
     999901    1    3    3    0    0  0.61531917230E-01  0.96481747585E-01  0.10250848529E-01  0.88746830048E+00  0.88000000000E+00 0. -1.
        -11    1    4    4    0    0 -0.58666335977E-01 -0.72254695917E-01 -0.58761543874E-02  0.93259157032E-01  0.51100000000E-03 0. -1.
         11    1    4    4    0    0 -0.27931622898E-01 -0.23705775811E-01 -0.89522576471E-02  0.37716619712E-01  0.51100000000E-03 0.  1.
</event>
<event>
 8    1  0.1092667E+005  0.1043930E+01  0.7957747E-01            NaN
         13   -1    0    0    0    0  0.00000000000E+00  0.00000000000E+00  0.74505805969E-08  0.10566000000E+00  0.10566000000E+00 0. -1.
     999900   -1    0    0    0    0 -0.00000000000E+00 -0.00000000000E+00 -0.74505805969E-08  0.93827000000E+00  0.93827000000E+00 0. -1.
     999902    2    1    2    0    0  0.18147030912E-01 -0.91348610115E-02 -0.11716187614E-01  0.10204772929E+01  0.10202077612E+01 0.  0.
     999903    2    3    3    0    0 -0.54998790766E-01 -0.59187168537E-01 -0.10179595846E+00  0.13144978501E+00  0.19713977709E-01 0.  0.
         14    1    1    2    0    0 -0.18147030912E-01  0.91348610115E-02  0.11716187614E-01  0.23452707068E-01  0.00000000000E+00 0. -1.
     999901    1    3    3    0    0  0.73145821678E-01  0.50052307525E-01  0.90079770843E-01  0.88902750792E+00  0.88000000000E+00 0.  1.
        -11    1    4    4    0    0 -0.37767933293E-01 -0.26408679821E-01 -0.54326744924E-01  0.71242483744E-01  0.51100000000E-03 0. -1.
         11    1    4    4    0    0 -0.17230857473E-01 -0.32778488716E-01 -0.47469213534E-01  0.60207301270E-01  0.51100000000E-03 0.  1.
</event>
<event>
 8    1  0.1092667E+005  0.1043930E+01  0.7957747E-01            NaN
         13   -1    0    0    0    0  0.00000000000E+00  0.00000000000E+00  0.74505805969E-08  0.10566000000E+00  0.10566000000E+00 0. -1.
     999900   -1    0    0    0    0 -0.00000000000E+00 -0.00000000000E+00 -0.74505805969E-08  0.93827000000E+00  0.93827000000E+00 0.  1.
     999902    2    1    2    0    0  0.15622909344E-01  0.11830556552E-01  0.13098376934E-01  0.10203587284E+01  0.10200864325E+01 0.  0.
     999903    2    3    3    0    0  0.62885951194E-01  0.94680260299E-01 -0.63891525125E-01  0.13186263191E+00  0.19662964236E-01 0.  0.
         14    1    1    2    0    0 -0.15622909344E-01 -0.11830556552E-01 -0.13098376934E-01  0.23571271561E-01  0.00000000000E+00 0.  1.
     999901    1    3    3    0    0 -0.47263041851E-01 -0.82849703747E-01  0.76989902059E-01  0.88849609653E+00  0.88000000000E+00 0.  1.
        -11    1    4    4    0    0  0.11660311203E-01  0.14534307116E-01 -0.28903049879E-02  0.18863295699E-01  0.51100000000E-03 0. -1.
         11    1    4    4    0    0  0.51225639991E-01  0.80145953182E-01 -0.61001220137E-01  0.11299933621E+00  0.51100000000E-03 0.  1.
</event>
<event>
 8    1  0.1092667E+005  0.1043930E+01  0.7957747E-01            NaN
         13   -1    0    0    0    0  0.00000000000E+00  0.00000000000E+00  0.74505805969E-08  0.10566000000E+00  0.10566000000E+00 0.  1.
     999900   -1    0    0    0    0 -0.00000000000E+00 -0.00000000000E+00 -0.74505805969E-08  0.93827000000E+00  0.93827000000E+00 0. -1.
     999902    2    1    2    0    0  0.24217872673E-01  0.69312871609E-02 -0.12620988160E-01  0.10157548790E+01  0.10153640415E+01 0.  0.
     999903    2    3    3    0    0  0.90399185809E-01 -0.38304763338E-01  0.78665227106E-01  0.12740841535E+00  0.20135010711E-01 0.  0.
         14    1    1    2    0    0 -0.24217872673E-01 -0.69312871609E-02  0.12620988160E-01  0.28175120951E-01  0.00000000000E+00 0.  1.
     999901    1    3    3    0    0 -0.66181313137E-01  0.45236050499E-01 -0.91286215266E-01  0.88834646370E+00  0.88000000000E+00 0. -1.
        -11    1    4    4    0    0  0.28075679814E-01 -0.11460207711E-01  0.13063980372E-01  0.33022853632E-01  0.51100000000E-03 0. -1.
         11    1    4    4    0    0  0.62323505995E-01 -0.26844555627E-01  0.65601246734E-01  0.94385561716E-01  0.51100000000E-03 0.  1.
</event>
<event>
 8    1  0.1092667E+005  0.1043930E+01  0.7957747E-01            NaN
         13   -1    0    0    0    0  0.00000000000E+00  0.00000000000E+00  0.74505805969E-08  0.10566000000E+00  0.10566000000E+00 0.  1.
     999900   -1    0    0    0    0 -0.00000000000E+00 -0.00000000000E+00 -0.74505805969E-08  0.93827000000E+00  0.93827000000E+00 0.  1.
     999902    2    1    2    0    0  0.95165069717E-02  0.21134629989E-01  0.58775693859E-02  0.10200180300E+01  0.10197377109E+01 0.  0.
     999903    2    3    3    0    0  0.80972378539E-02  0.12862053357E+00  0.26725736271E-01  0.13323176492E+00  0.20679247751E-01 0.  0.
         14    1    1    2    0    0 -0.95165069717E-02 -0.21134629989E-01 -0.58775693859E-02  0.23911970048E-01  0.00000000000E+00 0.  1.
     999901    1    3    3    0    0  0.14192691178E-02 -0.10748590358E+00 -0.20848166885E-01  0.88678626504E+00  0.88000000000E+00 0. -1.
        -11    1    4    4    0    0  0.10707482234E-01  0.74017724589E-01  0.23801884529E-01  0.78486078748E-01  0.51100000000E-03 0. -1.
         11    1    4    4    0    0 -0.26102443798E-02  0.54602808978E-01  0.29238517419E-02  0.54745686169E-01  0.51100000000E-03 0.  1.
</event>
<event>
 8    1  0.1092667E+005  0.1043930E+01  0.7957747E-01            NaN
         13   -1    0    0    0    0  0.00000000000E+00  0.00000000000E+00  0.74505805969E-08  0.10566000000E+00  0.10566000000E+00 0. -1.
     999900   -1    0    0    0    0 -0.00000000000E+00 -0.00000000000E+00 -0.74505805969E-08  0.93827000000E+00  0.93827000000E+00 0. -1.
     999902    2    1    2    0    0 -0.22969985331E-01 -0.44093364497E-02  0.29893766835E-02  0.10203503722E+01  0.10200778810E+01 0.  0.
     999903    2    3    3    0    0  0.11676881865E+00 -0.35345619250E-01 -0.34099561477E-01  0.12801659146E+00  0.18471539898E-01 0.  0.
         14    1    1    2    0    0  0.22969985331E-01  0.44093364497E-02 -0.29893766835E-02  0.23579627796E-01  0.00000000000E+00 0. -1.
     999901    1    3    3    0    0 -0.13973880398E+00  0.30936282801E-01  0.37088938161E-01  0.89233378075E+00  0.88000000000E+00 0. -1.
        -11    1    4    4    0    0  0.74999673223E-01 -0.13375329839E-01 -0.20296226358E-01  0.78841920050E-01  0.51100000000E-03 0.  1.
         11    1    4    4    0    0  0.41769145426E-01 -0.21970289411E-01 -0.13803335119E-01  0.49174671406E-01  0.51100000000E-03 0. -1.
</event>
<event>
 8    1  0.1092667E+005  0.1043930E+01  0.7957747E-01            NaN
         13   -1    0    0    0    0  0.00000000000E+00  0.00000000000E+00  0.74505805969E-08  0.10566000000E+00  0.10566000000E+00 0. -1.
     999900   -1    0    0    0    0 -0.00000000000E+00 -0.00000000000E+00 -0.74505805969E-08  0.93827000000E+00  0.93827000000E+00 0. -1.
     999902    2    1    2    0    0 -0.56700428806E-02  0.11823402242E-01  0.18411613306E-01  0.10213262452E+01  0.10210760840E+01 0.  0.
     999903    2    3    3    0    0 -0.36050035332E-01 -0.10988192564E+00 -0.56007962809E-01  0.12932097386E+00  0.14607523844E-01 0.  0.
         14    1    1    2    0    0  0.56700428806E-02 -0.11823402242E-01 -0.18411613306E-01  0.22603754806E-01  0.00000000000E+00 0.  1.
     999901    1    3    3    0    0  0.30379992452E-01  0.12170532788E+00  0.74419576114E-01  0.89200527133E+00  0.88000000000E+00 0.  1.
        -11    1    4    4    0    0 -0.12807081392E-01 -0.29627993879E-01 -0.22244190442E-01  0.39203373382E-01  0.51100000000E-03 0. -1.
         11    1    4    4    0    0 -0.23242953940E-01 -0.80253931759E-01 -0.33763772367E-01  0.90117600479E-01  0.51100000000E-03 0.  1.
</event>
<event>
 8    1  0.1092667E+005  0.1043930E+01  0.7957747E-01            NaN
         13   -1    0    0    0    0  0.00000000000E+00  0.00000000000E+00  0.74505805969E-08  0.10566000000E+00  0.10566000000E+00 0. -1.
     999900   -1    0    0    0    0 -0.00000000000E+00 -0.00000000000E+00 -0.74505805969E-08  0.93827000000E+00  0.93827000000E+00 0. -1.
     999902    2    1    2    0    0 -0.18140303089E-01  0.14341959225E-01 -0.22174935738E-02  0.10206989934E+01  0.10204345915E+01 0.  0.
     999903    2    3    3    0    0  0.72524714532E-01 -0.95147477393E-01 -0.42113882147E-01  0.12839870538E+00  0.19994294233E-01 0.  0.
         14    1    1    2    0    0  0.18140303089E-01 -0.14341959225E-01  0.22174935738E-02  0.23231006615E-01  0.00000000000E+00 0. -1.
     999901    1    3    3    0    0 -0.90665017621E-01  0.10948943662E+00  0.39896388573E-01  0.89230028800E+00  0.88000000000E+00 0.  1.
        -11    1    4    4    0    0  0.22576442272E-01 -0.41800381791E-01 -0.98954766577E-02  0.48529879897E-01  0.51100000000E-03 0. -1.
         11    1    4    4    0    0  0.49948272260E-01 -0.53347095602E-01 -0.32218405490E-01  0.79868825484E-01  0.51100000000E-03 0.  1.
</event>
<event>
 8    1  0.1092667E+005  0.1043930E+01  0.7957747E-01            NaN
         13   -1    0    0    0    0  0.00000000000E+00  0.00000000000E+00  0.74505805969E-08  0.10566000000E+00  0.10566000000E+00 0.  1.
     999900   -1    0    0    0    0 -0.00000000000E+00 -0.00000000000E+00 -0.74505805969E-08  0.93827000000E+00  0.93827000000E+00 0. -1.
     999902    2    1    2    0    0 -0.18946349739E-01  0.83396805909E-02  0.86336440968E-02  0.10215011291E+01  0.10212548665E+01 0.  0.
     999903    2    3    3    0    0  0.14860960202E-01 -0.11156110004E+00 -0.61453555890E-01  0.12996798498E+00  0.21175703293E-01 0.  0.
         14    1    1    2    0    0  0.18946349739E-01 -0.83396805909E-02 -0.86336440968E-02  0.22428870930E-01  0.00000000000E+00 0.  1.
     999901    1    3    3    0    0 -0.33807309941E-01  0.11990078063E+00  0.70087199986E-01  0.89153314409E+00  0.88000000000E+00 0. -1.
        -11    1    4    4    0    0 -0.47508379858E-02 -0.22143430274E-01 -0.16195272730E-01  0.27846901904E-01  0.51100000000E-03 0.  1.
         11    1    4    4    0    0  0.19611798188E-01 -0.89417669763E-01 -0.45258283159E-01  0.10212108308E+00  0.51100000000E-03 0. -1.
</event>
<event>
 8    1  0.1092667E+005  0.1043930E+01  0.7957747E-01            NaN
         13   -1    0    0    0    0  0.00000000000E+00  0.00000000000E+00  0.74505805969E-08  0.10566000000E+00  0.10566000000E+00 0. -1.
     999900   -1    0    0    0    0 -0.00000000000E+00 -0.00000000000E+00 -0.74505805969E-08  0.93827000000E+00  0.93827000000E+00 0.  1.
     999902    2    1    2    0    0  0.19142630328E-01 -0.67993927613E-02  0.14069803219E-01  0.10192190429E+01  0.10189194404E+01 0.  0.
     999903    2    3    3    0    0  0.45754504448E-01 -0.75414730992E-01 -0.92949829103E-01  0.12968576181E+00  0.19946672834E-01 0.  0.
         14    1    1    2    0    0 -0.19142630328E-01  0.67993927613E-02 -0.14069803219E-01  0.24710957092E-01  0.00000000000E+00 0.  1.
     999901    1    3    3    0    0 -0.26611874119E-01  0.68615338231E-01  0.10701963232E+00  0.88953328110E+00  0.88000000000E+00 0. -1.
        -11    1    4    4    0    0  0.12963545551E-01 -0.11008973748E-01 -0.26585503752E-01  0.31564238419E-01  0.51100000000E-03 0.  1.
         11    1    4    4    0    0  0.32790958897E-01 -0.64405757244E-01 -0.66364325351E-01  0.98121523387E-01  0.51100000000E-03 0. -1.
</event>
<event>
 8    1  0.1092667E+005  0.1043930E+01  0.7957747E-01            NaN
         13   -1    0    0    0    0  0.00000000000E+00  0.00000000000E+00  0.74505805969E-08  0.10566000000E+00  0.10566000000E+00 0.  1.
     999900   -1    0    0    0    0 -0.00000000000E+00 -0.00000000000E+00 -0.74505805969E-08  0.93827000000E+00  0.93827000000E+00 0.  1.
     999902    2    1    2    0    0 -0.11146216949E-01 -0.62195340528E-02  0.18037242662E-01  0.10218333288E+01  0.10215943857E+01 0.  0.
     999903    2    3    3    0    0  0.19450023558E-01 -0.81785893177E-01 -0.98191564368E-01  0.13045487933E+00  0.17597059085E-01 0.  0.
         14    1    1    2    0    0  0.11146216949E-01  0.62195340528E-02 -0.18037242662E-01  0.22096671219E-01  0.00000000000E+00 0. -1.
     999901    1    3    3    0    0 -0.30596240507E-01  0.75566359124E-01  0.11622880703E+00  0.89137844945E+00  0.88000000000E+00 0. -1.
        -11    1    4    4    0    0  0.21048422774E-02 -0.15135418183E-01 -0.89117213363E-02  0.17697207202E-01  0.51100000000E-03 0. -1.
         11    1    4    4    0    0  0.17345181281E-01 -0.66650474994E-01 -0.89279843032E-01  0.11275767213E+00  0.51100000000E-03 0.  1.
</event>
<event>
 8    1  0.1092667E+005  0.1043930E+01  0.7957747E-01            NaN
         13   -1    0    0    0    0  0.00000000000E+00  0.00000000000E+00  0.74505805969E-08  0.10566000000E+00  0.10566000000E+00 0. -1.
     999900   -1    0    0    0    0 -0.00000000000E+00 -0.00000000000E+00 -0.74505805969E-08  0.93827000000E+00  0.93827000000E+00 0.  1.
     999902    2    1    2    0    0 -0.64582239947E-02 -0.17213194711E-02 -0.22963237407E-01  0.10200138575E+01  0.10197334395E+01 0.  0.
     999903    2    3    3    0    0  0.12819473869E-01 -0.12477211981E+00 -0.30046877308E-01  0.13121505744E+00  0.24127902344E-01 0.  0.
         14    1    1    2    0    0  0.64582239947E-02  0.17213194711E-02  0.22963237407E-01  0.23916142459E-01  0.00000000000E+00 0. -1.
     999901    1    3    3    0    0 -0.19277697864E-01  0.12305080034E+00  0.70836399003E-02  0.88879880010E+00  0.88000000000E+00 0.  1.
        -11    1    4    4    0    0  0.11841114212E-01 -0.39701305345E-01 -0.14445293661E-02  0.41457851102E-01  0.51100000000E-03 0.  1.
         11    1    4    4    0    0  0.97835965721E-03 -0.85070814467E-01 -0.28602347941E-01  0.89757206343E-01  0.51100000000E-03 0. -1.
</event>
<event>
 8    1  0.1092667E+005  0.1043930E+01  0.7957747E-01            NaN
         13   -1    0    0    0    0  0.00000000000E+00  0.00000000000E+00  0.74505805969E-08  0.10566000000E+00  0.10566000000E+00 0. -1.
     999900   -1    0    0    0    0 -0.00000000000E+00 -0.00000000000E+00 -0.74505805969E-08  0.93827000000E+00  0.93827000000E+00 0.  1.
     999902    2    1    2    0    0  0.30099333364E-02  0.22652682380E-01 -0.35597226084E-02  0.10208026278E+01  0.10205406066E+01 0.  0.
     999903    2    3    3    0    0 -0.23349674430E-01 -0.40310272590E-01 -0.12126181212E+00  0.13034603458E+00  0.10748780420E-01 0.  0.
         14    1    1    2    0    0 -0.30099333364E-02 -0.22652682380E-01  0.35597226084E-02  0.23127372154E-01  0.00000000000E+00 0.  1.
     999901    1    3    3    0    0  0.26359607766E-01  0.62962954970E-01  0.11770208951E+00  0.89045659327E+00  0.88000000000E+00 0. -1.
        -11    1    4    4    0    0 -0.15639019362E-01 -0.34686705332E-01 -0.91852406388E-01  0.99422694259E-01  0.51100000000E-03 0. -1.
         11    1    4    4    0    0 -0.77106550675E-02 -0.56235672577E-02 -0.29409405727E-01  0.30923340319E-01  0.51100000000E-03 0.  1.
</event>
<event>
 8    1  0.1092667E+005  0.1043930E+01  0.7957747E-01            NaN
         13   -1    0    0    0    0  0.00000000000E+00  0.00000000000E+00  0.74505805969E-08  0.10566000000E+00  0.10566000000E+00 0.  1.
     999900   -1    0    0    0    0 -0.00000000000E+00 -0.00000000000E+00 -0.74505805969E-08  0.93827000000E+00  0.93827000000E+00 0.  1.
     999902    2    1    2    0    0 -0.35234683131E-02  0.87353969851E-02  0.20880295942E-01  0.10210234780E+01  0.10207664934E+01 0.  0.
     999903    2    3    3    0    0  0.11887870568E+00  0.43160935131E-01 -0.24006137775E-01  0.13075261937E+00  0.22911565519E-01 0.  0.
         14    1    1    2    0    0  0.35234683131E-02 -0.87353969851E-02 -0.20880295942E-01  0.22906521955E-01  0.00000000000E+00 0. -1.
     999901    1    3    3    0    0 -0.12240217400E+00 -0.34425538146E-01  0.44886433717E-01  0.89027085868E+00  0.88000000000E+00 0. -1.
        -11    1    4    4    0    0  0.58827791108E-01  0.30523889749E-01 -0.20108834847E-01  0.69260690236E-01  0.51100000000E-03 0. -1.
         11    1    4    4    0    0  0.60050914576E-01  0.12637045382E-01 -0.38973029279E-02  0.61491929133E-01  0.51100000000E-03 0.  1.
</event>
<event>
 8    1  0.1092667E+005  0.1043930E+01  0.7957747E-01            NaN
         13   -1    0    0    0    0  0.00000000000E+00  0.00000000000E+00  0.74505805969E-08  0.10566000000E+00  0.10566000000E+00 0.  1.
     999900   -1    0    0    0    0 -0.00000000000E+00 -0.00000000000E+00 -0.74505805969E-08  0.93827000000E+00  0.93827000000E+00 0.  1.
     999902    2    1    2    0    0 -0.22003356549E-01  0.63675527228E-02 -0.55416206536E-02  0.10203630107E+01  0.10200908148E+01 0.  0.
     999903    2    3    3    0    0  0.51653233946E-01 -0.20654300238E-01 -0.11586514726E+00  0.13001097108E+00  0.19582225544E-01 0.  0.
         14    1    1    2    0    0  0.22003356549E-01 -0.63675527228E-02  0.55416206536E-02  0.23566989340E-01  0.00000000000E+00 0. -1.
     999901    1    3    3    0    0 -0.73656590495E-01  0.27021852961E-01  0.11032352660E+00  0.89035203958E+00  0.88000000000E+00 0.  1.
        -11    1    4    4    0    0  0.37351447367E-01 -0.23329631758E-01 -0.80369652774E-01  0.91645755747E-01  0.51100000000E-03 0. -1.
         11    1    4    4    0    0  0.14301786579E-01  0.26753315200E-02 -0.35495494482E-01  0.38365215333E-01  0.51100000000E-03 0.  1.
</event>
<event>
 8    1  0.1092667E+005  0.1043930E+01  0.7957747E-01            NaN
         13   -1    0    0    0    0  0.00000000000E+00  0.00000000000E+00  0.74505805969E-08  0.10566000000E+00  0.10566000000E+00 0. -1.
     999900   -1    0    0    0    0 -0.00000000000E+00 -0.00000000000E+00 -0.74505805969E-08  0.93827000000E+00  0.93827000000E+00 0.  1.
     999902    2    1    2    0    0 -0.15377187835E-01  0.16592978945E-01 -0.80983293478E-02  0.10199015212E+01  0.10196184311E+01 0.  0.
     999903    2    3    3    0    0 -0.16409361008E-01  0.74798989101E-01  0.10396765754E+00  0.13088645359E+00  0.21397056300E-01 0.  0.
         14    1    1    2    0    0  0.15377187835E-01 -0.16592978945E-01  0.80983293478E-02  0.24028478815E-01  0.00000000000E+00 0. -1.
     999901    1    3    3    0    0  0.10321731729E-02 -0.58206010157E-01 -0.11206598689E+00  0.88901506760E+00  0.88000000000E+00 0. -1.
        -11    1    4    4    0    0  0.30108257973E-02  0.30616169520E-01  0.33625910260E-01  0.45578260935E-01  0.51100000000E-03 0. -1.
         11    1    4    4    0    0 -0.19420186805E-01  0.44182819582E-01  0.70341747282E-01  0.85308192651E-01  0.51100000000E-03 0.  1.
</event>
<event>
 8    1  0.1092667E+005  0.1043930E+01  0.7957747E-01            NaN
         13   -1    0    0    0    0  0.00000000000E+00  0.00000000000E+00  0.74505805969E-08  0.10566000000E+00  0.10566000000E+00 0. -1.
     999900   -1    0    0    0    0 -0.00000000000E+00 -0.00000000000E+00 -0.74505805969E-08  0.93827000000E+00  0.93827000000E+00 0.  1.
     999902    2    1    2    0    0  0.17668275591E-02  0.23126836376E-01 -0.18455232125E-02  0.10206624648E+01  0.10203972211E+01 0.  0.
     999903    2    3    3    0    0 -0.12571564346E+00  0.26669345030E-01  0.17113364180E-01  0.13126729432E+00  0.20556224087E-01 0.  0.
         14    1    1    2    0    0 -0.17668275591E-02 -0.23126836376E-01  0.18455232125E-02  0.23267535243E-01  0.00000000000E+00 0.  1.
     999901    1    3    3    0    0  0.12748247102E+00 -0.35425086544E-02 -0.18958887393E-01  0.88939517044E+00  0.88000000000E+00 0.  1.
        -11    1    4    4    0    0 -0.70606223629E-01  0.62572278863E-02  0.36747058873E-02  0.70979971121E-01  0.51100000000E-03 0.  1.
         11    1    4    4    0    0 -0.55109419834E-01  0.20412117144E-01  0.13438658293E-01  0.60287323199E-01  0.51100000000E-03 0. -1.
</event>
<event>
 8    1  0.1092667E+005  0.1043930E+01  0.7957747E-01            NaN
         13   -1    0    0    0    0  0.00000000000E+00  0.00000000000E+00  0.74505805969E-08  0.10566000000E+00  0.10566000000E+00 0. -1.
     999900   -1    0    0    0    0 -0.00000000000E+00 -0.00000000000E+00 -0.74505805969E-08  0.93827000000E+00  0.93827000000E+00 0.  1.
     999902    2    1    2    0    0  0.21020287966E-01 -0.10729853821E-01  0.62515230191E-02  0.10195155819E+01  0.10192232130E+01 0.  0.
     999903    2    3    3    0    0  0.51721764149E-01 -0.36790463143E-01  0.11418725295E+00  0.13200678886E+00  0.18931046025E-01 0.  0.
         14    1    1    2    0    0 -0.21020287966E-01  0.10729853821E-01 -0.62515230191E-02  0.24414418061E-01  0.00000000000E+00 0.  1.
     999901    1    3    3    0    0 -0.30701476183E-01  0.26060609322E-01 -0.10793572993E+00  0.88750879308E+00  0.88000000000E+00 0.  1.
        -11    1    4    4    0    0  0.10697947059E-01  0.57394620295E-03  0.17387437473E-01  0.20429380519E-01  0.51100000000E-03 0.  1.
         11    1    4    4    0    0  0.41023817089E-01 -0.37364409346E-01  0.96799815477E-01  0.11157740834E+00  0.51100000000E-03 0. -1.
</event>
<event>
 8    1  0.1092667E+005  0.1043930E+01  0.7957747E-01            NaN
         13   -1    0    0    0    0  0.00000000000E+00  0.00000000000E+00  0.74505805969E-08  0.10566000000E+00  0.10566000000E+00 0. -1.
     999900   -1    0    0    0    0 -0.00000000000E+00 -0.00000000000E+00 -0.74505805969E-08  0.93827000000E+00  0.93827000000E+00 0. -1.
     999902    2    1    2    0    0  0.49108157677E-02 -0.10864777239E-01  0.20191069094E-01  0.10204813589E+01  0.10202119217E+01 0.  0.
     999903    2    3    3    0    0 -0.12718880092E+00 -0.19633097882E-01  0.84406569439E-02  0.13050087357E+00  0.19919430250E-01 0.  0.
         14    1    1    2    0    0 -0.49108157677E-02  0.10864777239E-01 -0.20191069094E-01  0.23448641051E-01  0.00000000000E+00 0.  1.
     999901    1    3    3    0    0  0.13209961668E+00  0.87683206432E-02  0.11750412151E-01  0.88998048538E+00  0.88000000000E+00 0. -1.
        -11    1    4    4    0    0 -0.33405623198E-02  0.24832980247E-02 -0.10864005965E-02  0.43321487680E-02  0.51100000000E-03 0.  1.
         11    1    4    4    0    0 -0.12384823860E+00 -0.22116395907E-01  0.95270575404E-02  0.12616872480E+00  0.51100000000E-03 0. -1.
</event>
<event>
 8    1  0.1092667E+005  0.1043930E+01  0.7957747E-01            NaN
         13   -1    0    0    0    0  0.00000000000E+00  0.00000000000E+00  0.74505805969E-08  0.10566000000E+00  0.10566000000E+00 0.  1.
     999900   -1    0    0    0    0 -0.00000000000E+00 -0.00000000000E+00 -0.74505805969E-08  0.93827000000E+00  0.93827000000E+00 0.  1.
     999902    2    1    2    0    0 -0.26455924445E-01  0.56449639195E-02 -0.11990460073E-01  0.10143402604E+01  0.10139085813E+01 0.  0.
     999903    2    3    3    0    0 -0.68016336877E-01  0.10268118613E-01  0.10348714930E+00  0.12581129651E+00  0.19678310829E-01 0.  0.
         14    1    1    2    0    0  0.26455924445E-01 -0.56449639195E-02  0.11990460073E-01  0.29589739584E-01  0.00000000000E+00 0.  1.
     999901    1    3    3    0    0  0.41560412432E-01 -0.46231546932E-02 -0.11547760937E+00  0.88852896391E+00  0.88000000000E+00 0.  1.
        -11    1    4    4    0    0 -0.75907256442E-02 -0.49961692432E-02  0.15736588124E-01  0.18179168015E-01  0.51100000000E-03 0. -1.
         11    1    4    4    0    0 -0.60425611233E-01  0.15264287856E-01  0.87750561171E-01  0.10763212849E+00  0.51100000000E-03 0.  1.
</event>
<event>
 8    1  0.1092667E+005  0.1043930E+01  0.7957747E-01            NaN
         13   -1    0    0    0    0  0.00000000000E+00  0.00000000000E+00  0.74505805969E-08  0.10566000000E+00  0.10566000000E+00 0. -1.
     999900   -1    0    0    0    0 -0.00000000000E+00 -0.00000000000E+00 -0.74505805969E-08  0.93827000000E+00  0.93827000000E+00 0. -1.
     999902    2    1    2    0    0  0.89324852184E-02 -0.19959779653E-01 -0.46385768555E-02  0.10215760632E+01  0.10213314616E+01 0.  0.
     999903    2    3    3    0    0  0.11756930858E+00 -0.61026503446E-01  0.14434328145E-02  0.13392442767E+00  0.19669580155E-01 0.  0.
         14    1    1    2    0    0 -0.89324852184E-02  0.19959779653E-01  0.46385768555E-02  0.22353936817E-01  0.00000000000E+00 0. -1.
     999901    1    3    3    0    0 -0.10863682337E+00  0.41066723793E-01 -0.60820096700E-02  0.88765163552E+00  0.88000000000E+00 0.  1.
        -11    1    4    4    0    0  0.12651484974E-01 -0.53449641878E-03  0.19016472591E-02  0.12814957735E-01  0.51100000000E-03 0.  1.
         11    1    4    4    0    0  0.10491782361E+00 -0.60492007027E-01 -0.45821444459E-03  0.12110946993E+00  0.51100000000E-03 0. -1.
</event>
<event>
 8    1  0.1092667E+005  0.1043930E+01  0.7957747E-01            NaN
         13   -1    0    0    0    0  0.00000000000E+00  0.00000000000E+00  0.74505805969E-08  0.10566000000E+00  0.10566000000E+00 0. -1.
     999900   -1    0    0    0    0 -0.00000000000E+00 -0.00000000000E+00 -0.74505805969E-08  0.93827000000E+00  0.93827000000E+00 0. -1.
     999902    2    1    2    0    0 -0.15502020382E-01 -0.11980976701E-01  0.12544169772E-01  0.10206660228E+01  0.10204008612E+01 0.  0.
     999903    2    3    3    0    0  0.66905866734E-01 -0.11340130554E-01 -0.10772804521E+00  0.12867001598E+00  0.18591603509E-01 0.  0.
         14    1    1    2    0    0  0.15502020382E-01  0.11980976701E-01 -0.12544169772E-01  0.23263977173E-01  0.00000000000E+00 0.  1.
     999901    1    3    3    0    0 -0.82407887115E-01 -0.64084614655E-03  0.12027221499E+00  0.89199600685E+00  0.88000000000E+00 0.  1.
        -11    1    4    4    0    0  0.28441882515E-01  0.36921690802E-02 -0.37728130502E-01  0.47394575066E-01  0.51100000000E-03 0.  1.
         11    1    4    4    0    0  0.38463984219E-01 -0.15032299634E-01 -0.69999914712E-01  0.81275440909E-01  0.51100000000E-03 0. -1.
</event>
<event>
 8    1  0.1092667E+005  0.1043930E+01  0.7957747E-01            NaN
         13   -1    0    0    0    0  0.00000000000E+00  0.00000000000E+00  0.74505805969E-08  0.10566000000E+00  0.10566000000E+00 0. -1.
     999900   -1    0    0    0    0 -0.00000000000E+00 -0.00000000000E+00 -0.74505805969E-08  0.93827000000E+00  0.93827000000E+00 0. -1.
     999902    2    1    2    0    0  0.13369651165E-02 -0.14618492986E-01 -0.18798531778E-01  0.10200789495E+01  0.10198000738E+01 0.  0.
     999903    2    3    3    0    0 -0.34244346518E-01 -0.95373105731E-01 -0.84174458422E-01  0.13325238867E+00  0.20053804361E-01 0.  0.
         14    1    1    2    0    0 -0.13369651165E-02  0.14618492986E-01  0.18798531778E-01  0.23851050499E-01  0.00000000000E+00 0. -1.
     999901    1    3    3    0    0  0.35581311635E-01  0.80754612745E-01  0.65375926643E-01  0.88682656083E+00  0.88000000000E+00 0.  1.
        -11    1    4    4    0    0 -0.15557990692E-01 -0.24713301675E-01 -0.32761735989E-01  0.43890668941E-01  0.51100000000E-03 0. -1.
         11    1    4    4    0    0 -0.18686355826E-01 -0.70659804056E-01 -0.51412722433E-01  0.89361719725E-01  0.51100000000E-03 0.  1.
</event>
<event>
 7    1  0.1092667E+005  0.1043930E+01  0.7957747E-01            NaN
         13   -1    0    0    0    0  0.00000000000E+00  0.00000000000E+00  0.74505805969E-08  0.10566000000E+00  0.10566000000E+00 0.  1.
     999900   -1    0    0    0    0 -0.00000000000E+00 -0.00000000000E+00 -0.74505805969E-08  0.93827000000E+00  0.93827000000E+00 0. -1.
     999903    2    1    2    0    0 -0.64827696389E-01  0.41899862415E-01 -0.45903489705E-01  0.91915149724E-01  0.19571297665E-01 0.  0.
         14    1    1    2    0    0 -0.60137660626E-01 -0.45201173074E-02 -0.76475058691E-02  0.60790246192E-01  0.00000000000E+00 0. -1.
     999901    1    1    2    0    0  0.12496535701E+00 -0.37379745108E-01  0.53550995574E-01  0.89122460408E+00  0.88000000000E+00 0. -1.
        -11    1    3    3    0    0 -0.24327972709E-01  0.74308797801E-02 -0.21878604672E-01  0.33555963611E-01  0.51100000000E-03 0.  1.
         11    1    3    3    0    0 -0.40499723680E-01  0.34468982635E-01 -0.24024885033E-01  0.58359186114E-01  0.51100000000E-03 0. -1.
</event>
<event>
 8    1  0.1092667E+005  0.1043930E+01  0.7957747E-01            NaN
         13   -1    0    0    0    0  0.00000000000E+00  0.00000000000E+00  0.74505805969E-08  0.10566000000E+00  0.10566000000E+00 0. -1.
     999900   -1    0    0    0    0 -0.00000000000E+00 -0.00000000000E+00 -0.74505805969E-08  0.93827000000E+00  0.93827000000E+00 0. -1.
     999902    2    1    2    0    0 -0.81443451444E-02  0.11624272217E-01 -0.18839505980E-01  0.10203422691E+01  0.10200695884E+01 0.  0.
     999903    2    3    3    0    0 -0.11131817802E+00 -0.32310085299E-01  0.55376446333E-01  0.13012708438E+00  0.20756418595E-01 0.  0.
         14    1    1    2    0    0  0.81443451444E-02 -0.11624272217E-01  0.18839505980E-01  0.23587730879E-01  0.00000000000E+00 0. -1.
     999901    1    3    3    0    0  0.10317383287E+00  0.43934357516E-01 -0.74215952313E-01  0.89021518474E+00  0.88000000000E+00 0. -1.
        -11    1    4    4    0    0 -0.61864525738E-01 -0.27918688747E-01  0.27941641334E-01  0.73400743645E-01  0.51100000000E-03 0. -1.
         11    1    4    4    0    0 -0.49453652278E-01 -0.43913965518E-02  0.27434804998E-01  0.56726340739E-01  0.51100000000E-03 0.  1.
</event>
<event>
 8    1  0.1092667E+005  0.1043930E+01  0.7957747E-01            NaN
         13   -1    0    0    0    0  0.00000000000E+00  0.00000000000E+00  0.74505805969E-08  0.10566000000E+00  0.10566000000E+00 0.  1.
     999900   -1    0    0    0    0 -0.00000000000E+00 -0.00000000000E+00 -0.74505805969E-08  0.93827000000E+00  0.93827000000E+00 0. -1.
     999902    2    1    2    0    0  0.45004725546E-02  0.10882973933E-01 -0.19897063632E-01  0.10208088730E+01  0.10205469948E+01 0.  0.
     999903    2    3    3    0    0  0.61056320255E-01 -0.11187016401E+00 -0.20325372062E-01  0.13049034555E+00  0.19282159962E-01 0.  0.
         14    1    1    2    0    0 -0.45004725546E-02 -0.10882973933E-01  0.19897063632E-01  0.23121127049E-01  0.00000000000E+00 0.  1.
     999901    1    3    3    0    0 -0.56555847700E-01  0.12275313795E+00  0.42830842952E-03  0.89031852740E+00  0.88000000000E+00 0. -1.
        -11    1    4    4    0    0  0.11256172605E-01 -0.22497808444E-01  0.36005655558E-02  0.25418064439E-01  0.51100000000E-03 0.  1.
         11    1    4    4    0    0  0.49800147650E-01 -0.89372355570E-01 -0.23925937618E-01  0.10507228111E+00  0.51100000000E-03 0. -1.
</event>
<event>
 8    1  0.1092667E+005  0.1043930E+01  0.7957747E-01            NaN
         13   -1    0    0    0    0  0.00000000000E+00  0.00000000000E+00  0.74505805969E-08  0.10566000000E+00  0.10566000000E+00 0. -1.
     999900   -1    0    0    0    0 -0.00000000000E+00 -0.00000000000E+00 -0.74505805969E-08  0.93827000000E+00  0.93827000000E+00 0. -1.
     999902    2    1    2    0    0  0.16198156334E-01  0.12672057227E-01 -0.10649898879E-01  0.10207700853E+01  0.10205073177E+01 0.  0.
     999903    2    3    3    0    0 -0.46619939438E-01 -0.87653339617E-01  0.79160242298E-01  0.12831439459E+00  0.18485486203E-01 0.  0.
         14    1    1    2    0    0 -0.16198156334E-01 -0.12672057227E-01  0.10649898879E-01  0.23159914704E-01  0.00000000000E+00 0. -1.
     999901    1    3    3    0    0  0.62818095771E-01  0.10032539684E+00 -0.89810141177E-01  0.89245569070E+00  0.88000000000E+00 0. -1.
        -11    1    4    4    0    0 -0.23428402749E-01 -0.50852730717E-01  0.55307562310E-01  0.78702464043E-01  0.51100000000E-03 0. -1.
         11    1    4    4    0    0 -0.23191536688E-01 -0.36800608900E-01  0.23852679988E-01  0.49611930551E-01  0.51100000000E-03 0.  1.
</event>
<event>
 8    1  0.1092667E+005  0.1043930E+01  0.7957747E-01            NaN
         13   -1    0    0    0    0  0.00000000000E+00  0.00000000000E+00  0.74505805969E-08  0.10566000000E+00  0.10566000000E+00 0.  1.
     999900   -1    0    0    0    0 -0.00000000000E+00 -0.00000000000E+00 -0.74505805969E-08  0.93827000000E+00  0.93827000000E+00 0.  1.
     999902    2    1    2    0    0 -0.18881782825E-01 -0.74951251804E-02 -0.54369906620E-02  0.10229000335E+01  0.10226838314E+01 0.  0.
     999903    2    3    3    0    0 -0.26128625735E-01 -0.40849271318E-01 -0.12377487882E+00  0.13432315354E+00  0.19264498473E-01 0.  0.
         14    1    1    2    0    0  0.18881782825E-01  0.74951251804E-02  0.54369906620E-02  0.21029966514E-01  0.00000000000E+00 0.  1.
     999901    1    3    3    0    0  0.72468429107E-02  0.33354146138E-01  0.11833788816E+00  0.88857687994E+00  0.88000000000E+00 0. -1.
        -11    1    4    4    0    0 -0.22846028714E-01 -0.25334007759E-01 -0.64575811585E-01  0.73034577702E-01  0.51100000000E-03 0.  1.
         11    1    4    4    0    0 -0.32825970212E-02 -0.15515263559E-01 -0.59199067232E-01  0.61288575841E-01  0.51100000000E-03 0. -1.
</event>
<event>
 8    1  0.1092667E+005  0.1043930E+01  0.7957747E-01            NaN
         13   -1    0    0    0    0  0.00000000000E+00  0.00000000000E+00  0.74505805969E-08  0.10566000000E+00  0.10566000000E+00 0.  1.
     999900   -1    0    0    0    0 -0.00000000000E+00 -0.00000000000E+00 -0.74505805969E-08  0.93827000000E+00  0.93827000000E+00 0. -1.
     999902    2    1    2    0    0  0.21185622695E-01 -0.10358508532E-01  0.38634679879E-02  0.10200332284E+01  0.10197532698E+01 0.  0.
     999903    2    3    3    0    0  0.99080427101E-02 -0.11569938360E+00 -0.58474377372E-01  0.13148953745E+00  0.19639984069E-01 0.  0.
         14    1    1    2    0    0 -0.21185622695E-01  0.10358508532E-01 -0.38634679879E-02  0.23896771599E-01  0.00000000000E+00 0. -1.
     999901    1    3    3    0    0  0.11277579985E-01  0.10534087506E+00  0.62337845360E-01  0.88854369095E+00  0.88000000000E+00 0.  1.
        -11    1    4    4    0    0  0.45402161770E-02 -0.44491048244E-01 -0.33336280465E-01  0.55782037011E-01  0.51100000000E-03 0. -1.
         11    1    4    4    0    0  0.53678265331E-02 -0.71208335352E-01 -0.25138096907E-01  0.75707500437E-01  0.51100000000E-03 0.  1.
</event>
<event>
 8    1  0.1092667E+005  0.1043930E+01  0.7957747E-01            NaN
         13   -1    0    0    0    0  0.00000000000E+00  0.00000000000E+00  0.74505805969E-08  0.10566000000E+00  0.10566000000E+00 0.  1.
     999900   -1    0    0    0    0 -0.00000000000E+00 -0.00000000000E+00 -0.74505805969E-08  0.93827000000E+00  0.93827000000E+00 0.  1.
     999902    2    1    2    0    0  0.51791230895E-02  0.19572208346E-01  0.13460369987E-01  0.10196179409E+01  0.10193280479E+01 0.  0.
     999903    2    3    3    0    0  0.10697101096E+00 -0.34535657402E-01  0.64017620114E-01  0.13066052626E+00  0.18395885922E-01 0.  0.
         14    1    1    2    0    0 -0.51791230895E-02 -0.19572208346E-01 -0.13460369987E-01  0.24312059059E-01  0.00000000000E+00 0. -1.
     999901    1    3    3    0    0 -0.10179188788E+00  0.54107865748E-01 -0.50557250127E-01  0.88895741468E+00  0.88000000000E+00 0.  1.
        -11    1    4    4    0    0  0.14000997607E-01 -0.11263577383E-01  0.82844757117E-02  0.19793680008E-01  0.51100000000E-03 0.  1.
         11    1    4    4    0    0  0.92970013358E-01 -0.23272080019E-01  0.55733144402E-01  0.11086684625E+00  0.51100000000E-03 0. -1.
</event>
<event>
 8    1  0.1092667E+005  0.1043930E+01  0.7957747E-01            NaN
         13   -1    0    0    0    0  0.00000000000E+00  0.00000000000E+00  0.74505805969E-08  0.10566000000E+00  0.10566000000E+00 0. -1.
     999900   -1    0    0    0    0 -0.00000000000E+00 -0.00000000000E+00 -0.74505805969E-08  0.93827000000E+00  0.93827000000E+00 0. -1.
     999902    2    1    2    0    0 -0.19776288404E-01 -0.10725886479E-01 -0.82616381161E-02  0.10199633380E+01  0.10196817199E+01 0.  0.
     999903    2    3    3    0    0  0.22719890253E-01  0.83487705586E-01  0.92386127805E-01  0.12821668174E+00  0.20443347812E-01 0.  0.
         14    1    1    2    0    0  0.19776288404E-01  0.10725886479E-01  0.82616381161E-02  0.23966662015E-01  0.00000000000E+00 0.  1.
     999901    1    3    3    0    0 -0.42496178657E-01 -0.94213592064E-01 -0.10064776592E+00  0.89174665624E+00  0.88000000000E+00 0. -1.
        -11    1    4    4    0    0  0.26627756966E-02  0.47854748905E-01  0.47110560317E-01  0.67207390826E-01  0.51100000000E-03 0. -1.
         11    1    4    4    0    0  0.20057114556E-01  0.35632956681E-01  0.45275567488E-01  0.61009290919E-01  0.51100000000E-03 0.  1.
</event>
<event>
 8    1  0.1092667E+005  0.1043930E+01  0.7957747E-01            NaN
         13   -1    0    0    0    0  0.00000000000E+00  0.00000000000E+00  0.74505805969E-08  0.10566000000E+00  0.10566000000E+00 0.  1.
     999900   -1    0    0    0    0 -0.00000000000E+00 -0.00000000000E+00 -0.74505805969E-08  0.93827000000E+00  0.93827000000E+00 0. -1.
     999902    2    1    2    0    0 -0.20799695670E-01 -0.21343172247E-02  0.11365221153E-01  0.10201318719E+01  0.10198542470E+01 0.  0.
     999903    2    3    3    0    0 -0.68633379030E-01 -0.11033940740E+00 -0.10593431056E-01  0.13194349929E+00  0.20286465489E-01 0.  0.
         14    1    1    2    0    0  0.20799695670E-01  0.21343172247E-02 -0.11365221153E-01  0.23798128116E-01  0.00000000000E+00 0.  1.
     999901    1    3    3    0    0  0.47833683360E-01  0.10820509017E+00  0.21958652208E-01  0.88818837259E+00  0.88000000000E+00 0. -1.
        -11    1    4    4    0    0 -0.45623971142E-01 -0.87088707065E-01 -0.12835934141E-01  0.99151459734E-01  0.51100000000E-03 0. -1.
         11    1    4    4    0    0 -0.23009407888E-01 -0.23250700331E-01  0.22425030857E-02  0.32792039557E-01  0.51100000000E-03 0.  1.
</event>
<event>
 8    1  0.1092667E+005  0.1043930E+01  0.7957747E-01            NaN
         13   -1    0    0    0    0  0.00000000000E+00  0.00000000000E+00  0.74505805969E-08  0.10566000000E+00  0.10566000000E+00 0. -1.
     999900   -1    0    0    0    0 -0.00000000000E+00 -0.00000000000E+00 -0.74505805969E-08  0.93827000000E+00  0.93827000000E+00 0. -1.
     999902    2    1    2    0    0  0.99572000226E-02 -0.17033921643E-01  0.99617448648E-02  0.10218271341E+01  0.10215880556E+01 0.  0.
     999903    2    3    3    0    0  0.74139068130E-01 -0.10223276153E+00 -0.40160842019E-01  0.13396992251E+00  0.19669975915E-01 0.  0.
         14    1    1    2    0    0 -0.99572000226E-02  0.17033921643E-01 -0.99617448648E-02  0.22102865868E-01  0.00000000000E+00 0.  1.
     999901    1    3    3    0    0 -0.64181868107E-01  0.85198839887E-01  0.50122586884E-01  0.88785721162E+00  0.88000000000E+00 0.  1.
        -11    1    4    4    0    0  0.78445423115E-02 -0.15427553653E-01 -0.12322057614E-01  0.21251834760E-01  0.51100000000E-03 0. -1.
         11    1    4    4    0    0  0.66294525818E-01 -0.86805207877E-01 -0.27838784405E-01  0.11271808775E+00  0.51100000000E-03 0.  1.
</event>
<event>
 8    1  0.1092667E+005  0.1043930E+01  0.7957747E-01            NaN
         13   -1    0    0    0    0  0.00000000000E+00  0.00000000000E+00  0.74505805969E-08  0.10566000000E+00  0.10566000000E+00 0. -1.
     999900   -1    0    0    0    0 -0.00000000000E+00 -0.00000000000E+00 -0.74505805969E-08  0.93827000000E+00  0.93827000000E+00 0. -1.
     999902    2    1    2    0    0 -0.11329914945E-01  0.20174254866E-01  0.23065971277E-02  0.10206773029E+01  0.10204124013E+01 0.  0.
     999903    2    3    3    0    0  0.26835095059E-01  0.11481582547E+00 -0.57110038436E-01  0.13278996125E+00  0.21652279658E-01 0.  0.
         14    1    1    2    0    0  0.11329914945E-01 -0.20174254866E-01 -0.23065971277E-02  0.23252697099E-01  0.00000000000E+00 0.  1.
     999901    1    3    3    0    0 -0.38165010004E-01 -0.94641570605E-01  0.59416635564E-01  0.88788734165E+00  0.88000000000E+00 0.  1.
        -11    1    4    4    0    0 -0.37261536309E-03  0.64615057735E-02 -0.91311555059E-02  0.11203973444E-01  0.51100000000E-03 0.  1.
         11    1    4    4    0    0  0.27207710422E-01  0.10835431970E+00 -0.47978882930E-01  0.12158598781E+00  0.51100000000E-03 0. -1.
</event>
<event>
 8    1  0.1092667E+005  0.1043930E+01  0.7957747E-01            NaN
         13   -1    0    0    0    0  0.00000000000E+00  0.00000000000E+00  0.74505805969E-08  0.10566000000E+00  0.10566000000E+00 0.  1.
     999900   -1    0    0    0    0 -0.00000000000E+00 -0.00000000000E+00 -0.74505805969E-08  0.93827000000E+00  0.93827000000E+00 0. -1.
     999902    2    1    2    0    0  0.20492703706E-02  0.14051782977E-01  0.20657889880E-01  0.10188620817E+01  0.10185536515E+01 0.  0.
     999903    2    3    3    0    0  0.11263148342E+00  0.60361035270E-01  0.15866962779E-01  0.13072024298E+00  0.22510348335E-01 0.  0.
         14    1    1    2    0    0 -0.20492703706E-02 -0.14051782977E-01 -0.20657889880E-01  0.25067918305E-01  0.00000000000E+00 0. -1.
     999901    1    3    3    0    0 -0.11058221305E+00 -0.46309252294E-01  0.47909271001E-02  0.88814183871E+00  0.88000000000E+00 0. -1.
        -11    1    4    4    0    0  0.47031190918E-01  0.26308364786E-01 -0.44206779195E-02  0.54072788823E-01  0.51100000000E-03 0. -1.
         11    1    4    4    0    0  0.65600292497E-01  0.34052670485E-01  0.20287640699E-01  0.76647454159E-01  0.51100000000E-03 0.  1.
</event>
<event>
 8    1  0.1092667E+005  0.1043930E+01  0.7957747E-01            NaN
         13   -1    0    0    0    0  0.00000000000E+00  0.00000000000E+00  0.74505805969E-08  0.10566000000E+00  0.10566000000E+00 0.  1.
     999900   -1    0    0    0    0 -0.00000000000E+00 -0.00000000000E+00 -0.74505805969E-08  0.93827000000E+00  0.93827000000E+00 0.  1.
     999902    2    1    2    0    0  0.80851274552E-02 -0.21189284735E-01 -0.81020896319E-02  0.10198468331E+01  0.10195624375E+01 0.  0.
     999903    2    3    3    0    0 -0.30102491695E-01 -0.10458652218E+00  0.71125857442E-01  0.13153919430E+00  0.19979274597E-01 0.  0.
         14    1    1    2    0    0 -0.80851274552E-02  0.21189284735E-01  0.81020896319E-02  0.24083166942E-01  0.00000000000E+00 0. -1.
     999901    1    3    3    0    0  0.38187619151E-01  0.83397237445E-01 -0.79227947074E-01  0.88830763875E+00  0.88000000000E+00 0.  1.
        -11    1    4    4    0    0 -0.18474155461E-01 -0.55519669802E-01  0.49601404318E-01  0.76709116709E-01  0.51100000000E-03 0. -1.
         11    1    4    4    0    0 -0.11628336234E-01 -0.49066852378E-01  0.21524453124E-01  0.54830077595E-01  0.51100000000E-03 0.  1.
</event>
<event>
 8    1  0.1092667E+005  0.1043930E+01  0.7957747E-01            NaN
         13   -1    0    0    0    0  0.00000000000E+00  0.00000000000E+00  0.74505805969E-08  0.10566000000E+00  0.10566000000E+00 0. -1.
     999900   -1    0    0    0    0 -0.00000000000E+00 -0.00000000000E+00 -0.74505805969E-08  0.93827000000E+00  0.93827000000E+00 0. -1.
     999902    2    1    2    0    0  0.13803820839E-01  0.30084237882E-02  0.18856412424E-01  0.10203681585E+01  0.10200960830E+01 0.  0.
     999903    2    3    3    0    0 -0.49082100979E-01  0.11710373309E+00 -0.18934042564E-01  0.12997470772E+00  0.20312305106E-01 0.  0.
         14    1    1    2    0    0 -0.13803820839E-01 -0.30084237882E-02 -0.18856412424E-01  0.23561841460E-01  0.00000000000E+00 0. -1.
     999901    1    3    3    0    0  0.62885921819E-01 -0.11409530931E+00  0.37790454988E-01  0.89039345082E+00  0.88000000000E+00 0.  1.
        -11    1    4    4    0    0 -0.27534705892E-01  0.40451810306E-01 -0.85078003727E-02  0.49670441651E-01  0.51100000000E-03 0.  1.
         11    1    4    4    0    0 -0.21547395087E-01  0.76651922789E-01 -0.10426242191E-01  0.80304266073E-01  0.51100000000E-03 0. -1.
</event>
<event>
 8    1  0.1092667E+005  0.1043930E+01  0.7957747E-01            NaN
         13   -1    0    0    0    0  0.00000000000E+00  0.00000000000E+00  0.74505805969E-08  0.10566000000E+00  0.10566000000E+00 0. -1.
     999900   -1    0    0    0    0 -0.00000000000E+00 -0.00000000000E+00 -0.74505805969E-08  0.93827000000E+00  0.93827000000E+00 0.  1.
     999902    2    1    2    0    0 -0.17694063106E-01 -0.16304805668E-01  0.30393725811E-02  0.10196779002E+01  0.10193894525E+01 0.  0.
     999903    2    3    3    0    0  0.31234665431E-01 -0.45700128064E-02  0.12440193274E+00  0.12992479019E+00  0.20202002250E-01 0.  0.
         14    1    1    2    0    0  0.17694063106E-01  0.16304805668E-01 -0.30393725811E-02  0.24252099760E-01  0.00000000000E+00 0.  1.
     999901    1    3    3    0    0 -0.48928728537E-01 -0.11734792861E-01 -0.12136256016E+00  0.88975311005E+00  0.88000000000E+00 0.  1.
        -11    1    4    4    0    0  0.12000359887E-01 -0.93578728178E-02  0.32248231384E-01  0.35662136356E-01  0.51100000000E-03 0. -1.
         11    1    4    4    0    0  0.19234305544E-01  0.47878600113E-02  0.92153701354E-01  0.94262653832E-01  0.51100000000E-03 0.  1.
</event>
<event>
 8    1  0.1092667E+005  0.1043930E+01  0.7957747E-01            NaN
         13   -1    0    0    0    0  0.00000000000E+00  0.00000000000E+00  0.74505805969E-08  0.10566000000E+00  0.10566000000E+00 0.  1.
     999900   -1    0    0    0    0 -0.00000000000E+00 -0.00000000000E+00 -0.74505805969E-08  0.93827000000E+00  0.93827000000E+00 0.  1.
     999902    2    1    2    0    0 -0.23465452382E-02  0.24304145785E-01  0.28592754362E-02  0.10193459964E+01  0.10190495018E+01 0.  0.
     999903    2    3    3    0    0  0.41736023560E-01 -0.11679560834E+00 -0.17563976637E-01  0.12678254056E+00  0.19550179635E-01 0.  0.
         14    1    1    2    0    0  0.23465452382E-02 -0.24304145785E-01 -0.28592754362E-02  0.24584003598E-01  0.00000000000E+00 0. -1.
     999901    1    3    3    0    0 -0.44082568798E-01  0.14109975413E+00  0.20423252073E-01  0.89256345585E+00  0.88000000000E+00 0.  1.
        -11    1    4    4    0    0  0.42755748123E-02 -0.35867445652E-01 -0.87452059580E-02  0.37168453638E-01  0.51100000000E-03 0.  1.
         11    1    4    4    0    0  0.37460448748E-01 -0.80928162690E-01 -0.88187706787E-02  0.89614086918E-01  0.51100000000E-03 0. -1.
</event>
<event>
 8    1  0.1092667E+005  0.1043930E+01  0.7957747E-01            NaN
         13   -1    0    0    0    0  0.00000000000E+00  0.00000000000E+00  0.74505805969E-08  0.10566000000E+00  0.10566000000E+00 0.  1.
     999900   -1    0    0    0    0 -0.00000000000E+00 -0.00000000000E+00 -0.74505805969E-08  0.93827000000E+00  0.93827000000E+00 0.  1.
     999902    2    1    2    0    0  0.12556272848E-01 -0.18504871562E-01 -0.71554783447E-02  0.10204504104E+01  0.10201802531E+01 0.  0.
     999903    2    3    3    0    0 -0.11355274573E+00 -0.49343206433E-01 -0.35927332019E-01  0.13046035029E+00  0.20003792823E-01 0.  0.
         14    1    1    2    0    0 -0.12556272848E-01  0.18504871562E-01  0.71554783447E-02  0.23479589641E-01  0.00000000000E+00 0.  1.
     999901    1    3    3    0    0  0.12610901858E+00  0.30838334871E-01  0.28771853675E-01  0.88999006007E+00  0.88000000000E+00 0. -1.
        -11    1    4    4    0    0 -0.41860524523E-01 -0.15829212982E-01 -0.22832014504E-01  0.50243701140E-01  0.51100000000E-03 0.  1.
         11    1    4    4    0    0 -0.71692221205E-01 -0.33513993451E-01 -0.13095317515E-01  0.80216649146E-01  0.51100000000E-03 0. -1.
</event>
<event>
 8    1  0.1092667E+005  0.1043930E+01  0.7957747E-01            NaN
         13   -1    0    0    0    0  0.00000000000E+00  0.00000000000E+00  0.74505805969E-08  0.10566000000E+00  0.10566000000E+00 0.  1.
     999900   -1    0    0    0    0 -0.00000000000E+00 -0.00000000000E+00 -0.74505805969E-08  0.93827000000E+00  0.93827000000E+00 0. -1.
     999902    2    1    2    0    0 -0.18092165694E-01 -0.10333990788E-01 -0.11378455783E-01  0.10201900109E+01  0.10199137568E+01 0.  0.
     999903    2    3    3    0    0  0.56995734427E-01  0.58603999256E-01 -0.98996819492E-01  0.12998350855E+00  0.20307627979E-01 0.  0.
         14    1    1    2    0    0  0.18092165694E-01  0.10333990788E-01  0.11378455783E-01  0.23739989072E-01  0.00000000000E+00 0.  1.
     999901    1    3    3    0    0 -0.75087900121E-01 -0.68937990044E-01  0.87618363709E-01  0.89020650238E+00  0.88000000000E+00 0.  1.
        -11    1    4    4    0    0  0.18038785131E-01  0.13368074942E-01 -0.41011489072E-01  0.46757957115E-01  0.51100000000E-03 0.  1.
         11    1    4    4    0    0  0.38956949296E-01  0.45235924314E-01 -0.57985330420E-01  0.83225551436E-01  0.51100000000E-03 0. -1.
</event>
<event>
 8    1  0.1092667E+005  0.1043930E+01  0.7957747E-01            NaN
         13   -1    0    0    0    0  0.00000000000E+00  0.00000000000E+00  0.74505805969E-08  0.10566000000E+00  0.10566000000E+00 0.  1.
     999900   -1    0    0    0    0 -0.00000000000E+00 -0.00000000000E+00 -0.74505805969E-08  0.93827000000E+00  0.93827000000E+00 0. -1.
     999902    2    1    2    0    0 -0.42939789402E-03  0.78833133612E-02 -0.23234883816E-01  0.10193904230E+01  0.10190950121E+01 0.  0.
     999903    2    3    3    0    0 -0.86176270058E-01 -0.41138132239E-01 -0.88177541736E-01  0.13148661234E+00  0.19868440121E-01 0.  0.
         14    1    1    2    0    0  0.42939789402E-03 -0.78833133612E-02  0.23234883816E-01  0.24539576973E-01  0.00000000000E+00 0.  1.
     999901    1    3    3    0    0  0.85746872164E-01  0.49021445600E-01  0.64942657920E-01  0.88790381069E+00  0.88000000000E+00 0.  1.
        -11    1    4    4    0    0 -0.44565223180E-01 -0.16355871697E-01 -0.31701632288E-01  0.57086147766E-01  0.51100000000E-03 0. -1.
         11    1    4    4    0    0 -0.41611046878E-01 -0.24782260542E-01 -0.56475909448E-01  0.74400464574E-01  0.51100000000E-03 0.  1.
</event>
<event>
 8    1  0.1092667E+005  0.1043930E+01  0.7957747E-01            NaN
         13   -1    0    0    0    0  0.00000000000E+00  0.00000000000E+00  0.74505805969E-08  0.10566000000E+00  0.10566000000E+00 0. -1.
     999900   -1    0    0    0    0 -0.00000000000E+00 -0.00000000000E+00 -0.74505805969E-08  0.93827000000E+00  0.93827000000E+00 0.  1.
     999902    2    1    2    0    0 -0.20405503148E-01  0.71947398133E-02 -0.65473144339E-02  0.10213243333E+01  0.10210741294E+01 0.  0.
     999903    2    3    3    0    0 -0.63507316441E-01 -0.76751797370E-01  0.84055239231E-01  0.13165382682E+00  0.18531843733E-01 0.  0.
         14    1    1    2    0    0  0.20405503148E-01 -0.71947398133E-02  0.65473144339E-02  0.22605666679E-01  0.00000000000E+00 0.  1.
     999901    1    3    3    0    0  0.43101813293E-01  0.83946537183E-01 -0.90602553665E-01  0.88967050650E+00  0.88000000000E+00 0.  1.
        -11    1    4    4    0    0 -0.60329942331E-01 -0.63339920168E-01  0.74133516910E-01  0.11466336328E+00  0.51100000000E-03 0.  1.
         11    1    4    4    0    0 -0.31773741103E-02 -0.13411877203E-01  0.99217223204E-02  0.16990463535E-01  0.51100000000E-03 0. -1.
</event>
<event>
 8    1  0.1133436E+005  0.1043930E+01  0.7957747E-01            NaN
         13   -1    0    0    0    0  0.00000000000E+00  0.00000000000E+00  0.74505805969E-08  0.10566000000E+00  0.10566000000E+00 0. -1.
     999900   -1    0    0    0    0 -0.00000000000E+00 -0.00000000000E+00 -0.74505805969E-08  0.93827000000E+00  0.93827000000E+00 0. -1.
     999902    2    1    2    0    0  0.17974052135E-01 -0.20541489836E-01  0.70119791255E-02  0.10157486727E+01  0.10153576606E+01 0.  0.
     999903    2    3    3    0    0 -0.12122061540E+00 -0.21723047305E-01  0.64573206731E-02  0.12480711506E+00  0.19203921421E-01 0.  0.
         14    1    1    2    0    0 -0.17974052135E-01  0.20541489836E-01 -0.70119791255E-02  0.28181327259E-01  0.00000000000E+00 0.  1.
     999901    1    3    3    0    0  0.13919466754E+00  0.11815574692E-02  0.55465845244E-03  0.89094155768E+00  0.88000000000E+00 0.  1.
        -11    1    4    4    0    0 -0.79725671279E-01 -0.16340896757E-01  0.13116561417E-01  0.82434900814E-01  0.51100000000E-03 0.  1.
         11    1    4    4    0    0 -0.41494944123E-01 -0.53821505474E-02 -0.66592407443E-02  0.42372214251E-01  0.51100000000E-03 0. -1.
</event>
<event>
 8    1  0.1092667E+005  0.1043930E+01  0.7957747E-01            NaN
         13   -1    0    0    0    0  0.00000000000E+00  0.00000000000E+00  0.74505805969E-08  0.10566000000E+00  0.10566000000E+00 0.  1.
     999900   -1    0    0    0    0 -0.00000000000E+00 -0.00000000000E+00 -0.74505805969E-08  0.93827000000E+00  0.93827000000E+00 0. -1.
     999902    2    1    2    0    0 -0.11468335540E-01 -0.31222306827E-02 -0.21046237456E-01  0.10197594569E+01  0.10194729691E+01 0.  0.
     999903    2    3    3    0    0 -0.56736704026E-01 -0.10110542671E+00 -0.60605824278E-01  0.13228275700E+00  0.19603595839E-01 0.  0.
         14    1    1    2    0    0  0.11468335540E-01  0.31222306827E-02  0.21046237456E-01  0.24170543137E-01  0.00000000000E+00 0.  1.
     999901    1    3    3    0    0  0.45268368486E-01  0.97983196025E-01  0.39559586822E-01  0.88747669986E+00  0.88000000000E+00 0. -1.
        -11    1    4    4    0    0 -0.26744244033E-01 -0.35285769467E-01 -0.31370576987E-01  0.54265222171E-01  0.51100000000E-03 0.  1.
         11    1    4    4    0    0 -0.29992459993E-01 -0.65819657241E-01 -0.29235247291E-01  0.78017534830E-01  0.51100000000E-03 0. -1.
</event>
<event>
 8    1  0.1092667E+005  0.1043930E+01  0.7957747E-01            NaN
         13   -1    0    0    0    0  0.00000000000E+00  0.00000000000E+00  0.74505805969E-08  0.10566000000E+00  0.10566000000E+00 0. -1.
     999900   -1    0    0    0    0 -0.00000000000E+00 -0.00000000000E+00 -0.74505805969E-08  0.93827000000E+00  0.93827000000E+00 0. -1.
     999902    2    1    2    0    0 -0.59061587734E-02 -0.19147227872E-01 -0.11978518842E-01  0.10205851085E+01  0.10203180777E+01 0.  0.
     999903    2    3    3    0    0 -0.27660000407E-01 -0.53891936968E-01 -0.11720122122E+00  0.13336910235E+00  0.19539056063E-01 0.  0.
         14    1    1    2    0    0  0.59061587734E-02  0.19147227872E-01  0.11978518842E-01  0.23344891525E-01  0.00000000000E+00 0.  1.
     999901    1    3    3    0    0  0.21753841634E-01  0.34744709095E-01  0.10522270238E+00  0.88721600613E+00  0.88000000000E+00 0.  1.
        -11    1    4    4    0    0 -0.38204577381E-02  0.52546005089E-03 -0.11157250335E-01  0.11815979080E-01  0.51100000000E-03 0.  1.
         11    1    4    4    0    0 -0.23839542669E-01 -0.54417397019E-01 -0.10604397089E+00  0.12155312327E+00  0.51100000000E-03 0. -1.
</event>
<event>
 8    1  0.1092667E+005  0.1043930E+01  0.7957747E-01            NaN
         13   -1    0    0    0    0  0.00000000000E+00  0.00000000000E+00  0.74505805969E-08  0.10566000000E+00  0.10566000000E+00 0. -1.
     999900   -1    0    0    0    0 -0.00000000000E+00 -0.00000000000E+00 -0.74505805969E-08  0.93827000000E+00  0.93827000000E+00 0. -1.
     999902    2    1    2    0    0  0.18533690361E-01  0.47581376645E-02  0.10830009762E-01  0.10219430342E+01  0.10217064836E+01 0.  0.
     999903    2    3    3    0    0 -0.10948782304E+00 -0.61686531898E-01  0.27161649016E-01  0.13005115488E+00  0.19563642232E-01 0.  0.
         14    1    1    2    0    0 -0.18533690361E-01 -0.47581376645E-02 -0.10830009762E-01  0.21986965772E-01  0.00000000000E+00 0. -1.
     999901    1    3    3    0    0  0.12802151340E+00  0.66444669562E-01 -0.16331639255E-01  0.89189187935E+00  0.88000000000E+00 0.  1.
        -11    1    4    4    0    0 -0.97234689659E-01 -0.60260804772E-01  0.27671722835E-01  0.11769424298E+00  0.51100000000E-03 0. -1.
         11    1    4    4    0    0 -0.12253133378E-01 -0.14257271257E-02 -0.51007381905E-03  0.12356911900E-01  0.51100000000E-03 0.  1.
</event>
<event>
 8    1  0.1092667E+005  0.1043930E+01  0.7957747E-01            NaN
         13   -1    0    0    0    0  0.00000000000E+00  0.00000000000E+00  0.74505805969E-08  0.10566000000E+00  0.10566000000E+00 0. -1.
     999900   -1    0    0    0    0 -0.00000000000E+00 -0.00000000000E+00 -0.74505805969E-08  0.93827000000E+00  0.93827000000E+00 0.  1.
     999902    2    1    2    0    0 -0.17260106676E-01  0.79816897255E-02  0.12356080376E-01  0.10212520068E+01  0.10210001812E+01 0.  0.
     999903    2    3    3    0    0 -0.10886648831E+00  0.49397806942E-01  0.57525995326E-01  0.13437696197E+00  0.21351163039E-01 0.  0.
         14    1    1    2    0    0  0.17260106676E-01 -0.79816897255E-02 -0.12356080376E-01  0.22677993201E-01  0.00000000000E+00 0.  1.
     999901    1    3    3    0    0  0.91606381634E-01 -0.41416117216E-01 -0.45169914949E-01  0.88687504483E+00  0.88000000000E+00 0. -1.
        -11    1    4    4    0    0 -0.66280726727E-01  0.26300345119E-01  0.45047645386E-01  0.84346869324E-01  0.51100000000E-03 0. -1.
         11    1    4    4    0    0 -0.42585761582E-01  0.23097461823E-01  0.12478349940E-01  0.50030092648E-01  0.51100000000E-03 0.  1.
</event>
<event>
 8    1  0.1092667E+005  0.1043930E+01  0.7957747E-01            NaN
         13   -1    0    0    0    0  0.00000000000E+00  0.00000000000E+00  0.74505805969E-08  0.10566000000E+00  0.10566000000E+00 0. -1.
     999900   -1    0    0    0    0 -0.00000000000E+00 -0.00000000000E+00 -0.74505805969E-08  0.93827000000E+00  0.93827000000E+00 0. -1.
     999902    2    1    2    0    0  0.13130980060E-01  0.19486139716E-01 -0.21580236760E-03  0.10204315139E+01  0.10201609166E+01 0.  0.
     999903    2    3    3    0    0  0.11785385603E+00 -0.42828575118E-01 -0.32831694672E-01  0.13143556291E+00  0.21761635854E-01 0.  0.
         14    1    1    2    0    0 -0.13130980060E-01 -0.19486139716E-01  0.21580236760E-03  0.23498486101E-01  0.00000000000E+00 0. -1.
     999901    1    3    3    0    0 -0.10472287597E+00  0.62314714834E-01  0.32615892304E-01  0.88899595098E+00  0.88000000000E+00 0. -1.
        -11    1    4    4    0    0  0.90565325956E-01 -0.25966997714E-01 -0.17296480464E-01  0.95790357517E-01  0.51100000000E-03 0.  1.
         11    1    4    4    0    0  0.27288530076E-01 -0.16861577404E-01 -0.15535214208E-01  0.35645205397E-01  0.51100000000E-03 0. -1.
</event>
<event>
 8    1  0.1092667E+005  0.1043930E+01  0.7957747E-01            NaN
         13   -1    0    0    0    0  0.00000000000E+00  0.00000000000E+00  0.74505805969E-08  0.10566000000E+00  0.10566000000E+00 0. -1.
     999900   -1    0    0    0    0 -0.00000000000E+00 -0.00000000000E+00 -0.74505805969E-08  0.93827000000E+00  0.93827000000E+00 0.  1.
     999902    2    1    2    0    0 -0.19868270282E-01 -0.10329544858E-01  0.54332676473E-02  0.10208872558E+01  0.10206271705E+01 0.  0.
     999903    2    3    3    0    0  0.61691318067E-02  0.65458559269E-01 -0.10899177147E+00  0.12986824785E+00  0.25761878470E-01 0.  0.
         14    1    1    2    0    0  0.19868270282E-01  0.10329544858E-01 -0.54332676473E-02  0.23042744157E-01  0.00000000000E+00 0. -1.
     999901    1    3    3    0    0 -0.26037402088E-01 -0.75788104127E-01  0.11442503911E+00  0.89101900800E+00  0.88000000000E+00 0. -1.
        -11    1    4    4    0    0 -0.29554796877E-02  0.53960182279E-01 -0.71685758322E-01  0.89774969780E-01  0.51100000000E-03 0.  1.
         11    1    4    4    0    0  0.91246114943E-02  0.11498376990E-01 -0.37306013146E-01  0.40093278067E-01  0.51100000000E-03 0. -1.
</event>
<event>
 8    1  0.1092667E+005  0.1043930E+01  0.7957747E-01            NaN
         13   -1    0    0    0    0  0.00000000000E+00  0.00000000000E+00  0.74505805969E-08  0.10566000000E+00  0.10566000000E+00 0.  1.
     999900   -1    0    0    0    0 -0.00000000000E+00 -0.00000000000E+00 -0.74505805969E-08  0.93827000000E+00  0.93827000000E+00 0. -1.
     999902    2    1    2    0    0 -0.16143905064E-01 -0.11775727597E-01  0.12978879024E-01  0.10201026054E+01  0.10198242892E+01 0.  0.
     999903    2    3    3    0    0  0.66290435808E-01  0.21817903918E-01 -0.10509347276E+00  0.12776576719E+00  0.20224006477E-01 0.  0.
         14    1    1    2    0    0  0.16143905064E-01  0.11775727597E-01 -0.12978879024E-01  0.23827394567E-01  0.00000000000E+00 0. -1.
     999901    1    3    3    0    0 -0.82434340872E-01 -0.33593631515E-01  0.11807235178E+00  0.89233683824E+00  0.88000000000E+00 0.  1.
        -11    1    4    4    0    0  0.38582092452E-01  0.26965290771E-02 -0.50267165447E-01  0.63426320799E-01  0.51100000000E-03 0.  1.
         11    1    4    4    0    0  0.27708343356E-01  0.19121374841E-01 -0.54826307311E-01  0.64339446389E-01  0.51100000000E-03 0. -1.
</event>
<event>
 7    1  0.1092667E+005  0.1043930E+01  0.7957747E-01            NaN
         13   -1    0    0    0    0  0.00000000000E+00  0.00000000000E+00  0.74505805969E-08  0.10566000000E+00  0.10566000000E+00 0. -1.
     999900   -1    0    0    0    0 -0.00000000000E+00 -0.00000000000E+00 -0.74505805969E-08  0.93827000000E+00  0.93827000000E+00 0. -1.
     999903    2    1    2    0    0 -0.40292763091E-01 -0.15172946400E-01  0.97213133457E-01  0.10834991042E+00  0.20870666273E-01 0.  0.
         14    1    1    2    0    0 -0.19154038062E-01  0.18982664753E-01 -0.44448593242E-01  0.51989385228E-01  0.00000000000E+00 0.  1.
     999901    1    1    2    0    0  0.59446801153E-01 -0.38097183539E-02 -0.52764540215E-01  0.88359070436E+00  0.88000000000E+00 0. -1.
        -11    1    3    3    0    0 -0.26219820345E-01 -0.11806496382E-01  0.39578210765E-01  0.48924106779E-01  0.51100000000E-03 0.  1.
         11    1    3    3    0    0 -0.14072942746E-01 -0.33664500178E-02  0.57634922691E-01  0.59425803637E-01  0.51100000000E-03 0. -1.
</event>
<event>
 8    1  0.1092667E+005  0.1043930E+01  0.7957747E-01            NaN
         13   -1    0    0    0    0  0.00000000000E+00  0.00000000000E+00  0.74505805969E-08  0.10566000000E+00  0.10566000000E+00 0. -1.
     999900   -1    0    0    0    0 -0.00000000000E+00 -0.00000000000E+00 -0.74505805969E-08  0.93827000000E+00  0.93827000000E+00 0. -1.
     999902    2    1    2    0    0 -0.24638046528E-02  0.22732579191E-01  0.57072728678E-02  0.10203627886E+01  0.10200905876E+01 0.  0.
     999903    2    3    3    0    0  0.54026984750E-01  0.59073723962E-01  0.10376962083E+00  0.13237173448E+00  0.18588220423E-01 0.  0.
         14    1    1    2    0    0  0.24638046528E-02 -0.22732579191E-01 -0.57072728678E-02  0.23567211410E-01  0.00000000000E+00 0.  1.
     999901    1    3    3    0    0 -0.56490789403E-01 -0.36341144771E-01 -0.98062347961E-01  0.88799105411E+00  0.88000000000E+00 0. -1.
        -11    1    4    4    0    0  0.39328813461E-01  0.29773974839E-01  0.59661086162E-01  0.77414155483E-01  0.51100000000E-03 0. -1.
         11    1    4    4    0    0  0.14698171289E-01  0.29299749123E-01  0.44108534666E-01  0.54957578998E-01  0.51100000000E-03 0.  1.
</event>
<event>
 8    1  0.1092667E+005  0.1043930E+01  0.7957747E-01            NaN
         13   -1    0    0    0    0  0.00000000000E+00  0.00000000000E+00  0.74505805969E-08  0.10566000000E+00  0.10566000000E+00 0. -1.
     999900   -1    0    0    0    0 -0.00000000000E+00 -0.00000000000E+00 -0.74505805969E-08  0.93827000000E+00  0.93827000000E+00 0. -1.
     999902    2    1    2    0    0  0.94661012671E-02 -0.13402376742E-01 -0.17421219613E-01  0.10199982289E+01  0.10197174399E+01 0.  0.
     999903    2    3    3    0    0  0.11081365385E-01  0.15776041489E-01  0.12537049111E+00  0.12800974140E+00  0.17235246073E-01 0.  0.
         14    1    1    2    0    0 -0.94661012671E-02  0.13402376742E-01  0.17421219613E-01  0.23931771107E-01  0.00000000000E+00 0. -1.
     999901    1    3    3    0    0 -0.16152641176E-02 -0.29178418231E-01 -0.14279171073E+00  0.89198848749E+00  0.88000000000E+00 0. -1.
        -11    1    4    4    0    0  0.17014381886E-02  0.93766165756E-02  0.96677504492E-01  0.97147397423E-01  0.51100000000E-03 0.  1.
         11    1    4    4    0    0  0.93799271961E-02  0.63994249137E-02  0.28692986622E-01  0.30862343976E-01  0.51100000000E-03 0. -1.
</event>
<event>
 8    1  0.1092667E+005  0.1043930E+01  0.7957747E-01            NaN
         13   -1    0    0    0    0  0.00000000000E+00  0.00000000000E+00  0.74505805969E-08  0.10566000000E+00  0.10566000000E+00 0.  1.
     999900   -1    0    0    0    0 -0.00000000000E+00 -0.00000000000E+00 -0.74505805969E-08  0.93827000000E+00  0.93827000000E+00 0.  1.
     999902    2    1    2    0    0 -0.11000531629E-01 -0.19769430181E-01  0.57159246288E-02  0.10205951792E+01  0.10203283815E+01 0.  0.
     999903    2    3    3    0    0 -0.12844081052E+00  0.20687257022E-01 -0.54165303817E-02  0.13180223698E+00  0.20432485435E-01 0.  0.
         14    1    1    2    0    0  0.11000531629E-01  0.19769430181E-01 -0.57159246288E-02  0.23334820766E-01  0.00000000000E+00 0.  1.
     999901    1    3    3    0    0  0.11744027889E+00 -0.40456687203E-01  0.11132455011E-01  0.88879294225E+00  0.88000000000E+00 0. -1.
        -11    1    4    4    0    0 -0.68829269097E-01  0.75918776767E-02 -0.12464886432E-01  0.70361490929E-01  0.51100000000E-03 0.  1.
         11    1    4    4    0    0 -0.59611541425E-01  0.13095379345E-01  0.70483560506E-02  0.61440746051E-01  0.51100000000E-03 0. -1.
</event>
<event>
 8    1  0.1092667E+005  0.1043930E+01  0.7957747E-01            NaN
         13   -1    0    0    0    0  0.00000000000E+00  0.00000000000E+00  0.74505805969E-08  0.10566000000E+00  0.10566000000E+00 0.  1.
     999900   -1    0    0    0    0 -0.00000000000E+00 -0.00000000000E+00 -0.74505805969E-08  0.93827000000E+00  0.93827000000E+00 0.  1.
     999902    2    1    2    0    0  0.10597700834E-01 -0.18681904715E-01 -0.67913159221E-02  0.10214034202E+01  0.10211549833E+01 0.  0.
     999903    2    3    3    0    0  0.91087965764E-01 -0.87632890231E-01  0.39927968678E-01  0.13381364291E+00  0.18311400496E-01 0.  0.
         14    1    1    2    0    0 -0.10597700834E-01  0.18681904715E-01  0.67913159221E-02  0.22526579827E-01  0.00000000000E+00 0.  1.
     999901    1    3    3    0    0 -0.80490264930E-01  0.68950985516E-01 -0.46719284601E-01  0.88758977727E+00  0.88000000000E+00 0. -1.
        -11    1    4    4    0    0  0.48520024398E-01 -0.54934254895E-01  0.30132603629E-01  0.79247713222E-01  0.51100000000E-03 0.  1.
         11    1    4    4    0    0  0.42567941366E-01 -0.32698635336E-01  0.97953650491E-02  0.54565929685E-01  0.51100000000E-03 0. -1.
</event>
<event>
 8    1  0.1092667E+005  0.1043930E+01  0.7957747E-01            NaN
         13   -1    0    0    0    0  0.00000000000E+00  0.00000000000E+00  0.74505805969E-08  0.10566000000E+00  0.10566000000E+00 0. -1.
     999900   -1    0    0    0    0 -0.00000000000E+00 -0.00000000000E+00 -0.74505805969E-08  0.93827000000E+00  0.93827000000E+00 0. -1.
     999902    2    1    2    0    0  0.16403673953E-01 -0.36883340119E-02  0.16223502635E-01  0.10205657888E+01  0.10202983107E+01 0.  0.
     999903    2    3    3    0    0  0.36581183367E-01 -0.11576149478E+00 -0.45666181701E-01  0.13107275439E+00  0.18861604945E-01 0.  0.
         14    1    1    2    0    0 -0.16403673953E-01  0.36883340119E-02 -0.16223502635E-01  0.23364211193E-01  0.00000000000E+00 0.  1.
     999901    1    3    3    0    0 -0.20177509415E-01  0.11207316077E+00  0.61889684337E-01  0.88949303442E+00  0.88000000000E+00 0.  1.
        -11    1    4    4    0    0  0.27919761276E-01 -0.93131452948E-01 -0.28319076262E-01  0.10126801963E+00  0.51100000000E-03 0.  1.
         11    1    4    4    0    0  0.86614220910E-02 -0.22630041834E-01 -0.17347105440E-01  0.29804734761E-01  0.51100000000E-03 0. -1.
</event>
<event>
 8    1  0.1092667E+005  0.1043930E+01  0.7957747E-01            NaN
         13   -1    0    0    0    0  0.00000000000E+00  0.00000000000E+00  0.74505805969E-08  0.10566000000E+00  0.10566000000E+00 0. -1.
     999900   -1    0    0    0    0 -0.00000000000E+00 -0.00000000000E+00 -0.74505805969E-08  0.93827000000E+00  0.93827000000E+00 0. -1.
     999902    2    1    2    0    0  0.19910526038E-01 -0.28119450731E-02 -0.11878201296E-01  0.10205756054E+01  0.10203083546E+01 0.  0.
     999903    2    3    3    0    0  0.11123200110E+00 -0.56628275129E-01  0.40046573873E-01  0.13269498758E+00  0.20613394591E-01 0.  0.
         14    1    1    2    0    0 -0.19910526038E-01  0.28119450731E-02  0.11878201296E-01  0.23354394624E-01  0.00000000000E+00 0. -1.
     999901    1    3    3    0    0 -0.91321475060E-01  0.53816330056E-01 -0.51924775169E-01  0.88788061780E+00  0.88000000000E+00 0. -1.
        -11    1    4    4    0    0  0.27805265335E-01 -0.24640656150E-01  0.12068778440E-01  0.39066753767E-01  0.51100000000E-03 0. -1.
         11    1    4    4    0    0  0.83426735763E-01 -0.31987618980E-01  0.27977795433E-01  0.93628233810E-01  0.51100000000E-03 0.  1.
</event>
<event>
 8    1  0.1092667E+005  0.1043930E+01  0.7957747E-01            NaN
         13   -1    0    0    0    0  0.00000000000E+00  0.00000000000E+00  0.74505805969E-08  0.10566000000E+00  0.10566000000E+00 0.  1.
     999900   -1    0    0    0    0 -0.00000000000E+00 -0.00000000000E+00 -0.74505805969E-08  0.93827000000E+00  0.93827000000E+00 0. -1.
     999902    2    1    2    0    0 -0.12738878503E-01  0.78692052433E-02 -0.15428523052E-01  0.10224301688E+01  0.10222040928E+01 0.  0.
     999903    2    3    3    0    0  0.79971297535E-02  0.62787521836E-01 -0.11702951137E+00  0.13464147530E+00  0.20644451011E-01 0.  0.
         14    1    1    2    0    0  0.12738878503E-01 -0.78692052433E-02  0.15428523052E-01  0.21499831167E-01  0.00000000000E+00 0.  1.
     999901    1    3    3    0    0 -0.20736008256E-01 -0.54918316592E-01  0.10160098832E+00  0.88778869353E+00  0.88000000000E+00 0.  1.
        -11    1    4    4    0    0  0.57840705934E-02  0.30508282570E-02 -0.15317190674E-01  0.16662547129E-01  0.51100000000E-03 0. -1.
         11    1    4    4    0    0  0.22130591601E-02  0.59736693579E-01 -0.10171232069E+00  0.11797892817E+00  0.51100000000E-03 0.  1.
</event>
<event>
 8    1  0.1092667E+005  0.1043930E+01  0.7957747E-01            NaN
         13   -1    0    0    0    0  0.00000000000E+00  0.00000000000E+00  0.74505805969E-08  0.10566000000E+00  0.10566000000E+00 0.  1.
     999900   -1    0    0    0    0 -0.00000000000E+00 -0.00000000000E+00 -0.74505805969E-08  0.93827000000E+00  0.93827000000E+00 0. -1.
     999902    2    1    2    0    0 -0.20713632391E-01 -0.40895382720E-02  0.10203673204E-01  0.10204801847E+01  0.10202107202E+01 0.  0.
     999903    2    3    3    0    0  0.42241018818E-01 -0.69187443830E-01  0.10104974985E+00  0.13118044050E+00  0.20640977958E-01 0.  0.
         14    1    1    2    0    0  0.20713632391E-01  0.40895382720E-02 -0.10203673204E-01  0.23449815286E-01  0.00000000000E+00 0. -1.
     999901    1    3    3    0    0 -0.62954651210E-01  0.65097905558E-01 -0.90846076643E-01  0.88929974421E+00  0.88000000000E+00 0. -1.
        -11    1    4    4    0    0  0.34602195359E-01 -0.37422597041E-01  0.60921867020E-01  0.79432346655E-01  0.51100000000E-03 0. -1.
         11    1    4    4    0    0  0.76388234593E-02 -0.31764846789E-01  0.40127882827E-01  0.51748093845E-01  0.51100000000E-03 0.  1.
</event>
<event>
 8    1  0.1092667E+005  0.1043930E+01  0.7957747E-01            NaN
         13   -1    0    0    0    0  0.00000000000E+00  0.00000000000E+00  0.74505805969E-08  0.10566000000E+00  0.10566000000E+00 0. -1.
     999900   -1    0    0    0    0 -0.00000000000E+00 -0.00000000000E+00 -0.74505805969E-08  0.93827000000E+00  0.93827000000E+00 0. -1.
     999902    2    1    2    0    0  0.15995299047E-01 -0.13448838181E-01  0.11631496032E-01  0.10200132164E+01  0.10197327831E+01 0.  0.
     999903    2    3    3    0    0 -0.57642154032E-01 -0.57416270569E-01 -0.98065240661E-01  0.12906485441E+00  0.20535315215E-01 0.  0.
         14    1    1    2    0    0 -0.15995299047E-01  0.13448838181E-01 -0.11631496032E-01  0.23916783646E-01  0.00000000000E+00 0.  1.
     999901    1    3    3    0    0  0.73637453079E-01  0.43967432388E-01  0.10969673669E+00  0.89094836194E+00  0.88000000000E+00 0.  1.
        -11    1    4    4    0    0 -0.49303353525E-01 -0.46565949639E-01 -0.68054849186E-01  0.96077739114E-01  0.51100000000E-03 0.  1.
         11    1    4    4    0    0 -0.83388005071E-02 -0.10850320930E-01 -0.30010391475E-01  0.32987115298E-01  0.51100000000E-03 0. -1.
</event>
<event>
 8    1  0.1092667E+005  0.1043930E+01  0.7957747E-01            NaN
         13   -1    0    0    0    0  0.00000000000E+00  0.00000000000E+00  0.74505805969E-08  0.10566000000E+00  0.10566000000E+00 0. -1.
     999900   -1    0    0    0    0 -0.00000000000E+00 -0.00000000000E+00 -0.74505805969E-08  0.93827000000E+00  0.93827000000E+00 0. -1.
     999902    2    1    2    0    0  0.68309525662E-02  0.22139648445E-01  0.63442609174E-02  0.10199076023E+01  0.10196246572E+01 0.  0.
     999903    2    3    3    0    0  0.33011411786E-01 -0.80026998265E-01 -0.92227910827E-01  0.12814535078E+00  0.20522417751E-01 0.  0.
         14    1    1    2    0    0 -0.68309525662E-02 -0.22139648445E-01 -0.63442609174E-02  0.24022397732E-01  0.00000000000E+00 0.  1.
     999901    1    3    3    0    0 -0.26180459220E-01  0.10216664671E+00  0.98572171745E-01  0.89176225149E+00  0.88000000000E+00 0.  1.
        -11    1    4    4    0    0  0.12131854795E-01 -0.55074587283E-01 -0.60093156523E-01  0.82412624319E-01  0.51100000000E-03 0.  1.
         11    1    4    4    0    0  0.20879556992E-01 -0.24952410982E-01 -0.32134754304E-01  0.45732726457E-01  0.51100000000E-03 0. -1.
</event>
<event>
 8    1  0.1092667E+005  0.1043930E+01  0.7957747E-01            NaN
         13   -1    0    0    0    0  0.00000000000E+00  0.00000000000E+00  0.74505805969E-08  0.10566000000E+00  0.10566000000E+00 0.  1.
     999900   -1    0    0    0    0 -0.00000000000E+00 -0.00000000000E+00 -0.74505805969E-08  0.93827000000E+00  0.93827000000E+00 0. -1.
     999902    2    1    2    0    0 -0.12343718812E-01 -0.95838268471E-02 -0.17910527949E-01  0.10201601842E+01  0.10198832273E+01 0.  0.
     999903    2    3    3    0    0 -0.12250048253E+00 -0.22276026397E-01  0.34631589995E-01  0.13164666227E+00  0.25078020030E-01 0.  0.
         14    1    1    2    0    0  0.12343718812E-01  0.95838268471E-02  0.17910527949E-01  0.23769815787E-01  0.00000000000E+00 0.  1.
     999901    1    3    3    0    0  0.11015676372E+00  0.12692199550E-01 -0.52542117944E-01  0.88851352195E+00  0.88000000000E+00 0.  1.
        -11    1    4    4    0    0 -0.33217998766E-01  0.23779570177E-02  0.16863109584E-01  0.37332502025E-01  0.51100000000E-03 0.  1.
         11    1    4    4    0    0 -0.89282483763E-01 -0.24653983414E-01  0.17768480411E-01  0.94314160243E-01  0.51100000000E-03 0. -1.
</event>
<event>
 8    1  0.1092667E+005  0.1043930E+01  0.7957747E-01            NaN
         13   -1    0    0    0    0  0.00000000000E+00  0.00000000000E+00  0.74505805969E-08  0.10566000000E+00  0.10566000000E+00 0.  1.
     999900   -1    0    0    0    0 -0.00000000000E+00 -0.00000000000E+00 -0.74505805969E-08  0.93827000000E+00  0.93827000000E+00 0. -1.
     999902    2    1    2    0    0 -0.13705399210E-01 -0.20666504036E-02 -0.72768395451E-02  0.10282755628E+01  0.10281563945E+01 0.  0.
     999903    2    3    3    0    0  0.10354175615E+00  0.41214491021E-01 -0.76562355406E-01  0.13674842613E+00  0.20464805098E-01 0.  0.
         14    1    1    2    0    0  0.13705399210E-01  0.20666504036E-02  0.72768395451E-02  0.15654437236E-01  0.00000000000E+00 0.  1.
     999901    1    3    3    0    0 -0.11724715536E+00 -0.43281141425E-01  0.69285515861E-01  0.89152713663E+00  0.88000000000E+00 0.  1.
        -11    1    4    4    0    0  0.87287166771E-01  0.41709291741E-01 -0.68866194400E-01  0.11874985622E+00  0.51100000000E-03 0.  1.
         11    1    4    4    0    0  0.16254589378E-01 -0.49480072000E-03 -0.76961610069E-02  0.17998569911E-01  0.51100000000E-03 0. -1.
</event>
<event>
 8    1  0.1092667E+005  0.1043930E+01  0.7957747E-01            NaN
         13   -1    0    0    0    0  0.00000000000E+00  0.00000000000E+00  0.74505805969E-08  0.10566000000E+00  0.10566000000E+00 0. -1.
     999900   -1    0    0    0    0 -0.00000000000E+00 -0.00000000000E+00 -0.74505805969E-08  0.93827000000E+00  0.93827000000E+00 0. -1.
     999902    2    1    2    0    0 -0.20050569687E-01 -0.16097597367E-01  0.35976676330E-02  0.10179665411E+01  0.10176353854E+01 0.  0.
     999903    2    3    3    0    0  0.11132441312E+00 -0.38808293398E-01  0.42490247118E-01  0.12707496826E+00  0.21057489491E-01 0.  0.
         14    1    1    2    0    0  0.20050569687E-01  0.16097597367E-01 -0.35976676330E-02  0.25963458902E-01  0.00000000000E+00 0.  1.
     999901    1    3    3    0    0 -0.13137498281E+00  0.22710696032E-01 -0.38892579485E-01  0.89089157284E+00  0.88000000000E+00 0.  1.
        -11    1    4    4    0    0  0.10916642842E+00 -0.33860231092E-01  0.39867368269E-01  0.12105161097E+00  0.51100000000E-03 0.  1.
         11    1    4    4    0    0  0.21579846968E-02 -0.49480623066E-02  0.26228788485E-02  0.60233572860E-02  0.51100000000E-03 0. -1.
</event>
<event>
 8    1  0.1092667E+005  0.1043930E+01  0.7957747E-01            NaN
         13   -1    0    0    0    0  0.00000000000E+00  0.00000000000E+00  0.74505805969E-08  0.10566000000E+00  0.10566000000E+00 0.  1.
     999900   -1    0    0    0    0 -0.00000000000E+00 -0.00000000000E+00 -0.74505805969E-08  0.93827000000E+00  0.93827000000E+00 0. -1.
     999902    2    1    2    0    0  0.22459785659E-01  0.48070317307E-02  0.53388245623E-02  0.10203492330E+01  0.10200767151E+01 0.  0.
     999903    2    3    3    0    0  0.41369762379E-01  0.31986723019E-01 -0.11850373634E+00  0.13106114538E+00  0.19982007232E-01 0.  0.
         14    1    1    2    0    0 -0.22459785659E-01 -0.48070317307E-02 -0.53388245623E-02  0.23580767027E-01  0.00000000000E+00 0. -1.
     999901    1    3    3    0    0 -0.18909976720E-01 -0.27179691288E-01  0.12384256090E+00  0.88928808759E+00  0.88000000000E+00 0.  1.
        -11    1    4    4    0    0  0.18380842386E-01  0.78574977457E-02 -0.26444776833E-01  0.33153928581E-01  0.51100000000E-03 0.  1.
         11    1    4    4    0    0  0.22988919994E-01  0.24129225273E-01 -0.92058959510E-01  0.97907216801E-01  0.51100000000E-03 0. -1.
</event>
<event>
 7    1  0.1092667E+005  0.1043930E+01  0.7957747E-01            NaN
         13   -1    0    0    0    0  0.00000000000E+00  0.00000000000E+00  0.74505805969E-08  0.10566000000E+00  0.10566000000E+00 0.  1.
     999900   -1    0    0    0    0 -0.00000000000E+00 -0.00000000000E+00 -0.74505805969E-08  0.93827000000E+00  0.93827000000E+00 0. -1.
     999903    2    1    2    0    0  0.44514433179E-01  0.36161387118E-01  0.68215421778E-01  0.90990307648E-01  0.18349704030E-01 0.  0.
         14    1    1    2    0    0  0.33116766016E-01  0.27725620146E-01  0.42169562412E-01  0.60363086384E-01  0.00000000000E+00 0.  1.
     999901    1    1    2    0    0 -0.77631199195E-01 -0.63887007264E-01 -0.11038498419E+00  0.89257660597E+00  0.88000000000E+00 0. -1.
        -11    1    3    3    0    0  0.25101737670E-01  0.15558019070E-01  0.22148498327E-01  0.36918373347E-01  0.51100000000E-03 0.  1.
         11    1    3    3    0    0  0.19412695509E-01  0.20603368048E-01  0.46066923451E-01  0.54071934302E-01  0.51100000000E-03 0. -1.
</event>
<event>
 8    1  0.1092667E+005  0.1043930E+01  0.7957747E-01            NaN
         13   -1    0    0    0    0  0.00000000000E+00  0.00000000000E+00  0.74505805969E-08  0.10566000000E+00  0.10566000000E+00 0. -1.
     999900   -1    0    0    0    0 -0.00000000000E+00 -0.00000000000E+00 -0.74505805969E-08  0.93827000000E+00  0.93827000000E+00 0.  1.
     999902    2    1    2    0    0  0.24560432706E-01 -0.48243358113E-02  0.14345384994E-02  0.10188591609E+01  0.10185506580E+01 0.  0.
     999903    2    3    3    0    0  0.25705941787E-01  0.92038229295E-01 -0.84890338574E-01  0.12934488162E+00  0.19796406798E-01 0.  0.
         14    1    1    2    0    0 -0.24560432706E-01  0.48243358113E-02 -0.14345384994E-02  0.25070839065E-01  0.00000000000E+00 0.  1.
     999901    1    3    3    0    0 -0.11455090814E-02 -0.96862565106E-01  0.86324877074E-01  0.88951427932E+00  0.88000000000E+00 0. -1.
        -11    1    4    4    0    0 -0.18808199160E-04  0.28207582559E-01 -0.31152209246E-01  0.42028434773E-01  0.51100000000E-03 0.  1.
         11    1    4    4    0    0  0.25724749987E-01  0.63830646736E-01 -0.53738129329E-01  0.87316446844E-01  0.51100000000E-03 0. -1.
</event>
<event>
 8    1  0.1092667E+005  0.1043930E+01  0.7957747E-01            NaN
         13   -1    0    0    0    0  0.00000000000E+00  0.00000000000E+00  0.74505805969E-08  0.10566000000E+00  0.10566000000E+00 0.  1.
     999900   -1    0    0    0    0 -0.00000000000E+00 -0.00000000000E+00 -0.74505805969E-08  0.93827000000E+00  0.93827000000E+00 0.  1.
     999902    2    1    2    0    0 -0.14331455831E-01 -0.40612800462E-02 -0.18592059053E-01  0.10201067072E+01  0.10198284879E+01 0.  0.
     999903    2    3    3    0    0  0.49527092828E-01 -0.11883573456E+00 -0.10673763007E-02  0.13018637132E+00  0.19299928775E-01 0.  0.
         14    1    1    2    0    0  0.14331455831E-01  0.40612800462E-02  0.18592059053E-01  0.23823292839E-01  0.00000000000E+00 0.  1.
     999901    1    3    3    0    0 -0.63858548659E-01  0.11477445452E+00 -0.17524682752E-01  0.88992033585E+00  0.88000000000E+00 0. -1.
        -11    1    4    4    0    0  0.95667973334E-02 -0.10249655455E-01 -0.34779888958E-02  0.14454638561E-01  0.51100000000E-03 0. -1.
         11    1    4    4    0    0  0.39960295494E-01 -0.10858607911E+00  0.24106125951E-02  0.11573173275E+00  0.51100000000E-03 0.  1.
</event>
<event>
 8    1  0.1092667E+005  0.1043930E+01  0.7957747E-01            NaN
         13   -1    0    0    0    0  0.00000000000E+00  0.00000000000E+00  0.74505805969E-08  0.10566000000E+00  0.10566000000E+00 0. -1.
     999900   -1    0    0    0    0 -0.00000000000E+00 -0.00000000000E+00 -0.74505805969E-08  0.93827000000E+00  0.93827000000E+00 0.  1.
     999902    2    1    2    0    0 -0.14015656992E-01 -0.12493227121E-01  0.14505800982E-01  0.10202036934E+01  0.10199277613E+01 0.  0.
     999903    2    3    3    0    0 -0.77696742714E-01  0.10082520373E+00 -0.17313288573E-01  0.13008639664E+00  0.20499148631E-01 0.  0.
         14    1    1    2    0    0  0.14015656992E-01  0.12493227121E-01 -0.14505800982E-01  0.23726306643E-01  0.00000000000E+00 0. -1.
     999901    1    3    3    0    0  0.63681085723E-01 -0.11331843085E+00  0.31819089554E-01  0.89011729671E+00  0.88000000000E+00 0. -1.
        -11    1    4    4    0    0 -0.51957210223E-01  0.53609767962E-01 -0.44454439298E-02  0.74790253428E-01  0.51100000000E-03 0. -1.
         11    1    4    4    0    0 -0.25739532491E-01  0.47215435768E-01 -0.12867844643E-01  0.55296143214E-01  0.51100000000E-03 0.  1.
</event>
<event>
 8    1  0.1092667E+005  0.1043930E+01  0.7957747E-01            NaN
         13   -1    0    0    0    0  0.00000000000E+00  0.00000000000E+00  0.74505805969E-08  0.10566000000E+00  0.10566000000E+00 0.  1.
     999900   -1    0    0    0    0 -0.00000000000E+00 -0.00000000000E+00 -0.74505805969E-08  0.93827000000E+00  0.93827000000E+00 0.  1.
     999902    2    1    2    0    0 -0.34427587756E-02 -0.26085671716E-02 -0.24623700888E-01  0.10189303229E+01  0.10186235905E+01 0.  0.
     999903    2    3    3    0    0 -0.87057032645E-01  0.14249977520E-01  0.89744560022E-01  0.12743962948E+00  0.20119252347E-01 0.  0.
         14    1    1    2    0    0  0.34427587756E-02  0.26085671716E-02  0.24623700888E-01  0.24999677120E-01  0.00000000000E+00 0.  1.
     999901    1    3    3    0    0  0.83614273869E-01 -0.16858544691E-01 -0.11436826091E+00  0.89149069340E+00  0.88000000000E+00 0. -1.
        -11    1    4    4    0    0 -0.18170856760E-01  0.75930778068E-02  0.10848113408E-01  0.22489498693E-01  0.51100000000E-03 0. -1.
         11    1    4    4    0    0 -0.68886175885E-01  0.66568997131E-02  0.78896446613E-01  0.10495013078E+00  0.51100000000E-03 0.  1.
</event>
<event>
 8    1  0.1092667E+005  0.1043930E+01  0.7957747E-01            NaN
         13   -1    0    0    0    0  0.00000000000E+00  0.00000000000E+00  0.74505805969E-08  0.10566000000E+00  0.10566000000E+00 0. -1.
     999900   -1    0    0    0    0 -0.00000000000E+00 -0.00000000000E+00 -0.74505805969E-08  0.93827000000E+00  0.93827000000E+00 0.  1.
     999902    2    1    2    0    0  0.15169250810E-01 -0.80188964424E-02  0.12144683779E-01  0.10229085297E+01  0.10226925041E+01 0.  0.
     999903    2    3    3    0    0  0.11763437891E+00 -0.62925359239E-01  0.11027949652E-01  0.13526272801E+00  0.19414993611E-01 0.  0.
         14    1    1    2    0    0 -0.15169250810E-01  0.80188964424E-02 -0.12144683779E-01  0.21021470319E-01  0.00000000000E+00 0.  1.
     999901    1    3    3    0    0 -0.10246512810E+00  0.54906462796E-01  0.11167341266E-02  0.88764580167E+00  0.88000000000E+00 0.  1.
        -11    1    4    4    0    0  0.63071719856E-01 -0.38691220510E-01 -0.25279993595E-02  0.74038532481E-01  0.51100000000E-03 0.  1.
         11    1    4    4    0    0  0.54562659056E-01 -0.24234138729E-01  0.13555949011E-01  0.61224195526E-01  0.51100000000E-03 0. -1.
</event>
<event>
 8    1  0.1092667E+005  0.1043930E+01  0.7957747E-01            NaN
         13   -1    0    0    0    0  0.00000000000E+00  0.00000000000E+00  0.74505805969E-08  0.10566000000E+00  0.10566000000E+00 0. -1.
     999900   -1    0    0    0    0 -0.00000000000E+00 -0.00000000000E+00 -0.74505805969E-08  0.93827000000E+00  0.93827000000E+00 0. -1.
     999902    2    1    2    0    0 -0.15293544293E-02  0.21751132304E-01 -0.94840802694E-02  0.10201518912E+01  0.10198747387E+01 0.  0.
     999903    2    3    3    0    0 -0.75635096408E-01  0.10699782426E+00 -0.12150176886E-01  0.13292826233E+00  0.18790793526E-01 0.  0.
         14    1    1    2    0    0  0.15293544293E-02 -0.21751132304E-01  0.94840802694E-02  0.23778108840E-01  0.00000000000E+00 0.  1.
     999901    1    3    3    0    0  0.74105741979E-01 -0.85246691961E-01  0.26660966161E-02  0.88722362883E+00  0.88000000000E+00 0. -1.
        -11    1    4    4    0    0 -0.10011605281E-01  0.54013308882E-02 -0.19191539316E-02  0.11547765519E-01  0.51100000000E-03 0.  1.
         11    1    4    4    0    0 -0.65623491127E-01  0.10159649338E+00 -0.10231022954E-01  0.12138049681E+00  0.51100000000E-03 0. -1.
</event>
<event>
 8    1  0.1092667E+005  0.1043930E+01  0.7957747E-01            NaN
         13   -1    0    0    0    0  0.00000000000E+00  0.00000000000E+00  0.74505805969E-08  0.10566000000E+00  0.10566000000E+00 0.  1.
     999900   -1    0    0    0    0 -0.00000000000E+00 -0.00000000000E+00 -0.74505805969E-08  0.93827000000E+00  0.93827000000E+00 0.  1.
     999902    2    1    2    0    0 -0.12074876150E-01 -0.88551581117E-02 -0.17768810296E-01  0.10206932386E+01  0.10204287042E+01 0.  0.
     999903    2    3    3    0    0  0.12195778290E+00  0.35124329060E-01  0.11132488486E-01  0.12899024209E+00  0.20177486254E-01 0.  0.
         14    1    1    2    0    0  0.12074876150E-01  0.88551581117E-02  0.17768810296E-01  0.23236761361E-01  0.00000000000E+00 0. -1.
     999901    1    3    3    0    0 -0.13403265905E+00 -0.43979487172E-01 -0.28901298783E-01  0.89170299655E+00  0.88000000000E+00 0.  1.
        -11    1    4    4    0    0  0.34482526051E-01  0.13055371604E-01 -0.54069477301E-02  0.37269069419E-01  0.51100000000E-03 0.  1.
         11    1    4    4    0    0  0.87475256852E-01  0.22068957457E-01  0.16539436217E-01  0.91721172670E-01  0.51100000000E-03 0. -1.
</event>
<event>
 8    1  0.1092667E+005  0.1043930E+01  0.7957747E-01            NaN
         13   -1    0    0    0    0  0.00000000000E+00  0.00000000000E+00  0.74505805969E-08  0.10566000000E+00  0.10566000000E+00 0. -1.
     999900   -1    0    0    0    0 -0.00000000000E+00 -0.00000000000E+00 -0.74505805969E-08  0.93827000000E+00  0.93827000000E+00 0. -1.
     999902    2    1    2    0    0  0.15912633277E-01  0.15260332962E-01 -0.63712263829E-02  0.10209804426E+01  0.10207224804E+01 0.  0.
     999903    2    3    3    0    0  0.16708168474E-01  0.12752113761E+00 -0.28926446515E-01  0.13356179330E+00  0.21475797818E-01 0.  0.
         14    1    1    2    0    0 -0.15912633277E-01 -0.15260332962E-01  0.63712263829E-02  0.22949557415E-01  0.00000000000E+00 0.  1.
     999901    1    3    3    0    0 -0.79553519698E-03 -0.11226080465E+00  0.22555220132E-01  0.88741864928E+00  0.88000000000E+00 0. -1.
        -11    1    4    4    0    0 -0.23566438354E-02  0.56313313433E-02 -0.49611573803E-02  0.78828843971E-02  0.51100000000E-03 0. -1.
         11    1    4    4    0    0  0.19064812309E-01  0.12188980627E+00 -0.23965289134E-01  0.12567890891E+00  0.51100000000E-03 0.  1.
</event>
<event>
 8    1  0.1092667E+005  0.1043930E+01  0.7957747E-01            NaN
         13   -1    0    0    0    0  0.00000000000E+00  0.00000000000E+00  0.74505805969E-08  0.10566000000E+00  0.10566000000E+00 0.  1.
     999900   -1    0    0    0    0 -0.00000000000E+00 -0.00000000000E+00 -0.74505805969E-08  0.93827000000E+00  0.93827000000E+00 0. -1.
     999902    2    1    2    0    0 -0.66518326319E-02 -0.46348654804E-02 -0.22287773337E-01  0.10202134721E+01  0.10199377701E+01 0.  0.
     999903    2    3    3    0    0  0.63420086488E-02 -0.73320347810E-01  0.10350011098E+00  0.12852455368E+00  0.19753314888E-01 0.  0.
         14    1    1    2    0    0  0.66518326319E-02  0.46348654804E-02  0.22287773337E-01  0.23716527902E-01  0.00000000000E+00 0.  1.
     999901    1    3    3    0    0 -0.12993841281E-01  0.68685482330E-01 -0.12578788431E+00  0.89168891842E+00  0.88000000000E+00 0. -1.
        -11    1    4    4    0    0 -0.47001822054E-03 -0.11341385837E-01  0.61586795377E-02  0.12924333812E-01  0.51100000000E-03 0. -1.
         11    1    4    4    0    0  0.68120268693E-02 -0.61978961973E-01  0.97341431439E-01  0.11560021987E+00  0.51100000000E-03 0.  1.
</event>
<event>
 8    1  0.1092667E+005  0.1043930E+01  0.7957747E-01            NaN
         13   -1    0    0    0    0  0.00000000000E+00  0.00000000000E+00  0.74505805969E-08  0.10566000000E+00  0.10566000000E+00 0.  1.
     999900   -1    0    0    0    0 -0.00000000000E+00 -0.00000000000E+00 -0.74505805969E-08  0.93827000000E+00  0.93827000000E+00 0.  1.
     999902    2    1    2    0    0 -0.12535931522E-01  0.12554691510E-01  0.15034710416E-01  0.10206746270E+01  0.10204096637E+01 0.  0.
     999903    2    3    3    0    0 -0.34205202869E-01 -0.10258468610E+00 -0.64160079050E-01  0.12938429924E+00  0.30498646233E-01 0.  0.
         14    1    1    2    0    0  0.12535931522E-01 -0.12554691510E-01 -0.15034710416E-01  0.23255373042E-01  0.00000000000E+00 0. -1.
     999901    1    3    3    0    0  0.21669271347E-01  0.11513937761E+00  0.79194789466E-01  0.89129032771E+00  0.88000000000E+00 0.  1.
        -11    1    4    4    0    0 -0.78275633433E-02 -0.17278658092E-01  0.75195367726E-03  0.18990769566E-01  0.51100000000E-03 0.  1.
         11    1    4    4    0    0 -0.26377639525E-01 -0.85306028007E-01 -0.64912032727E-01  0.11039352968E+00  0.51100000000E-03 0. -1.
</event>
<event>
 8    1  0.1092667E+005  0.1043930E+01  0.7957747E-01            NaN
         13   -1    0    0    0    0  0.00000000000E+00  0.00000000000E+00  0.74505805969E-08  0.10566000000E+00  0.10566000000E+00 0. -1.
     999900   -1    0    0    0    0 -0.00000000000E+00 -0.00000000000E+00 -0.74505805969E-08  0.93827000000E+00  0.93827000000E+00 0. -1.
     999902    2    1    2    0    0 -0.39664443070E-03  0.23510324873E-01 -0.92053054057E-02  0.10186786565E+01  0.10183656391E+01 0.  0.
     999903    2    3    3    0    0  0.31261512595E-01  0.12383277780E+00  0.25148114666E-01  0.13174743538E+00  0.20325354395E-01 0.  0.
         14    1    1    2    0    0  0.39664443070E-03 -0.23510324873E-01  0.92053054057E-02  0.25251343529E-01  0.00000000000E+00 0. -1.
     999901    1    3    3    0    0 -0.31658157026E-01 -0.10032245293E+00 -0.34353420072E-01  0.88693122109E+00  0.88000000000E+00 0. -1.
        -11    1    4    4    0    0  0.32592458079E-01  0.11574788879E+00  0.27193998347E-01  0.12328672577E+00  0.51100000000E-03 0.  1.
         11    1    4    4    0    0 -0.13309454835E-02  0.80848890073E-02 -0.20458836815E-02  0.84607096144E-02  0.51100000000E-03 0. -1.
</event>
<event>
 8    1  0.1092667E+005  0.1043930E+01  0.7957747E-01            NaN
         13   -1    0    0    0    0  0.00000000000E+00  0.00000000000E+00  0.74505805969E-08  0.10566000000E+00  0.10566000000E+00 0.  1.
     999900   -1    0    0    0    0 -0.00000000000E+00 -0.00000000000E+00 -0.74505805969E-08  0.93827000000E+00  0.93827000000E+00 0. -1.
     999902    2    1    2    0    0 -0.64946320129E-02  0.29306801759E-02  0.23376769899E-01  0.10194914546E+01  0.10191985005E+01 0.  0.
     999903    2    3    3    0    0 -0.25564343669E-02  0.20106121531E-01 -0.12387158110E+00  0.12708315001E+00  0.19878806115E-01 0.  0.
         14    1    1    2    0    0  0.64946320129E-02 -0.29306801759E-02 -0.23376769899E-01  0.24438545419E-01  0.00000000000E+00 0. -1.
     999901    1    3    3    0    0 -0.39381976460E-02 -0.17175441356E-01  0.14724835100E+00  0.89240830457E+00  0.88000000000E+00 0.  1.
        -11    1    4    4    0    0 -0.38092558573E-02  0.18723029708E-01 -0.55775015343E-01  0.58959102174E-01  0.51100000000E-03 0. -1.
         11    1    4    4    0    0  0.12528214903E-02  0.13830918237E-02 -0.68096565762E-01  0.68124047841E-01  0.51100000000E-03 0.  1.
</event>
<event>
 8    1  0.1092667E+005  0.1043930E+01  0.7957747E-01            NaN
         13   -1    0    0    0    0  0.00000000000E+00  0.00000000000E+00  0.74505805969E-08  0.10566000000E+00  0.10566000000E+00 0.  1.
     999900   -1    0    0    0    0 -0.00000000000E+00 -0.00000000000E+00 -0.74505805969E-08  0.93827000000E+00  0.93827000000E+00 0.  1.
     999902    2    1    2    0    0  0.18014054921E-01 -0.15713696718E-01  0.95740858054E-03  0.10200063073E+01  0.10197257102E+01 0.  0.
     999903    2    3    3    0    0 -0.38354200328E-01  0.76942597634E-01 -0.93052955076E-01  0.12837829210E+00  0.20758743249E-01 0.  0.
         14    1    1    2    0    0 -0.18014054921E-01  0.15713696718E-01 -0.95740858054E-03  0.23923692659E-01  0.00000000000E+00 0. -1.
     999901    1    3    3    0    0  0.56368255250E-01 -0.92656294352E-01  0.94010363657E-01  0.89162801524E+00  0.88000000000E+00 0. -1.
        -11    1    4    4    0    0 -0.14949687650E-01  0.51698017265E-01 -0.60868817959E-01  0.81249321663E-01  0.51100000000E-03 0.  1.
         11    1    4    4    0    0 -0.23404512678E-01  0.25244580368E-01 -0.32184137118E-01  0.47128970440E-01  0.51100000000E-03 0. -1.
</event>
<event>
 8    1  0.1092667E+005  0.1043930E+01  0.7957747E-01            NaN
         13   -1    0    0    0    0  0.00000000000E+00  0.00000000000E+00  0.74505805969E-08  0.10566000000E+00  0.10566000000E+00 0.  1.
     999900   -1    0    0    0    0 -0.00000000000E+00 -0.00000000000E+00 -0.74505805969E-08  0.93827000000E+00  0.93827000000E+00 0. -1.
     999902    2    1    2    0    0 -0.12999596787E-01  0.15021623848E-01  0.13815779152E-01  0.10197325941E+01  0.10194454615E+01 0.  0.
     999903    2    3    3    0    0 -0.12612200320E-01 -0.10706513581E+00 -0.65552712879E-01  0.12776584331E+00  0.20123161948E-01 0.  0.
         14    1    1    2    0    0  0.12999596787E-01 -0.15021623848E-01 -0.13815779152E-01  0.24197405920E-01  0.00000000000E+00 0. -1.
     999901    1    3    3    0    0 -0.38739646693E-03  0.12208675966E+00  0.79368492032E-01  0.89196675077E+00  0.88000000000E+00 0. -1.
        -11    1    4    4    0    0  0.13113733848E-02 -0.26835658818E-01 -0.79585759995E-02  0.28026279405E-01  0.51100000000E-03 0. -1.
         11    1    4    4    0    0 -0.13923573705E-01 -0.80229476992E-01 -0.57594136880E-01  0.99739563901E-01  0.51100000000E-03 0.  1.
</event>
<event>
 8    1  0.1092667E+005  0.1043930E+01  0.7957747E-01            NaN
         13   -1    0    0    0    0  0.00000000000E+00  0.00000000000E+00  0.74505805969E-08  0.10566000000E+00  0.10566000000E+00 0.  1.
     999900   -1    0    0    0    0 -0.00000000000E+00 -0.00000000000E+00 -0.74505805969E-08  0.93827000000E+00  0.93827000000E+00 0. -1.
     999902    2    1    2    0    0 -0.90437302137E-02 -0.22190641276E-01  0.28361911564E-02  0.10197999856E+01  0.10195144692E+01 0.  0.
     999903    2    3    3    0    0  0.11289221260E+00  0.52228656948E-01  0.22200738998E-01  0.12807043474E+00  0.20896869877E-01 0.  0.
         14    1    1    2    0    0  0.90437302137E-02  0.22190641276E-01 -0.28361911564E-02  0.24130014436E-01  0.00000000000E+00 0. -1.
     999901    1    3    3    0    0 -0.12193594281E+00 -0.74419298224E-01 -0.19364547842E-01  0.89172955082E+00  0.88000000000E+00 0.  1.
        -11    1    4    4    0    0  0.46134898604E-01  0.13225995896E-01  0.14552858737E-02  0.48018067586E-01  0.51100000000E-03 0. -1.
         11    1    4    4    0    0  0.66757313994E-01  0.39002661051E-01  0.20745453124E-01  0.80052367155E-01  0.51100000000E-03 0.  1.
</event>
<event>
 8    1  0.1092667E+005  0.1043930E+01  0.7957747E-01            NaN
         13   -1    0    0    0    0  0.00000000000E+00  0.00000000000E+00  0.74505805969E-08  0.10566000000E+00  0.10566000000E+00 0. -1.
     999900   -1    0    0    0    0 -0.00000000000E+00 -0.00000000000E+00 -0.74505805969E-08  0.93827000000E+00  0.93827000000E+00 0.  1.
     999902    2    1    2    0    0 -0.22210900183E-01 -0.55662694007E-02 -0.25841268011E-02  0.10208868849E+01  0.10206267911E+01 0.  0.
     999903    2    3    3    0    0  0.10187471251E+00  0.50420122596E-01 -0.57128780175E-01  0.12875077725E+00  0.19809576158E-01 0.  0.
         14    1    1    2    0    0  0.22210900183E-01  0.55662694007E-02  0.25841268011E-02  0.23043115096E-01  0.00000000000E+00 0. -1.
     999901    1    3    3    0    0 -0.12408561269E+00 -0.55986391997E-01  0.54544653374E-01  0.89213610765E+00  0.88000000000E+00 0.  1.
        -11    1    4    4    0    0  0.47302420683E-01  0.31727049225E-01 -0.35641948655E-01  0.67191772412E-01  0.51100000000E-03 0. -1.
         11    1    4    4    0    0  0.54572291825E-01  0.18693073371E-01 -0.21486831520E-01  0.61559004839E-01  0.51100000000E-03 0.  1.
</event>
<event>
 8    1  0.1092667E+005  0.1043930E+01  0.7957747E-01            NaN
         13   -1    0    0    0    0  0.00000000000E+00  0.00000000000E+00  0.74505805969E-08  0.10566000000E+00  0.10566000000E+00 0.  1.
     999900   -1    0    0    0    0 -0.00000000000E+00 -0.00000000000E+00 -0.74505805969E-08  0.93827000000E+00  0.93827000000E+00 0.  1.
     999902    2    1    2    0    0  0.64028250883E-02 -0.19309956315E-01 -0.13210430291E-01  0.10196733298E+01  0.10193847720E+01 0.  0.
     999903    2    3    3    0    0 -0.40966492251E-01  0.14710385468E-01  0.11873300540E+00  0.12792767876E+00  0.19321373975E-01 0.  0.
         14    1    1    2    0    0 -0.64028250883E-02  0.19309956315E-01  0.13210430291E-01  0.24256670226E-01  0.00000000000E+00 0. -1.
     999901    1    3    3    0    0  0.47369317339E-01 -0.34020341783E-01 -0.13194343570E+00  0.89174565101E+00  0.88000000000E+00 0.  1.
        -11    1    4    4    0    0 -0.27902918122E-01  0.31782580148E-02  0.53744567907E-01  0.60641684214E-01  0.51100000000E-03 0.  1.
         11    1    4    4    0    0 -0.13063574129E-01  0.11532127453E-01  0.64988437497E-01  0.67285994546E-01  0.51100000000E-03 0. -1.
</event>
<event>
 8    1  0.1092667E+005  0.1043930E+01  0.7957747E-01            NaN
         13   -1    0    0    0    0  0.00000000000E+00  0.00000000000E+00  0.74505805969E-08  0.10566000000E+00  0.10566000000E+00 0. -1.
     999900   -1    0    0    0    0 -0.00000000000E+00 -0.00000000000E+00 -0.74505805969E-08  0.93827000000E+00  0.93827000000E+00 0. -1.
     999902    2    1    2    0    0 -0.13108289783E-02  0.16090925662E-01 -0.17535130859E-01  0.10200947955E+01  0.10198162946E+01 0.  0.
     999903    2    3    3    0    0 -0.98715418374E-01 -0.71574399417E-02  0.80535025089E-01  0.12900226602E+00  0.18966591692E-01 0.  0.
         14    1    1    2    0    0  0.13108289783E-02 -0.16090925662E-01  0.17535130859E-01  0.23835204541E-01  0.00000000000E+00 0. -1.
     999901    1    3    3    0    0  0.97404589395E-01  0.23248365604E-01 -0.98070155948E-01  0.89109252944E+00  0.88000000000E+00 0. -1.
        -11    1    4    4    0    0 -0.78469627675E-01 -0.10744220494E-01  0.56074710981E-01  0.97044088301E-01  0.51100000000E-03 0.  1.
         11    1    4    4    0    0 -0.20245790699E-01  0.35867805525E-02  0.24460314107E-01  0.31958177717E-01  0.51100000000E-03 0. -1.
</event>
<event>
 8    1  0.1092667E+005  0.1043930E+01  0.7957747E-01            NaN
         13   -1    0    0    0    0  0.00000000000E+00  0.00000000000E+00  0.74505805969E-08  0.10566000000E+00  0.10566000000E+00 0.  1.
     999900   -1    0    0    0    0 -0.00000000000E+00 -0.00000000000E+00 -0.74505805969E-08  0.93827000000E+00  0.93827000000E+00 0. -1.
     999902    2    1    2    0    0 -0.18299695430E-01 -0.75828779222E-02 -0.14523188616E-01  0.10193677953E+01  0.10190718327E+01 0.  0.
     999903    2    3    3    0    0 -0.24035948791E-01 -0.22760819338E-01 -0.12628361625E+00  0.13215098548E+00  0.20507303546E-01 0.  0.
         14    1    1    2    0    0  0.18299695430E-01  0.75828779222E-02  0.14523188616E-01  0.24562204665E-01  0.00000000000E+00 0.  1.
     999901    1    3    3    0    0  0.57362533614E-02  0.15177941415E-01  0.11176042763E+00  0.88721680986E+00  0.88000000000E+00 0.  1.
        -11    1    4    4    0    0 -0.19984181258E-01 -0.72726134803E-02 -0.90158186104E-01  0.92633784603E-01  0.51100000000E-03 0.  1.
         11    1    4    4    0    0 -0.40517675332E-02 -0.15488205857E-01 -0.36125430145E-01  0.39517200875E-01  0.51100000000E-03 0. -1.
</event>
<event>
 8    1  0.1092667E+005  0.1043930E+01  0.7957747E-01            NaN
         13   -1    0    0    0    0  0.00000000000E+00  0.00000000000E+00  0.74505805969E-08  0.10566000000E+00  0.10566000000E+00 0. -1.
     999900   -1    0    0    0    0 -0.00000000000E+00 -0.00000000000E+00 -0.74505805969E-08  0.93827000000E+00  0.93827000000E+00 0.  1.
     999902    2    1    2    0    0  0.10365002386E-01 -0.22214106550E-01  0.99421655519E-02  0.10174772788E+01  0.10171333572E+01 0.  0.
     999903    2    3    3    0    0  0.49607128296E-01 -0.81997354441E-01  0.87307774176E-01  0.13119322805E+00  0.20114232309E-01 0.  0.
         14    1    1    2    0    0 -0.10365002386E-01  0.22214106550E-01 -0.99421655519E-02  0.26452721224E-01  0.00000000000E+00 0.  1.
     999901    1    3    3    0    0 -0.39242125910E-01  0.59783247891E-01 -0.77365608624E-01  0.88628405073E+00  0.88000000000E+00 0.  1.
        -11    1    4    4    0    0  0.60810916933E-03 -0.13535557811E-01  0.95199054779E-02  0.16567161595E-01  0.51100000000E-03 0. -1.
         11    1    4    4    0    0  0.48999019127E-01 -0.68461796631E-01  0.77787868698E-01  0.11462606645E+00  0.51100000000E-03 0.  1.
</event>
<event>
 8    1  0.1092667E+005  0.1043930E+01  0.7957747E-01            NaN
         13   -1    0    0    0    0  0.00000000000E+00  0.00000000000E+00  0.74505805969E-08  0.10566000000E+00  0.10566000000E+00 0. -1.
     999900   -1    0    0    0    0 -0.00000000000E+00 -0.00000000000E+00 -0.74505805969E-08  0.93827000000E+00  0.93827000000E+00 0.  1.
     999902    2    1    2    0    0 -0.68200277097E-02  0.69987021158E-02 -0.17799856286E-01  0.10236241020E+01  0.10234226755E+01 0.  0.
     999903    2    3    3    0    0  0.43773855116E-01 -0.88278271106E-01 -0.88790168915E-01  0.13419896908E+00  0.20407490409E-01 0.  0.
         14    1    1    2    0    0  0.68200277097E-02 -0.69987021158E-02  0.17799856286E-01  0.20305897988E-01  0.00000000000E+00 0. -1.
     999901    1    3    3    0    0 -0.50593882826E-01  0.95276973222E-01  0.70990312629E-01  0.88942513293E+00  0.88000000000E+00 0. -1.
        -11    1    4    4    0    0  0.23464533492E-01 -0.29693288435E-01 -0.41860915947E-01  0.56434680074E-01  0.51100000000E-03 0.  1.
         11    1    4    4    0    0  0.20309321624E-01 -0.58584982672E-01 -0.46929252968E-01  0.77764289006E-01  0.51100000000E-03 0. -1.
</event>
<event>
 8    1  0.1092667E+005  0.1043930E+01  0.7957747E-01            NaN
         13   -1    0    0    0    0  0.00000000000E+00  0.00000000000E+00  0.74505805969E-08  0.10566000000E+00  0.10566000000E+00 0. -1.
     999900   -1    0    0    0    0 -0.00000000000E+00 -0.00000000000E+00 -0.74505805969E-08  0.93827000000E+00  0.93827000000E+00 0. -1.
     999902    2    1    2    0    0  0.20357188631E-01 -0.11916179088E-01 -0.13631339666E-02  0.10203022920E+01  0.10200286753E+01 0.  0.
     999903    2    3    3    0    0  0.10179808383E+00  0.76099484442E-01  0.28632728701E-01  0.13166337304E+00  0.19011292553E-01 0.  0.
         14    1    1    2    0    0 -0.20357188631E-01  0.11916179088E-01  0.13631339666E-02  0.23627708040E-01  0.00000000000E+00 0.  1.
     999901    1    3    3    0    0 -0.81440895198E-01 -0.88015663530E-01 -0.29995862668E-01  0.88863891892E+00  0.88000000000E+00 0. -1.
        -11    1    4    4    0    0  0.22146618710E-01  0.27064221536E-01  0.80710987195E-02  0.35893572728E-01  0.51100000000E-03 0. -1.
         11    1    4    4    0    0  0.79651465119E-01  0.49035262906E-01  0.20561629982E-01  0.95769800315E-01  0.51100000000E-03 0.  1.
</event>
<event>
 8    1  0.1092667E+005  0.1043930E+01  0.7957747E-01            NaN
         13   -1    0    0    0    0  0.00000000000E+00  0.00000000000E+00  0.74505805969E-08  0.10566000000E+00  0.10566000000E+00 0. -1.
     999900   -1    0    0    0    0 -0.00000000000E+00 -0.00000000000E+00 -0.74505805969E-08  0.93827000000E+00  0.93827000000E+00 0. -1.
     999902    2    1    2    0    0 -0.22555556541E-01  0.10610414306E-02 -0.65978554427E-02  0.10204053186E+01  0.10201341106E+01 0.  0.
     999903    2    3    3    0    0  0.72404912827E-01 -0.10343013362E+00 -0.17557842549E-01  0.12908269588E+00  0.20342089351E-01 0.  0.
         14    1    1    2    0    0  0.22555556541E-01 -0.10610414306E-02  0.65978554427E-02  0.23524681427E-01  0.00000000000E+00 0.  1.
     999901    1    3    3    0    0 -0.94960469368E-01  0.10449117505E+00  0.10959987107E-01  0.89132262269E+00  0.88000000000E+00 0.  1.
        -11    1    4    4    0    0  0.46703789923E-01 -0.52315717942E-01 -0.15540124341E-01  0.71832687006E-01  0.51100000000E-03 0. -1.
         11    1    4    4    0    0  0.25701122904E-01 -0.51114415676E-01 -0.20177182083E-02  0.57250008875E-01  0.51100000000E-03 0.  1.
</event>
<event>
 8    1  0.1092667E+005  0.1043930E+01  0.7957747E-01            NaN
         13   -1    0    0    0    0  0.00000000000E+00  0.00000000000E+00  0.74505805969E-08  0.10566000000E+00  0.10566000000E+00 0.  1.
     999900   -1    0    0    0    0 -0.00000000000E+00 -0.00000000000E+00 -0.74505805969E-08  0.93827000000E+00  0.93827000000E+00 0. -1.
     999902    2    1    2    0    0  0.66915848748E-02  0.13006732799E-01 -0.12275107468E-01  0.10248346951E+01  0.10246567823E+01 0.  0.
     999903    2    3    3    0    0 -0.21394141066E-01  0.11340937475E+00  0.67282011441E-01  0.13511629375E+00  0.20252116423E-01 0.  0.
         14    1    1    2    0    0 -0.66915848748E-02 -0.13006732799E-01  0.12275107468E-01  0.19095304909E-01  0.00000000000E+00 0.  1.
     999901    1    3    3    0    0  0.28085725941E-01 -0.10040264195E+00 -0.79557118909E-01  0.88971840134E+00  0.88000000000E+00 0.  1.
        -11    1    4    4    0    0 -0.18685348012E-01  0.87370931629E-01  0.42031769092E-01  0.98740835818E-01  0.51100000000E-03 0.  1.
         11    1    4    4    0    0 -0.27087930540E-02  0.26038443124E-01  0.25250242349E-01  0.36375457933E-01  0.51100000000E-03 0. -1.
</event>
