<event>
 8    1  0.1116841E+005  0.1043930E+01  0.7957747E-01            NaN
         13   -1    0    0    0    0  0.00000000000E+00  0.00000000000E+00  0.74505805969E-08  0.10566000000E+00  0.10566000000E+00 0. -1.
     999900   -1    0    0    0    0 -0.00000000000E+00 -0.00000000000E+00 -0.74505805969E-08  0.93827000000E+00  0.93827000000E+00 0.  1.
     999902    2    1    2    0    0  0.18403782035E-01  0.38684962941E-02 -0.14729950566E-01  0.10200420135E+01  0.10197622631E+01 0.  0.
     999903    2    3    3    0    0  0.16045801314E-01 -0.13284686692E-01  0.12537824854E+00  0.12879002934E+00  0.20813836954E-01 0.  0.
         14    1    1    2    0    0 -0.18403782035E-01 -0.38684962941E-02  0.14729950566E-01  0.23887986530E-01  0.00000000000E+00 0. -1.
     999901    1    3    3    0    0  0.23579807211E-02  0.17153182986E-01 -0.14010819911E+00  0.89125198413E+00  0.88000000000E+00 0.  1.
        -11    1    4    4    0    0  0.66555931878E-03 -0.14007133529E-01  0.61422992243E-01  0.63005458938E-01  0.51100000000E-03 0.  1.
         11    1    4    4    0    0  0.15380241995E-01  0.72244683716E-03  0.63955256302E-01  0.65784570401E-01  0.51100000000E-03 0. -1.
</event>
<event>
 8    1  0.1116841E+005  0.1043930E+01  0.7957747E-01            NaN
         13   -1    0    0    0    0  0.00000000000E+00  0.00000000000E+00  0.74505805969E-08  0.10566000000E+00  0.10566000000E+00 0.  1.
     999900   -1    0    0    0    0 -0.00000000000E+00 -0.00000000000E+00 -0.74505805969E-08  0.93827000000E+00  0.93827000000E+00 0.  1.
     999902    2    1    2    0    0  0.24213131066E-01 -0.65284078688E-02 -0.46962673781E-02  0.10184162635E+01  0.10180966236E+01 0.  0.
     999903    2    3    3    0    0 -0.58982642032E-01 -0.60994576758E-01  0.93028832444E-01  0.12744022823E+00  0.19681403643E-01 0.  0.
         14    1    1    2    0    0 -0.24213131066E-01  0.65284078688E-02  0.46962673781E-02  0.25513736547E-01  0.00000000000E+00 0. -1.
     999901    1    3    3    0    0  0.83195773098E-01  0.54466168889E-01 -0.97725099822E-01  0.89097603523E+00  0.88000000000E+00 0.  1.
        -11    1    4    4    0    0 -0.41777233382E-01 -0.34334899458E-01  0.47713433836E-01  0.72118343293E-01  0.51100000000E-03 0. -1.
         11    1    4    4    0    0 -0.17205408650E-01 -0.26659677300E-01  0.45315398607E-01  0.55321884932E-01  0.51100000000E-03 0.  1.
</event>
<event>
 8    1  0.1116841E+005  0.1043930E+01  0.7957747E-01            NaN
         13   -1    0    0    0    0  0.00000000000E+00  0.00000000000E+00  0.74505805969E-08  0.10566000000E+00  0.10566000000E+00 0.  1.
     999900   -1    0    0    0    0 -0.00000000000E+00 -0.00000000000E+00 -0.74505805969E-08  0.93827000000E+00  0.93827000000E+00 0. -1.
     999902    2    1    2    0    0 -0.18676566207E-01 -0.13423975410E-01 -0.31669722497E-02  0.10207126153E+01  0.10204485269E+01 0.  0.
     999903    2    3    3    0    0  0.10054218388E-03 -0.12971919993E+00  0.18856050860E-01  0.13258977882E+00  0.19935341867E-01 0.  0.
         14    1    1    2    0    0  0.18676566207E-01  0.13423975410E-01  0.31669722497E-02  0.23217384743E-01  0.00000000000E+00 0.  1.
     999901    1    3    3    0    0 -0.18777108390E-01  0.11629522452E+00 -0.22023023110E-01  0.88812283643E+00  0.88000000000E+00 0.  1.
        -11    1    4    4    0    0 -0.52133422663E-02 -0.93992286422E-01  0.63093169669E-02  0.94349337284E-01  0.51100000000E-03 0.  1.
         11    1    4    4    0    0  0.53138844502E-02 -0.35726913509E-01  0.12546733893E-01  0.38240441540E-01  0.51100000000E-03 0. -1.
</event>
<event>
 8    1  0.1130341E+005  0.1043930E+01  0.7957747E-01            NaN
         13   -1    0    0    0    0  0.00000000000E+00  0.00000000000E+00  0.74505805969E-08  0.10566000000E+00  0.10566000000E+00 0. -1.
     999900   -1    0    0    0    0 -0.00000000000E+00 -0.00000000000E+00 -0.74505805969E-08  0.93827000000E+00  0.93827000000E+00 0.  1.
     999902    2    1    2    0    0 -0.18963328898E-01  0.90483309536E-02 -0.11909349393E-01  0.10197781318E+01  0.10194920918E+01 0.  0.
     999903    2    3    3    0    0  0.11130230823E+00 -0.19780188399E-01  0.54838164408E-01  0.12722255908E+00  0.19972370709E-01 0.  0.
         14    1    1    2    0    0  0.18963328898E-01 -0.90483309536E-02  0.11909349393E-01  0.24151868228E-01  0.00000000000E+00 0.  1.
     999901    1    3    3    0    0 -0.13026563713E+00  0.28828519352E-01 -0.66747513801E-01  0.89255557269E+00  0.88000000000E+00 0. -1.
        -11    1    4    4    0    0  0.41755395821E-01 -0.17231829578E-01  0.20231154978E-01  0.49497573511E-01  0.51100000000E-03 0.  1.
         11    1    4    4    0    0  0.69546912414E-01 -0.25483588211E-02  0.34607009430E-01  0.77724985568E-01  0.51100000000E-03 0. -1.
</event>
<event>
 8    1  0.1116841E+005  0.1043930E+01  0.7957747E-01            NaN
         13   -1    0    0    0    0  0.00000000000E+00  0.00000000000E+00  0.74505805969E-08  0.10566000000E+00  0.10566000000E+00 0. -1.
     999900   -1    0    0    0    0 -0.00000000000E+00 -0.00000000000E+00 -0.74505805969E-08  0.93827000000E+00  0.93827000000E+00 0. -1.
     999902    2    1    2    0    0  0.61108819040E-02  0.12562029076E-01 -0.18803265307E-01  0.10205054352E+01  0.10202365573E+01 0.  0.
     999903    2    3    3    0    0  0.60331164693E-01  0.22783615244E-01 -0.11535735271E+00  0.13350655596E+00  0.18913992270E-01 0.  0.
         14    1    1    2    0    0 -0.61108819040E-02 -0.12562029076E-01  0.18803265307E-01  0.23424564849E-01  0.00000000000E+00 0. -1.
     999901    1    3    3    0    0 -0.54220282789E-01 -0.10221586167E-01  0.96554087403E-01  0.88699887919E+00  0.88000000000E+00 0.  1.
        -11    1    4    4    0    0  0.15210097778E-01  0.92276522003E-03 -0.15358255119E-01  0.21641064931E-01  0.51100000000E-03 0.  1.
         11    1    4    4    0    0  0.45121066915E-01  0.21860850024E-01 -0.99999097591E-01  0.11186549103E+00  0.51100000000E-03 0. -1.
</event>
<event>
 8    1  0.1116841E+005  0.1043930E+01  0.7957747E-01            NaN
         13   -1    0    0    0    0  0.00000000000E+00  0.00000000000E+00  0.74505805969E-08  0.10566000000E+00  0.10566000000E+00 0. -1.
     999900   -1    0    0    0    0 -0.00000000000E+00 -0.00000000000E+00 -0.74505805969E-08  0.93827000000E+00  0.93827000000E+00 0. -1.
     999902    2    1    2    0    0 -0.17262544117E-01 -0.15006818173E-01  0.53817471366E-02  0.10204318464E+01  0.10201612568E+01 0.  0.
     999903    2    3    3    0    0 -0.15271222185E-01  0.11660560412E+00  0.50580209855E-01  0.12949486988E+00  0.19506064626E-01 0.  0.
         14    1    1    2    0    0  0.17262544117E-01  0.15006818173E-01 -0.53817471366E-02  0.23498153614E-01  0.00000000000E+00 0.  1.
     999901    1    3    3    0    0 -0.19913219320E-02 -0.13161242230E+00 -0.45198462718E-01  0.89093697650E+00  0.88000000000E+00 0. -1.
        -11    1    4    4    0    0 -0.12399954229E-01  0.61526192471E-01  0.17420925822E-01  0.65138168552E-01  0.51100000000E-03 0.  1.
         11    1    4    4    0    0 -0.28712679556E-02  0.55079411653E-01  0.33159284033E-01  0.64356701332E-01  0.51100000000E-03 0. -1.
</event>
<event>
 8    1  0.1116841E+005  0.1043930E+01  0.7957747E-01            NaN
         13   -1    0    0    0    0  0.00000000000E+00  0.00000000000E+00  0.74505805969E-08  0.10566000000E+00  0.10566000000E+00 0.  1.
     999900   -1    0    0    0    0 -0.00000000000E+00 -0.00000000000E+00 -0.74505805969E-08  0.93827000000E+00  0.93827000000E+00 0. -1.
     999902    2    1    2    0    0  0.20242817581E-01  0.33263405731E-02  0.10670039330E-01  0.10208067229E+01  0.10205447955E+01 0.  0.
     999903    2    3    3    0    0  0.67119146654E-01 -0.10543449199E+00  0.39029146414E-01  0.13242023724E+00  0.19759377783E-01 0.  0.
         14    1    1    2    0    0 -0.20242817581E-01 -0.33263405731E-02 -0.10670039330E-01  0.23123277115E-01  0.00000000000E+00 0.  1.
     999901    1    3    3    0    0 -0.46876329073E-01  0.10876083257E+00 -0.28359107084E-01  0.88838648565E+00  0.88000000000E+00 0. -1.
        -11    1    4    4    0    0  0.20139696890E-01 -0.29165229538E-01  0.20491416165E-01  0.40943586339E-01  0.51100000000E-03 0. -1.
         11    1    4    4    0    0  0.46979449764E-01 -0.76269262456E-01  0.18537730250E-01  0.91476650898E-01  0.51100000000E-03 0.  1.
</event>
<event>
 8    1  0.1116841E+005  0.1043930E+01  0.7957747E-01            NaN
         13   -1    0    0    0    0  0.00000000000E+00  0.00000000000E+00  0.74505805969E-08  0.10566000000E+00  0.10566000000E+00 0.  1.
     999900   -1    0    0    0    0 -0.00000000000E+00 -0.00000000000E+00 -0.74505805969E-08  0.93827000000E+00  0.93827000000E+00 0.  1.
     999902    2    1    2    0    0 -0.12267605193E-02  0.26915089388E-02 -0.22851901422E-01  0.10208874619E+01  0.10206273813E+01 0.  0.
     999903    2    3    3    0    0  0.58595454440E-01  0.72668878085E-01 -0.92692970510E-01  0.13333278502E+00  0.21712937506E-01 0.  0.
         14    1    1    2    0    0  0.12267605193E-02 -0.26915089388E-02  0.22851901422E-01  0.23042538062E-01  0.00000000000E+00 0.  1.
     999901    1    3    3    0    0 -0.59822214959E-01 -0.69977369146E-01  0.69841069088E-01  0.88755467692E+00  0.88000000000E+00 0. -1.
        -11    1    4    4    0    0  0.15666306460E-01  0.36133876983E-01 -0.35442316661E-01  0.52985933560E-01  0.51100000000E-03 0.  1.
         11    1    4    4    0    0  0.42929147980E-01  0.36535001101E-01 -0.57250653849E-01  0.80346851456E-01  0.51100000000E-03 0. -1.
</event>
<event>
 8    1  0.1116841E+005  0.1043930E+01  0.7957747E-01            NaN
         13   -1    0    0    0    0  0.00000000000E+00  0.00000000000E+00  0.74505805969E-08  0.10566000000E+00  0.10566000000E+00 0. -1.
     999900   -1    0    0    0    0 -0.00000000000E+00 -0.00000000000E+00 -0.74505805969E-08  0.93827000000E+00  0.93827000000E+00 0. -1.
     999902    2    1    2    0    0  0.82512720985E-03 -0.21597071308E-01 -0.99597244529E-02  0.10201327221E+01  0.10198551173E+01 0.  0.
     999903    2    3    3    0    0  0.60734455380E-02  0.72659578320E-01 -0.10556044433E+00  0.12993535158E+00  0.20588519185E-01 0.  0.
         14    1    1    2    0    0 -0.82512720985E-03  0.21597071308E-01  0.99597244529E-02  0.23797277894E-01  0.00000000000E+00 0. -1.
     999901    1    3    3    0    0 -0.52483183281E-02 -0.94256649627E-01  0.95600719875E-01  0.89019737052E+00  0.88000000000E+00 0.  1.
        -11    1    4    4    0    0 -0.62766505723E-02  0.95182169705E-02 -0.15112321797E-01  0.18937692252E-01  0.51100000000E-03 0. -1.
         11    1    4    4    0    0  0.12350096110E-01  0.63141361349E-01 -0.90448122530E-01  0.11099765933E+00  0.51100000000E-03 0.  1.
</event>
<event>
 8    1  0.1116841E+005  0.1043930E+01  0.7957747E-01            NaN
         13   -1    0    0    0    0  0.00000000000E+00  0.00000000000E+00  0.74505805969E-08  0.10566000000E+00  0.10566000000E+00 0.  1.
     999900   -1    0    0    0    0 -0.00000000000E+00 -0.00000000000E+00 -0.74505805969E-08  0.93827000000E+00  0.93827000000E+00 0.  1.
     999902    2    1    2    0    0 -0.71684635097E-02 -0.22847733192E-01 -0.29091246637E-02  0.10198080435E+01  0.10195227201E+01 0.  0.
     999903    2    3    3    0    0 -0.86165775257E-01 -0.89942953950E-01  0.41143223798E-01  0.13263108630E+00  0.19595009495E-01 0.  0.
         14    1    1    2    0    0  0.71684635097E-02  0.22847733192E-01  0.29091246637E-02  0.24121956542E-01  0.00000000000E+00 0. -1.
     999901    1    3    3    0    0  0.78997311748E-01  0.67095220758E-01 -0.44052348461E-01  0.88717695716E+00  0.88000000000E+00 0. -1.
        -11    1    4    4    0    0 -0.90098429545E-02 -0.16761430287E-01  0.13411640283E-02  0.19083570349E-01  0.51100000000E-03 0.  1.
         11    1    4    4    0    0 -0.77155932303E-01 -0.73181523663E-01  0.39802059769E-01  0.11354751595E+00  0.51100000000E-03 0. -1.
</event>
<event>
 8    1  0.1116841E+005  0.1043930E+01  0.7957747E-01            NaN
         13   -1    0    0    0    0  0.00000000000E+00  0.00000000000E+00  0.74505805969E-08  0.10566000000E+00  0.10566000000E+00 0. -1.
     999900   -1    0    0    0    0 -0.00000000000E+00 -0.00000000000E+00 -0.74505805969E-08  0.93827000000E+00  0.93827000000E+00 0.  1.
     999902    2    1    2    0    0 -0.15594727743E-01  0.29566469157E-02  0.16995744234E-01  0.10206750518E+01  0.10204100983E+01 0.  0.
     999903    2    3    3    0    0  0.11592023864E+00 -0.12527396361E-01 -0.50517558559E-01  0.12820993312E+00  0.17068270057E-01 0.  0.
         14    1    1    2    0    0  0.15594727743E-01 -0.29566469157E-02 -0.16995744234E-01  0.23254948214E-01  0.00000000000E+00 0.  1.
     999901    1    3    3    0    0 -0.13151496638E+00  0.15484043277E-01  0.67513302792E-01  0.89246511866E+00  0.88000000000E+00 0. -1.
        -11    1    4    4    0    0  0.35728117052E-01  0.17872980527E-02 -0.95600312725E-02  0.37031717505E-01  0.51100000000E-03 0. -1.
         11    1    4    4    0    0  0.80192121587E-01 -0.14314694414E-01 -0.40957527286E-01  0.91178215617E-01  0.51100000000E-03 0.  1.
</event>
<event>
 8    1  0.1116841E+005  0.1043930E+01  0.7957747E-01            NaN
         13   -1    0    0    0    0  0.00000000000E+00  0.00000000000E+00  0.74505805969E-08  0.10566000000E+00  0.10566000000E+00 0. -1.
     999900   -1    0    0    0    0 -0.00000000000E+00 -0.00000000000E+00 -0.74505805969E-08  0.93827000000E+00  0.93827000000E+00 0. -1.
     999902    2    1    2    0    0 -0.39238011610E-02  0.20983867367E-01 -0.11319192215E-01  0.10197671563E+01  0.10194808532E+01 0.  0.
     999903    2    3    3    0    0  0.71829156897E-01  0.65854183946E-01  0.84085154151E-01  0.13024265111E+00  0.19915664552E-01 0.  0.
         14    1    1    2    0    0  0.39238011610E-02 -0.20983867367E-01  0.11319192215E-01  0.24162843741E-01  0.00000000000E+00 0. -1.
     999901    1    3    3    0    0 -0.75752958058E-01 -0.44870316579E-01 -0.95404346366E-01  0.88952450515E+00  0.88000000000E+00 0.  1.
        -11    1    4    4    0    0  0.64092490314E-01  0.50637933331E-01  0.63292184276E-01  0.10333542141E+00  0.51100000000E-03 0. -1.
         11    1    4    4    0    0  0.77366665827E-02  0.15216250615E-01  0.20792969876E-01  0.26907229694E-01  0.51100000000E-03 0.  1.
</event>
<event>
 8    1  0.1116841E+005  0.1043930E+01  0.7957747E-01            NaN
         13   -1    0    0    0    0  0.00000000000E+00  0.00000000000E+00  0.74505805969E-08  0.10566000000E+00  0.10566000000E+00 0. -1.
     999900   -1    0    0    0    0 -0.00000000000E+00 -0.00000000000E+00 -0.74505805969E-08  0.93827000000E+00  0.93827000000E+00 0. -1.
     999902    2    1    2    0    0 -0.70914722308E-02  0.10589387648E-02  0.21914570276E-01  0.10208722742E+01  0.10206118466E+01 0.  0.
     999903    2    3    3    0    0  0.10893989945E+00 -0.42358475701E-01 -0.51333949718E-01  0.12918079346E+00  0.19757551713E-01 0.  0.
         14    1    1    2    0    0  0.70914722308E-02 -0.10589387648E-02 -0.21914570276E-01  0.23057725822E-01  0.00000000000E+00 0.  1.
     999901    1    3    3    0    0 -0.11603137169E+00  0.43417414465E-01  0.73248519995E-01  0.89169148071E+00  0.88000000000E+00 0.  1.
        -11    1    4    4    0    0  0.91736936214E-01 -0.36421158501E-01 -0.35011689420E-01  0.10472939305E+00  0.51100000000E-03 0.  1.
         11    1    4    4    0    0  0.17202963240E-01 -0.59373171990E-02 -0.16322260298E-01  0.24451400410E-01  0.51100000000E-03 0. -1.
</event>
<event>
 7    1  0.1116841E+005  0.1043930E+01  0.7957747E-01            NaN
         13   -1    0    0    0    0  0.00000000000E+00  0.00000000000E+00  0.74505805969E-08  0.10566000000E+00  0.10566000000E+00 0.  1.
     999900   -1    0    0    0    0 -0.00000000000E+00 -0.00000000000E+00 -0.74505805969E-08  0.93827000000E+00  0.93827000000E+00 0. -1.
     999903    2    1    2    0    0  0.10659646481E+00  0.32651069946E-01 -0.21062481309E-02  0.11365415654E+00  0.21998462206E-01 0.  0.
         14    1    1    2    0    0  0.17994121749E-01  0.34375283322E-01  0.36842894241E-02  0.38974639313E-01  0.00000000000E+00 0.  1.
     999901    1    1    2    0    0 -0.12459058656E+00 -0.67026353268E-01 -0.15780412932E-02  0.89130120414E+00  0.88000000000E+00 0. -1.
        -11    1    3    3    0    0  0.56245623335E-01  0.23028817977E-01  0.83011241920E-02  0.61343837389E-01  0.51100000000E-03 0. -1.
         11    1    3    3    0    0  0.50350841478E-01  0.96222519693E-02 -0.10407372323E-01  0.52310319155E-01  0.51100000000E-03 0.  1.
</event>
<event>
 8    1  0.1116841E+005  0.1043930E+01  0.7957747E-01            NaN
         13   -1    0    0    0    0  0.00000000000E+00  0.00000000000E+00  0.74505805969E-08  0.10566000000E+00  0.10566000000E+00 0. -1.
     999900   -1    0    0    0    0 -0.00000000000E+00 -0.00000000000E+00 -0.74505805969E-08  0.93827000000E+00  0.93827000000E+00 0. -1.
     999902    2    1    2    0    0 -0.94294243279E-02 -0.11260804119E-01 -0.18205348706E-01  0.10205386667E+01  0.10202705601E+01 0.  0.
     999903    2    3    3    0    0  0.77368584518E-01 -0.19809607738E-01  0.99019665663E-01  0.12849120137E+00  0.18076952539E-01 0.  0.
         14    1    1    2    0    0  0.94294243279E-02  0.11260804119E-01  0.18205348706E-01  0.23391333311E-01  0.00000000000E+00 0. -1.
     999901    1    3    3    0    0 -0.86798008846E-01  0.85488036190E-02 -0.11722501437E+00  0.89204746532E+00  0.88000000000E+00 0. -1.
        -11    1    4    4    0    0  0.56831892433E-01 -0.16692762766E-01  0.60172972874E-01  0.84436722531E-01  0.51100000000E-03 0.  1.
         11    1    4    4    0    0  0.20536692086E-01 -0.31168449725E-02  0.38846692789E-01  0.44054478842E-01  0.51100000000E-03 0. -1.
</event>
<event>
 8    1  0.1116841E+005  0.1043930E+01  0.7957747E-01            NaN
         13   -1    0    0    0    0  0.00000000000E+00  0.00000000000E+00  0.74505805969E-08  0.10566000000E+00  0.10566000000E+00 0.  1.
     999900   -1    0    0    0    0 -0.00000000000E+00 -0.00000000000E+00 -0.74505805969E-08  0.93827000000E+00  0.93827000000E+00 0. -1.
     999902    2    1    2    0    0  0.14430539887E-01 -0.77348107222E-02 -0.19174470352E-01  0.10187163511E+01  0.10184042792E+01 0.  0.
     999903    2    3    3    0    0 -0.11538566328E+00  0.49385366790E-01 -0.20213755898E-02  0.12719563347E+00  0.20539656040E-01 0.  0.
         14    1    1    2    0    0 -0.14430539887E-01  0.77348107222E-02  0.19174470352E-01  0.25213648916E-01  0.00000000000E+00 0.  1.
     999901    1    3    3    0    0  0.12981620317E+00 -0.57120177513E-01 -0.17153094763E-01  0.89152071762E+00  0.88000000000E+00 0. -1.
        -11    1    4    4    0    0 -0.87212797836E-01  0.31445587146E-01  0.57901839669E-02  0.92890712176E-01  0.51100000000E-03 0.  1.
         11    1    4    4    0    0 -0.28172865443E-01  0.17939779645E-01 -0.78115595567E-02  0.34304921289E-01  0.51100000000E-03 0. -1.
</event>
<event>
 8    1  0.1116841E+005  0.1043930E+01  0.7957747E-01            NaN
         13   -1    0    0    0    0  0.00000000000E+00  0.00000000000E+00  0.74505805969E-08  0.10566000000E+00  0.10566000000E+00 0.  1.
     999900   -1    0    0    0    0 -0.00000000000E+00 -0.00000000000E+00 -0.74505805969E-08  0.93827000000E+00  0.93827000000E+00 0.  1.
     999902    2    1    2    0    0  0.28770868872E-02  0.20633061844E-01 -0.11335229230E-01  0.10202131644E+01  0.10199374552E+01 0.  0.
     999903    2    3    3    0    0  0.31161259394E-02  0.63765685215E-01 -0.11505749076E+00  0.13307237067E+00  0.19855900975E-01 0.  0.
         14    1    1    2    0    0 -0.28770868872E-02 -0.20633061844E-01  0.11335229230E-01  0.23716835618E-01  0.00000000000E+00 0. -1.
     999901    1    3    3    0    0 -0.23903905227E-03 -0.43132623371E-01  0.10372226153E+00  0.88714079372E+00  0.88000000000E+00 0. -1.
        -11    1    4    4    0    0  0.67503649556E-02  0.28090505968E-01 -0.35265485231E-01  0.45591221986E-01  0.51100000000E-03 0. -1.
         11    1    4    4    0    0 -0.36342390162E-02  0.35675179247E-01 -0.79792005526E-01  0.87481148680E-01  0.51100000000E-03 0.  1.
</event>
<event>
 8    1  0.1116841E+005  0.1043930E+01  0.7957747E-01            NaN
         13   -1    0    0    0    0  0.00000000000E+00  0.00000000000E+00  0.74505805969E-08  0.10566000000E+00  0.10566000000E+00 0.  1.
     999900   -1    0    0    0    0 -0.00000000000E+00 -0.00000000000E+00 -0.74505805969E-08  0.93827000000E+00  0.93827000000E+00 0. -1.
     999902    2    1    2    0    0 -0.87251092605E-02  0.20744582503E-01  0.82501917167E-02  0.10199606258E+01  0.10196789433E+01 0.  0.
     999903    2    3    3    0    0  0.66845135753E-01  0.35839257901E-01  0.10531763552E+00  0.13127575491E+00  0.19717882589E-01 0.  0.
         14    1    1    2    0    0  0.87251092605E-02 -0.20744582503E-01 -0.82501917167E-02  0.23969374172E-01  0.00000000000E+00 0.  1.
     999901    1    3    3    0    0 -0.75570245014E-01 -0.15094675397E-01 -0.97067443805E-01  0.88868487092E+00  0.88000000000E+00 0. -1.
        -11    1    4    4    0    0  0.63833872286E-01  0.33400296839E-01  0.10501841821E+00  0.12735569231E+00  0.51100000000E-03 0.  1.
         11    1    4    4    0    0  0.30112634677E-02  0.24389610618E-02  0.29921730870E-03  0.39200625927E-02  0.51100000000E-03 0. -1.
</event>
<event>
 8    1  0.1116841E+005  0.1043930E+01  0.7957747E-01            NaN
         13   -1    0    0    0    0  0.00000000000E+00  0.00000000000E+00  0.74505805969E-08  0.10566000000E+00  0.10566000000E+00 0. -1.
     999900   -1    0    0    0    0 -0.00000000000E+00 -0.00000000000E+00 -0.74505805969E-08  0.93827000000E+00  0.93827000000E+00 0. -1.
     999902    2    1    2    0    0  0.15333723874E-01 -0.15250067513E-01 -0.64085710669E-02  0.10213743482E+01  0.10211252625E+01 0.  0.
     999903    2    3    3    0    0 -0.74678421951E-01 -0.57940306963E-01  0.88019422384E-01  0.13073340541E+00  0.20244967237E-01 0.  0.
         14    1    1    2    0    0 -0.15333723874E-01  0.15250067513E-01  0.64085710669E-02  0.22555651844E-01  0.00000000000E+00 0. -1.
     999901    1    3    3    0    0  0.90012145825E-01  0.42690239450E-01 -0.94427993451E-01  0.89064094274E+00  0.88000000000E+00 0. -1.
        -11    1    4    4    0    0 -0.53457429159E-01 -0.38759713799E-01  0.48429597721E-01  0.81888333739E-01  0.51100000000E-03 0.  1.
         11    1    4    4    0    0 -0.21220992792E-01 -0.19180593164E-01  0.39589824663E-01  0.48845071676E-01  0.51100000000E-03 0. -1.
</event>
<event>
 8    1  0.1116841E+005  0.1043930E+01  0.7957747E-01            NaN
         13   -1    0    0    0    0  0.00000000000E+00  0.00000000000E+00  0.74505805969E-08  0.10566000000E+00  0.10566000000E+00 0.  1.
     999900   -1    0    0    0    0 -0.00000000000E+00 -0.00000000000E+00 -0.74505805969E-08  0.93827000000E+00  0.93827000000E+00 0. -1.
     999902    2    1    2    0    0  0.22826363701E-01 -0.62412839190E-02 -0.10246042945E-02  0.10202435837E+01  0.10199685896E+01 0.  0.
     999903    2    3    3    0    0  0.13106553730E+00  0.13322411130E-01  0.91280468445E-02  0.13333798937E+00  0.18440077687E-01 0.  0.
         14    1    1    2    0    0 -0.22826363701E-01  0.62412839190E-02  0.10246042945E-02  0.23686416334E-01  0.00000000000E+00 0.  1.
     999901    1    3    3    0    0 -0.10823917360E+00 -0.19563695049E-01 -0.10152651139E-01  0.88690559429E+00  0.88000000000E+00 0.  1.
        -11    1    4    4    0    0  0.38114265857E-01 -0.40060418264E-02 -0.16840308921E-03  0.38327993863E-01  0.51100000000E-03 0. -1.
         11    1    4    4    0    0  0.92951271441E-01  0.17328452956E-01  0.92964499337E-02  0.95009995510E-01  0.51100000000E-03 0.  1.
</event>
<event>
 8    1  0.1116841E+005  0.1043930E+01  0.7957747E-01            NaN
         13   -1    0    0    0    0  0.00000000000E+00  0.00000000000E+00  0.74505805969E-08  0.10566000000E+00  0.10566000000E+00 0. -1.
     999900   -1    0    0    0    0 -0.00000000000E+00 -0.00000000000E+00 -0.74505805969E-08  0.93827000000E+00  0.93827000000E+00 0.  1.
     999902    2    1    2    0    0 -0.52443055285E-02 -0.48477924258E-02  0.23079822427E-01  0.10197704877E+01  0.10194842645E+01 0.  0.
     999903    2    3    3    0    0 -0.10785029212E+00 -0.58945869584E-01 -0.37945276914E-01  0.13006342737E+00  0.19244480922E-01 0.  0.
         14    1    1    2    0    0  0.52443055285E-02  0.48477924258E-02 -0.23079822427E-01  0.24159512311E-01  0.00000000000E+00 0. -1.
     999901    1    3    3    0    0  0.10260598660E+00  0.54098077158E-01  0.61025099340E-01  0.88970706032E+00  0.88000000000E+00 0. -1.
        -11    1    4    4    0    0 -0.53130320378E-01 -0.35940045863E-01 -0.27486665793E-01  0.69787504308E-01  0.51100000000E-03 0. -1.
         11    1    4    4    0    0 -0.54719971746E-01 -0.23005823721E-01 -0.10458611121E-01  0.60275923059E-01  0.51100000000E-03 0.  1.
</event>
<event>
 8    1  0.1116841E+005  0.1043930E+01  0.7957747E-01            NaN
         13   -1    0    0    0    0  0.00000000000E+00  0.00000000000E+00  0.74505805969E-08  0.10566000000E+00  0.10566000000E+00 0.  1.
     999900   -1    0    0    0    0 -0.00000000000E+00 -0.00000000000E+00 -0.74505805969E-08  0.93827000000E+00  0.93827000000E+00 0.  1.
     999902    2    1    2    0    0  0.70133818773E-02  0.17206826774E-01  0.14280190680E-01  0.10204952766E+01  0.10202261629E+01 0.  0.
     999903    2    3    3    0    0 -0.64615841868E-01  0.11084428844E+00  0.29051739030E-01  0.13251052533E+00  0.15917678308E-01 0.  0.
         14    1    1    2    0    0 -0.70133818773E-02 -0.17206826774E-01 -0.14280190680E-01  0.23434723357E-01  0.00000000000E+00 0. -1.
     999901    1    3    3    0    0  0.71629223745E-01 -0.93637461667E-01 -0.14771548350E-01  0.88798475131E+00  0.88000000000E+00 0.  1.
        -11    1    4    4    0    0 -0.59704547214E-01  0.91848928315E-01  0.22653910971E-01  0.11186741882E+00  0.51100000000E-03 0.  1.
         11    1    4    4    0    0 -0.49112946534E-02  0.18995360125E-01  0.63978280584E-02  0.20643106508E-01  0.51100000000E-03 0. -1.
</event>
<event>
 8    1  0.1116841E+005  0.1043930E+01  0.7957747E-01            NaN
         13   -1    0    0    0    0  0.00000000000E+00  0.00000000000E+00  0.74505805969E-08  0.10566000000E+00  0.10566000000E+00 0.  1.
     999900   -1    0    0    0    0 -0.00000000000E+00 -0.00000000000E+00 -0.74505805969E-08  0.93827000000E+00  0.93827000000E+00 0.  1.
     999902    2    1    2    0    0  0.17497347809E-01  0.16147254303E-01  0.32448521370E-02  0.10199004335E+01  0.10196173175E+01 0.  0.
     999903    2    3    3    0    0 -0.58627265543E-01  0.77299948615E-01  0.85099302553E-01  0.13072398314E+00  0.20842988084E-01 0.  0.
         14    1    1    2    0    0 -0.17497347809E-01 -0.16147254303E-01 -0.32448521370E-02  0.24029566523E-01  0.00000000000E+00 0. -1.
     999901    1    3    3    0    0  0.76124613352E-01 -0.61152694312E-01 -0.81854450416E-01  0.88917645034E+00  0.88000000000E+00 0.  1.
        -11    1    4    4    0    0 -0.56204583436E-01  0.72890734163E-01  0.72568147904E-01  0.11721097021E+00  0.51100000000E-03 0.  1.
         11    1    4    4    0    0 -0.24226821074E-02  0.44092144524E-02  0.12531154649E-01  0.13513012932E-01  0.51100000000E-03 0. -1.
</event>
<event>
 7    1  0.1116841E+005  0.1043930E+01  0.7957747E-01            NaN
         13   -1    0    0    0    0  0.00000000000E+00  0.00000000000E+00  0.74505805969E-08  0.10566000000E+00  0.10566000000E+00 0. -1.
     999900   -1    0    0    0    0 -0.00000000000E+00 -0.00000000000E+00 -0.74505805969E-08  0.93827000000E+00  0.93827000000E+00 0. -1.
     999903    2    1    2    0    0  0.10043889812E+00 -0.40620443776E-01 -0.10487139405E-01  0.11068304852E+00  0.20068991736E-01 0.  0.
         14    1    1    2    0    0  0.32467472315E-01 -0.24595667402E-01  0.31093956042E-02  0.40850360519E-01  0.00000000000E+00 0. -1.
     999901    1    1    2    0    0 -0.13290637043E+00  0.65216111179E-01  0.73777438011E-02  0.89239659096E+00  0.88000000000E+00 0.  1.
        -11    1    3    3    0    0  0.42548385702E-01 -0.26271711184E-01  0.62559433297E-03  0.50012202748E-01  0.51100000000E-03 0. -1.
         11    1    3    3    0    0  0.57890512413E-01 -0.14348732593E-01 -0.11112733738E-01  0.60670845771E-01  0.51100000000E-03 0.  1.
</event>
<event>
 8    1  0.1116841E+005  0.1043930E+01  0.7957747E-01            NaN
         13   -1    0    0    0    0  0.00000000000E+00  0.00000000000E+00  0.74505805969E-08  0.10566000000E+00  0.10566000000E+00 0.  1.
     999900   -1    0    0    0    0 -0.00000000000E+00 -0.00000000000E+00 -0.74505805969E-08  0.93827000000E+00  0.93827000000E+00 0.  1.
     999902    2    1    2    0    0  0.17562645688E-01 -0.10982880253E-01  0.95585229613E-02  0.10211169436E+01  0.10208620754E+01 0.  0.
     999903    2    3    3    0    0  0.89651762799E-01 -0.26123415393E-01 -0.91599008915E-01  0.13226435576E+00  0.19585963487E-01 0.  0.
         14    1    1    2    0    0 -0.17562645688E-01  0.10982880253E-01 -0.95585229613E-02  0.22813056424E-01  0.00000000000E+00 0. -1.
     999901    1    3    3    0    0 -0.72089117111E-01  0.15140535140E-01  0.10115753188E+00  0.88885258782E+00  0.88000000000E+00 0. -1.
        -11    1    4    4    0    0  0.47167233547E-01 -0.21486502035E-01 -0.58837609878E-01  0.78412646603E-01  0.51100000000E-03 0.  1.
         11    1    4    4    0    0  0.42484529253E-01 -0.46369133576E-02 -0.32761399038E-01  0.53851709158E-01  0.51100000000E-03 0. -1.
</event>
<event>
 8    1  0.1116841E+005  0.1043930E+01  0.7957747E-01            NaN
         13   -1    0    0    0    0  0.00000000000E+00  0.00000000000E+00  0.74505805969E-08  0.10566000000E+00  0.10566000000E+00 0.  1.
     999900   -1    0    0    0    0 -0.00000000000E+00 -0.00000000000E+00 -0.74505805969E-08  0.93827000000E+00  0.93827000000E+00 0. -1.
     999902    2    1    2    0    0 -0.13722980701E-01 -0.10802680774E-01 -0.14347659571E-01  0.10213274903E+01  0.10210773570E+01 0.  0.
     999903    2    3    3    0    0  0.31336296049E-01 -0.74791306146E-01  0.10102656659E+00  0.13035269002E+00  0.14482876590E-01 0.  0.
         14    1    1    2    0    0  0.13722980701E-01  0.10802680774E-01  0.14347659571E-01  0.22602509736E-01  0.00000000000E+00 0.  1.
     999901    1    3    3    0    0 -0.45059276750E-01  0.63988625372E-01 -0.11537422616E+00  0.89097480024E+00  0.88000000000E+00 0. -1.
        -11    1    4    4    0    0  0.24492145516E-01 -0.58643107299E-01  0.87759768315E-01  0.10835551339E+00  0.51100000000E-03 0.  1.
         11    1    4    4    0    0  0.68441505330E-02 -0.16148198847E-01  0.13266798277E-01  0.21997176638E-01  0.51100000000E-03 0. -1.
</event>
<event>
 8    1  0.1116841E+005  0.1043930E+01  0.7957747E-01            NaN
         13   -1    0    0    0    0  0.00000000000E+00  0.00000000000E+00  0.74505805969E-08  0.10566000000E+00  0.10566000000E+00 0.  1.
     999900   -1    0    0    0    0 -0.00000000000E+00 -0.00000000000E+00 -0.74505805969E-08  0.93827000000E+00  0.93827000000E+00 0. -1.
     999902    2    1    2    0    0  0.17806125155E-01 -0.14498942889E-01 -0.52118392603E-02  0.10203834354E+01  0.10201117167E+01 0.  0.
     999903    2    3    3    0    0 -0.11439357638E+00  0.16696387463E-01 -0.52934614864E-01  0.12868428596E+00  0.19822016307E-01 0.  0.
         14    1    1    2    0    0 -0.17806125155E-01  0.14498942889E-01  0.52118392603E-02  0.23546564642E-01  0.00000000000E+00 0.  1.
     999901    1    3    3    0    0  0.13219970154E+00 -0.31195330352E-01  0.47722775603E-01  0.89169914940E+00  0.88000000000E+00 0.  1.
        -11    1    4    4    0    0 -0.85950400325E-01  0.12733610254E-01 -0.29981693505E-01  0.91917241106E-01  0.51100000000E-03 0.  1.
         11    1    4    4    0    0 -0.28443176059E-01  0.39627772089E-02 -0.22952921358E-01  0.36767044856E-01  0.51100000000E-03 0. -1.
</event>
<event>
 8    1  0.1116841E+005  0.1043930E+01  0.7957747E-01            NaN
         13   -1    0    0    0    0  0.00000000000E+00  0.00000000000E+00  0.74505805969E-08  0.10566000000E+00  0.10566000000E+00 0. -1.
     999900   -1    0    0    0    0 -0.00000000000E+00 -0.00000000000E+00 -0.74505805969E-08  0.93827000000E+00  0.93827000000E+00 0.  1.
     999902    2    1    2    0    0 -0.99570423577E-02 -0.11014244539E-01 -0.18776496111E-01  0.10199923084E+01  0.10197113788E+01 0.  0.
     999903    2    3    3    0    0 -0.44102623217E-01  0.54482360354E-01  0.10544352371E+00  0.12820402671E+00  0.20113846180E-01 0.  0.
         14    1    1    2    0    0  0.99570423577E-02  0.11014244539E-01  0.18776496111E-01  0.23937691649E-01  0.00000000000E+00 0. -1.
     999901    1    3    3    0    0  0.34145580860E-01 -0.65496604893E-01 -0.12422001982E+00  0.89178828164E+00  0.88000000000E+00 0.  1.
        -11    1    4    4    0    0 -0.25777588889E-01  0.41280325513E-01  0.58436630068E-01  0.76050313727E-01  0.51100000000E-03 0. -1.
         11    1    4    4    0    0 -0.18325034329E-01  0.13202034842E-01  0.47006893643E-01  0.52153712984E-01  0.51100000000E-03 0.  1.
</event>
<event>
 8    1  0.1116841E+005  0.1043930E+01  0.7957747E-01            NaN
         13   -1    0    0    0    0  0.00000000000E+00  0.00000000000E+00  0.74505805969E-08  0.10566000000E+00  0.10566000000E+00 0.  1.
     999900   -1    0    0    0    0 -0.00000000000E+00 -0.00000000000E+00 -0.74505805969E-08  0.93827000000E+00  0.93827000000E+00 0.  1.
     999902    2    1    2    0    0  0.13029407283E-01 -0.43915719979E-02  0.18316394124E-01  0.10210271257E+01  0.10207702238E+01 0.  0.
     999903    2    3    3    0    0 -0.54137372079E-02 -0.17773290196E-02  0.13196717661E+00  0.13352305007E+00  0.19509017163E-01 0.  0.
         14    1    1    2    0    0 -0.13029407283E-01  0.43915719979E-02 -0.18316394124E-01  0.22902874328E-01  0.00000000000E+00 0. -1.
     999901    1    3    3    0    0  0.18443144491E-01 -0.26142429783E-02 -0.11365078248E+00  0.88750407560E+00  0.88000000000E+00 0.  1.
        -11    1    4    4    0    0 -0.12277642564E-01 -0.29746833295E-02  0.67100282419E-01  0.68281024228E-01  0.51100000000E-03 0.  1.
         11    1    4    4    0    0  0.68639053560E-02  0.11973543099E-02  0.64866894187E-01  0.65242025846E-01  0.51100000000E-03 0. -1.
</event>
<event>
 8    1  0.1116841E+005  0.1043930E+01  0.7957747E-01            NaN
         13   -1    0    0    0    0  0.00000000000E+00  0.00000000000E+00  0.74505805969E-08  0.10566000000E+00  0.10566000000E+00 0. -1.
     999900   -1    0    0    0    0 -0.00000000000E+00 -0.00000000000E+00 -0.74505805969E-08  0.93827000000E+00  0.93827000000E+00 0. -1.
     999902    2    1    2    0    0  0.27001945290E-01 -0.49637645700E-02 -0.72762709687E-02  0.10155277443E+01  0.10151304898E+01 0.  0.
     999903    2    3    3    0    0  0.31150969695E-01 -0.61503324336E-01 -0.10613212629E+00  0.12817977630E+00  0.20322032484E-01 0.  0.
         14    1    1    2    0    0 -0.27001945290E-01  0.49637645700E-02  0.72762709687E-02  0.28402255674E-01  0.00000000000E+00 0. -1.
     999901    1    3    3    0    0 -0.41490244046E-02  0.56539559766E-01  0.98855855325E-01  0.88734796802E+00  0.88000000000E+00 0.  1.
        -11    1    4    4    0    0  0.29088065607E-01 -0.54157845421E-01 -0.79651265368E-01  0.10061696168E+00  0.51100000000E-03 0. -1.
         11    1    4    4    0    0  0.20629040880E-02 -0.73454789153E-02 -0.26480860926E-01  0.27562814627E-01  0.51100000000E-03 0.  1.
</event>
<event>
 8    1  0.1116841E+005  0.1043930E+01  0.7957747E-01            NaN
         13   -1    0    0    0    0  0.00000000000E+00  0.00000000000E+00  0.74505805969E-08  0.10566000000E+00  0.10566000000E+00 0.  1.
     999900   -1    0    0    0    0 -0.00000000000E+00 -0.00000000000E+00 -0.74505805969E-08  0.93827000000E+00  0.93827000000E+00 0.  1.
     999902    2    1    2    0    0 -0.63234591645E-02  0.40248815999E-02 -0.21452724280E-01  0.10212054497E+01  0.10209525774E+01 0.  0.
     999903    2    3    3    0    0  0.84380221517E-01 -0.72068290580E-01 -0.68736816275E-01  0.13201867859E+00  0.19756550697E-01 0.  0.
         14    1    1    2    0    0  0.63234591645E-02 -0.40248815999E-02  0.21452724280E-01  0.22724550309E-01  0.00000000000E+00 0.  1.
     999901    1    3    3    0    0 -0.90703680681E-01  0.76093172180E-01  0.47284091995E-01  0.88918677110E+00  0.88000000000E+00 0. -1.
        -11    1    4    4    0    0  0.61068252845E-01 -0.52610082883E-01 -0.59782694398E-01  0.10035628529E+00  0.51100000000E-03 0.  1.
         11    1    4    4    0    0  0.23311968672E-01 -0.19458207697E-01 -0.89541218762E-02  0.31662393304E-01  0.51100000000E-03 0. -1.
</event>
<event>
 8    1  0.1116841E+005  0.1043930E+01  0.7957747E-01            NaN
         13   -1    0    0    0    0  0.00000000000E+00  0.00000000000E+00  0.74505805969E-08  0.10566000000E+00  0.10566000000E+00 0. -1.
     999900   -1    0    0    0    0 -0.00000000000E+00 -0.00000000000E+00 -0.74505805969E-08  0.93827000000E+00  0.93827000000E+00 0. -1.
     999902    2    1    2    0    0  0.10757490765E-01  0.14538972984E-01  0.13705447450E-01  0.10212376085E+01  0.10209854594E+01 0.  0.
     999903    2    3    3    0    0  0.52253731191E-01 -0.64321946591E-01 -0.97905389848E-01  0.12972318818E+00  0.19361687776E-01 0.  0.
         14    1    1    2    0    0 -0.10757490765E-01 -0.14538972984E-01 -0.13705447450E-01  0.22692391518E-01  0.00000000000E+00 0.  1.
     999901    1    3    3    0    0 -0.41496240426E-01  0.78860919575E-01  0.11161083730E+00  0.89151442030E+00  0.88000000000E+00 0.  1.
        -11    1    4    4    0    0  0.45498219901E-01 -0.43147060295E-01 -0.68630276701E-01  0.92963072386E-01  0.51100000000E-03 0. -1.
         11    1    4    4    0    0  0.67555112896E-02 -0.21174886295E-01 -0.29275113146E-01  0.36760115793E-01  0.51100000000E-03 0.  1.
</event>
<event>
 8    1  0.1116841E+005  0.1043930E+01  0.7957747E-01            NaN
         13   -1    0    0    0    0  0.00000000000E+00  0.00000000000E+00  0.74505805969E-08  0.10566000000E+00  0.10566000000E+00 0.  1.
     999900   -1    0    0    0    0 -0.00000000000E+00 -0.00000000000E+00 -0.74505805969E-08  0.93827000000E+00  0.93827000000E+00 0. -1.
     999902    2    1    2    0    0  0.23612320181E-01 -0.27384467767E-02  0.35177091487E-02  0.10199005382E+01  0.10196174248E+01 0.  0.
     999903    2    3    3    0    0 -0.10235238062E+00 -0.38415912496E-01 -0.63088454946E-01  0.12772546096E+00  0.19540933444E-01 0.  0.
         14    1    1    2    0    0 -0.23612320181E-01  0.27384467767E-02 -0.35177091487E-02  0.24029461765E-01  0.00000000000E+00 0. -1.
     999901    1    3    3    0    0  0.12596470080E+00  0.35677465719E-01  0.66606164095E-01  0.89217507727E+00  0.88000000000E+00 0.  1.
        -11    1    4    4    0    0 -0.58604416897E-01 -0.21996456363E-01 -0.24875136905E-01  0.67359894073E-01  0.51100000000E-03 0.  1.
         11    1    4    4    0    0 -0.43747963721E-01 -0.16419456133E-01 -0.38213318041E-01  0.60365566891E-01  0.51100000000E-03 0. -1.
</event>
<event>
 8    1  0.1116841E+005  0.1043930E+01  0.7957747E-01            NaN
         13   -1    0    0    0    0  0.00000000000E+00  0.00000000000E+00  0.74505805969E-08  0.10566000000E+00  0.10566000000E+00 0.  1.
     999900   -1    0    0    0    0 -0.00000000000E+00 -0.00000000000E+00 -0.74505805969E-08  0.93827000000E+00  0.93827000000E+00 0. -1.
     999902    2    1    2    0    0  0.81935389787E-02 -0.15309499435E-01  0.16589706761E-01  0.10199147294E+01  0.10196319541E+01 0.  0.
     999903    2    3    3    0    0 -0.87520860486E-01 -0.47284405133E-01  0.83930677420E-01  0.13159133824E+00  0.19396022771E-01 0.  0.
         14    1    1    2    0    0 -0.81935389787E-02  0.15309499435E-01 -0.16589706761E-01  0.24015270650E-01  0.00000000000E+00 0. -1.
     999901    1    3    3    0    0  0.95714399465E-01  0.31974905698E-01 -0.67340970659E-01  0.88832339111E+00  0.88000000000E+00 0.  1.
        -11    1    4    4    0    0 -0.67554006598E-01 -0.41972725386E-01  0.58017975296E-01  0.98445924559E-01  0.51100000000E-03 0. -1.
         11    1    4    4    0    0 -0.19966853888E-01 -0.53116797474E-02  0.25912702124E-01  0.33145413684E-01  0.51100000000E-03 0.  1.
</event>
<event>
 8    1  0.1116841E+005  0.1043930E+01  0.7957747E-01            NaN
         13   -1    0    0    0    0  0.00000000000E+00  0.00000000000E+00  0.74505805969E-08  0.10566000000E+00  0.10566000000E+00 0.  1.
     999900   -1    0    0    0    0 -0.00000000000E+00 -0.00000000000E+00 -0.74505805969E-08  0.93827000000E+00  0.93827000000E+00 0. -1.
     999902    2    1    2    0    0 -0.27446158215E-03 -0.20595114021E-01  0.12234373538E-01  0.10199734989E+01  0.10196921224E+01 0.  0.
     999903    2    3    3    0    0  0.48750840263E-01 -0.10548341995E+00 -0.58788077358E-01  0.13168655579E+00  0.19542636115E-01 0.  0.
         14    1    1    2    0    0  0.27446158215E-03  0.20595114021E-01 -0.12234373538E-01  0.23956501134E-01  0.00000000000E+00 0. -1.
     999901    1    3    3    0    0 -0.49025301845E-01  0.84888305929E-01  0.71022450896E-01  0.88828694307E+00  0.88000000000E+00 0.  1.
        -11    1    4    4    0    0  0.19196568171E-01 -0.63435683414E-01 -0.29702854940E-01  0.72629986042E-01  0.51100000000E-03 0. -1.
         11    1    4    4    0    0  0.29554272092E-01 -0.42047736536E-01 -0.29085222418E-01  0.59056569751E-01  0.51100000000E-03 0.  1.
</event>
<event>
 8    1  0.1116841E+005  0.1043930E+01  0.7957747E-01            NaN
         13   -1    0    0    0    0  0.00000000000E+00  0.00000000000E+00  0.74505805969E-08  0.10566000000E+00  0.10566000000E+00 0. -1.
     999900   -1    0    0    0    0 -0.00000000000E+00 -0.00000000000E+00 -0.74505805969E-08  0.93827000000E+00  0.93827000000E+00 0. -1.
     999902    2    1    2    0    0 -0.21943503136E-01  0.10338550991E-01 -0.40340443772E-03  0.10196696269E+01  0.10193809800E+01 0.  0.
     999903    2    3    3    0    0  0.12144335747E+00  0.72869992097E-02  0.32160235495E-01  0.12746477690E+00  0.20282977417E-01 0.  0.
         14    1    1    2    0    0  0.21943503136E-01 -0.10338550991E-01  0.40340443772E-03  0.24260373072E-01  0.00000000000E+00 0.  1.
     999901    1    3    3    0    0 -0.14338686061E+00  0.30515517812E-02 -0.32563639933E-01  0.89220485002E+00  0.88000000000E+00 0.  1.
        -11    1    4    4    0    0  0.47852210251E-01  0.93670485169E-02  0.51088980571E-02  0.49029966186E-01  0.51100000000E-03 0.  1.
         11    1    4    4    0    0  0.73591147218E-01 -0.20800493073E-02  0.27051337438E-01  0.78434810717E-01  0.51100000000E-03 0. -1.
</event>
<event>
 8    1  0.1116841E+005  0.1043930E+01  0.7957747E-01            NaN
         13   -1    0    0    0    0  0.00000000000E+00  0.00000000000E+00  0.74505805969E-08  0.10566000000E+00  0.10566000000E+00 0.  1.
     999900   -1    0    0    0    0 -0.00000000000E+00 -0.00000000000E+00 -0.74505805969E-08  0.93827000000E+00  0.93827000000E+00 0.  1.
     999902    2    1    2    0    0  0.18545875613E-01 -0.13175102407E-01  0.46708839035E-02  0.10207060903E+01  0.10204418517E+01 0.  0.
     999903    2    3    3    0    0  0.67557206398E-01  0.10909756315E+00 -0.16485045766E-01  0.13064975014E+00  0.18202913419E-01 0.  0.
         14    1    1    2    0    0 -0.18545875613E-01  0.13175102407E-01 -0.46708839035E-02  0.23223909708E-01  0.00000000000E+00 0. -1.
     999901    1    3    3    0    0 -0.49011330785E-01 -0.12227266555E+00  0.21155929670E-01  0.89005634015E+00  0.88000000000E+00 0. -1.
        -11    1    4    4    0    0  0.46376755412E-01  0.82972334312E-01 -0.53008329619E-02  0.95202792264E-01  0.51100000000E-03 0. -1.
         11    1    4    4    0    0  0.21180450985E-01  0.26125228834E-01 -0.11184212805E-01  0.35446957875E-01  0.51100000000E-03 0.  1.
</event>
<event>
 8    1  0.1116841E+005  0.1043930E+01  0.7957747E-01            NaN
         13   -1    0    0    0    0  0.00000000000E+00  0.00000000000E+00  0.74505805969E-08  0.10566000000E+00  0.10566000000E+00 0.  1.
     999900   -1    0    0    0    0 -0.00000000000E+00 -0.00000000000E+00 -0.74505805969E-08  0.93827000000E+00  0.93827000000E+00 0. -1.
     999902    2    1    2    0    0  0.12121504367E-01  0.13431811637E-01  0.99192652392E-02  0.10232966228E+01  0.10230885797E+01 0.  0.
     999903    2    3    3    0    0  0.82008129284E-01 -0.81769771228E-01 -0.61433545097E-01  0.13254485869E+00  0.19555826382E-01 0.  0.
         14    1    1    2    0    0 -0.12121504367E-01 -0.13431811637E-01 -0.99192652392E-02  0.20633377204E-01  0.00000000000E+00 0. -1.
     999901    1    3    3    0    0 -0.69886624917E-01  0.95201582864E-01  0.71352810336E-01  0.89075176411E+00  0.88000000000E+00 0.  1.
        -11    1    4    4    0    0  0.23713788809E-01 -0.15268542986E-01 -0.21716826574E-01  0.35599913792E-01  0.51100000000E-03 0.  1.
         11    1    4    4    0    0  0.58294340475E-01 -0.66501228242E-01 -0.39716718523E-01  0.96944944893E-01  0.51100000000E-03 0. -1.
</event>
<event>
 7    1  0.1116841E+005  0.1043930E+01  0.7957747E-01            NaN
         13   -1    0    0    0    0  0.00000000000E+00  0.00000000000E+00  0.74505805969E-08  0.10566000000E+00  0.10566000000E+00 0. -1.
     999900   -1    0    0    0    0 -0.00000000000E+00 -0.00000000000E+00 -0.74505805969E-08  0.93827000000E+00  0.93827000000E+00 0.  1.
     999903    2    1    2    0    0 -0.35977127262E-02  0.24297054861E-01 -0.89977235863E-01  0.95509467607E-01  0.20563681993E-01 0.  0.
         14    1    1    2    0    0 -0.35656353318E-01  0.18880001340E-01  0.51804362180E-01  0.65662180313E-01  0.00000000000E+00 0. -1.
     999901    1    1    2    0    0  0.39254066044E-01 -0.43177056201E-01  0.38172873683E-01  0.88275835208E+00  0.88000000000E+00 0. -1.
        -11    1    3    3    0    0 -0.86585142728E-02  0.12421467905E-01 -0.70690156242E-01  0.72295380522E-01  0.51100000000E-03 0.  1.
         11    1    3    3    0    0  0.50608015466E-02  0.11875586956E-01 -0.19287079622E-01  0.23214087085E-01  0.51100000000E-03 0. -1.
</event>
<event>
 8    1  0.1116841E+005  0.1043930E+01  0.7957747E-01            NaN
         13   -1    0    0    0    0  0.00000000000E+00  0.00000000000E+00  0.74505805969E-08  0.10566000000E+00  0.10566000000E+00 0. -1.
     999900   -1    0    0    0    0 -0.00000000000E+00 -0.00000000000E+00 -0.74505805969E-08  0.93827000000E+00  0.93827000000E+00 0. -1.
     999902    2    1    2    0    0 -0.11869032153E-02 -0.13271984815E-01  0.19425755521E-01  0.10203733810E+01  0.10201014275E+01 0.  0.
     999903    2    3    3    0    0 -0.49368498796E-01 -0.43923501771E-01 -0.10922300158E+00  0.12918794333E+00  0.19832749327E-01 0.  0.
         14    1    1    2    0    0  0.11869032153E-02  0.13271984815E-01 -0.19425755521E-01  0.23556618979E-01  0.00000000000E+00 0.  1.
     999901    1    3    3    0    0  0.48181595581E-01  0.30651516955E-01  0.12864875711E+00  0.89118543769E+00  0.88000000000E+00 0.  1.
        -11    1    4    4    0    0 -0.30930482049E-01 -0.37441309958E-01 -0.67994944780E-01  0.83559081181E-01  0.51100000000E-03 0. -1.
         11    1    4    4    0    0 -0.18438016747E-01 -0.64821918126E-02 -0.41228056805E-01  0.45628862151E-01  0.51100000000E-03 0.  1.
</event>
<event>
 8    1  0.1116841E+005  0.1043930E+01  0.7957747E-01            NaN
         13   -1    0    0    0    0  0.00000000000E+00  0.00000000000E+00  0.74505805969E-08  0.10566000000E+00  0.10566000000E+00 0.  1.
     999900   -1    0    0    0    0 -0.00000000000E+00 -0.00000000000E+00 -0.74505805969E-08  0.93827000000E+00  0.93827000000E+00 0. -1.
     999902    2    1    2    0    0  0.43968174781E-02  0.12052231264E-01 -0.18412788408E-01  0.10214885415E+01  0.10212419994E+01 0.  0.
     999903    2    3    3    0    0  0.79206127440E-01  0.35583719163E-01  0.95691157983E-01  0.13066315213E+00  0.19397162533E-01 0.  0.
         14    1    1    2    0    0 -0.43968174781E-02 -0.12052231264E-01  0.18412788408E-01  0.22441458494E-01  0.00000000000E+00 0.  1.
     999901    1    3    3    0    0 -0.74809309961E-01 -0.23531487899E-01 -0.11410394639E+00  0.89082538938E+00  0.88000000000E+00 0. -1.
        -11    1    4    4    0    0  0.51761358506E-01  0.31163981196E-01  0.57372354661E-01  0.83320346607E-01  0.51100000000E-03 0.  1.
         11    1    4    4    0    0  0.27444768934E-01  0.44197379666E-02  0.38318803322E-01  0.47342805521E-01  0.51100000000E-03 0. -1.
</event>
<event>
 8    1  0.1116841E+005  0.1043930E+01  0.7957747E-01            NaN
         13   -1    0    0    0    0  0.00000000000E+00  0.00000000000E+00  0.74505805969E-08  0.10566000000E+00  0.10566000000E+00 0. -1.
     999900   -1    0    0    0    0 -0.00000000000E+00 -0.00000000000E+00 -0.74505805969E-08  0.93827000000E+00  0.93827000000E+00 0. -1.
     999902    2    1    2    0    0 -0.14607207352E-01  0.14496067810E-01  0.13756027716E-01  0.10191765197E+01  0.10188758725E+01 0.  0.
     999903    2    3    3    0    0 -0.32478813992E-01 -0.85555606136E-01  0.91103889749E-01  0.12995639872E+00  0.14632557611E-01 0.  0.
         14    1    1    2    0    0  0.14607207352E-01 -0.14496067810E-01 -0.13756027716E-01  0.24753480302E-01  0.00000000000E+00 0. -1.
     999901    1    3    3    0    0  0.17871606640E-01  0.10005167395E+00 -0.77347862033E-01  0.88922012097E+00  0.88000000000E+00 0. -1.
        -11    1    4    4    0    0 -0.11738179404E-01 -0.20076921359E-01  0.30477087760E-01  0.38340339413E-01  0.51100000000E-03 0.  1.
         11    1    4    4    0    0 -0.20740634588E-01 -0.65478684777E-01  0.60626801989E-01  0.91616059311E-01  0.51100000000E-03 0. -1.
</event>
<event>
 8    1  0.1116841E+005  0.1043930E+01  0.7957747E-01            NaN
         13   -1    0    0    0    0  0.00000000000E+00  0.00000000000E+00  0.74505805969E-08  0.10566000000E+00  0.10566000000E+00 0. -1.
     999900   -1    0    0    0    0 -0.00000000000E+00 -0.00000000000E+00 -0.74505805969E-08  0.93827000000E+00  0.93827000000E+00 0.  1.
     999902    2    1    2    0    0  0.11997572361E-01  0.20144412594E-01  0.15615835040E-02  0.10204315395E+01  0.10201609428E+01 0.  0.
     999903    2    3    3    0    0  0.11621401574E+00 -0.25781294662E-01  0.52428992500E-01  0.13163587631E+00  0.20219596181E-01 0.  0.
         14    1    1    2    0    0 -0.11997572361E-01 -0.20144412594E-01 -0.15615835040E-02  0.23498460467E-01  0.00000000000E+00 0. -1.
     999901    1    3    3    0    0 -0.10421644338E+00  0.45925707256E-01 -0.50867408996E-01  0.88879566322E+00  0.88000000000E+00 0.  1.
        -11    1    4    4    0    0  0.86572326456E-01 -0.28065621297E-01  0.39751181683E-01  0.99311954834E-01  0.51100000000E-03 0.  1.
         11    1    4    4    0    0  0.29641689284E-01  0.22843266344E-02  0.12677810817E-01  0.32323921481E-01  0.51100000000E-03 0. -1.
</event>
<event>
 8    1  0.1116841E+005  0.1043930E+01  0.7957747E-01            NaN
         13   -1    0    0    0    0  0.00000000000E+00  0.00000000000E+00  0.74505805969E-08  0.10566000000E+00  0.10566000000E+00 0.  1.
     999900   -1    0    0    0    0 -0.00000000000E+00 -0.00000000000E+00 -0.74505805969E-08  0.93827000000E+00  0.93827000000E+00 0. -1.
     999902    2    1    2    0    0  0.10894448523E-02 -0.44808559844E-02  0.24116922589E-01  0.10193761629E+01  0.10190804044E+01 0.  0.
     999903    2    3    3    0    0 -0.10017955425E-03  0.89298495380E-01 -0.88287371077E-01  0.12728272208E+00  0.20784612936E-01 0.  0.
         14    1    1    2    0    0 -0.10894448523E-02  0.44808559844E-02 -0.24116922589E-01  0.24553837085E-01  0.00000000000E+00 0. -1.
     999901    1    3    3    0    0  0.11896244066E-02 -0.93779351364E-01  0.11240429367E+00  0.89209344084E+00  0.88000000000E+00 0.  1.
        -11    1    4    4    0    0  0.10176111179E-01  0.38330607042E-01 -0.39758718682E-01  0.56158752721E-01  0.51100000000E-03 0. -1.
         11    1    4    4    0    0 -0.10276290733E-01  0.50967888338E-01 -0.48528652395E-01  0.71123969357E-01  0.51100000000E-03 0.  1.
</event>
<event>
 8    1  0.1116841E+005  0.1043930E+01  0.7957747E-01            NaN
         13   -1    0    0    0    0  0.00000000000E+00  0.00000000000E+00  0.74505805969E-08  0.10566000000E+00  0.10566000000E+00 0.  1.
     999900   -1    0    0    0    0 -0.00000000000E+00 -0.00000000000E+00 -0.74505805969E-08  0.93827000000E+00  0.93827000000E+00 0.  1.
     999902    2    1    2    0    0  0.37001647501E-02  0.20356263892E-01 -0.13008996241E-01  0.10194902234E+01  0.10191972394E+01 0.  0.
     999903    2    3    3    0    0 -0.87902613439E-01  0.19932622814E-01  0.89905677349E-01  0.12876990896E+00  0.19351478848E-01 0.  0.
         14    1    1    2    0    0 -0.37001647501E-02 -0.20356263892E-01  0.13008996241E-01  0.24439776636E-01  0.00000000000E+00 0.  1.
     999901    1    3    3    0    0  0.91602778189E-01  0.42364107822E-03 -0.10291467359E+00  0.89072031440E+00  0.88000000000E+00 0. -1.
        -11    1    4    4    0    0 -0.39754823638E-01  0.25775045835E-02  0.29371345226E-01  0.49497743118E-01  0.51100000000E-03 0. -1.
         11    1    4    4    0    0 -0.48147789801E-01  0.17355118230E-01  0.60534332123E-01  0.79272165847E-01  0.51100000000E-03 0.  1.
</event>
<event>
 8    1  0.1116841E+005  0.1043930E+01  0.7957747E-01            NaN
         13   -1    0    0    0    0  0.00000000000E+00  0.00000000000E+00  0.74505805969E-08  0.10566000000E+00  0.10566000000E+00 0.  1.
     999900   -1    0    0    0    0 -0.00000000000E+00 -0.00000000000E+00 -0.74505805969E-08  0.93827000000E+00  0.93827000000E+00 0. -1.
     999902    2    1    2    0    0 -0.15041928212E-01 -0.18780158476E-01  0.62883400129E-02  0.10190603965E+01  0.10187568869E+01 0.  0.
     999903    2    3    3    0    0 -0.49075210616E-01  0.44920132819E-01 -0.10831820336E+00  0.12869493718E+00  0.20083800604E-01 0.  0.
         14    1    1    2    0    0  0.15041928212E-01  0.18780158476E-01 -0.62883400129E-02  0.24869603472E-01  0.00000000000E+00 0.  1.
     999901    1    3    3    0    0  0.34033282404E-01 -0.63700291296E-01  0.11460654337E+00  0.89036545935E+00  0.88000000000E+00 0.  1.
        -11    1    4    4    0    0 -0.12464540389E-01  0.24329337172E-01 -0.46840360635E-01  0.54236168004E-01  0.51100000000E-03 0. -1.
         11    1    4    4    0    0 -0.36610670227E-01  0.20590795647E-01 -0.61477842723E-01  0.74458769173E-01  0.51100000000E-03 0.  1.
</event>
<event>
 8    1  0.1116841E+005  0.1043930E+01  0.7957747E-01            NaN
         13   -1    0    0    0    0  0.00000000000E+00  0.00000000000E+00  0.74505805969E-08  0.10566000000E+00  0.10566000000E+00 0.  1.
     999900   -1    0    0    0    0 -0.00000000000E+00 -0.00000000000E+00 -0.74505805969E-08  0.93827000000E+00  0.93827000000E+00 0.  1.
     999902    2    1    2    0    0 -0.13413887815E-01  0.18541086498E-01  0.10074898976E-01  0.10189258431E+01  0.10186189993E+01 0.  0.
     999903    2    3    3    0    0 -0.74969768395E-01  0.10546972945E+00 -0.16599476499E-01  0.13210160021E+00  0.20759579837E-01 0.  0.
         14    1    1    2    0    0  0.13413887815E-01 -0.18541086498E-01 -0.10074898976E-01  0.25004156939E-01  0.00000000000E+00 0. -1.
     999901    1    3    3    0    0  0.61555880580E-01 -0.86928642951E-01  0.26674375475E-01  0.88682424285E+00  0.88000000000E+00 0.  1.
        -11    1    4    4    0    0 -0.30373998652E-01  0.60370685134E-01 -0.68392645758E-02  0.67928168520E-01  0.51100000000E-03 0. -1.
         11    1    4    4    0    0 -0.44595769743E-01  0.45099044316E-01 -0.97602119231E-02  0.64173431691E-01  0.51100000000E-03 0.  1.
</event>
<event>
 7    1  0.1116841E+005  0.1043930E+01  0.7957747E-01            NaN
         13   -1    0    0    0    0  0.00000000000E+00  0.00000000000E+00  0.74505805969E-08  0.10566000000E+00  0.10566000000E+00 0. -1.
     999900   -1    0    0    0    0 -0.00000000000E+00 -0.00000000000E+00 -0.74505805969E-08  0.93827000000E+00  0.93827000000E+00 0. -1.
     999903    2    1    2    0    0  0.31358019960E-02 -0.86751408137E-01  0.43284593676E-02  0.89947765630E-01  0.23156530688E-01 0.  0.
         14    1    1    2    0    0  0.80056627619E-02 -0.48833551367E-02 -0.66325042781E-01  0.66984692980E-01  0.00000000000E+00 0.  1.
     999901    1    1    2    0    0 -0.11141464758E-01  0.91634763273E-01  0.61996583414E-01  0.88699754139E+00  0.88000000000E+00 0.  1.
        -11    1    3    3    0    0 -0.84239008908E-03 -0.65784160868E-01 -0.63153986494E-02  0.66093954514E-01  0.51100000000E-03 0. -1.
         11    1    3    3    0    0  0.39781920851E-02 -0.20967247269E-01  0.10643858017E-01  0.23853811117E-01  0.51100000000E-03 0.  1.
</event>
<event>
 8    1  0.1116841E+005  0.1043930E+01  0.7957747E-01            NaN
         13   -1    0    0    0    0  0.00000000000E+00  0.00000000000E+00  0.74505805969E-08  0.10566000000E+00  0.10566000000E+00 0.  1.
     999900   -1    0    0    0    0 -0.00000000000E+00 -0.00000000000E+00 -0.74505805969E-08  0.93827000000E+00  0.93827000000E+00 0.  1.
     999902    2    1    2    0    0 -0.15681566723E-01  0.16762283073E-01  0.35432992527E-02  0.10207041386E+01  0.10204398551E+01 0.  0.
     999903    2    3    3    0    0 -0.98442674251E-01  0.65426662536E-01 -0.58409796899E-01  0.13331707035E+00  0.19751673084E-01 0.  0.
         14    1    1    2    0    0  0.15681566723E-01 -0.16762283073E-01 -0.35432992527E-02  0.23225861411E-01  0.00000000000E+00 0. -1.
     999901    1    3    3    0    0  0.82761107528E-01 -0.48664379463E-01  0.61953096151E-01  0.88738706823E+00  0.88000000000E+00 0. -1.
        -11    1    4    4    0    0 -0.28532764997E-01  0.29187076625E-01 -0.15707295451E-01  0.43737676798E-01  0.51100000000E-03 0. -1.
         11    1    4    4    0    0 -0.69909909254E-01  0.36239585911E-01 -0.42702501448E-01  0.89579393556E-01  0.51100000000E-03 0.  1.
</event>
<event>
 8    1  0.1116841E+005  0.1043930E+01  0.7957747E-01            NaN
         13   -1    0    0    0    0  0.00000000000E+00  0.00000000000E+00  0.74505805969E-08  0.10566000000E+00  0.10566000000E+00 0. -1.
     999900   -1    0    0    0    0 -0.00000000000E+00 -0.00000000000E+00 -0.74505805969E-08  0.93827000000E+00  0.93827000000E+00 0.  1.
     999902    2    1    2    0    0 -0.14041770700E-01 -0.78131654840E-02 -0.17219670884E-01  0.10203772094E+01  0.10201053453E+01 0.  0.
     999903    2    3    3    0    0 -0.86300661678E-01  0.78061858655E-01 -0.59629986811E-01  0.13223617219E+00  0.19728454718E-01 0.  0.
         14    1    1    2    0    0  0.14041770700E-01  0.78131654840E-02  0.17219670884E-01  0.23552790591E-01  0.00000000000E+00 0. -1.
     999901    1    3    3    0    0  0.72258890978E-01 -0.85875024139E-01  0.42410315927E-01  0.88814103722E+00  0.88000000000E+00 0. -1.
        -11    1    4    4    0    0 -0.40981225919E-01  0.45492789453E-01 -0.22654693565E-01  0.65288215105E-01  0.51100000000E-03 0.  1.
         11    1    4    4    0    0 -0.45319435758E-01  0.32569069202E-01 -0.36975293246E-01  0.66947957085E-01  0.51100000000E-03 0. -1.
</event>
<event>
 8    1  0.1116841E+005  0.1043930E+01  0.7957747E-01            NaN
         13   -1    0    0    0    0  0.00000000000E+00  0.00000000000E+00  0.74505805969E-08  0.10566000000E+00  0.10566000000E+00 0.  1.
     999900   -1    0    0    0    0 -0.00000000000E+00 -0.00000000000E+00 -0.74505805969E-08  0.93827000000E+00  0.93827000000E+00 0. -1.
     999902    2    1    2    0    0 -0.49145906972E-04  0.76289941323E-02 -0.22226925316E-01  0.10204302090E+01  0.10201595813E+01 0.  0.
     999903    2    3    3    0    0 -0.70403580195E-01  0.10167582884E+00 -0.42440057928E-01  0.13239691896E+00  0.20812192524E-01 0.  0.
         14    1    1    2    0    0  0.49145906972E-04 -0.76289941323E-02  0.22226925316E-01  0.23499790974E-01  0.00000000000E+00 0.  1.
     999901    1    3    3    0    0  0.70354434288E-01 -0.94046834708E-01  0.20213132612E-01  0.88803329007E+00  0.88000000000E+00 0.  1.
        -11    1    4    4    0    0 -0.58618181904E-01  0.73739059211E-01 -0.25198278666E-01  0.97512842599E-01  0.51100000000E-03 0. -1.
         11    1    4    4    0    0 -0.11785398291E-01  0.27936769629E-01 -0.17241779262E-01  0.34884076358E-01  0.51100000000E-03 0.  1.
</event>
<event>
 8    1  0.1116841E+005  0.1043930E+01  0.7957747E-01            NaN
         13   -1    0    0    0    0  0.00000000000E+00  0.00000000000E+00  0.74505805969E-08  0.10566000000E+00  0.10566000000E+00 0.  1.
     999900   -1    0    0    0    0 -0.00000000000E+00 -0.00000000000E+00 -0.74505805969E-08  0.93827000000E+00  0.93827000000E+00 0. -1.
     999902    2    1    2    0    0  0.61790956797E-02  0.93063441071E-02  0.20939142310E-01  0.10201973865E+01  0.10199213060E+01 0.  0.
     999903    2    3    3    0    0  0.41771805002E-01  0.12391519997E+00  0.55857609625E-02  0.13191941359E+00  0.16482429429E-01 0.  0.
         14    1    1    2    0    0 -0.61790956797E-02 -0.93063441071E-02 -0.20939142310E-01  0.23732613525E-01  0.00000000000E+00 0. -1.
     999901    1    3    3    0    0 -0.35592709322E-01 -0.11460885586E+00  0.15353381347E-01  0.88827797289E+00  0.88000000000E+00 0.  1.
        -11    1    4    4    0    0  0.25407830305E-01  0.91620463986E-01 -0.11707787402E-02  0.95086797746E-01  0.51100000000E-03 0.  1.
         11    1    4    4    0    0  0.16363974697E-01  0.32294735981E-01  0.67565397026E-02  0.36832615841E-01  0.51100000000E-03 0. -1.
</event>
<event>
 8    1  0.1116841E+005  0.1043930E+01  0.7957747E-01            NaN
         13   -1    0    0    0    0  0.00000000000E+00  0.00000000000E+00  0.74505805969E-08  0.10566000000E+00  0.10566000000E+00 0.  1.
     999900   -1    0    0    0    0 -0.00000000000E+00 -0.00000000000E+00 -0.74505805969E-08  0.93827000000E+00  0.93827000000E+00 0.  1.
     999902    2    1    2    0    0  0.11704029575E-01  0.66973441052E-02 -0.12822123839E-01  0.10253223245E+01  0.10251534634E+01 0.  0.
     999903    2    3    3    0    0  0.50873359600E-02 -0.89322685966E-01  0.96779082102E-01  0.13331556943E+00  0.20060585867E-01 0.  0.
         14    1    1    2    0    0 -0.11704029575E-01 -0.66973441052E-02  0.12822123839E-01  0.18607675462E-01  0.00000000000E+00 0.  1.
     999901    1    3    3    0    0  0.66166936148E-02  0.96020030071E-01 -0.10960120594E+00  0.89200675511E+00  0.88000000000E+00 0.  1.
        -11    1    4    4    0    0 -0.41837553559E-02 -0.64896055837E-01  0.75247841869E-01  0.99456023945E-01  0.51100000000E-03 0.  1.
         11    1    4    4    0    0  0.92710913159E-02 -0.24426630129E-01  0.21531240233E-01  0.33859545488E-01  0.51100000000E-03 0. -1.
</event>
<event>
 8    1  0.1151534E+005  0.1043930E+01  0.7957747E-01            NaN
         13   -1    0    0    0    0  0.00000000000E+00  0.00000000000E+00  0.74505805969E-08  0.10566000000E+00  0.10566000000E+00 0.  1.
     999900   -1    0    0    0    0 -0.00000000000E+00 -0.00000000000E+00 -0.74505805969E-08  0.93827000000E+00  0.93827000000E+00 0.  1.
     999902    2    1    2    0    0  0.20128126918E-01  0.83886991946E-02 -0.86432832465E-02  0.10204732715E+01  0.10202036462E+01 0.  0.
     999903    2    3    3    0    0  0.64942066991E-01 -0.11042550854E+00 -0.20585422293E-01  0.13127828732E+00  0.19974085907E-01 0.  0.
         14    1    1    2    0    0 -0.20128126918E-01 -0.83886991946E-02  0.86432832465E-02  0.23456728516E-01  0.00000000000E+00 0. -1.
     999901    1    3    3    0    0 -0.44813940074E-01  0.11881420774E+00  0.11942139046E-01  0.88919498417E+00  0.88000000000E+00 0. -1.
        -11    1    4    4    0    0  0.15659498778E-01 -0.40606341041E-01 -0.68342559424E-03  0.43529564967E-01  0.51100000000E-03 0.  1.
         11    1    4    4    0    0  0.49282568214E-01 -0.69819167501E-01 -0.19901996698E-01  0.87748722348E-01  0.51100000000E-03 0. -1.
</event>
<event>
 8    1  0.1116841E+005  0.1043930E+01  0.7957747E-01            NaN
         13   -1    0    0    0    0  0.00000000000E+00  0.00000000000E+00  0.74505805969E-08  0.10566000000E+00  0.10566000000E+00 0.  1.
     999900   -1    0    0    0    0 -0.00000000000E+00 -0.00000000000E+00 -0.74505805969E-08  0.93827000000E+00  0.93827000000E+00 0. -1.
     999902    2    1    2    0    0 -0.30990878066E-01  0.12840793737E-01 -0.83689093938E-03  0.10103737652E+01  0.10098163816E+01 0.  0.
     999903    2    3    3    0    0 -0.54193314837E-01  0.53112248243E-01 -0.96647564750E-01  0.12395409691E+00  0.16310735212E-01 0.  0.
         14    1    1    2    0    0  0.30990878066E-01 -0.12840793737E-01  0.83689093938E-03  0.33556234794E-01  0.00000000000E+00 0.  1.
     999901    1    3    3    0    0  0.23202436771E-01 -0.40271454505E-01  0.95810673811E-01  0.88641966829E+00  0.88000000000E+00 0.  1.
        -11    1    4    4    0    0 -0.10373389525E-01  0.18241372733E-01 -0.19726490002E-01  0.28805388701E-01  0.51100000000E-03 0. -1.
         11    1    4    4    0    0 -0.43819925312E-01  0.34870875510E-01 -0.76921074748E-01  0.95148708212E-01  0.51100000000E-03 0.  1.
</event>
<event>
 8    1  0.1116841E+005  0.1043930E+01  0.7957747E-01            NaN
         13   -1    0    0    0    0  0.00000000000E+00  0.00000000000E+00  0.74505805969E-08  0.10566000000E+00  0.10566000000E+00 0. -1.
     999900   -1    0    0    0    0 -0.00000000000E+00 -0.00000000000E+00 -0.74505805969E-08  0.93827000000E+00  0.93827000000E+00 0.  1.
     999902    2    1    2    0    0  0.17177761440E-01  0.58163344356E-02  0.15033345296E-01  0.10203735422E+01  0.10201015924E+01 0.  0.
     999903    2    3    3    0    0  0.71272815083E-01  0.10520916109E+00  0.33743378590E-01  0.13293043179E+00  0.19573000563E-01 0.  0.
         14    1    1    2    0    0 -0.17177761440E-01 -0.58163344356E-02 -0.15033345296E-01  0.23556457823E-01  0.00000000000E+00 0.  1.
     999901    1    3    3    0    0 -0.54095053643E-01 -0.99392826656E-01 -0.18710033294E-01  0.88744311038E+00  0.88000000000E+00 0.  1.
        -11    1    4    4    0    0  0.59331593381E-01  0.95985634805E-01  0.25347625241E-01  0.11565571014E+00  0.51100000000E-03 0. -1.
         11    1    4    4    0    0  0.11941221702E-01  0.92235262868E-02  0.83957533492E-02  0.17274721653E-01  0.51100000000E-03 0.  1.
</event>
<event>
 8    1  0.1116841E+005  0.1043930E+01  0.7957747E-01            NaN
         13   -1    0    0    0    0  0.00000000000E+00  0.00000000000E+00  0.74505805969E-08  0.10566000000E+00  0.10566000000E+00 0. -1.
     999900   -1    0    0    0    0 -0.00000000000E+00 -0.00000000000E+00 -0.74505805969E-08  0.93827000000E+00  0.93827000000E+00 0.  1.
     999902    2    1    2    0    0  0.92438660703E-02 -0.19556194206E-01  0.14632382208E-02  0.10222497127E+01  0.10220197847E+01 0.  0.
     999903    2    3    3    0    0  0.28857643110E-01 -0.96455092259E-02 -0.12751508945E+00  0.13257655308E+00  0.19764740688E-01 0.  0.
         14    1    1    2    0    0 -0.92438660703E-02  0.19556194206E-01 -0.14632382208E-02  0.21680287310E-01  0.00000000000E+00 0.  1.
     999901    1    3    3    0    0 -0.19613777040E-01 -0.99106849799E-02  0.12897832767E+00  0.88967315961E+00  0.88000000000E+00 0. -1.
        -11    1    4    4    0    0 -0.40026793500E-03  0.10193651679E-02 -0.33799727107E-01  0.33821324534E-01  0.51100000000E-03 0.  1.
         11    1    4    4    0    0  0.29257911045E-01 -0.10664874394E-01 -0.93715362343E-01  0.98755228543E-01  0.51100000000E-03 0. -1.
</event>
<event>
 8    1  0.1116841E+005  0.1043930E+01  0.7957747E-01            NaN
         13   -1    0    0    0    0  0.00000000000E+00  0.00000000000E+00  0.74505805969E-08  0.10566000000E+00  0.10566000000E+00 0. -1.
     999900   -1    0    0    0    0 -0.00000000000E+00 -0.00000000000E+00 -0.74505805969E-08  0.93827000000E+00  0.93827000000E+00 0.  1.
     999902    2    1    2    0    0 -0.10154265459E-01  0.42063850485E-02  0.20799320381E-01  0.10204052362E+01  0.10201340263E+01 0.  0.
     999903    2    3    3    0    0  0.24611568911E-01 -0.12443527223E+00  0.21974893574E-01  0.13037224740E+00  0.20595160731E-01 0.  0.
         14    1    1    2    0    0  0.10154265459E-01 -0.42063850485E-02 -0.20799320381E-01  0.23524763772E-01  0.00000000000E+00 0.  1.
     999901    1    3    3    0    0 -0.34765834370E-01  0.12864165728E+00 -0.11755731926E-02  0.89003298883E+00  0.88000000000E+00 0. -1.
        -11    1    4    4    0    0  0.17268192514E-01 -0.37945544940E-01  0.79432910653E-02  0.42443042391E-01  0.51100000000E-03 0. -1.
         11    1    4    4    0    0  0.73433763970E-02 -0.86489727292E-01  0.14031602508E-01  0.87929205011E-01  0.51100000000E-03 0.  1.
</event>
<event>
 8    1  0.1116841E+005  0.1043930E+01  0.7957747E-01            NaN
         13   -1    0    0    0    0  0.00000000000E+00  0.00000000000E+00  0.74505805969E-08  0.10566000000E+00  0.10566000000E+00 0. -1.
     999900   -1    0    0    0    0 -0.00000000000E+00 -0.00000000000E+00 -0.74505805969E-08  0.93827000000E+00  0.93827000000E+00 0.  1.
     999902    2    1    2    0    0 -0.89405435558E-02  0.14358993571E-01  0.16905194622E-01  0.10200155771E+01  0.10197351999E+01 0.  0.
     999903    2    3    3    0    0 -0.16461475656E-01 -0.10213258892E+00  0.76849574229E-01  0.13028517873E+00  0.19139614337E-01 0.  0.
         14    1    1    2    0    0  0.89405435558E-02 -0.14358993571E-01 -0.16905194622E-01  0.23914422859E-01  0.00000000000E+00 0.  1.
     999901    1    3    3    0    0  0.75209321000E-02  0.11649158249E+00 -0.59944379606E-01  0.88973039841E+00  0.88000000000E+00 0.  1.
        -11    1    4    4    0    0  0.23891269581E-02 -0.42491986294E-01  0.28437600609E-01  0.51188231814E-01  0.51100000000E-03 0.  1.
         11    1    4    4    0    0 -0.18850602614E-01 -0.59640602627E-01  0.48411973620E-01  0.79096946916E-01  0.51100000000E-03 0. -1.
</event>
<event>
 8    1  0.1116841E+005  0.1043930E+01  0.7957747E-01            NaN
         13   -1    0    0    0    0  0.00000000000E+00  0.00000000000E+00  0.74505805969E-08  0.10566000000E+00  0.10566000000E+00 0. -1.
     999900   -1    0    0    0    0 -0.00000000000E+00 -0.00000000000E+00 -0.74505805969E-08  0.93827000000E+00  0.93827000000E+00 0.  1.
     999902    2    1    2    0    0  0.21450383093E-01 -0.35415369778E-02  0.21966881434E-01  0.10130236042E+01  0.10125520320E+01 0.  0.
     999903    2    3    3    0    0  0.10109045785E+00 -0.12788659889E-01 -0.68889075870E-01  0.12472024628E+00  0.20654407953E-01 0.  0.
         14    1    1    2    0    0 -0.21450383093E-01  0.35415369778E-02 -0.21966881434E-01  0.30906395761E-01  0.00000000000E+00 0.  1.
     999901    1    3    3    0    0 -0.79640074753E-01  0.92471229114E-02  0.90855957304E-01  0.88830335796E+00  0.88000000000E+00 0.  1.
        -11    1    4    4    0    0  0.66004952518E-01 -0.43860799063E-02 -0.33381828869E-01  0.74097901950E-01  0.51100000000E-03 0.  1.
         11    1    4    4    0    0  0.35085505328E-01 -0.84025799829E-02 -0.35507247001E-01  0.50622344327E-01  0.51100000000E-03 0. -1.
</event>
<event>
 8    1  0.1116841E+005  0.1043930E+01  0.7957747E-01            NaN
         13   -1    0    0    0    0  0.00000000000E+00  0.00000000000E+00  0.74505805969E-08  0.10566000000E+00  0.10566000000E+00 0.  1.
     999900   -1    0    0    0    0 -0.00000000000E+00 -0.00000000000E+00 -0.74505805969E-08  0.93827000000E+00  0.93827000000E+00 0.  1.
     999902    2    1    2    0    0  0.13915514697E-01 -0.16096876073E-01  0.75426845439E-02  0.10213547246E+01  0.10211052005E+01 0.  0.
     999903    2    3    3    0    0 -0.49915921659E-01  0.12945734299E-01 -0.11797556806E+00  0.12968620032E+00  0.15526899977E-01 0.  0.
         14    1    1    2    0    0 -0.13915514697E-01  0.16096876073E-01 -0.75426845439E-02  0.22575275385E-01  0.00000000000E+00 0. -1.
     999901    1    3    3    0    0  0.63831436356E-01 -0.29042610372E-01  0.12551825260E+00  0.89166852430E+00  0.88000000000E+00 0. -1.
        -11    1    4    4    0    0 -0.13824744703E-01 -0.13881186051E-02 -0.20614071536E-01  0.24864663796E-01  0.51100000000E-03 0.  1.
         11    1    4    4    0    0 -0.36091176956E-01  0.14333852904E-01 -0.97361496521E-01  0.10482153652E+00  0.51100000000E-03 0. -1.
</event>
<event>
 8    1  0.1116841E+005  0.1043930E+01  0.7957747E-01            NaN
         13   -1    0    0    0    0  0.00000000000E+00  0.00000000000E+00  0.74505805969E-08  0.10566000000E+00  0.10566000000E+00 0.  1.
     999900   -1    0    0    0    0 -0.00000000000E+00 -0.00000000000E+00 -0.74505805969E-08  0.93827000000E+00  0.93827000000E+00 0.  1.
     999902    2    1    2    0    0 -0.20484614450E-01  0.40692828413E-02 -0.78501359998E-02  0.10216184979E+01  0.10213748343E+01 0.  0.
     999903    2    3    3    0    0  0.33372560446E-01 -0.12081486789E+00  0.29809808843E-01  0.13037503067E+00  0.19976581883E-01 0.  0.
         14    1    1    2    0    0  0.20484614450E-01 -0.40692828413E-02  0.78501359998E-02  0.22311502128E-01  0.00000000000E+00 0. -1.
     999901    1    3    3    0    0 -0.53857174896E-01  0.12488415073E+00 -0.37659944843E-01  0.89124346721E+00  0.88000000000E+00 0. -1.
        -11    1    4    4    0    0  0.22884128300E-01 -0.51484094001E-01  0.18784661792E-01  0.59392086197E-01  0.51100000000E-03 0. -1.
         11    1    4    4    0    0  0.10488432145E-01 -0.69330773889E-01  0.11025147051E-01  0.70982944468E-01  0.51100000000E-03 0.  1.
</event>
<event>
 8    1  0.1116841E+005  0.1043930E+01  0.7957747E-01            NaN
         13   -1    0    0    0    0  0.00000000000E+00  0.00000000000E+00  0.74505805969E-08  0.10566000000E+00  0.10566000000E+00 0. -1.
     999900   -1    0    0    0    0 -0.00000000000E+00 -0.00000000000E+00 -0.74505805969E-08  0.93827000000E+00  0.93827000000E+00 0.  1.
     999902    2    1    2    0    0 -0.20762768571E-01 -0.42833298464E-02  0.10365650778E-01  0.10203315638E+01  0.10200586326E+01 0.  0.
     999903    2    3    3    0    0  0.85890457439E-01  0.63283597589E-01 -0.67814954241E-01  0.12788974091E+00  0.19363197291E-01 0.  0.
         14    1    1    2    0    0  0.20762768571E-01  0.42833298464E-02 -0.10365650778E-01  0.23598436163E-01  0.00000000000E+00 0. -1.
     999901    1    3    3    0    0 -0.10665322601E+00 -0.67566927436E-01  0.78180605019E-01  0.89244182292E+00  0.88000000000E+00 0. -1.
        -11    1    4    4    0    0  0.65647268069E-01  0.37785458650E-01 -0.50177030645E-01  0.90858682665E-01  0.51100000000E-03 0. -1.
         11    1    4    4    0    0  0.20243189370E-01  0.25498138939E-01 -0.17637923596E-01  0.37031058248E-01  0.51100000000E-03 0.  1.
</event>
<event>
 8    1  0.1116841E+005  0.1043930E+01  0.7957747E-01            NaN
         13   -1    0    0    0    0  0.00000000000E+00  0.00000000000E+00  0.74505805969E-08  0.10566000000E+00  0.10566000000E+00 0.  1.
     999900   -1    0    0    0    0 -0.00000000000E+00 -0.00000000000E+00 -0.74505805969E-08  0.93827000000E+00  0.93827000000E+00 0. -1.
     999902    2    1    2    0    0  0.18082375972E-01 -0.14696471317E-01  0.20126503260E-02  0.10205417690E+01  0.10202737343E+01 0.  0.
     999903    2    3    3    0    0 -0.63329147160E-01 -0.78803774714E-01  0.81067701016E-01  0.13094226160E+00  0.18795955313E-01 0.  0.
         14    1    1    2    0    0 -0.18082375972E-01  0.14696471317E-01 -0.20126503260E-02  0.23388231042E-01  0.00000000000E+00 0. -1.
     999901    1    3    3    0    0  0.81411523132E-01  0.64107303397E-01 -0.79055050690E-01  0.88959950736E+00  0.88000000000E+00 0. -1.
        -11    1    4    4    0    0 -0.12046073621E-01 -0.10089972903E-01  0.21085489100E-01  0.26301604789E-01  0.51100000000E-03 0. -1.
         11    1    4    4    0    0 -0.51283073539E-01 -0.68713801811E-01  0.59982211916E-01  0.10464065681E+00  0.51100000000E-03 0.  1.
</event>
<event>
 7    1  0.1345521E+005  0.1043930E+01  0.7957747E-01            NaN
         13   -1    0    0    0    0  0.00000000000E+00  0.00000000000E+00  0.74505805969E-08  0.10566000000E+00  0.10566000000E+00 0.  1.
     999900   -1    0    0    0    0 -0.00000000000E+00 -0.00000000000E+00 -0.74505805969E-08  0.93827000000E+00  0.93827000000E+00 0.  1.
     999903    2    1    2    0    0  0.84929402668E-01  0.63129975697E-01  0.39869127389E-01  0.11458363432E+00  0.18478762577E-01 0.  0.
         14    1    1    2    0    0 -0.22395792238E-01  0.17977351397E-01 -0.32507576243E-01  0.43376251411E-01  0.00000000000E+00 0. -1.
     999901    1    1    2    0    0 -0.62533610430E-01 -0.81107327094E-01 -0.73615511456E-02  0.88597011427E+00  0.88000000000E+00 0.  1.
        -11    1    3    3    0    0  0.25160791234E-01  0.22672456200E-01  0.21454502504E-01  0.40095666653E-01  0.51100000000E-03 0. -1.
         11    1    3    3    0    0  0.59768611435E-01  0.40457519497E-01  0.18414624885E-01  0.74487967668E-01  0.51100000000E-03 0.  1.
</event>
<event>
 8    1  0.1116841E+005  0.1043930E+01  0.7957747E-01            NaN
         13   -1    0    0    0    0  0.00000000000E+00  0.00000000000E+00  0.74505805969E-08  0.10566000000E+00  0.10566000000E+00 0. -1.
     999900   -1    0    0    0    0 -0.00000000000E+00 -0.00000000000E+00 -0.74505805969E-08  0.93827000000E+00  0.93827000000E+00 0.  1.
     999902    2    1    2    0    0  0.32430275754E-01  0.43046674441E-03  0.71679105330E-02  0.10107142352E+01  0.10101682921E+01 0.  0.
     999903    2    3    3    0    0  0.70349183426E-01  0.43636938572E-01  0.91331952519E-01  0.12483149541E+00  0.19702453621E-01 0.  0.
         14    1    1    2    0    0 -0.32430275754E-01 -0.43046674441E-03 -0.71679105330E-02  0.33215764759E-01  0.00000000000E+00 0. -1.
     999901    1    3    3    0    0 -0.37918907671E-01 -0.43206471828E-01 -0.84164041986E-01  0.88588273983E+00  0.88000000000E+00 0.  1.
        -11    1    4    4    0    0  0.52884851287E-01  0.26965859810E-01  0.75117482868E-01  0.95743733186E-01  0.51100000000E-03 0.  1.
         11    1    4    4    0    0  0.17464332138E-01  0.16671078762E-01  0.16214469652E-01  0.29087762224E-01  0.51100000000E-03 0. -1.
</event>
<event>
 8    1  0.1116841E+005  0.1043930E+01  0.7957747E-01            NaN
         13   -1    0    0    0    0  0.00000000000E+00  0.00000000000E+00  0.74505805969E-08  0.10566000000E+00  0.10566000000E+00 0.  1.
     999900   -1    0    0    0    0 -0.00000000000E+00 -0.00000000000E+00 -0.74505805969E-08  0.93827000000E+00  0.93827000000E+00 0. -1.
     999902    2    1    2    0    0  0.14070183470E-02  0.12500023413E-01  0.20262219608E-01  0.10200807269E+01  0.10198018933E+01 0.  0.
     999903    2    3    3    0    0  0.11082573849E+00 -0.42177408640E-02  0.68340295064E-01  0.13184458635E+00  0.20309243508E-01 0.  0.
         14    1    1    2    0    0 -0.14070183470E-02 -0.12500023413E-01 -0.20262219608E-01  0.23849273142E-01  0.00000000000E+00 0. -1.
     999901    1    3    3    0    0 -0.10941872014E+00  0.16717764277E-01 -0.48078075456E-01  0.88823614050E+00  0.88000000000E+00 0. -1.
        -11    1    4    4    0    0  0.37375609232E-01 -0.10517058210E-01  0.27329491375E-01  0.47483754050E-01  0.51100000000E-03 0.  1.
         11    1    4    4    0    0  0.73450129256E-01  0.62993173455E-02  0.41010803689E-01  0.84360832303E-01  0.51100000000E-03 0. -1.
</event>
<event>
 8    1  0.1116841E+005  0.1043930E+01  0.7957747E-01            NaN
         13   -1    0    0    0    0  0.00000000000E+00  0.00000000000E+00  0.74505805969E-08  0.10566000000E+00  0.10566000000E+00 0. -1.
     999900   -1    0    0    0    0 -0.00000000000E+00 -0.00000000000E+00 -0.74505805969E-08  0.93827000000E+00  0.93827000000E+00 0. -1.
     999902    2    1    2    0    0 -0.48160532477E-02  0.19098009446E-01  0.10199144508E-01  0.10217500342E+01  0.10215092665E+01 0.  0.
     999903    2    3    3    0    0  0.55097555089E-01 -0.77555900440E-01 -0.85300904709E-01  0.12930850775E+00  0.19844081270E-01 0.  0.
         14    1    1    2    0    0  0.48160532477E-02 -0.19098009446E-01 -0.10199144508E-01  0.22179965789E-01  0.00000000000E+00 0. -1.
     999901    1    3    3    0    0 -0.59913608337E-01  0.96653909886E-01  0.95500049217E-01  0.89244152647E+00  0.88000000000E+00 0.  1.
        -11    1    4    4    0    0  0.80736155799E-02 -0.42255787413E-02 -0.33985532718E-02  0.97391000391E-02  0.51100000000E-03 0. -1.
         11    1    4    4    0    0  0.47023939509E-01 -0.73330321698E-01 -0.81902351437E-01  0.11956940771E+00  0.51100000000E-03 0.  1.
</event>
<event>
 8    1  0.1116841E+005  0.1043930E+01  0.7957747E-01            NaN
         13   -1    0    0    0    0  0.00000000000E+00  0.00000000000E+00  0.74505805969E-08  0.10566000000E+00  0.10566000000E+00 0. -1.
     999900   -1    0    0    0    0 -0.00000000000E+00 -0.00000000000E+00 -0.74505805969E-08  0.93827000000E+00  0.93827000000E+00 0. -1.
     999902    2    1    2    0    0  0.10823223010E-01  0.99877940651E-02 -0.16761943270E-01  0.10216172026E+01  0.10213735104E+01 0.  0.
     999903    2    3    3    0    0  0.88743481126E-01 -0.93504550956E-01  0.12042756213E-01  0.13166667428E+00  0.23928615659E-01 0.  0.
         14    1    1    2    0    0 -0.10823223010E-01 -0.99877940651E-02  0.16761943270E-01  0.22312797422E-01  0.00000000000E+00 0. -1.
     999901    1    3    3    0    0 -0.77920258116E-01  0.10349234502E+00 -0.28804699483E-01  0.88995052830E+00  0.88000000000E+00 0.  1.
        -11    1    4    4    0    0  0.33164330797E-01 -0.44824682329E-01 -0.45299213930E-02  0.55945565436E-01  0.51100000000E-03 0. -1.
         11    1    4    4    0    0  0.55579150328E-01 -0.48679868627E-01  0.16572677606E-01  0.75721108845E-01  0.51100000000E-03 0.  1.
</event>
<event>
 8    1  0.1146844E+005  0.1043930E+01  0.7957747E-01            NaN
         13   -1    0    0    0    0  0.00000000000E+00  0.00000000000E+00  0.74505805969E-08  0.10566000000E+00  0.10566000000E+00 0. -1.
     999900   -1    0    0    0    0 -0.00000000000E+00 -0.00000000000E+00 -0.74505805969E-08  0.93827000000E+00  0.93827000000E+00 0. -1.
     999902    2    1    2    0    0 -0.13841008503E-01  0.96878576131E-02  0.16639514274E-01  0.10202171019E+01  0.10199414853E+01 0.  0.
     999903    2    3    3    0    0 -0.60069812248E-01 -0.62981712871E-02 -0.11277882713E+00  0.12940749119E+00  0.19472689144E-01 0.  0.
         14    1    1    2    0    0  0.13841008503E-01 -0.96878576131E-02 -0.16639514274E-01  0.23712898110E-01  0.00000000000E+00 0.  1.
     999901    1    3    3    0    0  0.46228803745E-01  0.15986028900E-01  0.12941834141E+00  0.89080961070E+00  0.88000000000E+00 0.  1.
        -11    1    4    4    0    0 -0.30683593638E-01 -0.11892147822E-01 -0.49933124614E-01  0.59803713539E-01  0.51100000000E-03 0.  1.
         11    1    4    4    0    0 -0.29386218610E-01  0.55939765350E-02 -0.62845702519E-01  0.69603777655E-01  0.51100000000E-03 0. -1.
</event>
<event>
 8    1  0.1116841E+005  0.1043930E+01  0.7957747E-01            NaN
         13   -1    0    0    0    0  0.00000000000E+00  0.00000000000E+00  0.74505805969E-08  0.10566000000E+00  0.10566000000E+00 0.  1.
     999900   -1    0    0    0    0 -0.00000000000E+00 -0.00000000000E+00 -0.74505805969E-08  0.93827000000E+00  0.93827000000E+00 0. -1.
     999902    2    1    2    0    0  0.51902687072E-02 -0.22014408256E-02  0.22118662121E-01  0.10211041277E+01  0.10208489698E+01 0.  0.
     999903    2    3    3    0    0 -0.86147500139E-01 -0.78722509640E-01 -0.52737991842E-01  0.12992424654E+00  0.21917772499E-01 0.  0.
         14    1    1    2    0    0 -0.51902687072E-02  0.22014408256E-02 -0.22118662121E-01  0.22825872272E-01  0.00000000000E+00 0. -1.
     999901    1    3    3    0    0  0.91337768847E-01  0.76521068814E-01  0.74856653963E-01  0.89117988119E+00  0.88000000000E+00 0.  1.
        -11    1    4    4    0    0 -0.64186475775E-01 -0.70307929542E-01 -0.43082697548E-01  0.10449635677E+00  0.51100000000E-03 0.  1.
         11    1    4    4    0    0 -0.21961024364E-01 -0.84145800981E-02 -0.96552942939E-02  0.25427889772E-01  0.51100000000E-03 0. -1.
</event>
<event>
 8    1  0.1116841E+005  0.1043930E+01  0.7957747E-01            NaN
         13   -1    0    0    0    0  0.00000000000E+00  0.00000000000E+00  0.74505805969E-08  0.10566000000E+00  0.10566000000E+00 0.  1.
     999900   -1    0    0    0    0 -0.00000000000E+00 -0.00000000000E+00 -0.74505805969E-08  0.93827000000E+00  0.93827000000E+00 0.  1.
     999902    2    1    2    0    0 -0.13536442573E-01  0.11223177124E-01 -0.15794150322E-01  0.10202942185E+01  0.10200204126E+01 0.  0.
     999903    2    3    3    0    0  0.83158801676E-01 -0.80079423861E-01  0.52826823390E-01  0.12766049002E+00  0.13357657730E-01 0.  0.
         14    1    1    2    0    0  0.13536442573E-01 -0.11223177124E-01  0.15794150322E-01  0.23635781491E-01  0.00000000000E+00 0.  1.
     999901    1    3    3    0    0 -0.96695244249E-01  0.91302600985E-01 -0.68620973712E-01  0.89263372849E+00  0.88000000000E+00 0.  1.
        -11    1    4    4    0    0  0.55969121437E-01 -0.44917473022E-01  0.32482566686E-01  0.78774997281E-01  0.51100000000E-03 0. -1.
         11    1    4    4    0    0  0.27189680239E-01 -0.35161950839E-01  0.20344256704E-01  0.48885492737E-01  0.51100000000E-03 0.  1.
</event>
<event>
 8    1  0.1116841E+005  0.1043930E+01  0.7957747E-01            NaN
         13   -1    0    0    0    0  0.00000000000E+00  0.00000000000E+00  0.74505805969E-08  0.10566000000E+00  0.10566000000E+00 0. -1.
     999900   -1    0    0    0    0 -0.00000000000E+00 -0.00000000000E+00 -0.74505805969E-08  0.93827000000E+00  0.93827000000E+00 0. -1.
     999902    2    1    2    0    0  0.19721834920E-01 -0.10332116972E-01  0.46162013288E-02  0.10211920861E+01  0.10209389130E+01 0.  0.
     999903    2    3    3    0    0 -0.96162055550E-01 -0.35195037429E-01 -0.76770249886E-01  0.12952454978E+00  0.19927522215E-01 0.  0.
         14    1    1    2    0    0 -0.19721834920E-01  0.10332116972E-01 -0.46162013288E-02  0.22737913899E-01  0.00000000000E+00 0.  1.
     999901    1    3    3    0    0  0.11588389047E+00  0.24862920456E-01  0.81386451214E-01  0.89166753632E+00  0.88000000000E+00 0.  1.
        -11    1    4    4    0    0 -0.23307375659E-01 -0.13684334851E-01 -0.11527715905E-01  0.29387822910E-01  0.51100000000E-03 0. -1.
         11    1    4    4    0    0 -0.72854679891E-01 -0.21510702578E-01 -0.65242533981E-01  0.10013672687E+00  0.51100000000E-03 0.  1.
</event>
<event>
 8    1  0.1116841E+005  0.1043930E+01  0.7957747E-01            NaN
         13   -1    0    0    0    0  0.00000000000E+00  0.00000000000E+00  0.74505805969E-08  0.10566000000E+00  0.10566000000E+00 0.  1.
     999900   -1    0    0    0    0 -0.00000000000E+00 -0.00000000000E+00 -0.74505805969E-08  0.93827000000E+00  0.93827000000E+00 0.  1.
     999902    2    1    2    0    0  0.11516571444E-01 -0.30363769157E-02 -0.20414279415E-01  0.10202954108E+01  0.10200216329E+01 0.  0.
     999903    2    3    3    0    0 -0.10280805811E+00  0.48816510432E-01  0.55298250022E-01  0.12816804884E+00  0.20410874158E-01 0.  0.
         14    1    1    2    0    0 -0.11516571444E-01  0.30363769157E-02  0.20414279415E-01  0.23634589200E-01  0.00000000000E+00 0.  1.
     999901    1    3    3    0    0  0.11432462956E+00 -0.51852887348E-01 -0.75712529437E-01  0.89212736196E+00  0.88000000000E+00 0.  1.
        -11    1    4    4    0    0 -0.13877499859E-01 -0.55800754466E-03  0.71396756163E-02  0.15624738835E-01  0.51100000000E-03 0.  1.
         11    1    4    4    0    0 -0.88930558252E-01  0.49374517977E-01  0.48158574405E-01  0.11254331000E+00  0.51100000000E-03 0. -1.
</event>
<event>
 8    1  0.1116841E+005  0.1043930E+01  0.7957747E-01            NaN
         13   -1    0    0    0    0  0.00000000000E+00  0.00000000000E+00  0.74505805969E-08  0.10566000000E+00  0.10566000000E+00 0. -1.
     999900   -1    0    0    0    0 -0.00000000000E+00 -0.00000000000E+00 -0.74505805969E-08  0.93827000000E+00  0.93827000000E+00 0.  1.
     999902    2    1    2    0    0 -0.19886202007E-01  0.45777142407E-02 -0.10793012092E-01  0.10208452516E+01  0.10205842063E+01 0.  0.
     999903    2    3    3    0    0  0.52154257344E-01 -0.71332403785E-01  0.91777996123E-01  0.12872811495E+00  0.18421417375E-01 0.  0.
         14    1    1    2    0    0  0.19886202007E-01 -0.45777142407E-02  0.10793012092E-01  0.23084748384E-01  0.00000000000E+00 0. -1.
     999901    1    3    3    0    0 -0.72040459351E-01  0.75910118026E-01 -0.10257100822E+00  0.89211713666E+00  0.88000000000E+00 0.  1.
        -11    1    4    4    0    0  0.32718258406E-01 -0.42084497258E-01  0.42299958269E-01  0.68052457216E-01  0.51100000000E-03 0. -1.
         11    1    4    4    0    0  0.19435998938E-01 -0.29247906528E-01  0.49478037854E-01  0.60675657737E-01  0.51100000000E-03 0.  1.
</event>
<event>
 8    1  0.1116841E+005  0.1043930E+01  0.7957747E-01            NaN
         13   -1    0    0    0    0  0.00000000000E+00  0.00000000000E+00  0.74505805969E-08  0.10566000000E+00  0.10566000000E+00 0.  1.
     999900   -1    0    0    0    0 -0.00000000000E+00 -0.00000000000E+00 -0.74505805969E-08  0.93827000000E+00  0.93827000000E+00 0.  1.
     999902    2    1    2    0    0 -0.11981721809E-01 -0.18565769019E-01 -0.73666276254E-02  0.10206380134E+01  0.10203722055E+01 0.  0.
     999903    2    3    3    0    0  0.97826481579E-01 -0.78815394151E-01 -0.37453014646E-01  0.13126011311E+00  0.66784828920E-02 0.  0.
         14    1    1    2    0    0  0.11981721809E-01  0.18565769019E-01  0.73666276254E-02  0.23291986590E-01  0.00000000000E+00 0.  1.
     999901    1    3    3    0    0 -0.10980820339E+00  0.60249625132E-01  0.30086387021E-01  0.88937790030E+00  0.88000000000E+00 0. -1.
        -11    1    4    4    0    0  0.55224125007E-01 -0.41603822290E-01 -0.18101936148E-01  0.71473933887E-01  0.51100000000E-03 0.  1.
         11    1    4    4    0    0  0.42602356573E-01 -0.37211571861E-01 -0.19351078498E-01  0.59786179222E-01  0.51100000000E-03 0. -1.
</event>
<event>
 8    1  0.1116841E+005  0.1043930E+01  0.7957747E-01            NaN
         13   -1    0    0    0    0  0.00000000000E+00  0.00000000000E+00  0.74505805969E-08  0.10566000000E+00  0.10566000000E+00 0.  1.
     999900   -1    0    0    0    0 -0.00000000000E+00 -0.00000000000E+00 -0.74505805969E-08  0.93827000000E+00  0.93827000000E+00 0.  1.
     999902    2    1    2    0    0 -0.20481421843E-01 -0.96088708460E-02 -0.48752632537E-02  0.10207872424E+01  0.10205248684E+01 0.  0.
     999903    2    3    3    0    0 -0.79239503652E-01  0.33398023764E-01 -0.98970634112E-01  0.13278046086E+00  0.21003272112E-01 0.  0.
         14    1    1    2    0    0  0.20481421843E-01  0.96088708460E-02  0.48752632537E-02  0.23142757645E-01  0.00000000000E+00 0.  1.
     999901    1    3    3    0    0  0.58758081809E-01 -0.43006894610E-01  0.94095370859E-01  0.88800678149E+00  0.88000000000E+00 0. -1.
        -11    1    4    4    0    0 -0.50133167841E-01  0.24396988809E-01 -0.48874458582E-01  0.74145272293E-01  0.51100000000E-03 0. -1.
         11    1    4    4    0    0 -0.29106335812E-01  0.90010349546E-02 -0.50096175530E-01  0.58635188568E-01  0.51100000000E-03 0.  1.
</event>
<event>
 8    1  0.1116841E+005  0.1043930E+01  0.7957747E-01            NaN
         13   -1    0    0    0    0  0.00000000000E+00  0.00000000000E+00  0.74505805969E-08  0.10566000000E+00  0.10566000000E+00 0. -1.
     999900   -1    0    0    0    0 -0.00000000000E+00 -0.00000000000E+00 -0.74505805969E-08  0.93827000000E+00  0.93827000000E+00 0.  1.
     999902    2    1    2    0    0 -0.23356373862E-01 -0.75532500956E-02 -0.17758774447E-02  0.10193185082E+01  0.10190213421E+01 0.  0.
     999903    2    3    3    0    0 -0.12633275539E-01 -0.60769532271E-01 -0.11324007719E+00  0.13062777160E+00  0.19691722342E-01 0.  0.
         14    1    1    2    0    0  0.23356373862E-01  0.75532500956E-02  0.17758774447E-02  0.24611491781E-01  0.00000000000E+00 0. -1.
     999901    1    3    3    0    0 -0.10723098324E-01  0.53216282175E-01  0.11146419974E+00  0.88869073662E+00  0.88000000000E+00 0. -1.
        -11    1    4    4    0    0 -0.16848907766E-01 -0.39956857228E-01 -0.68041582010E-01  0.80686765556E-01  0.51100000000E-03 0. -1.
         11    1    4    4    0    0  0.42156322273E-02 -0.20812675043E-01 -0.45198495177E-01  0.49941006045E-01  0.51100000000E-03 0.  1.
</event>
<event>
 8    1  0.1116841E+005  0.1043930E+01  0.7957747E-01            NaN
         13   -1    0    0    0    0  0.00000000000E+00  0.00000000000E+00  0.74505805969E-08  0.10566000000E+00  0.10566000000E+00 0. -1.
     999900   -1    0    0    0    0 -0.00000000000E+00 -0.00000000000E+00 -0.74505805969E-08  0.93827000000E+00  0.93827000000E+00 0. -1.
     999902    2    1    2    0    0 -0.57793612953E-02 -0.16469012984E-01 -0.16109322499E-01  0.10201783753E+01  0.10199018471E+01 0.  0.
     999903    2    3    3    0    0  0.81998586733E-02 -0.60251641921E-01 -0.11685151986E+00  0.13323907210E+00  0.20021853185E-01 0.  0.
         14    1    1    2    0    0  0.57793612953E-02  0.16469012984E-01  0.16109322499E-01  0.23751624724E-01  0.00000000000E+00 0. -1.
     999901    1    3    3    0    0 -0.13979219969E-01  0.43782628937E-01  0.10074219736E+00  0.88693930317E+00  0.88000000000E+00 0.  1.
        -11    1    4    4    0    0 -0.81797213167E-03 -0.49545016262E-01 -0.84031026984E-01  0.97554355781E-01  0.51100000000E-03 0. -1.
         11    1    4    4    0    0  0.90178308050E-02 -0.10706625659E-01 -0.32820492873E-01  0.35684716320E-01  0.51100000000E-03 0.  1.
</event>
<event>
 8    1  0.1116841E+005  0.1043930E+01  0.7957747E-01            NaN
         13   -1    0    0    0    0  0.00000000000E+00  0.00000000000E+00  0.74505805969E-08  0.10566000000E+00  0.10566000000E+00 0. -1.
     999900   -1    0    0    0    0 -0.00000000000E+00 -0.00000000000E+00 -0.74505805969E-08  0.93827000000E+00  0.93827000000E+00 0.  1.
     999902    2    1    2    0    0  0.17591192485E-01 -0.13258257808E-01 -0.10789489983E-01  0.10194015564E+01  0.10191064167E+01 0.  0.
     999903    2    3    3    0    0 -0.35522758928E-01  0.22231889786E-01  0.11896403349E+00  0.12759629776E+00  0.19293797301E-01 0.  0.
         14    1    1    2    0    0 -0.17591192485E-01  0.13258257808E-01  0.10789489983E-01  0.24528443637E-01  0.00000000000E+00 0.  1.
     999901    1    3    3    0    0  0.53113951413E-01 -0.35490147594E-01 -0.12975352347E+00  0.89180525860E+00  0.88000000000E+00 0.  1.
        -11    1    4    4    0    0 -0.25495248478E-01  0.60481443499E-02  0.56281412933E-01  0.62084187260E-01  0.51100000000E-03 0.  1.
         11    1    4    4    0    0 -0.10027510450E-01  0.16183745436E-01  0.62682620555E-01  0.65512110504E-01  0.51100000000E-03 0. -1.
</event>
<event>
 7    1  0.1116841E+005  0.1043930E+01  0.7957747E-01            NaN
         13   -1    0    0    0    0  0.00000000000E+00  0.00000000000E+00  0.74505805969E-08  0.10566000000E+00  0.10566000000E+00 0.  1.
     999900   -1    0    0    0    0 -0.00000000000E+00 -0.00000000000E+00 -0.74505805969E-08  0.93827000000E+00  0.93827000000E+00 0.  1.
     999902    2    1    2    0    0 -0.60821314296E-02  0.27760497770E-02 -0.24274615605E-01  0.10187515223E+01  0.10184403313E+01 0.  0.
         14    1    1    2    0    0  0.60821314296E-02 -0.27760497770E-02  0.24274615605E-01  0.25178477672E-01  0.00000000000E+00 0.  1.
     999901    1    3    3    0    0  0.61580085914E-02  0.24305892481E-01  0.10544384913E+00  0.88664936858E+00  0.88000000000E+00 0. -1.
        -11    1    3    3    0    0 -0.87788781763E-02 -0.13814906437E-01 -0.91765059161E-01  0.93214846166E-01  0.51100000000E-03 0.  1.
         11    1    3    3    0    0 -0.34612618447E-02 -0.77149362677E-02 -0.37953405579E-01  0.38887307585E-01  0.51100000000E-03 0. -1.
</event>
<event>
 8    1  0.1116841E+005  0.1043930E+01  0.7957747E-01            NaN
         13   -1    0    0    0    0  0.00000000000E+00  0.00000000000E+00  0.74505805969E-08  0.10566000000E+00  0.10566000000E+00 0. -1.
     999900   -1    0    0    0    0 -0.00000000000E+00 -0.00000000000E+00 -0.74505805969E-08  0.93827000000E+00  0.93827000000E+00 0.  1.
     999902    2    1    2    0    0 -0.23535941088E-02  0.18383765665E-01 -0.14634785712E-01  0.10203147677E+01  0.10200414432E+01 0.  0.
     999903    2    3    3    0    0 -0.47295770370E-01 -0.10209156692E+00 -0.61559766284E-01  0.12973290238E+00  0.19530571024E-01 0.  0.
         14    1    1    2    0    0  0.23535941088E-02 -0.18383765665E-01  0.14634785712E-01  0.23615232332E-01  0.00000000000E+00 0. -1.
     999901    1    3    3    0    0  0.44942176261E-01  0.12047533259E+00  0.46924980571E-01  0.89058186528E+00  0.88000000000E+00 0.  1.
        -11    1    4    4    0    0 -0.20610057081E-02 -0.22580207319E-01 -0.10907694908E-01  0.25166494319E-01  0.51100000000E-03 0. -1.
         11    1    4    4    0    0 -0.45234764662E-01 -0.79511359604E-01 -0.50652071376E-01  0.10456640807E+00  0.51100000000E-03 0.  1.
</event>
<event>
 8    1  0.1116841E+005  0.1043930E+01  0.7957747E-01            NaN
         13   -1    0    0    0    0  0.00000000000E+00  0.00000000000E+00  0.74505805969E-08  0.10566000000E+00  0.10566000000E+00 0.  1.
     999900   -1    0    0    0    0 -0.00000000000E+00 -0.00000000000E+00 -0.74505805969E-08  0.93827000000E+00  0.93827000000E+00 0.  1.
     999902    2    1    2    0    0 -0.16810047425E-01 -0.14248719965E-01 -0.74969151209E-02  0.10206532422E+01  0.10203877858E+01 0.  0.
     999903    2    3    3    0    0  0.10013558007E+00 -0.43741909650E-01  0.65382734747E-01  0.12944194778E+00  0.23234172789E-01 0.  0.
         14    1    1    2    0    0  0.16810047425E-01  0.14248719965E-01  0.74969151209E-02  0.23276757751E-01  0.00000000000E+00 0.  1.
     999901    1    3    3    0    0 -0.11694562750E+00  0.29493189685E-01 -0.72879649868E-01  0.89121129447E+00  0.88000000000E+00 0.  1.
        -11    1    4    4    0    0  0.75214695875E-01 -0.32535358287E-01  0.36605578760E-01  0.89755387202E-01  0.51100000000E-03 0.  1.
         11    1    4    4    0    0  0.24920884197E-01 -0.11206551363E-01  0.28777155987E-01  0.39686560575E-01  0.51100000000E-03 0. -1.
</event>
<event>
 8    1  0.1116841E+005  0.1043930E+01  0.7957747E-01            NaN
         13   -1    0    0    0    0  0.00000000000E+00  0.00000000000E+00  0.74505805969E-08  0.10566000000E+00  0.10566000000E+00 0. -1.
     999900   -1    0    0    0    0 -0.00000000000E+00 -0.00000000000E+00 -0.74505805969E-08  0.93827000000E+00  0.93827000000E+00 0.  1.
     999902    2    1    2    0    0  0.14453733013E-01  0.67164601713E-02  0.16612204482E-01  0.10209085628E+01  0.10206489636E+01 0.  0.
     999903    2    3    3    0    0 -0.22540417287E-01 -0.67759839541E-01  0.10942081212E+00  0.13212921779E+00  0.19640514303E-01 0.  0.
         14    1    1    2    0    0 -0.14453733013E-01 -0.67164601713E-02 -0.16612204482E-01  0.23021437249E-01  0.00000000000E+00 0.  1.
     999901    1    3    3    0    0  0.36994150300E-01  0.74476299713E-01 -0.92808607642E-01  0.88877934496E+00  0.88000000000E+00 0.  1.
        -11    1    4    4    0    0  0.80174186821E-03 -0.23147013219E-01  0.27348682858E-01  0.35841855226E-01  0.51100000000E-03 0.  1.
         11    1    4    4    0    0 -0.23342159155E-01 -0.44612826323E-01  0.82072129266E-01  0.96287362565E-01  0.51100000000E-03 0. -1.
</event>
<event>
 8    1  0.1116841E+005  0.1043930E+01  0.7957747E-01            NaN
         13   -1    0    0    0    0  0.00000000000E+00  0.00000000000E+00  0.74505805969E-08  0.10566000000E+00  0.10566000000E+00 0. -1.
     999900   -1    0    0    0    0 -0.00000000000E+00 -0.00000000000E+00 -0.74505805969E-08  0.93827000000E+00  0.93827000000E+00 0. -1.
     999902    2    1    2    0    0  0.77490331024E-03 -0.23033137786E-01  0.59086400535E-03  0.10208762578E+01  0.10206159212E+01 0.  0.
     999903    2    3    3    0    0  0.52681202632E-01  0.11305227690E+00 -0.23663828137E-01  0.12857485459E+00  0.20381119874E-01 0.  0.
         14    1    1    2    0    0 -0.77490331024E-03  0.23033137786E-01 -0.59086400535E-03  0.23053742249E-01  0.00000000000E+00 0.  1.
     999901    1    3    3    0    0 -0.51906299322E-01 -0.13608541468E+00  0.24254692143E-01  0.89230140316E+00  0.88000000000E+00 0. -1.
        -11    1    4    4    0    0  0.88923493669E-03  0.88937039215E-02 -0.63307214791E-02  0.10964846723E-01  0.51100000000E-03 0. -1.
         11    1    4    4    0    0  0.51791967695E-01  0.10415857298E+00 -0.17333106658E-01  0.11761000786E+00  0.51100000000E-03 0.  1.
</event>
<event>
 8    1  0.1116841E+005  0.1043930E+01  0.7957747E-01            NaN
         13   -1    0    0    0    0  0.00000000000E+00  0.00000000000E+00  0.74505805969E-08  0.10566000000E+00  0.10566000000E+00 0.  1.
     999900   -1    0    0    0    0 -0.00000000000E+00 -0.00000000000E+00 -0.74505805969E-08  0.93827000000E+00  0.93827000000E+00 0. -1.
     999902    2    1    2    0    0 -0.13191196498E-01 -0.74911112627E-02 -0.18568354407E-01  0.10199527567E+01  0.10196708869E+01 0.  0.
     999903    2    3    3    0    0  0.96483531250E-01  0.16459098647E-01  0.79233876190E-01  0.12744649070E+00  0.19611912828E-01 0.  0.
         14    1    1    2    0    0  0.13191196498E-01  0.74911112627E-02  0.18568354407E-01  0.23977243344E-01  0.00000000000E+00 0.  1.
     999901    1    3    3    0    0 -0.10967472775E+00 -0.23950209910E-01 -0.97802230597E-01  0.89250626596E+00  0.88000000000E+00 0. -1.
        -11    1    4    4    0    0  0.36780520333E-01 -0.65812423759E-03  0.38020984930E-01  0.52906485609E-01  0.51100000000E-03 0. -1.
         11    1    4    4    0    0  0.59703010917E-01  0.17117222885E-01  0.41212891260E-01  0.74540005091E-01  0.51100000000E-03 0.  1.
</event>
<event>
 8    1  0.1116841E+005  0.1043930E+01  0.7957747E-01            NaN
         13   -1    0    0    0    0  0.00000000000E+00  0.00000000000E+00  0.74505805969E-08  0.10566000000E+00  0.10566000000E+00 0.  1.
     999900   -1    0    0    0    0 -0.00000000000E+00 -0.00000000000E+00 -0.74505805969E-08  0.93827000000E+00  0.93827000000E+00 0. -1.
     999902    2    1    2    0    0 -0.20971855436E-01 -0.49165721977E-02  0.77618437696E-02  0.10210337640E+01  0.10207770127E+01 0.  0.
     999903    2    3    3    0    0  0.11956857722E+00  0.53671958060E-02  0.44276092098E-01  0.12907487517E+00  0.19351992631E-01 0.  0.
         14    1    1    2    0    0  0.20971855436E-01  0.49165721977E-02 -0.77618437696E-02  0.22896235964E-01  0.00000000000E+00 0. -1.
     999901    1    3    3    0    0 -0.14054043266E+00 -0.10283768004E-01 -0.36514248328E-01  0.89195888887E+00  0.88000000000E+00 0.  1.
        -11    1    4    4    0    0  0.88652282660E-01 -0.44950938506E-02  0.31368426225E-01  0.94147078416E-01  0.51100000000E-03 0.  1.
         11    1    4    4    0    0  0.30916294563E-01  0.98622896566E-02  0.12907665873E-01  0.34927796754E-01  0.51100000000E-03 0. -1.
</event>
<event>
 8    1  0.1116841E+005  0.1043930E+01  0.7957747E-01            NaN
         13   -1    0    0    0    0  0.00000000000E+00  0.00000000000E+00  0.74505805969E-08  0.10566000000E+00  0.10566000000E+00 0.  1.
     999900   -1    0    0    0    0 -0.00000000000E+00 -0.00000000000E+00 -0.74505805969E-08  0.93827000000E+00  0.93827000000E+00 0.  1.
     999902    2    1    2    0    0 -0.61724032166E-02 -0.22500256502E-01  0.54933103007E-02  0.10199605077E+01  0.10196788223E+01 0.  0.
     999903    2    3    3    0    0 -0.84126859967E-01  0.15673347642E-01 -0.95815748068E-01  0.12990565168E+00  0.19283110900E-01 0.  0.
         14    1    1    2    0    0  0.61724032166E-02  0.22500256502E-01 -0.54933103007E-02  0.23969492322E-01  0.00000000000E+00 0. -1.
     999901    1    3    3    0    0  0.77954456751E-01 -0.38173604144E-01  0.10130905837E+00  0.89005485600E+00  0.88000000000E+00 0.  1.
        -11    1    4    4    0    0 -0.69475270479E-01  0.61195372888E-02 -0.81711722790E-01  0.10743057622E+00  0.51100000000E-03 0.  1.
         11    1    4    4    0    0 -0.14651589488E-01  0.95538103537E-02 -0.14104025277E-01  0.22475075457E-01  0.51100000000E-03 0. -1.
</event>
<event>
 8    1  0.1116841E+005  0.1043930E+01  0.7957747E-01            NaN
         13   -1    0    0    0    0  0.00000000000E+00  0.00000000000E+00  0.74505805969E-08  0.10566000000E+00  0.10566000000E+00 0. -1.
     999900   -1    0    0    0    0 -0.00000000000E+00 -0.00000000000E+00 -0.74505805969E-08  0.93827000000E+00  0.93827000000E+00 0. -1.
     999902    2    1    2    0    0 -0.11078077705E-01 -0.19969912152E-01 -0.42838047455E-02  0.10206948503E+01  0.10204303530E+01 0.  0.
     999903    2    3    3    0    0  0.85592019572E-01 -0.72155660348E-02  0.94648174991E-01  0.12979905527E+00  0.22615470609E-01 0.  0.
         14    1    1    2    0    0  0.11078077705E-01  0.19969912152E-01  0.42838047455E-02  0.23235149668E-01  0.00000000000E+00 0. -1.
     999901    1    3    3    0    0 -0.96670097277E-01 -0.12754346118E-01 -0.98931979737E-01  0.89089579507E+00  0.88000000000E+00 0. -1.
        -11    1    4    4    0    0  0.62976860046E-01  0.47530415442E-02  0.64941119639E-01  0.90588555823E-01  0.51100000000E-03 0.  1.
         11    1    4    4    0    0  0.22615159526E-01 -0.11968607579E-01  0.29707055353E-01  0.39210499442E-01  0.51100000000E-03 0. -1.
</event>
<event>
 8    1  0.1116841E+005  0.1043930E+01  0.7957747E-01            NaN
         13   -1    0    0    0    0  0.00000000000E+00  0.00000000000E+00  0.74505805969E-08  0.10566000000E+00  0.10566000000E+00 0.  1.
     999900   -1    0    0    0    0 -0.00000000000E+00 -0.00000000000E+00 -0.74505805969E-08  0.93827000000E+00  0.93827000000E+00 0.  1.
     999902    2    1    2    0    0  0.48003023786E-02 -0.21721728592E-01 -0.74117070195E-02  0.10204819767E+01  0.10202125538E+01 0.  0.
     999903    2    3    3    0    0 -0.89977867521E-01  0.58861675715E-01  0.67706936635E-01  0.12856303578E+00  0.19583446806E-01 0.  0.
         14    1    1    2    0    0 -0.48003023786E-02  0.21721728592E-01  0.74117070195E-02  0.23448023305E-01  0.00000000000E+00 0.  1.
     999901    1    3    3    0    0  0.94778169900E-01 -0.80583404307E-01 -0.75118643654E-01  0.89191894092E+00  0.88000000000E+00 0.  1.
        -11    1    4    4    0    0 -0.37360705673E-01  0.13268995263E-01  0.25599890104E-01  0.47196441158E-01  0.51100000000E-03 0.  1.
         11    1    4    4    0    0 -0.52617161848E-01  0.45592680452E-01  0.42107046530E-01  0.81366594621E-01  0.51100000000E-03 0. -1.
</event>
<event>
 8    1  0.1116841E+005  0.1043930E+01  0.7957747E-01            NaN
         13   -1    0    0    0    0  0.00000000000E+00  0.00000000000E+00  0.74505805969E-08  0.10566000000E+00  0.10566000000E+00 0.  1.
     999900   -1    0    0    0    0 -0.00000000000E+00 -0.00000000000E+00 -0.74505805969E-08  0.93827000000E+00  0.93827000000E+00 0. -1.
     999902    2    1    2    0    0  0.14235910129E-01 -0.77703651749E-02  0.17259509122E-01  0.10202460314E+01  0.10199710948E+01 0.  0.
     999903    2    3    3    0    0 -0.11486925087E+00 -0.46687867648E-01 -0.18951697465E-01  0.12923875532E+00  0.31125347550E-01 0.  0.
         14    1    1    2    0    0 -0.14235910129E-01  0.77703651749E-02 -0.17259509122E-01  0.23683968572E-01  0.00000000000E+00 0. -1.
     999901    1    3    3    0    0  0.12910516100E+00  0.38917502473E-01  0.36211206587E-01  0.89100727611E+00  0.88000000000E+00 0.  1.
        -11    1    4    4    0    0 -0.14464093656E-01  0.32932306958E-02  0.24856791365E-02  0.15049754001E-01  0.51100000000E-03 0. -1.
         11    1    4    4    0    0 -0.10040515721E+00 -0.49981098344E-01 -0.21437376601E-01  0.11418900132E+00  0.51100000000E-03 0.  1.
</event>
<event>
 8    1  0.1116841E+005  0.1043930E+01  0.7957747E-01            NaN
         13   -1    0    0    0    0  0.00000000000E+00  0.00000000000E+00  0.74505805969E-08  0.10566000000E+00  0.10566000000E+00 0. -1.
     999900   -1    0    0    0    0 -0.00000000000E+00 -0.00000000000E+00 -0.74505805969E-08  0.93827000000E+00  0.93827000000E+00 0.  1.
     999902    2    1    2    0    0  0.19723038661E-01  0.12136401161E-01 -0.40611079100E-02  0.10204186605E+01  0.10201477636E+01 0.  0.
     999903    2    3    3    0    0  0.11912435261E+00  0.56097179818E-01  0.13737881193E-01  0.13355340846E+00  0.17614725778E-01 0.  0.
         14    1    1    2    0    0 -0.19723038661E-01 -0.12136401161E-01  0.40611079100E-02  0.23511339490E-01  0.00000000000E+00 0. -1.
     999901    1    3    3    0    0 -0.99401313948E-01 -0.43960778657E-01 -0.17798989103E-01  0.88686525205E+00  0.88000000000E+00 0. -1.
        -11    1    4    4    0    0  0.50171071589E-01  0.21447091761E-01  0.14191230861E-01  0.56380549161E-01  0.51100000000E-03 0. -1.
         11    1    4    4    0    0  0.68953281021E-01  0.34650088057E-01 -0.45334966833E-03  0.77172859302E-01  0.51100000000E-03 0.  1.
</event>
<event>
 8    1  0.1116841E+005  0.1043930E+01  0.7957747E-01            NaN
         13   -1    0    0    0    0  0.00000000000E+00  0.00000000000E+00  0.74505805969E-08  0.10566000000E+00  0.10566000000E+00 0.  1.
     999900   -1    0    0    0    0 -0.00000000000E+00 -0.00000000000E+00 -0.74505805969E-08  0.93827000000E+00  0.93827000000E+00 0. -1.
     999902    2    1    2    0    0  0.72934338555E-02  0.22289666260E-01  0.47387501476E-02  0.10200034634E+01  0.10197227987E+01 0.  0.
     999903    2    3    3    0    0  0.28560899256E-01  0.15416824091E-01  0.12564062502E+00  0.13145588204E+00  0.21016156540E-01 0.  0.
         14    1    1    2    0    0 -0.72934338555E-02 -0.22289666260E-01 -0.47387501476E-02  0.23926536573E-01  0.00000000000E+00 0. -1.
     999901    1    3    3    0    0 -0.21267465400E-01  0.68728421691E-02 -0.12090187487E+00  0.88854758139E+00  0.88000000000E+00 0. -1.
        -11    1    4    4    0    0  0.32149856146E-02  0.53735217353E-03  0.52865253045E-01  0.52968112864E-01  0.51100000000E-03 0. -1.
         11    1    4    4    0    0  0.25345913641E-01  0.14879471918E-01  0.72775371975E-01  0.78487769174E-01  0.51100000000E-03 0.  1.
</event>
<event>
 8    1  0.1116841E+005  0.1043930E+01  0.7957747E-01            NaN
         13   -1    0    0    0    0  0.00000000000E+00  0.00000000000E+00  0.74505805969E-08  0.10566000000E+00  0.10566000000E+00 0.  1.
     999900   -1    0    0    0    0 -0.00000000000E+00 -0.00000000000E+00 -0.74505805969E-08  0.93827000000E+00  0.93827000000E+00 0. -1.
     999902    2    1    2    0    0 -0.22701005451E-01  0.91807757117E-03  0.62502112746E-02  0.10203663913E+01  0.10200942745E+01 0.  0.
     999903    2    3    3    0    0 -0.46146121683E-01  0.12176513840E+00 -0.30170000125E-02  0.13174973220E+00  0.19816058394E-01 0.  0.
         14    1    1    2    0    0  0.22701005451E-01 -0.91807757117E-03 -0.62502112746E-02  0.23563608719E-01  0.00000000000E+00 0. -1.
     999901    1    3    3    0    0  0.23445116232E-01 -0.12084706083E+00  0.92672112870E-02  0.88861665908E+00  0.88000000000E+00 0. -1.
        -11    1    4    4    0    0 -0.46595452176E-01  0.10441729039E+00 -0.31897613797E-02  0.11438768463E+00  0.51100000000E-03 0. -1.
         11    1    4    4    0    0  0.44933049292E-03  0.17347848013E-01  0.17276136720E-03  0.17362047577E-01  0.51100000000E-03 0.  1.
</event>
<event>
 8    1  0.1116841E+005  0.1043930E+01  0.7957747E-01            NaN
         13   -1    0    0    0    0  0.00000000000E+00  0.00000000000E+00  0.74505805969E-08  0.10566000000E+00  0.10566000000E+00 0.  1.
     999900   -1    0    0    0    0 -0.00000000000E+00 -0.00000000000E+00 -0.74505805969E-08  0.93827000000E+00  0.93827000000E+00 0. -1.
     999902    2    1    2    0    0  0.38696443778E-02 -0.12706397223E-01  0.17606785008E-01  0.10218749426E+01  0.10216369085E+01 0.  0.
     999903    2    3    3    0    0  0.11152571865E+00  0.44090698267E-01  0.53469912565E-01  0.13277320248E+00  0.19690509213E-01 0.  0.
         14    1    1    2    0    0 -0.38696443778E-02  0.12706397223E-01 -0.17606785008E-01  0.22055057386E-01  0.00000000000E+00 0. -1.
     999901    1    3    3    0    0 -0.10765607428E+00 -0.56797095490E-01 -0.35863127558E-01  0.88910174013E+00  0.88000000000E+00 0. -1.
        -11    1    4    4    0    0  0.16604264563E-01  0.61448682393E-02  0.16083197360E-01  0.23924701997E-01  0.51100000000E-03 0.  1.
         11    1    4    4    0    0  0.94921454091E-01  0.37945830028E-01  0.37386715206E-01  0.10884850049E+00  0.51100000000E-03 0. -1.
</event>
<event>
 8    1  0.1116841E+005  0.1043930E+01  0.7957747E-01            NaN
         13   -1    0    0    0    0  0.00000000000E+00  0.00000000000E+00  0.74505805969E-08  0.10566000000E+00  0.10566000000E+00 0.  1.
     999900   -1    0    0    0    0 -0.00000000000E+00 -0.00000000000E+00 -0.74505805969E-08  0.93827000000E+00  0.93827000000E+00 0. -1.
     999902    2    1    2    0    0 -0.62489483898E-03  0.14190033341E-02  0.23600470741E-01  0.10202786516E+01  0.10200044806E+01 0.  0.
     999903    2    3    3    0    0  0.97232686311E-01 -0.56671954604E-01  0.65842990688E-01  0.13194588954E+00  0.20211695071E-01 0.  0.
         14    1    1    2    0    0  0.62489483898E-03 -0.14190033341E-02 -0.23600470741E-01  0.23651348444E-01  0.00000000000E+00 0. -1.
     999901    1    3    3    0    0 -0.97857581150E-01  0.58090957938E-01 -0.42242519948E-01  0.88833276202E+00  0.88000000000E+00 0.  1.
        -11    1    4    4    0    0  0.71952301603E-01 -0.33294380803E-01  0.52090958828E-01  0.94865054744E-01  0.51100000000E-03 0. -1.
         11    1    4    4    0    0  0.25280384707E-01 -0.23377573801E-01  0.13752031861E-01  0.37080834794E-01  0.51100000000E-03 0.  1.
</event>
<event>
 8    1  0.1116841E+005  0.1043930E+01  0.7957747E-01            NaN
         13   -1    0    0    0    0  0.00000000000E+00  0.00000000000E+00  0.74505805969E-08  0.10566000000E+00  0.10566000000E+00 0.  1.
     999900   -1    0    0    0    0 -0.00000000000E+00 -0.00000000000E+00 -0.74505805969E-08  0.93827000000E+00  0.93827000000E+00 0.  1.
     999902    2    1    2    0    0  0.22262327837E-01  0.57435274541E-02  0.11573605479E-02  0.10209095997E+01  0.10206500242E+01 0.  0.
     999903    2    3    3    0    0  0.63253404049E-01  0.11159762855E+00  0.25128249052E-01  0.13329483945E+00  0.26097155043E-01 0.  0.
         14    1    1    2    0    0 -0.22262327837E-01 -0.57435274541E-02 -0.11573605479E-02  0.23020400339E-01  0.00000000000E+00 0.  1.
     999901    1    3    3    0    0 -0.40991076212E-01 -0.10585410110E+00 -0.23970888504E-01  0.88761476021E+00  0.88000000000E+00 0.  1.
        -11    1    4    4    0    0  0.82001528262E-02  0.36792937883E-01  0.11535981331E-01  0.39424646742E-01  0.51100000000E-03 0.  1.
         11    1    4    4    0    0  0.55053251223E-01  0.74804690669E-01  0.13592267721E-01  0.93870192708E-01  0.51100000000E-03 0. -1.
</event>
<event>
 8    1  0.1116841E+005  0.1043930E+01  0.7957747E-01            NaN
         13   -1    0    0    0    0  0.00000000000E+00  0.00000000000E+00  0.74505805969E-08  0.10566000000E+00  0.10566000000E+00 0. -1.
     999900   -1    0    0    0    0 -0.00000000000E+00 -0.00000000000E+00 -0.74505805969E-08  0.93827000000E+00  0.93827000000E+00 0. -1.
     999902    2    1    2    0    0  0.79464149658E-02 -0.26368030337E-02  0.17181753482E-01  0.10248168921E+01  0.10246386443E+01 0.  0.
     999903    2    3    3    0    0 -0.27938223590E-01  0.23188912242E-01  0.13021584072E+00  0.13648622183E+00  0.18816311716E-01 0.  0.
         14    1    1    2    0    0 -0.79464149658E-02  0.26368030337E-02 -0.17181753482E-01  0.19113107905E-01  0.00000000000E+00 0.  1.
     999901    1    3    3    0    0  0.35884638556E-01 -0.25825715276E-01 -0.11303408724E+00  0.88833067026E+00  0.88000000000E+00 0. -1.
        -11    1    4    4    0    0 -0.19370528981E-01  0.24232338095E-01  0.85825998134E-01  0.91262186470E-01  0.51100000000E-03 0.  1.
         11    1    4    4    0    0 -0.85676946092E-02 -0.10434258524E-02  0.44389842588E-01  0.45224035362E-01  0.51100000000E-03 0. -1.
</event>
<event>
 8    1  0.1116841E+005  0.1043930E+01  0.7957747E-01            NaN
         13   -1    0    0    0    0  0.00000000000E+00  0.00000000000E+00  0.74505805969E-08  0.10566000000E+00  0.10566000000E+00 0.  1.
     999900   -1    0    0    0    0 -0.00000000000E+00 -0.00000000000E+00 -0.74505805969E-08  0.93827000000E+00  0.93827000000E+00 0. -1.
     999902    2    1    2    0    0 -0.87874974413E-02 -0.21969406730E-01  0.24816153225E-02  0.10201385444E+01  0.10198610771E+01 0.  0.
     999903    2    3    3    0    0  0.39675378661E-01 -0.10586652455E+00  0.65687232621E-01  0.13256751809E+00  0.21851261577E-01 0.  0.
         14    1    1    2    0    0  0.87874974413E-02  0.21969406730E-01 -0.24816153225E-02  0.23791455566E-01  0.00000000000E+00 0.  1.
     999901    1    3    3    0    0 -0.48462876102E-01  0.83897117819E-01 -0.63205617298E-01  0.88757102634E+00  0.88000000000E+00 0. -1.
        -11    1    4    4    0    0  0.92259751530E-02 -0.31217131438E-01  0.30464948833E-01  0.44587017630E-01  0.51100000000E-03 0. -1.
         11    1    4    4    0    0  0.30449403508E-01 -0.74649393111E-01  0.35222283788E-01  0.87980500465E-01  0.51100000000E-03 0.  1.
</event>
<event>
 8    1  0.1116841E+005  0.1043930E+01  0.7957747E-01            NaN
         13   -1    0    0    0    0  0.00000000000E+00  0.00000000000E+00  0.74505805969E-08  0.10566000000E+00  0.10566000000E+00 0. -1.
     999900   -1    0    0    0    0 -0.00000000000E+00 -0.00000000000E+00 -0.74505805969E-08  0.93827000000E+00  0.93827000000E+00 0.  1.
     999902    2    1    2    0    0  0.16279020078E-01  0.20123091512E-01  0.13757889122E-02  0.10180101601E+01  0.10176801304E+01 0.  0.
     999903    2    3    3    0    0 -0.15865817634E-01 -0.12123347972E+00 -0.22439984257E-01  0.12583183604E+00  0.19514540587E-01 0.  0.
         14    1    1    2    0    0 -0.16279020078E-01 -0.20123091512E-01 -0.13757889122E-02  0.25919839927E-01  0.00000000000E+00 0. -1.
     999901    1    3    3    0    0  0.32144837713E-01  0.14135657123E+00  0.23815773169E-01  0.89217832403E+00  0.88000000000E+00 0. -1.
        -11    1    4    4    0    0 -0.12119195293E-01 -0.93593978903E-01 -0.88210869635E-02  0.94788081939E-01  0.51100000000E-03 0.  1.
         11    1    4    4    0    0 -0.37466223418E-02 -0.27639500814E-01 -0.13618897294E-01  0.31043754102E-01  0.51100000000E-03 0. -1.
</event>
<event>
 8    1  0.1116841E+005  0.1043930E+01  0.7957747E-01            NaN
         13   -1    0    0    0    0  0.00000000000E+00  0.00000000000E+00  0.74505805969E-08  0.10566000000E+00  0.10566000000E+00 0.  1.
     999900   -1    0    0    0    0 -0.00000000000E+00 -0.00000000000E+00 -0.74505805969E-08  0.93827000000E+00  0.93827000000E+00 0. -1.
     999902    2    1    2    0    0  0.23769932661E-03  0.14451312057E-01 -0.18725327643E-01  0.10202755117E+01  0.10200012671E+01 0.  0.
     999903    2    3    3    0    0 -0.88929062007E-01  0.75602979151E-01  0.54920164035E-01  0.13060484446E+00  0.20425779117E-01 0.  0.
         14    1    1    2    0    0 -0.23769932661E-03 -0.14451312057E-01  0.18725327643E-01  0.23654488294E-01  0.00000000000E+00 0.  1.
     999901    1    3    3    0    0  0.89166761333E-01 -0.61151667095E-01 -0.73645491678E-01  0.88967066725E+00  0.88000000000E+00 0. -1.
        -11    1    4    4    0    0 -0.19033297902E-01  0.21276614490E-01  0.50431017194E-02  0.28994046788E-01  0.51100000000E-03 0. -1.
         11    1    4    4    0    0 -0.69895764104E-01  0.54326364661E-01  0.49877062315E-01  0.10161079767E+00  0.51100000000E-03 0.  1.
</event>
<event>
 8    1  0.1116841E+005  0.1043930E+01  0.7957747E-01            NaN
         13   -1    0    0    0    0  0.00000000000E+00  0.00000000000E+00  0.74505805969E-08  0.10566000000E+00  0.10566000000E+00 0. -1.
     999900   -1    0    0    0    0 -0.00000000000E+00 -0.00000000000E+00 -0.74505805969E-08  0.93827000000E+00  0.93827000000E+00 0.  1.
     999902    2    1    2    0    0  0.45665436281E-03 -0.14450877807E-01  0.19308494608E-01  0.10198083424E+01  0.10195230261E+01 0.  0.
     999903    2    3    3    0    0  0.11493972768E+00 -0.14025777802E-01  0.58849918447E-01  0.13151217612E+00  0.20597964099E-01 0.  0.
         14    1    1    2    0    0 -0.45665436281E-03  0.14450877807E-01 -0.19308494608E-01  0.24121657626E-01  0.00000000000E+00 0.  1.
     999901    1    3    3    0    0 -0.11448307331E+00 -0.42510000538E-03 -0.39541423838E-01  0.88829616626E+00  0.88000000000E+00 0.  1.
        -11    1    4    4    0    0  0.10125718129E+00 -0.64949516878E-02  0.55017364084E-01  0.11542258286E+00  0.51100000000E-03 0. -1.
         11    1    4    4    0    0  0.13682546381E-01 -0.75308261139E-02  0.38325543628E-02  0.16089593263E-01  0.51100000000E-03 0.  1.
</event>
<event>
 8    1  0.1116841E+005  0.1043930E+01  0.7957747E-01            NaN
         13   -1    0    0    0    0  0.00000000000E+00  0.00000000000E+00  0.74505805969E-08  0.10566000000E+00  0.10566000000E+00 0.  1.
     999900   -1    0    0    0    0 -0.00000000000E+00 -0.00000000000E+00 -0.74505805969E-08  0.93827000000E+00  0.93827000000E+00 0.  1.
     999902    2    1    2    0    0  0.19769808228E-02  0.20493884230E-01  0.10852516296E-01  0.10206558759E+01  0.10203904802E+01 0.  0.
     999903    2    3    3    0    0  0.23656966636E-01  0.15936611712E-01  0.12790622106E+00  0.13262864638E+00  0.20413936225E-01 0.  0.
         14    1    1    2    0    0 -0.19769808228E-02 -0.20493884230E-01 -0.10852516296E-01  0.23274124129E-01  0.00000000000E+00 0.  1.
     999901    1    3    3    0    0 -0.21679985813E-01  0.45572725180E-02 -0.11705370476E+00  0.88802722949E+00  0.88000000000E+00 0.  1.
        -11    1    4    4    0    0  0.20799490642E-02  0.86393812476E-02  0.67217641695E-01  0.67804406734E-01  0.51100000000E-03 0.  1.
         11    1    4    4    0    0  0.21577017572E-01  0.72972304643E-02  0.60688579363E-01  0.64824239647E-01  0.51100000000E-03 0. -1.
</event>
<event>
 8    1  0.1116841E+005  0.1043930E+01  0.7957747E-01            NaN
         13   -1    0    0    0    0  0.00000000000E+00  0.00000000000E+00  0.74505805969E-08  0.10566000000E+00  0.10566000000E+00 0.  1.
     999900   -1    0    0    0    0 -0.00000000000E+00 -0.00000000000E+00 -0.74505805969E-08  0.93827000000E+00  0.93827000000E+00 0. -1.
     999902    2    1    2    0    0  0.74015380692E-03  0.20862130388E-03  0.23057329142E-01  0.10208598509E+01  0.10205991395E+01 0.  0.
     999903    2    3    3    0    0 -0.11780085661E+00 -0.51091909047E-01 -0.14439549895E-01  0.13064092758E+00  0.19264640449E-01 0.  0.
         14    1    1    2    0    0 -0.74015380692E-03 -0.20862130388E-03 -0.23057329142E-01  0.23070149060E-01  0.00000000000E+00 0. -1.
     999901    1    3    3    0    0  0.11854101041E+00  0.51300530351E-01  0.37496879037E-01  0.89021892336E+00  0.88000000000E+00 0.  1.
        -11    1    4    4    0    0 -0.68646447540E-01 -0.19899221451E-01 -0.11053763439E-01  0.72323997272E-01  0.51100000000E-03 0. -1.
         11    1    4    4    0    0 -0.49154409066E-01 -0.31192687596E-01 -0.33857864561E-02  0.58316930312E-01  0.51100000000E-03 0.  1.
</event>
<event>
 8    1  0.1116841E+005  0.1043930E+01  0.7957747E-01            NaN
         13   -1    0    0    0    0  0.00000000000E+00  0.00000000000E+00  0.74505805969E-08  0.10566000000E+00  0.10566000000E+00 0. -1.
     999900   -1    0    0    0    0 -0.00000000000E+00 -0.00000000000E+00 -0.74505805969E-08  0.93827000000E+00  0.93827000000E+00 0. -1.
     999902    2    1    2    0    0  0.12668595038E-02  0.12487340479E-01  0.17995225213E-01  0.10219899285E+01  0.10217543968E+01 0.  0.
     999903    2    3    3    0    0  0.18365535127E-01  0.10712230694E+00 -0.72465503240E-01  0.13214090484E+00  0.19937102264E-01 0.  0.
         14    1    1    2    0    0 -0.12668595038E-02 -0.12487340479E-01 -0.17995225213E-01  0.21940071461E-01  0.00000000000E+00 0.  1.
     999901    1    3    3    0    0 -0.17098675623E-01 -0.94634966465E-01  0.90460728453E-01  0.88984902370E+00  0.88000000000E+00 0.  1.
        -11    1    4    4    0    0  0.13735089939E-01  0.29453441508E-01 -0.17891336049E-01  0.37101468151E-01  0.51100000000E-03 0. -1.
         11    1    4    4    0    0  0.46304451877E-02  0.77668865435E-01 -0.54574167191E-01  0.95039436690E-01  0.51100000000E-03 0.  1.
</event>
<event>
 8    1  0.1116841E+005  0.1043930E+01  0.7957747E-01            NaN
         13   -1    0    0    0    0  0.00000000000E+00  0.00000000000E+00  0.74505805969E-08  0.10566000000E+00  0.10566000000E+00 0. -1.
     999900   -1    0    0    0    0 -0.00000000000E+00 -0.00000000000E+00 -0.74505805969E-08  0.93827000000E+00  0.93827000000E+00 0. -1.
     999902    2    1    2    0    0 -0.33465726575E-02  0.20353305819E-01 -0.12095827150E-01  0.10200183785E+01  0.10197380678E+01 0.  0.
     999903    2    3    3    0    0 -0.94583094429E-01  0.14460011587E-02  0.86502416084E-01  0.12962340852E+00  0.19274526620E-01 0.  0.
         14    1    1    2    0    0  0.33465726575E-02 -0.20353305819E-01  0.12095827150E-01  0.23911621458E-01  0.00000000000E+00 0. -1.
     999901    1    3    3    0    0  0.91236521771E-01  0.18907304660E-01 -0.98598243235E-01  0.89039497002E+00  0.88000000000E+00 0. -1.
        -11    1    4    4    0    0 -0.66200840210E-01 -0.75131531708E-02  0.56481966056E-01  0.87346850691E-01  0.51100000000E-03 0. -1.
         11    1    4    4    0    0 -0.28382254219E-01  0.89591543295E-02  0.30020450028E-01  0.42276557827E-01  0.51100000000E-03 0.  1.
</event>
<event>
 8    1  0.1116841E+005  0.1043930E+01  0.7957747E-01            NaN
         13   -1    0    0    0    0  0.00000000000E+00  0.00000000000E+00  0.74505805969E-08  0.10566000000E+00  0.10566000000E+00 0. -1.
     999900   -1    0    0    0    0 -0.00000000000E+00 -0.00000000000E+00 -0.74505805969E-08  0.93827000000E+00  0.93827000000E+00 0.  1.
     999902    2    1    2    0    0 -0.16714740679E-01  0.15218470221E-01  0.76978066311E-02  0.10200502886E+01  0.10197707343E+01 0.  0.
     999903    2    3    3    0    0 -0.11648240232E+00  0.77684772352E-02  0.57566268516E-01  0.13297872876E+00  0.27220722652E-01 0.  0.
         14    1    1    2    0    0  0.16714740679E-01 -0.15218470221E-01 -0.76978066311E-02  0.23879711446E-01  0.00000000000E+00 0.  1.
     999901    1    3    3    0    0  0.99767661646E-01  0.74499929857E-02 -0.49868461885E-01  0.88707155979E+00  0.88000000000E+00 0.  1.
        -11    1    4    4    0    0 -0.21626909994E-01 -0.78708437431E-02  0.55855301583E-02  0.23688239387E-01  0.51100000000E-03 0. -1.
         11    1    4    4    0    0 -0.94855492331E-01  0.15639320978E-01  0.51980738357E-01  0.10929048937E+00  0.51100000000E-03 0.  1.
</event>
<event>
 8    1  0.1116841E+005  0.1043930E+01  0.7957747E-01            NaN
         13   -1    0    0    0    0  0.00000000000E+00  0.00000000000E+00  0.74505805969E-08  0.10566000000E+00  0.10566000000E+00 0.  1.
     999900   -1    0    0    0    0 -0.00000000000E+00 -0.00000000000E+00 -0.74505805969E-08  0.93827000000E+00  0.93827000000E+00 0.  1.
     999902    2    1    2    0    0  0.15360643977E-01  0.15006014699E-01  0.11054003752E-01  0.10197779637E+01  0.10194919197E+01 0.  0.
     999903    2    3    3    0    0  0.69387506013E-01 -0.74510758707E-01 -0.75834368385E-01  0.12933889008E+00  0.24722821535E-01 0.  0.
         14    1    1    2    0    0 -0.15360643977E-01 -0.15006014699E-01 -0.11054003752E-01  0.24152036342E-01  0.00000000000E+00 0. -1.
     999901    1    3    3    0    0 -0.54026862036E-01  0.89516773406E-01  0.86888372138E-01  0.89043907358E+00  0.88000000000E+00 0. -1.
        -11    1    4    4    0    0  0.56486801938E-01 -0.64065946934E-01 -0.73272173740E-01  0.11253566952E+00  0.51100000000E-03 0. -1.
         11    1    4    4    0    0  0.12900704075E-01 -0.10444811774E-01 -0.25621946452E-02  0.16803220555E-01  0.51100000000E-03 0.  1.
</event>
<event>
 8    1  0.1116841E+005  0.1043930E+01  0.7957747E-01            NaN
         13   -1    0    0    0    0  0.00000000000E+00  0.00000000000E+00  0.74505805969E-08  0.10566000000E+00  0.10566000000E+00 0. -1.
     999900   -1    0    0    0    0 -0.00000000000E+00 -0.00000000000E+00 -0.74505805969E-08  0.93827000000E+00  0.93827000000E+00 0.  1.
     999902    2    1    2    0    0 -0.19542157965E-01 -0.13759266712E-01 -0.33078251273E-02  0.10198021102E+01  0.10195166448E+01 0.  0.
     999903    2    3    3    0    0  0.30046973925E-01  0.11269653490E+00 -0.49193636190E-01  0.12819925052E+00  0.20290499528E-01 0.  0.
         14    1    1    2    0    0  0.19542157965E-01  0.13759266712E-01  0.33078251273E-02  0.24127889785E-01  0.00000000000E+00 0.  1.
     999901    1    3    3    0    0 -0.49589131890E-01 -0.12645580161E+00  0.45885811062E-01  0.89160285970E+00  0.88000000000E+00 0. -1.
        -11    1    4    4    0    0  0.28007405716E-01  0.67323140072E-01 -0.32020769874E-01  0.79639254068E-01  0.51100000000E-03 0. -1.
         11    1    4    4    0    0  0.20395682090E-02  0.45373394829E-01 -0.17172866316E-01  0.48559996450E-01  0.51100000000E-03 0.  1.
</event>
<event>
 8    1  0.1116841E+005  0.1043930E+01  0.7957747E-01            NaN
         13   -1    0    0    0    0  0.00000000000E+00  0.00000000000E+00  0.74505805969E-08  0.10566000000E+00  0.10566000000E+00 0. -1.
     999900   -1    0    0    0    0 -0.00000000000E+00 -0.00000000000E+00 -0.74505805969E-08  0.93827000000E+00  0.93827000000E+00 0.  1.
     999902    2    1    2    0    0  0.23860811008E-02 -0.17957631983E-01  0.15016241082E-01  0.10204000738E+01  0.10201287435E+01 0.  0.
     999903    2    3    3    0    0  0.35397252825E-01  0.48535504512E-01  0.11534070637E+00  0.13159409219E+00  0.20121278499E-01 0.  0.
         14    1    1    2    0    0 -0.23860811008E-02  0.17957631983E-01 -0.15016241082E-01  0.23529926173E-01  0.00000000000E+00 0.  1.
     999901    1    3    3    0    0 -0.33011171724E-01 -0.66493136495E-01 -0.10032446528E+00  0.88880598164E+00  0.88000000000E+00 0. -1.
        -11    1    4    4    0    0  0.29921783449E-01  0.34893156601E-01  0.68470856971E-01  0.82470387884E-01  0.51100000000E-03 0.  1.
         11    1    4    4    0    0  0.54754693753E-02  0.13642347910E-01  0.46869849395E-01  0.49123704306E-01  0.51100000000E-03 0. -1.
</event>
<event>
 8    1  0.1116841E+005  0.1043930E+01  0.7957747E-01            NaN
         13   -1    0    0    0    0  0.00000000000E+00  0.00000000000E+00  0.74505805969E-08  0.10566000000E+00  0.10566000000E+00 0.  1.
     999900   -1    0    0    0    0 -0.00000000000E+00 -0.00000000000E+00 -0.74505805969E-08  0.93827000000E+00  0.93827000000E+00 0.  1.
     999902    2    1    2    0    0 -0.62511732697E-02 -0.14441121321E-01 -0.15910626466E-01  0.10215520826E+01  0.10213069501E+01 0.  0.
     999903    2    3    3    0    0 -0.64518685404E-01 -0.80537432345E-01 -0.83992168103E-01  0.13453521602E+00  0.19902293134E-01 0.  0.
         14    1    1    2    0    0  0.62511732697E-02  0.14441121321E-01  0.15910626466E-01  0.22377917391E-01  0.00000000000E+00 0.  1.
     999901    1    3    3    0    0  0.58267512134E-01  0.66096311024E-01  0.68081541637E-01  0.88701686659E+00  0.88000000000E+00 0. -1.
        -11    1    4    4    0    0 -0.33644114044E-01 -0.41889775866E-01 -0.30957194141E-01  0.62010392049E-01  0.51100000000E-03 0. -1.
         11    1    4    4    0    0 -0.30874571359E-01 -0.38647656479E-01 -0.53034973962E-01  0.72524823971E-01  0.51100000000E-03 0.  1.
</event>
<event>
 8    1  0.1116841E+005  0.1043930E+01  0.7957747E-01            NaN
         13   -1    0    0    0    0  0.00000000000E+00  0.00000000000E+00  0.74505805969E-08  0.10566000000E+00  0.10566000000E+00 0. -1.
     999900   -1    0    0    0    0 -0.00000000000E+00 -0.00000000000E+00 -0.74505805969E-08  0.93827000000E+00  0.93827000000E+00 0.  1.
     999902    2    1    2    0    0 -0.42709033035E-02  0.16941857194E-01  0.15973662764E-01  0.10202567019E+01  0.10199820159E+01 0.  0.
     999903    2    3    3    0    0 -0.73483263802E-01 -0.36637345527E-01  0.10027463426E+00  0.13190556886E+00  0.24535518620E-01 0.  0.
         14    1    1    2    0    0  0.42709033035E-02 -0.16941857194E-01 -0.15973662764E-01  0.23673298087E-01  0.00000000000E+00 0.  1.
     999901    1    3    3    0    0  0.69212360498E-01  0.53579202721E-01 -0.84300971492E-01  0.88835113306E+00  0.88000000000E+00 0. -1.
        -11    1    4    4    0    0 -0.99988026125E-02 -0.80698749879E-02  0.47595673323E-02  0.13711802879E-01  0.51100000000E-03 0. -1.
         11    1    4    4    0    0 -0.63484461189E-01 -0.28567470540E-01  0.95515066923E-01  0.11819376598E+00  0.51100000000E-03 0.  1.
</event>
<event>
 8    1  0.1116841E+005  0.1043930E+01  0.7957747E-01            NaN
         13   -1    0    0    0    0  0.00000000000E+00  0.00000000000E+00  0.74505805969E-08  0.10566000000E+00  0.10566000000E+00 0.  1.
     999900   -1    0    0    0    0 -0.00000000000E+00 -0.00000000000E+00 -0.74505805969E-08  0.93827000000E+00  0.93827000000E+00 0.  1.
     999902    2    1    2    0    0  0.49226468997E-02  0.35693656517E-01  0.11243826060E-02  0.10078809528E+01  0.10072360603E+01 0.  0.
     999903    2    3    3    0    0  0.77880769786E-01 -0.42886842595E-01  0.75367898093E-01  0.11826874395E+00  0.20061908245E-01 0.  0.
         14    1    1    2    0    0 -0.49226468997E-02 -0.35693656517E-01 -0.11243826060E-02  0.36049047204E-01  0.00000000000E+00 0.  1.
     999901    1    3    3    0    0 -0.72958122886E-01  0.78580499112E-01 -0.74243515487E-01  0.88961220885E+00  0.88000000000E+00 0. -1.
        -11    1    4    4    0    0  0.70034617780E-01 -0.40657942159E-01  0.74520780409E-01  0.11005236836E+00  0.51100000000E-03 0. -1.
         11    1    4    4    0    0  0.78461520055E-02 -0.22289004360E-02  0.84711768445E-03  0.82163755889E-02  0.51100000000E-03 0.  1.
</event>
<event>
 8    1  0.1116841E+005  0.1043930E+01  0.7957747E-01            NaN
         13   -1    0    0    0    0  0.00000000000E+00  0.00000000000E+00  0.74505805969E-08  0.10566000000E+00  0.10566000000E+00 0.  1.
     999900   -1    0    0    0    0 -0.00000000000E+00 -0.00000000000E+00 -0.74505805969E-08  0.93827000000E+00  0.93827000000E+00 0.  1.
     999902    2    1    2    0    0  0.50473398690E-02 -0.20310209397E-01  0.10767258579E-01  0.10203946202E+01  0.10201231626E+01 0.  0.
     999903    2    3    3    0    0 -0.55837152194E-01  0.32475228866E-01  0.11227173927E+00  0.13090241479E+00  0.18922756250E-01 0.  0.
         14    1    1    2    0    0 -0.50473398690E-02  0.20310209397E-01 -0.10767258579E-01  0.23535379810E-01  0.00000000000E+00 0. -1.
     999901    1    3    3    0    0  0.60884492063E-01 -0.52785438264E-01 -0.10150448069E+00  0.88949220540E+00  0.88000000000E+00 0.  1.
        -11    1    4    4    0    0 -0.11419672009E-01  0.24398376245E-02  0.34585332939E-01  0.36507096460E-01  0.51100000000E-03 0.  1.
         11    1    4    4    0    0 -0.44417480185E-01  0.30035391242E-01  0.77686406331E-01  0.94395318330E-01  0.51100000000E-03 0. -1.
</event>
<event>
 8    1  0.1116841E+005  0.1043930E+01  0.7957747E-01            NaN
         13   -1    0    0    0    0  0.00000000000E+00  0.00000000000E+00  0.74505805969E-08  0.10566000000E+00  0.10566000000E+00 0.  1.
     999900   -1    0    0    0    0 -0.00000000000E+00 -0.00000000000E+00 -0.74505805969E-08  0.93827000000E+00  0.93827000000E+00 0. -1.
     999902    2    1    2    0    0 -0.16562238634E-02 -0.16637669555E-02 -0.22508178424E-01  0.10212997262E+01  0.10210489711E+01 0.  0.
     999903    2    3    3    0    0  0.21858661881E-01 -0.21401917619E-01  0.12344614886E+00  0.12874988996E+00  0.20043435816E-01 0.  0.
         14    1    1    2    0    0  0.16562238634E-02  0.16637669555E-02  0.22508178424E-01  0.22630273837E-01  0.00000000000E+00 0.  1.
     999901    1    3    3    0    0 -0.23514885744E-01  0.19738150664E-01 -0.14595432729E+00  0.89254983620E+00  0.88000000000E+00 0. -1.
        -11    1    4    4    0    0  0.19639154522E-01 -0.95672504161E-02  0.10031522921E+00  0.10266759471E+00  0.51100000000E-03 0.  1.
         11    1    4    4    0    0  0.22195073582E-02 -0.11834667203E-01  0.23130919657E-01  0.26082295258E-01  0.51100000000E-03 0. -1.
</event>
<event>
 8    1  0.1116841E+005  0.1043930E+01  0.7957747E-01            NaN
         13   -1    0    0    0    0  0.00000000000E+00  0.00000000000E+00  0.74505805969E-08  0.10566000000E+00  0.10566000000E+00 0. -1.
     999900   -1    0    0    0    0 -0.00000000000E+00 -0.00000000000E+00 -0.74505805969E-08  0.93827000000E+00  0.93827000000E+00 0. -1.
     999902    2    1    2    0    0  0.79699252678E-03  0.22115957738E-02  0.23787589095E-01  0.10200265327E+01  0.10197464154E+01 0.  0.
     999903    2    3    3    0    0 -0.12206215126E+00 -0.40507100822E-01  0.49116670327E-02  0.13026501597E+00  0.20121031936E-01 0.  0.
         14    1    1    2    0    0 -0.79699252678E-03 -0.22115957738E-02 -0.23787589095E-01  0.23903467278E-01  0.00000000000E+00 0.  1.
     999901    1    3    3    0    0  0.12285914379E+00  0.42718696596E-01  0.18875922062E-01  0.88976151675E+00  0.88000000000E+00 0. -1.
        -11    1    4    4    0    0 -0.54159805882E-01 -0.19953438147E-01  0.12033257195E-01  0.58961722048E-01  0.51100000000E-03 0. -1.
         11    1    4    4    0    0 -0.67902345379E-01 -0.20553662675E-01 -0.71215901626E-02  0.71303293927E-01  0.51100000000E-03 0.  1.
</event>
<event>
 8    1  0.1116841E+005  0.1043930E+01  0.7957747E-01            NaN
         13   -1    0    0    0    0  0.00000000000E+00  0.00000000000E+00  0.74505805969E-08  0.10566000000E+00  0.10566000000E+00 0.  1.
     999900   -1    0    0    0    0 -0.00000000000E+00 -0.00000000000E+00 -0.74505805969E-08  0.93827000000E+00  0.93827000000E+00 0. -1.
     999902    2    1    2    0    0  0.20966861743E-01  0.85090424223E-02  0.55983411273E-02  0.10206200339E+01  0.10203538108E+01 0.  0.
     999903    2    3    3    0    0 -0.59406910692E-01 -0.64917029795E-01  0.93103153432E-01  0.12960464487E+00  0.19640901173E-01 0.  0.
         14    1    1    2    0    0 -0.20966861743E-01 -0.85090424223E-02 -0.55983411273E-02  0.23309966059E-01  0.00000000000E+00 0.  1.
     999901    1    3    3    0    0  0.80373772435E-01  0.73426072217E-01 -0.87504812305E-01  0.89101538907E+00  0.88000000000E+00 0. -1.
        -11    1    4    4    0    0 -0.21659779102E-01 -0.17754938351E-01  0.41971358640E-01  0.50460280753E-01  0.51100000000E-03 0. -1.
         11    1    4    4    0    0 -0.37747131589E-01 -0.47162091444E-01  0.51131794792E-01  0.79144364122E-01  0.51100000000E-03 0.  1.
</event>
<event>
 8    1  0.1116841E+005  0.1043930E+01  0.7957747E-01            NaN
         13   -1    0    0    0    0  0.00000000000E+00  0.00000000000E+00  0.74505805969E-08  0.10566000000E+00  0.10566000000E+00 0.  1.
     999900   -1    0    0    0    0 -0.00000000000E+00 -0.00000000000E+00 -0.74505805969E-08  0.93827000000E+00  0.93827000000E+00 0.  1.
     999902    2    1    2    0    0  0.13205347276E-01  0.33464344168E-02  0.18909656715E-01  0.10206243153E+01  0.10203581911E+01 0.  0.
     999903    2    3    3    0    0  0.11859225600E+00  0.12883718418E-01 -0.52306153027E-01  0.13142858219E+00  0.17533544676E-01 0.  0.
         14    1    1    2    0    0 -0.13205347276E-01 -0.33464344168E-02 -0.18909656715E-01  0.23305684651E-01  0.00000000000E+00 0. -1.
     999901    1    3    3    0    0 -0.10538690872E+00 -0.95372840010E-02  0.71215809741E-01  0.88919573316E+00  0.88000000000E+00 0. -1.
        -11    1    4    4    0    0  0.78896631524E-01  0.12973255505E-01 -0.42435741321E-01  0.90520920713E-01  0.51100000000E-03 0.  1.
         11    1    4    4    0    0  0.39695624472E-01 -0.89537087298E-04 -0.98704117062E-02  0.40907661475E-01  0.51100000000E-03 0. -1.
</event>
<event>
 8    1  0.1116841E+005  0.1043930E+01  0.7957747E-01            NaN
         13   -1    0    0    0    0  0.00000000000E+00  0.00000000000E+00  0.74505805969E-08  0.10566000000E+00  0.10566000000E+00 0.  1.
     999900   -1    0    0    0    0 -0.00000000000E+00 -0.00000000000E+00 -0.74505805969E-08  0.93827000000E+00  0.93827000000E+00 0.  1.
     999902    2    1    2    0    0  0.93195289360E-02  0.21073406145E-01 -0.92341476444E-02  0.10191063913E+01  0.10188040171E+01 0.  0.
     999903    2    3    3    0    0 -0.20921314979E-01  0.12874140736E+00  0.19640431640E-02  0.13195797835E+00  0.19924838670E-01 0.  0.
         14    1    1    2    0    0 -0.93195289360E-02 -0.21073406145E-01  0.92341476444E-02  0.24823608699E-01  0.00000000000E+00 0.  1.
     999901    1    3    3    0    0  0.30240843915E-01 -0.10766800121E+00 -0.11198190808E-01  0.88714841295E+00  0.88000000000E+00 0. -1.
        -11    1    4    4    0    0 -0.93119211141E-02  0.17470227871E-01 -0.26868013961E-02  0.19985013371E-01  0.51100000000E-03 0.  1.
         11    1    4    4    0    0 -0.11609393865E-01  0.11127117949E+00  0.46508445601E-02  0.11197296498E+00  0.51100000000E-03 0. -1.
</event>
<event>
 8    1  0.1116841E+005  0.1043930E+01  0.7957747E-01            NaN
         13   -1    0    0    0    0  0.00000000000E+00  0.00000000000E+00  0.74505805969E-08  0.10566000000E+00  0.10566000000E+00 0. -1.
     999900   -1    0    0    0    0 -0.00000000000E+00 -0.00000000000E+00 -0.74505805969E-08  0.93827000000E+00  0.93827000000E+00 0. -1.
     999902    2    1    2    0    0 -0.73545031956E-02  0.52447199214E-02 -0.20471946128E-01  0.10215537541E+01  0.10213086586E+01 0.  0.
     999903    2    3    3    0    0  0.94815352513E-01  0.61304600222E-01 -0.66781838133E-01  0.13266343703E+00  0.19788090886E-01 0.  0.
         14    1    1    2    0    0  0.73545031956E-02 -0.52447199214E-02  0.20471946128E-01  0.22376245945E-01  0.00000000000E+00 0. -1.
     999901    1    3    3    0    0 -0.10216985571E+00 -0.56059880301E-01  0.46309892005E-01  0.88889031702E+00  0.88000000000E+00 0.  1.
        -11    1    4    4    0    0  0.53540911891E-01  0.38415038018E-01 -0.49425752075E-01  0.82374210049E-01  0.51100000000E-03 0. -1.
         11    1    4    4    0    0  0.41274440622E-01  0.22889562205E-01 -0.17356086058E-01  0.50289226985E-01  0.51100000000E-03 0.  1.
</event>
<event>
 8    1  0.1116841E+005  0.1043930E+01  0.7957747E-01            NaN
         13   -1    0    0    0    0  0.00000000000E+00  0.00000000000E+00  0.74505805969E-08  0.10566000000E+00  0.10566000000E+00 0.  1.
     999900   -1    0    0    0    0 -0.00000000000E+00 -0.00000000000E+00 -0.74505805969E-08  0.93827000000E+00  0.93827000000E+00 0.  1.
     999902    2    1    2    0    0 -0.17351060653E-01  0.86374167748E-02 -0.77914286093E-02  0.10230405138E+01  0.10228272201E+01 0.  0.
     999903    2    3    3    0    0  0.94770774565E-01  0.67287258263E-01  0.58657100822E-01  0.13151007858E+00  0.18578763567E-01 0.  0.
         14    1    1    2    0    0  0.17351060653E-01 -0.86374167748E-02  0.77914286093E-02  0.20889486210E-01  0.00000000000E+00 0. -1.
     999901    1    3    3    0    0 -0.11212183522E+00 -0.58649841488E-01 -0.66448529431E-01  0.89153043521E+00  0.88000000000E+00 0.  1.
        -11    1    4    4    0    0  0.25266783623E-01  0.19961980918E-01  0.25668917179E-01  0.41183072578E-01  0.51100000000E-03 0.  1.
         11    1    4    4    0    0  0.69503990942E-01  0.47325277345E-01  0.32988183643E-01  0.90327006005E-01  0.51100000000E-03 0. -1.
</event>
<event>
 8    1  0.1116841E+005  0.1043930E+01  0.7957747E-01            NaN
         13   -1    0    0    0    0  0.00000000000E+00  0.00000000000E+00  0.74505805969E-08  0.10566000000E+00  0.10566000000E+00 0.  1.
     999900   -1    0    0    0    0 -0.00000000000E+00 -0.00000000000E+00 -0.74505805969E-08  0.93827000000E+00  0.93827000000E+00 0. -1.
     999902    2    1    2    0    0 -0.15920088164E-01  0.13678260590E-02 -0.16605799755E-01  0.10208849845E+01  0.10206248472E+01 0.  0.
     999903    2    3    3    0    0  0.96612254887E-01  0.22531487395E-01  0.78017324364E-01  0.12843612632E+00  0.23823096456E-01 0.  0.
         14    1    1    2    0    0  0.15920088164E-01 -0.13678260590E-02  0.16605799755E-01  0.23045015530E-01  0.00000000000E+00 0.  1.
     999901    1    3    3    0    0 -0.11253234305E+00 -0.21163661336E-01 -0.94623124119E-01  0.89244885815E+00  0.88000000000E+00 0. -1.
        -11    1    4    4    0    0  0.65754166216E-01  0.16841333758E-01  0.66449079051E-01  0.94989379013E-01  0.51100000000E-03 0.  1.
         11    1    4    4    0    0  0.30858088671E-01  0.56901536374E-02  0.11568245313E-01  0.33446747308E-01  0.51100000000E-03 0. -1.
</event>
<event>
 8    1  0.1116841E+005  0.1043930E+01  0.7957747E-01            NaN
         13   -1    0    0    0    0  0.00000000000E+00  0.00000000000E+00  0.74505805969E-08  0.10566000000E+00  0.10566000000E+00 0. -1.
     999900   -1    0    0    0    0 -0.00000000000E+00 -0.00000000000E+00 -0.74505805969E-08  0.93827000000E+00  0.93827000000E+00 0. -1.
     999902    2    1    2    0    0  0.14449267185E-01  0.39068057572E-02 -0.19260272522E-01  0.10195373259E+01  0.10192454838E+01 0.  0.
     999903    2    3    3    0    0  0.87600169617E-01 -0.80787727939E-01 -0.52443448962E-01  0.13182941121E+00  0.20693757932E-01 0.  0.
         14    1    1    2    0    0 -0.14449267185E-01 -0.39068057572E-02  0.19260272522E-01  0.24392674127E-01  0.00000000000E+00 0. -1.
     999901    1    3    3    0    0 -0.73150902432E-01  0.84694533696E-01  0.33183176439E-01  0.88770791467E+00  0.88000000000E+00 0. -1.
        -11    1    4    4    0    0  0.45615390963E-01 -0.30227200976E-01 -0.29829919720E-01  0.62326020273E-01  0.51100000000E-03 0.  1.
         11    1    4    4    0    0  0.41984778654E-01 -0.50560526963E-01 -0.22613529242E-01  0.69503390933E-01  0.51100000000E-03 0. -1.
</event>
<event>
 8    1  0.1116841E+005  0.1043930E+01  0.7957747E-01            NaN
         13   -1    0    0    0    0  0.00000000000E+00  0.00000000000E+00  0.74505805969E-08  0.10566000000E+00  0.10566000000E+00 0. -1.
     999900   -1    0    0    0    0 -0.00000000000E+00 -0.00000000000E+00 -0.74505805969E-08  0.93827000000E+00  0.93827000000E+00 0. -1.
     999902    2    1    2    0    0 -0.39737075820E-02  0.11365911297E-01 -0.19976111726E-01  0.10206057780E+01  0.10203392253E+01 0.  0.
     999903    2    3    3    0    0  0.47355447017E-01 -0.22496068276E-01 -0.12029836878E+00  0.13277365929E+00  0.20212264126E-01 0.  0.
         14    1    1    2    0    0  0.39737075820E-02 -0.11365911297E-01  0.19976111726E-01  0.23324221986E-01  0.00000000000E+00 0. -1.
     999901    1    3    3    0    0 -0.51329154599E-01  0.33861979573E-01  0.10032225705E+00  0.88783211872E+00  0.88000000000E+00 0.  1.
        -11    1    4    4    0    0  0.13523451314E-01 -0.17286230720E-01 -0.46775464480E-01  0.51671101268E-01  0.51100000000E-03 0.  1.
         11    1    4    4    0    0  0.33831995703E-01 -0.52098375558E-02 -0.73522904299E-01  0.81102558025E-01  0.51100000000E-03 0. -1.
</event>
<event>
 8    1  0.1116841E+005  0.1043930E+01  0.7957747E-01            NaN
         13   -1    0    0    0    0  0.00000000000E+00  0.00000000000E+00  0.74505805969E-08  0.10566000000E+00  0.10566000000E+00 0. -1.
     999900   -1    0    0    0    0 -0.00000000000E+00 -0.00000000000E+00 -0.74505805969E-08  0.93827000000E+00  0.93827000000E+00 0. -1.
     999902    2    1    2    0    0 -0.20022482044E-01  0.65610155987E-02  0.11806405729E-01  0.10197776103E+01  0.10194915578E+01 0.  0.
     999903    2    3    3    0    0 -0.49113512424E-01 -0.55788455117E-02 -0.11804495591E+00  0.12969051320E+00  0.21018015547E-01 0.  0.
         14    1    1    2    0    0  0.20022482044E-01 -0.65610155987E-02 -0.11806405729E-01  0.24152389718E-01  0.00000000000E+00 0.  1.
     999901    1    3    3    0    0  0.29091030380E-01  0.12139861110E-01  0.12985136164E+00  0.89008709708E+00  0.88000000000E+00 0.  1.
        -11    1    4    4    0    0 -0.42794723450E-01 -0.11816478552E-01 -0.91662712346E-01  0.10184955315E+00  0.51100000000E-03 0. -1.
         11    1    4    4    0    0 -0.63187889746E-02  0.62376330402E-02 -0.26382243564E-01  0.27840960051E-01  0.51100000000E-03 0.  1.
</event>
<event>
 8    1  0.1116841E+005  0.1043930E+01  0.7957747E-01            NaN
         13   -1    0    0    0    0  0.00000000000E+00  0.00000000000E+00  0.74505805969E-08  0.10566000000E+00  0.10566000000E+00 0.  1.
     999900   -1    0    0    0    0 -0.00000000000E+00 -0.00000000000E+00 -0.74505805969E-08  0.93827000000E+00  0.93827000000E+00 0.  1.
     999902    2    1    2    0    0 -0.23902351936E-01 -0.75605411551E-02  0.73375044063E-03  0.10188496770E+01  0.10185409377E+01 0.  0.
     999903    2    3    3    0    0 -0.73954833810E-01 -0.61717381286E-01  0.87487921469E-01  0.13151405819E+00  0.19064587619E-01 0.  0.
         14    1    1    2    0    0  0.23902351936E-01  0.75605411551E-02 -0.73375044063E-03  0.25080322971E-01  0.00000000000E+00 0.  1.
     999901    1    3    3    0    0  0.50052481874E-01  0.54156840131E-01 -0.86754171028E-01  0.88733561884E+00  0.88000000000E+00 0.  1.
        -11    1    4    4    0    0 -0.11470181715E-01 -0.38154299174E-02  0.55365433919E-02  0.13305525460E-01  0.51100000000E-03 0. -1.
         11    1    4    4    0    0 -0.62484652096E-01 -0.57901951369E-01  0.81951378077E-01  0.11820853273E+00  0.51100000000E-03 0.  1.
</event>
<event>
 8    1  0.1116841E+005  0.1043930E+01  0.7957747E-01            NaN
         13   -1    0    0    0    0  0.00000000000E+00  0.00000000000E+00  0.74505805969E-08  0.10566000000E+00  0.10566000000E+00 0. -1.
     999900   -1    0    0    0    0 -0.00000000000E+00 -0.00000000000E+00 -0.74505805969E-08  0.93827000000E+00  0.93827000000E+00 0.  1.
     999902    2    1    2    0    0 -0.15866441137E-01  0.11462742189E-01 -0.13950327218E-01  0.10198935684E+01  0.10196102887E+01 0.  0.
     999903    2    3    3    0    0 -0.23636963870E-01 -0.20810851254E-01  0.12275144613E+00  0.12872055454E+00  0.22566923651E-01 0.  0.
         14    1    1    2    0    0  0.15866441137E-01 -0.11462742189E-01  0.13950327218E-01  0.24036431565E-01  0.00000000000E+00 0. -1.
     999901    1    3    3    0    0  0.77705227329E-02  0.32273593443E-01 -0.13670177335E+00  0.89117301389E+00  0.88000000000E+00 0.  1.
        -11    1    4    4    0    0 -0.12153004622E-01 -0.10893025827E-01  0.25422281447E-01  0.30214351689E-01  0.51100000000E-03 0. -1.
         11    1    4    4    0    0 -0.11483959248E-01 -0.99178254269E-02  0.97329164684E-01  0.98506202852E-01  0.51100000000E-03 0.  1.
</event>
<event>
 8    1  0.1116841E+005  0.1043930E+01  0.7957747E-01            NaN
         13   -1    0    0    0    0  0.00000000000E+00  0.00000000000E+00  0.74505805969E-08  0.10566000000E+00  0.10566000000E+00 0. -1.
     999900   -1    0    0    0    0 -0.00000000000E+00 -0.00000000000E+00 -0.74505805969E-08  0.93827000000E+00  0.93827000000E+00 0. -1.
     999902    2    1    2    0    0 -0.10903276359E-01  0.12853873015E-01  0.17211481983E-01  0.10198397821E+01  0.10195552180E+01 0.  0.
     999903    2    3    3    0    0  0.25366655149E-01  0.61777552648E-01 -0.10831977444E+00  0.12884756512E+00  0.20213567201E-01 0.  0.
         14    1    1    2    0    0  0.10903276359E-01 -0.12853873015E-01 -0.17211481983E-01  0.24090217909E-01  0.00000000000E+00 0.  1.
     999901    1    3    3    0    0 -0.36269931508E-01 -0.48923679632E-01  0.12553125642E+00  0.89099221697E+00  0.88000000000E+00 0.  1.
        -11    1    4    4    0    0  0.11603589452E-01  0.19830883786E-01 -0.55087396658E-01  0.59689108148E-01  0.51100000000E-03 0.  1.
         11    1    4    4    0    0  0.13763065697E-01  0.41946668862E-01 -0.53232377780E-01  0.69158456974E-01  0.51100000000E-03 0. -1.
</event>
<event>
 8    1  0.1116841E+005  0.1043930E+01  0.7957747E-01            NaN
         13   -1    0    0    0    0  0.00000000000E+00  0.00000000000E+00  0.74505805969E-08  0.10566000000E+00  0.10566000000E+00 0.  1.
     999900   -1    0    0    0    0 -0.00000000000E+00 -0.00000000000E+00 -0.74505805969E-08  0.93827000000E+00  0.93827000000E+00 0.  1.
     999902    2    1    2    0    0  0.26237819716E-02  0.38608996935E-02  0.23633595395E-01  0.10198398026E+01  0.10195552390E+01 0.  0.
     999903    2    3    3    0    0  0.10358572275E+00  0.48056467045E-01 -0.57083783741E-01  0.12929959749E+00  0.20503696334E-01 0.  0.
         14    1    1    2    0    0 -0.26237819716E-02 -0.38608996935E-02 -0.23633595395E-01  0.24090197375E-01  0.00000000000E+00 0. -1.
     999901    1    3    3    0    0 -0.10096194078E+00 -0.44195567352E-01  0.80717379136E-01  0.89054020513E+00  0.88000000000E+00 0. -1.
        -11    1    4    4    0    0  0.75730586428E-01  0.25412399769E-01 -0.43127058365E-01  0.90780593009E-01  0.51100000000E-03 0.  1.
         11    1    4    4    0    0  0.27855136322E-01  0.22644067276E-01 -0.13956725376E-01  0.38519004485E-01  0.51100000000E-03 0. -1.
</event>
<event>
 8    1  0.1116841E+005  0.1043930E+01  0.7957747E-01            NaN
         13   -1    0    0    0    0  0.00000000000E+00  0.00000000000E+00  0.74505805969E-08  0.10566000000E+00  0.10566000000E+00 0.  1.
     999900   -1    0    0    0    0 -0.00000000000E+00 -0.00000000000E+00 -0.74505805969E-08  0.93827000000E+00  0.93827000000E+00 0.  1.
     999902    2    1    2    0    0  0.15783270510E-01  0.51669413512E-02  0.16357361109E-01  0.10206196552E+01  0.10203534233E+01 0.  0.
     999903    2    3    3    0    0 -0.58965638252E-01  0.27552340202E-01 -0.10847550062E+00  0.12839112575E+00  0.21937843864E-01 0.  0.
         14    1    1    2    0    0 -0.15783270510E-01 -0.51669413512E-02 -0.16357361109E-01  0.23310344772E-01  0.00000000000E+00 0. -1.
     999901    1    3    3    0    0  0.74748908762E-01 -0.22385398851E-01  0.12483286172E+00  0.89222852948E+00  0.88000000000E+00 0. -1.
        -11    1    4    4    0    0 -0.52406272935E-01  0.18807884107E-01 -0.10034355795E+00  0.11475732958E+00  0.51100000000E-03 0.  1.
         11    1    4    4    0    0 -0.65593653172E-02  0.87444560951E-02 -0.81319426612E-02  0.13633796177E-01  0.51100000000E-03 0. -1.
</event>
<event>
 8    1  0.1116841E+005  0.1043930E+01  0.7957747E-01            NaN
         13   -1    0    0    0    0  0.00000000000E+00  0.00000000000E+00  0.74505805969E-08  0.10566000000E+00  0.10566000000E+00 0.  1.
     999900   -1    0    0    0    0 -0.00000000000E+00 -0.00000000000E+00 -0.74505805969E-08  0.93827000000E+00  0.93827000000E+00 0.  1.
     999902    2    1    2    0    0  0.11474503440E-01 -0.21623130914E-01  0.13292642075E-02  0.10194148830E+01  0.10191200678E+01 0.  0.
     999903    2    3    3    0    0  0.88257975327E-01 -0.95683196674E-01  0.13065033446E-01  0.13289453736E+00  0.23356340191E-01 0.  0.
         14    1    1    2    0    0 -0.11474503440E-01  0.21623130914E-01 -0.13292642075E-02  0.24515117031E-01  0.00000000000E+00 0.  1.
     999901    1    3    3    0    0 -0.76783471887E-01  0.74060065760E-01 -0.11735769239E-01  0.88652034561E+00  0.88000000000E+00 0. -1.
        -11    1    4    4    0    0  0.56678973850E-01 -0.48296708703E-01  0.14788864125E-01  0.75921339367E-01  0.51100000000E-03 0. -1.
         11    1    4    4    0    0  0.31579001477E-01 -0.47386487971E-01 -0.17238306789E-02  0.56973197995E-01  0.51100000000E-03 0.  1.
</event>
<event>
 8    1  0.1116841E+005  0.1043930E+01  0.7957747E-01            NaN
         13   -1    0    0    0    0  0.00000000000E+00  0.00000000000E+00  0.74505805969E-08  0.10566000000E+00  0.10566000000E+00 0. -1.
     999900   -1    0    0    0    0 -0.00000000000E+00 -0.00000000000E+00 -0.74505805969E-08  0.93827000000E+00  0.93827000000E+00 0. -1.
     999902    2    1    2    0    0 -0.17961484785E-01  0.15119821019E-02 -0.15105562565E-01  0.10204123673E+01  0.10201413237E+01 0.  0.
     999903    2    3    3    0    0  0.17430704509E-02  0.11394516206E+00 -0.62770028036E-01  0.13176092233E+00  0.20840488999E-01 0.  0.
         14    1    1    2    0    0  0.17961484785E-01 -0.15119821019E-02  0.15105562565E-01  0.23517632661E-01  0.00000000000E+00 0. -1.
     999901    1    3    3    0    0 -0.19704555236E-01 -0.11243317996E+00  0.47664465470E-01  0.88865144501E+00  0.88000000000E+00 0.  1.
        -11    1    4    4    0    0 -0.70291863999E-02  0.73326750917E-01 -0.46606588408E-01  0.87170276273E-01  0.51100000000E-03 0.  1.
         11    1    4    4    0    0  0.87722568508E-02  0.40618411142E-01 -0.16163439628E-01  0.44590646055E-01  0.51100000000E-03 0. -1.
</event>
<event>
 8    1  0.1116841E+005  0.1043930E+01  0.7957747E-01            NaN
         13   -1    0    0    0    0  0.00000000000E+00  0.00000000000E+00  0.74505805969E-08  0.10566000000E+00  0.10566000000E+00 0.  1.
     999900   -1    0    0    0    0 -0.00000000000E+00 -0.00000000000E+00 -0.74505805969E-08  0.93827000000E+00  0.93827000000E+00 0. -1.
     999902    2    1    2    0    0 -0.14754814597E-01  0.13990664993E-01 -0.11219349626E-01  0.10207067990E+01  0.10204425767E+01 0.  0.
     999903    2    3    3    0    0 -0.45263156716E-01  0.96555089224E-01 -0.78234173110E-01  0.13378029148E+00  0.20123169146E-01 0.  0.
         14    1    1    2    0    0  0.14754814597E-01 -0.13990664993E-01  0.11219349626E-01  0.23223201045E-01  0.00000000000E+00 0. -1.
     999901    1    3    3    0    0  0.30508342119E-01 -0.82564424231E-01  0.67014823485E-01  0.88692650747E+00  0.88000000000E+00 0.  1.
        -11    1    4    4    0    0 -0.27144541795E-01  0.77893367524E-01 -0.58511599270E-01  0.10113392716E+00  0.51100000000E-03 0.  1.
         11    1    4    4    0    0 -0.18118614921E-01  0.18661721700E-01 -0.19722573840E-01  0.32646364320E-01  0.51100000000E-03 0. -1.
</event>
<event>
 8    1  0.1116841E+005  0.1043930E+01  0.7957747E-01            NaN
         13   -1    0    0    0    0  0.00000000000E+00  0.00000000000E+00  0.74505805969E-08  0.10566000000E+00  0.10566000000E+00 0. -1.
     999900   -1    0    0    0    0 -0.00000000000E+00 -0.00000000000E+00 -0.74505805969E-08  0.93827000000E+00  0.93827000000E+00 0.  1.
     999902    2    1    2    0    0 -0.68818735465E-02  0.12762653020E-01  0.18527403188E-01  0.10204032033E+01  0.10201319459E+01 0.  0.
     999903    2    3    3    0    0  0.11816387015E+00 -0.12382678606E-01 -0.45792107280E-01  0.12888442885E+00  0.19956151251E-01 0.  0.
         14    1    1    2    0    0  0.68818735465E-02 -0.12762653020E-01 -0.18527403188E-01  0.23526796733E-01  0.00000000000E+00 0.  1.
     999901    1    3    3    0    0 -0.12504574369E+00  0.25145331626E-01  0.64319510468E-01  0.89151877442E+00  0.88000000000E+00 0. -1.
        -11    1    4    4    0    0  0.26256535809E-01  0.21683384049E-02 -0.31929009094E-02  0.26543607542E-01  0.51100000000E-03 0.  1.
         11    1    4    4    0    0  0.91907334337E-01 -0.14551017011E-01 -0.42599206370E-01  0.10234082130E+00  0.51100000000E-03 0. -1.
</event>
<event>
 8    1  0.1116841E+005  0.1043930E+01  0.7957747E-01            NaN
         13   -1    0    0    0    0  0.00000000000E+00  0.00000000000E+00  0.74505805969E-08  0.10566000000E+00  0.10566000000E+00 0.  1.
     999900   -1    0    0    0    0 -0.00000000000E+00 -0.00000000000E+00 -0.74505805969E-08  0.93827000000E+00  0.93827000000E+00 0. -1.
     999902    2    1    2    0    0  0.20075138246E-01  0.10434276704E-01 -0.85058175989E-02  0.10197590621E+01  0.10194725649E+01 0.  0.
     999903    2    3    3    0    0 -0.92811202562E-01  0.82778194183E-01 -0.29314435455E-01  0.12936029362E+00  0.20213873594E-01 0.  0.
         14    1    1    2    0    0 -0.20075138246E-01 -0.10434276704E-01  0.85058175989E-02  0.24170937900E-01  0.00000000000E+00 0. -1.
     999901    1    3    3    0    0  0.11288634081E+00 -0.72343917479E-01  0.20808617856E-01  0.89039876848E+00  0.88000000000E+00 0. -1.
        -11    1    4    4    0    0 -0.14271791752E-01  0.22414783061E-01 -0.10244393101E-01  0.28483596165E-01  0.51100000000E-03 0.  1.
         11    1    4    4    0    0 -0.78539410810E-01  0.60363411122E-01 -0.19070042354E-01  0.10087669745E+00  0.51100000000E-03 0. -1.
</event>
<event>
 8    1  0.1116841E+005  0.1043930E+01  0.7957747E-01            NaN
         13   -1    0    0    0    0  0.00000000000E+00  0.00000000000E+00  0.74505805969E-08  0.10566000000E+00  0.10566000000E+00 0. -1.
     999900   -1    0    0    0    0 -0.00000000000E+00 -0.00000000000E+00 -0.74505805969E-08  0.93827000000E+00  0.93827000000E+00 0. -1.
     999902    2    1    2    0    0  0.18788440361E-01 -0.51400640173E-02  0.13978462537E-01  0.10199545299E+01  0.10196727024E+01 0.  0.
     999903    2    3    3    0    0 -0.62547713196E-01 -0.10951665904E+00  0.30007949786E-01  0.12991689708E+00  0.84739637929E-02 0.  0.
         14    1    1    2    0    0 -0.18788440361E-01  0.51400640173E-02 -0.13978462537E-01  0.23975470052E-01  0.00000000000E+00 0.  1.
     999901    1    3    3    0    0  0.81336153557E-01  0.10437659502E+00 -0.16029487249E-01  0.89003763287E+00  0.88000000000E+00 0. -1.
        -11    1    4    4    0    0 -0.60262776094E-01 -0.10351283275E+00  0.26895876238E-01  0.12276057188E+00  0.51100000000E-03 0.  1.
         11    1    4    4    0    0 -0.22849371013E-02 -0.60038262861E-02  0.31120735480E-02  0.71563252022E-02  0.51100000000E-03 0. -1.
</event>
<event>
 8    1  0.1116841E+005  0.1043930E+01  0.7957747E-01            NaN
         13   -1    0    0    0    0  0.00000000000E+00  0.00000000000E+00  0.74505805969E-08  0.10566000000E+00  0.10566000000E+00 0. -1.
     999900   -1    0    0    0    0 -0.00000000000E+00 -0.00000000000E+00 -0.74505805969E-08  0.93827000000E+00  0.93827000000E+00 0. -1.
     999902    2    1    2    0    0 -0.10041607830E-01 -0.22304387215E-01  0.89546463435E-03  0.10194530428E+01  0.10191591559E+01 0.  0.
     999903    2    3    3    0    0  0.47958393066E-01 -0.25018812508E-01 -0.11628287594E+00  0.12978898727E+00  0.19938042377E-01 0.  0.
         14    1    1    2    0    0  0.10041607830E-01  0.22304387215E-01 -0.89546463435E-03  0.24476957200E-01  0.00000000000E+00 0.  1.
     999901    1    3    3    0    0 -0.58000000896E-01  0.27144252922E-02  0.11717834058E+00  0.88966405553E+00  0.88000000000E+00 0.  1.
        -11    1    4    4    0    0  0.21935822339E-01 -0.12107013342E-01 -0.32039569147E-01  0.40676223840E-01  0.51100000000E-03 0.  1.
         11    1    4    4    0    0  0.26022570727E-01 -0.12911799166E-01 -0.84243306794E-01  0.89112763426E-01  0.51100000000E-03 0. -1.
</event>
<event>
 8    1  0.1116841E+005  0.1043930E+01  0.7957747E-01            NaN
         13   -1    0    0    0    0  0.00000000000E+00  0.00000000000E+00  0.74505805969E-08  0.10566000000E+00  0.10566000000E+00 0. -1.
     999900   -1    0    0    0    0 -0.00000000000E+00 -0.00000000000E+00 -0.74505805969E-08  0.93827000000E+00  0.93827000000E+00 0.  1.
     999902    2    1    2    0    0  0.79501092175E-02 -0.21836328027E-01  0.14353336107E-01  0.10166161259E+01  0.10162491328E+01 0.  0.
     999903    2    3    3    0    0  0.51626565399E-01  0.66500936121E-01 -0.89738674293E-01  0.12501854201E+00  0.22111748509E-01 0.  0.
         14    1    1    2    0    0 -0.79501092175E-02  0.21836328027E-01 -0.14353336107E-01  0.27313874051E-01  0.00000000000E+00 0.  1.
     999901    1    3    3    0    0 -0.43676456182E-01 -0.88337264147E-01  0.10409201040E+00  0.89159758394E+00  0.88000000000E+00 0. -1.
        -11    1    4    4    0    0  0.36540645415E-01  0.57757405943E-01 -0.79300937481E-01  0.10469019302E+00  0.51100000000E-03 0.  1.
         11    1    4    4    0    0  0.15085919985E-01  0.87435301773E-02 -0.10437736811E-01  0.20328348986E-01  0.51100000000E-03 0. -1.
</event>
<event>
 8    1  0.1116841E+005  0.1043930E+01  0.7957747E-01            NaN
         13   -1    0    0    0    0  0.00000000000E+00  0.00000000000E+00  0.74505805969E-08  0.10566000000E+00  0.10566000000E+00 0.  1.
     999900   -1    0    0    0    0 -0.00000000000E+00 -0.00000000000E+00 -0.74505805969E-08  0.93827000000E+00  0.93827000000E+00 0.  1.
     999902    2    1    2    0    0  0.11159180541E-01  0.22339410244E-01  0.31038527741E-02  0.10187663265E+01  0.10184555060E+01 0.  0.
     999903    2    3    3    0    0  0.11355701870E+00  0.62241137125E-01 -0.13003230659E-01  0.13178441961E+00  0.20709746421E-01 0.  0.
         14    1    1    2    0    0 -0.11159180541E-01 -0.22339410244E-01 -0.31038527741E-02  0.25163673468E-01  0.00000000000E+00 0. -1.
     999901    1    3    3    0    0 -0.10239783816E+00 -0.39901726882E-01  0.16107083433E-01  0.88698190692E+00  0.88000000000E+00 0.  1.
        -11    1    4    4    0    0  0.65485253854E-01  0.40884624836E-01  0.15019880253E-02  0.77216501535E-01  0.51100000000E-03 0. -1.
         11    1    4    4    0    0  0.48071764851E-01  0.21356512289E-01 -0.14505218685E-01  0.54567918076E-01  0.51100000000E-03 0.  1.
</event>
<event>
 8    1  0.1116841E+005  0.1043930E+01  0.7957747E-01            NaN
         13   -1    0    0    0    0  0.00000000000E+00  0.00000000000E+00  0.74505805969E-08  0.10566000000E+00  0.10566000000E+00 0. -1.
     999900   -1    0    0    0    0 -0.00000000000E+00 -0.00000000000E+00 -0.74505805969E-08  0.93827000000E+00  0.93827000000E+00 0.  1.
     999902    2    1    2    0    0  0.16032755768E-01 -0.42825952516E-02 -0.16568962614E-01  0.10204796183E+01  0.10202101406E+01 0.  0.
     999903    2    3    3    0    0  0.87342238811E-01  0.72562943682E-01  0.61850817936E-01  0.13079431371E+00  0.19687085701E-01 0.  0.
         14    1    1    2    0    0 -0.16032755768E-01  0.42825952516E-02  0.16568962614E-01  0.23450381697E-01  0.00000000000E+00 0. -1.
     999901    1    3    3    0    0 -0.71309483043E-01 -0.76845538934E-01 -0.78419780550E-01  0.88968530459E+00  0.88000000000E+00 0.  1.
        -11    1    4    4    0    0  0.54956025935E-01  0.56197391799E-01  0.37493867937E-01  0.87088247689E-01  0.51100000000E-03 0. -1.
         11    1    4    4    0    0  0.32386212876E-01  0.16365551883E-01  0.24356949999E-01  0.43706066022E-01  0.51100000000E-03 0.  1.
</event>
<event>
 8    1  0.1116841E+005  0.1043930E+01  0.7957747E-01            NaN
         13   -1    0    0    0    0  0.00000000000E+00  0.00000000000E+00  0.74505805969E-08  0.10566000000E+00  0.10566000000E+00 0. -1.
     999900   -1    0    0    0    0 -0.00000000000E+00 -0.00000000000E+00 -0.74505805969E-08  0.93827000000E+00  0.93827000000E+00 0. -1.
     999902    2    1    2    0    0 -0.25837435245E-02  0.20528774792E-01  0.96924396617E-02  0.10210815928E+01  0.10208259251E+01 0.  0.
     999903    2    3    3    0    0  0.12524232403E+00 -0.29477753696E-01  0.59536006817E-02  0.13043343816E+00  0.20563529305E-01 0.  0.
         14    1    1    2    0    0  0.25837435245E-02 -0.20528774792E-01 -0.96924396617E-02  0.22848407202E-01  0.00000000000E+00 0.  1.
     999901    1    3    3    0    0 -0.12782606756E+00  0.50006528488E-01  0.37388389800E-02  0.89064815464E+00  0.88000000000E+00 0.  1.
        -11    1    4    4    0    0  0.96180380410E-01 -0.18577541622E-01 -0.33794963579E-02  0.98017716486E-01  0.51100000000E-03 0. -1.
         11    1    4    4    0    0  0.29061943624E-01 -0.10900212074E-01  0.93330970395E-02  0.32415721676E-01  0.51100000000E-03 0.  1.
</event>
<event>
 8    1  0.1116841E+005  0.1043930E+01  0.7957747E-01            NaN
         13   -1    0    0    0    0  0.00000000000E+00  0.00000000000E+00  0.74505805969E-08  0.10566000000E+00  0.10566000000E+00 0. -1.
     999900   -1    0    0    0    0 -0.00000000000E+00 -0.00000000000E+00 -0.74505805969E-08  0.93827000000E+00  0.93827000000E+00 0. -1.
     999902    2    1    2    0    0 -0.11256057033E-01 -0.21718720530E-01 -0.74376354809E-02  0.10183620501E+01  0.10180410331E+01 0.  0.
     999903    2    3    3    0    0  0.86287204666E-01 -0.17625504236E-01  0.90072142395E-01  0.12760978424E+00  0.20374643788E-01 0.  0.
         14    1    1    2    0    0  0.11256057033E-01  0.21718720530E-01  0.74376354809E-02  0.25567949917E-01  0.00000000000E+00 0.  1.
     999901    1    3    3    0    0 -0.97543261700E-01 -0.40932162935E-02 -0.97509777876E-01  0.89075226584E+00  0.88000000000E+00 0.  1.
        -11    1    4    4    0    0  0.16101635681E-01  0.46127753667E-02  0.15907803998E-01  0.23105404503E-01  0.51100000000E-03 0.  1.
         11    1    4    4    0    0  0.70185568985E-01 -0.22238279603E-01  0.74164338397E-01  0.10450437974E+00  0.51100000000E-03 0. -1.
</event>
<event>
 8    1  0.1116841E+005  0.1043930E+01  0.7957747E-01            NaN
         13   -1    0    0    0    0  0.00000000000E+00  0.00000000000E+00  0.74505805969E-08  0.10566000000E+00  0.10566000000E+00 0.  1.
     999900   -1    0    0    0    0 -0.00000000000E+00 -0.00000000000E+00 -0.74505805969E-08  0.93827000000E+00  0.93827000000E+00 0.  1.
     999902    2    1    2    0    0 -0.85386336699E-02 -0.10987946042E-01 -0.19220815271E-01  0.10202006308E+01  0.10199246267E+01 0.  0.
     999903    2    3    3    0    0  0.10480497609E+00 -0.62680053077E-01  0.38509139063E-01  0.12955390205E+00  0.19707553798E-01 0.  0.
         14    1    1    2    0    0  0.85386336699E-02  0.10987946042E-01  0.19220815271E-01  0.23729369205E-01  0.00000000000E+00 0. -1.
     999901    1    3    3    0    0 -0.11334360976E+00  0.51692107034E-01 -0.57729954334E-01  0.89064672875E+00  0.88000000000E+00 0. -1.
        -11    1    4    4    0    0  0.42545275799E-01 -0.23520751151E-01  0.54763356173E-02  0.48924202603E-01  0.51100000000E-03 0.  1.
         11    1    4    4    0    0  0.62259700294E-01 -0.39159301925E-01  0.33032803445E-01  0.80629699444E-01  0.51100000000E-03 0. -1.
</event>
<event>
 8    1  0.1116841E+005  0.1043930E+01  0.7957747E-01            NaN
         13   -1    0    0    0    0  0.00000000000E+00  0.00000000000E+00  0.74505805969E-08  0.10566000000E+00  0.10566000000E+00 0. -1.
     999900   -1    0    0    0    0 -0.00000000000E+00 -0.00000000000E+00 -0.74505805969E-08  0.93827000000E+00  0.93827000000E+00 0.  1.
     999902    2    1    2    0    0 -0.17637367804E-01 -0.34791637176E-02 -0.15623743701E-01  0.10201123030E+01  0.10198342160E+01 0.  0.
     999903    2    3    3    0    0 -0.75304279653E-01 -0.38786711846E-01 -0.10095931537E+00  0.13340251086E+00  0.20695482492E-01 0.  0.
         14    1    1    2    0    0  0.17637367804E-01  0.34791637176E-02  0.15623743701E-01  0.23817697002E-01  0.00000000000E+00 0. -1.
     999901    1    3    3    0    0  0.57666911849E-01  0.35307548129E-01  0.85335571664E-01  0.88670979214E+00  0.88000000000E+00 0. -1.
        -11    1    4    4    0    0 -0.62591860898E-01 -0.28756014108E-01 -0.91869130077E-01  0.11482529155E+00  0.51100000000E-03 0. -1.
         11    1    4    4    0    0 -0.12712418755E-01 -0.10030697738E-01 -0.90901852883E-02  0.18577219310E-01  0.51100000000E-03 0.  1.
</event>
<event>
 8    1  0.1116841E+005  0.1043930E+01  0.7957747E-01            NaN
         13   -1    0    0    0    0  0.00000000000E+00  0.00000000000E+00  0.74505805969E-08  0.10566000000E+00  0.10566000000E+00 0.  1.
     999900   -1    0    0    0    0 -0.00000000000E+00 -0.00000000000E+00 -0.74505805969E-08  0.93827000000E+00  0.93827000000E+00 0.  1.
     999902    2    1    2    0    0  0.18367332035E-01 -0.71176156228E-02  0.15434874966E-01  0.10189049185E+01  0.10185975546E+01 0.  0.
     999903    2    3    3    0    0 -0.11683782617E+00 -0.46863190109E-01  0.28169826766E-02  0.12760286157E+00  0.20671687843E-01 0.  0.
         14    1    1    2    0    0 -0.18367332035E-01  0.71176156228E-02 -0.15434874966E-01  0.25025081488E-01  0.00000000000E+00 0. -1.
     999901    1    3    3    0    0  0.13520515821E+00  0.39745574487E-01  0.12617892290E-01  0.89130205694E+00  0.88000000000E+00 0.  1.
        -11    1    4    4    0    0 -0.51889316828E-01 -0.31913199277E-01  0.89719192308E-03  0.60926345396E-01  0.51100000000E-03 0.  1.
         11    1    4    4    0    0 -0.64948509345E-01 -0.14949990833E-01  0.19197907535E-02  0.66676516177E-01  0.51100000000E-03 0. -1.
</event>
<event>
 8    1  0.1116841E+005  0.1043930E+01  0.7957747E-01            NaN
         13   -1    0    0    0    0  0.00000000000E+00  0.00000000000E+00  0.74505805969E-08  0.10566000000E+00  0.10566000000E+00 0.  1.
     999900   -1    0    0    0    0 -0.00000000000E+00 -0.00000000000E+00 -0.74505805969E-08  0.93827000000E+00  0.93827000000E+00 0.  1.
     999902    2    1    2    0    0  0.45565926254E-02  0.19509973075E-01  0.10972569257E-01  0.10210870829E+01  0.10208315395E+01 0.  0.
     999903    2    3    3    0    0 -0.17800688446E-01 -0.96061192229E-01  0.83896897608E-01  0.13025909729E+00  0.19599128498E-01 0.  0.
         14    1    1    2    0    0 -0.45565926254E-02 -0.19509973075E-01 -0.10972569257E-01  0.22842917104E-01  0.00000000000E+00 0. -1.
     999901    1    3    3    0    0  0.22357281071E-01  0.11557116530E+00 -0.72924328351E-01  0.89082798560E+00  0.88000000000E+00 0. -1.
        -11    1    4    4    0    0 -0.14908612568E-01 -0.94980516598E-01  0.78953942463E-01  0.12440880762E+00  0.51100000000E-03 0.  1.
         11    1    4    4    0    0 -0.28920758781E-02 -0.10806756314E-02  0.49429551453E-02  0.58502896744E-02  0.51100000000E-03 0. -1.
</event>
<event>
 8    1  0.1116841E+005  0.1043930E+01  0.7957747E-01            NaN
         13   -1    0    0    0    0  0.00000000000E+00  0.00000000000E+00  0.74505805969E-08  0.10566000000E+00  0.10566000000E+00 0. -1.
     999900   -1    0    0    0    0 -0.00000000000E+00 -0.00000000000E+00 -0.74505805969E-08  0.93827000000E+00  0.93827000000E+00 0.  1.
     999902    2    1    2    0    0  0.19130922964E-01  0.13884332204E-01 -0.22471555714E-02  0.10201851774E+01  0.10199088094E+01 0.  0.
     999903    2    3    3    0    0  0.42665144300E-01  0.32267441413E-01 -0.11895714108E+00  0.13197742069E+00  0.20142885749E-01 0.  0.
         14    1    1    2    0    0 -0.19130922964E-01 -0.13884332204E-01  0.22471555714E-02  0.23744822644E-01  0.00000000000E+00 0.  1.
     999901    1    3    3    0    0 -0.23534221336E-01 -0.18383109209E-01  0.11670998551E+00  0.88820775666E+00  0.88000000000E+00 0. -1.
        -11    1    4    4    0    0  0.23399922254E-02  0.11555862813E-01 -0.23103397546E-01  0.25943045854E-01  0.51100000000E-03 0.  1.
         11    1    4    4    0    0  0.40325152075E-01  0.20711578600E-01 -0.95853743531E-01  0.10603437484E+00  0.51100000000E-03 0. -1.
</event>
<event>
 8    1  0.1116841E+005  0.1043930E+01  0.7957747E-01            NaN
         13   -1    0    0    0    0  0.00000000000E+00  0.00000000000E+00  0.74505805969E-08  0.10566000000E+00  0.10566000000E+00 0. -1.
     999900   -1    0    0    0    0 -0.00000000000E+00 -0.00000000000E+00 -0.74505805969E-08  0.93827000000E+00  0.93827000000E+00 0. -1.
     999902    2    1    2    0    0  0.30758226605E-02 -0.22919622553E-01 -0.22648012636E-02  0.10206942709E+01  0.10204297602E+01 0.  0.
     999903    2    3    3    0    0  0.11919095146E+00 -0.54524532751E-01  0.24197236406E-02  0.13249185124E+00  0.19204895223E-01 0.  0.
         14    1    1    2    0    0 -0.30758226605E-02  0.22919622553E-01  0.22648012636E-02  0.23235729121E-01  0.00000000000E+00 0.  1.
     999901    1    3    3    0    0 -0.11611512880E+00  0.31604910197E-01 -0.46845249043E-02  0.88820241964E+00  0.88000000000E+00 0. -1.
        -11    1    4    4    0    0  0.24053598153E-01 -0.11096224828E-01 -0.72363385588E-02  0.27465023326E-01  0.51100000000E-03 0.  1.
         11    1    4    4    0    0  0.95137353305E-01 -0.43428307923E-01  0.96560621995E-02  0.10502682791E+00  0.51100000000E-03 0. -1.
</event>
<event>
 8    1  0.1116841E+005  0.1043930E+01  0.7957747E-01            NaN
         13   -1    0    0    0    0  0.00000000000E+00  0.00000000000E+00  0.74505805969E-08  0.10566000000E+00  0.10566000000E+00 0.  1.
     999900   -1    0    0    0    0 -0.00000000000E+00 -0.00000000000E+00 -0.74505805969E-08  0.93827000000E+00  0.93827000000E+00 0.  1.
     999902    2    1    2    0    0 -0.85877443041E-02 -0.14953143388E-01  0.15719913706E-01  0.10205963004E+01  0.10203295286E+01 0.  0.
     999903    2    3    3    0    0  0.72535393720E-01  0.89743851327E-01  0.55863379117E-01  0.12977986476E+00  0.20168142618E-01 0.  0.
         14    1    1    2    0    0  0.85877443041E-02  0.14953143388E-01 -0.15719913706E-01  0.23333699585E-01  0.00000000000E+00 0. -1.
     999901    1    3    3    0    0 -0.81123138024E-01 -0.10469699471E+00 -0.40143465411E-01  0.89081643566E+00  0.88000000000E+00 0.  1.
        -11    1    4    4    0    0  0.23309850110E-01  0.33678321458E-01  0.30155178416E-01  0.50864273854E-01  0.51100000000E-03 0.  1.
         11    1    4    4    0    0  0.49225543610E-01  0.56065529869E-01  0.25708200701E-01  0.78915590902E-01  0.51100000000E-03 0. -1.
</event>
<event>
 8    1  0.1116841E+005  0.1043930E+01  0.7957747E-01            NaN
         13   -1    0    0    0    0  0.00000000000E+00  0.00000000000E+00  0.74505805969E-08  0.10566000000E+00  0.10566000000E+00 0.  1.
     999900   -1    0    0    0    0 -0.00000000000E+00 -0.00000000000E+00 -0.74505805969E-08  0.93827000000E+00  0.93827000000E+00 0. -1.
     999902    2    1    2    0    0  0.57010390357E-02  0.17192640040E-01 -0.15198893407E-01  0.10202848086E+01  0.10200107820E+01 0.  0.
     999903    2    3    3    0    0  0.10678039923E+00  0.54979202658E-01  0.50084091385E-01  0.13129283476E+00  0.17453534437E-01 0.  0.
         14    1    1    2    0    0 -0.57010390357E-02 -0.17192640040E-01  0.15198893407E-01  0.23645191444E-01  0.00000000000E+00 0.  1.
     999901    1    3    3    0    0 -0.10107936019E+00 -0.37786562618E-01 -0.65282984793E-01  0.88899197380E+00  0.88000000000E+00 0. -1.
        -11    1    4    4    0    0  0.75667128899E-01  0.42500072737E-01  0.43682503299E-01  0.97160654557E-01  0.51100000000E-03 0.  1.
         11    1    4    4    0    0  0.31113270331E-01  0.12479129922E-01  0.64015880868E-02  0.34132180202E-01  0.51100000000E-03 0. -1.
</event>
<event>
 8    1  0.1116841E+005  0.1043930E+01  0.7957747E-01            NaN
         13   -1    0    0    0    0  0.00000000000E+00  0.00000000000E+00  0.74505805969E-08  0.10566000000E+00  0.10566000000E+00 0. -1.
     999900   -1    0    0    0    0 -0.00000000000E+00 -0.00000000000E+00 -0.74505805969E-08  0.93827000000E+00  0.93827000000E+00 0.  1.
     999902    2    1    2    0    0  0.13952515021E-01  0.18220710312E-01  0.64452715715E-02  0.10200928759E+01  0.10198143297E+01 0.  0.
     999903    2    3    3    0    0  0.37228349791E-01 -0.99463455156E-01  0.71654931654E-01  0.12956290613E+00  0.19318086746E-01 0.  0.
         14    1    1    2    0    0 -0.13952515021E-01 -0.18220710312E-01 -0.64452715715E-02  0.23837124099E-01  0.00000000000E+00 0.  1.
     999901    1    3    3    0    0 -0.23275834770E-01  0.11768416547E+00 -0.65209660083E-01  0.89052996977E+00  0.88000000000E+00 0.  1.
        -11    1    4    4    0    0  0.38696211044E-02 -0.27380209139E-01  0.25934865654E-01  0.37914749076E-01  0.51100000000E-03 0. -1.
         11    1    4    4    0    0  0.33358728686E-01 -0.72083246017E-01  0.45720066001E-01  0.91648157057E-01  0.51100000000E-03 0.  1.
</event>
<event>
 8    1  0.1116841E+005  0.1043930E+01  0.7957747E-01            NaN
         13   -1    0    0    0    0  0.00000000000E+00  0.00000000000E+00  0.74505805969E-08  0.10566000000E+00  0.10566000000E+00 0.  1.
     999900   -1    0    0    0    0 -0.00000000000E+00 -0.00000000000E+00 -0.74505805969E-08  0.93827000000E+00  0.93827000000E+00 0.  1.
     999902    2    1    2    0    0 -0.47421109899E-02  0.24374176701E-01 -0.18474429500E-01  0.10129801591E+01  0.10125072395E+01 0.  0.
     999903    2    3    3    0    0 -0.26694693336E-01  0.11582414041E+00  0.37586144618E-01  0.12619506692E+00  0.19612202723E-01 0.  0.
         14    1    1    2    0    0  0.47421109899E-02 -0.24374176701E-01  0.18474429500E-01  0.30949840902E-01  0.00000000000E+00 0. -1.
     999901    1    3    3    0    0  0.21952582346E-01 -0.91449963704E-01 -0.56060574118E-01  0.88678509217E+00  0.88000000000E+00 0. -1.
        -11    1    4    4    0    0 -0.16914434641E-01  0.38902041783E-01  0.18838709364E-01  0.46417938834E-01  0.51100000000E-03 0.  1.
         11    1    4    4    0    0 -0.97802586953E-02  0.76922098622E-01  0.18747435254E-01  0.79777128090E-01  0.51100000000E-03 0. -1.
</event>
<event>
 8    1  0.1116841E+005  0.1043930E+01  0.7957747E-01            NaN
         13   -1    0    0    0    0  0.00000000000E+00  0.00000000000E+00  0.74505805969E-08  0.10566000000E+00  0.10566000000E+00 0.  1.
     999900   -1    0    0    0    0 -0.00000000000E+00 -0.00000000000E+00 -0.74505805969E-08  0.93827000000E+00  0.93827000000E+00 0. -1.
     999902    2    1    2    0    0  0.11981031372E-01 -0.15281952088E-01  0.11636154524E-01  0.10212919068E+01  0.10210409765E+01 0.  0.
     999903    2    3    3    0    0 -0.76708441651E-01 -0.10410963422E+00  0.20089348928E-01  0.13234441889E+00  0.19709447278E-01 0.  0.
         14    1    1    2    0    0 -0.11981031372E-01  0.15281952088E-01 -0.11636154524E-01  0.22638093216E-01  0.00000000000E+00 0.  1.
     999901    1    3    3    0    0  0.88689473024E-01  0.88827682135E-01 -0.84531944040E-02  0.88894748789E+00  0.88000000000E+00 0. -1.
        -11    1    4    4    0    0 -0.16973972982E-01 -0.38206658508E-01  0.46757700151E-02  0.42071230780E-01  0.51100000000E-03 0. -1.
         11    1    4    4    0    0 -0.59734468670E-01 -0.65902975715E-01  0.15413578913E-01  0.90273188108E-01  0.51100000000E-03 0.  1.
</event>
<event>
 8    1  0.1116841E+005  0.1043930E+01  0.7957747E-01            NaN
         13   -1    0    0    0    0  0.00000000000E+00  0.00000000000E+00  0.74505805969E-08  0.10566000000E+00  0.10566000000E+00 0. -1.
     999900   -1    0    0    0    0 -0.00000000000E+00 -0.00000000000E+00 -0.74505805969E-08  0.93827000000E+00  0.93827000000E+00 0.  1.
     999902    2    1    2    0    0 -0.53021495698E-02  0.14278578442E-01  0.16574357072E-01  0.10214200043E+01  0.10211719372E+01 0.  0.
     999903    2    3    3    0    0  0.92715623515E-01 -0.24491199437E-01 -0.84499172586E-01  0.12938500619E+00  0.20108803200E-01 0.  0.
         14    1    1    2    0    0  0.53021495698E-02 -0.14278578442E-01 -0.16574357072E-01  0.22509995663E-01  0.00000000000E+00 0.  1.
     999901    1    3    3    0    0 -0.98017773085E-01  0.38769777879E-01  0.10107352966E+00  0.89203499814E+00  0.88000000000E+00 0. -1.
        -11    1    4    4    0    0  0.78896732818E-01 -0.13161602828E-01 -0.66567014057E-01  0.10406416636E+00  0.51100000000E-03 0.  1.
         11    1    4    4    0    0  0.13818890697E-01 -0.11329596609E-01 -0.17932158529E-01  0.25320839834E-01  0.51100000000E-03 0. -1.
</event>
<event>
 8    1  0.1116841E+005  0.1043930E+01  0.7957747E-01            NaN
         13   -1    0    0    0    0  0.00000000000E+00  0.00000000000E+00  0.74505805969E-08  0.10566000000E+00  0.10566000000E+00 0.  1.
     999900   -1    0    0    0    0 -0.00000000000E+00 -0.00000000000E+00 -0.74505805969E-08  0.93827000000E+00  0.93827000000E+00 0. -1.
     999902    2    1    2    0    0  0.62252691868E-02  0.18339234325E-01 -0.12820535460E-01  0.10207039883E+01  0.10204397013E+01 0.  0.
     999903    2    3    3    0    0 -0.22075123892E-01 -0.63967103002E-02  0.12578556571E+00  0.12906256342E+00  0.17518782405E-01 0.  0.
         14    1    1    2    0    0 -0.62252691868E-02 -0.18339234325E-01  0.12820535460E-01  0.23226011744E-01  0.00000000000E+00 0. -1.
     999901    1    3    3    0    0  0.28300393078E-01  0.24735944625E-01 -0.13860610117E+00  0.89164142484E+00  0.88000000000E+00 0. -1.
        -11    1    4    4    0    0 -0.15506234527E-01 -0.10413324589E-01  0.10897777145E+00  0.11056806243E+00  0.51100000000E-03 0. -1.
         11    1    4    4    0    0 -0.65688893645E-02  0.40166142893E-02  0.16807794257E-01  0.18494500983E-01  0.51100000000E-03 0.  1.
</event>
<event>
 8    1  0.1116841E+005  0.1043930E+01  0.7957747E-01            NaN
         13   -1    0    0    0    0  0.00000000000E+00  0.00000000000E+00  0.74505805969E-08  0.10566000000E+00  0.10566000000E+00 0.  1.
     999900   -1    0    0    0    0 -0.00000000000E+00 -0.00000000000E+00 -0.74505805969E-08  0.93827000000E+00  0.93827000000E+00 0.  1.
     999902    2    1    2    0    0  0.11750834186E-01 -0.19956636436E-01 -0.51959242012E-02  0.10201950665E+01  0.10199189314E+01 0.  0.
     999903    2    3    3    0    0 -0.70409076154E-01  0.10200191853E+00 -0.24318182281E-01  0.12778832021E+00  0.19407508981E-01 0.  0.
         14    1    1    2    0    0 -0.11750834186E-01  0.19956636436E-01  0.51959242012E-02  0.23734933542E-01  0.00000000000E+00 0. -1.
     999901    1    3    3    0    0  0.82159910340E-01 -0.12195855496E+00  0.19122258080E-01  0.89240674625E+00  0.88000000000E+00 0. -1.
        -11    1    4    4    0    0 -0.59113961524E-01  0.89367856590E-01 -0.14315767146E-01  0.10810308297E+00  0.51100000000E-03 0.  1.
         11    1    4    4    0    0 -0.11295114630E-01  0.12634061936E-01 -0.10002415135E-01  0.19685237236E-01  0.51100000000E-03 0. -1.
</event>
<event>
 8    1  0.1116841E+005  0.1043930E+01  0.7957747E-01            NaN
         13   -1    0    0    0    0  0.00000000000E+00  0.00000000000E+00  0.74505805969E-08  0.10566000000E+00  0.10566000000E+00 0.  1.
     999900   -1    0    0    0    0 -0.00000000000E+00 -0.00000000000E+00 -0.74505805969E-08  0.93827000000E+00  0.93827000000E+00 0.  1.
     999902    2    1    2    0    0 -0.12439639093E-01  0.14637622777E-02 -0.19866868105E-01  0.10204442667E+01  0.10201739664E+01 0.  0.
     999903    2    3    3    0    0 -0.85838872875E-01  0.91998462760E-01 -0.36430567655E-01  0.13260512830E+00  0.20613212895E-01 0.  0.
         14    1    1    2    0    0  0.12439639093E-01 -0.14637622777E-02  0.19866868105E-01  0.23485733309E-01  0.00000000000E+00 0.  1.
     999901    1    3    3    0    0  0.73399233782E-01 -0.90534700482E-01  0.16563699550E-01  0.88783913839E+00  0.88000000000E+00 0.  1.
        -11    1    4    4    0    0 -0.49948776315E-01  0.54051890898E-01 -0.31775272769E-01  0.80164931520E-01  0.51100000000E-03 0.  1.
         11    1    4    4    0    0 -0.35890096560E-01  0.37946571862E-01 -0.46552948858E-02  0.52440196783E-01  0.51100000000E-03 0. -1.
</event>
<event>
 8    1  0.1116841E+005  0.1043930E+01  0.7957747E-01            NaN
         13   -1    0    0    0    0  0.00000000000E+00  0.00000000000E+00  0.74505805969E-08  0.10566000000E+00  0.10566000000E+00 0.  1.
     999900   -1    0    0    0    0 -0.00000000000E+00 -0.00000000000E+00 -0.74505805969E-08  0.93827000000E+00  0.93827000000E+00 0. -1.
     999902    2    1    2    0    0 -0.11125438137E-01 -0.24245639490E-02 -0.21434988945E-01  0.10196583574E+01  0.10193694390E+01 0.  0.
     999903    2    3    3    0    0  0.10734057102E+00 -0.59926604761E-01  0.29981454350E-01  0.12837594947E+00  0.21640255376E-01 0.  0.
         14    1    1    2    0    0  0.11125438137E-01  0.24245639490E-02  0.21434988945E-01  0.24271642614E-01  0.00000000000E+00 0.  1.
     999901    1    3    3    0    0 -0.11846600915E+00  0.57502040812E-01 -0.51416443295E-01  0.89128240792E+00  0.88000000000E+00 0. -1.
        -11    1    4    4    0    0  0.85184682369E-01 -0.56335256613E-01  0.21440905674E-01  0.10435547329E+00  0.51100000000E-03 0. -1.
         11    1    4    4    0    0  0.22155888648E-01 -0.35913481475E-02  0.85405486753E-02  0.24020476181E-01  0.51100000000E-03 0.  1.
</event>
<event>
 8    1  0.1116841E+005  0.1043930E+01  0.7957747E-01            NaN
         13   -1    0    0    0    0  0.00000000000E+00  0.00000000000E+00  0.74505805969E-08  0.10566000000E+00  0.10566000000E+00 0. -1.
     999900   -1    0    0    0    0 -0.00000000000E+00 -0.00000000000E+00 -0.74505805969E-08  0.93827000000E+00  0.93827000000E+00 0. -1.
     999902    2    1    2    0    0 -0.12412908847E-01  0.12760859554E-01 -0.30107966285E-03  0.10261252116E+01  0.10259707302E+01 0.  0.
     999903    2    3    3    0    0 -0.21129931637E-01  0.13141995887E+00 -0.27674299059E-01  0.13769667674E+00  0.21836399792E-01 0.  0.
         14    1    1    2    0    0  0.12412908847E-01 -0.12760859554E-01  0.30107966285E-03  0.17804788445E-01  0.00000000000E+00 0.  1.
     999901    1    3    3    0    0  0.87170227903E-02 -0.11865909932E+00  0.27373219396E-01  0.88842853482E+00  0.88000000000E+00 0. -1.
        -11    1    4    4    0    0 -0.20933671651E-01  0.62408427857E-01 -0.11721348439E-01  0.66863155823E-01  0.51100000000E-03 0. -1.
         11    1    4    4    0    0 -0.19625998656E-03  0.69011531013E-01 -0.15952950620E-01  0.70833520915E-01  0.51100000000E-03 0.  1.
</event>
<event>
 8    1  0.1116841E+005  0.1043930E+01  0.7957747E-01            NaN
         13   -1    0    0    0    0  0.00000000000E+00  0.00000000000E+00  0.74505805969E-08  0.10566000000E+00  0.10566000000E+00 0. -1.
     999900   -1    0    0    0    0 -0.00000000000E+00 -0.00000000000E+00 -0.74505805969E-08  0.93827000000E+00  0.93827000000E+00 0. -1.
     999902    2    1    2    0    0  0.32875350362E-02  0.12623395327E-01 -0.20113827129E-01  0.10199565973E+01  0.10196748189E+01 0.  0.
     999903    2    3    3    0    0  0.84938161289E-01  0.84309234903E-01 -0.53620121462E-01  0.13264134545E+00  0.19901526710E-01 0.  0.
         14    1    1    2    0    0 -0.32875350362E-02 -0.12623395327E-01  0.20113827129E-01  0.23973402719E-01  0.00000000000E+00 0. -1.
     999901    1    3    3    0    0 -0.81650626253E-01 -0.71685839577E-01  0.33506294333E-01  0.88731525183E+00  0.88000000000E+00 0.  1.
        -11    1    4    4    0    0  0.53981974629E-01  0.40104241470E-01 -0.32428712140E-01  0.74661142911E-01  0.51100000000E-03 0. -1.
         11    1    4    4    0    0  0.30956186659E-01  0.44204993433E-01 -0.21191409322E-01  0.57980202543E-01  0.51100000000E-03 0.  1.
</event>
<event>
 8    1  0.1116841E+005  0.1043930E+01  0.7957747E-01            NaN
         13   -1    0    0    0    0  0.00000000000E+00  0.00000000000E+00  0.74505805969E-08  0.10566000000E+00  0.10566000000E+00 0.  1.
     999900   -1    0    0    0    0 -0.00000000000E+00 -0.00000000000E+00 -0.74505805969E-08  0.93827000000E+00  0.93827000000E+00 0. -1.
     999902    2    1    2    0    0  0.42837877919E-02  0.12196022479E-01  0.20777506849E-01  0.10194596385E+01  0.10191659119E+01 0.  0.
     999903    2    3    3    0    0 -0.65418296491E-01 -0.92335476427E-01  0.60727586241E-01  0.12963874433E+00  0.17690974486E-01 0.  0.
         14    1    1    2    0    0 -0.42837877919E-02 -0.12196022479E-01 -0.20777506849E-01  0.24470361522E-01  0.00000000000E+00 0. -1.
     999901    1    3    3    0    0  0.69702084283E-01  0.10453149891E+00 -0.39950079392E-01  0.88982089415E+00  0.88000000000E+00 0. -1.
        -11    1    4    4    0    0 -0.60097499516E-01 -0.74633120452E-01  0.47859473721E-01  0.10711023510E+00  0.51100000000E-03 0.  1.
         11    1    4    4    0    0 -0.53207969749E-02 -0.17702355976E-01  0.12868112521E-01  0.22528509236E-01  0.51100000000E-03 0. -1.
</event>
<event>
 8    1  0.1116841E+005  0.1043930E+01  0.7957747E-01            NaN
         13   -1    0    0    0    0  0.00000000000E+00  0.00000000000E+00  0.74505805969E-08  0.10566000000E+00  0.10566000000E+00 0.  1.
     999900   -1    0    0    0    0 -0.00000000000E+00 -0.00000000000E+00 -0.74505805969E-08  0.93827000000E+00  0.93827000000E+00 0. -1.
     999902    2    1    2    0    0 -0.12413965071E-01  0.27814129294E-02 -0.19759219556E-01  0.10204295842E+01  0.10201589419E+01 0.  0.
     999903    2    3    3    0    0  0.10847342708E+00 -0.37571259417E-01  0.53343727979E-01  0.12824903031E+00  0.20595546691E-01 0.  0.
         14    1    1    2    0    0  0.12413965071E-01 -0.27814129294E-02  0.19759219556E-01  0.23500415829E-01  0.00000000000E+00 0.  1.
     999901    1    3    3    0    0 -0.12088739216E+00  0.40352672346E-01 -0.73102947535E-01  0.89218055386E+00  0.88000000000E+00 0. -1.
        -11    1    4    4    0    0  0.42718605238E-01 -0.46290305727E-02  0.16997949114E-01  0.46211454777E-01  0.51100000000E-03 0. -1.
         11    1    4    4    0    0  0.65754821847E-01 -0.32942228844E-01  0.36345778865E-01  0.82037575535E-01  0.51100000000E-03 0.  1.
</event>
<event>
 8    1  0.1116841E+005  0.1043930E+01  0.7957747E-01            NaN
         13   -1    0    0    0    0  0.00000000000E+00  0.00000000000E+00  0.74505805969E-08  0.10566000000E+00  0.10566000000E+00 0.  1.
     999900   -1    0    0    0    0 -0.00000000000E+00 -0.00000000000E+00 -0.74505805969E-08  0.93827000000E+00  0.93827000000E+00 0.  1.
     999902    2    1    2    0    0 -0.45498401105E-02  0.84826393547E-03  0.23379131301E-01  0.10200971576E+01  0.10198187126E+01 0.  0.
     999903    2    3    3    0    0 -0.98034658140E-01 -0.80615142850E-01 -0.21761659886E-01  0.13025818965E+00  0.19596700641E-01 0.  0.
         14    1    1    2    0    0  0.45498401105E-02 -0.84826393547E-03 -0.23379131301E-01  0.23832842406E-01  0.00000000000E+00 0. -1.
     999901    1    3    3    0    0  0.93484818029E-01  0.81463406786E-01  0.45140791187E-01  0.88983896795E+00  0.88000000000E+00 0. -1.
        -11    1    4    4    0    0 -0.93920079616E-01 -0.79088113969E-01 -0.17333185682E-01  0.12400246600E+00  0.51100000000E-03 0. -1.
         11    1    4    4    0    0 -0.41145785232E-02 -0.15270288813E-02 -0.44284742037E-02  0.62557236513E-02  0.51100000000E-03 0.  1.
</event>
<event>
 8    1  0.1173625E+005  0.1043930E+01  0.7957747E-01            NaN
         13   -1    0    0    0    0  0.00000000000E+00  0.00000000000E+00  0.74505805969E-08  0.10566000000E+00  0.10566000000E+00 0. -1.
     999900   -1    0    0    0    0 -0.00000000000E+00 -0.00000000000E+00 -0.74505805969E-08  0.93827000000E+00  0.93827000000E+00 0. -1.
     999902    2    1    2    0    0  0.21608485794E-01  0.10504319262E-01  0.26980161347E-02  0.10197526000E+01  0.10194659477E+01 0.  0.
     999903    2    3    3    0    0  0.10458954407E+00  0.72698725027E-02  0.78608123783E-01  0.13258933307E+00  0.20220542653E-01 0.  0.
         14    1    1    2    0    0 -0.21608485794E-01 -0.10504319262E-01 -0.26980161347E-02  0.24177400036E-01  0.00000000000E+00 0.  1.
     999901    1    3    3    0    0 -0.82981058275E-01  0.32344467598E-02 -0.75910107648E-01  0.88716326689E+00  0.88000000000E+00 0.  1.
        -11    1    4    4    0    0  0.37543104833E-01  0.11174890789E-01  0.34831095270E-01  0.52419740780E-01  0.51100000000E-03 0.  1.
         11    1    4    4    0    0  0.67046439235E-01 -0.39050182868E-02  0.43777028513E-01  0.80169592292E-01  0.51100000000E-03 0. -1.
</event>
<event>
 8    1  0.1116841E+005  0.1043930E+01  0.7957747E-01            NaN
         13   -1    0    0    0    0  0.00000000000E+00  0.00000000000E+00  0.74505805969E-08  0.10566000000E+00  0.10566000000E+00 0.  1.
     999900   -1    0    0    0    0 -0.00000000000E+00 -0.00000000000E+00 -0.74505805969E-08  0.93827000000E+00  0.93827000000E+00 0. -1.
     999902    2    1    2    0    0 -0.13060920469E-01 -0.12378297185E-01 -0.15940934740E-01  0.10198899650E+01  0.10196065993E+01 0.  0.
     999903    2    3    3    0    0  0.82658092477E-01 -0.18120984180E-01  0.92974742998E-01  0.12800559310E+00  0.24091465514E-01 0.  0.
         14    1    1    2    0    0  0.13060920469E-01  0.12378297185E-01  0.15940934740E-01  0.24040035047E-01  0.00000000000E+00 0.  1.
     999901    1    3    3    0    0 -0.95719012946E-01  0.57426869955E-02 -0.10891567774E+00  0.89188437185E+00  0.88000000000E+00 0. -1.
        -11    1    4    4    0    0  0.25249941685E-01 -0.15509366857E-01  0.23378159874E-01  0.37747840938E-01  0.51100000000E-03 0. -1.
         11    1    4    4    0    0  0.57408150792E-01 -0.26116173237E-02  0.69596583123E-01  0.90257752165E-01  0.51100000000E-03 0.  1.
</event>
<event>
 8    1  0.1116841E+005  0.1043930E+01  0.7957747E-01            NaN
         13   -1    0    0    0    0  0.00000000000E+00  0.00000000000E+00  0.74505805969E-08  0.10566000000E+00  0.10566000000E+00 0. -1.
     999900   -1    0    0    0    0 -0.00000000000E+00 -0.00000000000E+00 -0.74505805969E-08  0.93827000000E+00  0.93827000000E+00 0.  1.
     999902    2    1    2    0    0  0.16048244737E-02  0.53423913582E-02 -0.23119560908E-01  0.10201470081E+01  0.10198697404E+01 0.  0.
     999903    2    3    3    0    0  0.48555782189E-01 -0.71893921897E-01 -0.97991122985E-01  0.13235446965E+00  0.19724235448E-01 0.  0.
         14    1    1    2    0    0 -0.16048244737E-02 -0.53423913582E-02  0.23119560908E-01  0.23782991898E-01  0.00000000000E+00 0. -1.
     999901    1    3    3    0    0 -0.46950957715E-01  0.77236313256E-01  0.74871562076E-01  0.88779253845E+00  0.88000000000E+00 0. -1.
        -11    1    4    4    0    0  0.91768826985E-02 -0.11671424105E-01 -0.29418409387E-01  0.32956657121E-01  0.51100000000E-03 0. -1.
         11    1    4    4    0    0  0.39378899490E-01 -0.60222497792E-01 -0.68572713598E-01  0.99397812534E-01  0.51100000000E-03 0.  1.
</event>
<event>
 8    1  0.1116841E+005  0.1043930E+01  0.7957747E-01            NaN
         13   -1    0    0    0    0  0.00000000000E+00  0.00000000000E+00  0.74505805969E-08  0.10566000000E+00  0.10566000000E+00 0. -1.
     999900   -1    0    0    0    0 -0.00000000000E+00 -0.00000000000E+00 -0.74505805969E-08  0.93827000000E+00  0.93827000000E+00 0.  1.
     999902    2    1    2    0    0 -0.43973037560E-03 -0.21429360977E-01  0.90690264581E-02  0.10206564503E+01  0.10203910679E+01 0.  0.
     999903    2    3    3    0    0 -0.10961999171E+00  0.11506794678E-01 -0.66677267907E-01  0.13007090083E+00  0.17989782712E-01 0.  0.
         14    1    1    2    0    0  0.43973037560E-03  0.21429360977E-01 -0.90690264581E-02  0.23273549699E-01  0.00000000000E+00 0.  1.
     999901    1    3    3    0    0  0.10918026133E+00 -0.32936155655E-01  0.75746294365E-01  0.89058554947E+00  0.88000000000E+00 0.  1.
        -11    1    4    4    0    0 -0.53678396850E-01  0.85366335289E-03 -0.41241569741E-01  0.67699536373E-01  0.51100000000E-03 0.  1.
         11    1    4    4    0    0 -0.55941594857E-01  0.10653131325E-01 -0.25435698166E-01  0.62371364459E-01  0.51100000000E-03 0. -1.
</event>
<event>
 8    1  0.1116841E+005  0.1043930E+01  0.7957747E-01            NaN
         13   -1    0    0    0    0  0.00000000000E+00  0.00000000000E+00  0.74505805969E-08  0.10566000000E+00  0.10566000000E+00 0. -1.
     999900   -1    0    0    0    0 -0.00000000000E+00 -0.00000000000E+00 -0.74505805969E-08  0.93827000000E+00  0.93827000000E+00 0.  1.
     999902    2    1    2    0    0  0.22010474854E-01 -0.17751565719E-02  0.84126239765E-02  0.10202998407E+01  0.10200261666E+01 0.  0.
     999903    2    3    3    0    0  0.43806424034E-01 -0.10908929058E+00  0.58848443184E-01  0.13207962108E+00  0.12744054846E-01 0.  0.
         14    1    1    2    0    0 -0.22010474854E-01  0.17751565719E-02 -0.84126239765E-02  0.23630159253E-01  0.00000000000E+00 0.  1.
     999901    1    3    3    0    0 -0.21795949181E-01  0.10731413401E+00 -0.50435819208E-01  0.88822021966E+00  0.88000000000E+00 0.  1.
        -11    1    4    4    0    0  0.12839506035E-01 -0.37297411501E-01  0.26156933011E-01  0.47332822496E-01  0.51100000000E-03 0.  1.
         11    1    4    4    0    0  0.30966917999E-01 -0.71791879082E-01  0.32691510173E-01  0.84746798588E-01  0.51100000000E-03 0. -1.
</event>
<event>
 8    1  0.1116841E+005  0.1043930E+01  0.7957747E-01            NaN
         13   -1    0    0    0    0  0.00000000000E+00  0.00000000000E+00  0.74505805969E-08  0.10566000000E+00  0.10566000000E+00 0.  1.
     999900   -1    0    0    0    0 -0.00000000000E+00 -0.00000000000E+00 -0.74505805969E-08  0.93827000000E+00  0.93827000000E+00 0.  1.
     999902    2    1    2    0    0 -0.17927657424E-01  0.12928386716E-01 -0.74105628635E-02  0.10206177602E+01  0.10203514845E+01 0.  0.
     999903    2    3    3    0    0 -0.12998632725E+00  0.16209761892E-01 -0.15876533023E-01  0.13346524479E+00  0.20042594989E-01 0.  0.
         14    1    1    2    0    0  0.17927657424E-01 -0.12928386716E-01  0.74105628635E-02  0.23312239827E-01  0.00000000000E+00 0.  1.
     999901    1    3    3    0    0  0.11205866982E+00 -0.32813751756E-02  0.84659701597E-02  0.88715251539E+00  0.88000000000E+00 0. -1.
        -11    1    4    4    0    0 -0.91830198736E-01  0.19932925802E-01 -0.78831677304E-02  0.94300118693E-01  0.51100000000E-03 0. -1.
         11    1    4    4    0    0 -0.38156128509E-01 -0.37231639096E-02 -0.79933652928E-02  0.39165126094E-01  0.51100000000E-03 0.  1.
</event>
<event>
 8    1  0.1116841E+005  0.1043930E+01  0.7957747E-01            NaN
         13   -1    0    0    0    0  0.00000000000E+00  0.00000000000E+00  0.74505805969E-08  0.10566000000E+00  0.10566000000E+00 0.  1.
     999900   -1    0    0    0    0 -0.00000000000E+00 -0.00000000000E+00 -0.74505805969E-08  0.93827000000E+00  0.93827000000E+00 0. -1.
     999902    2    1    2    0    0 -0.18785901587E-01  0.16429192418E-01 -0.14279049024E-01  0.10151772662E+01  0.10147700045E+01 0.  0.
     999903    2    3    3    0    0 -0.14588011128E-01 -0.83545053824E-01  0.87826437803E-01  0.12364038940E+00  0.19516060729E-01 0.  0.
         14    1    1    2    0    0  0.18785901587E-01 -0.16429192418E-01  0.14279049024E-01  0.28752733834E-01  0.00000000000E+00 0.  1.
     999901    1    3    3    0    0 -0.41978904588E-02  0.99974246241E-01 -0.10210548683E+00  0.89153687677E+00  0.88000000000E+00 0. -1.
        -11    1    4    4    0    0 -0.34167826276E-02 -0.13444981246E-01  0.54896243440E-02  0.14927793564E-01  0.51100000000E-03 0. -1.
         11    1    4    4    0    0 -0.11171228500E-01 -0.70100072577E-01  0.82336813459E-01  0.10871259583E+00  0.51100000000E-03 0.  1.
</event>
<event>
 8    1  0.1116841E+005  0.1043930E+01  0.7957747E-01            NaN
         13   -1    0    0    0    0  0.00000000000E+00  0.00000000000E+00  0.74505805969E-08  0.10566000000E+00  0.10566000000E+00 0.  1.
     999900   -1    0    0    0    0 -0.00000000000E+00 -0.00000000000E+00 -0.74505805969E-08  0.93827000000E+00  0.93827000000E+00 0. -1.
     999902    2    1    2    0    0 -0.84051903673E-02  0.11584294365E-01 -0.18943735922E-01  0.10201874595E+01  0.10199111452E+01 0.  0.
     999903    2    3    3    0    0 -0.42729345413E-01  0.12250051015E+00  0.13591139685E-01  0.13196503648E+00  0.19946925289E-01 0.  0.
         14    1    1    2    0    0  0.84051903673E-02 -0.11584294365E-01  0.18943735922E-01  0.23742540549E-01  0.00000000000E+00 0.  1.
     999901    1    3    3    0    0  0.34324155045E-01 -0.11091621578E+00 -0.32534875607E-01  0.88822242297E+00  0.88000000000E+00 0. -1.
        -11    1    4    4    0    0 -0.18752292172E-01  0.67765055694E-01  0.16175471987E-01  0.72150247746E-01  0.51100000000E-03 0. -1.
         11    1    4    4    0    0 -0.23977053241E-01  0.54735454454E-01 -0.25843323015E-02  0.59814788731E-01  0.51100000000E-03 0.  1.
</event>
<event>
 8    1  0.1116841E+005  0.1043930E+01  0.7957747E-01            NaN
         13   -1    0    0    0    0  0.00000000000E+00  0.00000000000E+00  0.74505805969E-08  0.10566000000E+00  0.10566000000E+00 0.  1.
     999900   -1    0    0    0    0 -0.00000000000E+00 -0.00000000000E+00 -0.74505805969E-08  0.93827000000E+00  0.93827000000E+00 0.  1.
     999902    2    1    2    0    0 -0.75486630244E-02 -0.11662750235E-01  0.18454534464E-01  0.10208308247E+01  0.10205694493E+01 0.  0.
     999903    2    3    3    0    0 -0.26357992420E-01  0.90857488860E-01 -0.84872487087E-01  0.12867575766E+00  0.20106827147E-01 0.  0.
         14    1    1    2    0    0  0.75486630244E-02  0.11662750235E-01 -0.18454534464E-01  0.23099175284E-01  0.00000000000E+00 0. -1.
     999901    1    3    3    0    0  0.18809329396E-01 -0.10252023909E+00  0.10332702155E+00  0.89215506706E+00  0.88000000000E+00 0. -1.
        -11    1    4    4    0    0 -0.14472564981E-02  0.39077476947E-01 -0.30922395992E-01  0.49855786533E-01  0.51100000000E-03 0.  1.
         11    1    4    4    0    0 -0.24910735922E-01  0.51780011913E-01 -0.53950091095E-01  0.78819971125E-01  0.51100000000E-03 0. -1.
</event>
<event>
 8    1  0.1116841E+005  0.1043930E+01  0.7957747E-01            NaN
         13   -1    0    0    0    0  0.00000000000E+00  0.00000000000E+00  0.74505805969E-08  0.10566000000E+00  0.10566000000E+00 0.  1.
     999900   -1    0    0    0    0 -0.00000000000E+00 -0.00000000000E+00 -0.74505805969E-08  0.93827000000E+00  0.93827000000E+00 0. -1.
     999902    2    1    2    0    0  0.52433924697E-02  0.15746208736E-01  0.15817906726E-01  0.10210031069E+01  0.10207456597E+01 0.  0.
     999903    2    3    3    0    0 -0.11104638588E-01  0.77780939522E-01  0.10668613886E+00  0.13400107671E+00  0.20029198262E-01 0.  0.
         14    1    1    2    0    0 -0.52433924697E-02 -0.15746208736E-01 -0.15817906726E-01  0.22926893103E-01  0.00000000000E+00 0. -1.
     999901    1    3    3    0    0  0.16348031058E-01 -0.62034730786E-01 -0.90868232137E-01  0.88700203019E+00  0.88000000000E+00 0. -1.
        -11    1    4    4    0    0  0.50939728485E-02  0.20218193880E-01  0.33868242255E-01  0.39774902610E-01  0.51100000000E-03 0. -1.
         11    1    4    4    0    0 -0.16198611437E-01  0.57562745643E-01  0.72817896608E-01  0.94226174101E-01  0.51100000000E-03 0.  1.
</event>
<event>
 8    1  0.1116841E+005  0.1043930E+01  0.7957747E-01            NaN
         13   -1    0    0    0    0  0.00000000000E+00  0.00000000000E+00  0.74505805969E-08  0.10566000000E+00  0.10566000000E+00 0.  1.
     999900   -1    0    0    0    0 -0.00000000000E+00 -0.00000000000E+00 -0.74505805969E-08  0.93827000000E+00  0.93827000000E+00 0.  1.
     999902    2    1    2    0    0  0.15582177592E-01  0.16305903778E-01 -0.30035351101E-03  0.10213739150E+01  0.10211248197E+01 0.  0.
     999903    2    3    3    0    0 -0.57909484784E-01  0.85065668363E-01  0.80353848105E-01  0.13197297626E+00  0.19247056797E-01 0.  0.
         14    1    1    2    0    0 -0.15582177592E-01 -0.16305903778E-01  0.30035351101E-03  0.22556084961E-01  0.00000000000E+00 0.  1.
     999901    1    3    3    0    0  0.73491662376E-01 -0.68759764585E-01 -0.80654201616E-01  0.88940093878E+00  0.88000000000E+00 0. -1.
        -11    1    4    4    0    0 -0.94147396782E-02  0.28290296241E-01  0.19299999751E-01  0.35520829044E-01  0.51100000000E-03 0. -1.
         11    1    4    4    0    0 -0.48494745105E-01  0.56775372123E-01  0.61053848354E-01  0.96452147215E-01  0.51100000000E-03 0.  1.
</event>
<event>
 8    1  0.1116841E+005  0.1043930E+01  0.7957747E-01            NaN
         13   -1    0    0    0    0  0.00000000000E+00  0.00000000000E+00  0.74505805969E-08  0.10566000000E+00  0.10566000000E+00 0.  1.
     999900   -1    0    0    0    0 -0.00000000000E+00 -0.00000000000E+00 -0.74505805969E-08  0.93827000000E+00  0.93827000000E+00 0. -1.
     999902    2    1    2    0    0  0.18697556608E-01  0.13775382422E-01  0.63015204741E-02  0.10198661486E+01  0.10195822145E+01 0.  0.
     999903    2    3    3    0    0 -0.11872235879E+00  0.43409949558E-01  0.90928598309E-02  0.12870385569E+00  0.22418299964E-01 0.  0.
         14    1    1    2    0    0 -0.18697556608E-01 -0.13775382422E-01 -0.63015204741E-02  0.24063851401E-01  0.00000000000E+00 0. -1.
     999901    1    3    3    0    0  0.13741991540E+00 -0.29634567136E-01 -0.27913393568E-02  0.89116229290E+00  0.88000000000E+00 0.  1.
        -11    1    4    4    0    0 -0.82269741063E-01  0.40475541902E-01  0.90016081417E-02  0.92129636149E-01  0.51100000000E-03 0.  1.
         11    1    4    4    0    0 -0.36452617728E-01  0.29344076564E-02  0.91251689184E-04  0.36574219546E-01  0.51100000000E-03 0. -1.
</event>
<event>
 8    1  0.1116841E+005  0.1043930E+01  0.7957747E-01            NaN
         13   -1    0    0    0    0  0.00000000000E+00  0.00000000000E+00  0.74505805969E-08  0.10566000000E+00  0.10566000000E+00 0.  1.
     999900   -1    0    0    0    0 -0.00000000000E+00 -0.00000000000E+00 -0.74505805969E-08  0.93827000000E+00  0.93827000000E+00 0. -1.
     999902    2    1    2    0    0 -0.16378372670E-01 -0.16408152254E-01 -0.72582329576E-02  0.10196367808E+01  0.10193473423E+01 0.  0.
     999903    2    3    3    0    0 -0.15911841188E-02  0.10379281796E+00  0.71794694704E-01  0.12783170148E+00  0.20272759822E-01 0.  0.
         14    1    1    2    0    0  0.16378372670E-01  0.16408152254E-01  0.72582329576E-02  0.24293219164E-01  0.00000000000E+00 0.  1.
     999901    1    3    3    0    0 -0.14787188551E-01 -0.12020097021E+00 -0.79052927662E-01  0.89180507935E+00  0.88000000000E+00 0. -1.
        -11    1    4    4    0    0 -0.65763962692E-02  0.27639957824E-01  0.11855637534E-01  0.30790152951E-01  0.51100000000E-03 0.  1.
         11    1    4    4    0    0  0.49852121504E-02  0.76152860131E-01  0.59939057170E-01  0.97041548534E-01  0.51100000000E-03 0. -1.
</event>
<event>
 8    1  0.1116841E+005  0.1043930E+01  0.7957747E-01            NaN
         13   -1    0    0    0    0  0.00000000000E+00  0.00000000000E+00  0.74505805969E-08  0.10566000000E+00  0.10566000000E+00 0.  1.
     999900   -1    0    0    0    0 -0.00000000000E+00 -0.00000000000E+00 -0.74505805969E-08  0.93827000000E+00  0.93827000000E+00 0.  1.
     999902    2    1    2    0    0  0.21456370723E-01  0.14889542712E-01 -0.15473177960E-01  0.10135738876E+01  0.10131192092E+01 0.  0.
     999903    2    3    3    0    0 -0.11423894515E+00 -0.32183358715E-01 -0.19179567788E-01  0.12192215390E+00  0.20269450526E-01 0.  0.
         14    1    1    2    0    0 -0.21456370723E-01 -0.14889542712E-01  0.15473177960E-01  0.30356112448E-01  0.00000000000E+00 0. -1.
     999901    1    3    3    0    0  0.13569531587E+00  0.47072901427E-01  0.37063898280E-02  0.89165173365E+00  0.88000000000E+00 0. -1.
        -11    1    4    4    0    0 -0.91085084283E-02 -0.43251831326E-02 -0.74172297438E-02  0.12527910959E-01  0.51100000000E-03 0. -1.
         11    1    4    4    0    0 -0.10513043672E+00 -0.27858175583E-01 -0.11762338044E-01  0.10939424294E+00  0.51100000000E-03 0.  1.
</event>
<event>
 8    1  0.1116841E+005  0.1043930E+01  0.7957747E-01            NaN
         13   -1    0    0    0    0  0.00000000000E+00  0.00000000000E+00  0.74505805969E-08  0.10566000000E+00  0.10566000000E+00 0. -1.
     999900   -1    0    0    0    0 -0.00000000000E+00 -0.00000000000E+00 -0.74505805969E-08  0.93827000000E+00  0.93827000000E+00 0.  1.
     999902    2    1    2    0    0  0.89892857634E-02  0.21265767802E-01  0.50654940434E-02  0.10202931777E+01  0.10200193474E+01 0.  0.
     999903    2    3    3    0    0 -0.12467479572E+00 -0.87286649163E-02 -0.25463395977E-01  0.12917154414E+00  0.20418349635E-01 0.  0.
         14    1    1    2    0    0 -0.89892857634E-02 -0.21265767802E-01 -0.50654940434E-02  0.23636822304E-01  0.00000000000E+00 0. -1.
     999901    1    3    3    0    0  0.13366408148E+00  0.29994432718E-01  0.30528890020E-01  0.89112163356E+00  0.88000000000E+00 0.  1.
        -11    1    4    4    0    0 -0.88008715997E-01  0.72777167267E-03 -0.11279324207E-01  0.88733015381E-01  0.51100000000E-03 0.  1.
         11    1    4    4    0    0 -0.36666079719E-01 -0.94564365890E-02 -0.14184071770E-01  0.40438528755E-01  0.51100000000E-03 0. -1.
</event>
<event>
 8    1  0.1116841E+005  0.1043930E+01  0.7957747E-01            NaN
         13   -1    0    0    0    0  0.00000000000E+00  0.00000000000E+00  0.74505805969E-08  0.10566000000E+00  0.10566000000E+00 0.  1.
     999900   -1    0    0    0    0 -0.00000000000E+00 -0.00000000000E+00 -0.74505805969E-08  0.93827000000E+00  0.93827000000E+00 0.  1.
     999902    2    1    2    0    0  0.10576868683E-01 -0.86654009689E-02  0.27891992092E-01  0.10128667975E+01  0.10123903531E+01 0.  0.
     999903    2    3    3    0    0 -0.85173151707E-01  0.55076854303E-01  0.69259346398E-01  0.12441736198E+00  0.19872021737E-01 0.  0.
         14    1    1    2    0    0 -0.10576868683E-01  0.86654009689E-02 -0.27891992092E-01  0.31063202474E-01  0.00000000000E+00 0. -1.
     999901    1    3    3    0    0  0.95750020390E-01 -0.63742255272E-01 -0.41367354306E-01  0.88844943554E+00  0.88000000000E+00 0.  1.
        -11    1    4    4    0    0 -0.20232326189E-01  0.39191372764E-02  0.15693442371E-01  0.25908529763E-01  0.51100000000E-03 0.  1.
         11    1    4    4    0    0 -0.64940825518E-01  0.51157717027E-01  0.53565904027E-01  0.98508832221E-01  0.51100000000E-03 0. -1.
</event>
<event>
 8    1  0.1116841E+005  0.1043930E+01  0.7957747E-01            NaN
         13   -1    0    0    0    0  0.00000000000E+00  0.00000000000E+00  0.74505805969E-08  0.10566000000E+00  0.10566000000E+00 0.  1.
     999900   -1    0    0    0    0 -0.00000000000E+00 -0.00000000000E+00 -0.74505805969E-08  0.93827000000E+00  0.93827000000E+00 0.  1.
     999902    2    1    2    0    0  0.18448912301E-01 -0.12909291204E-01  0.33057797468E-02  0.10211716972E+01  0.10209180647E+01 0.  0.
     999903    2    3    3    0    0 -0.19521109047E-01 -0.86729843410E-01 -0.95144804805E-01  0.13179904529E+00  0.20379279224E-01 0.  0.
         14    1    1    2    0    0 -0.18448912301E-01  0.12909291204E-01 -0.33057797468E-02  0.22758302753E-01  0.00000000000E+00 0. -1.
     999901    1    3    3    0    0  0.37970021348E-01  0.73820552206E-01  0.98450584552E-01  0.88937265196E+00  0.88000000000E+00 0. -1.
        -11    1    4    4    0    0 -0.10617694769E-01 -0.48978855271E-01 -0.67913619698E-01  0.84404884736E-01  0.51100000000E-03 0.  1.
         11    1    4    4    0    0 -0.89034142784E-02 -0.37750988139E-01 -0.27231185107E-01  0.47394160554E-01  0.51100000000E-03 0. -1.
</event>
<event>
 8    1  0.1116841E+005  0.1043930E+01  0.7957747E-01            NaN
         13   -1    0    0    0    0  0.00000000000E+00  0.00000000000E+00  0.74505805969E-08  0.10566000000E+00  0.10566000000E+00 0. -1.
     999900   -1    0    0    0    0 -0.00000000000E+00 -0.00000000000E+00 -0.74505805969E-08  0.93827000000E+00  0.93827000000E+00 0.  1.
     999902    2    1    2    0    0  0.78738141232E-02  0.11051710434E-01  0.21321544382E-01  0.10186565850E+01  0.10183430132E+01 0.  0.
     999903    2    3    3    0    0 -0.11376121644E+00 -0.54679324231E-01  0.14422438250E-02  0.12763984205E+00  0.18931622898E-01 0.  0.
         14    1    1    2    0    0 -0.78738141232E-02 -0.11051710434E-01 -0.21321544382E-01  0.25273415029E-01  0.00000000000E+00 0.  1.
     999901    1    3    3    0    0  0.12163503057E+00  0.65731034664E-01  0.19879300557E-01  0.89101674292E+00  0.88000000000E+00 0. -1.
        -11    1    4    4    0    0 -0.71227387898E-02 -0.63177717571E-02 -0.41820234543E-02  0.10411440295E-01  0.51100000000E-03 0. -1.
         11    1    4    4    0    0 -0.10663847765E+00 -0.48361552474E-01  0.56242672793E-02  0.11722840175E+00  0.51100000000E-03 0.  1.
</event>
<event>
 8    1  0.1116841E+005  0.1043930E+01  0.7957747E-01            NaN
         13   -1    0    0    0    0  0.00000000000E+00  0.00000000000E+00  0.74505805969E-08  0.10566000000E+00  0.10566000000E+00 0.  1.
     999900   -1    0    0    0    0 -0.00000000000E+00 -0.00000000000E+00 -0.74505805969E-08  0.93827000000E+00  0.93827000000E+00 0. -1.
     999902    2    1    2    0    0 -0.14975019194E-01 -0.12873081387E-01 -0.11422724290E-01  0.10211167132E+01  0.10208618398E+01 0.  0.
     999903    2    3    3    0    0 -0.45137052541E-01 -0.12254743616E+00 -0.22094306394E-01  0.13373173755E+00  0.18460542548E-01 0.  0.
         14    1    1    2    0    0  0.14975019194E-01  0.12873081387E-01  0.11422724290E-01  0.22813286797E-01  0.00000000000E+00 0.  1.
     999901    1    3    3    0    0  0.30162033347E-01  0.10967435477E+00  0.10671582103E-01  0.88738497565E+00  0.88000000000E+00 0.  1.
        -11    1    4    4    0    0 -0.20956264991E-01 -0.55239402712E-01 -0.19300124087E-01  0.62155551362E-01  0.51100000000E-03 0. -1.
         11    1    4    4    0    0 -0.24180787550E-01 -0.67308033449E-01 -0.27941823065E-02  0.71576186187E-01  0.51100000000E-03 0.  1.
</event>
<event>
 8    1  0.1617651E+005  0.1043930E+01  0.7957747E-01            NaN
         13   -1    0    0    0    0  0.00000000000E+00  0.00000000000E+00  0.74505805969E-08  0.10566000000E+00  0.10566000000E+00 0.  1.
     999900   -1    0    0    0    0 -0.00000000000E+00 -0.00000000000E+00 -0.74505805969E-08  0.93827000000E+00  0.93827000000E+00 0. -1.
     999902    2    1    2    0    0  0.10901456037E-01 -0.52477930694E-02  0.20334693079E-01  0.10202681992E+01  0.10199937830E+01 0.  0.
     999903    2    3    3    0    0  0.25769870798E-01  0.97924931571E-01  0.82211483404E-01  0.13195833316E+00  0.20022368082E-01 0.  0.
         14    1    1    2    0    0 -0.10901456037E-01  0.52477930694E-02 -0.20334693079E-01  0.23661800828E-01  0.00000000000E+00 0. -1.
     999901    1    3    3    0    0 -0.14868414761E-01 -0.10317272464E+00 -0.61876790325E-01  0.88830986601E+00  0.88000000000E+00 0.  1.
        -11    1    4    4    0    0  0.25150775287E-02  0.44697637841E-01  0.41284567786E-01  0.60900583756E-01  0.51100000000E-03 0. -1.
         11    1    4    4    0    0  0.23254793269E-01  0.53227293730E-01  0.40926915618E-01  0.71057749407E-01  0.51100000000E-03 0.  1.
</event>
<event>
 8    1  0.1116841E+005  0.1043930E+01  0.7957747E-01            NaN
         13   -1    0    0    0    0  0.00000000000E+00  0.00000000000E+00  0.74505805969E-08  0.10566000000E+00  0.10566000000E+00 0.  1.
     999900   -1    0    0    0    0 -0.00000000000E+00 -0.00000000000E+00 -0.74505805969E-08  0.93827000000E+00  0.93827000000E+00 0.  1.
     999902    2    1    2    0    0 -0.53791795722E-04 -0.22507393098E-01  0.78062750352E-02  0.10201072469E+01  0.10198290403E+01 0.  0.
     999903    2    3    3    0    0 -0.90844940417E-01 -0.82744968346E-01  0.46340452086E-01  0.13255078051E+00  0.17964936103E-01 0.  0.
         14    1    1    2    0    0  0.53791795722E-04  0.22507393098E-01 -0.78062750352E-02  0.23822753148E-01  0.00000000000E+00 0.  1.
     999901    1    3    3    0    0  0.90791148621E-01  0.60237575248E-01 -0.38534177051E-01  0.88755646634E+00  0.88000000000E+00 0. -1.
        -11    1    4    4    0    0 -0.20008766727E-01 -0.16536126945E-01  0.17789773840E-01  0.31472709044E-01  0.51100000000E-03 0.  1.
         11    1    4    4    0    0 -0.70836173689E-01 -0.66208841401E-01  0.28550678247E-01  0.10107807147E+00  0.51100000000E-03 0. -1.
</event>
<event>
 8    1  0.1116841E+005  0.1043930E+01  0.7957747E-01            NaN
         13   -1    0    0    0    0  0.00000000000E+00  0.00000000000E+00  0.74505805969E-08  0.10566000000E+00  0.10566000000E+00 0. -1.
     999900   -1    0    0    0    0 -0.00000000000E+00 -0.00000000000E+00 -0.74505805969E-08  0.93827000000E+00  0.93827000000E+00 0.  1.
     999902    2    1    2    0    0  0.21611830319E-01  0.96576763340E-02  0.61611569302E-02  0.10194697920E+01  0.10191763120E+01 0.  0.
     999903    2    3    3    0    0 -0.11845669897E+00 -0.19561692655E-01  0.36579092585E-01  0.12739456239E+00  0.21833349767E-01 0.  0.
         14    1    1    2    0    0 -0.21611830319E-01 -0.96576763340E-02 -0.61611569302E-02  0.24460208025E-01  0.00000000000E+00 0.  1.
     999901    1    3    3    0    0  0.14006852929E+00  0.29219368989E-01 -0.30417935654E-01  0.89207522958E+00  0.88000000000E+00 0. -1.
        -11    1    4    4    0    0 -0.21445313098E-01  0.15502837567E-02  0.13728818872E-01  0.25515611343E-01  0.51100000000E-03 0. -1.
         11    1    4    4    0    0 -0.97011385876E-01 -0.21111976412E-01  0.22850273713E-01  0.10187895105E+00  0.51100000000E-03 0.  1.
</event>
<event>
 8    1  0.1116841E+005  0.1043930E+01  0.7957747E-01            NaN
         13   -1    0    0    0    0  0.00000000000E+00  0.00000000000E+00  0.74505805969E-08  0.10566000000E+00  0.10566000000E+00 0. -1.
     999900   -1    0    0    0    0 -0.00000000000E+00 -0.00000000000E+00 -0.74505805969E-08  0.93827000000E+00  0.93827000000E+00 0.  1.
     999902    2    1    2    0    0  0.47158387379E-02 -0.84567964821E-02  0.22123930273E-01  0.10197799517E+01  0.10194939554E+01 0.  0.
     999903    2    3    3    0    0  0.69949048225E-01 -0.97832984381E-01 -0.46096602112E-01  0.13023089987E+00  0.19262096847E-01 0.  0.
         14    1    1    2    0    0 -0.47158387379E-02  0.84567964821E-02 -0.22123930273E-01  0.24150048291E-01  0.00000000000E+00 0.  1.
     999901    1    3    3    0    0 -0.65233209488E-01  0.89376187899E-01  0.68220532385E-01  0.88954905184E+00  0.88000000000E+00 0. -1.
        -11    1    4    4    0    0  0.42210608486E-01 -0.43306839640E-01 -0.26085696833E-01  0.65863058908E-01  0.51100000000E-03 0. -1.
         11    1    4    4    0    0  0.27738439739E-01 -0.54526144741E-01 -0.20010905279E-01  0.64367840966E-01  0.51100000000E-03 0.  1.
</event>
<event>
 8    1  0.1116841E+005  0.1043930E+01  0.7957747E-01            NaN
         13   -1    0    0    0    0  0.00000000000E+00  0.00000000000E+00  0.74505805969E-08  0.10566000000E+00  0.10566000000E+00 0.  1.
     999900   -1    0    0    0    0 -0.00000000000E+00 -0.00000000000E+00 -0.74505805969E-08  0.93827000000E+00  0.93827000000E+00 0. -1.
     999902    2    1    2    0    0  0.19772612766E-01 -0.16278348391E-01  0.81035904893E-02  0.10170672187E+01  0.10167124069E+01 0.  0.
     999903    2    3    3    0    0  0.61506069445E-01 -0.19406476830E-01  0.11114431212E+00  0.13006729933E+00  0.20120544624E-01 0.  0.
         14    1    1    2    0    0 -0.19772612766E-01  0.16278348391E-01 -0.81035904893E-02  0.26862781329E-01  0.00000000000E+00 0. -1.
     999901    1    3    3    0    0 -0.41733456679E-01  0.31281284392E-02 -0.10304072164E+00  0.88699991934E+00  0.88000000000E+00 0. -1.
        -11    1    4    4    0    0  0.23034954047E-01 -0.54397398576E-02  0.60391882744E-01  0.64866327937E-01  0.51100000000E-03 0.  1.
         11    1    4    4    0    0  0.38471115398E-01 -0.13966736973E-01  0.50752429381E-01  0.65200971394E-01  0.51100000000E-03 0. -1.
</event>
<event>
 8    1  0.1116841E+005  0.1043930E+01  0.7957747E-01            NaN
         13   -1    0    0    0    0  0.00000000000E+00  0.00000000000E+00  0.74505805969E-08  0.10566000000E+00  0.10566000000E+00 0. -1.
     999900   -1    0    0    0    0 -0.00000000000E+00 -0.00000000000E+00 -0.74505805969E-08  0.93827000000E+00  0.93827000000E+00 0.  1.
     999902    2    1    2    0    0  0.14610839275E-01  0.17094022065E-01  0.46617200838E-02  0.10209645074E+01  0.10207061828E+01 0.  0.
     999903    2    3    3    0    0  0.60382295543E-01  0.25396610273E-01 -0.11289274370E+00  0.13192963121E+00  0.19226195226E-01 0.  0.
         14    1    1    2    0    0 -0.14610839275E-01 -0.17094022065E-01 -0.46617200838E-02  0.22965492566E-01  0.00000000000E+00 0.  1.
     999901    1    3    3    0    0 -0.45771456268E-01 -0.83025882079E-02  0.11755446379E+00  0.88903487622E+00  0.88000000000E+00 0. -1.
        -11    1    4    4    0    0  0.18932340534E-01  0.59903025513E-02 -0.52642401447E-01  0.56265449379E-01  0.51100000000E-03 0.  1.
         11    1    4    4    0    0  0.41449955009E-01  0.19406307721E-01 -0.60250342256E-01  0.75664181834E-01  0.51100000000E-03 0. -1.
</event>
<event>
 8    1  0.1116841E+005  0.1043930E+01  0.7957747E-01            NaN
         13   -1    0    0    0    0  0.00000000000E+00  0.00000000000E+00  0.74505805969E-08  0.10566000000E+00  0.10566000000E+00 0. -1.
     999900   -1    0    0    0    0 -0.00000000000E+00 -0.00000000000E+00 -0.74505805969E-08  0.93827000000E+00  0.93827000000E+00 0.  1.
     999902    2    1    2    0    0 -0.19808071070E-01 -0.78875765136E-02 -0.98686108525E-02  0.10204361067E+01  0.10201656164E+01 0.  0.
     999903    2    3    3    0    0 -0.80845293499E-01  0.35503015357E-01  0.94836716558E-01  0.13107032616E+00  0.19723133936E-01 0.  0.
         14    1    1    2    0    0  0.19808071070E-01  0.78875765136E-02  0.98686108525E-02  0.23493893311E-01  0.00000000000E+00 0. -1.
     999901    1    3    3    0    0  0.61037222429E-01 -0.43390591871E-01 -0.10470532741E+00  0.88936578053E+00  0.88000000000E+00 0.  1.
        -11    1    4    4    0    0 -0.20616380750E-01  0.10030040348E-01  0.38215616497E-01  0.44568277169E-01  0.51100000000E-03 0. -1.
         11    1    4    4    0    0 -0.60228912749E-01  0.25472975009E-01  0.56621100062E-01  0.86502048993E-01  0.51100000000E-03 0.  1.
</event>
<event>
 8    1  0.1116841E+005  0.1043930E+01  0.7957747E-01            NaN
         13   -1    0    0    0    0  0.00000000000E+00  0.00000000000E+00  0.74505805969E-08  0.10566000000E+00  0.10566000000E+00 0.  1.
     999900   -1    0    0    0    0 -0.00000000000E+00 -0.00000000000E+00 -0.74505805969E-08  0.93827000000E+00  0.93827000000E+00 0.  1.
     999902    2    1    2    0    0 -0.76868363295E-02 -0.21923011044E-01  0.59785727647E-02  0.10199414778E+01  0.10196593396E+01 0.  0.
     999903    2    3    3    0    0  0.10735243281E-01 -0.43437014186E-01 -0.12058684768E+00  0.13043541765E+00  0.21683880997E-01 0.  0.
         14    1    1    2    0    0  0.76868363295E-02  0.21923011044E-01 -0.59785727647E-02  0.23988522220E-01  0.00000000000E+00 0.  1.
     999901    1    3    3    0    0 -0.18422079610E-01  0.21514003142E-01  0.12656542045E+00  0.88950606013E+00  0.88000000000E+00 0. -1.
        -11    1    4    4    0    0  0.59163514069E-02 -0.14713983347E-01 -0.72484039503E-01  0.74200415252E-01  0.51100000000E-03 0. -1.
         11    1    4    4    0    0  0.48188918740E-02 -0.28723030839E-01 -0.48102808179E-01  0.56235002402E-01  0.51100000000E-03 0.  1.
</event>
<event>
 8    1  0.1116841E+005  0.1043930E+01  0.7957747E-01            NaN
         13   -1    0    0    0    0  0.00000000000E+00  0.00000000000E+00  0.74505805969E-08  0.10566000000E+00  0.10566000000E+00 0. -1.
     999900   -1    0    0    0    0 -0.00000000000E+00 -0.00000000000E+00 -0.74505805969E-08  0.93827000000E+00  0.93827000000E+00 0.  1.
     999902    2    1    2    0    0  0.59417024478E-02  0.19822760255E-01  0.90983235665E-02  0.10213241347E+01  0.10210739264E+01 0.  0.
     999903    2    3    3    0    0  0.87695713645E-01  0.21811732021E-01 -0.93478382472E-01  0.13159965213E+00  0.20346267584E-01 0.  0.
         14    1    1    2    0    0 -0.59417024478E-02 -0.19822760255E-01 -0.90983235665E-02  0.22605865253E-01  0.00000000000E+00 0.  1.
     999901    1    3    3    0    0 -0.81754011197E-01 -0.19889717665E-02  0.10257670604E+00  0.88972448262E+00  0.88000000000E+00 0. -1.
        -11    1    4    4    0    0  0.60058779070E-01  0.21901352309E-01 -0.55714630354E-01  0.84800397009E-01  0.51100000000E-03 0. -1.
         11    1    4    4    0    0  0.27636934574E-01 -0.89620287782E-04 -0.37763752117E-01  0.46799255116E-01  0.51100000000E-03 0.  1.
</event>
<event>
 8    1  0.1116841E+005  0.1043930E+01  0.7957747E-01            NaN
         13   -1    0    0    0    0  0.00000000000E+00  0.00000000000E+00  0.74505805969E-08  0.10566000000E+00  0.10566000000E+00 0. -1.
     999900   -1    0    0    0    0 -0.00000000000E+00 -0.00000000000E+00 -0.74505805969E-08  0.93827000000E+00  0.93827000000E+00 0.  1.
     999902    2    1    2    0    0  0.22124793751E-01  0.35612194469E-02 -0.37413370409E-02  0.10212102644E+01  0.10209575005E+01 0.  0.
     999903    2    3    3    0    0 -0.14117445332E-02 -0.12934988028E+00  0.62458899217E-02  0.13086253809E+00  0.18777864181E-01 0.  0.
         14    1    1    2    0    0 -0.22124793751E-01 -0.35612194469E-02  0.37413370409E-02  0.22719735591E-01  0.00000000000E+00 0. -1.
     999901    1    3    3    0    0  0.23536538284E-01  0.13291109972E+00 -0.99872269627E-02  0.89034772632E+00  0.88000000000E+00 0.  1.
        -11    1    4    4    0    0  0.68320202325E-03 -0.75138684808E-01  0.12758608625E-01  0.76218973588E-01  0.51100000000E-03 0. -1.
         11    1    4    4    0    0 -0.20949465565E-02 -0.54211195469E-01 -0.65127187031E-02  0.54643564499E-01  0.51100000000E-03 0.  1.
</event>
<event>
 8    1  0.1116841E+005  0.1043930E+01  0.7957747E-01            NaN
         13   -1    0    0    0    0  0.00000000000E+00  0.00000000000E+00  0.74505805969E-08  0.10566000000E+00  0.10566000000E+00 0.  1.
     999900   -1    0    0    0    0 -0.00000000000E+00 -0.00000000000E+00 -0.74505805969E-08  0.93827000000E+00  0.93827000000E+00 0. -1.
     999902    2    1    2    0    0  0.20007022409E-01  0.19028894979E-02 -0.12967747928E-01  0.10200121318E+01  0.10197316728E+01 0.  0.
     999903    2    3    3    0    0  0.15117835851E-01  0.12223394282E+00 -0.40507134423E-01  0.13138291531E+00  0.21235742501E-01 0.  0.
         14    1    1    2    0    0 -0.20007022409E-01 -0.19028894979E-02  0.12967747928E-01  0.23917868225E-01  0.00000000000E+00 0. -1.
     999901    1    3    3    0    0  0.48891865576E-02 -0.12033105332E+00  0.27539386495E-01  0.88862921646E+00  0.88000000000E+00 0.  1.
        -11    1    4    4    0    0  0.16612642688E-01  0.50555644773E-01 -0.15098320965E-01  0.55317931382E-01  0.51100000000E-03 0. -1.
         11    1    4    4    0    0 -0.14948068371E-02  0.71678298046E-01 -0.25408813457E-01  0.76064983932E-01  0.51100000000E-03 0.  1.
</event>
<event>
 8    1  0.1116841E+005  0.1043930E+01  0.7957747E-01            NaN
         13   -1    0    0    0    0  0.00000000000E+00  0.00000000000E+00  0.74505805969E-08  0.10566000000E+00  0.10566000000E+00 0.  1.
     999900   -1    0    0    0    0 -0.00000000000E+00 -0.00000000000E+00 -0.74505805969E-08  0.93827000000E+00  0.93827000000E+00 0. -1.
     999902    2    1    2    0    0  0.11209868133E-01  0.11895783953E-01 -0.15917395455E-01  0.10211147793E+01  0.10208598621E+01 0.  0.
     999903    2    3    3    0    0 -0.65811045700E-01  0.10202476751E+00 -0.49605452015E-01  0.13252581917E+00  0.19032733767E-01 0.  0.
         14    1    1    2    0    0 -0.11209868133E-01 -0.11895783953E-01  0.15917395455E-01  0.22815220741E-01  0.00000000000E+00 0.  1.
     999901    1    3    3    0    0  0.77020913833E-01 -0.90128983556E-01  0.33688056560E-01  0.88858896009E+00  0.88000000000E+00 0. -1.
        -11    1    4    4    0    0 -0.32908596828E-01  0.41465735833E-01 -0.30092136188E-01  0.60894833727E-01  0.51100000000E-03 0.  1.
         11    1    4    4    0    0 -0.32902448872E-01  0.60559031676E-01 -0.19513315827E-01  0.71630985438E-01  0.51100000000E-03 0. -1.
</event>
<event>
 8    1  0.1289177E+005  0.1043930E+01  0.7957747E-01            NaN
         13   -1    0    0    0    0  0.00000000000E+00  0.00000000000E+00  0.74505805969E-08  0.10566000000E+00  0.10566000000E+00 0.  1.
     999900   -1    0    0    0    0 -0.00000000000E+00 -0.00000000000E+00 -0.74505805969E-08  0.93827000000E+00  0.93827000000E+00 0. -1.
     999902    2    1    2    0    0  0.29379075603E-02  0.16140867830E-01 -0.17439625927E-01  0.10199863272E+01  0.10197052555E+01 0.  0.
     999903    2    3    3    0    0 -0.59863127121E-01  0.85820393388E-01  0.74560694639E-01  0.13023171764E+00  0.21266621344E-01 0.  0.
         14    1    1    2    0    0 -0.29379075603E-02 -0.16140867830E-01  0.17439625927E-01  0.23943672810E-01  0.00000000000E+00 0.  1.
     999901    1    3    3    0    0  0.62801034681E-01 -0.69679525558E-01 -0.92000320567E-01  0.88975460955E+00  0.88000000000E+00 0. -1.
        -11    1    4    4    0    0 -0.45085370593E-01  0.54431014184E-01  0.59565575509E-01  0.92432379897E-01  0.51100000000E-03 0.  1.
         11    1    4    4    0    0 -0.14777756528E-01  0.31389379204E-01  0.14995119130E-01  0.37799337739E-01  0.51100000000E-03 0. -1.
</event>
<event>
 8    1  0.1116841E+005  0.1043930E+01  0.7957747E-01            NaN
         13   -1    0    0    0    0  0.00000000000E+00  0.00000000000E+00  0.74505805969E-08  0.10566000000E+00  0.10566000000E+00 0.  1.
     999900   -1    0    0    0    0 -0.00000000000E+00 -0.00000000000E+00 -0.74505805969E-08  0.93827000000E+00  0.93827000000E+00 0.  1.
     999902    2    1    2    0    0  0.12951258823E-01 -0.13257495304E-01 -0.14777012900E-01  0.10202264898E+01  0.10199510939E+01 0.  0.
     999903    2    3    3    0    0  0.11302256247E+00  0.54937648978E-01 -0.34039873660E-01  0.13172443501E+00  0.20009219788E-01 0.  0.
         14    1    1    2    0    0 -0.12951258823E-01  0.13257495304E-01  0.14777012900E-01  0.23703510227E-01  0.00000000000E+00 0.  1.
     999901    1    3    3    0    0 -0.10007130365E+00 -0.68195144282E-01  0.19262860760E-01  0.88850205477E+00  0.88000000000E+00 0. -1.
        -11    1    4    4    0    0  0.43192226447E-01  0.27583076537E-01 -0.21966847113E-01  0.55760183193E-01  0.51100000000E-03 0.  1.
         11    1    4    4    0    0  0.69830336024E-01  0.27354572441E-01 -0.12073026547E-01  0.75964251815E-01  0.51100000000E-03 0. -1.
</event>
<event>
 8    1  0.1116841E+005  0.1043930E+01  0.7957747E-01            NaN
         13   -1    0    0    0    0  0.00000000000E+00  0.00000000000E+00  0.74505805969E-08  0.10566000000E+00  0.10566000000E+00 0. -1.
     999900   -1    0    0    0    0 -0.00000000000E+00 -0.00000000000E+00 -0.74505805969E-08  0.93827000000E+00  0.93827000000E+00 0.  1.
     999902    2    1    2    0    0  0.75686060952E-02 -0.15077272499E-01  0.18172675010E-01  0.10191337490E+01  0.10188320492E+01 0.  0.
     999903    2    3    3    0    0  0.12503807674E+00 -0.19426792077E-02  0.32197277608E-01  0.13112007598E+00  0.22748956096E-01 0.  0.
         14    1    1    2    0    0 -0.75686060952E-02  0.15077272499E-01 -0.18172675010E-01  0.24796250951E-01  0.00000000000E+00 0.  1.
     999901    1    3    3    0    0 -0.11746947064E+00 -0.13134593291E-01 -0.14024602598E-01  0.88801367307E+00  0.88000000000E+00 0.  1.
        -11    1    4    4    0    0  0.68881084998E-01  0.10239742917E-01  0.17549450440E-01  0.71817132617E-01  0.51100000000E-03 0.  1.
         11    1    4    4    0    0  0.56156991740E-01 -0.12182422125E-01  0.14647827168E-01  0.59302943366E-01  0.51100000000E-03 0. -1.
</event>
<event>
 8    1  0.1116841E+005  0.1043930E+01  0.7957747E-01            NaN
         13   -1    0    0    0    0  0.00000000000E+00  0.00000000000E+00  0.74505805969E-08  0.10566000000E+00  0.10566000000E+00 0. -1.
     999900   -1    0    0    0    0 -0.00000000000E+00 -0.00000000000E+00 -0.74505805969E-08  0.93827000000E+00  0.93827000000E+00 0. -1.
     999902    2    1    2    0    0 -0.18907195231E-01 -0.15332077201E-02 -0.15546957555E-01  0.10194036744E+01  0.10191085863E+01 0.  0.
     999903    2    3    3    0    0 -0.18753689885E-01 -0.75079089394E-01 -0.10477743255E+00  0.13183897371E+00  0.20362565349E-01 0.  0.
         14    1    1    2    0    0  0.18907195231E-01  0.15332077201E-02  0.15546957555E-01  0.24526325584E-01  0.00000000000E+00 0. -1.
     999901    1    3    3    0    0 -0.15350534620E-03  0.73545881674E-01  0.89230474997E-01  0.88756470071E+00  0.88000000000E+00 0.  1.
        -11    1    4    4    0    0  0.72285580604E-03 -0.36758790975E-01 -0.43019248865E-01  0.56591944023E-01  0.51100000000E-03 0.  1.
         11    1    4    4    0    0 -0.19476545691E-01 -0.38320298419E-01 -0.61758183687E-01  0.75247029684E-01  0.51100000000E-03 0. -1.
</event>
<event>
 8    1  0.1116841E+005  0.1043930E+01  0.7957747E-01            NaN
         13   -1    0    0    0    0  0.00000000000E+00  0.00000000000E+00  0.74505805969E-08  0.10566000000E+00  0.10566000000E+00 0. -1.
     999900   -1    0    0    0    0 -0.00000000000E+00 -0.00000000000E+00 -0.74505805969E-08  0.93827000000E+00  0.93827000000E+00 0. -1.
     999902    2    1    2    0    0  0.21438269257E-02 -0.59898878486E-02  0.19912819038E-01  0.10230255719E+01  0.10228119699E+01 0.  0.
     999903    2    3    3    0    0  0.12404192368E+00  0.20049866119E-01 -0.36915921207E-01  0.13242649239E+00  0.19636565031E-01 0.  0.
         14    1    1    2    0    0 -0.21438269257E-02  0.59898878486E-02 -0.19912819038E-01  0.20904428057E-01  0.00000000000E+00 0.  1.
     999901    1    3    3    0    0 -0.12189809676E+00 -0.26039753967E-01  0.56828740245E-01  0.89059907955E+00  0.88000000000E+00 0.  1.
        -11    1    4    4    0    0  0.52478633987E-01  0.89069409381E-02 -0.25788168698E-01  0.59149229816E-01  0.51100000000E-03 0. -1.
         11    1    4    4    0    0  0.71563289696E-01  0.11142925181E-01 -0.11127752509E-01  0.73277262576E-01  0.51100000000E-03 0.  1.
</event>
<event>
 8    1  0.1116841E+005  0.1043930E+01  0.7957747E-01            NaN
         13   -1    0    0    0    0  0.00000000000E+00  0.00000000000E+00  0.74505805969E-08  0.10566000000E+00  0.10566000000E+00 0. -1.
     999900   -1    0    0    0    0 -0.00000000000E+00 -0.00000000000E+00 -0.74505805969E-08  0.93827000000E+00  0.93827000000E+00 0. -1.
     999902    2    1    2    0    0  0.10820286572E-01 -0.92411904297E-03  0.93521313447E-02  0.10295983930E+01  0.10294986430E+01 0.  0.
     999903    2    3    3    0    0 -0.58122034373E-02 -0.80974042997E-01  0.11211302133E+00  0.13985436773E+00  0.19983424964E-01 0.  0.
         14    1    1    2    0    0 -0.10820286572E-01  0.92411904297E-03 -0.93521313447E-02  0.14331606965E-01  0.00000000000E+00 0.  1.
     999901    1    3    3    0    0  0.16632490009E-01  0.80049923954E-01 -0.10276088999E+00  0.88974402530E+00  0.88000000000E+00 0. -1.
        -11    1    4    4    0    0 -0.16794451724E-02 -0.75832328800E-01  0.10828854194E+00  0.13221207230E+00  0.51100000000E-03 0.  1.
         11    1    4    4    0    0 -0.41327582650E-02 -0.51417141965E-02  0.38244793983E-02  0.76422954290E-02  0.51100000000E-03 0. -1.
</event>
<event>
 8    1  0.1116841E+005  0.1043930E+01  0.7957747E-01            NaN
         13   -1    0    0    0    0  0.00000000000E+00  0.00000000000E+00  0.74505805969E-08  0.10566000000E+00  0.10566000000E+00 0.  1.
     999900   -1    0    0    0    0 -0.00000000000E+00 -0.00000000000E+00 -0.74505805969E-08  0.93827000000E+00  0.93827000000E+00 0.  1.
     999902    2    1    2    0    0 -0.16316780103E-01  0.13220524941E-01 -0.10996747346E-01  0.10202245566E+01  0.10199491154E+01 0.  0.
     999903    2    3    3    0    0  0.10993432561E+00  0.62415807347E-01  0.19488506814E-01  0.12933238122E+00  0.19125218413E-01 0.  0.
         14    1    1    2    0    0  0.16316780103E-01 -0.13220524941E-01  0.10996747346E-01  0.23705443359E-01  0.00000000000E+00 0.  1.
     999901    1    3    3    0    0 -0.12625110572E+00 -0.49195282406E-01 -0.30485254160E-01  0.89089217542E+00  0.88000000000E+00 0.  1.
        -11    1    4    4    0    0  0.64763645931E-01  0.29752120203E-01  0.18254608788E-01  0.73573163272E-01  0.51100000000E-03 0.  1.
         11    1    4    4    0    0  0.45170679682E-01  0.32663687144E-01  0.12338980254E-02  0.55759217947E-01  0.51100000000E-03 0. -1.
</event>
<event>
 8    1  0.1116841E+005  0.1043930E+01  0.7957747E-01            NaN
         13   -1    0    0    0    0  0.00000000000E+00  0.00000000000E+00  0.74505805969E-08  0.10566000000E+00  0.10566000000E+00 0.  1.
     999900   -1    0    0    0    0 -0.00000000000E+00 -0.00000000000E+00 -0.74505805969E-08  0.93827000000E+00  0.93827000000E+00 0. -1.
     999902    2    1    2    0    0 -0.12693082326E-01  0.30730452619E-02  0.20267832649E-01  0.10198189447E+01  0.10195338822E+01 0.  0.
     999903    2    3    3    0    0 -0.12298938030E+00  0.38359185925E-01  0.22206648765E-01  0.13222999477E+00  0.19844935278E-01 0.  0.
         14    1    1    2    0    0  0.12693082326E-01 -0.30730452619E-02 -0.20267832649E-01  0.24111055274E-01  0.00000000000E+00 0. -1.
     999901    1    3    3    0    0  0.11029629798E+00 -0.35286140663E-01 -0.19388161154E-02  0.88758894995E+00  0.88000000000E+00 0. -1.
        -11    1    4    4    0    0 -0.96657977361E-01  0.32525534100E-01  0.25306208165E-01  0.10507778190E+00  0.51100000000E-03 0.  1.
         11    1    4    4    0    0 -0.26331402942E-01  0.58336518249E-02 -0.30995594004E-02  0.27152212874E-01  0.51100000000E-03 0. -1.
</event>
<event>
 8    1  0.1116841E+005  0.1043930E+01  0.7957747E-01            NaN
         13   -1    0    0    0    0  0.00000000000E+00  0.00000000000E+00  0.74505805969E-08  0.10566000000E+00  0.10566000000E+00 0.  1.
     999900   -1    0    0    0    0 -0.00000000000E+00 -0.00000000000E+00 -0.74505805969E-08  0.93827000000E+00  0.93827000000E+00 0.  1.
     999902    2    1    2    0    0  0.15291288878E-01  0.72433364183E-02 -0.16589136126E-01  0.10202342435E+01  0.10199590299E+01 0.  0.
     999903    2    3    3    0    0 -0.11166965037E+00  0.30858250266E-01  0.51320433040E-01  0.12822053631E+00  0.19605526309E-01 0.  0.
         14    1    1    2    0    0 -0.15291288878E-01 -0.72433364183E-02  0.16589136126E-01  0.23695756485E-01  0.00000000000E+00 0.  1.
     999901    1    3    3    0    0  0.12696093925E+00 -0.23614913847E-01 -0.67909569166E-01  0.89201370720E+00  0.88000000000E+00 0.  1.
        -11    1    4    4    0    0 -0.69397649908E-01  0.28896613415E-01  0.33468500587E-01  0.82288818999E-01  0.51100000000E-03 0. -1.
         11    1    4    4    0    0 -0.42272000462E-01  0.19616368508E-02  0.17851932453E-01  0.45931717315E-01  0.51100000000E-03 0.  1.
</event>
<event>
 8    1  0.1116841E+005  0.1043930E+01  0.7957747E-01            NaN
         13   -1    0    0    0    0  0.00000000000E+00  0.00000000000E+00  0.74505805969E-08  0.10566000000E+00  0.10566000000E+00 0. -1.
     999900   -1    0    0    0    0 -0.00000000000E+00 -0.00000000000E+00 -0.74505805969E-08  0.93827000000E+00  0.93827000000E+00 0.  1.
     999902    2    1    2    0    0 -0.88307558352E-03 -0.20356741814E-01  0.65892005578E-02  0.10225151845E+01  0.10222909117E+01 0.  0.
     999903    2    3    3    0    0  0.75206496717E-01 -0.57465882307E-01  0.92835865919E-01  0.13425553854E+00  0.21159084326E-01 0.  0.
         14    1    1    2    0    0  0.88307558352E-03  0.20356741814E-01 -0.65892005578E-02  0.21414815520E-01  0.00000000000E+00 0.  1.
     999901    1    3    3    0    0 -0.76089572301E-01  0.37109140493E-01 -0.86246665362E-01  0.88825964594E+00  0.88000000000E+00 0.  1.
        -11    1    4    4    0    0  0.38271383960E-01 -0.16163424168E-01  0.38239268804E-01  0.56466431715E-01  0.51100000000E-03 0. -1.
         11    1    4    4    0    0  0.36935112758E-01 -0.41302458140E-01  0.54596597116E-01  0.77789106823E-01  0.51100000000E-03 0.  1.
</event>
<event>
 8    1  0.1116841E+005  0.1043930E+01  0.7957747E-01            NaN
         13   -1    0    0    0    0  0.00000000000E+00  0.00000000000E+00  0.74505805969E-08  0.10566000000E+00  0.10566000000E+00 0. -1.
     999900   -1    0    0    0    0 -0.00000000000E+00 -0.00000000000E+00 -0.74505805969E-08  0.93827000000E+00  0.93827000000E+00 0.  1.
     999902    2    1    2    0    0 -0.17506736995E-01 -0.15792812808E-01  0.41341439138E-02  0.10199927921E+01  0.10197118740E+01 0.  0.
     999903    2    3    3    0    0  0.51828340310E-01  0.10247912689E+00  0.53037841557E-01  0.12803585574E+00  0.19799480062E-01 0.  0.
         14    1    1    2    0    0  0.17506736995E-01  0.15792812808E-01 -0.41341439138E-02  0.23937207909E-01  0.00000000000E+00 0.  1.
     999901    1    3    3    0    0 -0.69335077305E-01 -0.11827193969E+00 -0.48903697644E-01  0.89195693635E+00  0.88000000000E+00 0.  1.
        -11    1    4    4    0    0  0.15582230779E-01  0.48290421343E-01  0.16843293223E-01  0.53467077320E-01  0.51100000000E-03 0.  1.
         11    1    4    4    0    0  0.36246109531E-01  0.54188705545E-01  0.36194548334E-01  0.74568778419E-01  0.51100000000E-03 0. -1.
</event>
<event>
 8    1  0.1116841E+005  0.1043930E+01  0.7957747E-01            NaN
         13   -1    0    0    0    0  0.00000000000E+00  0.00000000000E+00  0.74505805969E-08  0.10566000000E+00  0.10566000000E+00 0. -1.
     999900   -1    0    0    0    0 -0.00000000000E+00 -0.00000000000E+00 -0.74505805969E-08  0.93827000000E+00  0.93827000000E+00 0.  1.
     999902    2    1    2    0    0  0.26353877894E-01 -0.91452536203E-02  0.30274559707E-03  0.10160327923E+01  0.10156497333E+01 0.  0.
     999903    2    3    3    0    0 -0.10215770787E+00 -0.13097436180E-01 -0.65503701968E-01  0.12425852938E+00  0.23274600785E-01 0.  0.
         14    1    1    2    0    0 -0.26353877894E-01  0.91452536203E-02 -0.30274559707E-03  0.27897207723E-01  0.00000000000E+00 0.  1.
     999901    1    3    3    0    0  0.12851158576E+00  0.39521825598E-02  0.65806447565E-01  0.89177426290E+00  0.88000000000E+00 0.  1.
        -11    1    4    4    0    0 -0.44929293949E-01  0.58308184376E-02 -0.27695265151E-01  0.53103001151E-01  0.51100000000E-03 0.  1.
         11    1    4    4    0    0 -0.57228413917E-01 -0.18928254618E-01 -0.37808436817E-01  0.71155528231E-01  0.51100000000E-03 0. -1.
</event>
<event>
 8    1  0.1116841E+005  0.1043930E+01  0.7957747E-01            NaN
         13   -1    0    0    0    0  0.00000000000E+00  0.00000000000E+00  0.74505805969E-08  0.10566000000E+00  0.10566000000E+00 0. -1.
     999900   -1    0    0    0    0 -0.00000000000E+00 -0.00000000000E+00 -0.74505805969E-08  0.93827000000E+00  0.93827000000E+00 0.  1.
     999902    2    1    2    0    0 -0.10946509211E-01 -0.20864760394E-01  0.84800831194E-03  0.10203528202E+01  0.10200803862E+01 0.  0.
     999903    2    3    3    0    0 -0.25967969976E-01  0.74263818144E-01 -0.97425794303E-01  0.12966048777E+00  0.33624493193E-01 0.  0.
         14    1    1    2    0    0  0.10946509211E-01  0.20864760394E-01 -0.84800831194E-03  0.23577179820E-01  0.00000000000E+00 0. -1.
     999901    1    3    3    0    0  0.15021460766E-01 -0.95128578538E-01  0.98273802615E-01  0.89069233241E+00  0.88000000000E+00 0. -1.
        -11    1    4    4    0    0 -0.40737182536E-02  0.27590217428E-01 -0.13086362509E-01  0.30811187625E-01  0.51100000000E-03 0. -1.
         11    1    4    4    0    0 -0.21894251723E-01  0.46673600716E-01 -0.84339431794E-01  0.98849300142E-01  0.51100000000E-03 0.  1.
</event>
<event>
 8    1  0.1116841E+005  0.1043930E+01  0.7957747E-01            NaN
         13   -1    0    0    0    0  0.00000000000E+00  0.00000000000E+00  0.74505805969E-08  0.10566000000E+00  0.10566000000E+00 0.  1.
     999900   -1    0    0    0    0 -0.00000000000E+00 -0.00000000000E+00 -0.74505805969E-08  0.93827000000E+00  0.93827000000E+00 0.  1.
     999902    2    1    2    0    0  0.64371864204E-02  0.13620550370E-01  0.30775749959E-01  0.10096648056E+01  0.10090832058E+01 0.  0.
     999903    2    3    3    0    0 -0.90067719633E-01  0.25734598409E-01 -0.69984998143E-01  0.11859091674E+00  0.19784890546E-01 0.  0.
         14    1    1    2    0    0 -0.64371864204E-02 -0.13620550370E-01 -0.30775749959E-01  0.34265194395E-01  0.00000000000E+00 0. -1.
     999901    1    3    3    0    0  0.96504906053E-01 -0.12114048039E-01  0.10076074810E+00  0.89107388886E+00  0.88000000000E+00 0. -1.
        -11    1    4    4    0    0 -0.59526956131E-01  0.26048678192E-01 -0.51239920055E-01  0.82751330322E-01  0.51100000000E-03 0.  1.
         11    1    4    4    0    0 -0.30540763501E-01 -0.31407978284E-03 -0.18745078088E-01  0.35839586421E-01  0.51100000000E-03 0. -1.
</event>
<event>
 8    1  0.1116841E+005  0.1043930E+01  0.7957747E-01            NaN
         13   -1    0    0    0    0  0.00000000000E+00  0.00000000000E+00  0.74505805969E-08  0.10566000000E+00  0.10566000000E+00 0. -1.
     999900   -1    0    0    0    0 -0.00000000000E+00 -0.00000000000E+00 -0.74505805969E-08  0.93827000000E+00  0.93827000000E+00 0. -1.
     999902    2    1    2    0    0  0.10825114068E-01  0.84305527195E-02  0.25762971009E-01  0.10147411667E+01  0.10143212743E+01 0.  0.
     999903    2    3    3    0    0  0.10052275399E+00  0.59504358655E-01 -0.43860199159E-01  0.12597708885E+00  0.17346961611E-01 0.  0.
         14    1    1    2    0    0 -0.10825114068E-01 -0.84305527195E-02 -0.25762971009E-01  0.29188833292E-01  0.00000000000E+00 0.  1.
     999901    1    3    3    0    0 -0.89697639922E-01 -0.51073805936E-01  0.69623170167E-01  0.88876407785E+00  0.88000000000E+00 0. -1.
        -11    1    4    4    0    0  0.30485104309E-01  0.18694203818E-01 -0.51025380776E-02  0.36126331906E-01  0.51100000000E-03 0.  1.
         11    1    4    4    0    0  0.70037649681E-01  0.40810154837E-01 -0.38757661081E-01  0.89850756948E-01  0.51100000000E-03 0. -1.
</event>
<event>
 8    1  0.1116841E+005  0.1043930E+01  0.7957747E-01            NaN
         13   -1    0    0    0    0  0.00000000000E+00  0.00000000000E+00  0.74505805969E-08  0.10566000000E+00  0.10566000000E+00 0.  1.
     999900   -1    0    0    0    0 -0.00000000000E+00 -0.00000000000E+00 -0.74505805969E-08  0.93827000000E+00  0.93827000000E+00 0.  1.
     999902    2    1    2    0    0  0.61607085728E-02  0.12547524209E-01 -0.19545463350E-01  0.10199004384E+01  0.10196173225E+01 0.  0.
     999903    2    3    3    0    0 -0.95099444221E-01  0.33885986300E-01  0.77130028449E-01  0.12857833094E+00  0.19778309820E-01 0.  0.
         14    1    1    2    0    0 -0.61607085728E-02 -0.12547524209E-01  0.19545463350E-01  0.24029561616E-01  0.00000000000E+00 0.  1.
     999901    1    3    3    0    0  0.10126015279E+00 -0.21338462091E-01 -0.96675491799E-01  0.89132210745E+00  0.88000000000E+00 0. -1.
        -11    1    4    4    0    0 -0.33243303032E-01  0.16534261919E-01  0.18004357470E-01  0.41266415189E-01  0.51100000000E-03 0.  1.
         11    1    4    4    0    0 -0.61856141189E-01  0.17351724382E-01  0.59125670979E-01  0.87311915748E-01  0.51100000000E-03 0. -1.
</event>
<event>
 8    1  0.1116841E+005  0.1043930E+01  0.7957747E-01            NaN
         13   -1    0    0    0    0  0.00000000000E+00  0.00000000000E+00  0.74505805969E-08  0.10566000000E+00  0.10566000000E+00 0.  1.
     999900   -1    0    0    0    0 -0.00000000000E+00 -0.00000000000E+00 -0.74505805969E-08  0.93827000000E+00  0.93827000000E+00 0. -1.
     999902    2    1    2    0    0 -0.14792717245E-01  0.18000089825E-01 -0.48369091681E-02  0.10201345507E+01  0.10198569891E+01 0.  0.
     999903    2    3    3    0    0 -0.74438611608E-01 -0.17749536370E-01 -0.10546879431E+00  0.13167383418E+00  0.18925620088E-01 0.  0.
         14    1    1    2    0    0  0.14792717245E-01 -0.18000089825E-01  0.48369091681E-02  0.23795449302E-01  0.00000000000E+00 0. -1.
     999901    1    3    3    0    0  0.59645894364E-01  0.35749626195E-01  0.10063188514E+00  0.88846071652E+00  0.88000000000E+00 0.  1.
        -11    1    4    4    0    0 -0.41384758360E-01 -0.12602076686E-02 -0.48446327551E-01  0.63730637232E-01  0.51100000000E-03 0.  1.
         11    1    4    4    0    0 -0.33053853248E-01 -0.16489328701E-01 -0.57022466756E-01  0.67943196948E-01  0.51100000000E-03 0. -1.
</event>
<event>
 8    1  0.1116841E+005  0.1043930E+01  0.7957747E-01            NaN
         13   -1    0    0    0    0  0.00000000000E+00  0.00000000000E+00  0.74505805969E-08  0.10566000000E+00  0.10566000000E+00 0. -1.
     999900   -1    0    0    0    0 -0.00000000000E+00 -0.00000000000E+00 -0.74505805969E-08  0.93827000000E+00  0.93827000000E+00 0. -1.
     999902    2    1    2    0    0  0.19729125319E-01 -0.47186766340E-03  0.10739828512E-01  0.10214621349E+01  0.10212150058E+01 0.  0.
     999903    2    3    3    0    0 -0.32153579388E-01 -0.12494822435E+00  0.13685320168E-01  0.13118417027E+00  0.19392965328E-01 0.  0.
         14    1    1    2    0    0 -0.19729125319E-01  0.47186766340E-03 -0.10739828512E-01  0.22467865084E-01  0.00000000000E+00 0.  1.
     999901    1    3    3    0    0  0.51882704707E-01  0.12447635669E+00 -0.29454916560E-02  0.89027796465E+00  0.88000000000E+00 0.  1.
        -11    1    4    4    0    0 -0.11499242397E-02 -0.30144598633E-01  0.83068506338E-02  0.31293514360E-01  0.51100000000E-03 0.  1.
         11    1    4    4    0    0 -0.31003655148E-01 -0.94803625717E-01  0.53784695345E-02  0.99890655906E-01  0.51100000000E-03 0. -1.
</event>
<event>
 8    1  0.1116841E+005  0.1043930E+01  0.7957747E-01            NaN
         13   -1    0    0    0    0  0.00000000000E+00  0.00000000000E+00  0.74505805969E-08  0.10566000000E+00  0.10566000000E+00 0. -1.
     999900   -1    0    0    0    0 -0.00000000000E+00 -0.00000000000E+00 -0.74505805969E-08  0.93827000000E+00  0.93827000000E+00 0.  1.
     999902    2    1    2    0    0 -0.90791547935E-02 -0.20118170252E-01  0.34240169128E-02  0.10215940264E+01  0.10213498221E+01 0.  0.
     999903    2    3    3    0    0 -0.92272995248E-01 -0.95594105843E-01 -0.13367308329E-01  0.13429487696E+00  0.14279016849E-01 0.  0.
         14    1    1    2    0    0  0.90791547935E-02  0.20118170252E-01 -0.34240169128E-02  0.22335973627E-01  0.00000000000E+00 0. -1.
     999901    1    3    3    0    0  0.83193840454E-01  0.75475935592E-01  0.16791325242E-01  0.88729914941E+00  0.88000000000E+00 0. -1.
        -11    1    4    4    0    0 -0.38932959822E-01 -0.45089400916E-01  0.30423758395E-03  0.59575020914E-01  0.51100000000E-03 0.  1.
         11    1    4    4    0    0 -0.53340035426E-01 -0.50504704928E-01 -0.13671545913E-01  0.74719856048E-01  0.51100000000E-03 0. -1.
</event>
<event>
 8    1  0.1116841E+005  0.1043930E+01  0.7957747E-01            NaN
         13   -1    0    0    0    0  0.00000000000E+00  0.00000000000E+00  0.74505805969E-08  0.10566000000E+00  0.10566000000E+00 0.  1.
     999900   -1    0    0    0    0 -0.00000000000E+00 -0.00000000000E+00 -0.74505805969E-08  0.93827000000E+00  0.93827000000E+00 0.  1.
     999902    2    1    2    0    0 -0.19607793502E-01 -0.16495366317E-01  0.54270737042E-02  0.10177380966E+01  0.10174010111E+01 0.  0.
     999903    2    3    3    0    0  0.22114678284E-01  0.54404893310E-01 -0.11008244557E+00  0.12638515834E+00  0.20152221028E-01 0.  0.
         14    1    1    2    0    0  0.19607793502E-01  0.16495366317E-01 -0.54270737042E-02  0.26191903424E-01  0.00000000000E+00 0. -1.
     999901    1    3    3    0    0 -0.41722471786E-01 -0.70900259627E-01  0.11550951928E+00  0.89135293824E+00  0.88000000000E+00 0. -1.
        -11    1    4    4    0    0  0.33105164282E-02  0.33657736490E-01 -0.54428935182E-01  0.64082547162E-01  0.51100000000E-03 0. -1.
         11    1    4    4    0    0  0.18804161856E-01  0.20747156820E-01 -0.55653510391E-01  0.62302611174E-01  0.51100000000E-03 0.  1.
</event>
<event>
 8    1  0.1116841E+005  0.1043930E+01  0.7957747E-01            NaN
         13   -1    0    0    0    0  0.00000000000E+00  0.00000000000E+00  0.74505805969E-08  0.10566000000E+00  0.10566000000E+00 0.  1.
     999900   -1    0    0    0    0 -0.00000000000E+00 -0.00000000000E+00 -0.74505805969E-08  0.93827000000E+00  0.93827000000E+00 0. -1.
     999902    2    1    2    0    0 -0.29532625962E-01  0.42343106911E-02 -0.27879593607E-02  0.10139653859E+01  0.10135225334E+01 0.  0.
     999903    2    3    3    0    0  0.11265480187E+00 -0.36923922281E-02 -0.40613557016E-01  0.12171493162E+00  0.21455195631E-01 0.  0.
         14    1    1    2    0    0  0.29532625962E-01 -0.42343106911E-02  0.27879593607E-02  0.29964614142E-01  0.00000000000E+00 0. -1.
     999901    1    3    3    0    0 -0.14218742784E+00  0.79267029192E-02  0.37825597656E-01  0.89225045424E+00  0.88000000000E+00 0. -1.
        -11    1    4    4    0    0  0.35148936756E-01 -0.10892668355E-01 -0.10722655719E-01  0.38331898539E-01  0.51100000000E-03 0. -1.
         11    1    4    4    0    0  0.77505865118E-01  0.72002761267E-02 -0.29890901298E-01  0.83383033079E-01  0.51100000000E-03 0.  1.
</event>
<event>
 7    1  0.1116841E+005  0.1043930E+01  0.7957747E-01            NaN
         13   -1    0    0    0    0  0.00000000000E+00  0.00000000000E+00  0.74505805969E-08  0.10566000000E+00  0.10566000000E+00 0. -1.
     999900   -1    0    0    0    0 -0.00000000000E+00 -0.00000000000E+00 -0.74505805969E-08  0.93827000000E+00  0.93827000000E+00 0.  1.
     999902    2    1    2    0    0 -0.74387898043E-02 -0.92518732277E-04 -0.22460635595E-01  0.10202693934E+01  0.10199950053E+01 0.  0.
         14    1    1    2    0    0  0.74387898043E-02  0.92518732277E-04  0.22460635595E-01  0.23660606603E-01  0.00000000000E+00 0. -1.
     999901    1    3    3    0    0  0.45789004195E-01 -0.10803677475E+00  0.31345795699E-01  0.88834179037E+00  0.88000000000E+00 0. -1.
        -11    1    3    3    0    0 -0.23363240379E-01  0.51117667867E-01 -0.27056377262E-01  0.62379208401E-01  0.51100000000E-03 0. -1.
         11    1    3    3    0    0 -0.29864553620E-01  0.56826588151E-01 -0.26750054032E-01  0.69548394630E-01  0.51100000000E-03 0.  1.
</event>
<event>
 8    1  0.1116841E+005  0.1043930E+01  0.7957747E-01            NaN
         13   -1    0    0    0    0  0.00000000000E+00  0.00000000000E+00  0.74505805969E-08  0.10566000000E+00  0.10566000000E+00 0.  1.
     999900   -1    0    0    0    0 -0.00000000000E+00 -0.00000000000E+00 -0.74505805969E-08  0.93827000000E+00  0.93827000000E+00 0. -1.
     999902    2    1    2    0    0 -0.22767120480E-01 -0.54015637463E-02 -0.46900742242E-03  0.10205261833E+01  0.10202577872E+01 0.  0.
     999903    2    3    3    0    0 -0.12499519146E+00  0.11066477960E-01 -0.40636117213E-01  0.13354525255E+00  0.20899177816E-01 0.  0.
         14    1    1    2    0    0  0.22767120480E-01  0.54015637463E-02  0.46900742242E-03  0.23403816651E-01  0.00000000000E+00 0. -1.
     999901    1    3    3    0    0  0.10222807098E+00 -0.16468041706E-01  0.40167109791E-01  0.88698093080E+00  0.88000000000E+00 0. -1.
        -11    1    4    4    0    0 -0.79482353134E-01 -0.70513160202E-03 -0.32297397656E-01  0.85798162490E-01  0.51100000000E-03 0. -1.
         11    1    4    4    0    0 -0.45512838327E-01  0.11771609562E-01 -0.83387195574E-02  0.47747090059E-01  0.51100000000E-03 0.  1.
</event>
<event>
 8    1  0.1116841E+005  0.1043930E+01  0.7957747E-01            NaN
         13   -1    0    0    0    0  0.00000000000E+00  0.00000000000E+00  0.74505805969E-08  0.10566000000E+00  0.10566000000E+00 0. -1.
     999900   -1    0    0    0    0 -0.00000000000E+00 -0.00000000000E+00 -0.74505805969E-08  0.93827000000E+00  0.93827000000E+00 0.  1.
     999902    2    1    2    0    0 -0.16202719527E-01 -0.15049114033E-01 -0.47147062591E-02  0.10213195509E+01  0.10210692399E+01 0.  0.
     999903    2    3    3    0    0 -0.11384261641E+00 -0.17839507375E-02 -0.67399161873E-01  0.13360402496E+00  0.18548980369E-01 0.  0.
         14    1    1    2    0    0  0.16202719527E-01  0.15049114033E-01  0.47147062591E-02  0.22610449097E-01  0.00000000000E+00 0. -1.
     999901    1    3    3    0    0  0.97639896886E-01 -0.13265163296E-01  0.62684455614E-01  0.88771552594E+00  0.88000000000E+00 0. -1.
        -11    1    4    4    0    0 -0.24652363946E-01  0.65484061911E-02 -0.18791062967E-01  0.31685735595E-01  0.51100000000E-03 0. -1.
         11    1    4    4    0    0 -0.89190252468E-01 -0.83323569286E-02 -0.48608098906E-01  0.10191828937E+00  0.51100000000E-03 0.  1.
</event>
<event>
 8    1  0.1116841E+005  0.1043930E+01  0.7957747E-01            NaN
         13   -1    0    0    0    0  0.00000000000E+00  0.00000000000E+00  0.74505805969E-08  0.10566000000E+00  0.10566000000E+00 0.  1.
     999900   -1    0    0    0    0 -0.00000000000E+00 -0.00000000000E+00 -0.74505805969E-08  0.93827000000E+00  0.93827000000E+00 0.  1.
     999902    2    1    2    0    0  0.11771914548E-01 -0.16253097567E-01 -0.12022347403E-01  0.10205360266E+01  0.10202678588E+01 0.  0.
     999903    2    3    3    0    0  0.92502850120E-01 -0.93449427026E-01  0.90315816940E-02  0.13322546929E+00  0.19439226045E-01 0.  0.
         14    1    1    2    0    0 -0.11771914548E-01  0.16253097567E-01  0.12022347403E-01  0.23393973363E-01  0.00000000000E+00 0. -1.
     999901    1    3    3    0    0 -0.80730935572E-01  0.77196329459E-01 -0.21053929097E-01  0.88731055734E+00  0.88000000000E+00 0. -1.
        -11    1    4    4    0    0  0.77015901859E-01 -0.66202530517E-01  0.60839139817E-02  0.10174231822E+00  0.51100000000E-03 0.  1.
         11    1    4    4    0    0  0.15486948260E-01 -0.27246896509E-01  0.29476677123E-02  0.31483151077E-01  0.51100000000E-03 0. -1.
</event>
<event>
 8    1  0.1116841E+005  0.1043930E+01  0.7957747E-01            NaN
         13   -1    0    0    0    0  0.00000000000E+00  0.00000000000E+00  0.74505805969E-08  0.10566000000E+00  0.10566000000E+00 0.  1.
     999900   -1    0    0    0    0 -0.00000000000E+00 -0.00000000000E+00 -0.74505805969E-08  0.93827000000E+00  0.93827000000E+00 0. -1.
     999902    2    1    2    0    0  0.16591999501E-01  0.16648350050E-01 -0.21930945719E-03  0.10204244665E+01  0.10201537050E+01 0.  0.
     999903    2    3    3    0    0 -0.46194598181E-01 -0.31844823581E-01  0.11490462722E+00  0.12938728126E+00  0.19747443024E-01 0.  0.
         14    1    1    2    0    0 -0.16591999501E-01 -0.16648350050E-01  0.21930945719E-03  0.23505533465E-01  0.00000000000E+00 0. -1.
     999901    1    3    3    0    0  0.62786597682E-01  0.48493173631E-01 -0.11512393668E+00  0.89103718527E+00  0.88000000000E+00 0. -1.
        -11    1    4    4    0    0  0.12385405900E-02 -0.36692145950E-02  0.44608687258E-02  0.59293835536E-02  0.51100000000E-03 0.  1.
         11    1    4    4    0    0 -0.47433138771E-01 -0.28175608986E-01  0.11044375850E+00  0.12345789771E+00  0.51100000000E-03 0. -1.
</event>
<event>
 8    1  0.1116841E+005  0.1043930E+01  0.7957747E-01            NaN
         13   -1    0    0    0    0  0.00000000000E+00  0.00000000000E+00  0.74505805969E-08  0.10566000000E+00  0.10566000000E+00 0.  1.
     999900   -1    0    0    0    0 -0.00000000000E+00 -0.00000000000E+00 -0.74505805969E-08  0.93827000000E+00  0.93827000000E+00 0.  1.
     999902    2    1    2    0    0 -0.80995499962E-02 -0.21491441598E-01 -0.58321218944E-02  0.10202340422E+01  0.10199588239E+01 0.  0.
     999903    2    3    3    0    0 -0.10138011970E+00  0.25962195219E-01 -0.77166815803E-01  0.13116613087E+00  0.17258973783E-01 0.  0.
         14    1    1    2    0    0  0.80995499962E-02  0.21491441598E-01  0.58321218944E-02  0.23695957839E-01  0.00000000000E+00 0.  1.
     999901    1    3    3    0    0  0.93280569702E-01 -0.47453636817E-01  0.71334693908E-01  0.88906791129E+00  0.88000000000E+00 0. -1.
        -11    1    4    4    0    0 -0.43138211170E-01  0.19651461544E-01 -0.32083519993E-01  0.57242454349E-01  0.51100000000E-03 0.  1.
         11    1    4    4    0    0 -0.58241908528E-01  0.63107336751E-02 -0.45083295809E-01  0.73923676522E-01  0.51100000000E-03 0. -1.
</event>
<event>
 8    1  0.1116841E+005  0.1043930E+01  0.7957747E-01            NaN
         13   -1    0    0    0    0  0.00000000000E+00  0.00000000000E+00  0.74505805969E-08  0.10566000000E+00  0.10566000000E+00 0. -1.
     999900   -1    0    0    0    0 -0.00000000000E+00 -0.00000000000E+00 -0.74505805969E-08  0.93827000000E+00  0.93827000000E+00 0. -1.
     999902    2    1    2    0    0  0.17774408007E-01  0.20863629662E-01  0.46787575000E-02  0.10161251192E+01  0.10157446266E+01 0.  0.
     999903    2    3    3    0    0 -0.39089886024E-01  0.11657110785E+00  0.32016444275E-01  0.12869015348E+00  0.20475852236E-01 0.  0.
         14    1    1    2    0    0 -0.17774408007E-01 -0.20863629662E-01 -0.46787575000E-02  0.27804880766E-01  0.00000000000E+00 0. -1.
     999901    1    3    3    0    0  0.56864294031E-01 -0.95707478190E-01 -0.27337686775E-01  0.88743496575E+00  0.88000000000E+00 0. -1.
        -11    1    4    4    0    0 -0.98690152949E-02  0.21393695097E-01 -0.15605193914E-02  0.23617451060E-01  0.51100000000E-03 0.  1.
         11    1    4    4    0    0 -0.29220870729E-01  0.95177412754E-01  0.33576963666E-01  0.10507270242E+00  0.51100000000E-03 0. -1.
</event>
<event>
 8    1  0.1116841E+005  0.1043930E+01  0.7957747E-01            NaN
         13   -1    0    0    0    0  0.00000000000E+00  0.00000000000E+00  0.74505805969E-08  0.10566000000E+00  0.10566000000E+00 0.  1.
     999900   -1    0    0    0    0 -0.00000000000E+00 -0.00000000000E+00 -0.74505805969E-08  0.93827000000E+00  0.93827000000E+00 0. -1.
     999902    2    1    2    0    0 -0.13874968878E-01 -0.19148031499E-01 -0.17578545163E-02  0.10202181480E+01  0.10199425560E+01 0.  0.
     999903    2    3    3    0    0  0.33828305282E-01  0.21415848360E-01 -0.12171328182E+00  0.12987532907E+00  0.21224639701E-01 0.  0.
         14    1    1    2    0    0  0.13874968878E-01  0.19148031499E-01  0.17578545163E-02  0.23711851976E-01  0.00000000000E+00 0. -1.
     999901    1    3    3    0    0 -0.47703274160E-01 -0.40563879859E-01  0.11995542731E+00  0.89034281895E+00  0.88000000000E+00 0. -1.
        -11    1    4    4    0    0  0.55222492399E-02  0.16502125377E-02 -0.49444867046E-01  0.49782270301E-01  0.51100000000E-03 0.  1.
         11    1    4    4    0    0  0.28306056042E-01  0.19765635822E-01 -0.72268414778E-01  0.80093058773E-01  0.51100000000E-03 0. -1.
</event>
<event>
 8    1  0.1116841E+005  0.1043930E+01  0.7957747E-01            NaN
         13   -1    0    0    0    0  0.00000000000E+00  0.00000000000E+00  0.74505805969E-08  0.10566000000E+00  0.10566000000E+00 0. -1.
     999900   -1    0    0    0    0 -0.00000000000E+00 -0.00000000000E+00 -0.74505805969E-08  0.93827000000E+00  0.93827000000E+00 0.  1.
     999902    2    1    2    0    0  0.92197165007E-02 -0.21365309867E-01 -0.59027534788E-02  0.10199232898E+01  0.10196407185E+01 0.  0.
     999903    2    3    3    0    0 -0.59507536653E-01 -0.11361982872E+00  0.23210065277E-01  0.13195826354E+00  0.20583094716E-01 0.  0.
         14    1    1    2    0    0 -0.92197165007E-02  0.21365309867E-01  0.59027534788E-02  0.24006710243E-01  0.00000000000E+00 0.  1.
     999901    1    3    3    0    0  0.68727253153E-01  0.92254518854E-01 -0.29112818756E-01  0.88796502622E+00  0.88000000000E+00 0. -1.
        -11    1    4    4    0    0 -0.12292619396E-01 -0.34120115471E-01 -0.13219316721E-02  0.36294619377E-01  0.51100000000E-03 0.  1.
         11    1    4    4    0    0 -0.47214917257E-01 -0.79499713251E-01  0.24531996949E-01  0.95663644159E-01  0.51100000000E-03 0. -1.
</event>
<event>
 8    1  0.1116841E+005  0.1043930E+01  0.7957747E-01            NaN
         13   -1    0    0    0    0  0.00000000000E+00  0.00000000000E+00  0.74505805969E-08  0.10566000000E+00  0.10566000000E+00 0.  1.
     999900   -1    0    0    0    0 -0.00000000000E+00 -0.00000000000E+00 -0.74505805969E-08  0.93827000000E+00  0.93827000000E+00 0.  1.
     999902    2    1    2    0    0 -0.16224459212E-01  0.79351457757E-03 -0.19064731732E-01  0.10188835085E+01  0.10185756119E+01 0.  0.
     999903    2    3    3    0    0  0.83644043920E-01 -0.26812969427E-01 -0.93253886895E-01  0.12970418650E+00  0.20288596812E-01 0.  0.
         14    1    1    2    0    0  0.16224459212E-01 -0.79351457757E-03  0.19064731732E-01  0.25046491534E-01  0.00000000000E+00 0.  1.
     999901    1    3    3    0    0 -0.99868503132E-01  0.27606484004E-01  0.74189155163E-01  0.88917932197E+00  0.88000000000E+00 0.  1.
        -11    1    4    4    0    0  0.16413548670E-01 -0.34812517130E-03 -0.27381651956E-01  0.31930263950E-01  0.51100000000E-03 0.  1.
         11    1    4    4    0    0  0.67230495250E-01 -0.26464844255E-01 -0.65872234940E-01  0.97773922546E-01  0.51100000000E-03 0. -1.
</event>
<event>
 8    1  0.1116841E+005  0.1043930E+01  0.7957747E-01            NaN
         13   -1    0    0    0    0  0.00000000000E+00  0.00000000000E+00  0.74505805969E-08  0.10566000000E+00  0.10566000000E+00 0.  1.
     999900   -1    0    0    0    0 -0.00000000000E+00 -0.00000000000E+00 -0.74505805969E-08  0.93827000000E+00  0.93827000000E+00 0.  1.
     999902    2    1    2    0    0 -0.10273063564E-01 -0.19414409377E-01 -0.54317709006E-02  0.10213034832E+01  0.10210528123E+01 0.  0.
     999903    2    3    3    0    0 -0.22716529834E-01 -0.12601384503E+00  0.33410746002E-01  0.13393263591E+00  0.20643234895E-01 0.  0.
         14    1    1    2    0    0  0.10273063564E-01  0.19414409377E-01  0.54317709006E-02  0.22626516780E-01  0.00000000000E+00 0.  1.
     999901    1    3    3    0    0  0.12443466269E-01  0.10659943565E+00 -0.38842516903E-01  0.88737084731E+00  0.88000000000E+00 0.  1.
        -11    1    4    4    0    0 -0.15648544760E-01 -0.11695034024E+00  0.28279721728E-01  0.12133533210E+00  0.51100000000E-03 0.  1.
         11    1    4    4    0    0 -0.70679850739E-02 -0.90635047927E-02  0.51310242737E-02  0.12597303808E-01  0.51100000000E-03 0. -1.
</event>
<event>
 8    1  0.1116841E+005  0.1043930E+01  0.7957747E-01            NaN
         13   -1    0    0    0    0  0.00000000000E+00  0.00000000000E+00  0.74505805969E-08  0.10566000000E+00  0.10566000000E+00 0.  1.
     999900   -1    0    0    0    0 -0.00000000000E+00 -0.00000000000E+00 -0.74505805969E-08  0.93827000000E+00  0.93827000000E+00 0.  1.
     999902    2    1    2    0    0  0.14215023720E-01  0.16480739312E-01  0.75555500249E-02  0.10208915972E+01  0.10206316109E+01 0.  0.
     999903    2    3    3    0    0  0.11768067348E+00 -0.25016975856E-01  0.52427766787E-01  0.13272454259E+00  0.19812710189E-01 0.  0.
         14    1    1    2    0    0 -0.14215023720E-01 -0.16480739312E-01 -0.75555500249E-02  0.23038402805E-01  0.00000000000E+00 0. -1.
     999901    1    3    3    0    0 -0.10346564976E+00  0.41497715168E-01 -0.44872216762E-01  0.88816705460E+00  0.88000000000E+00 0.  1.
        -11    1    4    4    0    0  0.83991432833E-01 -0.98609353438E-02  0.41460021167E-01  0.94185950711E-01  0.51100000000E-03 0.  1.
         11    1    4    4    0    0  0.33689240645E-01 -0.15156040512E-01  0.10967745620E-01  0.38538591881E-01  0.51100000000E-03 0. -1.
</event>
<event>
 8    1  0.1116841E+005  0.1043930E+01  0.7957747E-01            NaN
         13   -1    0    0    0    0  0.00000000000E+00  0.00000000000E+00  0.74505805969E-08  0.10566000000E+00  0.10566000000E+00 0.  1.
     999900   -1    0    0    0    0 -0.00000000000E+00 -0.00000000000E+00 -0.74505805969E-08  0.93827000000E+00  0.93827000000E+00 0. -1.
     999902    2    1    2    0    0 -0.85928768817E-02  0.14466902312E-01 -0.17143476221E-01  0.10199086018E+01  0.10196256805E+01 0.  0.
     999903    2    3    3    0    0 -0.37846390495E-01 -0.12155778027E+00 -0.40136098000E-02  0.12888061360E+00  0.19633142370E-01 0.  0.
         14    1    1    2    0    0  0.85928768817E-02 -0.14466902312E-01  0.17143476221E-01  0.24021398222E-01  0.00000000000E+00 0. -1.
     999901    1    3    3    0    0  0.29253513614E-01  0.13602468258E+00 -0.13129866421E-01  0.89102798818E+00  0.88000000000E+00 0.  1.
        -11    1    4    4    0    0 -0.95706766899E-02 -0.62661905236E-01 -0.44335900083E-02  0.63545495997E-01  0.51100000000E-03 0.  1.
         11    1    4    4    0    0 -0.28275713805E-01 -0.58895875035E-01  0.41998020828E-03  0.65335117600E-01  0.51100000000E-03 0. -1.
</event>
<event>
 8    1  0.1116841E+005  0.1043930E+01  0.7957747E-01            NaN
         13   -1    0    0    0    0  0.00000000000E+00  0.00000000000E+00  0.74505805969E-08  0.10566000000E+00  0.10566000000E+00 0. -1.
     999900   -1    0    0    0    0 -0.00000000000E+00 -0.00000000000E+00 -0.74505805969E-08  0.93827000000E+00  0.93827000000E+00 0.  1.
     999902    2    1    2    0    0  0.22448858686E-01  0.10644219857E-02  0.93648836590E-02  0.10195828175E+01  0.10192920761E+01 0.  0.
     999903    2    3    3    0    0  0.34801933131E-01  0.87319195212E-01 -0.87580502691E-01  0.12998128180E+00  0.19722392491E-01 0.  0.
         14    1    1    2    0    0 -0.22448858686E-01 -0.10644219857E-02 -0.93648836590E-02  0.24347182515E-01  0.00000000000E+00 0. -1.
     999901    1    3    3    0    0 -0.12353074445E-01 -0.86254773226E-01  0.96945386350E-01  0.88960153568E+00  0.88000000000E+00 0. -1.
        -11    1    4    4    0    0  0.45639202884E-02  0.37372509464E-01 -0.33819173491E-01  0.50611574256E-01  0.51100000000E-03 0. -1.
         11    1    4    4    0    0  0.30238012842E-01  0.49946685748E-01 -0.53761329200E-01  0.79369707548E-01  0.51100000000E-03 0.  1.
</event>
<event>
 8    1  0.1116841E+005  0.1043930E+01  0.7957747E-01            NaN
         13   -1    0    0    0    0  0.00000000000E+00  0.00000000000E+00  0.74505805969E-08  0.10566000000E+00  0.10566000000E+00 0.  1.
     999900   -1    0    0    0    0 -0.00000000000E+00 -0.00000000000E+00 -0.74505805969E-08  0.93827000000E+00  0.93827000000E+00 0. -1.
     999902    2    1    2    0    0  0.21861492966E-01 -0.99199709536E-02 -0.37593996812E-02  0.10196305394E+01  0.10193409504E+01 0.  0.
     999903    2    3    3    0    0 -0.49393213624E-01 -0.19981569975E-01 -0.11642804695E+00  0.12953352614E+00  0.19608457009E-01 0.  0.
         14    1    1    2    0    0 -0.21861492966E-01  0.99199709536E-02  0.37593996812E-02  0.24299460578E-01  0.00000000000E+00 0. -1.
     999901    1    3    3    0    0  0.71254706590E-01  0.10061599021E-01  0.11266864727E+00  0.89009701329E+00  0.88000000000E+00 0.  1.
        -11    1    4    4    0    0 -0.11998301470E-01 -0.53946229173E-02 -0.12631292801E-01  0.18244776606E-01  0.51100000000E-03 0. -1.
         11    1    4    4    0    0 -0.37394912155E-01 -0.14586947058E-01 -0.10379675415E+00  0.11128874953E+00  0.51100000000E-03 0.  1.
</event>
<event>
 8    1  0.1116841E+005  0.1043930E+01  0.7957747E-01            NaN
         13   -1    0    0    0    0  0.00000000000E+00  0.00000000000E+00  0.74505805969E-08  0.10566000000E+00  0.10566000000E+00 0.  1.
     999900   -1    0    0    0    0 -0.00000000000E+00 -0.00000000000E+00 -0.74505805969E-08  0.93827000000E+00  0.93827000000E+00 0.  1.
     999902    2    1    2    0    0  0.22431593728E-01  0.47488870446E-02  0.26275067141E-02  0.10208511760E+01  0.10205902662E+01 0.  0.
     999903    2    3    3    0    0 -0.71590907768E-01 -0.84650167126E-01 -0.62785213091E-01  0.12893680479E+00  0.19794134910E-01 0.  0.
         14    1    1    2    0    0 -0.22431593728E-01 -0.47488870446E-02 -0.26275067141E-02  0.23078823992E-01  0.00000000000E+00 0. -1.
     999901    1    3    3    0    0  0.94022501496E-01  0.89399054170E-01  0.65412719806E-01  0.89191437122E+00  0.88000000000E+00 0. -1.
        -11    1    4    4    0    0 -0.11181007611E-01 -0.26321931553E-01 -0.17454628629E-01  0.33507972088E-01  0.51100000000E-03 0. -1.
         11    1    4    4    0    0 -0.60409900157E-01 -0.58328235573E-01 -0.45330584462E-01  0.95428832701E-01  0.51100000000E-03 0.  1.
</event>
<event>
 8    1  0.1116841E+005  0.1043930E+01  0.7957747E-01            NaN
         13   -1    0    0    0    0  0.00000000000E+00  0.00000000000E+00  0.74505805969E-08  0.10566000000E+00  0.10566000000E+00 0.  1.
     999900   -1    0    0    0    0 -0.00000000000E+00 -0.00000000000E+00 -0.74505805969E-08  0.93827000000E+00  0.93827000000E+00 0. -1.
     999902    2    1    2    0    0  0.17349338885E-02 -0.19972007687E-01 -0.20017200427E-01  0.10156001677E+01  0.10152049651E+01 0.  0.
     999903    2    3    3    0    0 -0.99766439829E-01 -0.44122373151E-01 -0.64504692098E-01  0.12832067060E+00  0.20129899934E-01 0.  0.
         14    1    1    2    0    0 -0.17349338885E-02  0.19972007687E-01  0.20017200427E-01  0.28329832325E-01  0.00000000000E+00 0.  1.
     999901    1    3    3    0    0  0.10150137372E+00  0.24150365464E-01  0.44487491671E-01  0.88727949708E+00  0.88000000000E+00 0. -1.
        -11    1    4    4    0    0 -0.57737645804E-01 -0.24004578714E-01 -0.25417042754E-01  0.67499205370E-01  0.51100000000E-03 0.  1.
         11    1    4    4    0    0 -0.42028794025E-01 -0.20117794437E-01 -0.39087649344E-01  0.60821465227E-01  0.51100000000E-03 0. -1.
</event>
<event>
 8    1  0.1116841E+005  0.1043930E+01  0.7957747E-01            NaN
         13   -1    0    0    0    0  0.00000000000E+00  0.00000000000E+00  0.74505805969E-08  0.10566000000E+00  0.10566000000E+00 0. -1.
     999900   -1    0    0    0    0 -0.00000000000E+00 -0.00000000000E+00 -0.74505805969E-08  0.93827000000E+00  0.93827000000E+00 0.  1.
     999902    2    1    2    0    0 -0.11315380318E-01  0.20856491251E-01 -0.13164883167E-02  0.10201652319E+01  0.10198883940E+01 0.  0.
     999903    2    3    3    0    0  0.55461745784E-02 -0.12627596928E+00  0.66123157048E-02  0.12775549483E+00  0.17359817708E-01 0.  0.
         14    1    1    2    0    0  0.11315380318E-01 -0.20856491251E-01  0.13164883167E-02  0.23764768051E-01  0.00000000000E+00 0.  1.
     999901    1    3    3    0    0 -0.16861554896E-01  0.14713246053E+00 -0.79288040215E-02  0.89240973712E+00  0.88000000000E+00 0.  1.
        -11    1    4    4    0    0  0.89005609939E-02 -0.43037763009E-01 -0.20485428943E-02  0.43999166808E-01  0.51100000000E-03 0. -1.
         11    1    4    4    0    0 -0.33543864155E-02 -0.83238206267E-01  0.86608585990E-02  0.83756328021E-01  0.51100000000E-03 0.  1.
</event>
<event>
 8    1  0.1116841E+005  0.1043930E+01  0.7957747E-01            NaN
         13   -1    0    0    0    0  0.00000000000E+00  0.00000000000E+00  0.74505805969E-08  0.10566000000E+00  0.10566000000E+00 0.  1.
     999900   -1    0    0    0    0 -0.00000000000E+00 -0.00000000000E+00 -0.74505805969E-08  0.93827000000E+00  0.93827000000E+00 0.  1.
     999902    2    1    2    0    0  0.22732858950E-01  0.40853645879E-02 -0.47340464296E-02  0.10203528018E+01  0.10200803673E+01 0.  0.
     999903    2    3    3    0    0 -0.10815165139E+00 -0.63432728686E-01 -0.16514377011E-01  0.12803658869E+00  0.20003815351E-01 0.  0.
         14    1    1    2    0    0 -0.22732858950E-01 -0.40853645879E-02  0.47340464296E-02  0.23577198210E-01  0.00000000000E+00 0.  1.
     999901    1    3    3    0    0  0.13088451034E+00  0.67518093274E-01  0.11780330582E-01  0.89231621310E+00  0.88000000000E+00 0. -1.
        -11    1    4    4    0    0 -0.49205549122E-01 -0.23911679801E-01 -0.16225014370E-01  0.57065459847E-01  0.51100000000E-03 0.  1.
         11    1    4    4    0    0 -0.58946102271E-01 -0.39521048885E-01 -0.28936264137E-03  0.70971128846E-01  0.51100000000E-03 0. -1.
</event>
<event>
 8    1  0.1116841E+005  0.1043930E+01  0.7957747E-01            NaN
         13   -1    0    0    0    0  0.00000000000E+00  0.00000000000E+00  0.74505805969E-08  0.10566000000E+00  0.10566000000E+00 0.  1.
     999900   -1    0    0    0    0 -0.00000000000E+00 -0.00000000000E+00 -0.74505805969E-08  0.93827000000E+00  0.93827000000E+00 0. -1.
     999902    2    1    2    0    0 -0.21938703084E-01 -0.87590179336E-02  0.58997202859E-02  0.10195818217E+01  0.10192910562E+01 0.  0.
     999903    2    3    3    0    0 -0.74827745662E-01 -0.96473112063E-01 -0.46652091178E-01  0.13208381829E+00  0.19064746788E-01 0.  0.
         14    1    1    2    0    0  0.21938703084E-01  0.87590179336E-02 -0.58997202859E-02  0.24348178323E-01  0.00000000000E+00 0. -1.
     999901    1    3    3    0    0  0.52889042578E-01  0.87714094129E-01  0.52551811464E-01  0.88749800339E+00  0.88000000000E+00 0.  1.
        -11    1    4    4    0    0 -0.15530181442E-01 -0.22069791021E-01 -0.22369245500E-02  0.27083706611E-01  0.51100000000E-03 0.  1.
         11    1    4    4    0    0 -0.59297564220E-01 -0.74403321041E-01 -0.44415166628E-01  0.10500011168E+00  0.51100000000E-03 0. -1.
</event>
<event>
 8    1  0.1116841E+005  0.1043930E+01  0.7957747E-01            NaN
         13   -1    0    0    0    0  0.00000000000E+00  0.00000000000E+00  0.74505805969E-08  0.10566000000E+00  0.10566000000E+00 0. -1.
     999900   -1    0    0    0    0 -0.00000000000E+00 -0.00000000000E+00 -0.74505805969E-08  0.93827000000E+00  0.93827000000E+00 0.  1.
     999902    2    1    2    0    0  0.10050456500E-01 -0.18960012485E-01 -0.99539212898E-02  0.10202746772E+01  0.10200004130E+01 0.  0.
     999903    2    3    3    0    0 -0.83826578907E-01  0.71644504534E-01 -0.63925604663E-01  0.12901993306E+00  0.19995745422E-01 0.  0.
         14    1    1    2    0    0 -0.10050456500E-01  0.18960012485E-01  0.99539212898E-02  0.23655322833E-01  0.00000000000E+00 0.  1.
     999901    1    3    3    0    0  0.93877035408E-01 -0.90604517019E-01  0.53971683373E-01  0.89125474410E+00  0.88000000000E+00 0. -1.
        -11    1    4    4    0    0 -0.13603487785E-01  0.17418542217E-01 -0.20864378529E-01  0.30398090487E-01  0.51100000000E-03 0. -1.
         11    1    4    4    0    0 -0.70223091122E-01  0.54225962317E-01 -0.43061226134E-01  0.98621842576E-01  0.51100000000E-03 0.  1.
</event>
<event>
 8    1  0.1116841E+005  0.1043930E+01  0.7957747E-01            NaN
         13   -1    0    0    0    0  0.00000000000E+00  0.00000000000E+00  0.74505805969E-08  0.10566000000E+00  0.10566000000E+00 0.  1.
     999900   -1    0    0    0    0 -0.00000000000E+00 -0.00000000000E+00 -0.74505805969E-08  0.93827000000E+00  0.93827000000E+00 0.  1.
     999902    2    1    2    0    0 -0.13450931704E-01 -0.85584525593E-02 -0.29380589732E-01  0.10105025603E+01  0.10099495188E+01 0.  0.
     999903    2    3    3    0    0 -0.44622629933E-01 -0.19863870296E-01 -0.11411651679E+00  0.12581071303E+00  0.20493990892E-01 0.  0.
         14    1    1    2    0    0  0.13450931704E-01  0.85584525593E-02  0.29380589732E-01  0.33427439731E-01  0.00000000000E+00 0.  1.
     999901    1    3    3    0    0  0.31171698229E-01  0.11305417737E-01  0.84735927060E-01  0.88469184724E+00  0.88000000000E+00 0.  1.
        -11    1    4    4    0    0 -0.41892040299E-01 -0.11078421220E-01 -0.99569091355E-01  0.10859069726E+00  0.51100000000E-03 0.  1.
         11    1    4    4    0    0 -0.27305896335E-02 -0.87854490760E-02 -0.14547425436E-01  0.17220015768E-01  0.51100000000E-03 0. -1.
</event>
<event>
 8    1  0.1116841E+005  0.1043930E+01  0.7957747E-01            NaN
         13   -1    0    0    0    0  0.00000000000E+00  0.00000000000E+00  0.74505805969E-08  0.10566000000E+00  0.10566000000E+00 0. -1.
     999900   -1    0    0    0    0 -0.00000000000E+00 -0.00000000000E+00 -0.74505805969E-08  0.93827000000E+00  0.93827000000E+00 0. -1.
     999902    2    1    2    0    0 -0.19328974554E-01 -0.74171523716E-02 -0.11158002711E-01  0.10204114024E+01  0.10201403363E+01 0.  0.
     999903    2    3    3    0    0  0.82868618437E-01  0.48319175702E-01 -0.85332876200E-01  0.12965172770E+00  0.18053256603E-01 0.  0.
         14    1    1    2    0    0  0.19328974554E-01  0.74171523716E-02  0.11158002711E-01  0.23518597558E-01  0.00000000000E+00 0. -1.
     999901    1    3    3    0    0 -0.10219759299E+00 -0.55736328073E-01  0.74174873489E-01  0.89075967474E+00  0.88000000000E+00 0.  1.
        -11    1    4    4    0    0  0.55085388041E-01  0.24239259282E-01 -0.45546543839E-01  0.75476423093E-01  0.51100000000E-03 0.  1.
         11    1    4    4    0    0  0.27783230396E-01  0.24079916420E-01 -0.39786332361E-01  0.54175304612E-01  0.51100000000E-03 0. -1.
</event>
<event>
 8    1  0.1116841E+005  0.1043930E+01  0.7957747E-01            NaN
         13   -1    0    0    0    0  0.00000000000E+00  0.00000000000E+00  0.74505805969E-08  0.10566000000E+00  0.10566000000E+00 0.  1.
     999900   -1    0    0    0    0 -0.00000000000E+00 -0.00000000000E+00 -0.74505805969E-08  0.93827000000E+00  0.93827000000E+00 0.  1.
     999902    2    1    2    0    0 -0.12829665861E-01  0.16878124187E-01 -0.10351582666E-01  0.10203370632E+01  0.10200642607E+01 0.  0.
     999903    2    3    3    0    0  0.44848855162E-01  0.55597801537E-01 -0.10909928136E+00  0.13209321540E+00  0.21057754276E-01 0.  0.
         14    1    1    2    0    0  0.12829665861E-01 -0.16878124187E-01  0.10351582666E-01  0.23592936779E-01  0.00000000000E+00 0.  1.
     999901    1    3    3    0    0 -0.57678521022E-01 -0.38719677350E-01  0.98747698696E-01  0.88824384783E+00  0.88000000000E+00 0. -1.
        -11    1    4    4    0    0  0.33864822734E-01  0.38074364203E-01 -0.59417681338E-01  0.78276467759E-01  0.51100000000E-03 0.  1.
         11    1    4    4    0    0  0.10984032427E-01  0.17523437334E-01 -0.49681600023E-01  0.53816747637E-01  0.51100000000E-03 0. -1.
</event>
<event>
 7    1  0.1116841E+005  0.1043930E+01  0.7957747E-01            NaN
         13   -1    0    0    0    0  0.00000000000E+00  0.00000000000E+00  0.74505805969E-08  0.10566000000E+00  0.10566000000E+00 0. -1.
     999900   -1    0    0    0    0 -0.00000000000E+00 -0.00000000000E+00 -0.74505805969E-08  0.93827000000E+00  0.93827000000E+00 0.  1.
     999902    2    1    2    0    0  0.11531895379E-01 -0.12391192637E-01 -0.17141877762E-01  0.10198391254E+01  0.10195545456E+01 0.  0.
         14    1    1    2    0    0 -0.11531895379E-01  0.12391192637E-01  0.17141877762E-01  0.24090874604E-01  0.00000000000E+00 0. -1.
     999901    1    3    3    0    0 -0.14481142473E-01 -0.13090883954E+00 -0.26530252429E-01  0.89019699059E+00  0.88000000000E+00 0. -1.
        -11    1    3    3    0    0  0.32918998707E-01  0.83792233521E-01 -0.76391404190E-02  0.90351626779E-01  0.51100000000E-03 0.  1.
         11    1    3    3    0    0 -0.69059608555E-02  0.34725413386E-01  0.17027515086E-01  0.39290508029E-01  0.51100000000E-03 0. -1.
</event>
<event>
 8    1  0.1116841E+005  0.1043930E+01  0.7957747E-01            NaN
         13   -1    0    0    0    0  0.00000000000E+00  0.00000000000E+00  0.74505805969E-08  0.10566000000E+00  0.10566000000E+00 0. -1.
     999900   -1    0    0    0    0 -0.00000000000E+00 -0.00000000000E+00 -0.74505805969E-08  0.93827000000E+00  0.93827000000E+00 0.  1.
     999902    2    1    2    0    0 -0.23998723693E-02  0.23506176035E-01  0.47882083337E-03  0.10202967825E+01  0.10200230367E+01 0.  0.
     999903    2    3    3    0    0 -0.76223935571E-01  0.10484582402E+00 -0.23082172781E-01  0.13315460053E+00  0.19865189979E-01 0.  0.
         14    1    1    2    0    0  0.23998723693E-02 -0.23506176035E-01 -0.47882083337E-03  0.23633217482E-01  0.00000000000E+00 0. -1.
     999901    1    3    3    0    0  0.73824063201E-01 -0.81339647989E-01  0.23560993615E-01  0.88714218199E+00  0.88000000000E+00 0. -1.
        -11    1    4    4    0    0 -0.62403425890E-01  0.72432310012E-01 -0.12913154037E-01  0.96476099447E-01  0.51100000000E-03 0.  1.
         11    1    4    4    0    0 -0.13820509681E-01  0.32413514012E-01 -0.10169018744E-01  0.36678501083E-01  0.51100000000E-03 0. -1.
</event>
<event>
 8    1  0.1116841E+005  0.1043930E+01  0.7957747E-01            NaN
         13   -1    0    0    0    0  0.00000000000E+00  0.00000000000E+00  0.74505805969E-08  0.10566000000E+00  0.10566000000E+00 0. -1.
     999900   -1    0    0    0    0 -0.00000000000E+00 -0.00000000000E+00 -0.74505805969E-08  0.93827000000E+00  0.93827000000E+00 0.  1.
     999902    2    1    2    0    0  0.13429186588E-01 -0.18341264676E-01 -0.38809433849E-02  0.10208690641E+01  0.10206085632E+01 0.  0.
     999903    2    3    3    0    0  0.13057810996E+00  0.51386525803E-02 -0.11270039510E-01  0.13276446695E+00  0.20550945097E-01 0.  0.
         14    1    1    2    0    0 -0.13429186588E-01  0.18341264676E-01  0.38809433849E-02  0.23060935885E-01  0.00000000000E+00 0. -1.
     999901    1    3    3    0    0 -0.11714892337E+00 -0.23479917256E-01  0.73890961254E-02  0.88810459716E+00  0.88000000000E+00 0. -1.
        -11    1    4    4    0    0  0.17101414691E-01 -0.33712055276E-03 -0.85324459830E-02  0.19121605323E-01  0.51100000000E-03 0.  1.
         11    1    4    4    0    0  0.11347669527E+00  0.54757731331E-02 -0.27375935273E-02  0.11364286163E+00  0.51100000000E-03 0. -1.
</event>
<event>
 8    1  0.1116841E+005  0.1043930E+01  0.7957747E-01            NaN
         13   -1    0    0    0    0  0.00000000000E+00  0.00000000000E+00  0.74505805969E-08  0.10566000000E+00  0.10566000000E+00 0.  1.
     999900   -1    0    0    0    0 -0.00000000000E+00 -0.00000000000E+00 -0.74505805969E-08  0.93827000000E+00  0.93827000000E+00 0. -1.
     999902    2    1    2    0    0  0.64142776817E-02 -0.73836136579E-02 -0.28405160435E-01  0.10138881317E+01  0.10134429584E+01 0.  0.
     999903    2    3    3    0    0  0.38289950893E-01  0.10037880088E+00 -0.64419976541E-01  0.12601096484E+00  0.13667694693E-01 0.  0.
         14    1    1    2    0    0 -0.64142776817E-02  0.73836136579E-02  0.28405160435E-01  0.30041868253E-01  0.00000000000E+00 0.  1.
     999901    1    3    3    0    0 -0.31875673212E-01 -0.10776241454E+00  0.36014816106E-01  0.88787716690E+00  0.88000000000E+00 0. -1.
        -11    1    4    4    0    0  0.95060668701E-02  0.11860807608E-01 -0.96243297338E-02  0.17998136245E-01  0.51100000000E-03 0. -1.
         11    1    4    4    0    0  0.28783884023E-01  0.88517993269E-01 -0.54795646807E-01  0.10801282860E+00  0.51100000000E-03 0.  1.
</event>
<event>
 8    1  0.1116841E+005  0.1043930E+01  0.7957747E-01            NaN
         13   -1    0    0    0    0  0.00000000000E+00  0.00000000000E+00  0.74505805969E-08  0.10566000000E+00  0.10566000000E+00 0. -1.
     999900   -1    0    0    0    0 -0.00000000000E+00 -0.00000000000E+00 -0.74505805969E-08  0.93827000000E+00  0.93827000000E+00 0. -1.
     999902    2    1    2    0    0  0.19943787190E-02  0.22844167370E-01 -0.92162292961E-02  0.10192161899E+01  0.10189165173E+01 0.  0.
     999903    2    3    3    0    0  0.23005508884E-01  0.12890354174E+00  0.79142640720E-02  0.13243351508E+00  0.18183064313E-01 0.  0.
         14    1    1    2    0    0 -0.19943787190E-02 -0.22844167370E-01  0.92162292961E-02  0.24713810142E-01  0.00000000000E+00 0. -1.
     999901    1    3    3    0    0 -0.21011130165E-01 -0.10605937437E+00 -0.17130493368E-01  0.88678267478E+00  0.88000000000E+00 0.  1.
        -11    1    4    4    0    0  0.38637201264E-02  0.63331032034E-01 -0.15501236118E-02  0.63469771986E-01  0.51100000000E-03 0.  1.
         11    1    4    4    0    0  0.19141788758E-01  0.65572509708E-01  0.94643876838E-02  0.68963743094E-01  0.51100000000E-03 0. -1.
</event>
<event>
 8    1  0.1116841E+005  0.1043930E+01  0.7957747E-01            NaN
         13   -1    0    0    0    0  0.00000000000E+00  0.00000000000E+00  0.74505805969E-08  0.10566000000E+00  0.10566000000E+00 0. -1.
     999900   -1    0    0    0    0 -0.00000000000E+00 -0.00000000000E+00 -0.74505805969E-08  0.93827000000E+00  0.93827000000E+00 0.  1.
     999902    2    1    2    0    0 -0.52362088877E-02  0.19785794842E-02  0.21118539105E-01  0.10220822231E+01  0.10218486901E+01 0.  0.
     999903    2    3    3    0    0  0.15233332205E-01 -0.12623077264E+00 -0.25668436962E-01  0.13132655449E+00  0.20531266079E-01 0.  0.
         14    1    1    2    0    0  0.52362088877E-02 -0.19785794842E-02 -0.21118539105E-01  0.21847776872E-01  0.00000000000E+00 0.  1.
     999901    1    3    3    0    0 -0.20469541092E-01  0.12820935212E+00  0.46786976068E-01  0.89075566864E+00  0.88000000000E+00 0. -1.
        -11    1    4    4    0    0 -0.20534365688E-02 -0.42803799731E-01 -0.15262814930E-01  0.45492818266E-01  0.51100000000E-03 0. -1.
         11    1    4    4    0    0  0.17286768773E-01 -0.83426972907E-01 -0.10405622032E-01  0.85833736223E-01  0.51100000000E-03 0.  1.
</event>
<event>
 8    1  0.1116841E+005  0.1043930E+01  0.7957747E-01            NaN
         13   -1    0    0    0    0  0.00000000000E+00  0.00000000000E+00  0.74505805969E-08  0.10566000000E+00  0.10566000000E+00 0. -1.
     999900   -1    0    0    0    0 -0.00000000000E+00 -0.00000000000E+00 -0.74505805969E-08  0.93827000000E+00  0.93827000000E+00 0.  1.
     999902    2    1    2    0    0 -0.10086098212E-01 -0.20747078230E-01  0.41378764513E-02  0.10204930067E+01  0.10202238402E+01 0.  0.
     999903    2    3    3    0    0 -0.61955730810E-01 -0.11465548398E+00  0.22391056783E-01  0.13378988502E+00  0.20346530926E-01 0.  0.
         14    1    1    2    0    0  0.10086098212E-01  0.20747078230E-01 -0.41378764513E-02  0.23436993275E-01  0.00000000000E+00 0. -1.
     999901    1    3    3    0    0  0.51869632598E-01  0.93908405755E-01 -0.18253180331E-01  0.88670312171E+00  0.88000000000E+00 0.  1.
        -11    1    4    4    0    0 -0.43734679197E-01 -0.60093495343E-01  0.10766368139E-01  0.75100773305E-01  0.51100000000E-03 0. -1.
         11    1    4    4    0    0 -0.18221051613E-01 -0.54561988641E-01  0.11624688644E-01  0.58689111711E-01  0.51100000000E-03 0.  1.
</event>
<event>
 8    1  0.1116841E+005  0.1043930E+01  0.7957747E-01            NaN
         13   -1    0    0    0    0  0.00000000000E+00  0.00000000000E+00  0.74505805969E-08  0.10566000000E+00  0.10566000000E+00 0.  1.
     999900   -1    0    0    0    0 -0.00000000000E+00 -0.00000000000E+00 -0.74505805969E-08  0.93827000000E+00  0.93827000000E+00 0. -1.
     999902    2    1    2    0    0  0.97022901157E-02 -0.21572131616E-01  0.72971252256E-02  0.10191764279E+01  0.10188757784E+01 0.  0.
     999903    2    3    3    0    0 -0.35039304334E-01  0.10080835059E+00  0.66951543482E-01  0.12758378417E+00  0.20125516473E-01 0.  0.
         14    1    1    2    0    0 -0.97022901157E-02  0.21572131616E-01 -0.72971252256E-02  0.24753572116E-01  0.00000000000E+00 0. -1.
     999901    1    3    3    0    0  0.44741594449E-01 -0.12238048220E+00 -0.59654418257E-01  0.89159264371E+00  0.88000000000E+00 0. -1.
        -11    1    4    4    0    0 -0.25285394871E-01  0.49071910032E-01  0.41736436911E-01  0.69206898753E-01  0.51100000000E-03 0.  1.
         11    1    4    4    0    0 -0.97539094631E-02  0.51736440555E-01  0.25215106571E-01  0.58376885422E-01  0.51100000000E-03 0. -1.
</event>
<event>
 8    1  0.1116841E+005  0.1043930E+01  0.7957747E-01            NaN
         13   -1    0    0    0    0  0.00000000000E+00  0.00000000000E+00  0.74505805969E-08  0.10566000000E+00  0.10566000000E+00 0. -1.
     999900   -1    0    0    0    0 -0.00000000000E+00 -0.00000000000E+00 -0.74505805969E-08  0.93827000000E+00  0.93827000000E+00 0.  1.
     999902    2    1    2    0    0  0.11784948532E-01 -0.12523311364E-01  0.12298579877E-01  0.10227882544E+01  0.10225697238E+01 0.  0.
     999903    2    3    3    0    0  0.10458330770E+00  0.40603487908E-01 -0.68177704550E-01  0.13267004619E+00  0.19152813812E-01 0.  0.
         14    1    1    2    0    0 -0.11784948532E-01  0.12523311364E-01 -0.12298579877E-01  0.21141745586E-01  0.00000000000E+00 0.  1.
     999901    1    3    3    0    0 -0.92798359170E-01 -0.53126799272E-01  0.80476284427E-01  0.89011820823E+00  0.88000000000E+00 0. -1.
        -11    1    4    4    0    0  0.75811579374E-01  0.20479373624E-01 -0.50388015734E-01  0.93306021038E-01  0.51100000000E-03 0.  1.
         11    1    4    4    0    0  0.28771728328E-01  0.20124114283E-01 -0.17789688816E-01  0.39364025148E-01  0.51100000000E-03 0. -1.
</event>
<event>
 8    1  0.1116841E+005  0.1043930E+01  0.7957747E-01            NaN
         13   -1    0    0    0    0  0.00000000000E+00  0.00000000000E+00  0.74505805969E-08  0.10566000000E+00  0.10566000000E+00 0.  1.
     999900   -1    0    0    0    0 -0.00000000000E+00 -0.00000000000E+00 -0.74505805969E-08  0.93827000000E+00  0.93827000000E+00 0.  1.
     999902    2    1    2    0    0  0.29999301646E-02 -0.22165281729E-01  0.72564166407E-02  0.10204150074E+01  0.10201440253E+01 0.  0.
     999903    2    3    3    0    0 -0.80971860209E-01  0.86148677798E-04  0.10147011240E+00  0.13113293279E+00  0.18526002908E-01 0.  0.
         14    1    1    2    0    0 -0.29999301646E-02  0.22165281729E-01 -0.72564166407E-02  0.23514992613E-01  0.00000000000E+00 0. -1.
     999901    1    3    3    0    0  0.83971790374E-01 -0.22251430407E-01 -0.94213695760E-01  0.88928207460E+00  0.88000000000E+00 0.  1.
        -11    1    4    4    0    0 -0.49449210202E-01  0.71516444557E-02  0.52607671767E-01  0.72554797620E-01  0.51100000000E-03 0.  1.
         11    1    4    4    0    0 -0.31522650008E-01 -0.70654957779E-02  0.48862440634E-01  0.58578135168E-01  0.51100000000E-03 0. -1.
</event>
<event>
 8    1  0.1116841E+005  0.1043930E+01  0.7957747E-01            NaN
         13   -1    0    0    0    0  0.00000000000E+00  0.00000000000E+00  0.74505805969E-08  0.10566000000E+00  0.10566000000E+00 0.  1.
     999900   -1    0    0    0    0 -0.00000000000E+00 -0.00000000000E+00 -0.74505805969E-08  0.93827000000E+00  0.93827000000E+00 0. -1.
     999902    2    1    2    0    0 -0.11629388670E-01 -0.12295345543E-01 -0.15809020258E-01  0.10207709127E+01  0.10205081641E+01 0.  0.
     999903    2    3    3    0    0 -0.64811433898E-01 -0.97571724880E-01 -0.62162012747E-01  0.13383856426E+00  0.18107512089E-01 0.  0.
         14    1    1    2    0    0  0.11629388670E-01  0.12295345543E-01  0.15809020258E-01  0.23159087295E-01  0.00000000000E+00 0.  1.
     999901    1    3    3    0    0  0.53182045228E-01  0.85276379338E-01  0.46352992489E-01  0.88693234845E+00  0.88000000000E+00 0.  1.
        -11    1    4    4    0    0 -0.53993207436E-01 -0.67346294744E-01 -0.42837021080E-01  0.96364212035E-01  0.51100000000E-03 0. -1.
         11    1    4    4    0    0 -0.10818226461E-01 -0.30225430136E-01 -0.19324991666E-01  0.37474352224E-01  0.51100000000E-03 0.  1.
</event>
<event>
 8    1  0.1116841E+005  0.1043930E+01  0.7957747E-01            NaN
         13   -1    0    0    0    0  0.00000000000E+00  0.00000000000E+00  0.74505805969E-08  0.10566000000E+00  0.10566000000E+00 0.  1.
     999900   -1    0    0    0    0 -0.00000000000E+00 -0.00000000000E+00 -0.74505805969E-08  0.93827000000E+00  0.93827000000E+00 0.  1.
     999902    2    1    2    0    0 -0.17459742076E-01  0.91772006544E-02  0.13757728305E-01  0.10198813266E+01  0.10195977548E+01 0.  0.
     999903    2    3    3    0    0 -0.12298475304E+00 -0.20611387423E-01 -0.36470731621E-01  0.13165512447E+00  0.21280948378E-01 0.  0.
         14    1    1    2    0    0  0.17459742076E-01 -0.91772006544E-02 -0.13757728305E-01  0.24048673421E-01  0.00000000000E+00 0. -1.
     999901    1    3    3    0    0  0.10552501096E+00  0.29788588077E-01  0.50228459926E-01  0.88822620210E+00  0.88000000000E+00 0. -1.
        -11    1    4    4    0    0 -0.23182810429E-01 -0.73568176973E-02 -0.15406596269E-01  0.28795655846E-01  0.51100000000E-03 0.  1.
         11    1    4    4    0    0 -0.99801942610E-01 -0.13254569725E-01 -0.21064135352E-01  0.10285946863E+00  0.51100000000E-03 0. -1.
</event>
<event>
 8    1  0.1116841E+005  0.1043930E+01  0.7957747E-01            NaN
         13   -1    0    0    0    0  0.00000000000E+00  0.00000000000E+00  0.74505805969E-08  0.10566000000E+00  0.10566000000E+00 0.  1.
     999900   -1    0    0    0    0 -0.00000000000E+00 -0.00000000000E+00 -0.74505805969E-08  0.93827000000E+00  0.93827000000E+00 0.  1.
     999902    2    1    2    0    0 -0.59509272064E-02  0.91205375663E-02  0.21089267402E-01  0.10201949007E+01  0.10199187617E+01 0.  0.
     999903    2    3    3    0    0 -0.12961287171E+00  0.19404929308E-02 -0.91988031367E-02  0.13100358450E+00  0.16554731803E-01 0.  0.
         14    1    1    2    0    0  0.59509272064E-02 -0.91205375663E-02 -0.21089267402E-01  0.23735099318E-01  0.00000000000E+00 0. -1.
     999901    1    3    3    0    0  0.12366194451E+00  0.71800446355E-02  0.30288070538E-01  0.88919131618E+00  0.88000000000E+00 0.  1.
        -11    1    4    4    0    0 -0.98091051459E-01 -0.20958257120E-02 -0.75456431373E-03  0.98117670937E-01  0.51100000000E-03 0. -1.
         11    1    4    4    0    0 -0.31521820256E-01  0.40363186428E-02 -0.84442388229E-02  0.32885913561E-01  0.51100000000E-03 0.  1.
</event>
<event>
 8    1  0.1116841E+005  0.1043930E+01  0.7957747E-01            NaN
         13   -1    0    0    0    0  0.00000000000E+00  0.00000000000E+00  0.74505805969E-08  0.10566000000E+00  0.10566000000E+00 0. -1.
     999900   -1    0    0    0    0 -0.00000000000E+00 -0.00000000000E+00 -0.74505805969E-08  0.93827000000E+00  0.93827000000E+00 0. -1.
     999902    2    1    2    0    0 -0.37677923261E-02  0.23398463092E-01  0.27919703785E-02  0.10200662318E+01  0.10197870551E+01 0.  0.
     999903    2    3    3    0    0 -0.47644605815E-01  0.22798689926E-02 -0.11958132025E+00  0.13026491013E+00  0.19850652210E-01 0.  0.
         14    1    1    2    0    0  0.37677923261E-02 -0.23398463092E-01 -0.27919703785E-02  0.23863768200E-01  0.00000000000E+00 0.  1.
     999901    1    3    3    0    0  0.43876813489E-01  0.21118594100E-01  0.12237329063E+00  0.88980132167E+00  0.88000000000E+00 0.  1.
        -11    1    4    4    0    0 -0.26938766576E-01  0.50514007339E-02 -0.43937993430E-01  0.51788243663E-01  0.51100000000E-03 0. -1.
         11    1    4    4    0    0 -0.20705839239E-01 -0.27715317413E-02 -0.75643326822E-01  0.78476666471E-01  0.51100000000E-03 0.  1.
</event>
<event>
 8    1  0.1116841E+005  0.1043930E+01  0.7957747E-01            NaN
         13   -1    0    0    0    0  0.00000000000E+00  0.00000000000E+00  0.74505805969E-08  0.10566000000E+00  0.10566000000E+00 0.  1.
     999900   -1    0    0    0    0 -0.00000000000E+00 -0.00000000000E+00 -0.74505805969E-08  0.93827000000E+00  0.93827000000E+00 0. -1.
     999902    2    1    2    0    0 -0.21382115213E-01  0.20846666377E-02  0.12867121802E-01  0.10188879652E+01  0.10185801795E+01 0.  0.
     999903    2    3    3    0    0 -0.11950630305E+00  0.46917373247E-01  0.24048375163E-01  0.13222943547E+00  0.20574325690E-01 0.  0.
         14    1    1    2    0    0  0.21382115213E-01 -0.20846666377E-02 -0.12867121802E-01  0.25042034850E-01  0.00000000000E+00 0. -1.
     999901    1    3    3    0    0  0.98124187834E-01 -0.44832706609E-01 -0.11181253361E-01  0.88665852968E+00  0.88000000000E+00 0. -1.
        -11    1    4    4    0    0 -0.55695682811E-01  0.30627397255E-01  0.18165130331E-01  0.66108090484E-01  0.51100000000E-03 0. -1.
         11    1    4    4    0    0 -0.63810620235E-01  0.16289975992E-01  0.58832448316E-02  0.66121344991E-01  0.51100000000E-03 0.  1.
</event>
<event>
 8    1  0.1116841E+005  0.1043930E+01  0.7957747E-01            NaN
         13   -1    0    0    0    0  0.00000000000E+00  0.00000000000E+00  0.74505805969E-08  0.10566000000E+00  0.10566000000E+00 0.  1.
     999900   -1    0    0    0    0 -0.00000000000E+00 -0.00000000000E+00 -0.74505805969E-08  0.93827000000E+00  0.93827000000E+00 0. -1.
     999902    2    1    2    0    0  0.11740457221E-01  0.10242926960E-01 -0.17516877466E-01  0.10204865172E+01  0.10202171999E+01 0.  0.
     999903    2    3    3    0    0  0.12587587803E+00 -0.13817503830E-01 -0.34246043937E-01  0.13263198881E+00  0.19565092594E-01 0.  0.
         14    1    1    2    0    0 -0.11740457221E-01 -0.10242926960E-01  0.17516877466E-01  0.23443482775E-01  0.00000000000E+00 0.  1.
     999901    1    3    3    0    0 -0.11413542081E+00  0.24060430790E-01  0.16729166471E-01  0.88785452841E+00  0.88000000000E+00 0.  1.
        -11    1    4    4    0    0  0.39453983163E-01 -0.89976246775E-02 -0.29025773077E-02  0.40574131085E-01  0.51100000000E-03 0.  1.
         11    1    4    4    0    0  0.86421894869E-01 -0.48198791525E-02 -0.31343466629E-01  0.92057857726E-01  0.51100000000E-03 0. -1.
</event>
<event>
 8    1  0.1116841E+005  0.1043930E+01  0.7957747E-01            NaN
         13   -1    0    0    0    0  0.00000000000E+00  0.00000000000E+00  0.74505805969E-08  0.10566000000E+00  0.10566000000E+00 0. -1.
     999900   -1    0    0    0    0 -0.00000000000E+00 -0.00000000000E+00 -0.74505805969E-08  0.93827000000E+00  0.93827000000E+00 0. -1.
     999902    2    1    2    0    0  0.30602401961E-01  0.57443740732E-03 -0.13380104507E-01  0.10105254467E+01  0.10099731750E+01 0.  0.
     999903    2    3    3    0    0  0.99325028264E-03  0.12000552455E+00  0.52591591651E-02  0.12176906356E+00  0.19943259919E-01 0.  0.
         14    1    1    2    0    0 -0.30602401961E-01 -0.57443740732E-03  0.13380104507E-01  0.33404553293E-01  0.00000000000E+00 0. -1.
     999901    1    3    3    0    0  0.29609151678E-01 -0.11943108714E+00 -0.18639263672E-01  0.88875638315E+00  0.88000000000E+00 0. -1.
        -11    1    4    4    0    0  0.29325937192E-02  0.51791425874E-01  0.11833827334E-01  0.53209515036E-01  0.51100000000E-03 0. -1.
         11    1    4    4    0    0 -0.19393434366E-02  0.68214098674E-01 -0.65746681686E-02  0.68559548521E-01  0.51100000000E-03 0.  1.
</event>
<event>
 8    1  0.1116841E+005  0.1043930E+01  0.7957747E-01            NaN
         13   -1    0    0    0    0  0.00000000000E+00  0.00000000000E+00  0.74505805969E-08  0.10566000000E+00  0.10566000000E+00 0. -1.
     999900   -1    0    0    0    0 -0.00000000000E+00 -0.00000000000E+00 -0.74505805969E-08  0.93827000000E+00  0.93827000000E+00 0.  1.
     999902    2    1    2    0    0  0.11972684604E-01  0.53052739623E-02  0.19046789983E-01  0.10208156902E+01  0.10205539682E+01 0.  0.
     999903    2    3    3    0    0 -0.63162836283E-01 -0.11013212884E+00  0.20243874311E-01  0.13010104821E+00  0.19945892019E-01 0.  0.
         14    1    1    2    0    0 -0.11972684604E-01 -0.53052739623E-02 -0.19046789983E-01  0.23114309791E-01  0.00000000000E+00 0.  1.
     999901    1    3    3    0    0  0.75135520887E-01  0.11543740280E+00 -0.11970843281E-02  0.89071464200E+00  0.88000000000E+00 0.  1.
        -11    1    4    4    0    0 -0.52276566588E-01 -0.86528195811E-01  0.23804552177E-01  0.10385993409E+00  0.51100000000E-03 0.  1.
         11    1    4    4    0    0 -0.10886269695E-01 -0.23603933025E-01 -0.35606778656E-02  0.26241114115E-01  0.51100000000E-03 0. -1.
</event>
<event>
 8    1  0.1288677E+005  0.1043930E+01  0.7957747E-01            NaN
         13   -1    0    0    0    0  0.00000000000E+00  0.00000000000E+00  0.74505805969E-08  0.10566000000E+00  0.10566000000E+00 0.  1.
     999900   -1    0    0    0    0 -0.00000000000E+00 -0.00000000000E+00 -0.74505805969E-08  0.93827000000E+00  0.93827000000E+00 0. -1.
     999902    2    1    2    0    0 -0.15422362165E-01 -0.15863760942E-01  0.27430304604E-01  0.10086889759E+01  0.10080731722E+01 0.  0.
     999903    2    3    3    0    0 -0.36349452007E-01 -0.39577603675E-02 -0.11007249260E+00  0.11768576878E+00  0.19925863044E-01 0.  0.
         14    1    1    2    0    0  0.15422362165E-01  0.15863760942E-01 -0.27430304604E-01  0.35241024058E-01  0.00000000000E+00 0. -1.
     999901    1    3    3    0    0  0.20927089842E-01 -0.11906000575E-01  0.13750279720E+00  0.89100320716E+00  0.88000000000E+00 0.  1.
        -11    1    4    4    0    0 -0.28338307113E-01 -0.74483931666E-02 -0.59095688120E-01  0.65962865964E-01  0.51100000000E-03 0.  1.
         11    1    4    4    0    0 -0.80111448943E-02  0.34906327991E-02 -0.50976804476E-01  0.51722902813E-01  0.51100000000E-03 0. -1.
</event>
<event>
 8    1  0.1116841E+005  0.1043930E+01  0.7957747E-01            NaN
         13   -1    0    0    0    0  0.00000000000E+00  0.00000000000E+00  0.74505805969E-08  0.10566000000E+00  0.10566000000E+00 0.  1.
     999900   -1    0    0    0    0 -0.00000000000E+00 -0.00000000000E+00 -0.74505805969E-08  0.93827000000E+00  0.93827000000E+00 0.  1.
     999902    2    1    2    0    0  0.69886347061E-02 -0.54460639919E-02  0.21790612509E-01  0.10204070023E+01  0.10201358335E+01 0.  0.
     999903    2    3    3    0    0 -0.93199924152E-01  0.81219246607E-01 -0.31685724914E-01  0.12888676020E+00  0.18028308549E-01 0.  0.
         14    1    1    2    0    0 -0.69886347061E-02  0.54460639919E-02 -0.21790612509E-01  0.23522997717E-01  0.00000000000E+00 0. -1.
     999901    1    3    3    0    0  0.10018855886E+00 -0.86665310599E-01  0.53476337423E-01  0.89152024209E+00  0.88000000000E+00 0. -1.
        -11    1    4    4    0    0 -0.25914354923E-01  0.16341028715E-01 -0.15566731964E-02  0.30680080882E-01  0.51100000000E-03 0. -1.
         11    1    4    4    0    0 -0.67285569230E-01  0.64878217892E-01 -0.30129051718E-01  0.98206679314E-01  0.51100000000E-03 0.  1.
</event>
<event>
 8    1  0.1116841E+005  0.1043930E+01  0.7957747E-01            NaN
         13   -1    0    0    0    0  0.00000000000E+00  0.00000000000E+00  0.74505805969E-08  0.10566000000E+00  0.10566000000E+00 0.  1.
     999900   -1    0    0    0    0 -0.00000000000E+00 -0.00000000000E+00 -0.74505805969E-08  0.93827000000E+00  0.93827000000E+00 0. -1.
     999902    2    1    2    0    0  0.34694448159E-02  0.14136837852E-01 -0.18359990479E-01  0.10204997528E+01  0.10202307430E+01 0.  0.
     999903    2    3    3    0    0  0.50641720115E-01  0.41620400494E-01  0.10996785822E+00  0.12951793118E+00  0.19624553570E-01 0.  0.
         14    1    1    2    0    0 -0.34694448159E-02 -0.14136837852E-01  0.18359990479E-01  0.23430247164E-01  0.00000000000E+00 0.  1.
     999901    1    3    3    0    0 -0.47172275299E-01 -0.27483562642E-01 -0.12832784869E+00  0.89098182166E+00  0.88000000000E+00 0. -1.
        -11    1    4    4    0    0  0.20230294229E-01  0.29030176975E-01  0.60776813723E-01  0.70328501954E-01  0.51100000000E-03 0. -1.
         11    1    4    4    0    0  0.30411425886E-01  0.12590223519E-01  0.49191044493E-01  0.59189429226E-01  0.51100000000E-03 0.  1.
</event>
<event>
 8    1  0.1116841E+005  0.1043930E+01  0.7957747E-01            NaN
         13   -1    0    0    0    0  0.00000000000E+00  0.00000000000E+00  0.74505805969E-08  0.10566000000E+00  0.10566000000E+00 0.  1.
     999900   -1    0    0    0    0 -0.00000000000E+00 -0.00000000000E+00 -0.74505805969E-08  0.93827000000E+00  0.93827000000E+00 0. -1.
     999902    2    1    2    0    0  0.21497783132E-01  0.87555173628E-02  0.11534154647E-02  0.10206889989E+01  0.10204243668E+01 0.  0.
     999903    2    3    3    0    0  0.46670062512E-01 -0.10927666317E+00  0.52147850345E-01  0.13098923401E+00  0.17868891495E-01 0.  0.
         14    1    1    2    0    0 -0.21497783132E-01 -0.87555173628E-02 -0.11534154647E-02  0.23241001078E-01  0.00000000000E+00 0.  1.
     999901    1    3    3    0    0 -0.25172279379E-01  0.11803218053E+00 -0.50994434880E-01  0.88969976491E+00  0.88000000000E+00 0.  1.
        -11    1    4    4    0    0  0.14518724626E-01 -0.46936926496E-01  0.13743077500E-01  0.51019621068E-01  0.51100000000E-03 0.  1.
         11    1    4    4    0    0  0.32151337886E-01 -0.62339736673E-01  0.38404772845E-01  0.79969612945E-01  0.51100000000E-03 0. -1.
</event>
<event>
 8    1  0.1116841E+005  0.1043930E+01  0.7957747E-01            NaN
         13   -1    0    0    0    0  0.00000000000E+00  0.00000000000E+00  0.74505805969E-08  0.10566000000E+00  0.10566000000E+00 0.  1.
     999900   -1    0    0    0    0 -0.00000000000E+00 -0.00000000000E+00 -0.74505805969E-08  0.93827000000E+00  0.93827000000E+00 0. -1.
     999902    2    1    2    0    0  0.90242695137E-03  0.22999313671E-01 -0.34604449414E-02  0.10206543156E+01  0.10203888840E+01 0.  0.
     999903    2    3    3    0    0 -0.91847497826E-01 -0.31196645277E-02 -0.91921492376E-01  0.13098577821E+00  0.16186975256E-01 0.  0.
         14    1    1    2    0    0 -0.90242695137E-03 -0.22999313671E-01  0.34604449414E-02  0.23275684371E-01  0.00000000000E+00 0.  1.
     999901    1    3    3    0    0  0.92749924777E-01  0.26118978198E-01  0.88461047435E-01  0.88966853742E+00  0.88000000000E+00 0.  1.
        -11    1    4    4    0    0 -0.68768846422E-01 -0.70321545884E-02 -0.60960675488E-01  0.92168706801E-01  0.51100000000E-03 0. -1.
         11    1    4    4    0    0 -0.23078651404E-01  0.39124900607E-02 -0.30960816888E-01  0.38817071405E-01  0.51100000000E-03 0.  1.
</event>
<event>
 8    1  0.1116841E+005  0.1043930E+01  0.7957747E-01            NaN
         13   -1    0    0    0    0  0.00000000000E+00  0.00000000000E+00  0.74505805969E-08  0.10566000000E+00  0.10566000000E+00 0. -1.
     999900   -1    0    0    0    0 -0.00000000000E+00 -0.00000000000E+00 -0.74505805969E-08  0.93827000000E+00  0.93827000000E+00 0.  1.
     999902    2    1    2    0    0  0.12720309821E-01 -0.19299932340E-01 -0.30197879185E-02  0.10206187840E+01  0.10203525320E+01 0.  0.
     999903    2    3    3    0    0  0.10823631171E+00  0.39016086638E-01  0.59713304851E-01  0.13131596407E+00  0.20996415252E-01 0.  0.
         14    1    1    2    0    0 -0.12720309821E-01  0.19299932340E-01  0.30197879185E-02  0.23311215956E-01  0.00000000000E+00 0. -1.
     999901    1    3    3    0    0 -0.95516001892E-01 -0.58316018977E-01 -0.62733092769E-01  0.88930281997E+00  0.88000000000E+00 0.  1.
        -11    1    4    4    0    0  0.56847403986E-01  0.29765722342E-01  0.26476857163E-01  0.69418374028E-01  0.51100000000E-03 0. -1.
         11    1    4    4    0    0  0.51388907727E-01  0.92503642961E-02  0.33236447688E-01  0.61897590041E-01  0.51100000000E-03 0.  1.
</event>
<event>
 8    1  0.1116841E+005  0.1043930E+01  0.7957747E-01            NaN
         13   -1    0    0    0    0  0.00000000000E+00  0.00000000000E+00  0.74505805969E-08  0.10566000000E+00  0.10566000000E+00 0. -1.
     999900   -1    0    0    0    0 -0.00000000000E+00 -0.00000000000E+00 -0.74505805969E-08  0.93827000000E+00  0.93827000000E+00 0.  1.
     999902    2    1    2    0    0 -0.21672637622E-01 -0.17964993256E-02  0.79967350085E-02  0.10207593634E+01  0.10204963496E+01 0.  0.
     999903    2    3    3    0    0  0.27480911501E-01  0.16679799945E-01 -0.12390864037E+00  0.12938039060E+00  0.18775465118E-01 0.  0.
         14    1    1    2    0    0  0.21672637622E-01  0.17964993256E-02 -0.79967350085E-02  0.23170636636E-01  0.00000000000E+00 0.  1.
     999901    1    3    3    0    0 -0.49153549123E-01 -0.18476299271E-01  0.13190537538E+00  0.89137897276E+00  0.88000000000E+00 0. -1.
        -11    1    4    4    0    0  0.22436146378E-01  0.96898554832E-02 -0.58465019104E-01  0.63369500104E-01  0.51100000000E-03 0. -1.
         11    1    4    4    0    0  0.50447651238E-02  0.69899444620E-02 -0.65443621269E-01  0.66010890499E-01  0.51100000000E-03 0.  1.
</event>
<event>
 8    1  0.1116841E+005  0.1043930E+01  0.7957747E-01            NaN
         13   -1    0    0    0    0  0.00000000000E+00  0.00000000000E+00  0.74505805969E-08  0.10566000000E+00  0.10566000000E+00 0.  1.
     999900   -1    0    0    0    0 -0.00000000000E+00 -0.00000000000E+00 -0.74505805969E-08  0.93827000000E+00  0.93827000000E+00 0. -1.
     999902    2    1    2    0    0 -0.30619925196E-02  0.11634986572E-02  0.21506053713E-01  0.10221759228E+01  0.10219444101E+01 0.  0.
     999903    2    3    3    0    0  0.83084276256E-01  0.91770644704E-01  0.43971684879E-01  0.13305526784E+00  0.21103247116E-01 0.  0.
         14    1    1    2    0    0  0.30619925196E-02 -0.11634986572E-02 -0.21506053713E-01  0.21754077173E-01  0.00000000000E+00 0. -1.
     999901    1    3    3    0    0 -0.86146268776E-01 -0.90607146047E-01 -0.22465631166E-01  0.88912065499E+00  0.88000000000E+00 0. -1.
        -11    1    4    4    0    0  0.54253425617E-01  0.68298822919E-01  0.38984041471E-01  0.95541509375E-01  0.51100000000E-03 0. -1.
         11    1    4    4    0    0  0.28830850639E-01  0.23471821785E-01  0.49876434080E-02  0.37513758466E-01  0.51100000000E-03 0.  1.
</event>
<event>
 8    1  0.1116841E+005  0.1043930E+01  0.7957747E-01            NaN
         13   -1    0    0    0    0  0.00000000000E+00  0.00000000000E+00  0.74505805969E-08  0.10566000000E+00  0.10566000000E+00 0. -1.
     999900   -1    0    0    0    0 -0.00000000000E+00 -0.00000000000E+00 -0.74505805969E-08  0.93827000000E+00  0.93827000000E+00 0. -1.
     999902    2    1    2    0    0  0.12213243575E-01  0.16035271938E-01  0.24383919242E-02  0.10236263299E+01  0.10234249480E+01 0.  0.
     999903    2    3    3    0    0  0.37532720349E-01 -0.38627813236E-01  0.12147051387E+00  0.13357140190E+00  0.13616923822E-01 0.  0.
         14    1    1    2    0    0 -0.12213243575E-01 -0.16035271938E-01 -0.24383919242E-02  0.20303670110E-01  0.00000000000E+00 0.  1.
     999901    1    3    3    0    0 -0.25319476774E-01  0.54663085174E-01 -0.11903212194E+00  0.89005492799E+00  0.88000000000E+00 0. -1.
        -11    1    4    4    0    0  0.79425373864E-02 -0.16410909794E-01  0.33711491503E-01  0.38329200889E-01  0.51100000000E-03 0.  1.
         11    1    4    4    0    0  0.29590182963E-01 -0.22216903442E-01  0.87759022363E-01  0.95242201011E-01  0.51100000000E-03 0. -1.
</event>
<event>
 8    1  0.1116841E+005  0.1043930E+01  0.7957747E-01            NaN
         13   -1    0    0    0    0  0.00000000000E+00  0.00000000000E+00  0.74505805969E-08  0.10566000000E+00  0.10566000000E+00 0.  1.
     999900   -1    0    0    0    0 -0.00000000000E+00 -0.00000000000E+00 -0.74505805969E-08  0.93827000000E+00  0.93827000000E+00 0. -1.
     999902    2    1    2    0    0 -0.21683510799E-01 -0.39599970103E-02 -0.72598486712E-02  0.10207230696E+01  0.10204592217E+01 0.  0.
     999903    2    3    3    0    0 -0.12522149182E+00  0.22431876463E-01 -0.35996243638E-01  0.13379442256E+00  0.20533067422E-01 0.  0.
         14    1    1    2    0    0  0.21683510799E-01  0.39599970103E-02  0.72598486712E-02  0.23206930422E-01  0.00000000000E+00 0.  1.
     999901    1    3    3    0    0  0.10353798102E+00 -0.26391873473E-01  0.28736394967E-01  0.88692864701E+00  0.88000000000E+00 0.  1.
        -11    1    4    4    0    0 -0.27454218114E-01 -0.35085941719E-02 -0.66014710618E-02  0.28458476180E-01  0.51100000000E-03 0.  1.
         11    1    4    4    0    0 -0.97767273706E-01  0.25940470635E-01 -0.29394772577E-01  0.10533594638E+00  0.51100000000E-03 0. -1.
</event>
<event>
 8    1  0.1116841E+005  0.1043930E+01  0.7957747E-01            NaN
         13   -1    0    0    0    0  0.00000000000E+00  0.00000000000E+00  0.74505805969E-08  0.10566000000E+00  0.10566000000E+00 0.  1.
     999900   -1    0    0    0    0 -0.00000000000E+00 -0.00000000000E+00 -0.74505805969E-08  0.93827000000E+00  0.93827000000E+00 0.  1.
     999902    2    1    2    0    0 -0.10190882234E-01  0.20002362019E-01  0.80022628676E-02  0.10200975688E+01  0.10198191335E+01 0.  0.
     999903    2    3    3    0    0 -0.77087181928E-01 -0.40876302674E-01  0.95872959925E-01  0.13110792534E+00  0.19605047955E-01 0.  0.
         14    1    1    2    0    0  0.10190882234E-01 -0.20002362019E-01 -0.80022628676E-02  0.23832431224E-01  0.00000000000E+00 0. -1.
     999901    1    3    3    0    0  0.66896299694E-01  0.60878664693E-01 -0.87870697057E-01  0.88898964343E+00  0.88000000000E+00 0.  1.
        -11    1    4    4    0    0 -0.66254353722E-02  0.11040687262E-02  0.12215554784E-01  0.13949776389E-01  0.51100000000E-03 0. -1.
         11    1    4    4    0    0 -0.70461746556E-01 -0.41980371401E-01  0.83657405141E-01  0.11715814895E+00  0.51100000000E-03 0.  1.
</event>
<event>
 8    1  0.1116841E+005  0.1043930E+01  0.7957747E-01            NaN
         13   -1    0    0    0    0  0.00000000000E+00  0.00000000000E+00  0.74505805969E-08  0.10566000000E+00  0.10566000000E+00 0.  1.
     999900   -1    0    0    0    0 -0.00000000000E+00 -0.00000000000E+00 -0.74505805969E-08  0.93827000000E+00  0.93827000000E+00 0. -1.
     999902    2    1    2    0    0  0.63243988991E-02  0.17352422080E-01  0.14595519635E-01  0.10203899540E+01  0.10201183874E+01 0.  0.
     999903    2    3    3    0    0 -0.47474864016E-01  0.12185026737E+00  0.79568586931E-03  0.13246845082E+00  0.21116509499E-01 0.  0.
         14    1    1    2    0    0 -0.63243988991E-02 -0.17352422080E-01 -0.14595519635E-01  0.23540046026E-01  0.00000000000E+00 0. -1.
     999901    1    3    3    0    0  0.53799262916E-01 -0.10449784529E+00  0.13799833765E-01  0.88792150316E+00  0.88000000000E+00 0.  1.
        -11    1    4    4    0    0 -0.43939390071E-01  0.89185687625E-01 -0.24140382933E-02  0.99452730374E-01  0.51100000000E-03 0.  1.
         11    1    4    4    0    0 -0.35354739456E-02  0.32664579747E-01  0.32097241626E-02  0.33015720441E-01  0.51100000000E-03 0. -1.
</event>
<event>
 8    1  0.1116841E+005  0.1043930E+01  0.7957747E-01            NaN
         13   -1    0    0    0    0  0.00000000000E+00  0.00000000000E+00  0.74505805969E-08  0.10566000000E+00  0.10566000000E+00 0. -1.
     999900   -1    0    0    0    0 -0.00000000000E+00 -0.00000000000E+00 -0.74505805969E-08  0.93827000000E+00  0.93827000000E+00 0.  1.
     999902    2    1    2    0    0  0.31791542910E-02 -0.23258573285E-01 -0.49484972596E-02  0.10199392543E+01  0.10196570632E+01 0.  0.
     999903    2    3    3    0    0  0.86844789138E-01 -0.16874186347E-01 -0.95136417490E-01  0.13135917362E+00  0.19430362756E-01 0.  0.
         14    1    1    2    0    0 -0.31791542910E-02  0.23258573285E-01  0.49484972596E-02  0.23990745682E-01  0.00000000000E+00 0. -1.
     999901    1    3    3    0    0 -0.83665634847E-01 -0.63843869384E-02  0.90187920230E-01  0.88858008069E+00  0.88000000000E+00 0. -1.
        -11    1    4    4    0    0  0.56211975830E-01 -0.25904980684E-02 -0.52624814915E-01  0.77046279422E-01  0.51100000000E-03 0.  1.
         11    1    4    4    0    0  0.30632813308E-01 -0.14283688278E-01 -0.42511602575E-01  0.54312894202E-01  0.51100000000E-03 0. -1.
</event>
<event>
 8    1  0.1116841E+005  0.1043930E+01  0.7957747E-01            NaN
         13   -1    0    0    0    0  0.00000000000E+00  0.00000000000E+00  0.74505805969E-08  0.10566000000E+00  0.10566000000E+00 0.  1.
     999900   -1    0    0    0    0 -0.00000000000E+00 -0.00000000000E+00 -0.74505805969E-08  0.93827000000E+00  0.93827000000E+00 0.  1.
     999902    2    1    2    0    0  0.28849485188E-02  0.18520954800E-01  0.12288172695E-01  0.10215168815E+01  0.10212709686E+01 0.  0.
     999903    2    3    3    0    0 -0.49661294769E-01  0.10955673706E+00 -0.52185873596E-01  0.13291937753E+00  0.21800749701E-01 0.  0.
         14    1    1    2    0    0 -0.28849485188E-02 -0.18520954800E-01 -0.12288172695E-01  0.22413118544E-01  0.00000000000E+00 0. -1.
     999901    1    3    3    0    0  0.52546243287E-01 -0.91035782258E-01  0.64474046291E-01  0.88859750392E+00  0.88000000000E+00 0. -1.
        -11    1    4    4    0    0  0.70454927487E-03  0.15724706693E-01 -0.65006195887E-02  0.17037663170E-01  0.51100000000E-03 0.  1.
         11    1    4    4    0    0 -0.50365844043E-01  0.93832030366E-01 -0.45685254007E-01  0.11588171436E+00  0.51100000000E-03 0. -1.
</event>
<event>
 8    1  0.1116841E+005  0.1043930E+01  0.7957747E-01            NaN
         13   -1    0    0    0    0  0.00000000000E+00  0.00000000000E+00  0.74505805969E-08  0.10566000000E+00  0.10566000000E+00 0.  1.
     999900   -1    0    0    0    0 -0.00000000000E+00 -0.00000000000E+00 -0.74505805969E-08  0.93827000000E+00  0.93827000000E+00 0.  1.
     999902    2    1    2    0    0 -0.18317196466E-01  0.84190282900E-02 -0.17488541451E-01  0.10172420101E+01  0.10168918616E+01 0.  0.
     999903    2    3    3    0    0  0.78578766542E-01  0.61562237866E-01 -0.77992804540E-01  0.12826856041E+00  0.20134903709E-01 0.  0.
         14    1    1    2    0    0  0.18317196466E-01 -0.84190282900E-02  0.17488541451E-01  0.26687989917E-01  0.00000000000E+00 0.  1.
     999901    1    3    3    0    0 -0.96895963007E-01 -0.53143209576E-01  0.60504263089E-01  0.88897344967E+00  0.88000000000E+00 0. -1.
        -11    1    4    4    0    0  0.19407500304E-01  0.27019466458E-01 -0.27272531318E-01  0.43020398897E-01  0.51100000000E-03 0. -1.
         11    1    4    4    0    0  0.59171266237E-01  0.34542771408E-01 -0.50720273222E-01  0.85248161513E-01  0.51100000000E-03 0.  1.
</event>
<event>
 8    1  0.1116841E+005  0.1043930E+01  0.7957747E-01            NaN
         13   -1    0    0    0    0  0.00000000000E+00  0.00000000000E+00  0.74505805969E-08  0.10566000000E+00  0.10566000000E+00 0. -1.
     999900   -1    0    0    0    0 -0.00000000000E+00 -0.00000000000E+00 -0.74505805969E-08  0.93827000000E+00  0.93827000000E+00 0.  1.
     999902    2    1    2    0    0  0.20681896760E-01 -0.10320575476E-01 -0.35309248673E-02  0.10205479008E+01  0.10202800083E+01 0.  0.
     999903    2    3    3    0    0  0.10641514441E+00 -0.77553788620E-01 -0.10373578538E-01  0.13380255033E+00  0.21371435479E-01 0.  0.
         14    1    1    2    0    0 -0.20681896760E-01  0.10320575476E-01  0.35309248673E-02  0.23382099182E-01  0.00000000000E+00 0. -1.
     999901    1    3    3    0    0 -0.85733247649E-01  0.67233213143E-01  0.68426536710E-02  0.88674535049E+00  0.88000000000E+00 0. -1.
        -11    1    4    4    0    0  0.75903724522E-01 -0.51614300476E-01 -0.16570621717E-01  0.93275173734E-01  0.51100000000E-03 0.  1.
         11    1    4    4    0    0  0.30511419886E-01 -0.25939488143E-01  0.61970431788E-02  0.40527376596E-01  0.51100000000E-03 0. -1.
</event>
<event>
 8    1  0.1116841E+005  0.1043930E+01  0.7957747E-01            NaN
         13   -1    0    0    0    0  0.00000000000E+00  0.00000000000E+00  0.74505805969E-08  0.10566000000E+00  0.10566000000E+00 0.  1.
     999900   -1    0    0    0    0 -0.00000000000E+00 -0.00000000000E+00 -0.74505805969E-08  0.93827000000E+00  0.93827000000E+00 0.  1.
     999902    2    1    2    0    0 -0.21685530908E-01 -0.44402128219E-02 -0.82627813059E-02  0.10203026579E+01  0.10200290498E+01 0.  0.
     999903    2    3    3    0    0  0.83336004225E-01  0.94632719259E-01  0.12234100677E-01  0.12830204640E+00  0.20285480926E-01 0.  0.
         14    1    1    2    0    0  0.21685530908E-01  0.44402128219E-02  0.82627813059E-02  0.23627342118E-01  0.00000000000E+00 0.  1.
     999901    1    3    3    0    0 -0.10502153513E+00 -0.99072932081E-01 -0.20496881983E-01  0.89200061148E+00  0.88000000000E+00 0.  1.
        -11    1    4    4    0    0  0.55027056316E-01  0.50296925219E-01  0.12521124779E-02  0.74562634878E-01  0.51100000000E-03 0.  1.
         11    1    4    4    0    0  0.28308947909E-01  0.44335794041E-01  0.10981988199E-01  0.53739411522E-01  0.51100000000E-03 0. -1.
</event>
<event>
 8    1  0.1116841E+005  0.1043930E+01  0.7957747E-01            NaN
         13   -1    0    0    0    0  0.00000000000E+00  0.00000000000E+00  0.74505805969E-08  0.10566000000E+00  0.10566000000E+00 0.  1.
     999900   -1    0    0    0    0 -0.00000000000E+00 -0.00000000000E+00 -0.74505805969E-08  0.93827000000E+00  0.93827000000E+00 0.  1.
     999902    2    1    2    0    0 -0.25489602439E-02 -0.23046717058E-01  0.38203270826E-02  0.10204301433E+01  0.10201595141E+01 0.  0.
     999903    2    3    3    0    0 -0.48285113984E-01 -0.47146688645E-01  0.11195187866E+00  0.13230569435E+00  0.20428194743E-01 0.  0.
         14    1    1    2    0    0  0.25489602439E-02  0.23046717058E-01 -0.38203270826E-02  0.23499856691E-01  0.00000000000E+00 0.  1.
     999901    1    3    3    0    0  0.45736153740E-01  0.24099971587E-01 -0.10813155157E+00  0.88812444896E+00  0.88000000000E+00 0.  1.
        -11    1    4    4    0    0 -0.48975307031E-01 -0.45408132313E-01  0.10035742532E+00  0.12055020994E+00  0.51100000000E-03 0.  1.
         11    1    4    4    0    0  0.69019304705E-03 -0.17385563313E-02  0.11594453333E-01  0.11755484408E-01  0.51100000000E-03 0. -1.
</event>
<event>
 8    1  0.1116841E+005  0.1043930E+01  0.7957747E-01            NaN
         13   -1    0    0    0    0  0.00000000000E+00  0.00000000000E+00  0.74505805969E-08  0.10566000000E+00  0.10566000000E+00 0. -1.
     999900   -1    0    0    0    0 -0.00000000000E+00 -0.00000000000E+00 -0.74505805969E-08  0.93827000000E+00  0.93827000000E+00 0.  1.
     999902    2    1    2    0    0 -0.12993186347E-01  0.14246628409E-01 -0.13959508636E-01  0.10201254375E+01  0.10198476607E+01 0.  0.
     999903    2    3    3    0    0  0.36712280978E-01 -0.98583832692E-01  0.69410306176E-01  0.12762788995E+00  0.20112783171E-01 0.  0.
         14    1    1    2    0    0  0.12993186347E-01 -0.14246628409E-01  0.13959508636E-01  0.23804562458E-01  0.00000000000E+00 0. -1.
     999901    1    3    3    0    0 -0.49705467325E-01  0.11283046110E+00 -0.83369814811E-01  0.89249754759E+00  0.88000000000E+00 0. -1.
        -11    1    4    4    0    0  0.23992186133E-02 -0.30770278500E-01  0.16295749843E-01  0.34905284312E-01  0.51100000000E-03 0.  1.
         11    1    4    4    0    0  0.34313062365E-01 -0.67813554192E-01  0.53114556333E-01  0.92722605639E-01  0.51100000000E-03 0. -1.
</event>
<event>
 8    1  0.1116841E+005  0.1043930E+01  0.7957747E-01            NaN
         13   -1    0    0    0    0  0.00000000000E+00  0.00000000000E+00  0.74505805969E-08  0.10566000000E+00  0.10566000000E+00 0. -1.
     999900   -1    0    0    0    0 -0.00000000000E+00 -0.00000000000E+00 -0.74505805969E-08  0.93827000000E+00  0.93827000000E+00 0. -1.
     999902    2    1    2    0    0 -0.91928584829E-03  0.20494964759E-01  0.13381078280E-01  0.10194362881E+01  0.10191419938E+01 0.  0.
     999903    2    3    3    0    0  0.98851670721E-01  0.81529480323E-01  0.22865870586E-01  0.13164722692E+00  0.19734116422E-01 0.  0.
         14    1    1    2    0    0  0.91928584829E-03 -0.20494964759E-01 -0.13381078280E-01  0.24493711905E-01  0.00000000000E+00 0. -1.
     999901    1    3    3    0    0 -0.99770956569E-01 -0.61034515564E-01 -0.94847923058E-02  0.88778906118E+00  0.88000000000E+00 0.  1.
        -11    1    4    4    0    0  0.54542734725E-01  0.49748319613E-01  0.39542856936E-02  0.73930390991E-01  0.51100000000E-03 0. -1.
         11    1    4    4    0    0  0.44308935996E-01  0.31781160709E-01  0.18911584892E-01  0.57716835925E-01  0.51100000000E-03 0.  1.
</event>
<event>
 8    1  0.1116841E+005  0.1043930E+01  0.7957747E-01            NaN
         13   -1    0    0    0    0  0.00000000000E+00  0.00000000000E+00  0.74505805969E-08  0.10566000000E+00  0.10566000000E+00 0.  1.
     999900   -1    0    0    0    0 -0.00000000000E+00 -0.00000000000E+00 -0.74505805969E-08  0.93827000000E+00  0.93827000000E+00 0.  1.
     999902    2    1    2    0    0 -0.21171861751E-01  0.23096924106E-02 -0.88496337098E-02  0.10208670768E+01  0.10206065305E+01 0.  0.
     999903    2    3    3    0    0 -0.34971216779E-01  0.10760230146E+00  0.64143650268E-01  0.13148247203E+00  0.19287075982E-01 0.  0.
         14    1    1    2    0    0  0.21171861751E-01 -0.23096924106E-02  0.88496337098E-02  0.23062923185E-01  0.00000000000E+00 0. -1.
     999901    1    3    3    0    0  0.13799355028E-01 -0.10529260905E+00 -0.72993283978E-01  0.88938460478E+00  0.88000000000E+00 0.  1.
        -11    1    4    4    0    0 -0.56741634052E-02  0.35954615538E-01  0.12769666932E-01  0.38577921450E-01  0.51100000000E-03 0. -1.
         11    1    4    4    0    0 -0.29297053374E-01  0.71647685919E-01  0.51373983337E-01  0.92904550582E-01  0.51100000000E-03 0.  1.
</event>
<event>
 8    1  0.1116841E+005  0.1043930E+01  0.7957747E-01            NaN
         13   -1    0    0    0    0  0.00000000000E+00  0.00000000000E+00  0.74505805969E-08  0.10566000000E+00  0.10566000000E+00 0. -1.
     999900   -1    0    0    0    0 -0.00000000000E+00 -0.00000000000E+00 -0.74505805969E-08  0.93827000000E+00  0.93827000000E+00 0.  1.
     999902    2    1    2    0    0  0.18990216634E-01  0.14584530356E-01 -0.33449605922E-02  0.10197530354E+01  0.10194663936E+01 0.  0.
     999903    2    3    3    0    0 -0.83671237562E-01 -0.79073210369E-01 -0.51162455079E-01  0.12756602627E+00  0.20051076144E-01 0.  0.
         14    1    1    2    0    0 -0.18990216634E-01 -0.14584530356E-01  0.33449605922E-02  0.24176964550E-01  0.00000000000E+00 0.  1.
     999901    1    3    3    0    0  0.10266145420E+00  0.93657740724E-01  0.47817494487E-01  0.89218700918E+00  0.88000000000E+00 0. -1.
        -11    1    4    4    0    0 -0.71933251000E-01 -0.59603279055E-01 -0.35422182513E-01  0.99909637216E-01  0.51100000000E-03 0. -1.
         11    1    4    4    0    0 -0.11737986562E-01 -0.19469931314E-01 -0.15740272566E-01  0.27656389051E-01  0.51100000000E-03 0.  1.
</event>
<event>
 8    1  0.1116841E+005  0.1043930E+01  0.7957747E-01            NaN
         13   -1    0    0    0    0  0.00000000000E+00  0.00000000000E+00  0.74505805969E-08  0.10566000000E+00  0.10566000000E+00 0. -1.
     999900   -1    0    0    0    0 -0.00000000000E+00 -0.00000000000E+00 -0.74505805969E-08  0.93827000000E+00  0.93827000000E+00 0.  1.
     999902    2    1    2    0    0  0.14445988847E-01 -0.10007970460E-01 -0.15876437768E-01  0.10202465175E+01  0.10199715923E+01 0.  0.
     999903    2    3    3    0    0  0.86521588959E-01 -0.13111892986E-01  0.94688942908E-01  0.13039864857E+00  0.19491140170E-01 0.  0.
         14    1    1    2    0    0 -0.14445988847E-01  0.10007970460E-01  0.15876437768E-01  0.23683482487E-01  0.00000000000E+00 0. -1.
     999901    1    3    3    0    0 -0.72075600112E-01  0.31039225253E-02 -0.11056538068E+00  0.88984786895E+00  0.88000000000E+00 0.  1.
        -11    1    4    4    0    0  0.22765087101E-01 -0.10518451144E-01  0.34705031938E-01  0.42820408311E-01  0.51100000000E-03 0.  1.
         11    1    4    4    0    0  0.63756501858E-01 -0.25934418420E-02  0.59983910970E-01  0.87578240254E-01  0.51100000000E-03 0. -1.
</event>
<event>
 8    1  0.1116841E+005  0.1043930E+01  0.7957747E-01            NaN
         13   -1    0    0    0    0  0.00000000000E+00  0.00000000000E+00  0.74505805969E-08  0.10566000000E+00  0.10566000000E+00 0.  1.
     999900   -1    0    0    0    0 -0.00000000000E+00 -0.00000000000E+00 -0.74505805969E-08  0.93827000000E+00  0.93827000000E+00 0.  1.
     999902    2    1    2    0    0 -0.86063254795E-02  0.18607191614E-01  0.11921467763E-01  0.10202146503E+01  0.10199389760E+01 0.  0.
     999903    2    3    3    0    0 -0.10221770362E+00 -0.71149937801E-02 -0.78141048060E-01  0.13030680243E+00  0.19358649182E-01 0.  0.
         14    1    1    2    0    0  0.86063254795E-02 -0.18607191614E-01 -0.11921467763E-01  0.23715349705E-01  0.00000000000E+00 0. -1.
     999901    1    3    3    0    0  0.93611378136E-01  0.25722185394E-01  0.90062515823E-01  0.88990784787E+00  0.88000000000E+00 0.  1.
        -11    1    4    4    0    0 -0.32998450288E-01  0.18137947886E-02 -0.15426429112E-01  0.36474969624E-01  0.51100000000E-03 0. -1.
         11    1    4    4    0    0 -0.69219253328E-01 -0.89287885688E-02 -0.62714618947E-01  0.93831832804E-01  0.51100000000E-03 0.  1.
</event>
<event>
 7    1  0.1116841E+005  0.1043930E+01  0.7957747E-01            NaN
         13   -1    0    0    0    0  0.00000000000E+00  0.00000000000E+00  0.74505805969E-08  0.10566000000E+00  0.10566000000E+00 0. -1.
     999900   -1    0    0    0    0 -0.00000000000E+00 -0.00000000000E+00 -0.74505805969E-08  0.93827000000E+00  0.93827000000E+00 0.  1.
     999903    2    1    2    0    0  0.92026657562E-01  0.28054368246E-01 -0.62515583500E-01  0.11634621092E+00  0.19294800725E-01 0.  0.
         14    1    1    2    0    0 -0.38302400116E-01 -0.21249682758E-01  0.21416854474E-02  0.43854414698E-01  0.00000000000E+00 0.  1.
     999901    1    1    2    0    0 -0.53724257447E-01 -0.68046854882E-02  0.60373898053E-01  0.88372937438E+00  0.88000000000E+00 0. -1.
        -11    1    3    3    0    0  0.21179275116E-01  0.20349291332E-03 -0.20082825273E-01  0.29192192376E-01  0.51100000000E-03 0. -1.
         11    1    3    3    0    0  0.70847382447E-01  0.27850875332E-01 -0.42432758227E-01  0.87154018542E-01  0.51100000000E-03 0.  1.
</event>
<event>
 8    1  0.1116841E+005  0.1043930E+01  0.7957747E-01            NaN
         13   -1    0    0    0    0  0.00000000000E+00  0.00000000000E+00  0.74505805969E-08  0.10566000000E+00  0.10566000000E+00 0. -1.
     999900   -1    0    0    0    0 -0.00000000000E+00 -0.00000000000E+00 -0.74505805969E-08  0.93827000000E+00  0.93827000000E+00 0.  1.
     999902    2    1    2    0    0  0.21218888281E-01 -0.44267679210E-02  0.98525902234E-02  0.10201201065E+01  0.10198422038E+01 0.  0.
     999903    2    3    3    0    0 -0.61439034817E-01  0.19457884339E-02 -0.11067401019E+00  0.12804409902E+00  0.19183682396E-01 0.  0.
         14    1    1    2    0    0 -0.21218888281E-01  0.44267679210E-02 -0.98525902234E-02  0.23809893495E-01  0.00000000000E+00 0.  1.
     999901    1    3    3    0    0  0.82657923098E-01 -0.63725563549E-02  0.12052660041E+00  0.89207600749E+00  0.88000000000E+00 0. -1.
        -11    1    4    4    0    0 -0.14249334895E-01 -0.75417147532E-02 -0.24400471430E-01  0.29250045015E-01  0.51100000000E-03 0. -1.
         11    1    4    4    0    0 -0.47189699922E-01  0.94875031871E-02 -0.86273538760E-01  0.98794054004E-01  0.51100000000E-03 0.  1.
</event>
<event>
 8    1  0.1116841E+005  0.1043930E+01  0.7957747E-01            NaN
         13   -1    0    0    0    0  0.00000000000E+00  0.00000000000E+00  0.74505805969E-08  0.10566000000E+00  0.10566000000E+00 0. -1.
     999900   -1    0    0    0    0 -0.00000000000E+00 -0.00000000000E+00 -0.74505805969E-08  0.93827000000E+00  0.93827000000E+00 0.  1.
     999902    2    1    2    0    0  0.14679479147E-01 -0.18366546416E-01 -0.45327454217E-02  0.10199850023E+01  0.10197038991E+01 0.  0.
     999903    2    3    3    0    0  0.88366635272E-01  0.86006249451E-01 -0.36019893870E-01  0.13020136676E+00  0.21194951730E-01 0.  0.
         14    1    1    2    0    0 -0.14679479147E-01  0.18366546416E-01  0.45327454217E-02  0.23944997731E-01  0.00000000000E+00 0. -1.
     999901    1    3    3    0    0 -0.73687156125E-01 -0.10437279587E+00  0.31487148448E-01  0.88978363550E+00  0.88000000000E+00 0. -1.
        -11    1    4    4    0    0  0.80391724220E-01  0.74447241219E-01 -0.25107251223E-01  0.11240932449E+00  0.51100000000E-03 0.  1.
         11    1    4    4    0    0  0.79749110527E-02  0.11559008232E-01 -0.10912642648E-01  0.17792042271E-01  0.51100000000E-03 0. -1.
</event>
<event>
 8    1  0.1116841E+005  0.1043930E+01  0.7957747E-01            NaN
         13   -1    0    0    0    0  0.00000000000E+00  0.00000000000E+00  0.74505805969E-08  0.10566000000E+00  0.10566000000E+00 0. -1.
     999900   -1    0    0    0    0 -0.00000000000E+00 -0.00000000000E+00 -0.74505805969E-08  0.93827000000E+00  0.93827000000E+00 0. -1.
     999902    2    1    2    0    0  0.20311064756E-01  0.14143887813E-01  0.20811845698E-02  0.10190921208E+01  0.10187893945E+01 0.  0.
     999903    2    3    3    0    0 -0.72682614403E-02 -0.11467962192E+00  0.52858270125E-01  0.12783770801E+00  0.18553694009E-01 0.  0.
         14    1    1    2    0    0 -0.20311064756E-01 -0.14143887813E-01 -0.20811845698E-02  0.24837879201E-01  0.00000000000E+00 0. -1.
     999901    1    3    3    0    0  0.27579326196E-01  0.12882350973E+00 -0.50777085555E-01  0.89125441279E+00  0.88000000000E+00 0. -1.
        -11    1    4    4    0    0 -0.10901504045E-01 -0.86674856156E-01  0.33337142767E-01  0.93504008946E-01  0.51100000000E-03 0. -1.
         11    1    4    4    0    0  0.36332426042E-02 -0.28004765764E-01  0.19521127358E-01  0.34333699067E-01  0.51100000000E-03 0.  1.
</event>
<event>
 8    1  0.1116841E+005  0.1043930E+01  0.7957747E-01            NaN
         13   -1    0    0    0    0  0.00000000000E+00  0.00000000000E+00  0.74505805969E-08  0.10566000000E+00  0.10566000000E+00 0. -1.
     999900   -1    0    0    0    0 -0.00000000000E+00 -0.00000000000E+00 -0.74505805969E-08  0.93827000000E+00  0.93827000000E+00 0. -1.
     999902    2    1    2    0    0  0.21105939899E-01 -0.10538674775E-01  0.39726655813E-02  0.10200070730E+01  0.10197264940E+01 0.  0.
     999903    2    3    3    0    0  0.76246468117E-01  0.91698728169E-01 -0.49994526165E-01  0.13073466129E+00  0.19233262049E-01 0.  0.
         14    1    1    2    0    0 -0.21105939899E-01  0.10538674775E-01 -0.39726655813E-02  0.23922927013E-01  0.00000000000E+00 0.  1.
     999901    1    3    3    0    0 -0.55140528219E-01 -0.10223740294E+00  0.53967191747E-01  0.88927241169E+00  0.88000000000E+00 0.  1.
        -11    1    4    4    0    0  0.15193066763E-01  0.31412060488E-01 -0.12095826089E-01  0.36933953912E-01  0.51100000000E-03 0.  1.
         11    1    4    4    0    0  0.61053401354E-01  0.60286667681E-01 -0.37898700076E-01  0.93800707383E-01  0.51100000000E-03 0. -1.
</event>
<event>
 8    1  0.1116841E+005  0.1043930E+01  0.7957747E-01            NaN
         13   -1    0    0    0    0  0.00000000000E+00  0.00000000000E+00  0.74505805969E-08  0.10566000000E+00  0.10566000000E+00 0. -1.
     999900   -1    0    0    0    0 -0.00000000000E+00 -0.00000000000E+00 -0.74505805969E-08  0.93827000000E+00  0.93827000000E+00 0.  1.
     999902    2    1    2    0    0  0.29841960092E-02 -0.23696053280E-01  0.68136885756E-03  0.10200370590E+01  0.10197571912E+01 0.  0.
     999903    2    3    3    0    0  0.53972163680E-01  0.97906878635E-01  0.59604643741E-01  0.12826410681E+00  0.20005404397E-01 0.  0.
         14    1    1    2    0    0 -0.29841960092E-02  0.23696053280E-01 -0.68136885756E-03  0.23892941016E-01  0.00000000000E+00 0.  1.
     999901    1    3    3    0    0 -0.50987967670E-01 -0.12160293192E+00 -0.58923274883E-01  0.89177295217E+00  0.88000000000E+00 0. -1.
        -11    1    4    4    0    0  0.43037159820E-01  0.76360739402E-01  0.55506343598E-01  0.10375150576E+00  0.51100000000E-03 0. -1.
         11    1    4    4    0    0  0.10935003860E-01  0.21546139233E-01  0.40983001430E-02  0.24512601052E-01  0.51100000000E-03 0.  1.
</event>
<event>
 8    1  0.1116841E+005  0.1043930E+01  0.7957747E-01            NaN
         13   -1    0    0    0    0  0.00000000000E+00  0.00000000000E+00  0.74505805969E-08  0.10566000000E+00  0.10566000000E+00 0. -1.
     999900   -1    0    0    0    0 -0.00000000000E+00 -0.00000000000E+00 -0.74505805969E-08  0.93827000000E+00  0.93827000000E+00 0.  1.
     999902    2    1    2    0    0 -0.32297442310E-02  0.16274929626E-01  0.15671382950E-01  0.10211068358E+01  0.10208517391E+01 0.  0.
     999903    2    3    3    0    0 -0.46190415161E-01  0.11124105637E+00  0.54410264390E-01  0.13410915515E+00  0.22730190298E-01 0.  0.
         14    1    1    2    0    0  0.32297442310E-02 -0.16274929626E-01 -0.15671382950E-01  0.22823164235E-01  0.00000000000E+00 0.  1.
     999901    1    3    3    0    0  0.42960670930E-01 -0.94966126739E-01 -0.38738881440E-01  0.88699768061E+00  0.88000000000E+00 0.  1.
        -11    1    4    4    0    0 -0.13239765926E-01  0.54336061211E-01  0.17004112080E-01  0.58455965464E-01  0.51100000000E-03 0. -1.
         11    1    4    4    0    0 -0.32950649236E-01  0.56904995154E-01  0.37406152310E-01  0.75653189689E-01  0.51100000000E-03 0.  1.
</event>
<event>
 8    1  0.1116841E+005  0.1043930E+01  0.7957747E-01            NaN
         13   -1    0    0    0    0  0.00000000000E+00  0.00000000000E+00  0.74505805969E-08  0.10566000000E+00  0.10566000000E+00 0. -1.
     999900   -1    0    0    0    0 -0.00000000000E+00 -0.00000000000E+00 -0.74505805969E-08  0.93827000000E+00  0.93827000000E+00 0.  1.
     999902    2    1    2    0    0 -0.83114351146E-02 -0.95607493463E-02  0.20257422416E-01  0.10200375107E+01  0.10197576537E+01 0.  0.
     999903    2    3    3    0    0  0.18525071832E-01  0.76982420333E-01 -0.97883458467E-01  0.12753138408E+00  0.20337432434E-01 0.  0.
         14    1    1    2    0    0  0.83114351146E-02  0.95607493463E-02 -0.20257422416E-01  0.23892489294E-01  0.00000000000E+00 0.  1.
     999901    1    3    3    0    0 -0.26836506946E-01 -0.86543169679E-01  0.11814088088E+00  0.89250612662E+00  0.88000000000E+00 0. -1.
        -11    1    4    4    0    0  0.13821732753E-01  0.22746333034E-01 -0.24670692648E-01  0.36295180940E-01  0.51100000000E-03 0.  1.
         11    1    4    4    0    0  0.47033390790E-02  0.54236087299E-01 -0.73212765819E-01  0.91236203143E-01  0.51100000000E-03 0. -1.
</event>
<event>
 8    1  0.1116841E+005  0.1043930E+01  0.7957747E-01            NaN
         13   -1    0    0    0    0  0.00000000000E+00  0.00000000000E+00  0.74505805969E-08  0.10566000000E+00  0.10566000000E+00 0. -1.
     999900   -1    0    0    0    0 -0.00000000000E+00 -0.00000000000E+00 -0.74505805969E-08  0.93827000000E+00  0.93827000000E+00 0. -1.
     999902    2    1    2    0    0  0.19363969772E-01  0.47921053503E-02  0.15214634131E-01  0.10188419014E+01  0.10185329682E+01 0.  0.
     999903    2    3    3    0    0  0.27191285559E-01  0.41996899478E-01 -0.11635052489E+00  0.12824948361E+00  0.20183652469E-01 0.  0.
         14    1    1    2    0    0 -0.19363969772E-01 -0.47921053503E-02 -0.15214634131E-01  0.25088098588E-01  0.00000000000E+00 0.  1.
     999901    1    3    3    0    0 -0.78273157870E-02 -0.37204794128E-01  0.13156515902E+00  0.89059241780E+00  0.88000000000E+00 0.  1.
        -11    1    4    4    0    0  0.15423842404E-01  0.69410407839E-02 -0.34109665263E-01  0.38076283262E-01  0.51100000000E-03 0. -1.
         11    1    4    4    0    0  0.11767443155E-01  0.35055858694E-01 -0.82240859630E-01  0.90173200347E-01  0.51100000000E-03 0.  1.
</event>
<event>
 8    1  0.1323724E+005  0.1043930E+01  0.7957747E-01            NaN
         13   -1    0    0    0    0  0.00000000000E+00  0.00000000000E+00  0.74505805969E-08  0.10566000000E+00  0.10566000000E+00 0.  1.
     999900   -1    0    0    0    0 -0.00000000000E+00 -0.00000000000E+00 -0.74505805969E-08  0.93827000000E+00  0.93827000000E+00 0. -1.
     999902    2    1    2    0    0  0.20471014902E-01 -0.15192003844E-01 -0.20190365489E-02  0.10183578288E+01  0.10180367044E+01 0.  0.
     999903    2    3    3    0    0 -0.37879667176E-01 -0.89214505074E-01  0.81706075050E-01  0.12937299928E+00  0.25833953263E-01 0.  0.
         14    1    1    2    0    0 -0.20471014902E-01  0.15192003844E-01  0.20190365489E-02  0.25572171212E-01  0.00000000000E+00 0. -1.
     999901    1    3    3    0    0  0.58350682078E-01  0.74022501230E-01 -0.83725111599E-01  0.88898482951E+00  0.88000000000E+00 0.  1.
        -11    1    4    4    0    0 -0.23465532257E-01 -0.58051891618E-01  0.67893838678E-01  0.92360639755E-01  0.51100000000E-03 0. -1.
         11    1    4    4    0    0 -0.14414134920E-01 -0.31162613455E-01  0.13812236372E-01  0.37012359523E-01  0.51100000000E-03 0.  1.
</event>
<event>
 8    1  0.1116841E+005  0.1043930E+01  0.7957747E-01            NaN
         13   -1    0    0    0    0  0.00000000000E+00  0.00000000000E+00  0.74505805969E-08  0.10566000000E+00  0.10566000000E+00 0.  1.
     999900   -1    0    0    0    0 -0.00000000000E+00 -0.00000000000E+00 -0.74505805969E-08  0.93827000000E+00  0.93827000000E+00 0.  1.
     999902    2    1    2    0    0  0.20148697463E-01  0.89634937052E-02 -0.97855813491E-02  0.10198038351E+01  0.10195184110E+01 0.  0.
     999903    2    3    3    0    0  0.98111938230E-01 -0.71363902570E-01  0.45142023979E-01  0.13101375906E+00  0.20200092078E-01 0.  0.
         14    1    1    2    0    0 -0.20148697463E-01 -0.89634937052E-02  0.97855813491E-02  0.24126164868E-01  0.00000000000E+00 0. -1.
     999901    1    3    3    0    0 -0.77963240767E-01  0.80327396276E-01 -0.54927605328E-01  0.88879007608E+00  0.88000000000E+00 0.  1.
        -11    1    4    4    0    0  0.74299747760E-01 -0.42698054713E-01  0.30232174243E-01  0.90872558421E-01  0.51100000000E-03 0. -1.
         11    1    4    4    0    0  0.23812190470E-01 -0.28665847857E-01  0.14909849736E-01  0.40141200636E-01  0.51100000000E-03 0.  1.
</event>
<event>
 8    1  0.1116841E+005  0.1043930E+01  0.7957747E-01            NaN
         13   -1    0    0    0    0  0.00000000000E+00  0.00000000000E+00  0.74505805969E-08  0.10566000000E+00  0.10566000000E+00 0. -1.
     999900   -1    0    0    0    0 -0.00000000000E+00 -0.00000000000E+00 -0.74505805969E-08  0.93827000000E+00  0.93827000000E+00 0. -1.
     999902    2    1    2    0    0  0.72666199058E-02  0.14105214334E-01  0.15908895631E-01  0.10214610482E+01  0.10212138949E+01 0.  0.
     999903    2    3    3    0    0 -0.12924159131E-01  0.72695250718E-01 -0.10613917307E+00  0.13087910865E+00  0.20302306613E-01 0.  0.
         14    1    1    2    0    0 -0.72666199058E-02 -0.14105214334E-01 -0.15908895631E-01  0.22468951833E-01  0.00000000000E+00 0.  1.
     999901    1    3    3    0    0  0.20190779037E-01 -0.58590036385E-01  0.12204806870E+00  0.89058193952E+00  0.88000000000E+00 0.  1.
        -11    1    4    4    0    0  0.20130417371E-02  0.33663467852E-01 -0.58307919714E-01  0.67359899252E-01  0.51100000000E-03 0.  1.
         11    1    4    4    0    0 -0.14937200868E-01  0.39031782866E-01 -0.47831253360E-01  0.63519209397E-01  0.51100000000E-03 0. -1.
</event>
<event>
 8    1  0.1116841E+005  0.1043930E+01  0.7957747E-01            NaN
         13   -1    0    0    0    0  0.00000000000E+00  0.00000000000E+00  0.74505805969E-08  0.10566000000E+00  0.10566000000E+00 0. -1.
     999900   -1    0    0    0    0 -0.00000000000E+00 -0.00000000000E+00 -0.74505805969E-08  0.93827000000E+00  0.93827000000E+00 0. -1.
     999902    2    1    2    0    0 -0.11945943022E-01  0.19679935346E-01 -0.28151486558E-02  0.10207366718E+01  0.10204731367E+01 0.  0.
     999903    2    3    3    0    0 -0.64105840594E-01 -0.54209233556E-01  0.96679996224E-01  0.13052346812E+00  0.25321024052E-01 0.  0.
         14    1    1    2    0    0  0.11945943022E-01 -0.19679935346E-01  0.28151486558E-02  0.23193328176E-01  0.00000000000E+00 0.  1.
     999901    1    3    3    0    0  0.52159897571E-01  0.73889168902E-01 -0.99495144880E-01  0.89021320370E+00  0.88000000000E+00 0. -1.
        -11    1    4    4    0    0 -0.64047239573E-01 -0.44557801952E-01  0.85971878080E-01  0.11609854243E+00  0.51100000000E-03 0. -1.
         11    1    4    4    0    0 -0.58601020652E-04 -0.96514316039E-02  0.10708118144E-01  0.14424925694E-01  0.51100000000E-03 0.  1.
</event>
<event>
 8    1  0.1116841E+005  0.1043930E+01  0.7957747E-01            NaN
         13   -1    0    0    0    0  0.00000000000E+00  0.00000000000E+00  0.74505805969E-08  0.10566000000E+00  0.10566000000E+00 0. -1.
     999900   -1    0    0    0    0 -0.00000000000E+00 -0.00000000000E+00 -0.74505805969E-08  0.93827000000E+00  0.93827000000E+00 0. -1.
     999902    2    1    2    0    0 -0.53162766365E-02 -0.20098187836E-01 -0.13833657611E-01  0.10189586157E+01  0.10186525857E+01 0.  0.
     999903    2    3    3    0    0  0.30479291505E-01 -0.22924446666E-01  0.12057973156E+00  0.12802861303E+00  0.19933304436E-01 0.  0.
         14    1    1    2    0    0  0.53162766365E-02  0.20098187836E-01  0.13833657611E-01  0.24971384312E-01  0.00000000000E+00 0. -1.
     999901    1    3    3    0    0 -0.35795568142E-01  0.28262588297E-02 -0.13441338918E+00  0.89093000265E+00  0.88000000000E+00 0. -1.
        -11    1    4    4    0    0  0.54867642896E-02 -0.14976306330E-01  0.33926035238E-01  0.37491750047E-01  0.51100000000E-03 0. -1.
         11    1    4    4    0    0  0.24992527216E-01 -0.79481403359E-02  0.86653696327E-01  0.90536862987E-01  0.51100000000E-03 0.  1.
</event>
<event>
 8    1  0.1116841E+005  0.1043930E+01  0.7957747E-01            NaN
         13   -1    0    0    0    0  0.00000000000E+00  0.00000000000E+00  0.74505805969E-08  0.10566000000E+00  0.10566000000E+00 0.  1.
     999900   -1    0    0    0    0 -0.00000000000E+00 -0.00000000000E+00 -0.74505805969E-08  0.93827000000E+00  0.93827000000E+00 0.  1.
     999902    2    1    2    0    0  0.11181024591E-01  0.67475135286E-02  0.18254513948E-01  0.10214851447E+01  0.10212385271E+01 0.  0.
     999903    2    3    3    0    0  0.46975784519E-01  0.70751702090E-01 -0.97665059107E-01  0.13085887718E+00  0.19314613281E-01 0.  0.
         14    1    1    2    0    0 -0.11181024591E-01 -0.67475135286E-02 -0.18254513948E-01  0.22444855295E-01  0.00000000000E+00 0.  1.
     999901    1    3    3    0    0 -0.35794759928E-01 -0.64004188561E-01  0.11591957305E+00  0.89062626753E+00  0.88000000000E+00 0.  1.
        -11    1    4    4    0    0  0.45761803579E-01  0.56171519814E-01 -0.81511718758E-01  0.10905871685E+00  0.51100000000E-03 0.  1.
         11    1    4    4    0    0  0.12139809401E-02  0.14580182276E-01 -0.16153340349E-01  0.21800160328E-01  0.51100000000E-03 0. -1.
</event>
<event>
 8    1  0.1116841E+005  0.1043930E+01  0.7957747E-01            NaN
         13   -1    0    0    0    0  0.00000000000E+00  0.00000000000E+00  0.74505805969E-08  0.10566000000E+00  0.10566000000E+00 0. -1.
     999900   -1    0    0    0    0 -0.00000000000E+00 -0.00000000000E+00 -0.74505805969E-08  0.93827000000E+00  0.93827000000E+00 0. -1.
     999902    2    1    2    0    0  0.21554311536E-01  0.68353960162E-02  0.66108832887E-02  0.10203712487E+01  0.10200992454E+01 0.  0.
     999903    2    3    3    0    0  0.12476607904E+00 -0.40528090559E-01 -0.91320703861E-02  0.13293459779E+00  0.19470798055E-01 0.  0.
         14    1    1    2    0    0 -0.21554311536E-01 -0.68353960162E-02 -0.66108832887E-02  0.23558751290E-01  0.00000000000E+00 0. -1.
     999901    1    3    3    0    0 -0.10321176750E+00  0.47363486575E-01  0.15742953675E-01  0.88743665092E+00  0.88000000000E+00 0.  1.
        -11    1    4    4    0    0  0.74361260948E-01 -0.15274833944E-01 -0.98408086724E-02  0.76550769546E-01  0.51100000000E-03 0. -1.
         11    1    4    4    0    0  0.50404818088E-01 -0.25253256615E-01  0.70873828630E-03  0.56383828241E-01  0.51100000000E-03 0.  1.
</event>
<event>
 8    1  0.1116841E+005  0.1043930E+01  0.7957747E-01            NaN
         13   -1    0    0    0    0  0.00000000000E+00  0.00000000000E+00  0.74505805969E-08  0.10566000000E+00  0.10566000000E+00 0. -1.
     999900   -1    0    0    0    0 -0.00000000000E+00 -0.00000000000E+00 -0.74505805969E-08  0.93827000000E+00  0.93827000000E+00 0. -1.
     999902    2    1    2    0    0  0.16627131341E-01 -0.12762856168E-01 -0.16426943900E-01  0.10172992569E+01  0.10169506289E+01 0.  0.
     999903    2    3    3    0    0 -0.10340187782E+00  0.10773851771E-01  0.66676705397E-01  0.12496122888E+00  0.19013191784E-01 0.  0.
         14    1    1    2    0    0 -0.16627131341E-01  0.12762856168E-01  0.16426943900E-01  0.26630743138E-01  0.00000000000E+00 0. -1.
     999901    1    3    3    0    0  0.12002900916E+00 -0.23536707938E-01 -0.83103649298E-01  0.89233802798E+00  0.88000000000E+00 0. -1.
        -11    1    4    4    0    0 -0.56176142580E-01  0.13950256821E-01  0.30818844655E-01  0.65577671256E-01  0.51100000000E-03 0.  1.
         11    1    4    4    0    0 -0.47225735238E-01 -0.31764050501E-02  0.35857860742E-01  0.59383557621E-01  0.51100000000E-03 0. -1.
</event>
<event>
 8    1  0.1116841E+005  0.1043930E+01  0.7957747E-01            NaN
         13   -1    0    0    0    0  0.00000000000E+00  0.00000000000E+00  0.74505805969E-08  0.10566000000E+00  0.10566000000E+00 0.  1.
     999900   -1    0    0    0    0 -0.00000000000E+00 -0.00000000000E+00 -0.74505805969E-08  0.93827000000E+00  0.93827000000E+00 0. -1.
     999902    2    1    2    0    0  0.19188433789E-01  0.13937988996E-01  0.56323754436E-03  0.10202069992E+01  0.10199311450E+01 0.  0.
     999903    2    3    3    0    0  0.97632214300E-01 -0.62427346814E-01 -0.58611559965E-01  0.13145126909E+00  0.20369052130E-01 0.  0.
         14    1    1    2    0    0 -0.19188433789E-01 -0.13937988996E-01 -0.56323754436E-03  0.23723000760E-01  0.00000000000E+00 0. -1.
     999901    1    3    3    0    0 -0.78443780511E-01  0.76365335810E-01  0.59174797509E-01  0.88875573015E+00  0.88000000000E+00 0.  1.
        -11    1    4    4    0    0  0.37659293183E-01 -0.14677633437E-01 -0.14136505629E-01  0.42822391324E-01  0.51100000000E-03 0. -1.
         11    1    4    4    0    0  0.59972921117E-01 -0.47749713377E-01 -0.44475054336E-01  0.88628877766E-01  0.51100000000E-03 0.  1.
</event>
<event>
 8    1  0.1116841E+005  0.1043930E+01  0.7957747E-01            NaN
         13   -1    0    0    0    0  0.00000000000E+00  0.00000000000E+00  0.74505805969E-08  0.10566000000E+00  0.10566000000E+00 0.  1.
     999900   -1    0    0    0    0 -0.00000000000E+00 -0.00000000000E+00 -0.74505805969E-08  0.93827000000E+00  0.93827000000E+00 0. -1.
     999902    2    1    2    0    0  0.20017605530E-01  0.11264518586E-01 -0.32084283884E-02  0.10207375891E+01  0.10204740751E+01 0.  0.
     999903    2    3    3    0    0  0.34898398025E-01  0.33234857645E-01 -0.12154435602E+00  0.13242034536E+00  0.20968152915E-01 0.  0.
         14    1    1    2    0    0 -0.20017605530E-01 -0.11264518586E-01  0.32084283884E-02  0.23192410889E-01  0.00000000000E+00 0.  1.
     999901    1    3    3    0    0 -0.14880792495E-01 -0.21970339059E-01  0.11833592763E+00  0.88831724375E+00  0.88000000000E+00 0.  1.
        -11    1    4    4    0    0  0.11741599482E-02  0.11622262905E-01 -0.18757519244E-01  0.22103422717E-01  0.51100000000E-03 0. -1.
         11    1    4    4    0    0  0.33724238076E-01  0.21612594740E-01 -0.10278683678E+00  0.11031692264E+00  0.51100000000E-03 0.  1.
</event>
<event>
 8    1  0.1116841E+005  0.1043930E+01  0.7957747E-01            NaN
         13   -1    0    0    0    0  0.00000000000E+00  0.00000000000E+00  0.74505805969E-08  0.10566000000E+00  0.10566000000E+00 0.  1.
     999900   -1    0    0    0    0 -0.00000000000E+00 -0.00000000000E+00 -0.74505805969E-08  0.93827000000E+00  0.93827000000E+00 0. -1.
     999902    2    1    2    0    0  0.18806193266E-01  0.26935415746E-03  0.14101159283E-01  0.10204228064E+01  0.10201520062E+01 0.  0.
     999903    2    3    3    0    0  0.10205031537E+00  0.10777898936E-01 -0.79832140401E-01  0.13145515900E+00  0.19412836329E-01 0.  0.
         14    1    1    2    0    0 -0.18806193266E-01 -0.26935415746E-03 -0.14101159283E-01  0.23507193579E-01  0.00000000000E+00 0. -1.
     999901    1    3    3    0    0 -0.83244122099E-01 -0.10508544779E-01  0.93933299683E-01  0.88896764742E+00  0.88000000000E+00 0. -1.
        -11    1    4    4    0    0  0.52178440328E-01 -0.39639927053E-02 -0.42902192121E-01  0.67669506301E-01  0.51100000000E-03 0.  1.
         11    1    4    4    0    0  0.49871875038E-01  0.14741891642E-01 -0.36929948279E-01  0.63785652696E-01  0.51100000000E-03 0. -1.
</event>
<event>
 8    1  0.1116841E+005  0.1043930E+01  0.7957747E-01            NaN
         13   -1    0    0    0    0  0.00000000000E+00  0.00000000000E+00  0.74505805969E-08  0.10566000000E+00  0.10566000000E+00 0. -1.
     999900   -1    0    0    0    0 -0.00000000000E+00 -0.00000000000E+00 -0.74505805969E-08  0.93827000000E+00  0.93827000000E+00 0.  1.
     999902    2    1    2    0    0  0.11525748746E-01  0.11037211272E-01  0.19267271304E-01  0.10189121931E+01  0.10186050101E+01 0.  0.
     999903    2    3    3    0    0 -0.11788069138E+00  0.29688159566E-01  0.37736812081E-01  0.12906107719E+00  0.21341284840E-01 0.  0.
         14    1    1    2    0    0 -0.11525748746E-01 -0.11037211272E-01 -0.19267271304E-01  0.25017806865E-01  0.00000000000E+00 0.  1.
     999901    1    3    3    0    0  0.12940644013E+00 -0.18650948294E-01 -0.18469540777E-01  0.88985111595E+00  0.88000000000E+00 0. -1.
        -11    1    4    4    0    0 -0.16617164211E-01 -0.26949947351E-02  0.81139374678E-02  0.18694658201E-01  0.51100000000E-03 0. -1.
         11    1    4    4    0    0 -0.10126352717E+00  0.32383154301E-01  0.29622874614E-01  0.11036641898E+00  0.51100000000E-03 0.  1.
</event>
<event>
 8    1  0.1116841E+005  0.1043930E+01  0.7957747E-01            NaN
         13   -1    0    0    0    0  0.00000000000E+00  0.00000000000E+00  0.74505805969E-08  0.10566000000E+00  0.10566000000E+00 0. -1.
     999900   -1    0    0    0    0 -0.00000000000E+00 -0.00000000000E+00 -0.74505805969E-08  0.93827000000E+00  0.93827000000E+00 0.  1.
     999902    2    1    2    0    0 -0.54434024092E-02 -0.17220626441E-01 -0.14363121496E-01  0.10208544748E+01  0.10205936404E+01 0.  0.
     999903    2    3    3    0    0 -0.12570038033E+00 -0.16396427086E-01 -0.32888656270E-01  0.13248202165E+00  0.20009845417E-01 0.  0.
         14    1    1    2    0    0  0.54434024092E-02  0.17220626441E-01  0.14363121496E-01  0.23075525214E-01  0.00000000000E+00 0. -1.
     999901    1    3    3    0    0  0.12025697792E+00 -0.82419935568E-03  0.18525534775E-01  0.88837245313E+00  0.88000000000E+00 0. -1.
        -11    1    4    4    0    0 -0.36926199545E-01 -0.35019878659E-02 -0.19091651564E-01  0.41720024116E-01  0.51100000000E-03 0.  1.
         11    1    4    4    0    0 -0.88774180788E-01 -0.12894439220E-01 -0.13797004706E-01  0.90761997538E-01  0.51100000000E-03 0. -1.
</event>
<event>
 8    1  0.1116841E+005  0.1043930E+01  0.7957747E-01            NaN
         13   -1    0    0    0    0  0.00000000000E+00  0.00000000000E+00  0.74505805969E-08  0.10566000000E+00  0.10566000000E+00 0.  1.
     999900   -1    0    0    0    0 -0.00000000000E+00 -0.00000000000E+00 -0.74505805969E-08  0.93827000000E+00  0.93827000000E+00 0. -1.
     999902    2    1    2    0    0  0.13963349630E-01 -0.25800599169E-01  0.35226583151E-03  0.10145911155E+01  0.10141668312E+01 0.  0.
     999903    2    3    3    0    0  0.10443675988E+00  0.49175286584E-01 -0.45363787082E-01  0.12560473831E+00  0.19835107307E-01 0.  0.
         14    1    1    2    0    0 -0.13963349630E-01  0.25800599169E-01 -0.35226583151E-03  0.29338884464E-01  0.00000000000E+00 0.  1.
     999901    1    3    3    0    0 -0.90473410250E-01 -0.74975885753E-01  0.45716052913E-01  0.88898637723E+00  0.88000000000E+00 0.  1.
        -11    1    4    4    0    0  0.84044763855E-01  0.30415910707E-01 -0.35889445262E-01  0.96316994127E-01  0.51100000000E-03 0.  1.
         11    1    4    4    0    0  0.20391996024E-01  0.18759375877E-01 -0.94743418199E-02  0.29287744179E-01  0.51100000000E-03 0. -1.
</event>
<event>
 8    1  0.1116841E+005  0.1043930E+01  0.7957747E-01            NaN
         13   -1    0    0    0    0  0.00000000000E+00  0.00000000000E+00  0.74505805969E-08  0.10566000000E+00  0.10566000000E+00 0.  1.
     999900   -1    0    0    0    0 -0.00000000000E+00 -0.00000000000E+00 -0.74505805969E-08  0.93827000000E+00  0.93827000000E+00 0. -1.
     999902    2    1    2    0    0 -0.78307167279E-02  0.12357616194E-01 -0.17978970002E-01  0.10207508248E+01  0.10204876149E+01 0.  0.
     999903    2    3    3    0    0  0.36119643095E-01  0.80768958526E-01  0.93350557404E-01  0.13001741371E+00  0.19024931576E-01 0.  0.
         14    1    1    2    0    0  0.78307167279E-02 -0.12357616194E-01  0.17978970002E-01  0.23179175240E-01  0.00000000000E+00 0.  1.
     999901    1    3    3    0    0 -0.43950359822E-01 -0.68411342331E-01 -0.11132952741E+00  0.89073341105E+00  0.88000000000E+00 0. -1.
        -11    1    4    4    0    0  0.99617661032E-02  0.23646193769E-01  0.40344857990E-01  0.47815770943E-01  0.51100000000E-03 0.  1.
         11    1    4    4    0    0  0.26157876991E-01  0.57122764757E-01  0.53005699415E-01  0.82201642767E-01  0.51100000000E-03 0. -1.
</event>
<event>
 7    1  0.1452639E+005  0.1043930E+01  0.7957747E-01            NaN
         13   -1    0    0    0    0  0.00000000000E+00  0.00000000000E+00  0.74505805969E-08  0.10566000000E+00  0.10566000000E+00 0.  1.
     999900   -1    0    0    0    0 -0.00000000000E+00 -0.00000000000E+00 -0.74505805969E-08  0.93827000000E+00  0.93827000000E+00 0.  1.
     999903    2    1    2    0    0 -0.23998830019E-01  0.22005267369E-01 -0.10046233463E+00  0.10780050000E+00  0.21635422067E-01 0.  0.
         14    1    1    2    0    0  0.45265769382E-01  0.52493203101E-03 -0.15789609988E-01  0.47943479379E-01  0.00000000000E+00 0. -1.
     999901    1    1    2    0    0 -0.21266939363E-01 -0.22530199400E-01  0.11625194461E+00  0.88818602062E+00  0.88000000000E+00 0. -1.
        -11    1    3    3    0    0 -0.81968977148E-02  0.19553280584E-01 -0.40209889719E-01  0.45460051320E-01  0.51100000000E-03 0. -1.
         11    1    3    3    0    0 -0.15801932304E-01  0.24519867851E-02 -0.60252444907E-01  0.62340448683E-01  0.51100000000E-03 0.  1.
</event>
<event>
 7    1  0.1116841E+005  0.1043930E+01  0.7957747E-01            NaN
         13   -1    0    0    0    0  0.00000000000E+00  0.00000000000E+00  0.74505805969E-08  0.10566000000E+00  0.10566000000E+00 0.  1.
     999900   -1    0    0    0    0 -0.00000000000E+00 -0.00000000000E+00 -0.74505805969E-08  0.93827000000E+00  0.93827000000E+00 0.  1.
     999902    2    1    2    0    0 -0.61945011956E-02  0.13237098344E-01 -0.18648749595E-01  0.10202367841E+01  0.10199616302E+01 0.  0.
         14    1    1    2    0    0  0.61945011956E-02 -0.13237098344E-01  0.18648749595E-01  0.23693215887E-01  0.00000000000E+00 0.  1.
     999901    1    3    3    0    0  0.11288977936E+00  0.41758711758E-01  0.11074540505E-01  0.88826265132E+00  0.88000000000E+00 0. -1.
        -11    1    3    3    0    0 -0.35540643374E-01  0.58279903827E-02  0.24061863904E-02  0.36099219621E-01  0.51100000000E-03 0. -1.
         11    1    3    3    0    0 -0.83543637180E-01 -0.34349603796E-01 -0.32129476490E-01  0.95874913167E-01  0.51100000000E-03 0.  1.
</event>
<event>
 8    1  0.1116841E+005  0.1043930E+01  0.7957747E-01            NaN
         13   -1    0    0    0    0  0.00000000000E+00  0.00000000000E+00  0.74505805969E-08  0.10566000000E+00  0.10566000000E+00 0.  1.
     999900   -1    0    0    0    0 -0.00000000000E+00 -0.00000000000E+00 -0.74505805969E-08  0.93827000000E+00  0.93827000000E+00 0.  1.
     999902    2    1    2    0    0  0.53400996704E-02 -0.21485022596E-01 -0.85505216450E-02  0.10201974426E+01  0.10199213634E+01 0.  0.
     999903    2    3    3    0    0 -0.33001498980E-01  0.75178565076E-01  0.96089111187E-01  0.12791756491E+00  0.19719800758E-01 0.  0.
         14    1    1    2    0    0 -0.53400996704E-02  0.21485022596E-01  0.85505216450E-02  0.23732557402E-01  0.00000000000E+00 0. -1.
     999901    1    3    3    0    0  0.38341598650E-01 -0.96663587672E-01 -0.10463963283E+00  0.89227987769E+00  0.88000000000E+00 0.  1.
        -11    1    4    4    0    0 -0.15954361114E-01  0.34948578953E-01  0.59989458191E-01  0.71238620316E-01  0.51100000000E-03 0.  1.
         11    1    4    4    0    0 -0.17047137866E-01  0.40229986124E-01  0.36099652996E-01  0.56678944594E-01  0.51100000000E-03 0. -1.
</event>
<event>
 8    1  0.1116841E+005  0.1043930E+01  0.7957747E-01            NaN
         13   -1    0    0    0    0  0.00000000000E+00  0.00000000000E+00  0.74505805969E-08  0.10566000000E+00  0.10566000000E+00 0.  1.
     999900   -1    0    0    0    0 -0.00000000000E+00 -0.00000000000E+00 -0.74505805969E-08  0.93827000000E+00  0.93827000000E+00 0. -1.
     999902    2    1    2    0    0  0.93488925987E-02 -0.21508928186E-01  0.16663805125E-02  0.10204180327E+01  0.10201471211E+01 0.  0.
     999903    2    3    3    0    0  0.89867145010E-01  0.84074324707E-01  0.37046420089E-01  0.12975380890E+00  0.17861070982E-01 0.  0.
         14    1    1    2    0    0 -0.93488925987E-02  0.21508928186E-01 -0.16663805125E-02  0.23511967348E-01  0.00000000000E+00 0.  1.
     999901    1    3    3    0    0 -0.80518252411E-01 -0.10558325289E+00 -0.35380039577E-01  0.89066422375E+00  0.88000000000E+00 0. -1.
        -11    1    4    4    0    0  0.39857300267E-01  0.39702293074E-01  0.78752406226E-02  0.56808071572E-01  0.51100000000E-03 0.  1.
         11    1    4    4    0    0  0.50009844743E-01  0.44372031634E-01  0.29171179467E-01  0.72945737333E-01  0.51100000000E-03 0. -1.
</event>
<event>
 8    1  0.1116841E+005  0.1043930E+01  0.7957747E-01            NaN
         13   -1    0    0    0    0  0.00000000000E+00  0.00000000000E+00  0.74505805969E-08  0.10566000000E+00  0.10566000000E+00 0. -1.
     999900   -1    0    0    0    0 -0.00000000000E+00 -0.00000000000E+00 -0.74505805969E-08  0.93827000000E+00  0.93827000000E+00 0.  1.
     999902    2    1    2    0    0 -0.11052787140E-01  0.12154483224E-01  0.16063866600E-01  0.10209529816E+01  0.10206943946E+01 0.  0.
     999903    2    3    3    0    0 -0.46117565817E-01  0.61702075786E-01 -0.10396766124E+00  0.13073274460E+00  0.18649393917E-01 0.  0.
         14    1    1    2    0    0  0.11052787140E-01 -0.12154483224E-01 -0.16063866600E-01  0.22977018435E-01  0.00000000000E+00 0.  1.
     999901    1    3    3    0    0  0.35064778677E-01 -0.49547592561E-01  0.12003152784E+00  0.89022023697E+00  0.88000000000E+00 0. -1.
        -11    1    4    4    0    0 -0.23468387419E-01  0.36074762744E-01 -0.72176892593E-01  0.84035222738E-01  0.51100000000E-03 0.  1.
         11    1    4    4    0    0 -0.22649178398E-01  0.25627313042E-01 -0.31790768645E-01  0.46697521860E-01  0.51100000000E-03 0. -1.
</event>
<event>
 8    1  0.1116841E+005  0.1043930E+01  0.7957747E-01            NaN
         13   -1    0    0    0    0  0.00000000000E+00  0.00000000000E+00  0.74505805969E-08  0.10566000000E+00  0.10566000000E+00 0. -1.
     999900   -1    0    0    0    0 -0.00000000000E+00 -0.00000000000E+00 -0.74505805969E-08  0.93827000000E+00  0.93827000000E+00 0.  1.
     999902    2    1    2    0    0 -0.22022976177E-01  0.78285515511E-02  0.75679311589E-02  0.10193623123E+01  0.10190662159E+01 0.  0.
     999903    2    3    3    0    0  0.20773062703E-01  0.21102314531E-02 -0.12496244010E+00  0.12839177434E+00  0.20805361575E-01 0.  0.
         14    1    1    2    0    0  0.22022976177E-01 -0.78285515511E-02 -0.75679311589E-02  0.24567687745E-01  0.00000000000E+00 0.  1.
     999901    1    3    3    0    0 -0.42796038880E-01  0.57183200980E-02  0.13253037126E+00  0.89097053792E+00  0.88000000000E+00 0. -1.
        -11    1    4    4    0    0  0.54253753295E-02  0.97673621924E-02 -0.33049077826E-01  0.34890381594E-01  0.51100000000E-03 0. -1.
         11    1    4    4    0    0  0.15347687373E-01 -0.76571307392E-02 -0.91913362278E-01  0.93501392744E-01  0.51100000000E-03 0.  1.
</event>
<event>
 8    1  0.1116841E+005  0.1043930E+01  0.7957747E-01            NaN
         13   -1    0    0    0    0  0.00000000000E+00  0.00000000000E+00  0.74505805969E-08  0.10566000000E+00  0.10566000000E+00 0.  1.
     999900   -1    0    0    0    0 -0.00000000000E+00 -0.00000000000E+00 -0.74505805969E-08  0.93827000000E+00  0.93827000000E+00 0.  1.
     999902    2    1    2    0    0 -0.16684153670E-01  0.16886177034E-01  0.27405151239E-02  0.10200340928E+01  0.10197541547E+01 0.  0.
     999903    2    3    3    0    0 -0.10430004982E+00 -0.70485938806E-01  0.30170681646E-01  0.13095431801E+00  0.19798874019E-01 0.  0.
         14    1    1    2    0    0  0.16684153670E-01 -0.16886177034E-01 -0.27405151239E-02  0.23895907216E-01  0.00000000000E+00 0.  1.
     999901    1    3    3    0    0  0.87615896147E-01  0.87372115839E-01 -0.27430166522E-01  0.88907977478E+00  0.88000000000E+00 0. -1.
        -11    1    4    4    0    0 -0.44404064493E-01 -0.20809980934E-01  0.17737309335E-01  0.52150258997E-01  0.51100000000E-03 0.  1.
         11    1    4    4    0    0 -0.59895985324E-01 -0.49675957871E-01  0.12433372311E-01  0.78804059010E-01  0.51100000000E-03 0. -1.
</event>
<event>
 8    1  0.1116841E+005  0.1043930E+01  0.7957747E-01            NaN
         13   -1    0    0    0    0  0.00000000000E+00  0.00000000000E+00  0.74505805969E-08  0.10566000000E+00  0.10566000000E+00 0. -1.
     999900   -1    0    0    0    0 -0.00000000000E+00 -0.00000000000E+00 -0.74505805969E-08  0.93827000000E+00  0.93827000000E+00 0. -1.
     999902    2    1    2    0    0  0.12827493988E-01 -0.19522111321E-01  0.45600310772E-02  0.10201297623E+01  0.10198520876E+01 0.  0.
     999903    2    3    3    0    0  0.43159164013E-01  0.91848939284E-01  0.78067012839E-01  0.12955309657E+00  0.19763735791E-01 0.  0.
         14    1    1    2    0    0 -0.12827493988E-01  0.19522111321E-01 -0.45600310772E-02  0.23800237727E-01  0.00000000000E+00 0. -1.
     999901    1    3    3    0    0 -0.30331670025E-01 -0.11137105060E+00 -0.73506981762E-01  0.89057666570E+00  0.88000000000E+00 0. -1.
        -11    1    4    4    0    0  0.20867458369E-01  0.33503190568E-01  0.19918038438E-01  0.44214296028E-01  0.51100000000E-03 0.  1.
         11    1    4    4    0    0  0.22291705644E-01  0.58345748716E-01  0.58148974401E-01  0.85338800546E-01  0.51100000000E-03 0. -1.
</event>
<event>
 8    1  0.1116841E+005  0.1043930E+01  0.7957747E-01            NaN
         13   -1    0    0    0    0  0.00000000000E+00  0.00000000000E+00  0.74505805969E-08  0.10566000000E+00  0.10566000000E+00 0.  1.
     999900   -1    0    0    0    0 -0.00000000000E+00 -0.00000000000E+00 -0.74505805969E-08  0.93827000000E+00  0.93827000000E+00 0.  1.
     999902    2    1    2    0    0 -0.15778584501E-01 -0.10904285722E-01 -0.14287574213E-01  0.10200134377E+01  0.10197330097E+01 0.  0.
     999903    2    3    3    0    0 -0.28263481785E-01 -0.12741636464E+00 -0.46173931195E-03  0.13213839529E+00  0.20654005076E-01 0.  0.
         14    1    1    2    0    0  0.15778584501E-01  0.10904285722E-01  0.14287574213E-01  0.23916562313E-01  0.00000000000E+00 0.  1.
     999901    1    3    3    0    0  0.12484897284E-01  0.11651207892E+00 -0.13825834901E-01  0.88787504239E+00  0.88000000000E+00 0. -1.
        -11    1    4    4    0    0 -0.24892395646E-01 -0.71824897719E-01 -0.54909091143E-02  0.76215867752E-01  0.51100000000E-03 0. -1.
         11    1    4    4    0    0 -0.33710861393E-02 -0.55591466926E-01  0.50291698024E-02  0.55922527541E-01  0.51100000000E-03 0.  1.
</event>
<event>
 8    1  0.1116841E+005  0.1043930E+01  0.7957747E-01            NaN
         13   -1    0    0    0    0  0.00000000000E+00  0.00000000000E+00  0.74505805969E-08  0.10566000000E+00  0.10566000000E+00 0.  1.
     999900   -1    0    0    0    0 -0.00000000000E+00 -0.00000000000E+00 -0.74505805969E-08  0.93827000000E+00  0.93827000000E+00 0. -1.
     999902    2    1    2    0    0  0.16076563003E-01  0.57215120035E-02 -0.15051793963E-01  0.10211759217E+01  0.10209223844E+01 0.  0.
     999903    2    3    3    0    0 -0.93173217884E-01  0.70444433066E-01  0.52315689790E-01  0.12951289735E+00  0.19824038452E-01 0.  0.
         14    1    1    2    0    0 -0.16076563003E-01 -0.57215120035E-02  0.15051793963E-01  0.22754078296E-01  0.00000000000E+00 0.  1.
     999901    1    3    3    0    0  0.10924978089E+00 -0.64722921063E-01 -0.67367483753E-01  0.89166302436E+00  0.88000000000E+00 0. -1.
        -11    1    4    4    0    0 -0.67120071545E-01  0.45287113942E-01  0.27123646751E-01  0.85393091217E-01  0.51100000000E-03 0.  1.
         11    1    4    4    0    0 -0.26053146339E-01  0.25157319125E-01  0.25192043039E-01  0.44119806132E-01  0.51100000000E-03 0. -1.
</event>
<event>
 8    1  0.1116841E+005  0.1043930E+01  0.7957747E-01            NaN
         13   -1    0    0    0    0  0.00000000000E+00  0.00000000000E+00  0.74505805969E-08  0.10566000000E+00  0.10566000000E+00 0. -1.
     999900   -1    0    0    0    0 -0.00000000000E+00 -0.00000000000E+00 -0.74505805969E-08  0.93827000000E+00  0.93827000000E+00 0.  1.
     999902    2    1    2    0    0  0.17286446825E-01  0.14505871665E-01  0.84578552915E-02  0.10198306873E+01  0.10195459057E+01 0.  0.
     999903    2    3    3    0    0  0.83669013177E-01  0.96069972518E-01 -0.31984973989E-01  0.13264695768E+00  0.18499552270E-01 0.  0.
         14    1    1    2    0    0 -0.17286446825E-01 -0.14505871665E-01 -0.84578552915E-02  0.24099312703E-01  0.00000000000E+00 0.  1.
     999901    1    3    3    0    0 -0.66382566352E-01 -0.81564100853E-01  0.40442829280E-01  0.88718372962E+00  0.88000000000E+00 0. -1.
        -11    1    4    4    0    0  0.67931113495E-01  0.80073482490E-01 -0.18992152801E-01  0.10671158216E+00  0.51100000000E-03 0.  1.
         11    1    4    4    0    0  0.15737899682E-01  0.15996490028E-01 -0.12992821187E-01  0.25935375513E-01  0.51100000000E-03 0. -1.
</event>
<event>
 8    1  0.1116841E+005  0.1043930E+01  0.7957747E-01            NaN
         13   -1    0    0    0    0  0.00000000000E+00  0.00000000000E+00  0.74505805969E-08  0.10566000000E+00  0.10566000000E+00 0. -1.
     999900   -1    0    0    0    0 -0.00000000000E+00 -0.00000000000E+00 -0.74505805969E-08  0.93827000000E+00  0.93827000000E+00 0.  1.
     999902    2    1    2    0    0  0.18199054692E-01 -0.97559859628E-02  0.52174644195E-02  0.10226319534E+01  0.10224101454E+01 0.  0.
     999903    2    3    3    0    0 -0.33537843997E-01  0.63546952472E-01  0.10893348627E+00  0.13201023760E+00  0.19929783031E-01 0.  0.
         14    1    1    2    0    0 -0.18199054692E-01  0.97559859628E-02 -0.52174644195E-02  0.21298046595E-01  0.00000000000E+00 0. -1.
     999901    1    3    3    0    0  0.51736898689E-01 -0.73302938435E-01 -0.10371602185E+00  0.89062171580E+00  0.88000000000E+00 0.  1.
        -11    1    4    4    0    0 -0.25921686859E-01  0.33613313325E-01  0.74540405120E-01  0.85780660984E-01  0.51100000000E-03 0.  1.
         11    1    4    4    0    0 -0.76161571383E-02  0.29933639147E-01  0.34393081154E-01  0.46229576620E-01  0.51100000000E-03 0. -1.
</event>
<event>
 8    1  0.1116841E+005  0.1043930E+01  0.7957747E-01            NaN
         13   -1    0    0    0    0  0.00000000000E+00  0.00000000000E+00  0.74505805969E-08  0.10566000000E+00  0.10566000000E+00 0.  1.
     999900   -1    0    0    0    0 -0.00000000000E+00 -0.00000000000E+00 -0.74505805969E-08  0.93827000000E+00  0.93827000000E+00 0.  1.
     999902    2    1    2    0    0 -0.27222698856E-02 -0.14525139375E-01 -0.18253305747E-01  0.10204443959E+01  0.10201740987E+01 0.  0.
     999903    2    3    3    0    0 -0.22627149794E-01 -0.54622318917E-01  0.11462152630E+00  0.12934411593E+00  0.98091998435E-02 0.  0.
         14    1    1    2    0    0  0.27222698856E-02  0.14525139375E-01  0.18253305747E-01  0.23485604057E-01  0.00000000000E+00 0.  1.
     999901    1    3    3    0    0  0.19904879909E-01  0.40097179542E-01 -0.13287483205E+00  0.89110028002E+00  0.88000000000E+00 0.  1.
        -11    1    4    4    0    0 -0.59461676030E-02 -0.22756996844E-01  0.37896331511E-01  0.44605278584E-01  0.51100000000E-03 0. -1.
         11    1    4    4    0    0 -0.16680982191E-01 -0.31865322073E-01  0.76725194791E-01  0.84738837344E-01  0.51100000000E-03 0.  1.
</event>
<event>
 8    1  0.1116841E+005  0.1043930E+01  0.7957747E-01            NaN
         13   -1    0    0    0    0  0.00000000000E+00  0.00000000000E+00  0.74505805969E-08  0.10566000000E+00  0.10566000000E+00 0.  1.
     999900   -1    0    0    0    0 -0.00000000000E+00 -0.00000000000E+00 -0.74505805969E-08  0.93827000000E+00  0.93827000000E+00 0.  1.
     999902    2    1    2    0    0 -0.17826676591E-01  0.45191709554E-02 -0.14731619879E-01  0.10203665977E+01  0.10200944857E+01 0.  0.
     999903    2    3    3    0    0 -0.92600895037E-01 -0.50163509166E-01  0.75099063271E-01  0.13095615763E+00  0.20453422760E-01 0.  0.
         14    1    1    2    0    0  0.17826676591E-01 -0.45191709554E-02  0.14731619879E-01  0.23563402315E-01  0.00000000000E+00 0.  1.
     999901    1    3    3    0    0  0.74774218446E-01  0.54682680122E-01 -0.89830683150E-01  0.88941044006E+00  0.88000000000E+00 0.  1.
        -11    1    4    4    0    0 -0.34174652673E-01 -0.10716910188E-01  0.17224482142E-01  0.39745477168E-01  0.51100000000E-03 0.  1.
         11    1    4    4    0    0 -0.58426242364E-01 -0.39446598978E-01  0.57874581130E-01  0.91210680458E-01  0.51100000000E-03 0. -1.
</event>
<event>
 8    1  0.1116841E+005  0.1043930E+01  0.7957747E-01            NaN
         13   -1    0    0    0    0  0.00000000000E+00  0.00000000000E+00  0.74505805969E-08  0.10566000000E+00  0.10566000000E+00 0.  1.
     999900   -1    0    0    0    0 -0.00000000000E+00 -0.00000000000E+00 -0.74505805969E-08  0.93827000000E+00  0.93827000000E+00 0.  1.
     999902    2    1    2    0    0  0.61331703276E-02 -0.75347327759E-02  0.21379788692E-01  0.10204463176E+01  0.10201760650E+01 0.  0.
     999903    2    3    3    0    0 -0.66839102848E-01  0.10563878020E+00  0.31191655039E-01  0.13014891253E+00  0.18406589484E-01 0.  0.
         14    1    1    2    0    0 -0.61331703276E-02  0.75347327759E-02 -0.21379788692E-01  0.23483682436E-01  0.00000000000E+00 0. -1.
     999901    1    3    3    0    0  0.72972273176E-01 -0.11317351298E+00 -0.98118663477E-02  0.89029740504E+00  0.88000000000E+00 0.  1.
        -11    1    4    4    0    0 -0.40007709159E-01  0.60512046984E-01  0.88198805988E-02  0.73077876523E-01  0.51100000000E-03 0.  1.
         11    1    4    4    0    0 -0.26831393690E-01  0.45126733216E-01  0.22371774441E-01  0.57071036005E-01  0.51100000000E-03 0. -1.
</event>
<event>
 8    1  0.1116841E+005  0.1043930E+01  0.7957747E-01            NaN
         13   -1    0    0    0    0  0.00000000000E+00  0.00000000000E+00  0.74505805969E-08  0.10566000000E+00  0.10566000000E+00 0.  1.
     999900   -1    0    0    0    0 -0.00000000000E+00 -0.00000000000E+00 -0.74505805969E-08  0.93827000000E+00  0.93827000000E+00 0. -1.
     999902    2    1    2    0    0 -0.35160023813E-02  0.19187805468E-01  0.12329786332E-01  0.10208527865E+01  0.10205919135E+01 0.  0.
     999903    2    3    3    0    0  0.61126405160E-01  0.18196270074E-01 -0.11142658072E+00  0.12984478297E+00  0.19396987413E-01 0.  0.
         14    1    1    2    0    0  0.35160023813E-02 -0.19187805468E-01 -0.12329786332E-01  0.23077213489E-01  0.00000000000E+00 0. -1.
     999901    1    3    3    0    0 -0.64642407541E-01  0.99153539382E-03  0.12375636705E+00  0.89100800354E+00  0.88000000000E+00 0. -1.
        -11    1    4    4    0    0  0.40573323564E-01  0.19412273257E-01 -0.64903223395E-01  0.78966578159E-01  0.51100000000E-03 0. -1.
         11    1    4    4    0    0  0.20553081596E-01 -0.12160031838E-02 -0.46523357323E-01  0.50878204807E-01  0.51100000000E-03 0.  1.
</event>
<event>
 8    1  0.1116841E+005  0.1043930E+01  0.7957747E-01            NaN
         13   -1    0    0    0    0  0.00000000000E+00  0.00000000000E+00  0.74505805969E-08  0.10566000000E+00  0.10566000000E+00 0.  1.
     999900   -1    0    0    0    0 -0.00000000000E+00 -0.00000000000E+00 -0.74505805969E-08  0.93827000000E+00  0.93827000000E+00 0.  1.
     999902    2    1    2    0    0 -0.12170128471E-01 -0.20163832262E-02 -0.20147255403E-01  0.10203060772E+01  0.10200325492E+01 0.  0.
     999903    2    3    3    0    0 -0.56700536551E-01 -0.10620175025E+00  0.46411110906E-01  0.13054905190E+00  0.19882181335E-01 0.  0.
         14    1    1    2    0    0  0.12170128471E-01  0.20163832262E-02  0.20147255403E-01  0.23623922803E-01  0.00000000000E+00 0.  1.
     999901    1    3    3    0    0  0.44530408080E-01  0.10418536702E+00 -0.66558366309E-01  0.88975702530E+00  0.88000000000E+00 0.  1.
        -11    1    4    4    0    0 -0.17083273753E-01 -0.44918945614E-01  0.26608892948E-01  0.54934908957E-01  0.51100000000E-03 0.  1.
         11    1    4    4    0    0 -0.39617262798E-01 -0.61282804635E-01  0.19802217958E-01  0.75614142940E-01  0.51100000000E-03 0. -1.
</event>
<event>
 7    1  0.1116841E+005  0.1043930E+01  0.7957747E-01            NaN
         13   -1    0    0    0    0  0.00000000000E+00  0.00000000000E+00  0.74505805969E-08  0.10566000000E+00  0.10566000000E+00 0. -1.
     999900   -1    0    0    0    0 -0.00000000000E+00 -0.00000000000E+00 -0.74505805969E-08  0.93827000000E+00  0.93827000000E+00 0. -1.
     999903    2    1    2    0    0  0.43153388485E-01  0.55922432847E-01 -0.77539110676E-01  0.10667572519E+00  0.19438704350E-01 0.  0.
         14    1    1    2    0    0 -0.17064826054E-01  0.23588210112E-01  0.43859879920E-01  0.52643147808E-01  0.00000000000E+00 0. -1.
     999901    1    1    2    0    0 -0.26088562431E-01 -0.79510642959E-01  0.33679230757E-01  0.88461112700E+00  0.88000000000E+00 0. -1.
        -11    1    3    3    0    0  0.16192003868E-01  0.93170969154E-02 -0.13762270603E-01  0.23208845239E-01  0.51100000000E-03 0.  1.
         11    1    3    3    0    0  0.26961384617E-01  0.46605335932E-01 -0.63776840073E-01  0.83466879950E-01  0.51100000000E-03 0. -1.
</event>
<event>
 8    1  0.1116841E+005  0.1043930E+01  0.7957747E-01            NaN
         13   -1    0    0    0    0  0.00000000000E+00  0.00000000000E+00  0.74505805969E-08  0.10566000000E+00  0.10566000000E+00 0. -1.
     999900   -1    0    0    0    0 -0.00000000000E+00 -0.00000000000E+00 -0.74505805969E-08  0.93827000000E+00  0.93827000000E+00 0. -1.
     999902    2    1    2    0    0  0.22688189881E-01  0.52122164892E-02 -0.40626197135E-02  0.10202989602E+01  0.10200252655E+01 0.  0.
     999903    2    3    3    0    0 -0.70761570721E-01 -0.14561486283E-01  0.10446468873E+00  0.12850187921E+00  0.19509612839E-01 0.  0.
         14    1    1    2    0    0 -0.22688189881E-01 -0.52122164892E-02  0.40626197135E-02  0.23631039752E-01  0.00000000000E+00 0. -1.
     999901    1    3    3    0    0  0.93449760603E-01  0.19773702772E-01 -0.10852730845E+00  0.89179708104E+00  0.88000000000E+00 0. -1.
        -11    1    4    4    0    0 -0.25752968185E-01 -0.14160958176E-02  0.23281241847E-01  0.34749072515E-01  0.51100000000E-03 0.  1.
         11    1    4    4    0    0 -0.45008602536E-01 -0.13145390465E-01  0.81183446887E-01  0.93752806690E-01  0.51100000000E-03 0. -1.
</event>
<event>
 8    1  0.1116841E+005  0.1043930E+01  0.7957747E-01            NaN
         13   -1    0    0    0    0  0.00000000000E+00  0.00000000000E+00  0.74505805969E-08  0.10566000000E+00  0.10566000000E+00 0.  1.
     999900   -1    0    0    0    0 -0.00000000000E+00 -0.00000000000E+00 -0.74505805969E-08  0.93827000000E+00  0.93827000000E+00 0. -1.
     999902    2    1    2    0    0  0.28256537152E-02  0.11337415662E-01  0.20493614429E-01  0.10203395455E+01  0.10200668010E+01 0.  0.
     999903    2    3    3    0    0 -0.14315438447E-02  0.10947370409E+00  0.73130497541E-01  0.13331108127E+00  0.20910129445E-01 0.  0.
         14    1    1    2    0    0 -0.28256537152E-02 -0.11337415662E-01 -0.20493614429E-01  0.23590454535E-01  0.00000000000E+00 0. -1.
     999901    1    3    3    0    0  0.42571975600E-02 -0.98136288425E-01 -0.52636883112E-01  0.88702846420E+00  0.88000000000E+00 0. -1.
        -11    1    4    4    0    0 -0.81442006012E-03  0.84504851856E-01  0.66296590789E-01  0.10741150934E+00  0.51100000000E-03 0.  1.
         11    1    4    4    0    0 -0.61712378461E-03  0.24968852231E-01  0.68339067516E-02  0.25899571927E-01  0.51100000000E-03 0. -1.
</event>
<event>
 8    1  0.1116841E+005  0.1043930E+01  0.7957747E-01            NaN
         13   -1    0    0    0    0  0.00000000000E+00  0.00000000000E+00  0.74505805969E-08  0.10566000000E+00  0.10566000000E+00 0. -1.
     999900   -1    0    0    0    0 -0.00000000000E+00 -0.00000000000E+00 -0.74505805969E-08  0.93827000000E+00  0.93827000000E+00 0. -1.
     999902    2    1    2    0    0  0.28146266911E-02 -0.24244483871E-01  0.62386495619E-02  0.10187379800E+01  0.10184264500E+01 0.  0.
     999903    2    3    3    0    0  0.70277950677E-01 -0.10817033090E+00 -0.18425993321E-01  0.13183145030E+00  0.20005079853E-01 0.  0.
         14    1    1    2    0    0 -0.28146266911E-02  0.24244483871E-01 -0.62386495619E-02  0.25192019965E-01  0.00000000000E+00 0.  1.
     999901    1    3    3    0    0 -0.67463323986E-01  0.83925847026E-01  0.24664642883E-01  0.88690652974E+00  0.88000000000E+00 0.  1.
        -11    1    4    4    0    0  0.14918176176E-01 -0.31616382747E-01 -0.12647378372E-01  0.37180168626E-01  0.51100000000E-03 0.  1.
         11    1    4    4    0    0  0.55359774501E-01 -0.76553948150E-01 -0.57786149485E-02  0.94651281671E-01  0.51100000000E-03 0. -1.
</event>
<event>
 8    1  0.1116841E+005  0.1043930E+01  0.7957747E-01            NaN
         13   -1    0    0    0    0  0.00000000000E+00  0.00000000000E+00  0.74505805969E-08  0.10566000000E+00  0.10566000000E+00 0. -1.
     999900   -1    0    0    0    0 -0.00000000000E+00 -0.00000000000E+00 -0.74505805969E-08  0.93827000000E+00  0.93827000000E+00 0. -1.
     999902    2    1    2    0    0 -0.14000728808E-01  0.18619744718E-01  0.57735812985E-02  0.10199289679E+01  0.10196465319E+01 0.  0.
     999903    2    3    3    0    0 -0.18010126346E-01  0.45143614942E-01  0.12104444974E+00  0.13200613113E+00  0.20286675933E-01 0.  0.
         14    1    1    2    0    0  0.14000728808E-01 -0.18619744718E-01 -0.57735812985E-02  0.24001032093E-01  0.00000000000E+00 0. -1.
     999901    1    3    3    0    0  0.40093975383E-02 -0.26523870224E-01 -0.11527086845E+00  0.88792283678E+00  0.88000000000E+00 0. -1.
        -11    1    4    4    0    0 -0.22364074812E-01  0.35247021766E-01  0.99230991002E-01  0.10765479591E+00  0.51100000000E-03 0. -1.
         11    1    4    4    0    0  0.43539484654E-02  0.98965931759E-02  0.21813458743E-01  0.24351335221E-01  0.51100000000E-03 0.  1.
</event>
<event>
 8    1  0.1116841E+005  0.1043930E+01  0.7957747E-01            NaN
         13   -1    0    0    0    0  0.00000000000E+00  0.00000000000E+00  0.74505805969E-08  0.10566000000E+00  0.10566000000E+00 0. -1.
     999900   -1    0    0    0    0 -0.00000000000E+00 -0.00000000000E+00 -0.74505805969E-08  0.93827000000E+00  0.93827000000E+00 0. -1.
     999902    2    1    2    0    0 -0.19776099700E-02 -0.22064115623E-01  0.78964803367E-02  0.10204121229E+01  0.10201410736E+01 0.  0.
     999903    2    3    3    0    0 -0.78443901651E-02  0.86978880389E-01 -0.91493464365E-01  0.12810995709E+00  0.20353058551E-01 0.  0.
         14    1    1    2    0    0  0.19776099700E-02  0.22064115623E-01 -0.78964803367E-02  0.23517877054E-01  0.00000000000E+00 0.  1.
     999901    1    3    3    0    0  0.58667801951E-02 -0.10904299601E+00  0.99389944702E-01  0.89230216586E+00  0.88000000000E+00 0.  1.
        -11    1    4    4    0    0 -0.12860848854E-01  0.39456256263E-01 -0.48431738886E-01  0.63781596437E-01  0.51100000000E-03 0. -1.
         11    1    4    4    0    0  0.50164586889E-02  0.47522624126E-01 -0.43061725479E-01  0.64328360649E-01  0.51100000000E-03 0.  1.
</event>
<event>
 7    1  0.1116841E+005  0.1043930E+01  0.7957747E-01            NaN
         13   -1    0    0    0    0  0.00000000000E+00  0.00000000000E+00  0.74505805969E-08  0.10566000000E+00  0.10566000000E+00 0. -1.
     999900   -1    0    0    0    0 -0.00000000000E+00 -0.00000000000E+00 -0.74505805969E-08  0.93827000000E+00  0.93827000000E+00 0. -1.
     999902    2    1    2    0    0 -0.24953905745E-02  0.14140020101E-02  0.25029673735E-01  0.10187365298E+01  0.10184249634E+01 0.  0.
         14    1    1    2    0    0  0.24953905745E-02 -0.14140020101E-02 -0.25029673735E-01  0.25193470247E-01  0.00000000000E+00 0.  1.
     999901    1    3    3    0    0 -0.70889987826E-01  0.20612034797E-01 -0.70480406170E-01  0.88589939271E+00  0.88000000000E+00 0. -1.
        -11    1    3    3    0    0  0.77663077647E-01 -0.18574850851E-01  0.71877926705E-01  0.10743963972E+00  0.51100000000E-03 0.  1.
         11    1    3    3    0    0 -0.92684803963E-02 -0.62318193614E-03  0.23632153200E-01  0.25397497327E-01  0.51100000000E-03 0. -1.
</event>
<event>
 8    1  0.1116841E+005  0.1043930E+01  0.7957747E-01            NaN
         13   -1    0    0    0    0  0.00000000000E+00  0.00000000000E+00  0.74505805969E-08  0.10566000000E+00  0.10566000000E+00 0. -1.
     999900   -1    0    0    0    0 -0.00000000000E+00 -0.00000000000E+00 -0.74505805969E-08  0.93827000000E+00  0.93827000000E+00 0.  1.
     999902    2    1    2    0    0  0.13541684261E-01  0.19012104851E-01 -0.66620427072E-02  0.10196561425E+01  0.10193671708E+01 0.  0.
     999903    2    3    3    0    0 -0.45652219018E-01  0.43221979636E-01 -0.11315989648E+00  0.13093130937E+00  0.19636215939E-01 0.  0.
         14    1    1    2    0    0 -0.13541684261E-01 -0.19012104851E-01  0.66620427072E-02  0.24273857471E-01  0.00000000000E+00 0.  1.
     999901    1    3    3    0    0  0.59193903278E-01 -0.24209874785E-01  0.10649785377E+00  0.88872483316E+00  0.88000000000E+00 0. -1.
        -11    1    4    4    0    0 -0.22100176416E-01  0.10057672557E-01 -0.53112918404E-01  0.58402207127E-01  0.51100000000E-03 0.  1.
         11    1    4    4    0    0 -0.23552042601E-01  0.33164307080E-01 -0.60046978075E-01  0.72529102240E-01  0.51100000000E-03 0. -1.
</event>
<event>
 8    1  0.1116841E+005  0.1043930E+01  0.7957747E-01            NaN
         13   -1    0    0    0    0  0.00000000000E+00  0.00000000000E+00  0.74505805969E-08  0.10566000000E+00  0.10566000000E+00 0.  1.
     999900   -1    0    0    0    0 -0.00000000000E+00 -0.00000000000E+00 -0.74505805969E-08  0.93827000000E+00  0.93827000000E+00 0.  1.
     999902    2    1    2    0    0  0.91136516700E-02  0.17119507780E-01 -0.13229287356E-01  0.10204534109E+01  0.10201833235E+01 0.  0.
     999903    2    3    3    0    0  0.27561798072E-01 -0.12252613822E+00  0.19513804547E-01  0.12864998487E+00  0.19942988201E-01 0.  0.
         14    1    1    2    0    0 -0.91136516700E-02 -0.17119507780E-01  0.13229287356E-01  0.23476589133E-01  0.00000000000E+00 0.  1.
     999901    1    3    3    0    0 -0.18448146402E-01  0.13964564600E+00 -0.32743091904E-01  0.89180342600E+00  0.88000000000E+00 0.  1.
        -11    1    4    4    0    0  0.60996355373E-02 -0.47706786600E-01  0.16157518209E-01  0.50739230947E-01  0.51100000000E-03 0. -1.
         11    1    4    4    0    0  0.21462162535E-01 -0.74819351622E-01  0.33562863387E-02  0.77910753923E-01  0.51100000000E-03 0.  1.
</event>
<event>
 8    1  0.1116841E+005  0.1043930E+01  0.7957747E-01            NaN
         13   -1    0    0    0    0  0.00000000000E+00  0.00000000000E+00  0.74505805969E-08  0.10566000000E+00  0.10566000000E+00 0. -1.
     999900   -1    0    0    0    0 -0.00000000000E+00 -0.00000000000E+00 -0.74505805969E-08  0.93827000000E+00  0.93827000000E+00 0. -1.
     999902    2    1    2    0    0 -0.16937317071E-01  0.24370395605E-02 -0.15918929105E-01  0.10205585607E+01  0.10202909152E+01 0.  0.
     999903    2    3    3    0    0  0.11668954460E+00  0.42073073702E-01 -0.31413874960E-01  0.12945405127E+00  0.19619543840E-01 0.  0.
         14    1    1    2    0    0  0.16937317071E-01 -0.24370395605E-02  0.15918929105E-01  0.23371439307E-01  0.00000000000E+00 0. -1.
     999901    1    3    3    0    0 -0.13362686167E+00 -0.39636034142E-01  0.15494945854E-01  0.89110450942E+00  0.88000000000E+00 0.  1.
        -11    1    4    4    0    0  0.64055596047E-01  0.33111948065E-01 -0.15741795845E-01  0.73807762105E-01  0.51100000000E-03 0.  1.
         11    1    4    4    0    0  0.52633948556E-01  0.89611256373E-02 -0.15672079115E-01  0.55646289167E-01  0.51100000000E-03 0. -1.
</event>
<event>
 8    1  0.1116841E+005  0.1043930E+01  0.7957747E-01            NaN
         13   -1    0    0    0    0  0.00000000000E+00  0.00000000000E+00  0.74505805969E-08  0.10566000000E+00  0.10566000000E+00 0.  1.
     999900   -1    0    0    0    0 -0.00000000000E+00 -0.00000000000E+00 -0.74505805969E-08  0.93827000000E+00  0.93827000000E+00 0.  1.
     999902    2    1    2    0    0 -0.70734059013E-02  0.15869873531E-01 -0.40865574637E-02  0.10260810250E+01  0.10259257692E+01 0.  0.
     999903    2    3    3    0    0  0.12689757871E+00  0.40374198245E-01 -0.14735076775E-01  0.13554069597E+00  0.20520390120E-01 0.  0.
         14    1    1    2    0    0  0.70734059013E-02 -0.15869873531E-01  0.40865574637E-02  0.17848975008E-01  0.00000000000E+00 0.  1.
     999901    1    3    3    0    0 -0.13397098461E+00 -0.24504324714E-01  0.10648519312E-01  0.89054032902E+00  0.88000000000E+00 0.  1.
        -11    1    4    4    0    0  0.85073456224E-01  0.26066523116E-01 -0.11385076842E-03  0.88978821437E-01  0.51100000000E-03 0. -1.
         11    1    4    4    0    0  0.41824122486E-01  0.14307675129E-01 -0.14621226007E-01  0.46561874535E-01  0.51100000000E-03 0.  1.
</event>
<event>
 8    1  0.1116841E+005  0.1043930E+01  0.7957747E-01            NaN
         13   -1    0    0    0    0  0.00000000000E+00  0.00000000000E+00  0.74505805969E-08  0.10566000000E+00  0.10566000000E+00 0.  1.
     999900   -1    0    0    0    0 -0.00000000000E+00 -0.00000000000E+00 -0.74505805969E-08  0.93827000000E+00  0.93827000000E+00 0.  1.
     999902    2    1    2    0    0  0.12141867306E-01 -0.81972538016E-02  0.18776462763E-01  0.10201145541E+01  0.10198365202E+01 0.  0.
     999903    2    3    3    0    0  0.10241572367E+00 -0.34074997162E-01 -0.70812834247E-01  0.13059486969E+00  0.19760480982E-01 0.  0.
         14    1    1    2    0    0 -0.12141867306E-01  0.81972538016E-02 -0.18776462763E-01  0.23815445943E-01  0.00000000000E+00 0. -1.
     999901    1    3    3    0    0 -0.90273856361E-01  0.25877743361E-01  0.89589297010E-01  0.88951968437E+00  0.88000000000E+00 0. -1.
        -11    1    4    4    0    0  0.34094898779E-01 -0.61661240503E-02 -0.32190724540E-01  0.47296797735E-01  0.51100000000E-03 0.  1.
         11    1    4    4    0    0  0.68320824887E-01 -0.27908873112E-01 -0.38622109707E-01  0.83298071952E-01  0.51100000000E-03 0. -1.
</event>
<event>
 8    1  0.1116841E+005  0.1043930E+01  0.7957747E-01            NaN
         13   -1    0    0    0    0  0.00000000000E+00  0.00000000000E+00  0.74505805969E-08  0.10566000000E+00  0.10566000000E+00 0. -1.
     999900   -1    0    0    0    0 -0.00000000000E+00 -0.00000000000E+00 -0.74505805969E-08  0.93827000000E+00  0.93827000000E+00 0. -1.
     999902    2    1    2    0    0 -0.83937216423E-02  0.67671433837E-02  0.20486022001E-01  0.10207799268E+01  0.10205173850E+01 0.  0.
     999903    2    3    3    0    0  0.98454994312E-01  0.76990368954E-01  0.35543744677E-01  0.13141235119E+00  0.19620026546E-01 0.  0.
         14    1    1    2    0    0  0.83937216423E-02 -0.67671433837E-02 -0.20486022001E-01  0.23150073218E-01  0.00000000000E+00 0.  1.
     999901    1    3    3    0    0 -0.10684871595E+00 -0.70223225571E-01 -0.15057722676E-01  0.88936757560E+00  0.88000000000E+00 0. -1.
        -11    1    4    4    0    0  0.97015532685E-01  0.77491581679E-01  0.33126051384E-01  0.12850896939E+00  0.51100000000E-03 0.  1.
         11    1    4    4    0    0  0.14394616270E-02 -0.50121272435E-03  0.24176932932E-02  0.29033817921E-02  0.51100000000E-03 0. -1.
</event>
<event>
 8    1  0.1116841E+005  0.1043930E+01  0.7957747E-01            NaN
         13   -1    0    0    0    0  0.00000000000E+00  0.00000000000E+00  0.74505805969E-08  0.10566000000E+00  0.10566000000E+00 0.  1.
     999900   -1    0    0    0    0 -0.00000000000E+00 -0.00000000000E+00 -0.74505805969E-08  0.93827000000E+00  0.93827000000E+00 0.  1.
     999902    2    1    2    0    0  0.16960116066E-02  0.41158004033E-02 -0.22788359215E-01  0.10207109220E+01  0.10204467946E+01 0.  0.
     999903    2    3    3    0    0 -0.95384398154E-01  0.57231416769E-01 -0.70121219685E-01  0.13251822085E+00  0.16446122056E-01 0.  0.
         14    1    1    2    0    0 -0.16960116066E-02 -0.41158004033E-02  0.22788359215E-01  0.23219078019E-01  0.00000000000E+00 0.  1.
     999901    1    3    3    0    0  0.97080409760E-01 -0.53115616366E-01  0.47332860470E-01  0.88819270113E+00  0.88000000000E+00 0.  1.
        -11    1    4    4    0    0 -0.51146209059E-01  0.21664264597E-01 -0.31459357803E-01  0.63837507596E-01  0.51100000000E-03 0. -1.
         11    1    4    4    0    0 -0.44238189095E-01  0.35567152171E-01 -0.38661861883E-01  0.68680713255E-01  0.51100000000E-03 0.  1.
</event>
<event>
 8    1  0.1116841E+005  0.1043930E+01  0.7957747E-01            NaN
         13   -1    0    0    0    0  0.00000000000E+00  0.00000000000E+00  0.74505805969E-08  0.10566000000E+00  0.10566000000E+00 0.  1.
     999900   -1    0    0    0    0 -0.00000000000E+00 -0.00000000000E+00 -0.74505805969E-08  0.93827000000E+00  0.93827000000E+00 0. -1.
     999902    2    1    2    0    0 -0.20745925766E-01  0.88975300769E-02 -0.73687412820E-02  0.10201843093E+01  0.10199079209E+01 0.  0.
     999903    2    3    3    0    0  0.72076705929E-01  0.11469307672E-01 -0.10555427513E+00  0.12986804302E+00  0.19935070694E-01 0.  0.
         14    1    1    2    0    0  0.20745925766E-01 -0.88975300769E-02  0.73687412820E-02  0.23745690671E-01  0.00000000000E+00 0.  1.
     999901    1    3    3    0    0 -0.92822631695E-01 -0.25717775951E-02  0.98185533850E-01  0.89031626631E+00  0.88000000000E+00 0.  1.
        -11    1    4    4    0    0  0.66989073211E-01  0.49974474853E-02 -0.96945416883E-01  0.11794568829E+00  0.51100000000E-03 0.  1.
         11    1    4    4    0    0  0.50876327179E-02  0.64718601866E-02 -0.86088582484E-02  0.11922354729E-01  0.51100000000E-03 0. -1.
</event>
<event>
 8    1  0.1116841E+005  0.1043930E+01  0.7957747E-01            NaN
         13   -1    0    0    0    0  0.00000000000E+00  0.00000000000E+00  0.74505805969E-08  0.10566000000E+00  0.10566000000E+00 0. -1.
     999900   -1    0    0    0    0 -0.00000000000E+00 -0.00000000000E+00 -0.74505805969E-08  0.93827000000E+00  0.93827000000E+00 0. -1.
     999902    2    1    2    0    0 -0.23510220112E-01  0.39690354256E-02  0.18900229678E-02  0.10200123103E+01  0.10197318556E+01 0.  0.
     999903    2    3    3    0    0  0.11047284763E+00 -0.21100372438E-01  0.57405720714E-01  0.12778928309E+00  0.19626724698E-01 0.  0.
         14    1    1    2    0    0  0.23510220112E-01 -0.39690354256E-02 -0.18900229678E-02  0.23917689661E-01  0.00000000000E+00 0. -1.
     999901    1    3    3    0    0 -0.13398306774E+00  0.25069407864E-01 -0.55515697746E-01  0.89222302725E+00  0.88000000000E+00 0. -1.
        -11    1    4    4    0    0  0.55919135184E-01 -0.87344792430E-02  0.18108034381E-01  0.59425607590E-01  0.51100000000E-03 0. -1.
         11    1    4    4    0    0  0.54553712445E-01 -0.12365893195E-01  0.39297686332E-01  0.68363675502E-01  0.51100000000E-03 0.  1.
</event>
<event>
 8    1  0.1116841E+005  0.1043930E+01  0.7957747E-01            NaN
         13   -1    0    0    0    0  0.00000000000E+00  0.00000000000E+00  0.74505805969E-08  0.10566000000E+00  0.10566000000E+00 0.  1.
     999900   -1    0    0    0    0 -0.00000000000E+00 -0.00000000000E+00 -0.74505805969E-08  0.93827000000E+00  0.93827000000E+00 0.  1.
     999902    2    1    2    0    0 -0.59565072798E-02  0.21994045670E-01  0.37322594075E-03  0.10211405875E+01  0.10208862533E+01 0.  0.
     999903    2    3    3    0    0  0.11577421831E+00  0.45005785943E-02 -0.57305310190E-01  0.13071866254E+00  0.19481923106E-01 0.  0.
         14    1    1    2    0    0  0.59565072798E-02 -0.21994045670E-01 -0.37322594075E-03  0.22789412487E-01  0.00000000000E+00 0. -1.
     999901    1    3    3    0    0 -0.12173072559E+00  0.17493467076E-01  0.57678536131E-01  0.89042192497E+00  0.88000000000E+00 0.  1.
        -11    1    4    4    0    0  0.54506809332E-01  0.74814937334E-02 -0.18111900115E-01  0.57924667102E-01  0.51100000000E-03 0. -1.
         11    1    4    4    0    0  0.61267408975E-01 -0.29809151391E-02 -0.39193410075E-01  0.72793995438E-01  0.51100000000E-03 0.  1.
</event>
<event>
 8    1  0.1116841E+005  0.1043930E+01  0.7957747E-01            NaN
         13   -1    0    0    0    0  0.00000000000E+00  0.00000000000E+00  0.74505805969E-08  0.10566000000E+00  0.10566000000E+00 0.  1.
     999900   -1    0    0    0    0 -0.00000000000E+00 -0.00000000000E+00 -0.74505805969E-08  0.93827000000E+00  0.93827000000E+00 0.  1.
     999902    2    1    2    0    0  0.11200283721E-01 -0.18955820572E-01  0.81089500803E-02  0.10204667402E+01  0.10201969630E+01 0.  0.
     999903    2    3    3    0    0 -0.12303537999E+00  0.26656443525E-01  0.19363443278E-01  0.12904856916E+00  0.20744145066E-01 0.  0.
         14    1    1    2    0    0 -0.11200283721E-01  0.18955820572E-01 -0.81089500803E-02  0.23463259798E-01  0.00000000000E+00 0.  1.
     999901    1    3    3    0    0  0.13423566371E+00 -0.45612264097E-01 -0.11254493198E-01  0.89141817104E+00  0.88000000000E+00 0.  1.
        -11    1    4    4    0    0 -0.26164474007E-01  0.25828349948E-02 -0.38209950567E-02  0.26572765398E-01  0.51100000000E-03 0. -1.
         11    1    4    4    0    0 -0.96870905987E-01  0.24073608531E-01  0.23184438335E-01  0.10247580376E+00  0.51100000000E-03 0.  1.
</event>
<event>
 8    1  0.1116841E+005  0.1043930E+01  0.7957747E-01            NaN
         13   -1    0    0    0    0  0.00000000000E+00  0.00000000000E+00  0.74505805969E-08  0.10566000000E+00  0.10566000000E+00 0. -1.
     999900   -1    0    0    0    0 -0.00000000000E+00 -0.00000000000E+00 -0.74505805969E-08  0.93827000000E+00  0.93827000000E+00 0.  1.
     999902    2    1    2    0    0  0.81380606345E-02  0.12332637886E-01  0.17618893278E-01  0.10209354922E+01  0.10206765070E+01 0.  0.
     999903    2    3    3    0    0 -0.11724721900E+00  0.52468169913E-01  0.14890645450E-01  0.13113789016E+00  0.21808156633E-01 0.  0.
         14    1    1    2    0    0 -0.81380606345E-02 -0.12332637886E-01 -0.17618893278E-01  0.22994507790E-01  0.00000000000E+00 0.  1.
     999901    1    3    3    0    0  0.12538527964E+00 -0.40135532027E-01  0.27282478283E-02  0.88979760205E+00  0.88000000000E+00 0.  1.
        -11    1    4    4    0    0 -0.67976215452E-01  0.38146758241E-01  0.16998469199E-01  0.79781890850E-01  0.51100000000E-03 0.  1.
         11    1    4    4    0    0 -0.49271003550E-01  0.14321411672E-01 -0.21078237487E-02  0.51355999309E-01  0.51100000000E-03 0. -1.
</event>
<event>
 8    1  0.1116841E+005  0.1043930E+01  0.7957747E-01            NaN
         13   -1    0    0    0    0  0.00000000000E+00  0.00000000000E+00  0.74505805969E-08  0.10566000000E+00  0.10566000000E+00 0.  1.
     999900   -1    0    0    0    0 -0.00000000000E+00 -0.00000000000E+00 -0.74505805969E-08  0.93827000000E+00  0.93827000000E+00 0.  1.
     999902    2    1    2    0    0 -0.48336899344E-02 -0.14258264419E-01 -0.18951438501E-01  0.10197262878E+01  0.10194390037E+01 0.  0.
     999903    2    3    3    0    0  0.36810029331E-01 -0.12276199459E+00  0.20063422616E-01  0.13122788139E+00  0.19817425499E-01 0.  0.
         14    1    1    2    0    0  0.48336899344E-02  0.14258264419E-01  0.18951438501E-01  0.24203712192E-01  0.00000000000E+00 0.  1.
     999901    1    3    3    0    0 -0.41643719265E-01  0.10850373017E+00 -0.39014861118E-01  0.88849840642E+00  0.88000000000E+00 0.  1.
        -11    1    4    4    0    0  0.17554954880E-01 -0.85879457700E-01  0.18508089388E-01  0.89589442399E-01  0.51100000000E-03 0. -1.
         11    1    4    4    0    0  0.19255074451E-01 -0.36882536887E-01  0.15553332285E-02  0.41638438993E-01  0.51100000000E-03 0.  1.
</event>
<event>
 8    1  0.1116841E+005  0.1043930E+01  0.7957747E-01            NaN
         13   -1    0    0    0    0  0.00000000000E+00  0.00000000000E+00  0.74505805969E-08  0.10566000000E+00  0.10566000000E+00 0. -1.
     999900   -1    0    0    0    0 -0.00000000000E+00 -0.00000000000E+00 -0.74505805969E-08  0.93827000000E+00  0.93827000000E+00 0.  1.
     999902    2    1    2    0    0  0.14626681729E-01  0.17682841087E-01  0.43899522554E-02  0.10205656175E+01  0.10202981355E+01 0.  0.
     999903    2    3    3    0    0 -0.68770555121E-01 -0.10243753233E+00 -0.25604368936E-01  0.12799424082E+00  0.22452275911E-01 0.  0.
         14    1    1    2    0    0 -0.14626681729E-01 -0.17682841087E-01 -0.43899522554E-02  0.23364382468E-01  0.00000000000E+00 0. -1.
     999901    1    3    3    0    0  0.83397236850E-01  0.12012037341E+00  0.29994321192E-01  0.89257137671E+00  0.88000000000E+00 0. -1.
        -11    1    4    4    0    0 -0.47170649129E-01 -0.86535430011E-01 -0.19144178595E-01  0.10040025638E+00  0.51100000000E-03 0. -1.
         11    1    4    4    0    0 -0.21599905992E-01 -0.15902102316E-01 -0.64601903413E-02  0.27593984438E-01  0.51100000000E-03 0.  1.
</event>
<event>
 8    1  0.1116841E+005  0.1043930E+01  0.7957747E-01            NaN
         13   -1    0    0    0    0  0.00000000000E+00  0.00000000000E+00  0.74505805969E-08  0.10566000000E+00  0.10566000000E+00 0. -1.
     999900   -1    0    0    0    0 -0.00000000000E+00 -0.00000000000E+00 -0.74505805969E-08  0.93827000000E+00  0.93827000000E+00 0. -1.
     999902    2    1    2    0    0 -0.62529439979E-03 -0.11690034312E-01 -0.21359421184E-01  0.10195728087E+01  0.10192818253E+01 0.  0.
     999903    2    3    3    0    0 -0.92495253593E-02 -0.12177797963E+00  0.41250572509E-01  0.13046441014E+00  0.20097824185E-01 0.  0.
         14    1    1    2    0    0  0.62529439979E-03  0.11690034312E-01  0.21359421184E-01  0.24357191312E-01  0.00000000000E+00 0. -1.
     999901    1    3    3    0    0  0.86242309595E-02  0.11008794532E+00 -0.62609993693E-01  0.88910839855E+00  0.88000000000E+00 0. -1.
        -11    1    4    4    0    0 -0.29273086479E-02 -0.44719514315E-01  0.50864051523E-02  0.45105839255E-01  0.51100000000E-03 0. -1.
         11    1    4    4    0    0 -0.63222167114E-02 -0.77058465318E-01  0.36164167357E-01  0.85358570882E-01  0.51100000000E-03 0.  1.
</event>
<event>
 8    1  0.1116841E+005  0.1043930E+01  0.7957747E-01            NaN
         13   -1    0    0    0    0  0.00000000000E+00  0.00000000000E+00  0.74505805969E-08  0.10566000000E+00  0.10566000000E+00 0. -1.
     999900   -1    0    0    0    0 -0.00000000000E+00 -0.00000000000E+00 -0.74505805969E-08  0.93827000000E+00  0.93827000000E+00 0. -1.
     999902    2    1    2    0    0  0.18201423874E-01 -0.12696282589E-01 -0.85038641184E-02  0.10201644130E+01  0.10198875557E+01 0.  0.
     999903    2    3    3    0    0 -0.85333204189E-01 -0.21167770897E-02  0.93188283449E-01  0.12821562630E+00  0.21655349737E-01 0.  0.
         14    1    1    2    0    0 -0.18201423874E-01  0.12696282589E-01  0.85038641184E-02  0.23765587044E-01  0.00000000000E+00 0.  1.
     999901    1    3    3    0    0  0.10353462806E+00 -0.10579505500E-01 -0.10169214757E+00  0.89194878666E+00  0.88000000000E+00 0. -1.
        -11    1    4    4    0    0 -0.43222104292E-01 -0.11812367910E-01  0.49310652563E-01  0.66629452289E-01  0.51100000000E-03 0.  1.
         11    1    4    4    0    0 -0.42111099897E-01  0.96955908199E-02  0.43877630886E-01  0.61586174009E-01  0.51100000000E-03 0. -1.
</event>
<event>
 8    1  0.1116841E+005  0.1043930E+01  0.7957747E-01            NaN
         13   -1    0    0    0    0  0.00000000000E+00  0.00000000000E+00  0.74505805969E-08  0.10566000000E+00  0.10566000000E+00 0.  1.
     999900   -1    0    0    0    0 -0.00000000000E+00 -0.00000000000E+00 -0.74505805969E-08  0.93827000000E+00  0.93827000000E+00 0.  1.
     999902    2    1    2    0    0 -0.13835841376E-01  0.72097996702E-02 -0.18034479206E-01  0.10200835294E+01  0.10198047621E+01 0.  0.
     999903    2    3    3    0    0  0.53574403607E-01  0.93915504506E-01  0.67692798115E-01  0.12912270738E+00  0.20000498361E-01 0.  0.
         14    1    1    2    0    0  0.13835841376E-01 -0.72097996702E-02  0.18034479206E-01  0.23846470559E-01  0.00000000000E+00 0.  1.
     999901    1    3    3    0    0 -0.67410244983E-01 -0.86705704836E-01 -0.85727277321E-01  0.89096082207E+00  0.88000000000E+00 0. -1.
        -11    1    4    4    0    0  0.34450345609E-01  0.69553136575E-01  0.38855955746E-01  0.86801564145E-01  0.51100000000E-03 0.  1.
         11    1    4    4    0    0  0.19124057998E-01  0.24362367932E-01  0.28836842369E-01  0.42321143231E-01  0.51100000000E-03 0. -1.
</event>
<event>
 8    1  0.1116841E+005  0.1043930E+01  0.7957747E-01            NaN
         13   -1    0    0    0    0  0.00000000000E+00  0.00000000000E+00  0.74505805969E-08  0.10566000000E+00  0.10566000000E+00 0. -1.
     999900   -1    0    0    0    0 -0.00000000000E+00 -0.00000000000E+00 -0.74505805969E-08  0.93827000000E+00  0.93827000000E+00 0. -1.
     999902    2    1    2    0    0  0.21590115264E-01 -0.20978383839E-02 -0.10373013403E-01  0.10198855950E+01  0.10196021251E+01 0.  0.
     999903    2    3    3    0    0 -0.34395148236E-01 -0.12315995933E+00 -0.82203934305E-02  0.12983221426E+00  0.20914760004E-01 0.  0.
         14    1    1    2    0    0 -0.21590115264E-01  0.20978383839E-02  0.10373013403E-01  0.24044404964E-01  0.00000000000E+00 0. -1.
     999901    1    3    3    0    0  0.55985263500E-01  0.12106212095E+00 -0.21526199729E-02  0.89005338078E+00  0.88000000000E+00 0. -1.
        -11    1    4    4    0    0 -0.70030096681E-02 -0.56378311140E-01 -0.96899695428E-02  0.57634301784E-01  0.51100000000E-03 0. -1.
         11    1    4    4    0    0 -0.27392138568E-01 -0.66781648194E-01  0.14695761123E-02  0.72197912476E-01  0.51100000000E-03 0.  1.
</event>
<event>
 8    1  0.1116841E+005  0.1043930E+01  0.7957747E-01            NaN
         13   -1    0    0    0    0  0.00000000000E+00  0.00000000000E+00  0.74505805969E-08  0.10566000000E+00  0.10566000000E+00 0. -1.
     999900   -1    0    0    0    0 -0.00000000000E+00 -0.00000000000E+00 -0.74505805969E-08  0.93827000000E+00  0.93827000000E+00 0. -1.
     999902    2    1    2    0    0 -0.85074814301E-02 -0.83501332557E-02  0.84727203113E-03  0.10319792747E+01  0.10319100753E+01 0.  0.
     999903    2    3    3    0    0 -0.70853943749E-01 -0.18063193977E-01  0.11979963645E+00  0.14173712228E+00  0.19771156226E-01 0.  0.
         14    1    1    2    0    0  0.85074814301E-02  0.83501332557E-02 -0.84727203113E-03  0.11950725315E-01  0.00000000000E+00 0.  1.
     999901    1    3    3    0    0  0.62346462319E-01  0.97130607215E-02 -0.11895236442E+00  0.89024215240E+00  0.88000000000E+00 0. -1.
        -11    1    4    4    0    0 -0.65650143132E-01 -0.11486114238E-01  0.99418814963E-01  0.11969224705E+00  0.51100000000E-03 0. -1.
         11    1    4    4    0    0 -0.52038006164E-02 -0.65770797388E-02  0.20380821485E-01  0.22044875235E-01  0.51100000000E-03 0.  1.
</event>
<event>
 8    1  0.1116841E+005  0.1043930E+01  0.7957747E-01            NaN
         13   -1    0    0    0    0  0.00000000000E+00  0.00000000000E+00  0.74505805969E-08  0.10566000000E+00  0.10566000000E+00 0.  1.
     999900   -1    0    0    0    0 -0.00000000000E+00 -0.00000000000E+00 -0.74505805969E-08  0.93827000000E+00  0.93827000000E+00 0. -1.
     999902    2    1    2    0    0  0.40684029670E-02  0.22392755407E-01  0.72508532804E-03  0.10211591163E+01  0.10209052001E+01 0.  0.
     999903    2    3    3    0    0  0.87698024017E-01  0.42846912215E-01 -0.87453827700E-01  0.13257158160E+00  0.20006273187E-01 0.  0.
         14    1    1    2    0    0 -0.40684029670E-02 -0.22392755407E-01 -0.72508532804E-03  0.22770883737E-01  0.00000000000E+00 0. -1.
     999901    1    3    3    0    0 -0.83629621050E-01 -0.20454156807E-01  0.88178913028E-01  0.88858753466E+00  0.88000000000E+00 0.  1.
        -11    1    4    4    0    0  0.52446475356E-01  0.26224644592E-01 -0.65192104604E-01  0.87684869761E-01  0.51100000000E-03 0.  1.
         11    1    4    4    0    0  0.35251548661E-01  0.16622267623E-01 -0.22261723096E-01  0.44886711843E-01  0.51100000000E-03 0. -1.
</event>
<event>
 8    1  0.1116841E+005  0.1043930E+01  0.7957747E-01            NaN
         13   -1    0    0    0    0  0.00000000000E+00  0.00000000000E+00  0.74505805969E-08  0.10566000000E+00  0.10566000000E+00 0.  1.
     999900   -1    0    0    0    0 -0.00000000000E+00 -0.00000000000E+00 -0.74505805969E-08  0.93827000000E+00  0.93827000000E+00 0.  1.
     999902    2    1    2    0    0  0.10162968266E-02 -0.67060498433E-02  0.22598472214E-01  0.10203356170E+01  0.10200627806E+01 0.  0.
     999903    2    3    3    0    0 -0.12327359502E+00 -0.39850555460E-01  0.11717453760E-01  0.13091730593E+00  0.14751144695E-01 0.  0.
         14    1    1    2    0    0 -0.10162968266E-02  0.67060498433E-02 -0.22598472214E-01  0.23594383021E-01  0.00000000000E+00 0. -1.
     999901    1    3    3    0    0  0.12428989185E+00  0.33144505616E-01  0.10881018455E-01  0.88941831105E+00  0.88000000000E+00 0. -1.
        -11    1    4    4    0    0 -0.10544704653E+00 -0.38711789202E-01  0.12545003840E-01  0.11302796330E+00  0.51100000000E-03 0. -1.
         11    1    4    4    0    0 -0.17826548488E-01 -0.11387662578E-02 -0.82755008025E-03  0.17889342629E-01  0.51100000000E-03 0.  1.
</event>
<event>
 8    1  0.1116841E+005  0.1043930E+01  0.7957747E-01            NaN
         13   -1    0    0    0    0  0.00000000000E+00  0.00000000000E+00  0.74505805969E-08  0.10566000000E+00  0.10566000000E+00 0.  1.
     999900   -1    0    0    0    0 -0.00000000000E+00 -0.00000000000E+00 -0.74505805969E-08  0.93827000000E+00  0.93827000000E+00 0.  1.
     999902    2    1    2    0    0  0.10615902462E-02 -0.15326925905E-01  0.19183793386E-01  0.10193523768E+01  0.10190560380E+01 0.  0.
     999903    2    3    3    0    0 -0.30868641322E-01 -0.83392530036E-01  0.96546641826E-01  0.13276483098E+00  0.19951421369E-01 0.  0.
         14    1    1    2    0    0 -0.10615902462E-02  0.15326925905E-01 -0.19183793386E-01  0.24577623161E-01  0.00000000000E+00 0.  1.
     999901    1    3    3    0    0  0.31930231568E-01  0.68065604131E-01 -0.77362848439E-01  0.88658754586E+00  0.88000000000E+00 0.  1.
        -11    1    4    4    0    0 -0.14160436298E-01 -0.17393494020E-01  0.30922670786E-01  0.38203720760E-01  0.51100000000E-03 0.  1.
         11    1    4    4    0    0 -0.16708205024E-01 -0.65999036016E-01  0.65623971040E-01  0.94561110221E-01  0.51100000000E-03 0. -1.
</event>
<event>
 8    1  0.1116841E+005  0.1043930E+01  0.7957747E-01            NaN
         13   -1    0    0    0    0  0.00000000000E+00  0.00000000000E+00  0.74505805969E-08  0.10566000000E+00  0.10566000000E+00 0.  1.
     999900   -1    0    0    0    0 -0.00000000000E+00 -0.00000000000E+00 -0.74505805969E-08  0.93827000000E+00  0.93827000000E+00 0. -1.
     999902    2    1    2    0    0  0.55005948777E-02  0.23464843386E-01 -0.22819116743E-02  0.10197212714E+01  0.10194338668E+01 0.  0.
     999903    2    3    3    0    0 -0.80943909558E-01 -0.45755974288E-01  0.86073351298E-01  0.12839034160E+00  0.20734809709E-01 0.  0.
         14    1    1    2    0    0 -0.55005948777E-02 -0.23464843386E-01  0.22819116743E-02  0.24208728592E-01  0.00000000000E+00 0. -1.
     999901    1    3    3    0    0  0.86444504436E-01  0.69220817674E-01 -0.88355262972E-01  0.89133092981E+00  0.88000000000E+00 0. -1.
        -11    1    4    4    0    0 -0.89864614080E-02 -0.22233928648E-02  0.20256426494E-02  0.94902220001E-02  0.51100000000E-03 0.  1.
         11    1    4    4    0    0 -0.71957448150E-01 -0.43532581423E-01  0.84047708649E-01  0.11890011960E+00  0.51100000000E-03 0. -1.
</event>
<event>
 8    1  0.1116841E+005  0.1043930E+01  0.7957747E-01            NaN
         13   -1    0    0    0    0  0.00000000000E+00  0.00000000000E+00  0.74505805969E-08  0.10566000000E+00  0.10566000000E+00 0. -1.
     999900   -1    0    0    0    0 -0.00000000000E+00 -0.00000000000E+00 -0.74505805969E-08  0.93827000000E+00  0.93827000000E+00 0. -1.
     999902    2    1    2    0    0  0.20290723648E-01 -0.36480316012E-02  0.13289170167E-01  0.10194019825E+01  0.10191068532E+01 0.  0.
     999903    2    3    3    0    0  0.23617714167E-01 -0.81934972620E-01  0.98512705562E-01  0.13181932998E+00  0.20011157844E-01 0.  0.
         14    1    1    2    0    0 -0.20290723648E-01  0.36480316012E-02 -0.13289170167E-01  0.24528017540E-01  0.00000000000E+00 0.  1.
     999901    1    3    3    0    0 -0.33269905195E-02  0.78286941019E-01 -0.85223535395E-01  0.88758265248E+00  0.88000000000E+00 0. -1.
        -11    1    4    4    0    0  0.16697130885E-01 -0.67923005033E-01  0.68101289797E-01  0.97623642554E-01  0.51100000000E-03 0. -1.
         11    1    4    4    0    0  0.69205832819E-02 -0.14011967587E-01  0.30411415765E-01  0.34195687425E-01  0.51100000000E-03 0.  1.
</event>
<event>
 8    1  0.1116841E+005  0.1043930E+01  0.7957747E-01            NaN
         13   -1    0    0    0    0  0.00000000000E+00  0.00000000000E+00  0.74505805969E-08  0.10566000000E+00  0.10566000000E+00 0. -1.
     999900   -1    0    0    0    0 -0.00000000000E+00 -0.00000000000E+00 -0.74505805969E-08  0.93827000000E+00  0.93827000000E+00 0.  1.
     999902    2    1    2    0    0 -0.95271775054E-03  0.10552962204E-01 -0.21007973429E-01  0.10204011320E+01  0.10201298263E+01 0.  0.
     999903    2    3    3    0    0 -0.10384978350E+00 -0.70933034575E-01 -0.28864125557E-01  0.13063178382E+00  0.20377739653E-01 0.  0.
         14    1    1    2    0    0  0.95271775054E-03 -0.10552962204E-01  0.21007973429E-01  0.23528868014E-01  0.00000000000E+00 0. -1.
     999901    1    3    3    0    0  0.10289706575E+00  0.81485996779E-01  0.78561521278E-02  0.88976934817E+00  0.88000000000E+00 0. -1.
        -11    1    4    4    0    0 -0.37802922039E-01 -0.14807715940E-01 -0.65161672553E-02  0.41122389555E-01  0.51100000000E-03 0. -1.
         11    1    4    4    0    0 -0.66046861458E-01 -0.56125318635E-01 -0.22347958302E-01  0.89509394264E-01  0.51100000000E-03 0.  1.
</event>
<event>
 8    1  0.1116841E+005  0.1043930E+01  0.7957747E-01            NaN
         13   -1    0    0    0    0  0.00000000000E+00  0.00000000000E+00  0.74505805969E-08  0.10566000000E+00  0.10566000000E+00 0.  1.
     999900   -1    0    0    0    0 -0.00000000000E+00 -0.00000000000E+00 -0.74505805969E-08  0.93827000000E+00  0.93827000000E+00 0.  1.
     999902    2    1    2    0    0 -0.66368010217E-02 -0.19688679061E-01 -0.10028517056E-01  0.10208591880E+01  0.10205984614E+01 0.  0.
     999903    2    3    3    0    0 -0.61528580845E-01  0.46665585851E-01  0.10240089115E+00  0.12953636895E+00  0.18173750554E-01 0.  0.
         14    1    1    2    0    0  0.66368010217E-02  0.19688679061E-01  0.10028517056E-01  0.23070811978E-01  0.00000000000E+00 0.  1.
     999901    1    3    3    0    0  0.54891779823E-01 -0.66354264912E-01 -0.11242940821E+00  0.89132281907E+00  0.88000000000E+00 0.  1.
        -11    1    4    4    0    0 -0.57514121837E-01  0.46568713507E-01  0.90157510458E-01  0.11664114669E+00  0.51100000000E-03 0. -1.
         11    1    4    4    0    0 -0.40144590078E-02  0.96872344753E-04  0.12243380694E-01  0.12895222262E-01  0.51100000000E-03 0.  1.
</event>
<event>
 8    1  0.1116841E+005  0.1043930E+01  0.7957747E-01            NaN
         13   -1    0    0    0    0  0.00000000000E+00  0.00000000000E+00  0.74505805969E-08  0.10566000000E+00  0.10566000000E+00 0.  1.
     999900   -1    0    0    0    0 -0.00000000000E+00 -0.00000000000E+00 -0.74505805969E-08  0.93827000000E+00  0.93827000000E+00 0. -1.
     999902    2    1    2    0    0  0.21978637500E-01  0.32770257053E-02  0.10122412948E-01  0.10195115101E+01  0.10192190425E+01 0.  0.
     999903    2    3    3    0    0  0.11509664436E+00  0.11871462338E-01  0.62569786445E-01  0.13300400619E+00  0.19670239626E-01 0.  0.
         14    1    1    2    0    0 -0.21978637500E-01 -0.32770257053E-02 -0.10122412948E-01  0.24418489874E-01  0.00000000000E+00 0. -1.
     999901    1    3    3    0    0 -0.93118006859E-01 -0.85944366332E-02 -0.52447373498E-01  0.88650750393E+00  0.88000000000E+00 0.  1.
        -11    1    4    4    0    0  0.31528120961E-01 -0.32047234308E-02  0.10483140546E-01  0.33383379402E-01  0.51100000000E-03 0.  1.
         11    1    4    4    0    0  0.83568523398E-01  0.15076185769E-01  0.52086645899E-01  0.99620626791E-01  0.51100000000E-03 0. -1.
</event>
<event>
 8    1  0.1116841E+005  0.1043930E+01  0.7957747E-01            NaN
         13   -1    0    0    0    0  0.00000000000E+00  0.00000000000E+00  0.74505805969E-08  0.10566000000E+00  0.10566000000E+00 0. -1.
     999900   -1    0    0    0    0 -0.00000000000E+00 -0.00000000000E+00 -0.74505805969E-08  0.93827000000E+00  0.93827000000E+00 0.  1.
     999902    2    1    2    0    0 -0.88889615831E-02  0.10423639764E-01 -0.19078850072E-01  0.10204423772E+01  0.10201720329E+01 0.  0.
     999903    2    3    3    0    0  0.10993158109E+00  0.65758340864E-01  0.94164070401E-02  0.13027821809E+00  0.21786084403E-01 0.  0.
         14    1    1    2    0    0  0.88889615831E-02 -0.10423639764E-01  0.19078850072E-01  0.23487622784E-01  0.00000000000E+00 0. -1.
     999901    1    3    3    0    0 -0.11882054268E+00 -0.55334701100E-01 -0.28495257112E-01  0.89016415912E+00  0.88000000000E+00 0.  1.
        -11    1    4    4    0    0  0.75061732108E-02  0.84386265993E-03  0.47222434065E-02  0.89227486937E-02  0.51100000000E-03 0. -1.
         11    1    4    4    0    0  0.10242540788E+00  0.64914478204E-01  0.46941636336E-02  0.12135546940E+00  0.51100000000E-03 0.  1.
</event>
<event>
 8    1  0.1116841E+005  0.1043930E+01  0.7957747E-01            NaN
         13   -1    0    0    0    0  0.00000000000E+00  0.00000000000E+00  0.74505805969E-08  0.10566000000E+00  0.10566000000E+00 0.  1.
     999900   -1    0    0    0    0 -0.00000000000E+00 -0.00000000000E+00 -0.74505805969E-08  0.93827000000E+00  0.93827000000E+00 0. -1.
     999902    2    1    2    0    0  0.13976777810E-02  0.39943529554E-03  0.24045057494E-01  0.10198410432E+01  0.10195565092E+01 0.  0.
     999903    2    3    3    0    0 -0.11599165797E+00 -0.58987828485E-02  0.58053306447E-01  0.13137242543E+00  0.19991683633E-01 0.  0.
         14    1    1    2    0    0 -0.13976777810E-02 -0.39943529554E-03 -0.24045057494E-01  0.24088956840E-01  0.00000000000E+00 0. -1.
     999901    1    3    3    0    0  0.11738933575E+00  0.62982181441E-02 -0.34008248953E-01  0.88846861773E+00  0.88000000000E+00 0.  1.
        -11    1    4    4    0    0 -0.46268175510E-01  0.72439639416E-02  0.21007491432E-01  0.51330253222E-01  0.51100000000E-03 0.  1.
         11    1    4    4    0    0 -0.69723482464E-01 -0.13142746790E-01  0.37045815015E-01  0.80042172204E-01  0.51100000000E-03 0. -1.
</event>
<event>
 8    1  0.1116841E+005  0.1043930E+01  0.7957747E-01            NaN
         13   -1    0    0    0    0  0.00000000000E+00  0.00000000000E+00  0.74505805969E-08  0.10566000000E+00  0.10566000000E+00 0. -1.
     999900   -1    0    0    0    0 -0.00000000000E+00 -0.00000000000E+00 -0.74505805969E-08  0.93827000000E+00  0.93827000000E+00 0.  1.
     999902    2    1    2    0    0 -0.74752931608E-03 -0.96833643111E-02  0.32342847030E-01  0.10101603968E+01  0.10095957811E+01 0.  0.
     999903    2    3    3    0    0  0.68643178335E-01  0.52459444896E-01 -0.78237223977E-01  0.11836179224E+00  0.20605129343E-01 0.  0.
         14    1    1    2    0    0  0.74752931608E-03  0.96833643111E-02 -0.32342847030E-01  0.33769603173E-01  0.00000000000E+00 0.  1.
     999901    1    3    3    0    0 -0.69390707651E-01 -0.62142809207E-01  0.11058007101E+00  0.89179860459E+00  0.88000000000E+00 0. -1.
        -11    1    4    4    0    0  0.49588229827E-01  0.26136993375E-01 -0.45098647913E-01  0.71946397579E-01  0.51100000000E-03 0. -1.
         11    1    4    4    0    0  0.19054948509E-01  0.26322451520E-01 -0.33138576064E-01  0.46415394658E-01  0.51100000000E-03 0.  1.
</event>
<event>
 8    1  0.1116841E+005  0.1043930E+01  0.7957747E-01            NaN
         13   -1    0    0    0    0  0.00000000000E+00  0.00000000000E+00  0.74505805969E-08  0.10566000000E+00  0.10566000000E+00 0. -1.
     999900   -1    0    0    0    0 -0.00000000000E+00 -0.00000000000E+00 -0.74505805969E-08  0.93827000000E+00  0.93827000000E+00 0.  1.
     999902    2    1    2    0    0  0.99235997509E-02  0.19485800802E-01  0.96272248430E-02  0.10200373709E+01  0.10197575106E+01 0.  0.
     999903    2    3    3    0    0  0.12397212122E+00 -0.34149821313E-01  0.16242029987E-01  0.13103365844E+00  0.19254063745E-01 0.  0.
         14    1    1    2    0    0 -0.99235997509E-02 -0.19485800802E-01 -0.96272248430E-02  0.23892629053E-01  0.00000000000E+00 0.  1.
     999901    1    3    3    0    0 -0.11404852147E+00  0.53635622115E-01 -0.66148051438E-02  0.88900371251E+00  0.88000000000E+00 0.  1.
        -11    1    4    4    0    0  0.71718148265E-01 -0.17857830326E-01 -0.96945086048E-04  0.73909846529E-01  0.51100000000E-03 0. -1.
         11    1    4    4    0    0  0.52253972951E-01 -0.16291990987E-01  0.16338975073E-01  0.57123811908E-01  0.51100000000E-03 0.  1.
</event>
<event>
 8    1  0.1116841E+005  0.1043930E+01  0.7957747E-01            NaN
         13   -1    0    0    0    0  0.00000000000E+00  0.00000000000E+00  0.74505805969E-08  0.10566000000E+00  0.10566000000E+00 0.  1.
     999900   -1    0    0    0    0 -0.00000000000E+00 -0.00000000000E+00 -0.74505805969E-08  0.93827000000E+00  0.93827000000E+00 0. -1.
     999902    2    1    2    0    0 -0.80156021020E-02 -0.19202801707E-01 -0.82632275599E-02  0.10215407526E+01  0.10212953690E+01 0.  0.
     999903    2    3    3    0    0 -0.15127740959E-01 -0.10743844402E+00  0.74576461063E-01  0.13322857485E+00  0.20404333118E-01 0.  0.
         14    1    1    2    0    0  0.80156021020E-02  0.19202801707E-01  0.82632275599E-02  0.22389247423E-01  0.00000000000E+00 0.  1.
     999901    1    3    3    0    0  0.71121388570E-02  0.88235642316E-01 -0.82839688623E-01  0.88831217773E+00  0.88000000000E+00 0.  1.
        -11    1    4    4    0    0 -0.45333906430E-02 -0.25299428814E-01  0.78720381178E-02  0.26885736630E-01  0.51100000000E-03 0. -1.
         11    1    4    4    0    0 -0.10594350316E-01 -0.82139015210E-01  0.66704422945E-01  0.10634283822E+00  0.51100000000E-03 0.  1.
</event>
<event>
 8    1  0.1116841E+005  0.1043930E+01  0.7957747E-01            NaN
         13   -1    0    0    0    0  0.00000000000E+00  0.00000000000E+00  0.74505805969E-08  0.10566000000E+00  0.10566000000E+00 0.  1.
     999900   -1    0    0    0    0 -0.00000000000E+00 -0.00000000000E+00 -0.74505805969E-08  0.93827000000E+00  0.93827000000E+00 0. -1.
     999902    2    1    2    0    0 -0.14400521889E-03  0.21467044533E-01 -0.13342655131E-01  0.10186539009E+01  0.10183402617E+01 0.  0.
     999903    2    3    3    0    0 -0.71906401456E-01  0.66006173122E-01 -0.85935598341E-01  0.13163456016E+00  0.20380993726E-01 0.  0.
         14    1    1    2    0    0  0.14400521889E-03 -0.21467044533E-01  0.13342655131E-01  0.25276099075E-01  0.00000000000E+00 0. -1.
     999901    1    3    3    0    0  0.71762396238E-01 -0.44539128589E-01  0.72592943210E-01  0.88701934077E+00  0.88000000000E+00 0.  1.
        -11    1    4    4    0    0 -0.72756646782E-01  0.62018720174E-01 -0.82328535798E-01  0.12616695380E+00  0.51100000000E-03 0. -1.
         11    1    4    4    0    0  0.85024532545E-03  0.39874529484E-02 -0.36070625434E-02  0.54676063612E-02  0.51100000000E-03 0.  1.
</event>
<event>
 8    1  0.1116841E+005  0.1043930E+01  0.7957747E-01            NaN
         13   -1    0    0    0    0  0.00000000000E+00  0.00000000000E+00  0.74505805969E-08  0.10566000000E+00  0.10566000000E+00 0.  1.
     999900   -1    0    0    0    0 -0.00000000000E+00 -0.00000000000E+00 -0.74505805969E-08  0.93827000000E+00  0.93827000000E+00 0. -1.
     999902    2    1    2    0    0  0.11597055697E-01 -0.10500332502E-01  0.17534643020E-01  0.10204308002E+01  0.10201601863E+01 0.  0.
     999903    2    3    3    0    0 -0.54357321773E-01  0.83100380491E-01  0.82526328528E-01  0.13063588423E+00  0.19868258083E-01 0.  0.
         14    1    1    2    0    0 -0.11597055697E-01  0.10500332502E-01 -0.17534643020E-01  0.23499199759E-01  0.00000000000E+00 0. -1.
     999901    1    3    3    0    0  0.65954377470E-01 -0.93600712992E-01 -0.64991685508E-01  0.88979491601E+00  0.88000000000E+00 0.  1.
        -11    1    4    4    0    0 -0.27414920453E-01  0.58864766124E-01  0.50341968237E-01  0.82165768062E-01  0.51100000000E-03 0.  1.
         11    1    4    4    0    0 -0.26942401320E-01  0.24235614367E-01  0.32184360291E-01  0.48470116164E-01  0.51100000000E-03 0. -1.
</event>
<event>
 8    1  0.1116841E+005  0.1043930E+01  0.7957747E-01            NaN
         13   -1    0    0    0    0  0.00000000000E+00  0.00000000000E+00  0.74505805969E-08  0.10566000000E+00  0.10566000000E+00 0.  1.
     999900   -1    0    0    0    0 -0.00000000000E+00 -0.00000000000E+00 -0.74505805969E-08  0.93827000000E+00  0.93827000000E+00 0.  1.
     999902    2    1    2    0    0 -0.22288668445E-01  0.62971838007E-02 -0.53602940136E-02  0.10201566532E+01  0.10198796130E+01 0.  0.
     999903    2    3    3    0    0  0.10728575934E-01  0.99317070136E-01 -0.82978307174E-01  0.13124305020E+00  0.18983045128E-01 0.  0.
         14    1    1    2    0    0  0.22288668445E-01 -0.62971838007E-02  0.53602940136E-02  0.23773346773E-01  0.00000000000E+00 0. -1.
     999901    1    3    3    0    0 -0.33017244379E-01 -0.93019886335E-01  0.77618013160E-01  0.88891360303E+00  0.88000000000E+00 0. -1.
        -11    1    4    4    0    0  0.94275834126E-02  0.49953465645E-01 -0.53158032761E-01  0.73554507862E-01  0.51100000000E-03 0. -1.
         11    1    4    4    0    0  0.13009925217E-02  0.49363604491E-01 -0.29820274413E-01  0.57688542337E-01  0.51100000000E-03 0.  1.
</event>
<event>
 8    1  0.1116841E+005  0.1043930E+01  0.7957747E-01            NaN
         13   -1    0    0    0    0  0.00000000000E+00  0.00000000000E+00  0.74505805969E-08  0.10566000000E+00  0.10566000000E+00 0. -1.
     999900   -1    0    0    0    0 -0.00000000000E+00 -0.00000000000E+00 -0.74505805969E-08  0.93827000000E+00  0.93827000000E+00 0.  1.
     999902    2    1    2    0    0  0.89548709907E-02  0.19753014945E-01 -0.73293580015E-02  0.10210369704E+01  0.10207802918E+01 0.  0.
     999903    2    3    3    0    0 -0.10755674498E+00  0.64415469373E-01  0.33269017996E-01  0.13130784333E+00  0.20423419766E-01 0.  0.
         14    1    1    2    0    0 -0.89548709907E-02 -0.19753014945E-01  0.73293580015E-02  0.22893029563E-01  0.00000000000E+00 0.  1.
     999901    1    3    3    0    0  0.11651161597E+00 -0.44662454428E-01 -0.40598375998E-01  0.88972912711E+00  0.88000000000E+00 0. -1.
        -11    1    4    4    0    0 -0.85856828333E-01  0.42336127460E-01  0.29177880731E-01  0.10007673308E+00  0.51100000000E-03 0.  1.
         11    1    4    4    0    0 -0.21699916651E-01  0.22079341913E-01  0.40911372647E-02  0.31231110244E-01  0.51100000000E-03 0. -1.
</event>
<event>
 8    1  0.1116841E+005  0.1043930E+01  0.7957747E-01            NaN
         13   -1    0    0    0    0  0.00000000000E+00  0.00000000000E+00  0.74505805969E-08  0.10566000000E+00  0.10566000000E+00 0. -1.
     999900   -1    0    0    0    0 -0.00000000000E+00 -0.00000000000E+00 -0.74505805969E-08  0.93827000000E+00  0.93827000000E+00 0.  1.
     999902    2    1    2    0    0  0.19272610691E-01 -0.63970526310E-02 -0.12583856300E-01  0.10200404784E+01  0.10197606916E+01 0.  0.
     999903    2    3    3    0    0 -0.93486976163E-01 -0.45679381852E-01 -0.75010929457E-01  0.12978491657E+00  0.19775348112E-01 0.  0.
         14    1    1    2    0    0 -0.19272610691E-01  0.63970526310E-02  0.12583856300E-01  0.23889521648E-01  0.00000000000E+00 0. -1.
     999901    1    3    3    0    0  0.11275958685E+00  0.39282329221E-01  0.62427073157E-01  0.89025556178E+00  0.88000000000E+00 0.  1.
        -11    1    4    4    0    0 -0.89657305584E-01 -0.39041453957E-01 -0.66169763272E-01  0.11807356293E+00  0.51100000000E-03 0. -1.
         11    1    4    4    0    0 -0.38296705791E-02 -0.66379278958E-02 -0.88411661857E-02  0.11711353637E-01  0.51100000000E-03 0.  1.
</event>
<event>
 8    1  0.1116841E+005  0.1043930E+01  0.7957747E-01            NaN
         13   -1    0    0    0    0  0.00000000000E+00  0.00000000000E+00  0.74505805969E-08  0.10566000000E+00  0.10566000000E+00 0. -1.
     999900   -1    0    0    0    0 -0.00000000000E+00 -0.00000000000E+00 -0.74505805969E-08  0.93827000000E+00  0.93827000000E+00 0.  1.
     999902    2    1    2    0    0 -0.98271998819E-02 -0.97545919403E-02 -0.15807036723E-01  0.10229159968E+01  0.10227001262E+01 0.  0.
     999903    2    3    3    0    0 -0.87378050351E-01 -0.97851644720E-01 -0.25081781360E-01  0.13507521938E+00  0.20158151644E-01 0.  0.
         14    1    1    2    0    0  0.98271998819E-02  0.97545919403E-02  0.15807036723E-01  0.21014003222E-01  0.00000000000E+00 0. -1.
     999901    1    3    3    0    0  0.77550850469E-01  0.88097052780E-01  0.92747446372E-02  0.88784077739E+00  0.88000000000E+00 0. -1.
        -11    1    4    4    0    0 -0.15519901890E-01 -0.26633615780E-01  0.42595960074E-04  0.30829852085E-01  0.51100000000E-03 0.  1.
         11    1    4    4    0    0 -0.71858148461E-01 -0.71218028940E-01 -0.25124377320E-01  0.10424536730E+00  0.51100000000E-03 0. -1.
</event>
<event>
 8    1  0.1116841E+005  0.1043930E+01  0.7957747E-01            NaN
         13   -1    0    0    0    0  0.00000000000E+00  0.00000000000E+00  0.74505805969E-08  0.10566000000E+00  0.10566000000E+00 0.  1.
     999900   -1    0    0    0    0 -0.00000000000E+00 -0.00000000000E+00 -0.74505805969E-08  0.93827000000E+00  0.93827000000E+00 0. -1.
     999902    2    1    2    0    0 -0.20538225810E-01  0.55929407289E-03 -0.11082693170E-01  0.10205856727E+01  0.10203186550E+01 0.  0.
     999903    2    3    3    0    0  0.80595856917E-02 -0.47172643860E-01 -0.12022308852E+00  0.13209943273E+00  0.26579199836E-01 0.  0.
         14    1    1    2    0    0  0.20538225810E-01 -0.55929407289E-03  0.11082693170E-01  0.23344327302E-01  0.00000000000E+00 0.  1.
     999901    1    3    3    0    0 -0.28597811502E-01  0.47731937932E-01  0.10914039535E+00  0.88848623997E+00  0.88000000000E+00 0.  1.
        -11    1    4    4    0    0  0.89659764998E-02 -0.10129726189E-01 -0.59012135997E-01  0.60544970090E-01  0.51100000000E-03 0.  1.
         11    1    4    4    0    0 -0.90639080804E-03 -0.37042917670E-01 -0.61210952520E-01  0.71554462637E-01  0.51100000000E-03 0. -1.
</event>
<event>
 8    1  0.1116841E+005  0.1043930E+01  0.7957747E-01            NaN
         13   -1    0    0    0    0  0.00000000000E+00  0.00000000000E+00  0.74505805969E-08  0.10566000000E+00  0.10566000000E+00 0.  1.
     999900   -1    0    0    0    0 -0.00000000000E+00 -0.00000000000E+00 -0.74505805969E-08  0.93827000000E+00  0.93827000000E+00 0. -1.
     999902    2    1    2    0    0  0.22309569474E-01 -0.37224263095E-02 -0.21742607837E-02  0.10212077475E+01  0.10209549269E+01 0.  0.
     999903    2    3    3    0    0 -0.11852884800E+00 -0.45639162067E-01  0.10394344069E-01  0.12893511968E+00  0.19601065694E-01 0.  0.
         14    1    1    2    0    0 -0.22309569474E-01  0.37224263095E-02  0.21742607837E-02  0.22722252478E-01  0.00000000000E+00 0.  1.
     999901    1    3    3    0    0  0.14083841747E+00  0.41916735758E-01 -0.12568604853E-01  0.89227262784E+00  0.88000000000E+00 0. -1.
        -11    1    4    4    0    0 -0.68183289070E-01 -0.36028793625E-01  0.91843616549E-02  0.77663688417E-01  0.51100000000E-03 0. -1.
         11    1    4    4    0    0 -0.50345558925E-01 -0.96103684425E-02  0.12099824145E-02  0.51271431261E-01  0.51100000000E-03 0.  1.
</event>
<event>
 8    1  0.1116841E+005  0.1043930E+01  0.7957747E-01            NaN
         13   -1    0    0    0    0  0.00000000000E+00  0.00000000000E+00  0.74505805969E-08  0.10566000000E+00  0.10566000000E+00 0. -1.
     999900   -1    0    0    0    0 -0.00000000000E+00 -0.00000000000E+00 -0.74505805969E-08  0.93827000000E+00  0.93827000000E+00 0.  1.
     999902    2    1    2    0    0  0.20545937537E-01  0.12874705014E-01  0.62351940033E-03  0.10196754673E+01  0.10193869610E+01 0.  0.
     999903    2    3    3    0    0 -0.11926349506E-01  0.10186110127E+00  0.79075859181E-01  0.13112169982E+00  0.20542319601E-01 0.  0.
         14    1    1    2    0    0 -0.20545937537E-01 -0.12874705014E-01 -0.62351940033E-03  0.24254532668E-01  0.00000000000E+00 0. -1.
     999901    1    3    3    0    0  0.32472287043E-01 -0.88986396252E-01 -0.78452339781E-01  0.88855376751E+00  0.88000000000E+00 0.  1.
        -11    1    4    4    0    0 -0.17588307170E-01  0.67327937534E-01  0.53319238104E-01  0.87667565238E-01  0.51100000000E-03 0. -1.
         11    1    4    4    0    0  0.56619576641E-02  0.34533163732E-01  0.25756621077E-01  0.43454134582E-01  0.51100000000E-03 0.  1.
</event>
<event>
 8    1  0.1116841E+005  0.1043930E+01  0.7957747E-01            NaN
         13   -1    0    0    0    0  0.00000000000E+00  0.00000000000E+00  0.74505805969E-08  0.10566000000E+00  0.10566000000E+00 0. -1.
     999900   -1    0    0    0    0 -0.00000000000E+00 -0.00000000000E+00 -0.74505805969E-08  0.93827000000E+00  0.93827000000E+00 0. -1.
     999902    2    1    2    0    0 -0.22984830682E-01  0.66146385331E-03 -0.39326244455E-02  0.10206017872E+01  0.10203351423E+01 0.  0.
     999903    2    3    3    0    0  0.43128938409E-01  0.11101525788E+00 -0.47887044600E-01  0.13016314175E+00  0.21558794470E-01 0.  0.
         14    1    1    2    0    0  0.22984830682E-01 -0.66146385331E-03  0.39326244455E-02  0.23328212767E-01  0.00000000000E+00 0. -1.
     999901    1    3    3    0    0 -0.66113769091E-01 -0.11035379403E+00  0.43954420155E-01  0.89043864548E+00  0.88000000000E+00 0. -1.
        -11    1    4    4    0    0  0.30619913412E-01  0.57149641552E-01 -0.33692209620E-01  0.73069054578E-01  0.51100000000E-03 0. -1.
         11    1    4    4    0    0  0.12509024998E-01  0.53865616327E-01 -0.14194834980E-01  0.57094087171E-01  0.51100000000E-03 0.  1.
</event>
<event>
 8    1  0.1116841E+005  0.1043930E+01  0.7957747E-01            NaN
         13   -1    0    0    0    0  0.00000000000E+00  0.00000000000E+00  0.74505805969E-08  0.10566000000E+00  0.10566000000E+00 0.  1.
     999900   -1    0    0    0    0 -0.00000000000E+00 -0.00000000000E+00 -0.74505805969E-08  0.93827000000E+00  0.93827000000E+00 0. -1.
     999902    2    1    2    0    0  0.15163068864E-01 -0.17532944450E-01  0.36184723112E-02  0.10204690507E+01  0.10201993273E+01 0.  0.
     999903    2    3    3    0    0 -0.12279740490E-01  0.20753187606E-01 -0.12627900612E+00  0.12968720842E+00  0.17055726885E-01 0.  0.
         14    1    1    2    0    0 -0.15163068864E-01  0.17532944450E-01 -0.36184723112E-02  0.23460949263E-01  0.00000000000E+00 0.  1.
     999901    1    3    3    0    0  0.27442809355E-01 -0.38286132056E-01  0.12989747843E+00  0.89078184231E+00  0.88000000000E+00 0.  1.
        -11    1    4    4    0    0 -0.11314464733E-01  0.71219417792E-02 -0.36542239994E-01  0.38914465070E-01  0.51100000000E-03 0. -1.
         11    1    4    4    0    0 -0.96527575716E-03  0.13631245827E-01 -0.89736766126E-01  0.90772743353E-01  0.51100000000E-03 0.  1.
</event>
<event>
 8    1  0.1116841E+005  0.1043930E+01  0.7957747E-01            NaN
         13   -1    0    0    0    0  0.00000000000E+00  0.00000000000E+00  0.74505805969E-08  0.10566000000E+00  0.10566000000E+00 0. -1.
     999900   -1    0    0    0    0 -0.00000000000E+00 -0.00000000000E+00 -0.74505805969E-08  0.93827000000E+00  0.93827000000E+00 0. -1.
     999902    2    1    2    0    0 -0.10314529833E-01  0.20533652693E-01  0.15039583878E-02  0.10209021406E+01  0.10206423949E+01 0.  0.
     999903    2    3    3    0    0  0.10226431045E+00  0.54641203144E-01 -0.58082203090E-01  0.13107753375E+00  0.19082119020E-01 0.  0.
         14    1    1    2    0    0  0.10314529833E-01 -0.20533652693E-01 -0.15039583878E-02  0.23027859419E-01  0.00000000000E+00 0. -1.
     999901    1    3    3    0    0 -0.11257884028E+00 -0.34107550451E-01  0.59586161478E-01  0.88982460683E+00  0.88000000000E+00 0.  1.
        -11    1    4    4    0    0  0.45490237344E-01  0.28166141001E-01 -0.16917174384E-01  0.56117244254E-01  0.51100000000E-03 0.  1.
         11    1    4    4    0    0  0.56774073105E-01  0.26475062143E-01 -0.41165028706E-01  0.74960289499E-01  0.51100000000E-03 0. -1.
</event>
<event>
 8    1  0.1116841E+005  0.1043930E+01  0.7957747E-01            NaN
         13   -1    0    0    0    0  0.00000000000E+00  0.00000000000E+00  0.74505805969E-08  0.10566000000E+00  0.10566000000E+00 0. -1.
     999900   -1    0    0    0    0 -0.00000000000E+00 -0.00000000000E+00 -0.74505805969E-08  0.93827000000E+00  0.93827000000E+00 0. -1.
     999902    2    1    2    0    0  0.25936411339E-02  0.30374594144E-02 -0.22500658117E-01  0.10210775877E+01  0.10208218293E+01 0.  0.
     999903    2    3    3    0    0 -0.10873071902E-01 -0.37119232630E-01 -0.12658242208E+00  0.13393220732E+00  0.20461316016E-01 0.  0.
         14    1    1    2    0    0 -0.25936411339E-02 -0.30374594144E-02  0.22500658117E-01  0.22852412339E-01  0.00000000000E+00 0. -1.
     999901    1    3    3    0    0  0.13466713036E-01  0.40156692045E-01  0.10408176396E+00  0.88714538034E+00  0.88000000000E+00 0.  1.
        -11    1    4    4    0    0 -0.12975050502E-01 -0.21310956371E-01 -0.52210608788E-01  0.57868105101E-01  0.51100000000E-03 0.  1.
         11    1    4    4    0    0  0.21019786002E-02 -0.15808276259E-01 -0.74371813293E-01  0.76064102216E-01  0.51100000000E-03 0. -1.
</event>
<event>
 8    1  0.1116841E+005  0.1043930E+01  0.7957747E-01            NaN
         13   -1    0    0    0    0  0.00000000000E+00  0.00000000000E+00  0.74505805969E-08  0.10566000000E+00  0.10566000000E+00 0.  1.
     999900   -1    0    0    0    0 -0.00000000000E+00 -0.00000000000E+00 -0.74505805969E-08  0.93827000000E+00  0.93827000000E+00 0.  1.
     999902    2    1    2    0    0  0.23922926401E-01 -0.11278493143E-01 -0.18303173828E-02  0.10174184765E+01  0.10170730040E+01 0.  0.
     999903    2    3    3    0    0 -0.64629368994E-01 -0.78990813981E-01 -0.73879415702E-01  0.12746480359E+00  0.19302954658E-01 0.  0.
         14    1    1    2    0    0 -0.23922926401E-01  0.11278493143E-01  0.18303173828E-02  0.26511523474E-01  0.00000000000E+00 0. -1.
     999901    1    3    3    0    0  0.88552295395E-01  0.67712320838E-01  0.72049098319E-01  0.88995367294E+00  0.88000000000E+00 0. -1.
        -11    1    4    4    0    0 -0.46071809137E-01 -0.67310574042E-01 -0.53686008684E-01  0.97651285830E-01  0.51100000000E-03 0.  1.
         11    1    4    4    0    0 -0.18557559858E-01 -0.11680239940E-01 -0.20193407018E-01  0.29813517755E-01  0.51100000000E-03 0. -1.
</event>
<event>
 8    1  0.1116841E+005  0.1043930E+01  0.7957747E-01            NaN
         13   -1    0    0    0    0  0.00000000000E+00  0.00000000000E+00  0.74505805969E-08  0.10566000000E+00  0.10566000000E+00 0.  1.
     999900   -1    0    0    0    0 -0.00000000000E+00 -0.00000000000E+00 -0.74505805969E-08  0.93827000000E+00  0.93827000000E+00 0.  1.
     999902    2    1    2    0    0 -0.38814371510E-02  0.22265906985E-01  0.50918540189E-02  0.10207618506E+01  0.10204988939E+01 0.  0.
     999903    2    3    3    0    0  0.33161293052E-01  0.25984037380E-01 -0.12221331559E+00  0.13082219280E+00  0.20087560014E-01 0.  0.
         14    1    1    2    0    0  0.38814371510E-02 -0.22265906985E-01 -0.50918540189E-02  0.23168149377E-01  0.00000000000E+00 0. -1.
     999901    1    3    3    0    0 -0.37042730203E-01 -0.37181303954E-02  0.12730516961E+00  0.88993965782E+00  0.88000000000E+00 0. -1.
        -11    1    4    4    0    0  0.17084545000E-01  0.24775150162E-01 -0.70637337877E-01  0.76782708775E-01  0.51100000000E-03 0.  1.
         11    1    4    4    0    0  0.16076748052E-01  0.12088872186E-02 -0.51575977709E-01  0.54039484027E-01  0.51100000000E-03 0. -1.
</event>
<event>
 8    1  0.1116841E+005  0.1043930E+01  0.7957747E-01            NaN
         13   -1    0    0    0    0  0.00000000000E+00  0.00000000000E+00  0.74505805969E-08  0.10566000000E+00  0.10566000000E+00 0.  1.
     999900   -1    0    0    0    0 -0.00000000000E+00 -0.00000000000E+00 -0.74505805969E-08  0.93827000000E+00  0.93827000000E+00 0.  1.
     999902    2    1    2    0    0 -0.46716183715E-02 -0.19274493279E-01  0.14037227329E-01  0.10196323898E+01  0.10193428454E+01 0.  0.
     999903    2    3    3    0    0 -0.22562978090E-01  0.10332227535E+00 -0.67401908742E-01  0.12722978936E+00  0.21443447363E-01 0.  0.
         14    1    1    2    0    0  0.46716183715E-02  0.19274493279E-01 -0.14037227329E-01  0.24297610180E-01  0.00000000000E+00 0. -1.
     999901    1    3    3    0    0  0.17891359718E-01 -0.12259676862E+00  0.81439136072E-01  0.89240260046E+00  0.88000000000E+00 0. -1.
        -11    1    4    4    0    0 -0.10010470473E-01  0.85599125725E-01 -0.53598247683E-01  0.10149114799E+00  0.51100000000E-03 0. -1.
         11    1    4    4    0    0 -0.12552507617E-01  0.17723149621E-01 -0.13803661059E-01  0.25738641370E-01  0.51100000000E-03 0.  1.
</event>
<event>
 8    1  0.1116841E+005  0.1043930E+01  0.7957747E-01            NaN
         13   -1    0    0    0    0  0.00000000000E+00  0.00000000000E+00  0.74505805969E-08  0.10566000000E+00  0.10566000000E+00 0. -1.
     999900   -1    0    0    0    0 -0.00000000000E+00 -0.00000000000E+00 -0.74505805969E-08  0.93827000000E+00  0.93827000000E+00 0. -1.
     999902    2    1    2    0    0  0.17756046163E-01 -0.21624541487E-01  0.52121899247E-02  0.10154683610E+01  0.10150694200E+01 0.  0.
     999903    2    3    3    0    0 -0.11855883169E+00 -0.62628503708E-02 -0.30628881624E-01  0.12411977046E+00  0.19291686376E-01 0.  0.
         14    1    1    2    0    0 -0.17756046163E-01  0.21624541487E-01 -0.52121899247E-02  0.28461638985E-01  0.00000000000E+00 0.  1.
     999901    1    3    3    0    0  0.13631487785E+00 -0.15361691116E-01  0.35841071549E-01  0.89134859056E+00  0.88000000000E+00 0.  1.
        -11    1    4    4    0    0 -0.89013863533E-01 -0.90096823256E-02 -0.15477565372E-01  0.90799000146E-01  0.51100000000E-03 0. -1.
         11    1    4    4    0    0 -0.29544968155E-01  0.27468319548E-02 -0.15151316252E-01  0.33320770313E-01  0.51100000000E-03 0.  1.
</event>
<event>
 8    1  0.1116841E+005  0.1043930E+01  0.7957747E-01            NaN
         13   -1    0    0    0    0  0.00000000000E+00  0.00000000000E+00  0.74505805969E-08  0.10566000000E+00  0.10566000000E+00 0. -1.
     999900   -1    0    0    0    0 -0.00000000000E+00 -0.00000000000E+00 -0.74505805969E-08  0.93827000000E+00  0.93827000000E+00 0.  1.
     999902    2    1    2    0    0  0.23589128091E-01  0.14790619180E-02 -0.67270593495E-03  0.10202849768E+01  0.10200109542E+01 0.  0.
     999903    2    3    3    0    0  0.82341807724E-01  0.23929564292E-01 -0.98663282380E-01  0.13261496183E+00  0.22349216219E-01 0.  0.
         14    1    1    2    0    0 -0.23589128091E-01 -0.14790619180E-02  0.67270593495E-03  0.23645023187E-01  0.00000000000E+00 0. -1.
     999901    1    3    3    0    0 -0.58752679633E-01 -0.22450502374E-01  0.97990576446E-01  0.88767001498E+00  0.88000000000E+00 0. -1.
        -11    1    4    4    0    0  0.64332934013E-01  0.11107110397E-01 -0.82586414327E-01  0.10527521671E+00  0.51100000000E-03 0.  1.
         11    1    4    4    0    0  0.18008873711E-01  0.12822453896E-01 -0.16076868053E-01  0.27339745127E-01  0.51100000000E-03 0. -1.
</event>
<event>
 8    1  0.1116841E+005  0.1043930E+01  0.7957747E-01            NaN
         13   -1    0    0    0    0  0.00000000000E+00  0.00000000000E+00  0.74505805969E-08  0.10566000000E+00  0.10566000000E+00 0.  1.
     999900   -1    0    0    0    0 -0.00000000000E+00 -0.00000000000E+00 -0.74505805969E-08  0.93827000000E+00  0.93827000000E+00 0. -1.
     999902    2    1    2    0    0  0.42354848954E-03  0.16620357106E-01 -0.17077614969E-01  0.10200959782E+01  0.10198175053E+01 0.  0.
     999903    2    3    3    0    0  0.98881567717E-01 -0.49302471341E-01  0.62552693697E-01  0.12859119023E+00  0.20360663078E-01 0.  0.
         14    1    1    2    0    0 -0.42354848954E-03 -0.16620357106E-01  0.17077614969E-01  0.23834021832E-01  0.00000000000E+00 0.  1.
     999901    1    3    3    0    0 -0.98458019227E-01  0.65922828448E-01 -0.79630308667E-01  0.89150478794E+00  0.88000000000E+00 0. -1.
        -11    1    4    4    0    0  0.38395085805E-01 -0.24069402222E-01  0.15448352821E-01  0.47879342760E-01  0.51100000000E-03 0.  1.
         11    1    4    4    0    0  0.60486481912E-01 -0.25233069120E-01  0.47104340876E-01  0.80711847468E-01  0.51100000000E-03 0. -1.
</event>
<event>
 8    1  0.1116841E+005  0.1043930E+01  0.7957747E-01            NaN
         13   -1    0    0    0    0  0.00000000000E+00  0.00000000000E+00  0.74505805969E-08  0.10566000000E+00  0.10566000000E+00 0. -1.
     999900   -1    0    0    0    0 -0.00000000000E+00 -0.00000000000E+00 -0.74505805969E-08  0.93827000000E+00  0.93827000000E+00 0.  1.
     999902    2    1    2    0    0 -0.16193767820E-01  0.11089279938E-02 -0.17838552628E-01  0.10198119197E+01  0.10195266891E+01 0.  0.
     999903    2    3    3    0    0  0.89512029475E-01  0.74531154140E-01 -0.53661931693E-01  0.12972885989E+00  0.19562152671E-01 0.  0.
         14    1    1    2    0    0  0.16193767820E-01 -0.11089279938E-02  0.17838552628E-01  0.24118080300E-01  0.00000000000E+00 0. -1.
     999901    1    3    3    0    0 -0.10570579729E+00 -0.73422226146E-01  0.35823379065E-01  0.89008305981E+00  0.88000000000E+00 0.  1.
        -11    1    4    4    0    0  0.41837207510E-01  0.43634819301E-01 -0.19917455608E-01  0.63649945378E-01  0.51100000000E-03 0.  1.
         11    1    4    4    0    0  0.47674821965E-01  0.30896334839E-01 -0.33744476085E-01  0.66078914512E-01  0.51100000000E-03 0. -1.
</event>
<event>
 8    1  0.1116841E+005  0.1043930E+01  0.7957747E-01            NaN
         13   -1    0    0    0    0  0.00000000000E+00  0.00000000000E+00  0.74505805969E-08  0.10566000000E+00  0.10566000000E+00 0. -1.
     999900   -1    0    0    0    0 -0.00000000000E+00 -0.00000000000E+00 -0.74505805969E-08  0.93827000000E+00  0.93827000000E+00 0.  1.
     999902    2    1    2    0    0 -0.20286418257E-01 -0.65429046523E-02  0.85536239976E-02  0.10209623521E+01  0.10207039784E+01 0.  0.
     999903    2    3    3    0    0  0.78248815674E-01  0.31866249824E-01  0.96719866036E-01  0.13025603590E+00  0.21761603089E-01 0.  0.
         14    1    1    2    0    0  0.20286418257E-01  0.65429046523E-02 -0.85536239976E-02  0.22967647910E-01  0.00000000000E+00 0.  1.
     999901    1    3    3    0    0 -0.98535233932E-01 -0.38409154476E-01 -0.88166242038E-01  0.89070631619E+00  0.88000000000E+00 0.  1.
        -11    1    4    4    0    0  0.31112142349E-01  0.22408854717E-01  0.51878345009E-01  0.64511595648E-01  0.51100000000E-03 0.  1.
         11    1    4    4    0    0  0.47136673326E-01  0.94573951067E-02  0.44841521027E-01  0.65744440247E-01  0.51100000000E-03 0. -1.
</event>
<event>
 8    1  0.1116841E+005  0.1043930E+01  0.7957747E-01            NaN
         13   -1    0    0    0    0  0.00000000000E+00  0.00000000000E+00  0.74505805969E-08  0.10566000000E+00  0.10566000000E+00 0. -1.
     999900   -1    0    0    0    0 -0.00000000000E+00 -0.00000000000E+00 -0.74505805969E-08  0.93827000000E+00  0.93827000000E+00 0. -1.
     999902    2    1    2    0    0 -0.79507321572E-02  0.29983375490E-01  0.59944507161E-02  0.10123364819E+01  0.10118433684E+01 0.  0.
     999903    2    3    3    0    0 -0.78405731445E-01 -0.66142753949E-01 -0.62468923651E-01  0.12166742251E+00  0.19449232784E-01 0.  0.
         14    1    1    2    0    0  0.79507321572E-02 -0.29983375490E-01 -0.59944507161E-02  0.31593518117E-01  0.00000000000E+00 0.  1.
     999901    1    3    3    0    0  0.70454999288E-01  0.96126129439E-01  0.68463374368E-01  0.89066905937E+00  0.88000000000E+00 0. -1.
        -11    1    4    4    0    0 -0.54626566570E-01 -0.46327151173E-01 -0.32771481557E-01  0.78768634846E-01  0.51100000000E-03 0.  1.
         11    1    4    4    0    0 -0.23779164875E-01 -0.19815602776E-01 -0.29697442094E-01  0.42898787669E-01  0.51100000000E-03 0. -1.
</event>
<event>
 8    1  0.1116841E+005  0.1043930E+01  0.7957747E-01            NaN
         13   -1    0    0    0    0  0.00000000000E+00  0.00000000000E+00  0.74505805969E-08  0.10566000000E+00  0.10566000000E+00 0. -1.
     999900   -1    0    0    0    0 -0.00000000000E+00 -0.00000000000E+00 -0.74505805969E-08  0.93827000000E+00  0.93827000000E+00 0. -1.
     999902    2    1    2    0    0  0.42109721199E-02  0.54595621319E-02 -0.23190192866E-01  0.10197365267E+01  0.10194494886E+01 0.  0.
     999903    2    3    3    0    0 -0.92146205108E-01 -0.16907226666E-01  0.84149978130E-01  0.12771248490E+00  0.21271637258E-01 0.  0.
         14    1    1    2    0    0 -0.42109721199E-02 -0.54595621319E-02  0.23190192866E-01  0.24193473294E-01  0.00000000000E+00 0. -1.
     999901    1    3    3    0    0  0.96357177228E-01  0.22366788798E-01 -0.10734017100E+00  0.89202404180E+00  0.88000000000E+00 0. -1.
        -11    1    4    4    0    0 -0.60267135971E-01 -0.19660216675E-01  0.62855412198E-01  0.89273264539E-01  0.51100000000E-03 0.  1.
         11    1    4    4    0    0 -0.31879069137E-01  0.27529900085E-02  0.21294565932E-01  0.38439220365E-01  0.51100000000E-03 0. -1.
</event>
<event>
 8    1  0.1116841E+005  0.1043930E+01  0.7957747E-01            NaN
         13   -1    0    0    0    0  0.00000000000E+00  0.00000000000E+00  0.74505805969E-08  0.10566000000E+00  0.10566000000E+00 0. -1.
     999900   -1    0    0    0    0 -0.00000000000E+00 -0.00000000000E+00 -0.74505805969E-08  0.93827000000E+00  0.93827000000E+00 0.  1.
     999902    2    1    2    0    0  0.21560278701E-01 -0.10187736642E-01 -0.43529181620E-02  0.10196898785E+01  0.10194017190E+01 0.  0.
     999903    2    3    3    0    0  0.54727478999E-01 -0.11848156068E+00 -0.10943945510E-01  0.13240691506E+00  0.19463916219E-01 0.  0.
         14    1    1    2    0    0 -0.21560278701E-01  0.10187736642E-01  0.43529181620E-02  0.24240121536E-01  0.00000000000E+00 0. -1.
     999901    1    3    3    0    0 -0.33167200298E-01  0.10829382404E+00  0.65910273475E-02  0.88728296340E+00  0.88000000000E+00 0.  1.
        -11    1    4    4    0    0  0.21498926935E-01 -0.65118657762E-01 -0.11524444489E-01  0.69539322616E-01  0.51100000000E-03 0.  1.
         11    1    4    4    0    0  0.33228552064E-01 -0.53362902917E-01  0.58049897962E-03  0.62867592447E-01  0.51100000000E-03 0. -1.
</event>
<event>
 8    1  0.1116841E+005  0.1043930E+01  0.7957747E-01            NaN
         13   -1    0    0    0    0  0.00000000000E+00  0.00000000000E+00  0.74505805969E-08  0.10566000000E+00  0.10566000000E+00 0. -1.
     999900   -1    0    0    0    0 -0.00000000000E+00 -0.00000000000E+00 -0.74505805969E-08  0.93827000000E+00  0.93827000000E+00 0. -1.
     999902    2    1    2    0    0 -0.22371041380E-01  0.22116605800E-02 -0.40814064138E-02  0.10210824003E+01  0.10208267509E+01 0.  0.
     999903    2    3    3    0    0 -0.48869957066E-01  0.12051997456E+00 -0.17285372542E-01  0.13267180015E+00  0.19740452902E-01 0.  0.
         14    1    1    2    0    0  0.22371041380E-01 -0.22116605800E-02  0.40814064138E-02  0.22847599726E-01  0.00000000000E+00 0. -1.
     999901    1    3    3    0    0  0.26498915687E-01 -0.11830831398E+00  0.13203966128E-01  0.88841060012E+00  0.88000000000E+00 0. -1.
        -11    1    4    4    0    0 -0.36602742642E-01  0.64260217028E-01 -0.93861369549E-02  0.74548621378E-01  0.51100000000E-03 0.  1.
         11    1    4    4    0    0 -0.12267214424E-01  0.56259757528E-01 -0.78992355868E-02  0.58123178774E-01  0.51100000000E-03 0. -1.
</event>
<event>
 8    1  0.1116841E+005  0.1043930E+01  0.7957747E-01            NaN
         13   -1    0    0    0    0  0.00000000000E+00  0.00000000000E+00  0.74505805969E-08  0.10566000000E+00  0.10566000000E+00 0.  1.
     999900   -1    0    0    0    0 -0.00000000000E+00 -0.00000000000E+00 -0.74505805969E-08  0.93827000000E+00  0.93827000000E+00 0.  1.
     999902    2    1    2    0    0  0.17475473567E-02  0.21882345628E-01 -0.81788609047E-02  0.10205038450E+01  0.10202349303E+01 0.  0.
     999903    2    3    3    0    0  0.41703085808E-01  0.12110742418E+00  0.30993835377E-01  0.13316143004E+00  0.19110025192E-01 0.  0.
         14    1    1    2    0    0 -0.17475473567E-02 -0.21882345628E-01  0.81788609047E-02  0.23426154990E-01  0.00000000000E+00 0.  1.
     999901    1    3    3    0    0 -0.39955538452E-01 -0.99225078549E-01 -0.39172696282E-01  0.88734241497E+00  0.88000000000E+00 0.  1.
        -11    1    4    4    0    0  0.25994316423E-01  0.46947635547E-01  0.11408576103E-01  0.54865305061E-01  0.51100000000E-03 0. -1.
         11    1    4    4    0    0  0.15708769385E-01  0.74159788630E-01  0.19585259275E-01  0.78296124981E-01  0.51100000000E-03 0.  1.
</event>
<event>
 8    1  0.1116841E+005  0.1043930E+01  0.7957747E-01            NaN
         13   -1    0    0    0    0  0.00000000000E+00  0.00000000000E+00  0.74505805969E-08  0.10566000000E+00  0.10566000000E+00 0. -1.
     999900   -1    0    0    0    0 -0.00000000000E+00 -0.00000000000E+00 -0.74505805969E-08  0.93827000000E+00  0.93827000000E+00 0.  1.
     999902    2    1    2    0    0  0.26723465834E-01  0.93505089453E-02 -0.24259019322E-01  0.10066462815E+01  0.10059555957E+01 0.  0.
     999903    2    3    3    0    0  0.10949891579E+00 -0.45467352708E-01  0.83393889962E-02  0.12046377816E+00  0.19613355638E-01 0.  0.
         14    1    1    2    0    0 -0.26723465834E-01 -0.93505089453E-02  0.24259019322E-01  0.37283718460E-01  0.00000000000E+00 0. -1.
     999901    1    3    3    0    0 -0.82775449952E-01  0.54817861653E-01 -0.32598408318E-01  0.88618250338E+00  0.88000000000E+00 0. -1.
        -11    1    4    4    0    0  0.35883082373E-01 -0.20944125805E-01  0.10431925009E-01  0.42840847176E-01  0.51100000000E-03 0. -1.
         11    1    4    4    0    0  0.73615833412E-01 -0.24523226903E-01 -0.20925360126E-02  0.77622930985E-01  0.51100000000E-03 0.  1.
</event>
<event>
 8    1  0.1116841E+005  0.1043930E+01  0.7957747E-01            NaN
         13   -1    0    0    0    0  0.00000000000E+00  0.00000000000E+00  0.74505805969E-08  0.10566000000E+00  0.10566000000E+00 0.  1.
     999900   -1    0    0    0    0 -0.00000000000E+00 -0.00000000000E+00 -0.74505805969E-08  0.93827000000E+00  0.93827000000E+00 0. -1.
     999902    2    1    2    0    0 -0.35053036248E-02  0.13160065531E-01 -0.35412359352E-01  0.10059891293E+01  0.10052734049E+01 0.  0.
     999903    2    3    3    0    0 -0.84108094340E-01 -0.27201164292E-01  0.70666014058E-01  0.11504667317E+00  0.20687595132E-01 0.  0.
         14    1    1    2    0    0  0.35053036248E-02 -0.13160065531E-01  0.35412359352E-01  0.37940870749E-01  0.00000000000E+00 0.  1.
     999901    1    3    3    0    0  0.80602790715E-01  0.40361229823E-01 -0.10607837341E+00  0.89094245608E+00  0.88000000000E+00 0.  1.
        -11    1    4    4    0    0 -0.25302176548E-01 -0.18038610588E-01  0.20755980054E-01  0.37371960599E-01  0.51100000000E-03 0. -1.
         11    1    4    4    0    0 -0.58805917792E-01 -0.91625537038E-02  0.49910034003E-01  0.77674712571E-01  0.51100000000E-03 0.  1.
</event>
<event>
 8    1  0.1116841E+005  0.1043930E+01  0.7957747E-01            NaN
         13   -1    0    0    0    0  0.00000000000E+00  0.00000000000E+00  0.74505805969E-08  0.10566000000E+00  0.10566000000E+00 0. -1.
     999900   -1    0    0    0    0 -0.00000000000E+00 -0.00000000000E+00 -0.74505805969E-08  0.93827000000E+00  0.93827000000E+00 0. -1.
     999902    2    1    2    0    0  0.10449402277E-02  0.17431972014E-01  0.16016105771E-01  0.10202344056E+01  0.10199591959E+01 0.  0.
     999903    2    3    3    0    0 -0.13772272282E-01 -0.26677338674E-02 -0.12611272687E+00  0.12848099071E+00  0.20153233146E-01 0.  0.
         14    1    1    2    0    0 -0.10449402277E-02 -0.17431972014E-01 -0.16016105771E-01  0.23695594367E-01  0.00000000000E+00 0.  1.
     999901    1    3    3    0    0  0.14817212510E-01  0.20099705881E-01  0.14212883264E+00  0.89175341493E+00  0.88000000000E+00 0.  1.
        -11    1    4    4    0    0 -0.67405645698E-02 -0.10291972532E-01 -0.92067572559E-01  0.92887345463E-01  0.51100000000E-03 0.  1.
         11    1    4    4    0    0 -0.70317077122E-02  0.76242386641E-02 -0.34045154313E-01  0.35593645244E-01  0.51100000000E-03 0. -1.
</event>
<event>
 8    1  0.1116841E+005  0.1043930E+01  0.7957747E-01            NaN
         13   -1    0    0    0    0  0.00000000000E+00  0.00000000000E+00  0.74505805969E-08  0.10566000000E+00  0.10566000000E+00 0. -1.
     999900   -1    0    0    0    0 -0.00000000000E+00 -0.00000000000E+00 -0.74505805969E-08  0.93827000000E+00  0.93827000000E+00 0.  1.
     999902    2    1    2    0    0 -0.15599723886E-01 -0.12545200513E-01  0.11487157412E-01  0.10208499604E+01  0.10205890228E+01 0.  0.
     999903    2    3    3    0    0  0.53832121821E-01 -0.11210665017E+00  0.39973997708E-01  0.13206159218E+00  0.19404774793E-01 0.  0.
         14    1    1    2    0    0  0.15599723886E-01  0.12545200513E-01 -0.11487157412E-01  0.23080039572E-01  0.00000000000E+00 0. -1.
     999901    1    3    3    0    0 -0.69431845707E-01  0.99561449659E-01 -0.28486840296E-01  0.88878836824E+00  0.88000000000E+00 0. -1.
        -11    1    4    4    0    0  0.45645448636E-01 -0.96532744454E-01  0.41112608625E-01  0.11442283619E+00  0.51100000000E-03 0. -1.
         11    1    4    4    0    0  0.81866731855E-02 -0.15573905719E-01 -0.11386109170E-02  0.17638755994E-01  0.51100000000E-03 0.  1.
</event>
<event>
 8    1  0.1116841E+005  0.1043930E+01  0.7957747E-01            NaN
         13   -1    0    0    0    0  0.00000000000E+00  0.00000000000E+00  0.74505805969E-08  0.10566000000E+00  0.10566000000E+00 0. -1.
     999900   -1    0    0    0    0 -0.00000000000E+00 -0.00000000000E+00 -0.74505805969E-08  0.93827000000E+00  0.93827000000E+00 0.  1.
     999902    2    1    2    0    0  0.11201844641E-01  0.16806260098E-01 -0.12143169429E-01  0.10203633230E+01  0.10200911345E+01 0.  0.
     999903    2    3    3    0    0 -0.11083235781E+00 -0.44045781534E-01  0.42578585666E-01  0.12818072507E+00  0.19837336339E-01 0.  0.
         14    1    1    2    0    0 -0.11201844641E-01 -0.16806260098E-01  0.12143169429E-01  0.23566677017E-01  0.00000000000E+00 0. -1.
     999901    1    3    3    0    0  0.12203420245E+00  0.60852041632E-01 -0.54721755095E-01  0.89218259791E+00  0.88000000000E+00 0.  1.
        -11    1    4    4    0    0 -0.75881431342E-02 -0.43070517504E-02 -0.19012064635E-02  0.89446250912E-02  0.51100000000E-03 0.  1.
         11    1    4    4    0    0 -0.10324421468E+00 -0.39738729783E-01  0.44479792129E-01  0.11923609998E+00  0.51100000000E-03 0. -1.
</event>
<event>
 8    1  0.1116841E+005  0.1043930E+01  0.7957747E-01            NaN
         13   -1    0    0    0    0  0.00000000000E+00  0.00000000000E+00  0.74505805969E-08  0.10566000000E+00  0.10566000000E+00 0.  1.
     999900   -1    0    0    0    0 -0.00000000000E+00 -0.00000000000E+00 -0.74505805969E-08  0.93827000000E+00  0.93827000000E+00 0. -1.
     999902    2    1    2    0    0 -0.10223147143E-01 -0.18162423876E-01  0.10855896785E-01  0.10204302793E+01  0.10201596532E+01 0.  0.
     999903    2    3    3    0    0  0.40142142411E-01 -0.12366491102E+00  0.16211035466E-01  0.13268250278E+00  0.20915235085E-01 0.  0.
         14    1    1    2    0    0  0.10223147143E-01  0.18162423876E-01 -0.10855896785E-01  0.23499720712E-01  0.00000000000E+00 0.  1.
     999901    1    3    3    0    0 -0.50365289554E-01  0.10550248714E+00 -0.53551386805E-02  0.88774777651E+00  0.88000000000E+00 0. -1.
        -11    1    4    4    0    0  0.16920432204E-01 -0.42008720539E-01  0.15223534963E-01  0.47781280488E-01  0.51100000000E-03 0.  1.
         11    1    4    4    0    0  0.23221710206E-01 -0.81656190479E-01  0.98750050344E-03  0.84901222292E-01  0.51100000000E-03 0. -1.
</event>
<event>
 8    1  0.1116841E+005  0.1043930E+01  0.7957747E-01            NaN
         13   -1    0    0    0    0  0.00000000000E+00  0.00000000000E+00  0.74505805969E-08  0.10566000000E+00  0.10566000000E+00 0.  1.
     999900   -1    0    0    0    0 -0.00000000000E+00 -0.00000000000E+00 -0.74505805969E-08  0.93827000000E+00  0.93827000000E+00 0. -1.
     999902    2    1    2    0    0 -0.21264947808E-01  0.99735123945E-02 -0.31701538832E-02  0.10202293918E+01  0.10199540642E+01 0.  0.
     999903    2    3    3    0    0 -0.12217420619E+00  0.36322792177E-01 -0.34497871273E-01  0.13351726890E+00  0.19770586259E-01 0.  0.
         14    1    1    2    0    0  0.21264947808E-01 -0.99735123945E-02  0.31701538832E-02  0.23700608229E-01  0.00000000000E+00 0.  1.
     999901    1    3    3    0    0  0.10090925839E+00 -0.26349279783E-01  0.31327717390E-01  0.88671212287E+00  0.88000000000E+00 0. -1.
        -11    1    4    4    0    0 -0.63390878121E-01  0.29109473145E-01 -0.18773615247E-01  0.72239010280E-01  0.51100000000E-03 0. -1.
         11    1    4    4    0    0 -0.58783328073E-01  0.72133190329E-02 -0.15724256026E-01  0.61278258619E-01  0.51100000000E-03 0.  1.
</event>
<event>
 8    1  0.1116841E+005  0.1043930E+01  0.7957747E-01            NaN
         13   -1    0    0    0    0  0.00000000000E+00  0.00000000000E+00  0.74505805969E-08  0.10566000000E+00  0.10566000000E+00 0. -1.
     999900   -1    0    0    0    0 -0.00000000000E+00 -0.00000000000E+00 -0.74505805969E-08  0.93827000000E+00  0.93827000000E+00 0. -1.
     999902    2    1    2    0    0  0.13161071169E-01 -0.11352866518E-01  0.17487150952E-01  0.10192743349E+01  0.10189760880E+01 0.  0.
     999903    2    3    3    0    0  0.47255762415E-01 -0.12031052251E+00 -0.13137449829E-01  0.13137113921E+00  0.19443629320E-01 0.  0.
         14    1    1    2    0    0 -0.13161071169E-01  0.11352866518E-01 -0.17487150952E-01  0.24655665088E-01  0.00000000000E+00 0.  1.
     999901    1    3    3    0    0 -0.34094691246E-01  0.10895765599E+00  0.30624600781E-01  0.88790319570E+00  0.88000000000E+00 0. -1.
        -11    1    4    4    0    0  0.41266911348E-01 -0.91175710760E-01 -0.36542021013E-02  0.10014780336E+00  0.51100000000E-03 0.  1.
         11    1    4    4    0    0  0.59888510675E-02 -0.29134811748E-01 -0.94832477278E-02  0.31223335843E-01  0.51100000000E-03 0. -1.
</event>
<event>
 8    1  0.1116841E+005  0.1043930E+01  0.7957747E-01            NaN
         13   -1    0    0    0    0  0.00000000000E+00  0.00000000000E+00  0.74505805969E-08  0.10566000000E+00  0.10566000000E+00 0.  1.
     999900   -1    0    0    0    0 -0.00000000000E+00 -0.00000000000E+00 -0.74505805969E-08  0.93827000000E+00  0.93827000000E+00 0. -1.
     999902    2    1    2    0    0  0.81008873593E-03 -0.22530347128E-01 -0.10723214898E-01  0.10189648218E+01  0.10186589458E+01 0.  0.
     999903    2    3    3    0    0 -0.50822776344E-01 -0.12417908058E-01  0.11536900837E+00  0.12842146914E+00  0.21092809382E-01 0.  0.
         14    1    1    2    0    0 -0.81008873593E-03  0.22530347128E-01  0.10723214898E-01  0.24965178213E-01  0.00000000000E+00 0.  1.
     999901    1    3    3    0    0  0.51632865080E-01 -0.10112439070E-01 -0.12609222327E+00  0.89054335265E+00  0.88000000000E+00 0. -1.
        -11    1    4    4    0    0 -0.38817197247E-01 -0.39107192974E-02  0.63734780482E-01  0.74729190358E-01  0.51100000000E-03 0.  1.
         11    1    4    4    0    0 -0.12005579097E-01 -0.85071887607E-02  0.51634227886E-01  0.53692278779E-01  0.51100000000E-03 0. -1.
</event>
<event>
 8    1  0.1116841E+005  0.1043930E+01  0.7957747E-01            NaN
         13   -1    0    0    0    0  0.00000000000E+00  0.00000000000E+00  0.74505805969E-08  0.10566000000E+00  0.10566000000E+00 0. -1.
     999900   -1    0    0    0    0 -0.00000000000E+00 -0.00000000000E+00 -0.74505805969E-08  0.93827000000E+00  0.93827000000E+00 0.  1.
     999902    2    1    2    0    0 -0.22801669368E-01  0.88873313845E-02  0.70139713701E-02  0.10184722589E+01  0.10181540383E+01 0.  0.
     999903    2    3    3    0    0 -0.50348949309E-01 -0.10406602806E+00 -0.53543594713E-01  0.12876189436E+00  0.18653525486E-01 0.  0.
         14    1    1    2    0    0  0.22801669368E-01 -0.88873313845E-02 -0.70139713701E-02  0.25457741052E-01  0.00000000000E+00 0.  1.
     999901    1    3    3    0    0  0.27547279941E-01  0.11295335944E+00  0.60557566083E-01  0.88971036459E+00  0.88000000000E+00 0. -1.
        -11    1    4    4    0    0 -0.27749150701E-01 -0.66193134618E-01 -0.24029421310E-01  0.75691615418E-01  0.51100000000E-03 0.  1.
         11    1    4    4    0    0 -0.22599798608E-01 -0.37872893438E-01 -0.29514173403E-01  0.53070278944E-01  0.51100000000E-03 0. -1.
</event>
<event>
 8    1  0.1116841E+005  0.1043930E+01  0.7957747E-01            NaN
         13   -1    0    0    0    0  0.00000000000E+00  0.00000000000E+00  0.74505805969E-08  0.10566000000E+00  0.10566000000E+00 0.  1.
     999900   -1    0    0    0    0 -0.00000000000E+00 -0.00000000000E+00 -0.74505805969E-08  0.93827000000E+00  0.93827000000E+00 0. -1.
     999902    2    1    2    0    0 -0.11292683523E-01 -0.13591907424E-01  0.15407634248E-01  0.10204851745E+01  0.10202158260E+01 0.  0.
     999903    2    3    3    0    0 -0.94176217865E-01  0.10529011528E-01 -0.87182176110E-01  0.13033003738E+00  0.20128753474E-01 0.  0.
         14    1    1    2    0    0  0.11292683523E-01  0.13591907424E-01 -0.15407634248E-01  0.23444825478E-01  0.00000000000E+00 0. -1.
     999901    1    3    3    0    0  0.82883534342E-01 -0.24120918952E-01  0.10258981036E+00  0.89015513714E+00  0.88000000000E+00 0.  1.
        -11    1    4    4    0    0 -0.17064054162E-01  0.64773655088E-02 -0.26195185201E-01  0.31930973319E-01  0.51100000000E-03 0. -1.
         11    1    4    4    0    0 -0.77112163703E-01  0.40516460193E-02 -0.60986990908E-01  0.98399064058E-01  0.51100000000E-03 0.  1.
</event>
<event>
 8    1  0.1116841E+005  0.1043930E+01  0.7957747E-01            NaN
         13   -1    0    0    0    0  0.00000000000E+00  0.00000000000E+00  0.74505805969E-08  0.10566000000E+00  0.10566000000E+00 0.  1.
     999900   -1    0    0    0    0 -0.00000000000E+00 -0.00000000000E+00 -0.74505805969E-08  0.93827000000E+00  0.93827000000E+00 0. -1.
     999902    2    1    2    0    0 -0.11175172015E-01  0.19899073911E-01  0.49197994418E-02  0.10205834363E+01  0.10203163668E+01 0.  0.
     999903    2    3    3    0    0  0.11901170846E+00  0.49423360542E-01 -0.49741963985E-02  0.13046086127E+00  0.19718985132E-01 0.  0.
         14    1    1    2    0    0  0.11175172015E-01 -0.19899073911E-01 -0.49197994418E-02  0.23346563743E-01  0.00000000000E+00 0. -1.
     999901    1    3    3    0    0 -0.13018688048E+00 -0.29524286631E-01  0.98939958404E-02  0.89012257499E+00  0.88000000000E+00 0. -1.
        -11    1    4    4    0    0  0.62339665230E-01  0.15529764812E-01 -0.12543767798E-03  0.64247056833E-01  0.51100000000E-03 0.  1.
         11    1    4    4    0    0  0.56672043233E-01  0.33893595730E-01 -0.48487587205E-02  0.66213804435E-01  0.51100000000E-03 0. -1.
</event>
<event>
 8    1  0.1116841E+005  0.1043930E+01  0.7957747E-01            NaN
         13   -1    0    0    0    0  0.00000000000E+00  0.00000000000E+00  0.74505805969E-08  0.10566000000E+00  0.10566000000E+00 0.  1.
     999900   -1    0    0    0    0 -0.00000000000E+00 -0.00000000000E+00 -0.74505805969E-08  0.93827000000E+00  0.93827000000E+00 0.  1.
     999902    2    1    2    0    0 -0.46092483190E-02  0.11849474869E-01  0.20769216469E-01  0.10195780888E+01  0.10192872331E+01 0.  0.
     999903    2    3    3    0    0  0.32398916328E-01 -0.36846747320E-01 -0.11525768309E+00  0.12702879400E+00  0.21085739863E-01 0.  0.
         14    1    1    2    0    0  0.46092483190E-02 -0.11849474869E-01 -0.20769216469E-01  0.24351911166E-01  0.00000000000E+00 0. -1.
     999901    1    3    3    0    0 -0.37008164647E-01  0.48696222188E-01  0.13602689956E+00  0.89254929483E+00  0.88000000000E+00 0. -1.
        -11    1    4    4    0    0  0.27842333406E-01 -0.18484742924E-01 -0.85052155749E-01  0.91383869304E-01  0.51100000000E-03 0.  1.
         11    1    4    4    0    0  0.45565829226E-02 -0.18362004396E-01 -0.30205527344E-01  0.35644924695E-01  0.51100000000E-03 0. -1.
</event>
<event>
 8    1  0.1116841E+005  0.1043930E+01  0.7957747E-01            NaN
         13   -1    0    0    0    0  0.00000000000E+00  0.00000000000E+00  0.74505805969E-08  0.10566000000E+00  0.10566000000E+00 0. -1.
     999900   -1    0    0    0    0 -0.00000000000E+00 -0.00000000000E+00 -0.74505805969E-08  0.93827000000E+00  0.93827000000E+00 0.  1.
     999902    2    1    2    0    0 -0.92367006013E-03 -0.12576146832E-01 -0.20321901272E-01  0.10200136393E+01  0.10197332162E+01 0.  0.
     999903    2    3    3    0    0 -0.18471465290E-01  0.13695394046E-01 -0.12921043682E+00  0.13273981907E+00  0.19893811451E-01 0.  0.
         14    1    1    2    0    0  0.92367006013E-03  0.12576146832E-01  0.20321901272E-01  0.23916360652E-01  0.00000000000E+00 0. -1.
     999901    1    3    3    0    0  0.17547795230E-01 -0.26271540879E-01  0.10888853555E+00  0.88727382028E+00  0.88000000000E+00 0. -1.
        -11    1    4    4    0    0 -0.17467315220E-01  0.16793330445E-01 -0.12531343042E+00  0.12763557503E+00  0.51100000000E-03 0.  1.
         11    1    4    4    0    0 -0.10041500704E-02 -0.30979363987E-02 -0.38970064016E-02  0.51042440369E-02  0.51100000000E-03 0. -1.
</event>
<event>
 8    1  0.1116841E+005  0.1043930E+01  0.7957747E-01            NaN
         13   -1    0    0    0    0  0.00000000000E+00  0.00000000000E+00  0.74505805969E-08  0.10566000000E+00  0.10566000000E+00 0.  1.
     999900   -1    0    0    0    0 -0.00000000000E+00 -0.00000000000E+00 -0.74505805969E-08  0.93827000000E+00  0.93827000000E+00 0.  1.
     999902    2    1    2    0    0 -0.52669472501E-02  0.96071905029E-02 -0.21560312340E-01  0.10197455854E+01  0.10194587647E+01 0.  0.
     999903    2    3    3    0    0 -0.10139024796E+00 -0.70499997079E-01  0.32403323871E-01  0.12925755936E+00  0.20181904889E-01 0.  0.
         14    1    1    2    0    0  0.52669472501E-02 -0.96071905029E-02  0.21560312340E-01  0.24184414628E-01  0.00000000000E+00 0.  1.
     999901    1    3    3    0    0  0.96123300705E-01  0.80107187582E-01 -0.53963636210E-01  0.89048802601E+00  0.88000000000E+00 0.  1.
        -11    1    4    4    0    0 -0.82848008709E-01 -0.60034864748E-01  0.34212818980E-01  0.10788306464E+00  0.51100000000E-03 0. -1.
         11    1    4    4    0    0 -0.18542239246E-01 -0.10465132332E-01 -0.18094951093E-02  0.21374494720E-01  0.51100000000E-03 0.  1.
</event>
<event>
 8    1  0.1116841E+005  0.1043930E+01  0.7957747E-01            NaN
         13   -1    0    0    0    0  0.00000000000E+00  0.00000000000E+00  0.74505805969E-08  0.10566000000E+00  0.10566000000E+00 0. -1.
     999900   -1    0    0    0    0 -0.00000000000E+00 -0.00000000000E+00 -0.74505805969E-08  0.93827000000E+00  0.93827000000E+00 0. -1.
     999902    2    1    2    0    0  0.39579466503E-02  0.14795868402E-01  0.15948260718E-01  0.10218182365E+01  0.10215789634E+01 0.  0.
     999903    2    3    3    0    0  0.61187431728E-01 -0.11342405437E+00 -0.32150754567E-03  0.13053810778E+00  0.20764785187E-01 0.  0.
         14    1    1    2    0    0 -0.39579466503E-02 -0.14795868402E-01 -0.15948260718E-01  0.22111763462E-01  0.00000000000E+00 0.  1.
     999901    1    3    3    0    0 -0.57229485078E-01  0.12821992278E+00  0.16269768264E-01  0.89128012876E+00  0.88000000000E+00 0. -1.
        -11    1    4    4    0    0  0.52310979871E-01 -0.10322078576E+00 -0.59669013963E-02  0.11587421741E+00  0.51100000000E-03 0. -1.
         11    1    4    4    0    0  0.88764518572E-02 -0.10203268614E-01  0.56453938507E-02  0.14663890368E-01  0.51100000000E-03 0.  1.
</event>
<event>
 8    1  0.1116841E+005  0.1043930E+01  0.7957747E-01            NaN
         13   -1    0    0    0    0  0.00000000000E+00  0.00000000000E+00  0.74505805969E-08  0.10566000000E+00  0.10566000000E+00 0. -1.
     999900   -1    0    0    0    0 -0.00000000000E+00 -0.00000000000E+00 -0.74505805969E-08  0.93827000000E+00  0.93827000000E+00 0. -1.
     999902    2    1    2    0    0  0.22707427968E-02 -0.87662974697E-02 -0.21342691624E-01  0.10207456361E+01  0.10204823070E+01 0.  0.
     999903    2    3    3    0    0  0.26527570268E-01  0.41960432515E-01  0.11658818282E+00  0.12822867774E+00  0.19631595470E-01 0.  0.
         14    1    1    2    0    0 -0.22707427968E-02  0.87662974697E-02  0.21342691624E-01  0.23184363911E-01  0.00000000000E+00 0. -1.
     999901    1    3    3    0    0 -0.24256827471E-01 -0.50726729985E-01 -0.13793087444E+00  0.89251695835E+00  0.88000000000E+00 0.  1.
        -11    1    4    4    0    0  0.13073257021E-01  0.24026527763E-01  0.40269591879E-01  0.48683521202E-01  0.51100000000E-03 0. -1.
         11    1    4    4    0    0  0.13454313247E-01  0.17933904752E-01  0.76318590942E-01  0.79545156539E-01  0.51100000000E-03 0.  1.
</event>
<event>
 8    1  0.1116841E+005  0.1043930E+01  0.7957747E-01            NaN
         13   -1    0    0    0    0  0.00000000000E+00  0.00000000000E+00  0.74505805969E-08  0.10566000000E+00  0.10566000000E+00 0. -1.
     999900   -1    0    0    0    0 -0.00000000000E+00 -0.00000000000E+00 -0.74505805969E-08  0.93827000000E+00  0.93827000000E+00 0. -1.
     999902    2    1    2    0    0 -0.22846685605E-01  0.57806895170E-03  0.69828485677E-02  0.10200330257E+01  0.10197530623E+01 0.  0.
     999903    2    3    3    0    0  0.41503770374E-01 -0.68250098400E-01  0.10065256877E+00  0.13005981582E+00  0.20099184193E-01 0.  0.
         14    1    1    2    0    0  0.22846685605E-01 -0.57806895170E-03 -0.69828485677E-02  0.23896974306E-01  0.00000000000E+00 0. -1.
     999901    1    3    3    0    0 -0.64350455979E-01  0.68828167352E-01 -0.93669720202E-01  0.88997320987E+00  0.88000000000E+00 0. -1.
        -11    1    4    4    0    0  0.39096062173E-01 -0.57150306417E-01  0.94432872005E-01  0.11710033321E+00  0.51100000000E-03 0.  1.
         11    1    4    4    0    0  0.24077082003E-02 -0.11099791983E-01  0.62196967648E-02  0.12959482617E-01  0.51100000000E-03 0. -1.
</event>
<event>
 8    1  0.1116841E+005  0.1043930E+01  0.7957747E-01            NaN
         13   -1    0    0    0    0  0.00000000000E+00  0.00000000000E+00  0.74505805969E-08  0.10566000000E+00  0.10566000000E+00 0. -1.
     999900   -1    0    0    0    0 -0.00000000000E+00 -0.00000000000E+00 -0.74505805969E-08  0.93827000000E+00  0.93827000000E+00 0. -1.
     999902    2    1    2    0    0 -0.90462729537E-02  0.20009772398E-01  0.10097033213E-01  0.10197602643E+01  0.10194737959E+01 0.  0.
     999903    2    3    3    0    0  0.90527778079E-02  0.12798855602E+00  0.26171027160E-01  0.13282995887E+00  0.22267735681E-01 0.  0.
         14    1    1    2    0    0  0.90462729537E-02 -0.20009772398E-01 -0.10097033213E-01  0.24169735734E-01  0.00000000000E+00 0.  1.
     999901    1    3    3    0    0 -0.18099050762E-01 -0.10797878362E+00 -0.16073993948E-01  0.88693030540E+00  0.88000000000E+00 0. -1.
        -11    1    4    4    0    0  0.10431061982E-01  0.63086735474E-01  0.22570448013E-01  0.67811720900E-01  0.51100000000E-03 0.  1.
         11    1    4    4    0    0 -0.13782841744E-02  0.64901820545E-01  0.36005791471E-02  0.65018237969E-01  0.51100000000E-03 0. -1.
</event>
<event>
 8    1  0.1116841E+005  0.1043930E+01  0.7957747E-01            NaN
         13   -1    0    0    0    0  0.00000000000E+00  0.00000000000E+00  0.74505805969E-08  0.10566000000E+00  0.10566000000E+00 0. -1.
     999900   -1    0    0    0    0 -0.00000000000E+00 -0.00000000000E+00 -0.74505805969E-08  0.93827000000E+00  0.93827000000E+00 0.  1.
     999902    2    1    2    0    0  0.10720743981E-01 -0.95355708637E-02 -0.16309930618E-01  0.10222073091E+01  0.10219764711E+01 0.  0.
     999903    2    3    3    0    0  0.14170547811E-01 -0.26432255743E-01  0.12559470946E+00  0.13067249431E+00  0.20044978310E-01 0.  0.
         14    1    1    2    0    0 -0.10720743981E-01  0.95355708637E-02  0.16309930618E-01  0.21722690901E-01  0.00000000000E+00 0. -1.
     999901    1    3    3    0    0 -0.34498038303E-02  0.16896684879E-01 -0.14190464008E+00  0.89153481479E+00  0.88000000000E+00 0.  1.
        -11    1    4    4    0    0  0.58633284752E-02 -0.26759774444E-01  0.88032965197E-01  0.92198309266E-01  0.51100000000E-03 0. -1.
         11    1    4    4    0    0  0.83072193362E-02  0.32751870076E-03  0.37561744264E-01  0.38474185044E-01  0.51100000000E-03 0.  1.
</event>
<event>
 8    1  0.1116841E+005  0.1043930E+01  0.7957747E-01            NaN
         13   -1    0    0    0    0  0.00000000000E+00  0.00000000000E+00  0.74505805969E-08  0.10566000000E+00  0.10566000000E+00 0. -1.
     999900   -1    0    0    0    0 -0.00000000000E+00 -0.00000000000E+00 -0.74505805969E-08  0.93827000000E+00  0.93827000000E+00 0.  1.
     999902    2    1    2    0    0  0.16462239786E-02 -0.23753490636E-01  0.25135726150E-02  0.10199872262E+01  0.10197061759E+01 0.  0.
     999903    2    3    3    0    0 -0.43336293507E-02  0.10570480084E+00  0.69236947973E-01  0.12799663391E+00  0.19927319568E-01 0.  0.
         14    1    1    2    0    0 -0.16462239786E-02  0.23753490636E-01 -0.25135726150E-02  0.23942773818E-01  0.00000000000E+00 0. -1.
     999901    1    3    3    0    0  0.59798533293E-02 -0.12945829147E+00 -0.66723375358E-01  0.89199059227E+00  0.88000000000E+00 0. -1.
        -11    1    4    4    0    0 -0.16521632680E-02  0.46562170855E-01  0.42378068029E-01  0.62983546813E-01  0.51100000000E-03 0.  1.
         11    1    4    4    0    0 -0.26814660827E-02  0.59142629982E-01  0.26858879944E-01  0.65013087101E-01  0.51100000000E-03 0. -1.
</event>
<event>
 8    1  0.1116841E+005  0.1043930E+01  0.7957747E-01            NaN
         13   -1    0    0    0    0  0.00000000000E+00  0.00000000000E+00  0.74505805969E-08  0.10566000000E+00  0.10566000000E+00 0.  1.
     999900   -1    0    0    0    0 -0.00000000000E+00 -0.00000000000E+00 -0.74505805969E-08  0.93827000000E+00  0.93827000000E+00 0. -1.
     999902    2    1    2    0    0 -0.12032648191E-01  0.19220511902E-01  0.10602534716E-01  0.10188974923E+01  0.10185899437E+01 0.  0.
     999903    2    3    3    0    0  0.11437150028E+00  0.48301324608E-01 -0.26176681569E-01  0.12862988467E+00  0.21132215568E-01 0.  0.
         14    1    1    2    0    0  0.12032648191E-01 -0.19220511902E-01 -0.10602534716E-01  0.25032507719E-01  0.00000000000E+00 0. -1.
     999901    1    3    3    0    0 -0.12640414848E+00 -0.29080812706E-01  0.36779216285E-01  0.89026760762E+00  0.88000000000E+00 0.  1.
        -11    1    4    4    0    0  0.31240809242E-01  0.22911008511E-01 -0.42019889335E-02  0.38972045175E-01  0.51100000000E-03 0.  1.
         11    1    4    4    0    0  0.83130691043E-01  0.25390316097E-01 -0.21974692635E-01  0.89657839490E-01  0.51100000000E-03 0. -1.
</event>
<event>
 8    1  0.1116841E+005  0.1043930E+01  0.7957747E-01            NaN
         13   -1    0    0    0    0  0.00000000000E+00  0.00000000000E+00  0.74505805969E-08  0.10566000000E+00  0.10566000000E+00 0. -1.
     999900   -1    0    0    0    0 -0.00000000000E+00 -0.00000000000E+00 -0.74505805969E-08  0.93827000000E+00  0.93827000000E+00 0. -1.
     999902    2    1    2    0    0 -0.14368605195E-01 -0.14662069295E-01 -0.12396498590E-01  0.10199486266E+01  0.10196666586E+01 0.  0.
     999903    2    3    3    0    0  0.69165695384E-02  0.91869359066E-01 -0.89539224256E-01  0.12991884959E+00  0.19334340702E-01 0.  0.
         14    1    1    2    0    0  0.14368605195E-01  0.14662069295E-01  0.12396498590E-01  0.23981373367E-01  0.00000000000E+00 0. -1.
     999901    1    3    3    0    0 -0.21285174733E-01 -0.10653142836E+00  0.77142725665E-01  0.89002977704E+00  0.88000000000E+00 0.  1.
        -11    1    4    4    0    0  0.33852838199E-02  0.33921208031E-01 -0.20781045601E-01  0.39927703141E-01  0.51100000000E-03 0. -1.
         11    1    4    4    0    0  0.35312857185E-02  0.57948151035E-01 -0.68758178655E-01  0.89991146454E-01  0.51100000000E-03 0.  1.
</event>
<event>
 8    1  0.1116841E+005  0.1043930E+01  0.7957747E-01            NaN
         13   -1    0    0    0    0  0.00000000000E+00  0.00000000000E+00  0.74505805969E-08  0.10566000000E+00  0.10566000000E+00 0. -1.
     999900   -1    0    0    0    0 -0.00000000000E+00 -0.00000000000E+00 -0.74505805969E-08  0.93827000000E+00  0.93827000000E+00 0. -1.
     999902    2    1    2    0    0  0.14233135454E-01  0.17826994453E-01  0.56473549264E-02  0.10204294363E+01  0.10201587906E+01 0.  0.
     999903    2    3    3    0    0 -0.63234604304E-01  0.44928812186E-02 -0.11106505755E+00  0.12924997262E+00  0.18743192115E-01 0.  0.
         14    1    1    2    0    0 -0.14233135454E-01 -0.17826994453E-01 -0.56473549264E-02  0.23500563690E-01  0.00000000000E+00 0.  1.
     999901    1    3    3    0    0  0.77467739758E-01  0.13334113234E-01  0.11671241248E+00  0.89117946369E+00  0.88000000000E+00 0.  1.
        -11    1    4    4    0    0 -0.36968196459E-01 -0.58950391983E-02 -0.56021192390E-01  0.67379775559E-01  0.51100000000E-03 0.  1.
         11    1    4    4    0    0 -0.26266407844E-01  0.10387920417E-01 -0.55043865159E-01  0.61870197060E-01  0.51100000000E-03 0. -1.
</event>
<event>
 8    1  0.1116841E+005  0.1043930E+01  0.7957747E-01            NaN
         13   -1    0    0    0    0  0.00000000000E+00  0.00000000000E+00  0.74505805969E-08  0.10566000000E+00  0.10566000000E+00 0.  1.
     999900   -1    0    0    0    0 -0.00000000000E+00 -0.00000000000E+00 -0.74505805969E-08  0.93827000000E+00  0.93827000000E+00 0.  1.
     999902    2    1    2    0    0 -0.28696134342E-02  0.52651981608E-02 -0.19062553377E-01  0.10239465585E+01  0.10237515405E+01 0.  0.
     999903    2    3    3    0    0  0.77900929875E-02  0.63713422602E-01 -0.11865406065E+00  0.13633837208E+00  0.19730175485E-01 0.  0.
         14    1    1    2    0    0  0.28696134342E-02 -0.52651981608E-02  0.19062553377E-01  0.19983441500E-01  0.00000000000E+00 0.  1.
     999901    1    3    3    0    0 -0.10659706422E-01 -0.58448224442E-01  0.99591507270E-01  0.88760818642E+00  0.88000000000E+00 0. -1.
        -11    1    4    4    0    0  0.10888124378E-01  0.40720818200E-01 -0.60616074541E-01  0.73832959450E-01  0.51100000000E-03 0.  1.
         11    1    4    4    0    0 -0.30980313908E-02  0.22992604402E-01 -0.58037986106E-01  0.62505412629E-01  0.51100000000E-03 0. -1.
</event>
<event>
 8    1  0.1116841E+005  0.1043930E+01  0.7957747E-01            NaN
         13   -1    0    0    0    0  0.00000000000E+00  0.00000000000E+00  0.74505805969E-08  0.10566000000E+00  0.10566000000E+00 0.  1.
     999900   -1    0    0    0    0 -0.00000000000E+00 -0.00000000000E+00 -0.74505805969E-08  0.93827000000E+00  0.93827000000E+00 0. -1.
     999902    2    1    2    0    0  0.72846168128E-02 -0.13601078809E-01  0.17455086488E-01  0.10206333257E+01  0.10203674096E+01 0.  0.
     999903    2    3    3    0    0 -0.63508905907E-01 -0.66989611477E-01  0.93666644464E-01  0.13290011140E+00  0.19183590668E-01 0.  0.
         14    1    1    2    0    0 -0.72846168128E-02  0.13601078809E-01 -0.17455086488E-01  0.23296674251E-01  0.00000000000E+00 0. -1.
     999901    1    3    3    0    0  0.70793522720E-01  0.53388532669E-01 -0.76211557976E-01  0.88773321434E+00  0.88000000000E+00 0. -1.
        -11    1    4    4    0    0 -0.38066431283E-01 -0.34676369472E-01  0.64214549309E-01  0.82312048051E-01  0.51100000000E-03 0.  1.
         11    1    4    4    0    0 -0.25442474624E-01 -0.32313242005E-01  0.29452095155E-01  0.50588063354E-01  0.51100000000E-03 0. -1.
</event>
<event>
 8    1  0.1116841E+005  0.1043930E+01  0.7957747E-01            NaN
         13   -1    0    0    0    0  0.00000000000E+00  0.00000000000E+00  0.74505805969E-08  0.10566000000E+00  0.10566000000E+00 0. -1.
     999900   -1    0    0    0    0 -0.00000000000E+00 -0.00000000000E+00 -0.74505805969E-08  0.93827000000E+00  0.93827000000E+00 0. -1.
     999902    2    1    2    0    0 -0.16528142304E-02 -0.12234135962E-01  0.21598417681E-01  0.10190523489E+01  0.10187486404E+01 0.  0.
     999903    2    3    3    0    0 -0.94322734128E-01  0.13510042175E-01  0.88012369432E-01  0.13132418683E+00  0.20507692699E-01 0.  0.
         14    1    1    2    0    0  0.16528142304E-02  0.12234135962E-01 -0.21598417681E-01  0.24877651093E-01  0.00000000000E+00 0.  1.
     999901    1    3    3    0    0  0.92669919898E-01 -0.25744178136E-01 -0.66413951751E-01  0.88772816208E+00  0.88000000000E+00 0. -1.
        -11    1    4    4    0    0 -0.43655455983E-01  0.59492840543E-02  0.54596752383E-01  0.70158814910E-01  0.51100000000E-03 0.  1.
         11    1    4    4    0    0 -0.50667278145E-01  0.75607581203E-02  0.33415617049E-01  0.61165371917E-01  0.51100000000E-03 0. -1.
</event>
<event>
 8    1  0.1116841E+005  0.1043930E+01  0.7957747E-01            NaN
         13   -1    0    0    0    0  0.00000000000E+00  0.00000000000E+00  0.74505805969E-08  0.10566000000E+00  0.10566000000E+00 0.  1.
     999900   -1    0    0    0    0 -0.00000000000E+00 -0.00000000000E+00 -0.74505805969E-08  0.93827000000E+00  0.93827000000E+00 0. -1.
     999902    2    1    2    0    0  0.44785134927E-02 -0.12348165477E-01 -0.19704079295E-01  0.10202491002E+01  0.10199742357E+01 0.  0.
     999903    2    3    3    0    0 -0.36256397826E-01 -0.11483139300E+00 -0.52431424229E-01  0.13276207269E+00  0.19389133456E-01 0.  0.
         14    1    1    2    0    0 -0.44785134927E-02  0.12348165477E-01  0.19704079295E-01  0.23680899785E-01  0.00000000000E+00 0.  1.
     999901    1    3    3    0    0  0.40734911319E-01  0.10248322752E+00  0.32727344934E-01  0.88748702753E+00  0.88000000000E+00 0. -1.
        -11    1    4    4    0    0 -0.13826706274E-01 -0.72688094276E-01 -0.27835603262E-01  0.79055795397E-01  0.51100000000E-03 0. -1.
         11    1    4    4    0    0 -0.22429691552E-01 -0.42143298723E-01 -0.24595820968E-01  0.53706277291E-01  0.51100000000E-03 0.  1.
</event>
<event>
 8    1  0.1116841E+005  0.1043930E+01  0.7957747E-01            NaN
         13   -1    0    0    0    0  0.00000000000E+00  0.00000000000E+00  0.74505805969E-08  0.10566000000E+00  0.10566000000E+00 0.  1.
     999900   -1    0    0    0    0 -0.00000000000E+00 -0.00000000000E+00 -0.74505805969E-08  0.93827000000E+00  0.93827000000E+00 0.  1.
     999902    2    1    2    0    0  0.70749795673E-02  0.20111675395E-01 -0.10536776414E-01  0.10201485265E+01  0.10198712947E+01 0.  0.
     999903    2    3    3    0    0 -0.73072136144E-01 -0.98136629887E-01  0.32274971344E-01  0.12760213132E+00  0.16440648904E-01 0.  0.
         14    1    1    2    0    0 -0.70749795673E-02 -0.20111675395E-01  0.10536776414E-01  0.23781473467E-01  0.00000000000E+00 0.  1.
     999901    1    3    3    0    0  0.80147115711E-01  0.11824830528E+00 -0.42811747758E-01  0.89254639521E+00  0.88000000000E+00 0.  1.
        -11    1    4    4    0    0 -0.40078316346E-01 -0.57052641926E-01  0.10185922135E-01  0.70464810527E-01  0.51100000000E-03 0. -1.
         11    1    4    4    0    0 -0.32993819797E-01 -0.41083987961E-01  0.22089049209E-01  0.57137320794E-01  0.51100000000E-03 0.  1.
</event>
<event>
 8    1  0.1116841E+005  0.1043930E+01  0.7957747E-01            NaN
         13   -1    0    0    0    0  0.00000000000E+00  0.00000000000E+00  0.74505805969E-08  0.10566000000E+00  0.10566000000E+00 0. -1.
     999900   -1    0    0    0    0 -0.00000000000E+00 -0.00000000000E+00 -0.74505805969E-08  0.93827000000E+00  0.93827000000E+00 0.  1.
     999902    2    1    2    0    0 -0.18624661296E-01  0.75999770729E-02  0.45499384492E-02  0.10233062370E+01  0.10230983897E+01 0.  0.
     999903    2    3    3    0    0  0.95789697758E-01  0.45756023057E-01  0.76121502786E-01  0.13220073359E+00  0.20329066219E-01 0.  0.
         14    1    1    2    0    0  0.18624661296E-01 -0.75999770729E-02 -0.45499384492E-02  0.20623762988E-01  0.00000000000E+00 0.  1.
     999901    1    3    3    0    0 -0.11441435905E+00 -0.38156045984E-01 -0.71571564337E-01  0.89110550342E+00  0.88000000000E+00 0.  1.
        -11    1    4    4    0    0  0.53045401752E-01  0.27720731057E-01  0.54754959337E-01  0.81121022370E-01  0.51100000000E-03 0.  1.
         11    1    4    4    0    0  0.42744296006E-01  0.18035292000E-01  0.21366543449E-01  0.51079711222E-01  0.51100000000E-03 0. -1.
</event>
<event>
 8    1  0.1116841E+005  0.1043930E+01  0.7957747E-01            NaN
         13   -1    0    0    0    0  0.00000000000E+00  0.00000000000E+00  0.74505805969E-08  0.10566000000E+00  0.10566000000E+00 0. -1.
     999900   -1    0    0    0    0 -0.00000000000E+00 -0.00000000000E+00 -0.74505805969E-08  0.93827000000E+00  0.93827000000E+00 0. -1.
     999902    2    1    2    0    0 -0.13581982117E-01  0.13636855767E-01 -0.14485825624E-01  0.10198411391E+01  0.10195566075E+01 0.  0.
     999903    2    3    3    0    0  0.52276574637E-02  0.45278557472E-01  0.11898448348E+00  0.12901605910E+00  0.20257344994E-01 0.  0.
         14    1    1    2    0    0  0.13581982117E-01 -0.13636855767E-01  0.14485825624E-01  0.24088860858E-01  0.00000000000E+00 0. -1.
     999901    1    3    3    0    0 -0.18809639581E-01 -0.31641701705E-01 -0.13347030910E+00  0.89082508005E+00  0.88000000000E+00 0. -1.
        -11    1    4    4    0    0  0.72614068227E-02  0.16988672769E-01  0.70113266933E-01  0.72508443318E-01  0.51100000000E-03 0.  1.
         11    1    4    4    0    0 -0.20337493590E-02  0.28289884704E-01  0.48871216547E-01  0.56507615777E-01  0.51100000000E-03 0. -1.
</event>
<event>
 8    1  0.1116841E+005  0.1043930E+01  0.7957747E-01            NaN
         13   -1    0    0    0    0  0.00000000000E+00  0.00000000000E+00  0.74505805969E-08  0.10566000000E+00  0.10566000000E+00 0. -1.
     999900   -1    0    0    0    0 -0.00000000000E+00 -0.00000000000E+00 -0.74505805969E-08  0.93827000000E+00  0.93827000000E+00 0. -1.
     999902    2    1    2    0    0  0.50776148233E-02  0.20126177694E-01  0.10603412351E-01  0.10206216849E+01  0.10203554998E+01 0.  0.
     999903    2    3    3    0    0 -0.10169097552E+00 -0.33723230750E-01  0.67075397260E-01  0.13074058283E+00  0.33401800666E-01 0.  0.
         14    1    1    2    0    0 -0.50776148233E-02 -0.20126177694E-01 -0.10603412351E-01  0.23308315134E-01  0.00000000000E+00 0.  1.
     999901    1    3    3    0    0  0.10676859034E+00  0.53849408444E-01 -0.56471984909E-01  0.88988110203E+00  0.88000000000E+00 0. -1.
        -11    1    4    4    0    0 -0.36620794833E-01 -0.27619524415E-01  0.19217342106E-01  0.49734174385E-01  0.51100000000E-03 0.  1.
         11    1    4    4    0    0 -0.65070180688E-01 -0.61037063341E-02  0.47858055154E-01  0.81006408449E-01  0.51100000000E-03 0. -1.
</event>
<event>
 8    1  0.1116841E+005  0.1043930E+01  0.7957747E-01            NaN
         13   -1    0    0    0    0  0.00000000000E+00  0.00000000000E+00  0.74505805969E-08  0.10566000000E+00  0.10566000000E+00 0.  1.
     999900   -1    0    0    0    0 -0.00000000000E+00 -0.00000000000E+00 -0.74505805969E-08  0.93827000000E+00  0.93827000000E+00 0. -1.
     999902    2    1    2    0    0  0.48988319395E-02 -0.76913285484E-02  0.21008497865E-01  0.10210277715E+01  0.10207708842E+01 0.  0.
     999903    2    3    3    0    0  0.27915026925E-01 -0.10654182737E+00  0.73198568739E-01  0.13365807971E+00  0.19391804922E-01 0.  0.
         14    1    1    2    0    0 -0.48988319395E-02  0.76913285484E-02 -0.21008497865E-01  0.22902228533E-01  0.00000000000E+00 0. -1.
     999901    1    3    3    0    0 -0.23016194985E-01  0.98850498826E-01 -0.52190070874E-01  0.88736969176E+00  0.88000000000E+00 0. -1.
        -11    1    4    4    0    0  0.24513862551E-01 -0.56424489092E-01  0.42731350942E-01  0.74905820207E-01  0.51100000000E-03 0. -1.
         11    1    4    4    0    0  0.34011643733E-02 -0.50117338282E-01  0.30467217797E-01  0.58752259504E-01  0.51100000000E-03 0.  1.
</event>
<event>
 8    1  0.1116841E+005  0.1043930E+01  0.7957747E-01            NaN
         13   -1    0    0    0    0  0.00000000000E+00  0.00000000000E+00  0.74505805969E-08  0.10566000000E+00  0.10566000000E+00 0. -1.
     999900   -1    0    0    0    0 -0.00000000000E+00 -0.00000000000E+00 -0.74505805969E-08  0.93827000000E+00  0.93827000000E+00 0. -1.
     999902    2    1    2    0    0 -0.11601944140E-01  0.83444943236E-02  0.19582307898E-01  0.10196874243E+01  0.10193992058E+01 0.  0.
     999903    2    3    3    0    0  0.94425151614E-01  0.86456721137E-01  0.83092311896E-02  0.12981645205E+00  0.19808937721E-01 0.  0.
         14    1    1    2    0    0  0.11601944140E-01 -0.83444943236E-02 -0.19582307898E-01  0.24242575688E-01  0.00000000000E+00 0.  1.
     999901    1    3    3    0    0 -0.10602709575E+00 -0.78112226813E-01  0.11273076709E-01  0.88987097226E+00  0.88000000000E+00 0. -1.
        -11    1    4    4    0    0  0.44069414097E-01  0.44149361884E-01 -0.54549861499E-02  0.62620263561E-01  0.51100000000E-03 0. -1.
         11    1    4    4    0    0  0.50355737517E-01  0.42307359253E-01  0.13764217339E-01  0.67196188492E-01  0.51100000000E-03 0.  1.
</event>
<event>
 8    1  0.1116841E+005  0.1043930E+01  0.7957747E-01            NaN
         13   -1    0    0    0    0  0.00000000000E+00  0.00000000000E+00  0.74505805969E-08  0.10566000000E+00  0.10566000000E+00 0. -1.
     999900   -1    0    0    0    0 -0.00000000000E+00 -0.00000000000E+00 -0.74505805969E-08  0.93827000000E+00  0.93827000000E+00 0.  1.
     999902    2    1    2    0    0 -0.33744903350E-02 -0.19313104306E-01  0.13130197784E-01  0.10203337021E+01  0.10200608209E+01 0.  0.
     999903    2    3    3    0    0 -0.10933221335E+00 -0.50428741889E-01 -0.48144226878E-01  0.13131751711E+00  0.20732410257E-01 0.  0.
         14    1    1    2    0    0  0.33744903350E-02  0.19313104306E-01 -0.13130197784E-01  0.23596297947E-01  0.00000000000E+00 0.  1.
     999901    1    3    3    0    0  0.10595772301E+00  0.31115637583E-01  0.61274424662E-01  0.88901618494E+00  0.88000000000E+00 0. -1.
        -11    1    4    4    0    0 -0.32887955149E-01 -0.11025843593E-01 -0.48386543524E-02  0.35026568741E-01  0.51100000000E-03 0. -1.
         11    1    4    4    0    0 -0.76444258198E-01 -0.39402898296E-01 -0.43305572526E-01  0.96290948372E-01  0.51100000000E-03 0.  1.
</event>
<event>
 8    1  0.1116841E+005  0.1043930E+01  0.7957747E-01            NaN
         13   -1    0    0    0    0  0.00000000000E+00  0.00000000000E+00  0.74505805969E-08  0.10566000000E+00  0.10566000000E+00 0.  1.
     999900   -1    0    0    0    0 -0.00000000000E+00 -0.00000000000E+00 -0.74505805969E-08  0.93827000000E+00  0.93827000000E+00 0. -1.
     999902    2    1    2    0    0  0.15518032056E-02 -0.36616462179E-02  0.22377690151E-01  0.10212016749E+01  0.10209487176E+01 0.  0.
     999903    2    3    3    0    0  0.34414713437E-02 -0.15680225686E-01 -0.12611994332E+00  0.12867740953E+00  0.19847478829E-01 0.  0.
         14    1    1    2    0    0 -0.15518032056E-02  0.36616462179E-02 -0.22377690151E-01  0.22728325119E-01  0.00000000000E+00 0. -1.
     999901    1    3    3    0    0 -0.18896681381E-02  0.12018579469E-01  0.14849763348E+00  0.89252426535E+00  0.88000000000E+00 0.  1.
        -11    1    4    4    0    0 -0.37749842201E-02 -0.16919458717E-01 -0.71856083462E-01  0.73919391506E-01  0.51100000000E-03 0. -1.
         11    1    4    4    0    0  0.72164555638E-02  0.12392330306E-02 -0.54263859863E-01  0.54758018021E-01  0.51100000000E-03 0.  1.
</event>
<event>
 8    1  0.1116841E+005  0.1043930E+01  0.7957747E-01            NaN
         13   -1    0    0    0    0  0.00000000000E+00  0.00000000000E+00  0.74505805969E-08  0.10566000000E+00  0.10566000000E+00 0.  1.
     999900   -1    0    0    0    0 -0.00000000000E+00 -0.00000000000E+00 -0.74505805969E-08  0.93827000000E+00  0.93827000000E+00 0.  1.
     999902    2    1    2    0    0 -0.14244151356E-01  0.18545422995E-01 -0.50364219821E-02  0.10200094208E+01  0.10197288975E+01 0.  0.
     999903    2    3    3    0    0 -0.11854544864E+00 -0.20937522756E-01 -0.49662010037E-01  0.13184890226E+00  0.20649807093E-01 0.  0.
         14    1    1    2    0    0  0.14244151356E-01 -0.18545422995E-01  0.50364219821E-02  0.23920579180E-01  0.00000000000E+00 0.  1.
     999901    1    3    3    0    0  0.10430129729E+00  0.39482945750E-01  0.44625588055E-01  0.88816051856E+00  0.88000000000E+00 0. -1.
        -11    1    4    4    0    0 -0.65896440517E-01 -0.23731792513E-02 -0.31983356079E-01  0.73288259903E-01  0.51100000000E-03 0. -1.
         11    1    4    4    0    0 -0.52649008126E-01 -0.18564343504E-01 -0.17678653958E-01  0.58560642356E-01  0.51100000000E-03 0.  1.
</event>
<event>
 8    1  0.1116841E+005  0.1043930E+01  0.7957747E-01            NaN
         13   -1    0    0    0    0  0.00000000000E+00  0.00000000000E+00  0.74505805969E-08  0.10566000000E+00  0.10566000000E+00 0. -1.
     999900   -1    0    0    0    0 -0.00000000000E+00 -0.00000000000E+00 -0.74505805969E-08  0.93827000000E+00  0.93827000000E+00 0. -1.
     999902    2    1    2    0    0  0.11511826968E-01  0.21091523498E-01  0.51381254547E-03  0.10198958883E+01  0.10196126639E+01 0.  0.
     999903    2    3    3    0    0  0.12342784767E+00 -0.37244331860E-01 -0.98287235561E-02  0.13083164100E+00  0.19968491285E-01 0.  0.
         14    1    1    2    0    0 -0.11511826968E-01 -0.21091523498E-01 -0.51381254547E-03  0.24034111736E-01  0.00000000000E+00 0. -1.
     999901    1    3    3    0    0 -0.11191602070E+00  0.58335855358E-01  0.10342536102E-01  0.88906424726E+00  0.88000000000E+00 0.  1.
        -11    1    4    4    0    0  0.77358082484E-01 -0.26245905438E-01 -0.15427354560E-01  0.83134739235E-01  0.51100000000E-03 0.  1.
         11    1    4    4    0    0  0.46069765184E-01 -0.10998426422E-01  0.55986310037E-02  0.47696901766E-01  0.51100000000E-03 0. -1.
</event>
<event>
 8    1  0.1116841E+005  0.1043930E+01  0.7957747E-01            NaN
         13   -1    0    0    0    0  0.00000000000E+00  0.00000000000E+00  0.74505805969E-08  0.10566000000E+00  0.10566000000E+00 0.  1.
     999900   -1    0    0    0    0 -0.00000000000E+00 -0.00000000000E+00 -0.74505805969E-08  0.93827000000E+00  0.93827000000E+00 0. -1.
     999902    2    1    2    0    0 -0.20888757236E-02  0.66202832203E-02 -0.22542012785E-01  0.10203432687E+01  0.10200706114E+01 0.  0.
     999903    2    3    3    0    0 -0.12506984136E+00 -0.29150086182E-01  0.78630385049E-02  0.13055211100E+00  0.22132184007E-01 0.  0.
         14    1    1    2    0    0  0.20888757236E-02 -0.66202832203E-02  0.22542012785E-01  0.23586731272E-01  0.00000000000E+00 0.  1.
     999901    1    3    3    0    0  0.12298096563E+00  0.35770369402E-01 -0.30405051290E-01  0.88979115773E+00  0.88000000000E+00 0.  1.
        -11    1    4    4    0    0 -0.75836527225E-01 -0.79038184160E-02 -0.67615421993E-03  0.76252000056E-01  0.51100000000E-03 0.  1.
         11    1    4    4    0    0 -0.49233314134E-01 -0.21246267766E-01  0.85391927248E-02  0.54300110939E-01  0.51100000000E-03 0. -1.
</event>
<event>
 8    1  0.1116841E+005  0.1043930E+01  0.7957747E-01            NaN
         13   -1    0    0    0    0  0.00000000000E+00  0.00000000000E+00  0.74505805969E-08  0.10566000000E+00  0.10566000000E+00 0.  1.
     999900   -1    0    0    0    0 -0.00000000000E+00 -0.00000000000E+00 -0.74505805969E-08  0.93827000000E+00  0.93827000000E+00 0.  1.
     999902    2    1    2    0    0  0.16762398709E-02 -0.18580515214E-01 -0.11134646683E-01  0.10222038480E+01  0.10219729356E+01 0.  0.
     999903    2    3    3    0    0  0.13002013188E+00 -0.34544886879E-02 -0.17531622402E-01  0.13274228466E+00  0.19899451375E-01 0.  0.
         14    1    1    2    0    0 -0.16762398709E-02  0.18580515214E-01  0.11134646683E-01  0.21726152040E-01  0.00000000000E+00 0. -1.
     999901    1    3    3    0    0 -0.12834389201E+00 -0.15126026526E-01  0.63969757194E-02  0.88946156330E+00  0.88000000000E+00 0. -1.
        -11    1    4    4    0    0  0.64673392966E-01  0.76308817731E-02 -0.12092369750E-01  0.66237184734E-01  0.51100000000E-03 0. -1.
         11    1    4    4    0    0  0.65346738916E-01 -0.11085370461E-01 -0.54392526516E-02  0.66505099922E-01  0.51100000000E-03 0.  1.
</event>
<event>
 8    1  0.1116841E+005  0.1043930E+01  0.7957747E-01            NaN
         13   -1    0    0    0    0  0.00000000000E+00  0.00000000000E+00  0.74505805969E-08  0.10566000000E+00  0.10566000000E+00 0. -1.
     999900   -1    0    0    0    0 -0.00000000000E+00 -0.00000000000E+00 -0.74505805969E-08  0.93827000000E+00  0.93827000000E+00 0. -1.
     999902    2    1    2    0    0  0.17148723657E-01 -0.72224548062E-02 -0.17164677286E-01  0.10186146149E+01  0.10182999877E+01 0.  0.
     999903    2    3    3    0    0 -0.10408655217E-01  0.11479054578E+00  0.49912252335E-01  0.12724157518E+00  0.20346400647E-01 0.  0.
         14    1    1    2    0    0 -0.17148723657E-01  0.72224548062E-02  0.17164677286E-01  0.25315385102E-01  0.00000000000E+00 0. -1.
     999901    1    3    3    0    0  0.27557378874E-01 -0.12201300058E+00 -0.67076929621E-01  0.89137303971E+00  0.88000000000E+00 0.  1.
        -11    1    4    4    0    0 -0.15731335387E-02  0.98369459240E-01  0.42424544168E-01  0.10714069409E+00  0.51100000000E-03 0.  1.
         11    1    4    4    0    0 -0.88355216782E-02  0.16421086536E-01  0.74877081666E-02  0.20100881098E-01  0.51100000000E-03 0. -1.
</event>
<event>
 8    1  0.1116841E+005  0.1043930E+01  0.7957747E-01            NaN
         13   -1    0    0    0    0  0.00000000000E+00  0.00000000000E+00  0.74505805969E-08  0.10566000000E+00  0.10566000000E+00 0.  1.
     999900   -1    0    0    0    0 -0.00000000000E+00 -0.00000000000E+00 -0.74505805969E-08  0.93827000000E+00  0.93827000000E+00 0. -1.
     999902    2    1    2    0    0 -0.90580444489E-02  0.17380256410E-01  0.14648524376E-01  0.10194616378E+01  0.10191679598E+01 0.  0.
     999903    2    3    3    0    0 -0.20525348456E-01  0.12884177616E+00 -0.47730983030E-02  0.13214412481E+00  0.20440010772E-01 0.  0.
         14    1    1    2    0    0  0.90580444489E-02 -0.17380256410E-01 -0.14648524376E-01  0.24468362195E-01  0.00000000000E+00 0. -1.
     999901    1    3    3    0    0  0.11467304007E-01 -0.11146151975E+00  0.19421622679E-01  0.88731751300E+00  0.88000000000E+00 0.  1.
        -11    1    4    4    0    0 -0.18661623194E-01  0.54028893948E-01 -0.39873754458E-02  0.57302162659E-01  0.51100000000E-03 0.  1.
         11    1    4    4    0    0 -0.18637252613E-02  0.74812882212E-01 -0.78572285719E-03  0.74841962148E-01  0.51100000000E-03 0. -1.
</event>
<event>
 8    1  0.1116841E+005  0.1043930E+01  0.7957747E-01            NaN
         13   -1    0    0    0    0  0.00000000000E+00  0.00000000000E+00  0.74505805969E-08  0.10566000000E+00  0.10566000000E+00 0.  1.
     999900   -1    0    0    0    0 -0.00000000000E+00 -0.00000000000E+00 -0.74505805969E-08  0.93827000000E+00  0.93827000000E+00 0. -1.
     999902    2    1    2    0    0  0.28630289990E-02 -0.12828908729E-01 -0.19888547744E-01  0.10200902818E+01  0.10198116742E+01 0.  0.
     999903    2    3    3    0    0 -0.11704069487E+00  0.50437295434E-01 -0.11345630167E-01  0.12966763098E+00  0.21036306098E-01 0.  0.
         14    1    1    2    0    0 -0.28630289990E-02  0.12828908729E-01  0.19888547744E-01  0.23839718237E-01  0.00000000000E+00 0.  1.
     999901    1    3    3    0    0  0.11990372387E+00 -0.63266204163E-01 -0.85429175779E-02  0.89042265078E+00  0.88000000000E+00 0.  1.
        -11    1    4    4    0    0 -0.12606371409E-01  0.11356944903E-01  0.30070041585E-02  0.17239605350E-01  0.51100000000E-03 0.  1.
         11    1    4    4    0    0 -0.10443432346E+00  0.39080350532E-01 -0.14352634325E-01  0.11242802563E+00  0.51100000000E-03 0. -1.
</event>
<event>
 8    1  0.1116841E+005  0.1043930E+01  0.7957747E-01            NaN
         13   -1    0    0    0    0  0.00000000000E+00  0.00000000000E+00  0.74505805969E-08  0.10566000000E+00  0.10566000000E+00 0.  1.
     999900   -1    0    0    0    0 -0.00000000000E+00 -0.00000000000E+00 -0.74505805969E-08  0.93827000000E+00  0.93827000000E+00 0.  1.
     999902    2    1    2    0    0  0.19903714823E-01  0.11632262644E-01  0.38594642707E-02  0.10205555939E+01  0.10202878796E+01 0.  0.
     999903    2    3    3    0    0 -0.88313492191E-02  0.73780652406E-01 -0.10584841016E+00  0.13110410897E+00  0.21513346034E-01 0.  0.
         14    1    1    2    0    0 -0.19903714823E-01 -0.11632262644E-01 -0.38594642707E-02  0.23374406141E-01  0.00000000000E+00 0.  1.
     999901    1    3    3    0    0  0.28735064042E-01 -0.62148389762E-01  0.10970787443E+00  0.88945148489E+00  0.88000000000E+00 0. -1.
        -11    1    4    4    0    0 -0.70636147765E-02  0.33550439969E-01 -0.31564497240E-01  0.46605850307E-01  0.51100000000E-03 0. -1.
         11    1    4    4    0    0 -0.17677344426E-02  0.40230212437E-01 -0.74283912920E-01  0.84498258666E-01  0.51100000000E-03 0.  1.
</event>
<event>
 8    1  0.1116841E+005  0.1043930E+01  0.7957747E-01            NaN
         13   -1    0    0    0    0  0.00000000000E+00  0.00000000000E+00  0.74505805969E-08  0.10566000000E+00  0.10566000000E+00 0.  1.
     999900   -1    0    0    0    0 -0.00000000000E+00 -0.00000000000E+00 -0.74505805969E-08  0.93827000000E+00  0.93827000000E+00 0. -1.
     999902    2    1    2    0    0  0.63348378818E-02  0.22209649286E-01  0.60641814518E-02  0.10200517046E+01  0.10197721840E+01 0.  0.
     999903    2    3    3    0    0  0.99148572232E-01 -0.69944346775E-02  0.83471104116E-01  0.13131152918E+00  0.19898014521E-01 0.  0.
         14    1    1    2    0    0 -0.63348378818E-02 -0.22209649286E-01 -0.60641814518E-02  0.23878295355E-01  0.00000000000E+00 0.  1.
     999901    1    3    3    0    0 -0.92813734350E-01  0.29204083963E-01 -0.77406922665E-01  0.88874017546E+00  0.88000000000E+00 0. -1.
        -11    1    4    4    0    0  0.75778466898E-01  0.11496175491E-02  0.55356854594E-01  0.93852757750E-01  0.51100000000E-03 0.  1.
         11    1    4    4    0    0  0.23370105334E-01 -0.81440522265E-02  0.28114249523E-01  0.37458771433E-01  0.51100000000E-03 0. -1.
</event>
<event>
 8    1  0.1116841E+005  0.1043930E+01  0.7957747E-01            NaN
         13   -1    0    0    0    0  0.00000000000E+00  0.00000000000E+00  0.74505805969E-08  0.10566000000E+00  0.10566000000E+00 0. -1.
     999900   -1    0    0    0    0 -0.00000000000E+00 -0.00000000000E+00 -0.74505805969E-08  0.93827000000E+00  0.93827000000E+00 0.  1.
     999902    2    1    2    0    0 -0.23443161366E-01  0.60219290333E-02  0.41993493158E-03  0.10197221131E+01  0.10194347287E+01 0.  0.
     999903    2    3    3    0    0  0.74858106959E-02 -0.58449562272E-01  0.11339866051E+00  0.12962247430E+00  0.21687345337E-01 0.  0.
         14    1    1    2    0    0  0.23443161366E-01 -0.60219290333E-02 -0.41993493158E-03  0.24207886927E-01  0.00000000000E+00 0.  1.
     999901    1    3    3    0    0 -0.30928972062E-01  0.64471491305E-01 -0.11297872558E+00  0.89009963877E+00  0.88000000000E+00 0.  1.
        -11    1    4    4    0    0  0.61124104042E-02 -0.30750341017E-01  0.81648436885E-01  0.87462411357E-01  0.51100000000E-03 0.  1.
         11    1    4    4    0    0  0.13734002917E-02 -0.27699221255E-01  0.31750223624E-01  0.42160062947E-01  0.51100000000E-03 0. -1.
</event>
<event>
 8    1  0.1116841E+005  0.1043930E+01  0.7957747E-01            NaN
         13   -1    0    0    0    0  0.00000000000E+00  0.00000000000E+00  0.74505805969E-08  0.10566000000E+00  0.10566000000E+00 0. -1.
     999900   -1    0    0    0    0 -0.00000000000E+00 -0.00000000000E+00 -0.74505805969E-08  0.93827000000E+00  0.93827000000E+00 0. -1.
     999902    2    1    2    0    0  0.85619590579E-02 -0.52560913396E-02  0.21356522723E-01  0.10203284174E+01  0.10200554125E+01 0.  0.
     999903    2    3    3    0    0 -0.46147930864E-01 -0.11412246743E+00 -0.36720076421E-01  0.13003748108E+00  0.20194389798E-01 0.  0.
         14    1    1    2    0    0 -0.85619590579E-02  0.52560913396E-02 -0.21356522723E-01  0.23601582615E-01  0.00000000000E+00 0.  1.
     999901    1    3    3    0    0  0.54709889922E-01  0.10886637609E+00  0.58076599144E-01  0.89029093630E+00  0.88000000000E+00 0.  1.
        -11    1    4    4    0    0 -0.80083429416E-02 -0.45695803022E-01 -0.12840066300E-01  0.48139052692E-01  0.51100000000E-03 0. -1.
         11    1    4    4    0    0 -0.38139587923E-01 -0.68426664404E-01 -0.23880010121E-01  0.81898428389E-01  0.51100000000E-03 0.  1.
</event>
<event>
 8    1  0.1116841E+005  0.1043930E+01  0.7957747E-01            NaN
         13   -1    0    0    0    0  0.00000000000E+00  0.00000000000E+00  0.74505805969E-08  0.10566000000E+00  0.10566000000E+00 0. -1.
     999900   -1    0    0    0    0 -0.00000000000E+00 -0.00000000000E+00 -0.74505805969E-08  0.93827000000E+00  0.93827000000E+00 0.  1.
     999902    2    1    2    0    0 -0.18278304042E-01  0.13728922990E-01  0.42934571982E-02  0.10206703031E+01  0.10204052402E+01 0.  0.
     999903    2    3    3    0    0 -0.83497422081E-01  0.63689547391E-01 -0.78959629612E-01  0.13293122330E+00  0.20196759087E-01 0.  0.
         14    1    1    2    0    0  0.18278304042E-01 -0.13728922990E-01 -0.42934571982E-02  0.23259696899E-01  0.00000000000E+00 0. -1.
     999901    1    3    3    0    0  0.65219118039E-01 -0.49960624400E-01  0.83253086810E-01  0.88773907980E+00  0.88000000000E+00 0. -1.
        -11    1    4    4    0    0 -0.43397341431E-01  0.30326152150E-01 -0.27530037989E-01  0.59675529828E-01  0.51100000000E-03 0. -1.
         11    1    4    4    0    0 -0.40100080650E-01  0.33363395241E-01 -0.51429591623E-01  0.73255693469E-01  0.51100000000E-03 0.  1.
</event>
<event>
 8    1  0.1116841E+005  0.1043930E+01  0.7957747E-01            NaN
         13   -1    0    0    0    0  0.00000000000E+00  0.00000000000E+00  0.74505805969E-08  0.10566000000E+00  0.10566000000E+00 0. -1.
     999900   -1    0    0    0    0 -0.00000000000E+00 -0.00000000000E+00 -0.74505805969E-08  0.93827000000E+00  0.93827000000E+00 0. -1.
     999902    2    1    2    0    0 -0.17133207893E-01 -0.14061149556E-01  0.71318412869E-02  0.10206464028E+01  0.10203807885E+01 0.  0.
     999903    2    3    3    0    0 -0.16446375466E-01  0.51506577158E-01  0.11797671355E+00  0.13127236210E+00  0.19761511951E-01 0.  0.
         14    1    1    2    0    0  0.17133207893E-01  0.14061149556E-01 -0.71318412869E-02  0.23283597223E-01  0.00000000000E+00 0.  1.
     999901    1    3    3    0    0 -0.68683242684E-03 -0.65567726714E-01 -0.11084487226E+00  0.88937404068E+00  0.88000000000E+00 0. -1.
        -11    1    4    4    0    0 -0.92552411640E-02  0.20746612061E-01  0.71894516005E-01  0.75400026217E-01  0.51100000000E-03 0.  1.
         11    1    4    4    0    0 -0.71911343020E-02  0.30759965097E-01  0.46082197544E-01  0.55872335881E-01  0.51100000000E-03 0. -1.
</event>
<event>
 8    1  0.1116841E+005  0.1043930E+01  0.7957747E-01            NaN
         13   -1    0    0    0    0  0.00000000000E+00  0.00000000000E+00  0.74505805969E-08  0.10566000000E+00  0.10566000000E+00 0. -1.
     999900   -1    0    0    0    0 -0.00000000000E+00 -0.00000000000E+00 -0.74505805969E-08  0.93827000000E+00  0.93827000000E+00 0. -1.
     999902    2    1    2    0    0 -0.19875165294E-01 -0.82125699560E-02 -0.96232462176E-02  0.10203699625E+01  0.10200979291E+01 0.  0.
     999903    2    3    3    0    0  0.11513645535E+00 -0.49912909459E-01  0.19359335415E-01  0.12862613935E+00  0.20547456698E-01 0.  0.
         14    1    1    2    0    0  0.19875165294E-01  0.82125699560E-02  0.96232462176E-02  0.23560037532E-01  0.00000000000E+00 0. -1.
     999901    1    3    3    0    0 -0.13501162064E+00  0.41700339503E-01 -0.28982581632E-01  0.89174382311E+00  0.88000000000E+00 0.  1.
        -11    1    4    4    0    0  0.24527289694E-01 -0.18877013294E-02  0.33043840186E-02  0.24826023257E-01  0.51100000000E-03 0. -1.
         11    1    4    4    0    0  0.90609165654E-01 -0.48025208130E-01  0.16054951396E-01  0.10380011610E+00  0.51100000000E-03 0.  1.
</event>
<event>
 8    1  0.1116841E+005  0.1043930E+01  0.7957747E-01            NaN
         13   -1    0    0    0    0  0.00000000000E+00  0.00000000000E+00  0.74505805969E-08  0.10566000000E+00  0.10566000000E+00 0.  1.
     999900   -1    0    0    0    0 -0.00000000000E+00 -0.00000000000E+00 -0.74505805969E-08  0.93827000000E+00  0.93827000000E+00 0.  1.
     999902    2    1    2    0    0  0.45714238904E-02 -0.20470238999E-01 -0.13593477649E-01  0.10189357760E+01  0.10186291790E+01 0.  0.
     999903    2    3    3    0    0 -0.16344064310E-02  0.47533434715E-01  0.11587100170E+00  0.12684605884E+00  0.20043325797E-01 0.  0.
         14    1    1    2    0    0 -0.45714238904E-02  0.20470238999E-01  0.13593477649E-01  0.24994224046E-01  0.00000000000E+00 0.  1.
     999901    1    3    3    0    0  0.62058303214E-02 -0.68003673714E-01 -0.12946447935E+00  0.89208971711E+00  0.88000000000E+00 0.  1.
        -11    1    4    4    0    0 -0.10654745183E-01  0.26113990906E-01  0.58571009668E-01  0.65009910095E-01  0.51100000000E-03 0.  1.
         11    1    4    4    0    0  0.90203387516E-02  0.21419443809E-01  0.57299992028E-01  0.61836148745E-01  0.51100000000E-03 0. -1.
</event>
<event>
 8    1  0.1116841E+005  0.1043930E+01  0.7957747E-01            NaN
         13   -1    0    0    0    0  0.00000000000E+00  0.00000000000E+00  0.74505805969E-08  0.10566000000E+00  0.10566000000E+00 0.  1.
     999900   -1    0    0    0    0 -0.00000000000E+00 -0.00000000000E+00 -0.74505805969E-08  0.93827000000E+00  0.93827000000E+00 0.  1.
     999902    2    1    2    0    0  0.79695539114E-02 -0.28136834971E-01 -0.72176608062E-02  0.10138087467E+01  0.10133611819E+01 0.  0.
     999903    2    3    3    0    0  0.11123841745E+00 -0.24459041570E-01  0.48868555696E-01  0.12598914341E+00  0.22647257903E-01 0.  0.
         14    1    1    2    0    0 -0.79695539114E-02  0.28136834971E-01  0.72176608062E-02  0.30121253282E-01  0.00000000000E+00 0. -1.
     999901    1    3    3    0    0 -0.10326886353E+00 -0.36777934010E-02 -0.56086216502E-01  0.88781960331E+00  0.88000000000E+00 0.  1.
        -11    1    4    4    0    0  0.49336671184E-01 -0.64967667762E-02  0.32660128394E-01  0.59525290506E-01  0.51100000000E-03 0.  1.
         11    1    4    4    0    0  0.61901746262E-01 -0.17962274794E-01  0.16208427302E-01  0.66463852902E-01  0.51100000000E-03 0. -1.
</event>
<event>
 8    1  0.1116841E+005  0.1043930E+01  0.7957747E-01            NaN
         13   -1    0    0    0    0  0.00000000000E+00  0.00000000000E+00  0.74505805969E-08  0.10566000000E+00  0.10566000000E+00 0. -1.
     999900   -1    0    0    0    0 -0.00000000000E+00 -0.00000000000E+00 -0.74505805969E-08  0.93827000000E+00  0.93827000000E+00 0.  1.
     999902    2    1    2    0    0 -0.18655855206E-01 -0.11488399632E-01  0.54634273130E-02  0.10213496258E+01  0.10210999877E+01 0.  0.
     999903    2    3    3    0    0 -0.40740016188E-01  0.91120480231E-01 -0.81863658691E-01  0.13082039423E+00  0.21204388573E-01 0.  0.
         14    1    1    2    0    0  0.18655855206E-01  0.11488399632E-01 -0.54634273130E-02  0.22580374168E-01  0.00000000000E+00 0. -1.
     999901    1    3    3    0    0  0.22084160982E-01 -0.10260887986E+00  0.87327086004E-01  0.89052923161E+00  0.88000000000E+00 0. -1.
        -11    1    4    4    0    0 -0.40505322183E-01  0.71613991909E-01 -0.62444456322E-01  0.10328996180E+00  0.51100000000E-03 0.  1.
         11    1    4    4    0    0 -0.23469400468E-03  0.19506488322E-01 -0.19419202369E-01  0.27530432426E-01  0.51100000000E-03 0. -1.
</event>
<event>
 8    1  0.1116841E+005  0.1043930E+01  0.7957747E-01            NaN
         13   -1    0    0    0    0  0.00000000000E+00  0.00000000000E+00  0.74505805969E-08  0.10566000000E+00  0.10566000000E+00 0. -1.
     999900   -1    0    0    0    0 -0.00000000000E+00 -0.00000000000E+00 -0.74505805969E-08  0.93827000000E+00  0.93827000000E+00 0. -1.
     999902    2    1    2    0    0  0.12831362292E-01  0.18912442795E-01 -0.23107630290E-01  0.10114294319E+01  0.10109071217E+01 0.  0.
     999903    2    3    3    0    0 -0.38353999096E-01  0.21171631103E-01  0.10996282123E+00  0.11995156327E+00  0.19423909680E-01 0.  0.
         14    1    1    2    0    0 -0.12831362292E-01 -0.18912442795E-01  0.23107630290E-01  0.32500568124E-01  0.00000000000E+00 0. -1.
     999901    1    3    3    0    0  0.51185361388E-01 -0.22591883088E-02 -0.13307045152E+00  0.89147786861E+00  0.88000000000E+00 0. -1.
        -11    1    4    4    0    0 -0.10644219315E-01  0.16180056972E-01  0.37495952458E-01  0.42205464340E-01  0.51100000000E-03 0. -1.
         11    1    4    4    0    0 -0.27709779781E-01  0.49915741315E-02  0.72466868772E-01  0.77746098927E-01  0.51100000000E-03 0.  1.
</event>
<event>
 8    1  0.1116841E+005  0.1043930E+01  0.7957747E-01            NaN
         13   -1    0    0    0    0  0.00000000000E+00  0.00000000000E+00  0.74505805969E-08  0.10566000000E+00  0.10566000000E+00 0.  1.
     999900   -1    0    0    0    0 -0.00000000000E+00 -0.00000000000E+00 -0.74505805969E-08  0.93827000000E+00  0.93827000000E+00 0.  1.
     999902    2    1    2    0    0  0.92406664050E-03 -0.22215585550E-01  0.64046832635E-02  0.10207911559E+01  0.10205288716E+01 0.  0.
     999903    2    3    3    0    0  0.90104939814E-01  0.47606346239E-01  0.79381839283E-01  0.13053613869E+00  0.18786769663E-01 0.  0.
         14    1    1    2    0    0 -0.92406664050E-03  0.22215585550E-01 -0.64046832635E-02  0.23138844141E-01  0.00000000000E+00 0.  1.
     999901    1    3    3    0    0 -0.89180873173E-01 -0.69821931789E-01 -0.72977156019E-01  0.89025501717E+00  0.88000000000E+00 0.  1.
        -11    1    4    4    0    0  0.80560031952E-01  0.47804996693E-01  0.75080806142E-01  0.12005259276E+00  0.51100000000E-03 0. -1.
         11    1    4    4    0    0  0.95449078618E-02 -0.19865045372E-03  0.43010331410E-02  0.10483545926E-01  0.51100000000E-03 0.  1.
</event>
<event>
 8    1  0.1116841E+005  0.1043930E+01  0.7957747E-01            NaN
         13   -1    0    0    0    0  0.00000000000E+00  0.00000000000E+00  0.74505805969E-08  0.10566000000E+00  0.10566000000E+00 0. -1.
     999900   -1    0    0    0    0 -0.00000000000E+00 -0.00000000000E+00 -0.74505805969E-08  0.93827000000E+00  0.93827000000E+00 0. -1.
     999902    2    1    2    0    0  0.80502805204E-02 -0.13055468391E-01  0.18407208118E-01  0.10199700838E+01  0.10196886262E+01 0.  0.
     999903    2    3    3    0    0 -0.10319259888E+00  0.30554340618E-02 -0.73540318566E-01  0.12806824673E+00  0.18309812220E-01 0.  0.
         14    1    1    2    0    0 -0.80502805204E-02  0.13055468391E-01 -0.18407208118E-01  0.23959916153E-01  0.00000000000E+00 0.  1.
     999901    1    3    3    0    0  0.11124287940E+00 -0.16110902453E-01  0.91947526684E-01  0.89190183712E+00  0.88000000000E+00 0.  1.
        -11    1    4    4    0    0 -0.36899361983E-01 -0.24399865518E-02 -0.16741725423E-01  0.40596341464E-01  0.51100000000E-03 0.  1.
         11    1    4    4    0    0 -0.66293236899E-01  0.54954206137E-02 -0.56798593143E-01  0.87471905263E-01  0.51100000000E-03 0. -1.
</event>
<event>
 8    1  0.1116841E+005  0.1043930E+01  0.7957747E-01            NaN
         13   -1    0    0    0    0  0.00000000000E+00  0.00000000000E+00  0.74505805969E-08  0.10566000000E+00  0.10566000000E+00 0.  1.
     999900   -1    0    0    0    0 -0.00000000000E+00 -0.00000000000E+00 -0.74505805969E-08  0.93827000000E+00  0.93827000000E+00 0.  1.
     999902    2    1    2    0    0  0.58789339968E-02  0.22455464019E-01 -0.27849655383E-02  0.10205512540E+01  0.10202834392E+01 0.  0.
     999903    2    3    3    0    0  0.29716040463E-01  0.12686408336E+00  0.22201090192E-01  0.13370647032E+00  0.20174069829E-01 0.  0.
         14    1    1    2    0    0 -0.58789339968E-02 -0.22455464019E-01  0.27849655383E-02  0.23378745952E-01  0.00000000000E+00 0. -1.
     999901    1    3    3    0    0 -0.23837106466E-01 -0.10440861934E+00 -0.24986055730E-01  0.88684478372E+00  0.88000000000E+00 0. -1.
        -11    1    4    4    0    0  0.24302248694E-01  0.98186999418E-01  0.86327818362E-02  0.10151882677E+00  0.51100000000E-03 0.  1.
         11    1    4    4    0    0  0.54137917686E-02  0.28677083942E-01  0.13568308356E-01  0.32187643551E-01  0.51100000000E-03 0. -1.
</event>
<event>
 8    1  0.1116841E+005  0.1043930E+01  0.7957747E-01            NaN
         13   -1    0    0    0    0  0.00000000000E+00  0.00000000000E+00  0.74505805969E-08  0.10566000000E+00  0.10566000000E+00 0. -1.
     999900   -1    0    0    0    0 -0.00000000000E+00 -0.00000000000E+00 -0.74505805969E-08  0.93827000000E+00  0.93827000000E+00 0.  1.
     999902    2    1    2    0    0  0.30172945965E-02  0.15750730157E-01  0.16987025635E-01  0.10205687370E+01  0.10203013273E+01 0.  0.
     999903    2    3    3    0    0  0.84411821995E-01  0.60254116452E-02 -0.95891776069E-01  0.12957980625E+00  0.20833439297E-01 0.  0.
         14    1    1    2    0    0 -0.30172945965E-02 -0.15750730157E-01 -0.16987025635E-01  0.23361262960E-01  0.00000000000E+00 0. -1.
     999901    1    3    3    0    0 -0.81394527398E-01  0.97253185119E-02  0.11287880170E+00  0.89098893079E+00  0.88000000000E+00 0. -1.
        -11    1    4    4    0    0  0.72568811450E-01  0.12506199515E-01 -0.81413444935E-01  0.10977726340E+00  0.51100000000E-03 0.  1.
         11    1    4    4    0    0  0.11843010545E-01 -0.64807878694E-02 -0.14478331134E-01  0.19802542857E-01  0.51100000000E-03 0. -1.
</event>
<event>
 8    1  0.1116841E+005  0.1043930E+01  0.7957747E-01            NaN
         13   -1    0    0    0    0  0.00000000000E+00  0.00000000000E+00  0.74505805969E-08  0.10566000000E+00  0.10566000000E+00 0. -1.
     999900   -1    0    0    0    0 -0.00000000000E+00 -0.00000000000E+00 -0.74505805969E-08  0.93827000000E+00  0.93827000000E+00 0. -1.
     999902    2    1    2    0    0 -0.11742219203E-01  0.66886046307E-02  0.15804036919E-01  0.10231361373E+01  0.10229248118E+01 0.  0.
     999903    2    3    3    0    0 -0.88453279378E-01 -0.58387159300E-01  0.81187722261E-01  0.13499511914E+00  0.19979813346E-01 0.  0.
         14    1    1    2    0    0  0.11742219203E-01 -0.66886046307E-02 -0.15804036919E-01  0.20793862716E-01  0.00000000000E+00 0.  1.
     999901    1    3    3    0    0  0.76711060175E-01  0.65075763931E-01 -0.65383685342E-01  0.88814101815E+00  0.88000000000E+00 0. -1.
        -11    1    4    4    0    0 -0.78028579176E-01 -0.42575933759E-01  0.65992700298E-01  0.11070892881E+00  0.51100000000E-03 0. -1.
         11    1    4    4    0    0 -0.10424700202E-01 -0.15811225541E-01  0.15195021963E-01  0.24286190332E-01  0.51100000000E-03 0.  1.
</event>
<event>
 8    1  0.1116841E+005  0.1043930E+01  0.7957747E-01            NaN
         13   -1    0    0    0    0  0.00000000000E+00  0.00000000000E+00  0.74505805969E-08  0.10566000000E+00  0.10566000000E+00 0. -1.
     999900   -1    0    0    0    0 -0.00000000000E+00 -0.00000000000E+00 -0.74505805969E-08  0.93827000000E+00  0.93827000000E+00 0.  1.
     999902    2    1    2    0    0 -0.90114250365E-02  0.16562467959E-01  0.18318118091E-01  0.10176417027E+01  0.10173020989E+01 0.  0.
     999903    2    3    3    0    0  0.12459676070E-01  0.17778564632E-01  0.12726686640E+00  0.13066238113E+00  0.20111729716E-01 0.  0.
         14    1    1    2    0    0  0.90114250365E-02 -0.16562467959E-01 -0.18318118091E-01  0.26288297329E-01  0.00000000000E+00 0.  1.
     999901    1    3    3    0    0 -0.21471101106E-01 -0.12160966730E-02 -0.10894874831E+00  0.88697932154E+00  0.88000000000E+00 0.  1.
        -11    1    4    4    0    0  0.10213219633E-01 -0.69710053372E-06  0.67316270089E-01  0.68088554071E-01  0.51100000000E-03 0. -1.
         11    1    4    4    0    0  0.22464564363E-02  0.17779261733E-01  0.59950596311E-01  0.62573827063E-01  0.51100000000E-03 0.  1.
</event>
<event>
 8    1  0.1116841E+005  0.1043930E+01  0.7957747E-01            NaN
         13   -1    0    0    0    0  0.00000000000E+00  0.00000000000E+00  0.74505805969E-08  0.10566000000E+00  0.10566000000E+00 0.  1.
     999900   -1    0    0    0    0 -0.00000000000E+00 -0.00000000000E+00 -0.74505805969E-08  0.93827000000E+00  0.93827000000E+00 0. -1.
     999902    2    1    2    0    0 -0.17807946416E-01  0.10090330686E-01 -0.98900131497E-02  0.10211978622E+01  0.10209448191E+01 0.  0.
     999903    2    3    3    0    0 -0.11195490027E+00 -0.62610483064E-01 -0.29207487970E-01  0.13298492485E+00  0.19440694446E-01 0.  0.
         14    1    1    2    0    0  0.17807946416E-01 -0.10090330686E-01  0.98900131497E-02  0.22732137801E-01  0.00000000000E+00 0.  1.
     999901    1    3    3    0    0  0.94146953851E-01  0.72700813750E-01  0.19317474820E-01  0.88821293735E+00  0.88000000000E+00 0. -1.
        -11    1    4    4    0    0 -0.48762809511E-01 -0.16560497598E-01 -0.13302988373E-01  0.53191092231E-01  0.51100000000E-03 0. -1.
         11    1    4    4    0    0 -0.63192090756E-01 -0.46049985466E-01 -0.15904499596E-01  0.79793832619E-01  0.51100000000E-03 0.  1.
</event>
<event>
 8    1  0.1116841E+005  0.1043930E+01  0.7957747E-01            NaN
         13   -1    0    0    0    0  0.00000000000E+00  0.00000000000E+00  0.74505805969E-08  0.10566000000E+00  0.10566000000E+00 0.  1.
     999900   -1    0    0    0    0 -0.00000000000E+00 -0.00000000000E+00 -0.74505805969E-08  0.93827000000E+00  0.93827000000E+00 0. -1.
     999902    2    1    2    0    0 -0.96211938094E-02  0.21030097291E-01 -0.54177843396E-02  0.10201774265E+01  0.10199008759E+01 0.  0.
     999903    2    3    3    0    0  0.33610706078E-01  0.30007672752E-01  0.12042724358E+00  0.13012879572E+00  0.20016055864E-01 0.  0.
         14    1    1    2    0    0  0.96211938094E-02 -0.21030097291E-01  0.54177843396E-02  0.23752573535E-01  0.00000000000E+00 0. -1.
     999901    1    3    3    0    0 -0.43231899888E-01 -0.89775754613E-02 -0.12584502792E+00  0.89004863074E+00  0.88000000000E+00 0. -1.
        -11    1    4    4    0    0  0.14851735979E-02  0.12718335943E-01  0.30796005681E-01  0.33355912469E-01  0.51100000000E-03 0. -1.
         11    1    4    4    0    0  0.32125532480E-01  0.17289336810E-01  0.89631237904E-01  0.96772883256E-01  0.51100000000E-03 0.  1.
</event>
<event>
 8    1  0.1116841E+005  0.1043930E+01  0.7957747E-01            NaN
         13   -1    0    0    0    0  0.00000000000E+00  0.00000000000E+00  0.74505805969E-08  0.10566000000E+00  0.10566000000E+00 0. -1.
     999900   -1    0    0    0    0 -0.00000000000E+00 -0.00000000000E+00 -0.74505805969E-08  0.93827000000E+00  0.93827000000E+00 0. -1.
     999902    2    1    2    0    0  0.15199903079E-01 -0.28661067635E-02 -0.17759632529E-01  0.10203788606E+01  0.10201070350E+01 0.  0.
     999903    2    3    3    0    0 -0.12475249516E+00 -0.99922486007E-02  0.21665443645E-01  0.12841933664E+00  0.18950052625E-01 0.  0.
         14    1    1    2    0    0 -0.15199903079E-01  0.28661067635E-02  0.17759632529E-01  0.23551139446E-01  0.00000000000E+00 0.  1.
     999901    1    3    3    0    0  0.13995239824E+00  0.71261418372E-02 -0.39425076174E-01  0.89195952391E+00  0.88000000000E+00 0.  1.
        -11    1    4    4    0    0 -0.45556414333E-01 -0.51700129605E-02 -0.11290266094E-02  0.45865583425E-01  0.51100000000E-03 0.  1.
         11    1    4    4    0    0 -0.79196080825E-01 -0.48222356402E-02  0.22794470254E-01  0.82553753215E-01  0.51100000000E-03 0. -1.
</event>
<event>
 8    1  0.1116841E+005  0.1043930E+01  0.7957747E-01            NaN
         13   -1    0    0    0    0  0.00000000000E+00  0.00000000000E+00  0.74505805969E-08  0.10566000000E+00  0.10566000000E+00 0. -1.
     999900   -1    0    0    0    0 -0.00000000000E+00 -0.00000000000E+00 -0.74505805969E-08  0.93827000000E+00  0.93827000000E+00 0.  1.
     999902    2    1    2    0    0  0.17800311107E-01  0.14083700279E-01 -0.55276365171E-02  0.10205685691E+01  0.10203011554E+01 0.  0.
     999903    2    3    3    0    0  0.10839386172E+00 -0.71713434623E-01  0.64797214692E-02  0.13168583417E+00  0.20177367692E-01 0.  0.
         14    1    1    2    0    0 -0.17800311107E-01 -0.14083700279E-01  0.55276365171E-02  0.23361430918E-01  0.00000000000E+00 0.  1.
     999901    1    3    3    0    0 -0.90593550617E-01  0.85797134902E-01 -0.12007357986E-01  0.88888273491E+00  0.88000000000E+00 0.  1.
        -11    1    4    4    0    0  0.53313395250E-01 -0.27047570639E-01 -0.43718342539E-02  0.59943834097E-01  0.51100000000E-03 0.  1.
         11    1    4    4    0    0  0.55080466474E-01 -0.44665863984E-01  0.10851555723E-01  0.71742000077E-01  0.51100000000E-03 0. -1.
</event>
<event>
 8    1  0.1116841E+005  0.1043930E+01  0.7957747E-01            NaN
         13   -1    0    0    0    0  0.00000000000E+00  0.00000000000E+00  0.74505805969E-08  0.10566000000E+00  0.10566000000E+00 0. -1.
     999900   -1    0    0    0    0 -0.00000000000E+00 -0.00000000000E+00 -0.74505805969E-08  0.93827000000E+00  0.93827000000E+00 0.  1.
     999902    2    1    2    0    0 -0.15483551067E-01 -0.15186010569E-01 -0.97515763553E-02  0.10201508387E+01  0.10198736614E+01 0.  0.
     999903    2    3    3    0    0  0.12499292856E+00  0.19029362023E-01  0.30021094697E-02  0.12826127740E+00  0.21368055859E-01 0.  0.
         14    1    1    2    0    0  0.15483551067E-01  0.15186010569E-01  0.97515763553E-02  0.23779161298E-01  0.00000000000E+00 0. -1.
     999901    1    3    3    0    0 -0.14047647963E+00 -0.34215372592E-01 -0.12753685825E-01  0.89188956130E+00  0.88000000000E+00 0. -1.
        -11    1    4    4    0    0  0.69565037619E-01  0.18768934910E-01 -0.51315887559E-02  0.72236844482E-01  0.51100000000E-03 0.  1.
         11    1    4    4    0    0  0.55427890941E-01  0.26042711275E-03  0.81336982255E-02  0.56024432922E-01  0.51100000000E-03 0. -1.
</event>
<event>
 8    1  0.1116841E+005  0.1043930E+01  0.7957747E-01            NaN
         13   -1    0    0    0    0  0.00000000000E+00  0.00000000000E+00  0.74505805969E-08  0.10566000000E+00  0.10566000000E+00 0. -1.
     999900   -1    0    0    0    0 -0.00000000000E+00 -0.00000000000E+00 -0.74505805969E-08  0.93827000000E+00  0.93827000000E+00 0. -1.
     999902    2    1    2    0    0  0.41346500950E-02  0.11665642988E-01 -0.19703092518E-01  0.10206621163E+01  0.10203968646E+01 0.  0.
     999903    2    3    3    0    0 -0.29680960195E-01 -0.11530822523E+00 -0.51193814319E-01  0.13034895550E+00  0.13895948077E-01 0.  0.
         14    1    1    2    0    0 -0.41346500950E-02 -0.11665642988E-01  0.19703092518E-01  0.23267883713E-01  0.00000000000E+00 0. -1.
     999901    1    3    3    0    0  0.33815610290E-01  0.12697386821E+00  0.31490721801E-01  0.89031316079E+00  0.88000000000E+00 0. -1.
        -11    1    4    4    0    0 -0.93773308862E-02 -0.30961021806E-01 -0.75112973319E-02  0.33214453396E-01  0.51100000000E-03 0.  1.
         11    1    4    4    0    0 -0.20303629309E-01 -0.84347203420E-01 -0.43682516987E-01  0.97134502105E-01  0.51100000000E-03 0. -1.
</event>
<event>
 8    1  0.1116841E+005  0.1043930E+01  0.7957747E-01            NaN
         13   -1    0    0    0    0  0.00000000000E+00  0.00000000000E+00  0.74505805969E-08  0.10566000000E+00  0.10566000000E+00 0.  1.
     999900   -1    0    0    0    0 -0.00000000000E+00 -0.00000000000E+00 -0.74505805969E-08  0.93827000000E+00  0.93827000000E+00 0.  1.
     999902    2    1    2    0    0  0.93687848547E-02  0.24468830754E-01 -0.21808609991E-02  0.10176382910E+01  0.10172985979E+01 0.  0.
     999903    2    3    3    0    0 -0.86620116259E-01 -0.86791110762E-01  0.16571621290E-01  0.12525703877E+00  0.19467040868E-01 0.  0.
         14    1    1    2    0    0 -0.93687848547E-02 -0.24468830754E-01  0.21808609991E-02  0.26291709013E-01  0.00000000000E+00 0. -1.
     999901    1    3    3    0    0  0.95988901114E-01  0.11125994152E+00 -0.18752482289E-01  0.89238125222E+00  0.88000000000E+00 0.  1.
        -11    1    4    4    0    0 -0.33265395635E-01 -0.34321357258E-01 -0.30404723005E-02  0.47896218052E-01  0.51100000000E-03 0.  1.
         11    1    4    4    0    0 -0.53354720624E-01 -0.52469753504E-01  0.19612093590E-01  0.77360820714E-01  0.51100000000E-03 0. -1.
</event>
<event>
 8    1  0.1116841E+005  0.1043930E+01  0.7957747E-01            NaN
         13   -1    0    0    0    0  0.00000000000E+00  0.00000000000E+00  0.74505805969E-08  0.10566000000E+00  0.10566000000E+00 0. -1.
     999900   -1    0    0    0    0 -0.00000000000E+00 -0.00000000000E+00 -0.74505805969E-08  0.93827000000E+00  0.93827000000E+00 0. -1.
     999902    2    1    2    0    0 -0.67969265784E-02 -0.11211003738E-01  0.21523044510E-01  0.10187282885E+01  0.10184165158E+01 0.  0.
     999903    2    3    3    0    0 -0.42586864353E-02  0.44597243309E-01 -0.11638826267E+00  0.12623709432E+00  0.19558266139E-01 0.  0.
         14    1    1    2    0    0  0.67969265784E-02  0.11211003738E-01 -0.21523044510E-01  0.25201711463E-01  0.00000000000E+00 0.  1.
     999901    1    3    3    0    0 -0.25382401431E-02 -0.55808247047E-01  0.13791130718E+00  0.89249119421E+00  0.88000000000E+00 0.  1.
        -11    1    4    4    0    0 -0.80415067061E-02  0.24546951749E-01 -0.43978907056E-01  0.51006117840E-01  0.51100000000E-03 0.  1.
         11    1    4    4    0    0  0.37828202707E-02  0.20050291560E-01 -0.72409355615E-01  0.75230976482E-01  0.51100000000E-03 0. -1.
</event>
<event>
 8    1  0.1116841E+005  0.1043930E+01  0.7957747E-01            NaN
         13   -1    0    0    0    0  0.00000000000E+00  0.00000000000E+00  0.74505805969E-08  0.10566000000E+00  0.10566000000E+00 0.  1.
     999900   -1    0    0    0    0 -0.00000000000E+00 -0.00000000000E+00 -0.74505805969E-08  0.93827000000E+00  0.93827000000E+00 0. -1.
     999902    2    1    2    0    0 -0.21256586496E-01 -0.71866460034E-02 -0.19822478282E-02  0.10214040226E+01  0.10211555992E+01 0.  0.
     999903    2    3    3    0    0  0.18592118986E-01  0.12710347788E+00  0.48286604951E-02  0.13029900908E+00  0.21296826688E-01 0.  0.
         14    1    1    2    0    0  0.21256586496E-01  0.71866460034E-02  0.19822478282E-02  0.22525977375E-01  0.00000000000E+00 0.  1.
     999901    1    3    3    0    0 -0.39848705482E-01 -0.13429012388E+00 -0.68109083234E-02  0.89110501355E+00  0.88000000000E+00 0.  1.
        -11    1    4    4    0    0  0.15771020919E-01  0.52294510097E-01 -0.47284931526E-02  0.54827553799E-01  0.51100000000E-03 0. -1.
         11    1    4    4    0    0  0.28210980666E-02  0.74808967781E-01  0.95571536477E-02  0.75471455276E-01  0.51100000000E-03 0.  1.
</event>
<event>
 8    1  0.1116841E+005  0.1043930E+01  0.7957747E-01            NaN
         13   -1    0    0    0    0  0.00000000000E+00  0.00000000000E+00  0.74505805969E-08  0.10566000000E+00  0.10566000000E+00 0. -1.
     999900   -1    0    0    0    0 -0.00000000000E+00 -0.00000000000E+00 -0.74505805969E-08  0.93827000000E+00  0.93827000000E+00 0. -1.
     999902    2    1    2    0    0  0.12463882400E-01 -0.90591865108E-02  0.19554171189E-01  0.10190345620E+01  0.10187304136E+01 0.  0.
     999903    2    3    3    0    0  0.10400395353E+00 -0.40798163320E-01  0.68018945284E-01  0.13239157766E+00  0.20485127231E-01 0.  0.
         14    1    1    2    0    0 -0.12463882400E-01  0.90591865108E-02 -0.19554171189E-01  0.24895438048E-01  0.00000000000E+00 0.  1.
     999901    1    3    3    0    0 -0.91540071126E-01  0.31738976809E-01 -0.48464774095E-01  0.88664298429E+00  0.88000000000E+00 0. -1.
        -11    1    4    4    0    0  0.28205150711E-01 -0.43129554439E-02  0.10165709813E-01  0.30294139504E-01  0.51100000000E-03 0. -1.
         11    1    4    4    0    0  0.75798802815E-01 -0.36485207876E-01  0.57853235471E-01  0.10209743815E+00  0.51100000000E-03 0.  1.
</event>
<event>
 8    1  0.1116841E+005  0.1043930E+01  0.7957747E-01            NaN
         13   -1    0    0    0    0  0.00000000000E+00  0.00000000000E+00  0.74505805969E-08  0.10566000000E+00  0.10566000000E+00 0.  1.
     999900   -1    0    0    0    0 -0.00000000000E+00 -0.00000000000E+00 -0.74505805969E-08  0.93827000000E+00  0.93827000000E+00 0.  1.
     999902    2    1    2    0    0  0.15462697872E-01  0.88121325206E-02 -0.14845534121E-01  0.10207537495E+01  0.10204906068E+01 0.  0.
     999903    2    3    3    0    0  0.11614067775E+00  0.52539547950E-02 -0.63166920667E-01  0.13368911110E+00  0.19143079418E-01 0.  0.
         14    1    1    2    0    0 -0.15462697872E-01 -0.88121325206E-02  0.14845534121E-01  0.23176250525E-01  0.00000000000E+00 0. -1.
     999901    1    3    3    0    0 -0.10067797988E+00  0.35581777256E-02  0.48321386545E-01  0.88706463838E+00  0.88000000000E+00 0. -1.
        -11    1    4    4    0    0  0.84831268596E-01  0.19678550005E-02 -0.55137232536E-01  0.10119581077E+00  0.51100000000E-03 0. -1.
         11    1    4    4    0    0  0.31309409157E-01  0.32860997945E-02 -0.80296881310E-02  0.32493300327E-01  0.51100000000E-03 0.  1.
</event>
<event>
 8    1  0.1116841E+005  0.1043930E+01  0.7957747E-01            NaN
         13   -1    0    0    0    0  0.00000000000E+00  0.00000000000E+00  0.74505805969E-08  0.10566000000E+00  0.10566000000E+00 0. -1.
     999900   -1    0    0    0    0 -0.00000000000E+00 -0.00000000000E+00 -0.74505805969E-08  0.93827000000E+00  0.93827000000E+00 0.  1.
     999902    2    1    2    0    0  0.25802262483E-01  0.53013274741E-02  0.77427762620E-02  0.10164743739E+01  0.10161035092E+01 0.  0.
     999903    2    3    3    0    0  0.12172719847E+00 -0.37661232035E-01 -0.14654776002E-01  0.12993671239E+00  0.20806429805E-01 0.  0.
         14    1    1    2    0    0 -0.25802262483E-01 -0.53013274741E-02 -0.77427762620E-02  0.27455626135E-01  0.00000000000E+00 0. -1.
     999901    1    3    3    0    0 -0.95924935988E-01  0.42962559510E-01  0.22397552264E-01  0.88653766147E+00  0.88000000000E+00 0.  1.
        -11    1    4    4    0    0  0.28912824088E-01 -0.43082245850E-02 -0.11016227869E-01  0.31243088728E-01  0.51100000000E-03 0.  1.
         11    1    4    4    0    0  0.92814374384E-01 -0.33353007450E-01 -0.36385481325E-02  0.98693623663E-01  0.51100000000E-03 0. -1.
</event>
<event>
 8    1  0.1116841E+005  0.1043930E+01  0.7957747E-01            NaN
         13   -1    0    0    0    0  0.00000000000E+00  0.00000000000E+00  0.74505805969E-08  0.10566000000E+00  0.10566000000E+00 0.  1.
     999900   -1    0    0    0    0 -0.00000000000E+00 -0.00000000000E+00 -0.74505805969E-08  0.93827000000E+00  0.93827000000E+00 0.  1.
     999902    2    1    2    0    0  0.19307496268E-01  0.14290458999E-01  0.27640075141E-02  0.10197507451E+01  0.10194640483E+01 0.  0.
     999903    2    3    3    0    0  0.12712125199E+00  0.21576889261E-01  0.24768352290E-01  0.13286795172E+00  0.20372689056E-01 0.  0.
         14    1    1    2    0    0 -0.19307496268E-01 -0.14290458999E-01 -0.27640075141E-02  0.24179254912E-01  0.00000000000E+00 0. -1.
     999901    1    3    3    0    0 -0.10781375573E+00 -0.72864302619E-02 -0.22004344776E-01  0.88688279337E+00  0.88000000000E+00 0.  1.
        -11    1    4    4    0    0  0.99620024526E-01  0.12246953780E-01  0.26373400811E-01  0.10377839156E+00  0.51100000000E-03 0.  1.
         11    1    4    4    0    0  0.27501227469E-01  0.93299354814E-02 -0.16050485203E-02  0.29089560157E-01  0.51100000000E-03 0. -1.
</event>
<event>
 8    1  0.1116841E+005  0.1043930E+01  0.7957747E-01            NaN
         13   -1    0    0    0    0  0.00000000000E+00  0.00000000000E+00  0.74505805969E-08  0.10566000000E+00  0.10566000000E+00 0.  1.
     999900   -1    0    0    0    0 -0.00000000000E+00 -0.00000000000E+00 -0.74505805969E-08  0.93827000000E+00  0.93827000000E+00 0. -1.
     999902    2    1    2    0    0  0.19253165637E-01  0.48169334307E-02  0.12653936173E-01  0.10203925971E+01  0.10201210923E+01 0.  0.
     999903    2    3    3    0    0  0.90810870295E-01  0.85769219693E-02 -0.92379933386E-01  0.13125438716E+00  0.19325741982E-01 0.  0.
         14    1    1    2    0    0 -0.19253165637E-01 -0.48169334307E-02 -0.12653936173E-01  0.23537402902E-01  0.00000000000E+00 0. -1.
     999901    1    3    3    0    0 -0.71557704658E-01 -0.37599885386E-02  0.10503386956E+00  0.88913820993E+00  0.88000000000E+00 0.  1.
        -11    1    4    4    0    0  0.13524588321E-01  0.35999230859E-03 -0.53166796076E-02  0.14545524630E-01  0.51100000000E-03 0.  1.
         11    1    4    4    0    0  0.77286281973E-01  0.82169296607E-02 -0.87063253779E-01  0.11670886253E+00  0.51100000000E-03 0. -1.
</event>
<event>
 8    1  0.1116841E+005  0.1043930E+01  0.7957747E-01            NaN
         13   -1    0    0    0    0  0.00000000000E+00  0.00000000000E+00  0.74505805969E-08  0.10566000000E+00  0.10566000000E+00 0. -1.
     999900   -1    0    0    0    0 -0.00000000000E+00 -0.00000000000E+00 -0.74505805969E-08  0.93827000000E+00  0.93827000000E+00 0.  1.
     999902    2    1    2    0    0 -0.18206812368E-02 -0.13640258131E-01 -0.19515436277E-01  0.10200506412E+01  0.10197710953E+01 0.  0.
     999903    2    3    3    0    0 -0.94931710922E-01 -0.15117106820E-01 -0.88726612872E-01  0.13243471534E+00  0.20639412265E-01 0.  0.
         14    1    1    2    0    0  0.18206812368E-02  0.13640258131E-01  0.19515436277E-01  0.23879358767E-01  0.00000000000E+00 0. -1.
     999901    1    3    3    0    0  0.93111029685E-01  0.14768486885E-02  0.69211176595E-01  0.88761592589E+00  0.88000000000E+00 0. -1.
        -11    1    4    4    0    0 -0.61564207911E-01 -0.76258305943E-03 -0.61612632554E-01  0.87104023098E-01  0.51100000000E-03 0.  1.
         11    1    4    4    0    0 -0.33367503010E-01 -0.14354523761E-01 -0.27113980317E-01  0.45330692243E-01  0.51100000000E-03 0. -1.
</event>
<event>
 8    1  0.1116841E+005  0.1043930E+01  0.7957747E-01            NaN
         13   -1    0    0    0    0  0.00000000000E+00  0.00000000000E+00  0.74505805969E-08  0.10566000000E+00  0.10566000000E+00 0. -1.
     999900   -1    0    0    0    0 -0.00000000000E+00 -0.00000000000E+00 -0.74505805969E-08  0.93827000000E+00  0.93827000000E+00 0. -1.
     999902    2    1    2    0    0 -0.23369934362E-01 -0.19898319029E-02  0.25400798419E-02  0.10203383644E+01  0.10200655923E+01 0.  0.
     999903    2    3    3    0    0 -0.13922425341E-01 -0.84625873038E-01  0.97568154255E-01  0.13132300706E+00  0.19256561054E-01 0.  0.
         14    1    1    2    0    0  0.23369934362E-01  0.19898319029E-02 -0.25400798419E-02  0.23591635566E-01  0.00000000000E+00 0. -1.
     999901    1    3    3    0    0 -0.94475090203E-02  0.82636041136E-01 -0.95028074413E-01  0.88901535737E+00  0.88000000000E+00 0. -1.
        -11    1    4    4    0    0  0.24286729793E-02 -0.10468053419E-01  0.20354586387E-01  0.23022790943E-01  0.51100000000E-03 0. -1.
         11    1    4    4    0    0 -0.16351098321E-01 -0.74157819620E-01  0.77213567867E-01  0.10830021612E+00  0.51100000000E-03 0.  1.
</event>
<event>
 8    1  0.1116841E+005  0.1043930E+01  0.7957747E-01            NaN
         13   -1    0    0    0    0  0.00000000000E+00  0.00000000000E+00  0.74505805969E-08  0.10566000000E+00  0.10566000000E+00 0. -1.
     999900   -1    0    0    0    0 -0.00000000000E+00 -0.00000000000E+00 -0.74505805969E-08  0.93827000000E+00  0.93827000000E+00 0. -1.
     999902    2    1    2    0    0  0.23322680884E-01 -0.51949715998E-02  0.12984687150E-01  0.10167355654E+01  0.10163718181E+01 0.  0.
     999903    2    3    3    0    0 -0.63173383839E-01 -0.87017709479E-01 -0.61729882797E-01  0.12557968867E+00  0.19917871055E-01 0.  0.
         14    1    1    2    0    0 -0.23322680884E-01  0.51949715998E-02 -0.12984687150E-01  0.27194434613E-01  0.00000000000E+00 0.  1.
     999901    1    3    3    0    0  0.86496064723E-01  0.81822737879E-01  0.74714569948E-01  0.89115587672E+00  0.88000000000E+00 0. -1.
        -11    1    4    4    0    0 -0.15358762132E-01 -0.30051861396E-01 -0.28257192945E-01  0.44019723099E-01  0.51100000000E-03 0.  1.
         11    1    4    4    0    0 -0.47814621707E-01 -0.56965848083E-01 -0.33472689853E-01  0.81559965569E-01  0.51100000000E-03 0. -1.
</event>
<event>
 8    1  0.1116841E+005  0.1043930E+01  0.7957747E-01            NaN
         13   -1    0    0    0    0  0.00000000000E+00  0.00000000000E+00  0.74505805969E-08  0.10566000000E+00  0.10566000000E+00 0.  1.
     999900   -1    0    0    0    0 -0.00000000000E+00 -0.00000000000E+00 -0.74505805969E-08  0.93827000000E+00  0.93827000000E+00 0. -1.
     999902    2    1    2    0    0 -0.75193218323E-03 -0.23365046297E-01  0.28476348628E-02  0.10203800570E+01  0.10201082594E+01 0.  0.
     999903    2    3    3    0    0 -0.35918259541E-01 -0.69774753970E-01 -0.10424247292E+00  0.13197765791E+00  0.19823505422E-01 0.  0.
         14    1    1    2    0    0  0.75193218323E-03  0.23365046297E-01 -0.28476348628E-02  0.23549942989E-01  0.00000000000E+00 0.  1.
     999901    1    3    3    0    0  0.35166327357E-01  0.46409707672E-01  0.10709010778E+00  0.88840239910E+00  0.88000000000E+00 0.  1.
        -11    1    4    4    0    0 -0.17040024389E-01 -0.52387761877E-01 -0.66925818529E-01  0.86684291151E-01  0.51100000000E-03 0. -1.
         11    1    4    4    0    0 -0.18878235152E-01 -0.17386992093E-01 -0.37316654388E-01  0.45293366757E-01  0.51100000000E-03 0.  1.
</event>
<event>
 8    1  0.1116841E+005  0.1043930E+01  0.7957747E-01            NaN
         13   -1    0    0    0    0  0.00000000000E+00  0.00000000000E+00  0.74505805969E-08  0.10566000000E+00  0.10566000000E+00 0. -1.
     999900   -1    0    0    0    0 -0.00000000000E+00 -0.00000000000E+00 -0.74505805969E-08  0.93827000000E+00  0.93827000000E+00 0.  1.
     999902    2    1    2    0    0  0.20196516888E-01 -0.77873084317E-02  0.26582455625E-02  0.10221215673E+01  0.10218888837E+01 0.  0.
     999903    2    3    3    0    0 -0.11479747264E+00 -0.42974599950E-01 -0.38826642926E-01  0.13016724187E+00  0.20266393129E-01 0.  0.
         14    1    1    2    0    0 -0.20196516888E-01  0.77873084317E-02 -0.26582455625E-02  0.21808432692E-01  0.00000000000E+00 0. -1.
     999901    1    3    3    0    0  0.13499398953E+00  0.35187291518E-01  0.41484888488E-01  0.89195432544E+00  0.88000000000E+00 0.  1.
        -11    1    4    4    0    0 -0.96238194588E-01 -0.38862641086E-01 -0.25294691334E-01  0.10682779367E+00  0.51100000000E-03 0. -1.
         11    1    4    4    0    0 -0.18559278050E-01 -0.41119588631E-02 -0.13531951591E-01  0.23339448200E-01  0.51100000000E-03 0.  1.
</event>
<event>
 8    1  0.1116841E+005  0.1043930E+01  0.7957747E-01            NaN
         13   -1    0    0    0    0  0.00000000000E+00  0.00000000000E+00  0.74505805969E-08  0.10566000000E+00  0.10566000000E+00 0.  1.
     999900   -1    0    0    0    0 -0.00000000000E+00 -0.00000000000E+00 -0.74505805969E-08  0.93827000000E+00  0.93827000000E+00 0. -1.
     999902    2    1    2    0    0 -0.12102305106E-01  0.14603710581E-02 -0.20456599723E-01  0.10201167485E+01  0.10198387665E+01 0.  0.
     999903    2    3    3    0    0 -0.12734484734E+00  0.87872683367E-02 -0.29350295855E-01  0.13252809112E+00  0.20207148270E-01 0.  0.
         14    1    1    2    0    0  0.12102305106E-01 -0.14603710581E-02  0.20456599723E-01  0.23813251452E-01  0.00000000000E+00 0.  1.
     999901    1    3    3    0    0  0.11524254223E+00 -0.73268972786E-02  0.88936961319E-02  0.88758865743E+00  0.88000000000E+00 0. -1.
        -11    1    4    4    0    0 -0.62443051267E-01  0.12734660798E-01 -0.20252365523E-01  0.66870962812E-01  0.51100000000E-03 0.  1.
         11    1    4    4    0    0 -0.64901796070E-01 -0.39473924618E-02 -0.90979303318E-02  0.65657128308E-01  0.51100000000E-03 0. -1.
</event>
<event>
 8    1  0.1116841E+005  0.1043930E+01  0.7957747E-01            NaN
         13   -1    0    0    0    0  0.00000000000E+00  0.00000000000E+00  0.74505805969E-08  0.10566000000E+00  0.10566000000E+00 0.  1.
     999900   -1    0    0    0    0 -0.00000000000E+00 -0.00000000000E+00 -0.74505805969E-08  0.93827000000E+00  0.93827000000E+00 0. -1.
     999902    2    1    2    0    0 -0.15092521028E-01  0.11762931311E-01 -0.12409977747E-01  0.10211230210E+01  0.10208682901E+01 0.  0.
     999903    2    3    3    0    0  0.12262111920E-01 -0.66464841768E-01  0.10755459540E+00  0.12912562232E+00  0.23184062807E-01 0.  0.
         14    1    1    2    0    0  0.15092521028E-01 -0.11762931311E-01  0.12409977747E-01  0.22806979013E-01  0.00000000000E+00 0.  1.
     999901    1    3    3    0    0 -0.27354632948E-01  0.78227773079E-01 -0.11996457314E+00  0.89199739867E+00  0.88000000000E+00 0. -1.
        -11    1    4    4    0    0  0.15267888711E-01 -0.36459769467E-01  0.74782617349E-01  0.84587967193E-01  0.51100000000E-03 0.  1.
         11    1    4    4    0    0 -0.30057767914E-02 -0.30005072301E-01  0.32771978047E-01  0.44537655124E-01  0.51100000000E-03 0. -1.
</event>
<event>
 8    1  0.1116841E+005  0.1043930E+01  0.7957747E-01            NaN
         13   -1    0    0    0    0  0.00000000000E+00  0.00000000000E+00  0.74505805969E-08  0.10566000000E+00  0.10566000000E+00 0.  1.
     999900   -1    0    0    0    0 -0.00000000000E+00 -0.00000000000E+00 -0.74505805969E-08  0.93827000000E+00  0.93827000000E+00 0.  1.
     999902    2    1    2    0    0 -0.15960723600E-01 -0.13143098802E-01 -0.90348650630E-02  0.10213664336E+01  0.10211171711E+01 0.  0.
     999903    2    3    3    0    0 -0.12634965521E+00 -0.15374921344E-01  0.34252350117E-01  0.13341120932E+00  0.20608340650E-01 0.  0.
         14    1    1    2    0    0  0.15960723600E-01  0.13143098802E-01  0.90348650630E-02  0.22563566444E-01  0.00000000000E+00 0.  1.
     999901    1    3    3    0    0  0.11038893161E+00  0.22318225415E-02 -0.43287215180E-01  0.88795522424E+00  0.88000000000E+00 0. -1.
        -11    1    4    4    0    0 -0.65431758060E-01 -0.64752451700E-02  0.71426225243E-02  0.66140168887E-01  0.51100000000E-03 0.  1.
         11    1    4    4    0    0 -0.60917897153E-01 -0.88996761737E-02  0.27109727593E-01  0.67271040431E-01  0.51100000000E-03 0. -1.
</event>
<event>
 8    1  0.1116841E+005  0.1043930E+01  0.7957747E-01            NaN
         13   -1    0    0    0    0  0.00000000000E+00  0.00000000000E+00  0.74505805969E-08  0.10566000000E+00  0.10566000000E+00 0.  1.
     999900   -1    0    0    0    0 -0.00000000000E+00 -0.00000000000E+00 -0.74505805969E-08  0.93827000000E+00  0.93827000000E+00 0. -1.
     999902    2    1    2    0    0  0.11826456811E-01  0.19169941040E-01 -0.63605574353E-02  0.10205246927E+01  0.10202562619E+01 0.  0.
     999903    2    3    3    0    0 -0.85629820003E-01 -0.18208232742E-01  0.92443236287E-01  0.12886497988E+00  0.19910431708E-01 0.  0.
         14    1    1    2    0    0 -0.11826456811E-01 -0.19169941040E-01  0.63605574353E-02  0.23405307327E-01  0.00000000000E+00 0.  1.
     999901    1    3    3    0    0  0.97456276815E-01  0.37378173782E-01 -0.98803793722E-01  0.89165971279E+00  0.88000000000E+00 0. -1.
        -11    1    4    4    0    0 -0.19705590982E-01 -0.12812449636E-01  0.27268622134E-01  0.36004278297E-01  0.51100000000E-03 0. -1.
         11    1    4    4    0    0 -0.65924229021E-01 -0.53957831064E-02  0.65174614153E-01  0.92860701582E-01  0.51100000000E-03 0.  1.
</event>
<event>
 8    1  0.1116841E+005  0.1043930E+01  0.7957747E-01            NaN
         13   -1    0    0    0    0  0.00000000000E+00  0.00000000000E+00  0.74505805969E-08  0.10566000000E+00  0.10566000000E+00 0.  1.
     999900   -1    0    0    0    0 -0.00000000000E+00 -0.00000000000E+00 -0.74505805969E-08  0.93827000000E+00  0.93827000000E+00 0.  1.
     999902    2    1    2    0    0  0.15602864228E-02  0.24275053770E-01 -0.20881041005E-02  0.10195153956E+01  0.10192230222E+01 0.  0.
     999903    2    3    3    0    0 -0.60223696747E-01  0.10806738376E+00 -0.43111920381E-01  0.13242950988E+00  0.19325742550E-01 0.  0.
         14    1    1    2    0    0 -0.15602864228E-02 -0.24275053770E-01  0.20881041005E-02  0.24414604400E-01  0.00000000000E+00 0.  1.
     999901    1    3    3    0    0  0.61783983170E-01 -0.83792329992E-01  0.41023816281E-01  0.88708588572E+00  0.88000000000E+00 0. -1.
        -11    1    4    4    0    0 -0.58438090980E-01  0.92321725044E-01 -0.35888831444E-01  0.11500687256E+00  0.51100000000E-03 0. -1.
         11    1    4    4    0    0 -0.17856057673E-02  0.15745658717E-01 -0.72230889373E-02  0.17422637320E-01  0.51100000000E-03 0.  1.
</event>
<event>
 8    1  0.1116841E+005  0.1043930E+01  0.7957747E-01            NaN
         13   -1    0    0    0    0  0.00000000000E+00  0.00000000000E+00  0.74505805969E-08  0.10566000000E+00  0.10566000000E+00 0. -1.
     999900   -1    0    0    0    0 -0.00000000000E+00 -0.00000000000E+00 -0.74505805969E-08  0.93827000000E+00  0.93827000000E+00 0.  1.
     999902    2    1    2    0    0 -0.14751932622E-01 -0.16062457343E-01  0.90746335350E-02  0.10203085897E+01  0.10200351205E+01 0.  0.
     999903    2    3    3    0    0  0.10029269046E+00 -0.54390955503E-01 -0.58196699187E-01  0.12944958216E+00  0.18797306306E-01 0.  0.
         14    1    1    2    0    0  0.14751932622E-01  0.16062457343E-01 -0.90746335350E-02  0.23621410326E-01  0.00000000000E+00 0.  1.
     999901    1    3    3    0    0 -0.11504462308E+00  0.38328498160E-01  0.67271332722E-01  0.89085900752E+00  0.88000000000E+00 0. -1.
        -11    1    4    4    0    0  0.54736409242E-01 -0.36457427979E-01 -0.41269526889E-01  0.77644404319E-01  0.51100000000E-03 0.  1.
         11    1    4    4    0    0  0.45556281215E-01 -0.17933527524E-01 -0.16927172299E-01  0.51805177836E-01  0.51100000000E-03 0. -1.
</event>
<event>
 8    1  0.1116841E+005  0.1043930E+01  0.7957747E-01            NaN
         13   -1    0    0    0    0  0.00000000000E+00  0.00000000000E+00  0.74505805969E-08  0.10566000000E+00  0.10566000000E+00 0.  1.
     999900   -1    0    0    0    0 -0.00000000000E+00 -0.00000000000E+00 -0.74505805969E-08  0.93827000000E+00  0.93827000000E+00 0. -1.
     999902    2    1    2    0    0  0.13692721396E-02 -0.15779175539E-01  0.16801657339E-01  0.10208398944E+01  0.10205787265E+01 0.  0.
     999903    2    3    3    0    0  0.95602261957E-01  0.84839558851E-01 -0.97370946079E-02  0.12971235503E+00  0.19822734404E-01 0.  0.
         14    1    1    2    0    0 -0.13692721396E-02  0.15779175539E-01 -0.16801657339E-01  0.23090105592E-01  0.00000000000E+00 0. -1.
     999901    1    3    3    0    0 -0.94232989817E-01 -0.10061873439E+00  0.26538751947E-01  0.89112753938E+00  0.88000000000E+00 0. -1.
        -11    1    4    4    0    0  0.30232910191E-01  0.34592603041E-01  0.40241398759E-02  0.46120839828E-01  0.51100000000E-03 0. -1.
         11    1    4    4    0    0  0.65369351766E-01  0.50246955810E-01 -0.13761234484E-01  0.83591515203E-01  0.51100000000E-03 0.  1.
</event>
<event>
 8    1  0.1116841E+005  0.1043930E+01  0.7957747E-01            NaN
         13   -1    0    0    0    0  0.00000000000E+00  0.00000000000E+00  0.74505805969E-08  0.10566000000E+00  0.10566000000E+00 0. -1.
     999900   -1    0    0    0    0 -0.00000000000E+00 -0.00000000000E+00 -0.74505805969E-08  0.93827000000E+00  0.93827000000E+00 0.  1.
     999902    2    1    2    0    0 -0.13414032000E-01  0.19085543772E-01  0.82720929095E-02  0.10191788029E+01  0.10188782118E+01 0.  0.
     999903    2    3    3    0    0 -0.10422331332E+00  0.52186589300E-01  0.59549730065E-01  0.13240295703E+00  0.19960800032E-01 0.  0.
         14    1    1    2    0    0  0.13414032000E-01 -0.19085543772E-01 -0.82720929095E-02  0.24751197075E-01  0.00000000000E+00 0. -1.
     999901    1    3    3    0    0  0.90809281318E-01 -0.33101045528E-01 -0.51277637156E-01  0.88677584589E+00  0.88000000000E+00 0.  1.
        -11    1    4    4    0    0 -0.30663302195E-01  0.60910230991E-02  0.12605090214E-01  0.33711838932E-01  0.51100000000E-03 0. -1.
         11    1    4    4    0    0 -0.73560011123E-01  0.46095566201E-01  0.46944639851E-01  0.98691118098E-01  0.51100000000E-03 0.  1.
</event>
<event>
 8    1  0.1116841E+005  0.1043930E+01  0.7957747E-01            NaN
         13   -1    0    0    0    0  0.00000000000E+00  0.00000000000E+00  0.74505805969E-08  0.10566000000E+00  0.10566000000E+00 0.  1.
     999900   -1    0    0    0    0 -0.00000000000E+00 -0.00000000000E+00 -0.74505805969E-08  0.93827000000E+00  0.93827000000E+00 0. -1.
     999902    2    1    2    0    0 -0.15290710531E-01 -0.16934405765E-01 -0.57522981910E-02  0.10203998308E+01  0.10201284948E+01 0.  0.
     999903    2    3    3    0    0  0.40627757330E-01  0.11952331326E+00  0.73144934573E-02  0.12803313199E+00  0.20063499070E-01 0.  0.
         14    1    1    2    0    0  0.15290710531E-01  0.16934405765E-01  0.57522981910E-02  0.23530169181E-01  0.00000000000E+00 0.  1.
     999901    1    3    3    0    0 -0.55918467861E-01 -0.13645771903E+00 -0.13066791648E-01  0.89236669883E+00  0.88000000000E+00 0.  1.
        -11    1    4    4    0    0  0.10394852049E-01  0.50673792148E-01 -0.44465329797E-02  0.51922239323E-01  0.51100000000E-03 0. -1.
         11    1    4    4    0    0  0.30232905281E-01  0.68849521113E-01  0.11761026437E-01  0.76110892670E-01  0.51100000000E-03 0.  1.
</event>
<event>
 8    1  0.1116841E+005  0.1043930E+01  0.7957747E-01            NaN
         13   -1    0    0    0    0  0.00000000000E+00  0.00000000000E+00  0.74505805969E-08  0.10566000000E+00  0.10566000000E+00 0.  1.
     999900   -1    0    0    0    0 -0.00000000000E+00 -0.00000000000E+00 -0.74505805969E-08  0.93827000000E+00  0.93827000000E+00 0. -1.
     999902    2    1    2    0    0  0.34553240774E-02 -0.16279877638E-01  0.21463772949E-01  0.10167699700E+01  0.10164071550E+01 0.  0.
     999903    2    3    3    0    0 -0.70962105053E-01 -0.49912709188E-02  0.10632940609E+00  0.12948897613E+00  0.20022966806E-01 0.  0.
         14    1    1    2    0    0 -0.34553240774E-02  0.16279877638E-01 -0.21463772949E-01  0.27160030000E-01  0.00000000000E+00 0. -1.
     999901    1    3    3    0    0  0.74417429130E-01 -0.11288606719E-01 -0.84865633143E-01  0.88728099387E+00  0.88000000000E+00 0. -1.
        -11    1    4    4    0    0 -0.35916387176E-01 -0.76105037135E-03  0.70842181444E-01  0.79431995179E-01  0.51100000000E-03 0.  1.
         11    1    4    4    0    0 -0.35045717877E-01 -0.42302205475E-02  0.35487224648E-01  0.50056980948E-01  0.51100000000E-03 0. -1.
</event>
<event>
 8    1  0.1116841E+005  0.1043930E+01  0.7957747E-01            NaN
         13   -1    0    0    0    0  0.00000000000E+00  0.00000000000E+00  0.74505805969E-08  0.10566000000E+00  0.10566000000E+00 0.  1.
     999900   -1    0    0    0    0 -0.00000000000E+00 -0.00000000000E+00 -0.74505805969E-08  0.93827000000E+00  0.93827000000E+00 0.  1.
     999902    2    1    2    0    0 -0.10327931781E-01  0.21044844792E-01 -0.21954543337E-02  0.10203849010E+01  0.10201132165E+01 0.  0.
     999903    2    3    3    0    0  0.54985658484E-01 -0.88458190886E-01 -0.72385707698E-01  0.12843005261E+00  0.20157221067E-01 0.  0.
         14    1    1    2    0    0  0.10327931781E-01 -0.21044844792E-01  0.21954543337E-02  0.23545099000E-01  0.00000000000E+00 0. -1.
     999901    1    3    3    0    0 -0.65313590266E-01  0.10950303568E+00  0.70190253364E-01  0.89195484839E+00  0.88000000000E+00 0. -1.
        -11    1    4    4    0    0  0.87341894429E-02 -0.31376442288E-01 -0.23964295676E-01  0.40439037873E-01  0.51100000000E-03 0.  1.
         11    1    4    4    0    0  0.46251469042E-01 -0.57081748597E-01 -0.48421412022E-01  0.87991014738E-01  0.51100000000E-03 0. -1.
</event>
<event>
 8    1  0.1116841E+005  0.1043930E+01  0.7957747E-01            NaN
         13   -1    0    0    0    0  0.00000000000E+00  0.00000000000E+00  0.74505805969E-08  0.10566000000E+00  0.10566000000E+00 0.  1.
     999900   -1    0    0    0    0 -0.00000000000E+00 -0.00000000000E+00 -0.74505805969E-08  0.93827000000E+00  0.93827000000E+00 0. -1.
     999902    2    1    2    0    0 -0.22403024405E-01  0.42578630263E-02  0.67755340728E-02  0.10201406586E+01  0.10198632412E+01 0.  0.
     999903    2    3    3    0    0 -0.95603740875E-01  0.12413061037E-02 -0.88771088098E-01  0.13194214395E+00  0.19667413583E-01 0.  0.
         14    1    1    2    0    0  0.22403024405E-01 -0.42578630263E-02 -0.67755340728E-02  0.23789341353E-01  0.00000000000E+00 0.  1.
     999901    1    3    3    0    0  0.73200716470E-01  0.30165569226E-02  0.95546622170E-01  0.88819851470E+00  0.88000000000E+00 0.  1.
        -11    1    4    4    0    0 -0.71056680699E-01  0.42234562029E-02 -0.75911823920E-01  0.10406611161E+00  0.51100000000E-03 0. -1.
         11    1    4    4    0    0 -0.24547060176E-01 -0.29821500993E-02 -0.12859264177E-01  0.27876032334E-01  0.51100000000E-03 0.  1.
</event>
<event>
 8    1  0.1116841E+005  0.1043930E+01  0.7957747E-01            NaN
         13   -1    0    0    0    0  0.00000000000E+00  0.00000000000E+00  0.74505805969E-08  0.10566000000E+00  0.10566000000E+00 0. -1.
     999900   -1    0    0    0    0 -0.00000000000E+00 -0.00000000000E+00 -0.74505805969E-08  0.93827000000E+00  0.93827000000E+00 0.  1.
     999902    2    1    2    0    0  0.47832717368E-02  0.39734066145E-02 -0.23596987543E-01  0.10195274290E+01  0.10192353473E+01 0.  0.
     999903    2    3    3    0    0  0.39066531543E-01 -0.25249806345E-01  0.11679042007E+00  0.12726179465E+00  0.19794331266E-01 0.  0.
         14    1    1    2    0    0 -0.47832717368E-02 -0.39734066145E-02  0.23596987543E-01  0.24402570965E-01  0.00000000000E+00 0. -1.
     999901    1    3    3    0    0 -0.34283259806E-01  0.29223212959E-01 -0.14038740762E+00  0.89226563438E+00  0.88000000000E+00 0.  1.
        -11    1    4    4    0    0  0.17270861142E-01 -0.86537671400E-03  0.31927976193E-01  0.36313748171E-01  0.51100000000E-03 0. -1.
         11    1    4    4    0    0  0.21795670401E-01 -0.24384429631E-01  0.84862443881E-01  0.90948046483E-01  0.51100000000E-03 0.  1.
</event>
<event>
 8    1  0.1116841E+005  0.1043930E+01  0.7957747E-01            NaN
         13   -1    0    0    0    0  0.00000000000E+00  0.00000000000E+00  0.74505805969E-08  0.10566000000E+00  0.10566000000E+00 0.  1.
     999900   -1    0    0    0    0 -0.00000000000E+00 -0.00000000000E+00 -0.74505805969E-08  0.93827000000E+00  0.93827000000E+00 0. -1.
     999902    2    1    2    0    0 -0.14429718016E-01 -0.14542247209E-01  0.13635904616E-01  0.10193204163E+01  0.10190232968E+01 0.  0.
     999903    2    3    3    0    0  0.30483538198E-01 -0.18583187395E-02  0.12564016029E+00  0.13099444238E+00  0.21009393336E-01 0.  0.
         14    1    1    2    0    0  0.14429718016E-01  0.14542247209E-01 -0.13635904616E-01  0.24609583715E-01  0.00000000000E+00 0. -1.
     999901    1    3    3    0    0 -0.44913256215E-01 -0.12683928470E-01 -0.11200425567E+00  0.88832597390E+00  0.88000000000E+00 0. -1.
        -11    1    4    4    0    0  0.23967223773E-01 -0.74089035289E-02  0.63702047076E-01  0.68465550385E-01  0.51100000000E-03 0. -1.
         11    1    4    4    0    0  0.65163144256E-02  0.55505847894E-02  0.61938113209E-01  0.62528891995E-01  0.51100000000E-03 0.  1.
</event>
<event>
 8    1  0.1116841E+005  0.1043930E+01  0.7957747E-01            NaN
         13   -1    0    0    0    0  0.00000000000E+00  0.00000000000E+00  0.74505805969E-08  0.10566000000E+00  0.10566000000E+00 0.  1.
     999900   -1    0    0    0    0 -0.00000000000E+00 -0.00000000000E+00 -0.74505805969E-08  0.93827000000E+00  0.93827000000E+00 0. -1.
     999902    2    1    2    0    0 -0.17319739863E-01 -0.19982609167E-01  0.21793367695E-02  0.10173964822E+01  0.10170504287E+01 0.  0.
     999903    2    3    3    0    0 -0.67752264139E-02 -0.10152333077E+00  0.78769001926E-01  0.13025159389E+00  0.20199793632E-01 0.  0.
         14    1    1    2    0    0  0.17319739863E-01  0.19982609167E-01 -0.21793367695E-02  0.26533517799E-01  0.00000000000E+00 0.  1.
     999901    1    3    3    0    0 -0.10544513450E-01  0.81540721606E-01 -0.76589665157E-01  0.88714488831E+00  0.88000000000E+00 0. -1.
        -11    1    4    4    0    0 -0.11664906692E-01 -0.49763179044E-01  0.31902913342E-01  0.60253639205E-01  0.51100000000E-03 0. -1.
         11    1    4    4    0    0  0.48896802786E-02 -0.51760151728E-01  0.46866088584E-01  0.69997954687E-01  0.51100000000E-03 0.  1.
</event>
<event>
 8    1  0.1116841E+005  0.1043930E+01  0.7957747E-01            NaN
         13   -1    0    0    0    0  0.00000000000E+00  0.00000000000E+00  0.74505805969E-08  0.10566000000E+00  0.10566000000E+00 0. -1.
     999900   -1    0    0    0    0 -0.00000000000E+00 -0.00000000000E+00 -0.74505805969E-08  0.93827000000E+00  0.93827000000E+00 0.  1.
     999902    2    1    2    0    0 -0.99176991064E-02 -0.13947485472E-02 -0.21843905200E-01  0.10198995553E+01  0.10196164184E+01 0.  0.
     999903    2    3    3    0    0 -0.59327516594E-01  0.82729714427E-01  0.76819048885E-01  0.12902771610E+00  0.19571034104E-01 0.  0.
         14    1    1    2    0    0  0.99176991064E-02  0.13947485472E-02  0.21843905200E-01  0.24030444720E-01  0.00000000000E+00 0. -1.
     999901    1    3    3    0    0  0.49409817488E-01 -0.84124462975E-01 -0.98662954085E-01  0.89087183918E+00  0.88000000000E+00 0.  1.
        -11    1    4    4    0    0 -0.37499562380E-01  0.49010890660E-01  0.34598310345E-01  0.70750185736E-01  0.51100000000E-03 0.  1.
         11    1    4    4    0    0 -0.21827954214E-01  0.33718823767E-01  0.42220738540E-01  0.58277530364E-01  0.51100000000E-03 0. -1.
</event>
<event>
 8    1  0.1116841E+005  0.1043930E+01  0.7957747E-01            NaN
         13   -1    0    0    0    0  0.00000000000E+00  0.00000000000E+00  0.74505805969E-08  0.10566000000E+00  0.10566000000E+00 0. -1.
     999900   -1    0    0    0    0 -0.00000000000E+00 -0.00000000000E+00 -0.74505805969E-08  0.93827000000E+00  0.93827000000E+00 0. -1.
     999902    2    1    2    0    0 -0.18292515476E-01 -0.59784103092E-02  0.14377587589E-01  0.10199076659E+01  0.10196247223E+01 0.  0.
     999903    2    3    3    0    0  0.63410226247E-02  0.37216305498E-01 -0.12085626192E+00  0.12818977958E+00  0.20028019908E-01 0.  0.
         14    1    1    2    0    0  0.18292515476E-01  0.59784103092E-02 -0.14377587589E-01  0.24022334132E-01  0.00000000000E+00 0.  1.
     999901    1    3    3    0    0 -0.24633538101E-01 -0.43194715807E-01  0.13523384951E+00  0.89171788629E+00  0.88000000000E+00 0.  1.
        -11    1    4    4    0    0 -0.69425351410E-02  0.18021148264E-01 -0.58348530414E-01  0.61463588420E-01  0.51100000000E-03 0.  1.
         11    1    4    4    0    0  0.13283557766E-01  0.19195157234E-01 -0.62507731503E-01  0.66726191161E-01  0.51100000000E-03 0. -1.
</event>
<event>
 7    1  0.1116841E+005  0.1043930E+01  0.7957747E-01            NaN
         13   -1    0    0    0    0  0.00000000000E+00  0.00000000000E+00  0.74505805969E-08  0.10566000000E+00  0.10566000000E+00 0. -1.
     999900   -1    0    0    0    0 -0.00000000000E+00 -0.00000000000E+00 -0.74505805969E-08  0.93827000000E+00  0.93827000000E+00 0. -1.
     999902    2    1    2    0    0 -0.99774536989E-02  0.20379971593E-01  0.78617280715E-02  0.10199154296E+01  0.10196326711E+01 0.  0.
         14    1    1    2    0    0  0.99774536989E-02 -0.20379971593E-01 -0.78617280715E-02  0.24014570425E-01  0.00000000000E+00 0. -1.
     999901    1    3    3    0    0 -0.28798775920E-01  0.63508737910E-02 -0.10602743959E+00  0.88685484778E+00  0.88000000000E+00 0. -1.
        -11    1    3    3    0    0 -0.18013288936E-01  0.21299700175E-02  0.71250747643E-02  0.19494695739E-01  0.51100000000E-03 0. -1.
         11    1    3    3    0    0  0.36834611157E-01  0.11899127785E-01  0.10676409290E+00  0.11356588605E+00  0.51100000000E-03 0.  1.
</event>
<event>
 8    1  0.1116841E+005  0.1043930E+01  0.7957747E-01            NaN
         13   -1    0    0    0    0  0.00000000000E+00  0.00000000000E+00  0.74505805969E-08  0.10566000000E+00  0.10566000000E+00 0.  1.
     999900   -1    0    0    0    0 -0.00000000000E+00 -0.00000000000E+00 -0.74505805969E-08  0.93827000000E+00  0.93827000000E+00 0. -1.
     999902    2    1    2    0    0 -0.46729714131E-02  0.96059167423E-03  0.22804560073E-01  0.10206317735E+01  0.10203658215E+01 0.  0.
     999903    2    3    3    0    0 -0.44010171070E-01 -0.10610212533E+00  0.62668549557E-01  0.13237562896E+00  0.20035066286E-01 0.  0.
         14    1    1    2    0    0  0.46729714131E-02 -0.96059167423E-03 -0.22804560073E-01  0.23298226506E-01  0.00000000000E+00 0. -1.
     999901    1    3    3    0    0  0.39337199657E-01  0.10706271700E+00 -0.39863989484E-01  0.88825614454E+00  0.88000000000E+00 0.  1.
        -11    1    4    4    0    0 -0.42878634408E-02 -0.14460642492E-02  0.36004437249E-02  0.58052726650E-02  0.51100000000E-03 0. -1.
         11    1    4    4    0    0 -0.39722307630E-01 -0.10465606108E+00  0.59068105833E-01  0.12657035629E+00  0.51100000000E-03 0.  1.
</event>
<event>
 8    1  0.1116841E+005  0.1043930E+01  0.7957747E-01            NaN
         13   -1    0    0    0    0  0.00000000000E+00  0.00000000000E+00  0.74505805969E-08  0.10566000000E+00  0.10566000000E+00 0. -1.
     999900   -1    0    0    0    0 -0.00000000000E+00 -0.00000000000E+00 -0.74505805969E-08  0.93827000000E+00  0.93827000000E+00 0. -1.
     999902    2    1    2    0    0 -0.14728945655E-01  0.15018752025E-01 -0.10918819725E-01  0.10202292537E+01  0.10199539228E+01 0.  0.
     999903    2    3    3    0    0  0.83629060880E-01 -0.32462721146E-01  0.88445787504E-01  0.12792767185E+00  0.22252725903E-01 0.  0.
         14    1    1    2    0    0  0.14728945655E-01 -0.15018752025E-01  0.10918819725E-01  0.23700746332E-01  0.00000000000E+00 0. -1.
     999901    1    3    3    0    0 -0.98358006535E-01  0.47481473170E-01 -0.99364607229E-01  0.89230158182E+00  0.88000000000E+00 0.  1.
        -11    1    4    4    0    0  0.70459144774E-01 -0.30826747518E-01  0.63783949154E-01  0.99917129340E-01  0.51100000000E-03 0.  1.
         11    1    4    4    0    0  0.13169916106E-01 -0.16359736276E-02  0.24661838351E-01  0.28010542511E-01  0.51100000000E-03 0. -1.
</event>
<event>
 8    1  0.1116841E+005  0.1043930E+01  0.7957747E-01            NaN
         13   -1    0    0    0    0  0.00000000000E+00  0.00000000000E+00  0.74505805969E-08  0.10566000000E+00  0.10566000000E+00 0.  1.
     999900   -1    0    0    0    0 -0.00000000000E+00 -0.00000000000E+00 -0.74505805969E-08  0.93827000000E+00  0.93827000000E+00 0.  1.
     999902    2    1    2    0    0  0.53118942154E-02  0.20274734637E-01  0.97421759702E-02  0.10208174260E+01  0.10205557438E+01 0.  0.
     999903    2    3    3    0    0 -0.42027738312E-01 -0.21319030553E-01 -0.11878164989E+00  0.12925169318E+00  0.19392988106E-01 0.  0.
         14    1    1    2    0    0 -0.53118942154E-02 -0.20274734637E-01 -0.97421759702E-02  0.23112574010E-01  0.00000000000E+00 0.  1.
     999901    1    3    3    0    0  0.47339632527E-01  0.41593765190E-01  0.12852382586E+00  0.89156573281E+00  0.88000000000E+00 0. -1.
        -11    1    4    4    0    0 -0.20743616368E-01 -0.63566755381E-02 -0.32094172654E-01  0.38742766851E-01  0.51100000000E-03 0. -1.
         11    1    4    4    0    0 -0.21284121944E-01 -0.14962355015E-01 -0.86687477235E-01  0.90508926327E-01  0.51100000000E-03 0.  1.
</event>
<event>
 8    1  0.1116841E+005  0.1043930E+01  0.7957747E-01            NaN
         13   -1    0    0    0    0  0.00000000000E+00  0.00000000000E+00  0.74505805969E-08  0.10566000000E+00  0.10566000000E+00 0.  1.
     999900   -1    0    0    0    0 -0.00000000000E+00 -0.00000000000E+00 -0.74505805969E-08  0.93827000000E+00  0.93827000000E+00 0.  1.
     999902    2    1    2    0    0 -0.19499119324E-01  0.11159807970E-01  0.92152137894E-02  0.10196467314E+01  0.10193575328E+01 0.  0.
     999903    2    3    3    0    0 -0.22502481282E-01  0.11937982628E+00 -0.46349954577E-01  0.13127289091E+00  0.18065132496E-01 0.  0.
         14    1    1    2    0    0  0.19499119324E-01 -0.11159807970E-01 -0.92152137894E-02  0.24283268592E-01  0.00000000000E+00 0. -1.
     999901    1    3    3    0    0  0.30033619574E-02 -0.10822001831E+00  0.55565168367E-01  0.88837384050E+00  0.88000000000E+00 0.  1.
        -11    1    4    4    0    0 -0.16763916978E-01  0.10940611411E+00 -0.45665661080E-01  0.11973445803E+00  0.51100000000E-03 0. -1.
         11    1    4    4    0    0 -0.57385643034E-02  0.99737121668E-02 -0.68429349758E-03  0.11538432876E-01  0.51100000000E-03 0.  1.
</event>
<event>
 8    1  0.1116841E+005  0.1043930E+01  0.7957747E-01            NaN
         13   -1    0    0    0    0  0.00000000000E+00  0.00000000000E+00  0.74505805969E-08  0.10566000000E+00  0.10566000000E+00 0.  1.
     999900   -1    0    0    0    0 -0.00000000000E+00 -0.00000000000E+00 -0.74505805969E-08  0.93827000000E+00  0.93827000000E+00 0. -1.
     999902    2    1    2    0    0  0.23055897615E-01 -0.61996188714E-04  0.54492565752E-02  0.10202388064E+01  0.10199637000E+01 0.  0.
     999903    2    3    3    0    0 -0.11948815107E+00  0.92650882801E-02 -0.39277509136E-01  0.12759874235E+00  0.19376692680E-01 0.  0.
         14    1    1    2    0    0 -0.23055897615E-01  0.61996188714E-04 -0.54492565752E-02  0.23691193629E-01  0.00000000000E+00 0. -1.
     999901    1    3    3    0    0  0.14254404868E+00 -0.93270844688E-02  0.44726765711E-01  0.89264006402E+00  0.88000000000E+00 0.  1.
        -11    1    4    4    0    0 -0.80766125021E-01  0.59496478566E-02 -0.16835780479E-01  0.82718014277E-01  0.51100000000E-03 0. -1.
         11    1    4    4    0    0 -0.38722026048E-01  0.33154404235E-02 -0.22441728658E-01  0.44880728076E-01  0.51100000000E-03 0.  1.
</event>
<event>
 8    1  0.1116841E+005  0.1043930E+01  0.7957747E-01            NaN
         13   -1    0    0    0    0  0.00000000000E+00  0.00000000000E+00  0.74505805969E-08  0.10566000000E+00  0.10566000000E+00 0. -1.
     999900   -1    0    0    0    0 -0.00000000000E+00 -0.00000000000E+00 -0.74505805969E-08  0.93827000000E+00  0.93827000000E+00 0.  1.
     999902    2    1    2    0    0 -0.54306388959E-02 -0.21633758804E-01 -0.85311545357E-02  0.10200492137E+01  0.10197696339E+01 0.  0.
     999903    2    3    3    0    0 -0.50803390269E-01 -0.76051619419E-01 -0.94318084810E-01  0.13304335825E+00  0.20971427517E-01 0.  0.
         14    1    1    2    0    0  0.54306388959E-02  0.21633758804E-01  0.85311545357E-02  0.23880786346E-01  0.00000000000E+00 0.  1.
     999901    1    3    3    0    0  0.45372751373E-01  0.54417860615E-01  0.85786930274E-01  0.88700585541E+00  0.88000000000E+00 0. -1.
        -11    1    4    4    0    0 -0.46226875376E-01 -0.74358111979E-01 -0.82731987334E-01  0.12046117911E+00  0.51100000000E-03 0. -1.
         11    1    4    4    0    0 -0.45765148932E-02 -0.16935074403E-02 -0.11586097475E-01  0.12582179133E-01  0.51100000000E-03 0.  1.
</event>
<event>
 8    1  0.1116841E+005  0.1043930E+01  0.7957747E-01            NaN
         13   -1    0    0    0    0  0.00000000000E+00  0.00000000000E+00  0.74505805969E-08  0.10566000000E+00  0.10566000000E+00 0.  1.
     999900   -1    0    0    0    0 -0.00000000000E+00 -0.00000000000E+00 -0.74505805969E-08  0.93827000000E+00  0.93827000000E+00 0.  1.
     999902    2    1    2    0    0 -0.18746048246E-02 -0.84687419876E-02 -0.22927928001E-01  0.10194162566E+01  0.10191214749E+01 0.  0.
     999903    2    3    3    0    0  0.12363614549E+00  0.31887370942E-01 -0.20230407509E-02  0.12934964188E+00  0.20604277800E-01 0.  0.
         14    1    1    2    0    0  0.18746048246E-02  0.84687419876E-02  0.22927928001E-01  0.24513743421E-01  0.00000000000E+00 0.  1.
     999901    1    3    3    0    0 -0.12551075031E+00 -0.40356112930E-01 -0.20904887250E-01  0.89006661470E+00  0.88000000000E+00 0. -1.
        -11    1    4    4    0    0  0.46542400991E-01  0.27032825911E-02  0.33247563468E-02  0.46742036247E-01  0.51100000000E-03 0.  1.
         11    1    4    4    0    0  0.77093744496E-01  0.29184088351E-01 -0.53477970976E-02  0.82607605631E-01  0.51100000000E-03 0. -1.
</event>
<event>
 8    1  0.1116841E+005  0.1043930E+01  0.7957747E-01            NaN
         13   -1    0    0    0    0  0.00000000000E+00  0.00000000000E+00  0.74505805969E-08  0.10566000000E+00  0.10566000000E+00 0. -1.
     999900   -1    0    0    0    0 -0.00000000000E+00 -0.00000000000E+00 -0.74505805969E-08  0.93827000000E+00  0.93827000000E+00 0. -1.
     999902    2    1    2    0    0  0.70869504770E-02 -0.16375287498E-01 -0.15263807287E-01  0.10204489710E+01  0.10201787803E+01 0.  0.
     999903    2    3    3    0    0 -0.90828859340E-03  0.12736866116E+00  0.33219299928E-02  0.12855678236E+00  0.17094158000E-01 0.  0.
         14    1    1    2    0    0 -0.70869504770E-02  0.16375287498E-01  0.15263807287E-01  0.23481028951E-01  0.00000000000E+00 0. -1.
     999901    1    3    3    0    0  0.79952390705E-02 -0.14374394865E+00 -0.18585737279E-01  0.89189218869E+00  0.88000000000E+00 0.  1.
        -11    1    4    4    0    0 -0.57693689415E-02  0.83191037372E-01  0.84281398844E-02  0.83817235578E-01  0.51100000000E-03 0. -1.
         11    1    4    4    0    0  0.48610803481E-02  0.44177623784E-01 -0.51062098916E-02  0.44739546777E-01  0.51100000000E-03 0.  1.
</event>
<event>
 8    1  0.1116841E+005  0.1043930E+01  0.7957747E-01            NaN
         13   -1    0    0    0    0  0.00000000000E+00  0.00000000000E+00  0.74505805969E-08  0.10566000000E+00  0.10566000000E+00 0. -1.
     999900   -1    0    0    0    0 -0.00000000000E+00 -0.00000000000E+00 -0.74505805969E-08  0.93827000000E+00  0.93827000000E+00 0. -1.
     999902    2    1    2    0    0  0.15234174908E-01 -0.15209294217E-01  0.97716961332E-02  0.10202891717E+01  0.10200152475E+01 0.  0.
     999903    2    3    3    0    0 -0.63396188456E-01  0.87110441426E-01  0.68586421493E-01  0.12893557508E+00  0.17691229264E-01 0.  0.
         14    1    1    2    0    0 -0.15234174908E-01  0.15209294217E-01 -0.97716961332E-02  0.23640828264E-01  0.00000000000E+00 0. -1.
     999901    1    3    3    0    0  0.78630363364E-01 -0.10231973564E+00 -0.58814725359E-01  0.89135359665E+00  0.88000000000E+00 0. -1.
        -11    1    4    4    0    0 -0.38524528206E-01  0.41292293529E-01  0.29082212147E-01  0.63523452069E-01  0.51100000000E-03 0. -1.
         11    1    4    4    0    0 -0.24871660250E-01  0.45818147897E-01  0.39504209346E-01  0.65412123015E-01  0.51100000000E-03 0.  1.
</event>
<event>
 8    1  0.1116841E+005  0.1043930E+01  0.7957747E-01            NaN
         13   -1    0    0    0    0  0.00000000000E+00  0.00000000000E+00  0.74505805969E-08  0.10566000000E+00  0.10566000000E+00 0.  1.
     999900   -1    0    0    0    0 -0.00000000000E+00 -0.00000000000E+00 -0.74505805969E-08  0.93827000000E+00  0.93827000000E+00 0. -1.
     999902    2    1    2    0    0  0.21245935854E-01  0.44681968743E-02  0.10605223370E-01  0.10197675221E+01  0.10194812278E+01 0.  0.
     999903    2    3    3    0    0  0.55515752661E-01  0.11064212926E+00 -0.39354136685E-01  0.13131760126E+00  0.19284313926E-01 0.  0.
         14    1    1    2    0    0 -0.21245935854E-01 -0.44681968743E-02 -0.10605223370E-01  0.24162477860E-01  0.00000000000E+00 0.  1.
     999901    1    3    3    0    0 -0.34269816807E-01 -0.10617393239E+00  0.49959360055E-01  0.88844992088E+00  0.88000000000E+00 0.  1.
        -11    1    4    4    0    0  0.46161643920E-03  0.12712223400E-01 -0.17762612477E-02  0.12854179808E-01  0.51100000000E-03 0. -1.
         11    1    4    4    0    0  0.55054136221E-01  0.97929905864E-01 -0.37577875438E-01  0.11846342145E+00  0.51100000000E-03 0.  1.
</event>
<event>
 8    1  0.1116841E+005  0.1043930E+01  0.7957747E-01            NaN
         13   -1    0    0    0    0  0.00000000000E+00  0.00000000000E+00  0.74505805969E-08  0.10566000000E+00  0.10566000000E+00 0.  1.
     999900   -1    0    0    0    0 -0.00000000000E+00 -0.00000000000E+00 -0.74505805969E-08  0.93827000000E+00  0.93827000000E+00 0.  1.
     999902    2    1    2    0    0 -0.21694124237E-02 -0.20068765043E-01  0.10878100307E-01  0.10209997853E+01  0.10207422627E+01 0.  0.
     999903    2    3    3    0    0  0.12162216242E+00 -0.21078099433E-01 -0.39218165315E-01  0.13092394099E+00  0.19151427285E-01 0.  0.
         14    1    1    2    0    0  0.21694124237E-02  0.20068765043E-01 -0.10878100307E-01  0.22930214716E-01  0.00000000000E+00 0. -1.
     999901    1    3    3    0    0 -0.12379157485E+00  0.10093343895E-02  0.50096265621E-01  0.89007584429E+00  0.88000000000E+00 0. -1.
        -11    1    4    4    0    0  0.10706567033E+00 -0.24010544859E-01 -0.37547527973E-01  0.11597259161E+00  0.51100000000E-03 0. -1.
         11    1    4    4    0    0  0.14556492093E-01  0.29324454259E-02 -0.16706373424E-02  0.14951349383E-01  0.51100000000E-03 0.  1.
</event>
<event>
 8    1  0.1116841E+005  0.1043930E+01  0.7957747E-01            NaN
         13   -1    0    0    0    0  0.00000000000E+00  0.00000000000E+00  0.74505805969E-08  0.10566000000E+00  0.10566000000E+00 0. -1.
     999900   -1    0    0    0    0 -0.00000000000E+00 -0.00000000000E+00 -0.74505805969E-08  0.93827000000E+00  0.93827000000E+00 0.  1.
     999902    2    1    2    0    0 -0.18236794179E-01 -0.10498848267E-01  0.12585107174E-01  0.10194107953E+01  0.10191158806E+01 0.  0.
     999903    2    3    3    0    0  0.47023494797E-01 -0.28176055025E-01 -0.11391252890E+00  0.12779818833E+00  0.18740692660E-01 0.  0.
         14    1    1    2    0    0  0.18236794179E-01  0.10498848267E-01 -0.12585107174E-01  0.24519204706E-01  0.00000000000E+00 0.  1.
     999901    1    3    3    0    0 -0.65260288976E-01  0.17677206758E-01  0.12649763607E+00  0.89161260696E+00  0.88000000000E+00 0. -1.
        -11    1    4    4    0    0  0.26880735317E-01 -0.54057592535E-02 -0.57866867956E-01  0.64036174873E-01  0.51100000000E-03 0. -1.
         11    1    4    4    0    0  0.20142759480E-01 -0.22770295771E-01 -0.56045660944E-01  0.63762013461E-01  0.51100000000E-03 0.  1.
</event>
<event>
 8    1  0.1116841E+005  0.1043930E+01  0.7957747E-01            NaN
         13   -1    0    0    0    0  0.00000000000E+00  0.00000000000E+00  0.74505805969E-08  0.10566000000E+00  0.10566000000E+00 0. -1.
     999900   -1    0    0    0    0 -0.00000000000E+00 -0.00000000000E+00 -0.74505805969E-08  0.93827000000E+00  0.93827000000E+00 0. -1.
     999902    2    1    2    0    0 -0.13250446761E-01 -0.10945458503E-01  0.17400984396E-01  0.10194724519E+01  0.10191790365E+01 0.  0.
     999903    2    3    3    0    0 -0.11189198205E+00 -0.58870083240E-01  0.34362670653E-01  0.13250310579E+00  0.19768094531E-01 0.  0.
         14    1    1    2    0    0  0.13250446761E-01  0.10945458503E-01 -0.17400984396E-01  0.24457548102E-01  0.00000000000E+00 0.  1.
     999901    1    3    3    0    0  0.98641535287E-01  0.47924624737E-01 -0.16961686257E-01  0.88696934611E+00  0.88000000000E+00 0. -1.
        -11    1    4    4    0    0 -0.73219981758E-01 -0.45879354862E-01  0.30017952812E-01  0.91473600253E-01  0.51100000000E-03 0. -1.
         11    1    4    4    0    0 -0.38672000291E-01 -0.12990728378E-01  0.43447178409E-02  0.41029505534E-01  0.51100000000E-03 0.  1.
</event>
<event>
 8    1  0.1116841E+005  0.1043930E+01  0.7957747E-01            NaN
         13   -1    0    0    0    0  0.00000000000E+00  0.00000000000E+00  0.74505805969E-08  0.10566000000E+00  0.10566000000E+00 0.  1.
     999900   -1    0    0    0    0 -0.00000000000E+00 -0.00000000000E+00 -0.74505805969E-08  0.93827000000E+00  0.93827000000E+00 0.  1.
     999902    2    1    2    0    0 -0.17460120980E-01  0.39408830532E-02 -0.15054869388E-01  0.10205412105E+01  0.10202731628E+01 0.  0.
     999903    2    3    3    0    0  0.40044116451E-01 -0.99904876021E-01 -0.71559200343E-01  0.13077527584E+00  0.19923305476E-01 0.  0.
         14    1    1    2    0    0  0.17460120980E-01 -0.39408830532E-02  0.15054869388E-01  0.23388789540E-01  0.00000000000E+00 0. -1.
     999901    1    3    3    0    0 -0.57504237431E-01  0.10384575907E+00  0.56504330955E-01  0.88976593462E+00  0.88000000000E+00 0. -1.
        -11    1    4    4    0    0  0.33079833533E-01 -0.57000626931E-01 -0.45629256063E-01  0.80160071027E-01  0.51100000000E-03 0. -1.
         11    1    4    4    0    0  0.69642829183E-02 -0.42904249090E-01 -0.25929944280E-01  0.50615204809E-01  0.51100000000E-03 0.  1.
</event>
<event>
 8    1  0.1116841E+005  0.1043930E+01  0.7957747E-01            NaN
         13   -1    0    0    0    0  0.00000000000E+00  0.00000000000E+00  0.74505805969E-08  0.10566000000E+00  0.10566000000E+00 0. -1.
     999900   -1    0    0    0    0 -0.00000000000E+00 -0.00000000000E+00 -0.74505805969E-08  0.93827000000E+00  0.93827000000E+00 0. -1.
     999902    2    1    2    0    0 -0.47422684990E-02 -0.57596287959E-02  0.22065368563E-01  0.10206374492E+01  0.10203716282E+01 0.  0.
     999903    2    3    3    0    0  0.11446086125E+00 -0.37992672036E-01  0.48700628602E-01  0.13161675633E+00  0.20161533524E-01 0.  0.
         14    1    1    2    0    0  0.47422684990E-02  0.57596287959E-02 -0.22065368563E-01  0.23292550831E-01  0.00000000000E+00 0.  1.
     999901    1    3    3    0    0 -0.11920312975E+00  0.32233043240E-01 -0.26635260039E-01  0.88902069284E+00  0.88000000000E+00 0. -1.
        -11    1    4    4    0    0  0.72382566938E-01 -0.32978427849E-01  0.36491667086E-01  0.87514087938E-01  0.51100000000E-03 0. -1.
         11    1    4    4    0    0  0.42078294313E-01 -0.50142441872E-02  0.12208961516E-01  0.44102668393E-01  0.51100000000E-03 0.  1.
</event>
<event>
 8    1  0.1116841E+005  0.1043930E+01  0.7957747E-01            NaN
         13   -1    0    0    0    0  0.00000000000E+00  0.00000000000E+00  0.74505805969E-08  0.10566000000E+00  0.10566000000E+00 0.  1.
     999900   -1    0    0    0    0 -0.00000000000E+00 -0.00000000000E+00 -0.74505805969E-08  0.93827000000E+00  0.93827000000E+00 0. -1.
     999902    2    1    2    0    0 -0.16008027088E-01 -0.10595513440E-01 -0.13435631913E-01  0.10204984392E+01  0.10202293989E+01 0.  0.
     999903    2    3    3    0    0  0.68860370708E-01 -0.86992208836E-01  0.64565860788E-01  0.12969917289E+00  0.18539957286E-01 0.  0.
         14    1    1    2    0    0  0.16008027088E-01  0.10595513440E-01  0.13435631913E-01  0.23431560793E-01  0.00000000000E+00 0.  1.
     999901    1    3    3    0    0 -0.84868397796E-01  0.76396695396E-01 -0.78001492700E-01  0.89079926632E+00  0.88000000000E+00 0. -1.
        -11    1    4    4    0    0  0.54197702513E-01 -0.57763322722E-01  0.51506384020E-01  0.94483655335E-01  0.51100000000E-03 0. -1.
         11    1    4    4    0    0  0.14662668195E-01 -0.29228886114E-01  0.13059476768E-01  0.35215517552E-01  0.51100000000E-03 0.  1.
</event>
<event>
 8    1  0.1116841E+005  0.1043930E+01  0.7957747E-01            NaN
         13   -1    0    0    0    0  0.00000000000E+00  0.00000000000E+00  0.74505805969E-08  0.10566000000E+00  0.10566000000E+00 0. -1.
     999900   -1    0    0    0    0 -0.00000000000E+00 -0.00000000000E+00 -0.74505805969E-08  0.93827000000E+00  0.93827000000E+00 0.  1.
     999902    2    1    2    0    0  0.70977061751E-02  0.23262205516E-01  0.12247692111E-02  0.10195782506E+01  0.10192873988E+01 0.  0.
     999903    2    3    3    0    0  0.95611608564E-01  0.89024301977E-01 -0.10591638263E-01  0.13261771500E+00  0.20208154226E-01 0.  0.
         14    1    1    2    0    0 -0.70977061751E-02 -0.23262205516E-01 -0.12247692111E-02  0.24351749384E-01  0.00000000000E+00 0.  1.
     999901    1    3    3    0    0 -0.88513902389E-01 -0.65762096461E-01  0.11816407474E-01  0.88696053561E+00  0.88000000000E+00 0.  1.
        -11    1    4    4    0    0  0.39697153313E-01  0.49938576622E-01 -0.17136336209E-02  0.63819456887E-01  0.51100000000E-03 0.  1.
         11    1    4    4    0    0  0.55914455251E-01  0.39085725355E-01 -0.88780046420E-02  0.68798258118E-01  0.51100000000E-03 0. -1.
</event>
<event>
 8    1  0.1116841E+005  0.1043930E+01  0.7957747E-01            NaN
         13   -1    0    0    0    0  0.00000000000E+00  0.00000000000E+00  0.74505805969E-08  0.10566000000E+00  0.10566000000E+00 0.  1.
     999900   -1    0    0    0    0 -0.00000000000E+00 -0.00000000000E+00 -0.74505805969E-08  0.93827000000E+00  0.93827000000E+00 0. -1.
     999902    2    1    2    0    0 -0.65831894776E-02 -0.14751602541E-01 -0.16507152010E-01  0.10208338049E+01  0.10205724977E+01 0.  0.
     999903    2    3    3    0    0 -0.20232275468E-01  0.26612711719E-02 -0.13012347759E+00  0.13325385065E+00  0.20200048479E-01 0.  0.
         14    1    1    2    0    0  0.65831894776E-02  0.14751602541E-01  0.16507152010E-01  0.23096195114E-01  0.00000000000E+00 0.  1.
     999901    1    3    3    0    0  0.13649085991E-01 -0.17412873713E-01  0.11361632558E+00  0.88757995423E+00  0.88000000000E+00 0.  1.
        -11    1    4    4    0    0 -0.17096147172E-01  0.65936549357E-02 -0.55283273920E-01  0.58243077098E-01  0.51100000000E-03 0. -1.
         11    1    4    4    0    0 -0.31361282962E-02 -0.39323837638E-02 -0.74840203671E-01  0.75010773555E-01  0.51100000000E-03 0.  1.
</event>
<event>
 8    1  0.1116841E+005  0.1043930E+01  0.7957747E-01            NaN
         13   -1    0    0    0    0  0.00000000000E+00  0.00000000000E+00  0.74505805969E-08  0.10566000000E+00  0.10566000000E+00 0.  1.
     999900   -1    0    0    0    0 -0.00000000000E+00 -0.00000000000E+00 -0.74505805969E-08  0.93827000000E+00  0.93827000000E+00 0.  1.
     999902    2    1    2    0    0  0.81917474886E-02  0.22546085822E-01  0.12123329229E-02  0.10199112477E+01  0.10196283895E+01 0.  0.
     999903    2    3    3    0    0  0.17940977536E-01 -0.98389858870E-01 -0.77775306625E-01  0.12808189324E+00  0.18802394846E-01 0.  0.
         14    1    1    2    0    0 -0.81917474886E-02 -0.22546085822E-01 -0.12123329229E-02  0.24018752340E-01  0.00000000000E+00 0.  1.
     999901    1    3    3    0    0 -0.97492300475E-02  0.12093594469E+00  0.78987639548E-01  0.89182935442E+00  0.88000000000E+00 0. -1.
        -11    1    4    4    0    0  0.17663404984E-01 -0.66242461173E-01 -0.44076042233E-01  0.81504712488E-01  0.51100000000E-03 0.  1.
         11    1    4    4    0    0  0.27757255180E-03 -0.32147397697E-01 -0.33699264392E-01  0.46577180752E-01  0.51100000000E-03 0. -1.
</event>
<event>
 8    1  0.1116841E+005  0.1043930E+01  0.7957747E-01            NaN
         13   -1    0    0    0    0  0.00000000000E+00  0.00000000000E+00  0.74505805969E-08  0.10566000000E+00  0.10566000000E+00 0.  1.
     999900   -1    0    0    0    0 -0.00000000000E+00 -0.00000000000E+00 -0.74505805969E-08  0.93827000000E+00  0.93827000000E+00 0.  1.
     999902    2    1    2    0    0  0.23472507762E-01 -0.10995878201E-02  0.46042831066E-02  0.10199849141E+01  0.10197038089E+01 0.  0.
     999903    2    3    3    0    0  0.61897445923E-01 -0.30728444059E-01  0.11096131076E+00  0.13225400765E+00  0.20079316935E-01 0.  0.
         14    1    1    2    0    0 -0.23472507762E-01  0.10995878201E-02 -0.46042831066E-02  0.23945085862E-01  0.00000000000E+00 0.  1.
     999901    1    3    3    0    0 -0.38424938161E-01  0.29628856239E-01 -0.10635702766E+00  0.88773090648E+00  0.88000000000E+00 0.  1.
        -11    1    4    4    0    0  0.58615792973E-01 -0.22334345306E-01  0.10010151180E+00  0.11813216307E+00  0.51100000000E-03 0. -1.
         11    1    4    4    0    0  0.32816529501E-02 -0.83940987528E-02  0.10859798964E-01  0.14121844585E-01  0.51100000000E-03 0.  1.
</event>
<event>
 8    1  0.1116841E+005  0.1043930E+01  0.7957747E-01            NaN
         13   -1    0    0    0    0  0.00000000000E+00  0.00000000000E+00  0.74505805969E-08  0.10566000000E+00  0.10566000000E+00 0. -1.
     999900   -1    0    0    0    0 -0.00000000000E+00 -0.00000000000E+00 -0.74505805969E-08  0.93827000000E+00  0.93827000000E+00 0. -1.
     999902    2    1    2    0    0 -0.38175804012E-02  0.21570737541E-01 -0.83720894961E-02  0.10204787203E+01  0.10202092217E+01 0.  0.
     999903    2    3    3    0    0  0.54933976652E-01  0.28983513256E-01  0.11265560114E+00  0.13022347789E+00  0.20225822452E-01 0.  0.
         14    1    1    2    0    0  0.38175804012E-02 -0.21570737541E-01  0.83720894961E-02  0.23451279724E-01  0.00000000000E+00 0.  1.
     999901    1    3    3    0    0 -0.58751557053E-01 -0.74127757150E-02 -0.12102769063E+00  0.89025524239E+00  0.88000000000E+00 0. -1.
        -11    1    4    4    0    0  0.15629409249E-01  0.17754254864E-01  0.51343519899E-01  0.56532381480E-01  0.51100000000E-03 0. -1.
         11    1    4    4    0    0  0.39304567403E-01  0.11229258392E-01  0.61312081239E-01  0.73691096407E-01  0.51100000000E-03 0.  1.
</event>
<event>
 8    1  0.1116841E+005  0.1043930E+01  0.7957747E-01            NaN
         13   -1    0    0    0    0  0.00000000000E+00  0.00000000000E+00  0.74505805969E-08  0.10566000000E+00  0.10566000000E+00 0. -1.
     999900   -1    0    0    0    0 -0.00000000000E+00 -0.00000000000E+00 -0.74505805969E-08  0.93827000000E+00  0.93827000000E+00 0. -1.
     999902    2    1    2    0    0  0.14978567721E-01 -0.68132507722E-02 -0.17633151200E-01  0.10198114201E+01  0.10195261775E+01 0.  0.
     999903    2    3    3    0    0  0.35034799532E-01  0.12192032185E+00 -0.20649560582E-01  0.13021393587E+00  0.20910826953E-01 0.  0.
         14    1    1    2    0    0 -0.14978567721E-01  0.68132507722E-02  0.17633151200E-01  0.24118579940E-01  0.00000000000E+00 0. -1.
     999901    1    3    3    0    0 -0.20056231810E-01 -0.12873357262E+00  0.30164093817E-02  0.88959748419E+00  0.88000000000E+00 0. -1.
        -11    1    4    4    0    0  0.34739862869E-01  0.88464550028E-01 -0.13484330877E-01  0.95994390378E-01  0.51100000000E-03 0.  1.
         11    1    4    4    0    0  0.29493666241E-03  0.33455771822E-01 -0.71652297054E-02  0.34219545491E-01  0.51100000000E-03 0. -1.
</event>
<event>
 8    1  0.1116841E+005  0.1043930E+01  0.7957747E-01            NaN
         13   -1    0    0    0    0  0.00000000000E+00  0.00000000000E+00  0.74505805969E-08  0.10566000000E+00  0.10566000000E+00 0. -1.
     999900   -1    0    0    0    0 -0.00000000000E+00 -0.00000000000E+00 -0.74505805969E-08  0.93827000000E+00  0.93827000000E+00 0. -1.
     999902    2    1    2    0    0 -0.21137667380E-01 -0.20891481480E-01  0.14767365275E-01  0.10107437068E+01  0.10101987481E+01 0.  0.
     999903    2    3    3    0    0  0.11742446247E+00  0.27313487235E-02  0.95011041173E-02  0.11957299617E+00  0.20284619365E-01 0.  0.
         14    1    1    2    0    0  0.21137667380E-01  0.20891481480E-01 -0.14767365275E-01  0.33186293223E-01  0.00000000000E+00 0.  1.
     999901    1    3    3    0    0 -0.13856212985E+00 -0.23622830204E-01  0.52662611575E-02  0.89117071061E+00  0.88000000000E+00 0.  1.
        -11    1    4    4    0    0  0.56238572915E-01  0.11277630393E-01  0.28017129053E-02  0.57428849431E-01  0.51100000000E-03 0. -1.
         11    1    4    4    0    0  0.61185889550E-01 -0.85462816692E-02  0.66993912120E-02  0.62144146740E-01  0.51100000000E-03 0.  1.
</event>
<event>
 8    1  0.1116841E+005  0.1043930E+01  0.7957747E-01            NaN
         13   -1    0    0    0    0  0.00000000000E+00  0.00000000000E+00  0.74505805969E-08  0.10566000000E+00  0.10566000000E+00 0. -1.
     999900   -1    0    0    0    0 -0.00000000000E+00 -0.00000000000E+00 -0.74505805969E-08  0.93827000000E+00  0.93827000000E+00 0. -1.
     999902    2    1    2    0    0 -0.93729108688E-02  0.39739719647E-02  0.19895178071E-01  0.10215813530E+01  0.10213368684E+01 0.  0.
     999903    2    3    3    0    0 -0.10981484886E+00 -0.65507042221E-01  0.31063865930E-01  0.13307646624E+00  0.19847128025E-01 0.  0.
         14    1    1    2    0    0  0.93729108688E-02 -0.39739719647E-02 -0.19895178071E-01  0.22348646979E-01  0.00000000000E+00 0.  1.
     999901    1    3    3    0    0  0.10044193799E+00  0.69481014186E-01 -0.11168687859E-01  0.88850488678E+00  0.88000000000E+00 0. -1.
        -11    1    4    4    0    0 -0.32648700094E-01 -0.26074522148E-01  0.17753321552E-01  0.45401099879E-01  0.51100000000E-03 0.  1.
         11    1    4    4    0    0 -0.77166148765E-01 -0.39432520073E-01  0.13310544378E-01  0.87675366364E-01  0.51100000000E-03 0. -1.
</event>
<event>
 8    1  0.1116841E+005  0.1043930E+01  0.7957747E-01            NaN
         13   -1    0    0    0    0  0.00000000000E+00  0.00000000000E+00  0.74505805969E-08  0.10566000000E+00  0.10566000000E+00 0.  1.
     999900   -1    0    0    0    0 -0.00000000000E+00 -0.00000000000E+00 -0.74505805969E-08  0.93827000000E+00  0.93827000000E+00 0.  1.
     999902    2    1    2    0    0  0.47175775201E-04  0.18888273961E-01 -0.15063498140E-01  0.10197705692E+01  0.10194843480E+01 0.  0.
     999903    2    3    3    0    0  0.35031811881E-01  0.51558819105E-02 -0.12560907414E+00  0.13205843812E+00  0.20198529864E-01 0.  0.
         14    1    1    2    0    0 -0.47175775201E-04 -0.18888273961E-01  0.15063498140E-01  0.24159430767E-01  0.00000000000E+00 0.  1.
     999901    1    3    3    0    0 -0.34984636106E-01  0.13732392050E-01  0.11054557600E+00  0.88771213112E+00  0.88000000000E+00 0. -1.
        -11    1    4    4    0    0  0.21782623229E-01  0.91897372946E-02 -0.51567522630E-01  0.56730983223E-01  0.51100000000E-03 0. -1.
         11    1    4    4    0    0  0.13249188653E-01 -0.40338553842E-02 -0.74041551515E-01  0.75327454895E-01  0.51100000000E-03 0.  1.
</event>
<event>
 8    1  0.1116841E+005  0.1043930E+01  0.7957747E-01            NaN
         13   -1    0    0    0    0  0.00000000000E+00  0.00000000000E+00  0.74505805969E-08  0.10566000000E+00  0.10566000000E+00 0.  1.
     999900   -1    0    0    0    0 -0.00000000000E+00 -0.00000000000E+00 -0.74505805969E-08  0.93827000000E+00  0.93827000000E+00 0.  1.
     999902    2    1    2    0    0  0.96864098844E-02  0.21145190499E-01 -0.49827464324E-02  0.10201440088E+01  0.10198666703E+01 0.  0.
     999903    2    3    3    0    0  0.12098611633E+00 -0.42917038960E-01 -0.15147696527E-01  0.13076505684E+00  0.19761953365E-01 0.  0.
         14    1    1    2    0    0 -0.96864098844E-02 -0.21145190499E-01  0.49827464324E-02  0.23785991249E-01  0.00000000000E+00 0.  1.
     999901    1    3    3    0    0 -0.11129970645E+00  0.64062229459E-01  0.10164950095E-01  0.88937895191E+00  0.88000000000E+00 0. -1.
        -11    1    4    4    0    0  0.46574280212E-01 -0.25757761161E-01 -0.19048107573E-02  0.53258945374E-01  0.51100000000E-03 0.  1.
         11    1    4    4    0    0  0.74411836121E-01 -0.17159277799E-01 -0.13242885770E-01  0.77506111463E-01  0.51100000000E-03 0. -1.
</event>
<event>
 8    1  0.1116841E+005  0.1043930E+01  0.7957747E-01            NaN
         13   -1    0    0    0    0  0.00000000000E+00  0.00000000000E+00  0.74505805969E-08  0.10566000000E+00  0.10566000000E+00 0. -1.
     999900   -1    0    0    0    0 -0.00000000000E+00 -0.00000000000E+00 -0.74505805969E-08  0.93827000000E+00  0.93827000000E+00 0. -1.
     999902    2    1    2    0    0 -0.67928569335E-02  0.16279575637E-02 -0.22656557134E-01  0.10202210833E+01  0.10199455603E+01 0.  0.
     999903    2    3    3    0    0 -0.93015094855E-01 -0.13908691653E-01 -0.92113266249E-01  0.13314730042E+00  0.19952198287E-01 0.  0.
         14    1    1    2    0    0  0.67928569335E-02 -0.16279575637E-02  0.22656557134E-01  0.23708916726E-01  0.00000000000E+00 0. -1.
     999901    1    3    3    0    0  0.86222237921E-01  0.15536649216E-01  0.69456709114E-01  0.88707378285E+00  0.88000000000E+00 0.  1.
        -11    1    4    4    0    0 -0.76957173756E-01 -0.12409460864E-01 -0.64555342185E-01  0.10121291734E+00  0.51100000000E-03 0. -1.
         11    1    4    4    0    0 -0.16057921098E-01 -0.14992307891E-02 -0.27557924064E-01  0.31934383080E-01  0.51100000000E-03 0.  1.
</event>
<event>
 8    1  0.1116841E+005  0.1043930E+01  0.7957747E-01            NaN
         13   -1    0    0    0    0  0.00000000000E+00  0.00000000000E+00  0.74505805969E-08  0.10566000000E+00  0.10566000000E+00 0.  1.
     999900   -1    0    0    0    0 -0.00000000000E+00 -0.00000000000E+00 -0.74505805969E-08  0.93827000000E+00  0.93827000000E+00 0. -1.
     999902    2    1    2    0    0  0.10941352159E-01  0.18624564294E-01  0.94386355042E-02  0.10203572313E+01  0.10200849004E+01 0.  0.
     999903    2    3    3    0    0  0.34433401999E-01  0.10172437125E+00 -0.74946285106E-01  0.13211274408E+00  0.17416217101E-01 0.  0.
         14    1    1    2    0    0 -0.10941352159E-01 -0.18624564294E-01 -0.94386355042E-02  0.23572768662E-01  0.00000000000E+00 0.  1.
     999901    1    3    3    0    0 -0.23492049839E-01 -0.83099806951E-01  0.84384920611E-01  0.88824448726E+00  0.88000000000E+00 0.  1.
        -11    1    4    4    0    0  0.48119740795E-02  0.34650474405E-01 -0.18495316476E-01  0.39574591894E-01  0.51100000000E-03 0. -1.
         11    1    4    4    0    0  0.29621427919E-01  0.67073896841E-01 -0.56450968631E-01  0.92538152184E-01  0.51100000000E-03 0.  1.
</event>
<event>
 8    1  0.1116841E+005  0.1043930E+01  0.7957747E-01            NaN
         13   -1    0    0    0    0  0.00000000000E+00  0.00000000000E+00  0.74505805969E-08  0.10566000000E+00  0.10566000000E+00 0.  1.
     999900   -1    0    0    0    0 -0.00000000000E+00 -0.00000000000E+00 -0.74505805969E-08  0.93827000000E+00  0.93827000000E+00 0.  1.
     999902    2    1    2    0    0  0.11650373646E-01  0.19668016791E-02  0.20422426881E-01  0.10203360382E+01  0.10200632116E+01 0.  0.
     999903    2    3    3    0    0  0.11374215079E+00 -0.55010076711E-01  0.34636686522E-01  0.13248968840E+00  0.19759354070E-01 0.  0.
         14    1    1    2    0    0 -0.11650373646E-01 -0.19668016791E-02 -0.20422426881E-01  0.23593961826E-01  0.00000000000E+00 0. -1.
     999901    1    3    3    0    0 -0.10209177714E+00  0.56976878390E-01 -0.14214259641E-01  0.88784634977E+00  0.88000000000E+00 0. -1.
        -11    1    4    4    0    0  0.41571759541E-01 -0.10621721862E-01  0.15514149405E-01  0.45628742251E-01  0.51100000000E-03 0.  1.
         11    1    4    4    0    0  0.72170391247E-01 -0.44388354849E-01  0.19122537117E-01  0.86860946148E-01  0.51100000000E-03 0. -1.
</event>
<event>
 8    1  0.1116841E+005  0.1043930E+01  0.7957747E-01            NaN
         13   -1    0    0    0    0  0.00000000000E+00  0.00000000000E+00  0.74505805969E-08  0.10566000000E+00  0.10566000000E+00 0.  1.
     999900   -1    0    0    0    0 -0.00000000000E+00 -0.00000000000E+00 -0.74505805969E-08  0.93827000000E+00  0.93827000000E+00 0.  1.
     999902    2    1    2    0    0 -0.97240220545E-02  0.22991833873E-02  0.21534661051E-01  0.10201900658E+01  0.10199138130E+01 0.  0.
     999903    2    3    3    0    0  0.70673385656E-01  0.10287712809E+00  0.33531828764E-01  0.13073877531E+00  0.19743680100E-01 0.  0.
         14    1    1    2    0    0  0.97240220545E-02 -0.22991833873E-02 -0.21534661051E-01  0.23739934198E-01  0.00000000000E+00 0. -1.
     999901    1    3    3    0    0 -0.80397407711E-01 -0.10057794471E+00 -0.11997167713E-01  0.88945129049E+00  0.88000000000E+00 0.  1.
        -11    1    4    4    0    0  0.43301297081E-01  0.77715409647E-01  0.20138545020E-01  0.91216825981E-01  0.51100000000E-03 0.  1.
         11    1    4    4    0    0  0.27372088576E-01  0.25161718446E-01  0.13393283744E-01  0.39521949327E-01  0.51100000000E-03 0. -1.
</event>
<event>
 8    1  0.1116841E+005  0.1043930E+01  0.7957747E-01            NaN
         13   -1    0    0    0    0  0.00000000000E+00  0.00000000000E+00  0.74505805969E-08  0.10566000000E+00  0.10566000000E+00 0.  1.
     999900   -1    0    0    0    0 -0.00000000000E+00 -0.00000000000E+00 -0.74505805969E-08  0.93827000000E+00  0.93827000000E+00 0. -1.
     999902    2    1    2    0    0  0.21912895183E-01 -0.20565209724E-02 -0.16729506899E-02  0.10218573242E+01  0.10216189054E+01 0.  0.
     999903    2    3    3    0    0 -0.12390822844E+00  0.91695359703E-03 -0.31094467764E-01  0.12936739857E+00  0.20370763571E-01 0.  0.
         14    1    1    2    0    0 -0.21912895183E-01  0.20565209724E-02  0.16729506899E-02  0.22072675819E-01  0.00000000000E+00 0. -1.
     999901    1    3    3    0    0  0.14582112362E+00 -0.29734745694E-02  0.29421517074E-01  0.89248992561E+00  0.88000000000E+00 0. -1.
        -11    1    4    4    0    0 -0.10743549943E+00  0.69935757744E-02 -0.23331127640E-01  0.11016305768E+00  0.51100000000E-03 0.  1.
         11    1    4    4    0    0 -0.16472729015E-01 -0.60766221774E-02 -0.77633401238E-02  0.19204340894E-01  0.51100000000E-03 0. -1.
</event>
<event>
 8    1  0.1116841E+005  0.1043930E+01  0.7957747E-01            NaN
         13   -1    0    0    0    0  0.00000000000E+00  0.00000000000E+00  0.74505805969E-08  0.10566000000E+00  0.10566000000E+00 0.  1.
     999900   -1    0    0    0    0 -0.00000000000E+00 -0.00000000000E+00 -0.74505805969E-08  0.93827000000E+00  0.93827000000E+00 0. -1.
     999902    2    1    2    0    0 -0.11293924027E-02  0.32842988581E-02 -0.22610842045E-01  0.10210539793E+01  0.10207976863E+01 0.  0.
     999903    2    3    3    0    0  0.10035192802E+00 -0.37619290290E-01 -0.75612717437E-01  0.13269551514E+00  0.20127002775E-01 0.  0.
         14    1    1    2    0    0  0.11293924027E-02 -0.32842988581E-02  0.22610842045E-01  0.22876020724E-01  0.00000000000E+00 0.  1.
     999901    1    3    3    0    0 -0.10148132043E+00  0.40903589148E-01  0.53001875392E-01  0.88835846413E+00  0.88000000000E+00 0.  1.
        -11    1    4    4    0    0  0.76094803734E-01 -0.27810967780E-01 -0.67033081447E-01  0.10515495335E+00  0.51100000000E-03 0.  1.
         11    1    4    4    0    0  0.24257124291E-01 -0.98083225097E-02 -0.85796359898E-02  0.27540561796E-01  0.51100000000E-03 0. -1.
</event>
<event>
 8    1  0.1116841E+005  0.1043930E+01  0.7957747E-01            NaN
         13   -1    0    0    0    0  0.00000000000E+00  0.00000000000E+00  0.74505805969E-08  0.10566000000E+00  0.10566000000E+00 0. -1.
     999900   -1    0    0    0    0 -0.00000000000E+00 -0.00000000000E+00 -0.74505805969E-08  0.93827000000E+00  0.93827000000E+00 0. -1.
     999902    2    1    2    0    0 -0.49448115271E-02 -0.23021007672E-01 -0.23613268632E-02  0.10202658114E+01  0.10199913393E+01 0.  0.
     999903    2    3    3    0    0  0.35946719392E-01 -0.59254090226E-01  0.11011585542E+00  0.13142607893E+00  0.18549899296E-01 0.  0.
         14    1    1    2    0    0  0.49448115271E-02  0.23021007672E-01  0.23613268632E-02  0.23664188552E-01  0.00000000000E+00 0. -1.
     999901    1    3    3    0    0 -0.40891530919E-01  0.36233082554E-01 -0.11247718228E+00  0.88883973252E+00  0.88000000000E+00 0. -1.
        -11    1    4    4    0    0  0.16285259525E-01 -0.25658453366E-01  0.31923193994E-01  0.44078536077E-01  0.51100000000E-03 0.  1.
         11    1    4    4    0    0  0.19661459867E-01 -0.33595636860E-01  0.78192661426E-01  0.87347542850E-01  0.51100000000E-03 0. -1.
</event>
<event>
 8    1  0.1116841E+005  0.1043930E+01  0.7957747E-01            NaN
         13   -1    0    0    0    0  0.00000000000E+00  0.00000000000E+00  0.74505805969E-08  0.10566000000E+00  0.10566000000E+00 0.  1.
     999900   -1    0    0    0    0 -0.00000000000E+00 -0.00000000000E+00 -0.74505805969E-08  0.93827000000E+00  0.93827000000E+00 0. -1.
     999902    2    1    2    0    0 -0.56160038117E-02 -0.21807012716E-01 -0.36272077275E-02  0.10211211873E+01  0.10208664149E+01 0.  0.
     999903    2    3    3    0    0 -0.67904425221E-01  0.38315390695E-01  0.10278323285E+00  0.13049346891E+00  0.19623260305E-01 0.  0.
         14    1    1    2    0    0  0.56160038117E-02  0.21807012716E-01  0.36272077275E-02  0.22808812733E-01  0.00000000000E+00 0.  1.
     999901    1    3    3    0    0  0.62288421409E-01 -0.60122403410E-01 -0.10641044058E+00  0.89062771835E+00  0.88000000000E+00 0. -1.
        -11    1    4    4    0    0 -0.38074053183E-01  0.14914191875E-01  0.66153497044E-01  0.77772829043E-01  0.51100000000E-03 0.  1.
         11    1    4    4    0    0 -0.29830372037E-01  0.23401198820E-01  0.36629735808E-01  0.52720639872E-01  0.51100000000E-03 0. -1.
</event>
<event>
 8    1  0.1116841E+005  0.1043930E+01  0.7957747E-01            NaN
         13   -1    0    0    0    0  0.00000000000E+00  0.00000000000E+00  0.74505805969E-08  0.10566000000E+00  0.10566000000E+00 0. -1.
     999900   -1    0    0    0    0 -0.00000000000E+00 -0.00000000000E+00 -0.74505805969E-08  0.93827000000E+00  0.93827000000E+00 0.  1.
     999902    2    1    2    0    0 -0.89005530847E-02  0.12451730772E-01  0.16029192875E-01  0.10217669571E+01  0.10215265607E+01 0.  0.
     999903    2    3    3    0    0  0.37156802629E-01 -0.11082078375E+00 -0.51761014240E-01  0.12940329527E+00  0.20103137562E-01 0.  0.
         14    1    1    2    0    0  0.89005530847E-02 -0.12451730772E-01 -0.16029192875E-01  0.22163042856E-01  0.00000000000E+00 0.  1.
     999901    1    3    3    0    0 -0.46057355714E-01  0.12327251452E+00  0.67790207114E-01  0.89236366187E+00  0.88000000000E+00 0.  1.
        -11    1    4    4    0    0  0.27545679975E-01 -0.67266208492E-01 -0.41242301263E-01  0.83574492667E-01  0.51100000000E-03 0.  1.
         11    1    4    4    0    0  0.96111226538E-02 -0.43554575256E-01 -0.10518712976E-01  0.45828802603E-01  0.51100000000E-03 0. -1.
</event>
<event>
 8    1  0.1116841E+005  0.1043930E+01  0.7957747E-01            NaN
         13   -1    0    0    0    0  0.00000000000E+00  0.00000000000E+00  0.74505805969E-08  0.10566000000E+00  0.10566000000E+00 0.  1.
     999900   -1    0    0    0    0 -0.00000000000E+00 -0.00000000000E+00 -0.74505805969E-08  0.93827000000E+00  0.93827000000E+00 0. -1.
     999902    2    1    2    0    0  0.84037586066E-04  0.22076074171E-01  0.91181429428E-02  0.10200448447E+01  0.10197651615E+01 0.  0.
     999903    2    3    3    0    0 -0.80825106956E-01  0.82494133655E-01 -0.59674273435E-01  0.13160293431E+00  0.20502034216E-01 0.  0.
         14    1    1    2    0    0 -0.84037586066E-04 -0.22076074171E-01 -0.91181429428E-02  0.23885155303E-01  0.00000000000E+00 0.  1.
     999901    1    3    3    0    0  0.80909144542E-01 -0.60418059484E-01  0.68792416378E-01  0.88844191039E+00  0.88000000000E+00 0.  1.
        -11    1    4    4    0    0 -0.58879761217E-01  0.71859600137E-01 -0.46984915886E-01  0.10410798170E+00  0.51100000000E-03 0.  1.
         11    1    4    4    0    0 -0.21945345739E-01  0.10634533518E-01 -0.12689357549E-01  0.27494952605E-01  0.51100000000E-03 0. -1.
</event>
<event>
 8    1  0.1116841E+005  0.1043930E+01  0.7957747E-01            NaN
         13   -1    0    0    0    0  0.00000000000E+00  0.00000000000E+00  0.74505805969E-08  0.10566000000E+00  0.10566000000E+00 0.  1.
     999900   -1    0    0    0    0 -0.00000000000E+00 -0.00000000000E+00 -0.74505805969E-08  0.93827000000E+00  0.93827000000E+00 0.  1.
     999902    2    1    2    0    0 -0.19222980204E-01 -0.88857823860E-02 -0.24215515461E-01  0.10117605846E+01  0.10112490343E+01 0.  0.
     999903    2    3    3    0    0  0.30605261690E-01  0.20681981265E-01 -0.11758927068E+00  0.12492589625E+00  0.20367046509E-01 0.  0.
         14    1    1    2    0    0  0.19222980204E-01  0.88857823860E-02  0.24215515461E-01  0.32169415375E-01  0.00000000000E+00 0.  1.
     999901    1    3    3    0    0 -0.49828241894E-01 -0.29567763651E-01  0.93373755218E-01  0.88683468837E+00  0.88000000000E+00 0. -1.
        -11    1    4    4    0    0  0.16857300393E-01  0.22691765999E-01 -0.79714844342E-01  0.84580153406E-01  0.51100000000E-03 0. -1.
         11    1    4    4    0    0  0.13747961297E-01 -0.20097847330E-02 -0.37874426337E-01  0.40345742847E-01  0.51100000000E-03 0.  1.
</event>
<event>
 8    1  0.1116841E+005  0.1043930E+01  0.7957747E-01            NaN
         13   -1    0    0    0    0  0.00000000000E+00  0.00000000000E+00  0.74505805969E-08  0.10566000000E+00  0.10566000000E+00 0. -1.
     999900   -1    0    0    0    0 -0.00000000000E+00 -0.00000000000E+00 -0.74505805969E-08  0.93827000000E+00  0.93827000000E+00 0. -1.
     999902    2    1    2    0    0 -0.13676699228E-01 -0.51048115941E-02  0.17027283786E-01  0.10215014558E+01  0.10212552005E+01 0.  0.
     999903    2    3    3    0    0 -0.76099818726E-01 -0.10971969003E-01  0.10850185518E+00  0.13454110345E+00  0.20422767345E-01 0.  0.
         14    1    1    2    0    0  0.13676699228E-01  0.51048115941E-02 -0.17027283786E-01  0.22428544230E-01  0.00000000000E+00 0. -1.
     999901    1    3    3    0    0  0.62423119498E-01  0.58671574088E-02 -0.91474571389E-01  0.88696035232E+00  0.88000000000E+00 0. -1.
        -11    1    4    4    0    0 -0.29285361483E-01 -0.59367835768E-02  0.26309014815E-01  0.39815865907E-01  0.51100000000E-03 0.  1.
         11    1    4    4    0    0 -0.46814457243E-01 -0.50351854261E-02  0.82192840360E-01  0.94725237538E-01  0.51100000000E-03 0. -1.
</event>
<event>
 8    1  0.1116841E+005  0.1043930E+01  0.7957747E-01            NaN
         13   -1    0    0    0    0  0.00000000000E+00  0.00000000000E+00  0.74505805969E-08  0.10566000000E+00  0.10566000000E+00 0.  1.
     999900   -1    0    0    0    0 -0.00000000000E+00 -0.00000000000E+00 -0.74505805969E-08  0.93827000000E+00  0.93827000000E+00 0.  1.
     999902    2    1    2    0    0  0.14630572382E-01 -0.13344450147E-01  0.12897473186E-01  0.10202979706E+01  0.10200242527E+01 0.  0.
     999903    2    3    3    0    0  0.95970746283E-01  0.42668222933E-01 -0.74452679472E-01  0.13047568915E+00  0.21207135307E-01 0.  0.
         14    1    1    2    0    0 -0.14630572382E-01  0.13344450147E-01 -0.12897473186E-01  0.23632029379E-01  0.00000000000E+00 0. -1.
     999901    1    3    3    0    0 -0.81340173901E-01 -0.56012673080E-01  0.87350152658E-01  0.88982228147E+00  0.88000000000E+00 0. -1.
        -11    1    4    4    0    0  0.50132713148E-01  0.23451192347E-01 -0.51962646335E-01  0.75918542434E-01  0.51100000000E-03 0. -1.
         11    1    4    4    0    0  0.45838033135E-01  0.19217030585E-01 -0.22490033137E-01  0.54557146715E-01  0.51100000000E-03 0.  1.
</event>
<event>
 8    1  0.1116841E+005  0.1043930E+01  0.7957747E-01            NaN
         13   -1    0    0    0    0  0.00000000000E+00  0.00000000000E+00  0.74505805969E-08  0.10566000000E+00  0.10566000000E+00 0. -1.
     999900   -1    0    0    0    0 -0.00000000000E+00 -0.00000000000E+00 -0.74505805969E-08  0.93827000000E+00  0.93827000000E+00 0.  1.
     999902    2    1    2    0    0 -0.52797196057E-02 -0.20538047865E-01 -0.38931409313E-02  0.10223697728E+01  0.10221424113E+01 0.  0.
     999903    2    3    3    0    0 -0.46753144072E-01 -0.23651438359E-01 -0.12115334972E+00  0.13361801069E+00  0.20745881910E-01 0.  0.
         14    1    1    2    0    0  0.52797196057E-02  0.20538047865E-01  0.38931409313E-02  0.21560227168E-01  0.00000000000E+00 0.  1.
     999901    1    3    3    0    0  0.41473424466E-01  0.31133904946E-02  0.11726020879E+00  0.88875176214E+00  0.88000000000E+00 0. -1.
        -11    1    4    4    0    0 -0.46979968496E-03  0.49811502261E-03 -0.17862555703E-01  0.17882976473E-01  0.51100000000E-03 0. -1.
         11    1    4    4    0    0 -0.46283344387E-01 -0.24149553382E-01 -0.10329079402E+00  0.11573503422E+00  0.51100000000E-03 0.  1.
</event>
<event>
 8    1  0.1116841E+005  0.1043930E+01  0.7957747E-01            NaN
         13   -1    0    0    0    0  0.00000000000E+00  0.00000000000E+00  0.74505805969E-08  0.10566000000E+00  0.10566000000E+00 0. -1.
     999900   -1    0    0    0    0 -0.00000000000E+00 -0.00000000000E+00 -0.74505805969E-08  0.93827000000E+00  0.93827000000E+00 0.  1.
     999902    2    1    2    0    0  0.11187873069E-01 -0.11276430835E-01  0.19328780356E-01  0.10189114440E+01  0.10186042423E+01 0.  0.
     999903    2    3    3    0    0 -0.11844831606E+00  0.41135331485E-01 -0.79652667756E-02  0.12745336903E+00  0.21419540785E-01 0.  0.
         14    1    1    2    0    0 -0.11187873069E-01  0.11276430835E-01 -0.19328780356E-01  0.25018556038E-01  0.00000000000E+00 0.  1.
     999901    1    3    3    0    0  0.12963618913E+00 -0.52411762320E-01  0.27294047131E-01  0.89145807494E+00  0.88000000000E+00 0.  1.
        -11    1    4    4    0    0 -0.26267348177E-01  0.11005584139E-01 -0.10714906941E-01  0.30432988915E-01  0.51100000000E-03 0.  1.
         11    1    4    4    0    0 -0.92180967882E-01  0.30129747346E-01  0.27496401658E-02  0.97020380111E-01  0.51100000000E-03 0. -1.
</event>
<event>
 8    1  0.1116841E+005  0.1043930E+01  0.7957747E-01            NaN
         13   -1    0    0    0    0  0.00000000000E+00  0.00000000000E+00  0.74505805969E-08  0.10566000000E+00  0.10566000000E+00 0.  1.
     999900   -1    0    0    0    0 -0.00000000000E+00 -0.00000000000E+00 -0.74505805969E-08  0.93827000000E+00  0.93827000000E+00 0.  1.
     999902    2    1    2    0    0  0.11497301284E-01  0.11799542402E-01  0.14729974233E-01  0.10218304688E+01  0.10215914632E+01 0.  0.
     999903    2    3    3    0    0 -0.56649549014E-01  0.92147539690E-01  0.75917777076E-01  0.13343655782E+00  0.18478788181E-01 0.  0.
         14    1    1    2    0    0 -0.11497301284E-01 -0.11799542402E-01 -0.14729974233E-01  0.22099531185E-01  0.00000000000E+00 0. -1.
     999901    1    3    3    0    0  0.68146850297E-01 -0.80347997288E-01 -0.61187802844E-01  0.88839391099E+00  0.88000000000E+00 0.  1.
        -11    1    4    4    0    0 -0.28038648688E-01  0.30412435973E-01  0.23802801356E-01  0.47727524086E-01  0.51100000000E-03 0.  1.
         11    1    4    4    0    0 -0.28610900326E-01  0.61735103717E-01  0.52114975721E-01  0.85709033735E-01  0.51100000000E-03 0. -1.
</event>
<event>
 8    1  0.1116841E+005  0.1043930E+01  0.7957747E-01            NaN
         13   -1    0    0    0    0  0.00000000000E+00  0.00000000000E+00  0.74505805969E-08  0.10566000000E+00  0.10566000000E+00 0. -1.
     999900   -1    0    0    0    0 -0.00000000000E+00 -0.00000000000E+00 -0.74505805969E-08  0.93827000000E+00  0.93827000000E+00 0.  1.
     999902    2    1    2    0    0  0.13132450086E-01  0.60649538462E-02 -0.18435741300E-01  0.10204966591E+01  0.10202275774E+01 0.  0.
     999903    2    3    3    0    0 -0.44093972121E-01 -0.65002847329E-01  0.99186697393E-01  0.12799425915E+00  0.19361841250E-01 0.  0.
         14    1    1    2    0    0 -0.13132450086E-01 -0.60649538462E-02  0.18435741300E-01  0.23433340942E-01  0.00000000000E+00 0. -1.
     999901    1    3    3    0    0  0.57226422207E-01  0.71067801175E-01 -0.11762243869E+00  0.89250239991E+00  0.88000000000E+00 0.  1.
        -11    1    4    4    0    0 -0.25322009043E-01 -0.29026113769E-01  0.34963883637E-01  0.52023587943E-01  0.51100000000E-03 0.  1.
         11    1    4    4    0    0 -0.18771963078E-01 -0.35976733561E-01  0.64222813756E-01  0.75970671204E-01  0.51100000000E-03 0. -1.
</event>
<event>
 8    1  0.1116841E+005  0.1043930E+01  0.7957747E-01            NaN
         13   -1    0    0    0    0  0.00000000000E+00  0.00000000000E+00  0.74505805969E-08  0.10566000000E+00  0.10566000000E+00 0. -1.
     999900   -1    0    0    0    0 -0.00000000000E+00 -0.00000000000E+00 -0.74505805969E-08  0.93827000000E+00  0.93827000000E+00 0. -1.
     999902    2    1    2    0    0  0.83271036526E-02 -0.21197987170E-01  0.26259266230E-01  0.10091701902E+01  0.10085713799E+01 0.  0.
     999903    2    3    3    0    0 -0.55141066488E-01  0.27381027444E-01 -0.97525539870E-01  0.11691977270E+00  0.19202719715E-01 0.  0.
         14    1    1    2    0    0 -0.83271036526E-02  0.21197987170E-01 -0.26259266230E-01  0.34759809813E-01  0.00000000000E+00 0.  1.
     999901    1    3    3    0    0  0.63468170141E-01 -0.48579014614E-01  0.12378480610E+00  0.89225041749E+00  0.88000000000E+00 0.  1.
        -11    1    4    4    0    0 -0.29372001470E-01  0.12734774960E-01 -0.33369688586E-01  0.46245931724E-01  0.51100000000E-03 0. -1.
         11    1    4    4    0    0 -0.25769065019E-01  0.14646252484E-01 -0.64155851283E-01  0.70673840978E-01  0.51100000000E-03 0.  1.
</event>
<event>
 8    1  0.1116841E+005  0.1043930E+01  0.7957747E-01            NaN
         13   -1    0    0    0    0  0.00000000000E+00  0.00000000000E+00  0.74505805969E-08  0.10566000000E+00  0.10566000000E+00 0. -1.
     999900   -1    0    0    0    0 -0.00000000000E+00 -0.00000000000E+00 -0.74505805969E-08  0.93827000000E+00  0.93827000000E+00 0. -1.
     999902    2    1    2    0    0  0.67650418420E-02  0.11149064720E-01 -0.18536226890E-01  0.10212659504E+01  0.10210144379E+01 0.  0.
     999903    2    3    3    0    0 -0.62907810740E-01  0.89056038227E-01  0.69577830217E-01  0.13071112901E+00  0.18866748325E-01 0.  0.
         14    1    1    2    0    0 -0.67650418420E-02 -0.11149064720E-01  0.18536226890E-01  0.22664049563E-01  0.00000000000E+00 0. -1.
     999901    1    3    3    0    0  0.69672852582E-01 -0.77906973507E-01 -0.88114057107E-01  0.89055482143E+00  0.88000000000E+00 0. -1.
        -11    1    4    4    0    0 -0.35677362655E-01  0.35857127184E-01  0.36731923388E-01  0.62514822984E-01  0.51100000000E-03 0.  1.
         11    1    4    4    0    0 -0.27230448085E-01  0.53198911044E-01  0.32845906829E-01  0.68196306026E-01  0.51100000000E-03 0. -1.
</event>
<event>
 8    1  0.1116841E+005  0.1043930E+01  0.7957747E-01            NaN
         13   -1    0    0    0    0  0.00000000000E+00  0.00000000000E+00  0.74505805969E-08  0.10566000000E+00  0.10566000000E+00 0. -1.
     999900   -1    0    0    0    0 -0.00000000000E+00 -0.00000000000E+00 -0.74505805969E-08  0.93827000000E+00  0.93827000000E+00 0. -1.
     999902    2    1    2    0    0  0.92843080083E-02  0.19045063381E-01  0.38614848977E-02  0.10223934292E+01  0.10221665717E+01 0.  0.
     999903    2    3    3    0    0  0.70278937068E-01 -0.10343269178E+00 -0.33611390729E-01  0.13103190792E+00  0.20054540225E-01 0.  0.
         14    1    1    2    0    0 -0.92843080083E-02 -0.19045063381E-01 -0.38614848977E-02  0.21536570757E-01  0.00000000000E+00 0.  1.
     999901    1    3    3    0    0 -0.60994629060E-01  0.12247775516E+00  0.37472875626E-01  0.89136152132E+00  0.88000000000E+00 0. -1.
        -11    1    4    4    0    0  0.55909759266E-01 -0.66057056971E-01 -0.24829094995E-01  0.90034332541E-01  0.51100000000E-03 0. -1.
         11    1    4    4    0    0  0.14369177802E-01 -0.37375634805E-01 -0.87822957334E-02  0.40997575382E-01  0.51100000000E-03 0.  1.
</event>
<event>
 8    1  0.1116841E+005  0.1043930E+01  0.7957747E-01            NaN
         13   -1    0    0    0    0  0.00000000000E+00  0.00000000000E+00  0.74505805969E-08  0.10566000000E+00  0.10566000000E+00 0.  1.
     999900   -1    0    0    0    0 -0.00000000000E+00 -0.00000000000E+00 -0.74505805969E-08  0.93827000000E+00  0.93827000000E+00 0.  1.
     999902    2    1    2    0    0 -0.19007958395E-01  0.59653986438E-02 -0.13295908455E-01  0.10199785983E+01  0.10196973430E+01 0.  0.
     999903    2    3    3    0    0  0.12175466340E+00  0.29844139434E-01  0.16785546596E-01  0.12796447063E+00  0.19449433183E-01 0.  0.
         14    1    1    2    0    0  0.19007958395E-01 -0.59653986438E-02  0.13295908455E-01  0.23951401733E-01  0.00000000000E+00 0.  1.
     999901    1    3    3    0    0 -0.14076262180E+00 -0.23878740790E-01 -0.30081455051E-01  0.89201412763E+00  0.88000000000E+00 0. -1.
        -11    1    4    4    0    0  0.48973377010E-01  0.20065368980E-01  0.12611779031E-01  0.54408903494E-01  0.51100000000E-03 0. -1.
         11    1    4    4    0    0  0.72781286394E-01  0.97787704537E-02  0.41737675655E-02  0.73555567141E-01  0.51100000000E-03 0.  1.
</event>
<event>
 8    1  0.1116841E+005  0.1043930E+01  0.7957747E-01            NaN
         13   -1    0    0    0    0  0.00000000000E+00  0.00000000000E+00  0.74505805969E-08  0.10566000000E+00  0.10566000000E+00 0. -1.
     999900   -1    0    0    0    0 -0.00000000000E+00 -0.00000000000E+00 -0.74505805969E-08  0.93827000000E+00  0.93827000000E+00 0. -1.
     999902    2    1    2    0    0 -0.46443562152E-03  0.78913556643E-02  0.22504785333E-01  0.10200772317E+01  0.10197983153E+01 0.  0.
     999903    2    3    3    0    0 -0.93721571574E-02  0.12666148931E+00 -0.24111207821E-01  0.13083106610E+00  0.20110875364E-01 0.  0.
         14    1    1    2    0    0  0.46443562152E-03 -0.78913556643E-02 -0.22504785333E-01  0.23852768342E-01  0.00000000000E+00 0.  1.
     999901    1    3    3    0    0  0.89077215359E-02 -0.11877013365E+00  0.46615993155E-01  0.88924616556E+00  0.88000000000E+00 0.  1.
        -11    1    4    4    0    0  0.27842887097E-02  0.81588109134E-01 -0.19374045576E-01  0.83904627874E-01  0.51100000000E-03 0.  1.
         11    1    4    4    0    0 -0.12156445867E-01  0.45073380181E-01 -0.47371622456E-02  0.46926438222E-01  0.51100000000E-03 0. -1.
</event>
<event>
 8    1  0.1116841E+005  0.1043930E+01  0.7957747E-01            NaN
         13   -1    0    0    0    0  0.00000000000E+00  0.00000000000E+00  0.74505805969E-08  0.10566000000E+00  0.10566000000E+00 0. -1.
     999900   -1    0    0    0    0 -0.00000000000E+00 -0.00000000000E+00 -0.74505805969E-08  0.93827000000E+00  0.93827000000E+00 0.  1.
     999902    2    1    2    0    0  0.22502426748E-01  0.10671566810E-01 -0.14792325713E-01  0.10149635634E+01  0.10145501371E+01 0.  0.
     999903    2    3    3    0    0 -0.73966858712E-01  0.15715766545E-01 -0.98512656416E-01  0.12572745262E+00  0.19610389149E-01 0.  0.
         14    1    1    2    0    0 -0.22502426748E-01 -0.10671566810E-01  0.14792325713E-01  0.28966436573E-01  0.00000000000E+00 0.  1.
     999901    1    3    3    0    0  0.96469285460E-01 -0.50441997350E-02  0.83720330703E-01  0.88923611081E+00  0.88000000000E+00 0. -1.
        -11    1    4    4    0    0 -0.23756414270E-01  0.75759801806E-02 -0.19075833703E-01  0.31399223671E-01  0.51100000000E-03 0.  1.
         11    1    4    4    0    0 -0.50210444442E-01  0.81397863646E-02 -0.79436822713E-01  0.94328228950E-01  0.51100000000E-03 0. -1.
</event>
<event>
 8    1  0.1125882E+005  0.1043930E+01  0.7957747E-01            NaN
         13   -1    0    0    0    0  0.00000000000E+00  0.00000000000E+00  0.74505805969E-08  0.10566000000E+00  0.10566000000E+00 0.  1.
     999900   -1    0    0    0    0 -0.00000000000E+00 -0.00000000000E+00 -0.74505805969E-08  0.93827000000E+00  0.93827000000E+00 0. -1.
     999902    2    1    2    0    0 -0.21767539184E-01  0.30292727068E-02 -0.82078851710E-02  0.10204699993E+01  0.10202002979E+01 0.  0.
     999903    2    3    3    0    0 -0.12530747049E+00 -0.23086276740E-01  0.35719508494E-01  0.13292723680E+00  0.12602724431E-01 0.  0.
         14    1    1    2    0    0  0.21767539184E-01 -0.30292727068E-02  0.82078851710E-02  0.23460000729E-01  0.00000000000E+00 0. -1.
     999901    1    3    3    0    0  0.10353993130E+00  0.26115549447E-01 -0.43927393665E-01  0.88754276247E+00  0.88000000000E+00 0. -1.
        -11    1    4    4    0    0 -0.76404109105E-01 -0.20278154926E-01  0.21853384390E-01  0.82015992256E-01  0.51100000000E-03 0.  1.
         11    1    4    4    0    0 -0.48903361381E-01 -0.28081218139E-02  0.13866124103E-01  0.50911244546E-01  0.51100000000E-03 0. -1.
</event>
<event>
 8    1  0.1116841E+005  0.1043930E+01  0.7957747E-01            NaN
         13   -1    0    0    0    0  0.00000000000E+00  0.00000000000E+00  0.74505805969E-08  0.10566000000E+00  0.10566000000E+00 0. -1.
     999900   -1    0    0    0    0 -0.00000000000E+00 -0.00000000000E+00 -0.74505805969E-08  0.93827000000E+00  0.93827000000E+00 0.  1.
     999902    2    1    2    0    0  0.24743958750E-01 -0.12988943974E-01  0.30278808127E-02  0.10158204959E+01  0.10154315022E+01 0.  0.
     999903    2    3    3    0    0 -0.50778713493E-01 -0.34397382505E-01  0.10834254199E+00  0.12607155762E+00  0.19856323155E-01 0.  0.
         14    1    1    2    0    0 -0.24743958750E-01  0.12988943974E-01 -0.30278808127E-02  0.28109504129E-01  0.00000000000E+00 0.  1.
     999901    1    3    3    0    0  0.75522672242E-01  0.21408438531E-01 -0.10531466117E+00  0.88974893825E+00  0.88000000000E+00 0.  1.
        -11    1    4    4    0    0 -0.51377705894E-01 -0.28991770251E-01  0.98578559752E-01  0.11488335375E+00  0.51100000000E-03 0. -1.
         11    1    4    4    0    0  0.59899240085E-03 -0.54056122530E-02  0.97639822340E-02  0.11188203868E-01  0.51100000000E-03 0.  1.
</event>
<event>
 8    1  0.1116841E+005  0.1043930E+01  0.7957747E-01            NaN
         13   -1    0    0    0    0  0.00000000000E+00  0.00000000000E+00  0.74505805969E-08  0.10566000000E+00  0.10566000000E+00 0.  1.
     999900   -1    0    0    0    0 -0.00000000000E+00 -0.00000000000E+00 -0.74505805969E-08  0.93827000000E+00  0.93827000000E+00 0.  1.
     999902    2    1    2    0    0 -0.15245523889E-01  0.19594112911E-01 -0.10045589250E-01  0.10171481195E+01  0.10167954700E+01 0.  0.
     999903    2    3    3    0    0  0.11002730378E+00 -0.54525167444E-01  0.70111884836E-02  0.12502823813E+00  0.22447763906E-01 0.  0.
         14    1    1    2    0    0  0.15245523889E-01 -0.19594112911E-01  0.10045589250E-01  0.26781880494E-01  0.00000000000E+00 0.  1.
     999901    1    3    3    0    0 -0.12527282767E+00  0.74119280355E-01 -0.17056777734E-01  0.89211988137E+00  0.88000000000E+00 0.  1.
        -11    1    4    4    0    0  0.35351662255E-01 -0.29289438624E-01  0.49195323459E-02  0.46174388557E-01  0.51100000000E-03 0. -1.
         11    1    4    4    0    0  0.74675641528E-01 -0.25235728820E-01  0.20916561378E-02  0.78853849577E-01  0.51100000000E-03 0.  1.
</event>
<event>
 8    1  0.1116841E+005  0.1043930E+01  0.7957747E-01            NaN
         13   -1    0    0    0    0  0.00000000000E+00  0.00000000000E+00  0.74505805969E-08  0.10566000000E+00  0.10566000000E+00 0. -1.
     999900   -1    0    0    0    0 -0.00000000000E+00 -0.00000000000E+00 -0.74505805969E-08  0.93827000000E+00  0.93827000000E+00 0.  1.
     999902    2    1    2    0    0  0.18585201789E-01 -0.45299560809E-02 -0.12914160235E-01  0.10208495805E+01  0.10205886342E+01 0.  0.
     999903    2    3    3    0    0 -0.42481848339E-01  0.73841399003E-01  0.94318677467E-01  0.12879008960E+00  0.20823415047E-01 0.  0.
         14    1    1    2    0    0 -0.18585201789E-01  0.45299560809E-02  0.12914160235E-01  0.23080419455E-01  0.00000000000E+00 0. -1.
     999901    1    3    3    0    0  0.61067050128E-01 -0.78371355084E-01 -0.10723283770E+00  0.89205949095E+00  0.88000000000E+00 0. -1.
        -11    1    4    4    0    0 -0.12060365274E-01  0.40904536664E-01  0.41533746150E-01  0.59531056773E-01  0.51100000000E-03 0. -1.
         11    1    4    4    0    0 -0.30421483064E-01  0.32936862339E-01  0.52784931317E-01  0.69259032824E-01  0.51100000000E-03 0.  1.
</event>
<event>
 8    1  0.1116841E+005  0.1043930E+01  0.7957747E-01            NaN
         13   -1    0    0    0    0  0.00000000000E+00  0.00000000000E+00  0.74505805969E-08  0.10566000000E+00  0.10566000000E+00 0. -1.
     999900   -1    0    0    0    0 -0.00000000000E+00 -0.00000000000E+00 -0.74505805969E-08  0.93827000000E+00  0.93827000000E+00 0. -1.
     999902    2    1    2    0    0 -0.13589416478E-01 -0.15490045759E-01 -0.11844819030E-01  0.10201620911E+01  0.10198851791E+01 0.  0.
     999903    2    3    3    0    0 -0.10099468256E-01 -0.62845162242E-01  0.11261695034E+00  0.13013657522E+00  0.14192851387E-01 0.  0.
         14    1    1    2    0    0  0.13589416478E-01  0.15490045759E-01  0.11844819030E-01  0.23767908947E-01  0.00000000000E+00 0. -1.
     999901    1    3    3    0    0 -0.34899482214E-02  0.47355116483E-01 -0.12446176937E+00  0.89002551583E+00  0.88000000000E+00 0. -1.
        -11    1    4    4    0    0 -0.13548958611E-02 -0.19403367038E-01  0.47895681070E-01  0.51697038419E-01  0.51100000000E-03 0. -1.
         11    1    4    4    0    0 -0.87445723952E-02 -0.43441795205E-01  0.64721269270E-01  0.78439536803E-01  0.51100000000E-03 0.  1.
</event>
<event>
 8    1  0.1116841E+005  0.1043930E+01  0.7957747E-01            NaN
         13   -1    0    0    0    0  0.00000000000E+00  0.00000000000E+00  0.74505805969E-08  0.10566000000E+00  0.10566000000E+00 0. -1.
     999900   -1    0    0    0    0 -0.00000000000E+00 -0.00000000000E+00 -0.74505805969E-08  0.93827000000E+00  0.93827000000E+00 0. -1.
     999902    2    1    2    0    0  0.17107568117E-01 -0.14490489509E-01 -0.54557527677E-02  0.10208560231E+01  0.10205952241E+01 0.  0.
     999903    2    3    3    0    0  0.11133838902E+00  0.63166247604E-01 -0.26282073285E-01  0.13218074376E+00  0.19869321572E-01 0.  0.
         14    1    1    2    0    0 -0.17107568117E-01  0.14490489509E-01  0.54557527677E-02  0.23073976929E-01  0.00000000000E+00 0.  1.
     999901    1    3    3    0    0 -0.94230820902E-01 -0.77656737113E-01  0.20826320518E-01  0.88867527931E+00  0.88000000000E+00 0.  1.
        -11    1    4    4    0    0  0.60600193587E-01  0.23097884998E-01 -0.14651484688E-01  0.66489268899E-01  0.51100000000E-03 0. -1.
         11    1    4    4    0    0  0.50738195432E-01  0.40068362606E-01 -0.11630588598E-01  0.65691474863E-01  0.51100000000E-03 0.  1.
</event>
<event>
 8    1  0.1116841E+005  0.1043930E+01  0.7957747E-01            NaN
         13   -1    0    0    0    0  0.00000000000E+00  0.00000000000E+00  0.74505805969E-08  0.10566000000E+00  0.10566000000E+00 0.  1.
     999900   -1    0    0    0    0 -0.00000000000E+00 -0.00000000000E+00 -0.74505805969E-08  0.93827000000E+00  0.93827000000E+00 0. -1.
     999902    2    1    2    0    0  0.15734390033E-01 -0.86734417345E-02  0.15776360817E-01  0.10200198937E+01  0.10197396189E+01 0.  0.
     999903    2    3    3    0    0  0.38557520519E-01  0.11132378610E+00  0.52957058229E-01  0.13080527721E+00  0.20637412362E-01 0.  0.
         14    1    1    2    0    0 -0.15734390033E-01  0.86734417345E-02 -0.15776360817E-01  0.23910106271E-01  0.00000000000E+00 0. -1.
     999901    1    3    3    0    0 -0.22823130485E-01 -0.11999722784E+00 -0.37180697412E-01  0.88921461652E+00  0.88000000000E+00 0. -1.
        -11    1    4    4    0    0  0.24154533485E-01  0.43443544881E-01  0.28049201852E-01  0.57077157648E-01  0.51100000000E-03 0.  1.
         11    1    4    4    0    0  0.14402987033E-01  0.67880241220E-01  0.24907856377E-01  0.73728119560E-01  0.51100000000E-03 0. -1.
</event>
<event>
 8    1  0.1116841E+005  0.1043930E+01  0.7957747E-01            NaN
         13   -1    0    0    0    0  0.00000000000E+00  0.00000000000E+00  0.74505805969E-08  0.10566000000E+00  0.10566000000E+00 0. -1.
     999900   -1    0    0    0    0 -0.00000000000E+00 -0.00000000000E+00 -0.74505805969E-08  0.93827000000E+00  0.93827000000E+00 0. -1.
     999902    2    1    2    0    0 -0.13161298615E-01 -0.11884308688E-01 -0.21731022290E-01  0.10158819358E+01  0.10154946645E+01 0.  0.
     999903    2    3    3    0    0  0.49728756098E-01 -0.11554369637E+00 -0.79508126504E-02  0.12746180896E+00  0.18973728384E-01 0.  0.
         14    1    1    2    0    0  0.13161298615E-01  0.11884308688E-01  0.21731022290E-01  0.28048064175E-01  0.00000000000E+00 0. -1.
     999901    1    3    3    0    0 -0.62890054713E-01  0.10365938768E+00 -0.13780209639E-01  0.88842012686E+00  0.88000000000E+00 0. -1.
        -11    1    4    4    0    0  0.40160740337E-01 -0.10226727262E+00 -0.12199392186E-01  0.11054667071E+00  0.51100000000E-03 0. -1.
         11    1    4    4    0    0  0.95680157605E-02 -0.13276423744E-01  0.42485795359E-02  0.16915138252E-01  0.51100000000E-03 0.  1.
</event>
<event>
 8    1  0.1116841E+005  0.1043930E+01  0.7957747E-01            NaN
         13   -1    0    0    0    0  0.00000000000E+00  0.00000000000E+00  0.74505805969E-08  0.10566000000E+00  0.10566000000E+00 0.  1.
     999900   -1    0    0    0    0 -0.00000000000E+00 -0.00000000000E+00 -0.74505805969E-08  0.93827000000E+00  0.93827000000E+00 0.  1.
     999902    2    1    2    0    0 -0.15017573763E-01  0.36308116974E-02  0.17808238130E-01  0.10203536631E+01  0.10200812488E+01 0.  0.
     999903    2    3    3    0    0 -0.61142794549E-01 -0.10548077243E+00 -0.41737779404E-01  0.13042186686E+00  0.20079503188E-01 0.  0.
         14    1    1    2    0    0  0.15017573763E-01 -0.36308116974E-02 -0.17808238130E-01  0.23576336879E-01  0.00000000000E+00 0. -1.
     999901    1    3    3    0    0  0.46125220786E-01  0.10911158413E+00  0.59546017534E-01  0.88993179626E+00  0.88000000000E+00 0. -1.
        -11    1    4    4    0    0 -0.42033546960E-01 -0.58736278939E-01 -0.17077482124E-01  0.74220422057E-01  0.51100000000E-03 0.  1.
         11    1    4    4    0    0 -0.19109247590E-01 -0.46744493495E-01 -0.24660297279E-01  0.56201444807E-01  0.51100000000E-03 0. -1.
</event>
<event>
 8    1  0.1116841E+005  0.1043930E+01  0.7957747E-01            NaN
         13   -1    0    0    0    0  0.00000000000E+00  0.00000000000E+00  0.74505805969E-08  0.10566000000E+00  0.10566000000E+00 0. -1.
     999900   -1    0    0    0    0 -0.00000000000E+00 -0.00000000000E+00 -0.74505805969E-08  0.93827000000E+00  0.93827000000E+00 0. -1.
     999902    2    1    2    0    0  0.21869714063E-02  0.17507180317E-01  0.16478345646E-01  0.10197883331E+01  0.10195025376E+01 0.  0.
     999903    2    3    3    0    0  0.62794737026E-01 -0.36797539589E-01  0.10615246386E+00  0.13149572851E+00  0.26935907521E-01 0.  0.
         14    1    1    2    0    0 -0.21869714063E-02 -0.17507180317E-01 -0.16478345646E-01  0.24141666922E-01  0.00000000000E+00 0.  1.
     999901    1    3    3    0    0 -0.60607765619E-01  0.54304719906E-01 -0.89674118215E-01  0.88829260457E+00  0.88000000000E+00 0. -1.
        -11    1    4    4    0    0  0.17108674978E-01 -0.22016518666E-01  0.26394511648E-01  0.38397463716E-01  0.51100000000E-03 0.  1.
         11    1    4    4    0    0  0.45686062048E-01 -0.14781020922E-01  0.79757952212E-01  0.93098264790E-01  0.51100000000E-03 0. -1.
</event>
<event>
 8    1  0.1116841E+005  0.1043930E+01  0.7957747E-01            NaN
         13   -1    0    0    0    0  0.00000000000E+00  0.00000000000E+00  0.74505805969E-08  0.10566000000E+00  0.10566000000E+00 0.  1.
     999900   -1    0    0    0    0 -0.00000000000E+00 -0.00000000000E+00 -0.74505805969E-08  0.93827000000E+00  0.93827000000E+00 0. -1.
     999902    2    1    2    0    0 -0.34417408022E-02  0.13368059401E-01 -0.18294522310E-01  0.10210118819E+01  0.10207546340E+01 0.  0.
     999903    2    3    3    0    0  0.10393312715E+00  0.35346108153E-01  0.66837464300E-01  0.13013599151E+00  0.20412921669E-01 0.  0.
         14    1    1    2    0    0  0.34417408022E-02 -0.13368059401E-01  0.18294522310E-01  0.22918118127E-01  0.00000000000E+00 0.  1.
     999901    1    3    3    0    0 -0.10737486795E+00 -0.21978048751E-01 -0.85131986610E-01  0.89087589037E+00  0.88000000000E+00 0. -1.
        -11    1    4    4    0    0  0.34322248212E-01  0.12998160914E-01  0.33835625495E-01  0.49920732998E-01  0.51100000000E-03 0.  1.
         11    1    4    4    0    0  0.69610878935E-01  0.22347947239E-01  0.33001838805E-01  0.80215258507E-01  0.51100000000E-03 0. -1.
</event>
<event>
 8    1  0.1116841E+005  0.1043930E+01  0.7957747E-01            NaN
         13   -1    0    0    0    0  0.00000000000E+00  0.00000000000E+00  0.74505805969E-08  0.10566000000E+00  0.10566000000E+00 0.  1.
     999900   -1    0    0    0    0 -0.00000000000E+00 -0.00000000000E+00 -0.74505805969E-08  0.93827000000E+00  0.93827000000E+00 0.  1.
     999902    2    1    2    0    0  0.37242484267E-02  0.47542463446E-02  0.20144133340E-01  0.10229000453E+01  0.10226838435E+01 0.  0.
     999903    2    3    3    0    0  0.12259787818E+00 -0.41282559445E-01  0.26545569503E-01  0.13369179880E+00  0.20840833892E-01 0.  0.
         14    1    1    2    0    0 -0.37242484267E-02 -0.47542463446E-02 -0.20144133340E-01  0.21029954652E-01  0.00000000000E+00 0. -1.
     999901    1    3    3    0    0 -0.11887362976E+00  0.46036805789E-01 -0.64014361627E-02  0.88920824655E+00  0.88000000000E+00 0. -1.
        -11    1    4    4    0    0  0.41336327643E-01 -0.18816075375E-01  0.40939657223E-03  0.45422080557E-01  0.51100000000E-03 0.  1.
         11    1    4    4    0    0  0.81261550540E-01 -0.22466484070E-01  0.26136172931E-01  0.88269718246E-01  0.51100000000E-03 0. -1.
</event>
<event>
 8    1  0.1116841E+005  0.1043930E+01  0.7957747E-01            NaN
         13   -1    0    0    0    0  0.00000000000E+00  0.00000000000E+00  0.74505805969E-08  0.10566000000E+00  0.10566000000E+00 0. -1.
     999900   -1    0    0    0    0 -0.00000000000E+00 -0.00000000000E+00 -0.74505805969E-08  0.93827000000E+00  0.93827000000E+00 0. -1.
     999902    2    1    2    0    0  0.78323413651E-02 -0.14021473101E-01  0.17552936100E-01  0.10201381349E+01  0.10198606579E+01 0.  0.
     999903    2    3    3    0    0  0.12341491577E+00 -0.66279003615E-02  0.42567794865E-01  0.13219684203E+00  0.19718452942E-01 0.  0.
         14    1    1    2    0    0 -0.78323413651E-02  0.14021473101E-01 -0.17552936100E-01  0.23791865099E-01  0.00000000000E+00 0.  1.
     999901    1    3    3    0    0 -0.11558257440E+00 -0.73935727396E-02 -0.25014858765E-01  0.88794129287E+00  0.88000000000E+00 0. -1.
        -11    1    4    4    0    0  0.86582654398E-01  0.43354493850E-02  0.28142005433E-01  0.91145958521E-01  0.51100000000E-03 0.  1.
         11    1    4    4    0    0  0.36832261369E-01 -0.10963349746E-01  0.14425789432E-01  0.41050883510E-01  0.51100000000E-03 0. -1.
</event>
<event>
 7    1  0.1116841E+005  0.1043930E+01  0.7957747E-01            NaN
         13   -1    0    0    0    0  0.00000000000E+00  0.00000000000E+00  0.74505805969E-08  0.10566000000E+00  0.10566000000E+00 0.  1.
     999900   -1    0    0    0    0 -0.00000000000E+00 -0.00000000000E+00 -0.74505805969E-08  0.93827000000E+00  0.93827000000E+00 0. -1.
     999902    2    1    2    0    0  0.15738852485E-01  0.13206385469E-01  0.17922230469E-01  0.10166659864E+01  0.10163003500E+01 0.  0.
         14    1    1    2    0    0 -0.15738852485E-01 -0.13206385469E-01 -0.17922230469E-01  0.27264013638E-01  0.00000000000E+00 0. -1.
     999901    1    3    3    0    0 -0.31530435834E-01  0.11429079098E+00 -0.34221395693E-01  0.88860995786E+00  0.88000000000E+00 0.  1.
        -11    1    3    3    0    0  0.17041380176E-01 -0.33237458061E-01  0.36340795952E-01  0.52115754126E-01  0.51100000000E-03 0.  1.
         11    1    3    3    0    0  0.30227908143E-01 -0.67846947446E-01  0.15802830210E-01  0.75940274375E-01  0.51100000000E-03 0. -1.
</event>
<event>
 8    1  0.1116841E+005  0.1043930E+01  0.7957747E-01            NaN
         13   -1    0    0    0    0  0.00000000000E+00  0.00000000000E+00  0.74505805969E-08  0.10566000000E+00  0.10566000000E+00 0.  1.
     999900   -1    0    0    0    0 -0.00000000000E+00 -0.00000000000E+00 -0.74505805969E-08  0.93827000000E+00  0.93827000000E+00 0. -1.
     999902    2    1    2    0    0  0.93560976868E-02 -0.37753643480E-02  0.21727502984E-01  0.10199743258E+01  0.10196929690E+01 0.  0.
     999903    2    3    3    0    0 -0.72699389481E-01 -0.44157600277E-01  0.98842062108E-01  0.13188059023E+00  0.19688624744E-01 0.  0.
         14    1    1    2    0    0 -0.93560976868E-02  0.37753643480E-02 -0.21727502984E-01  0.23955674188E-01  0.00000000000E+00 0. -1.
     999901    1    3    3    0    0  0.82055487168E-01  0.40382235929E-01 -0.77114559124E-01  0.88809373558E+00  0.88000000000E+00 0. -1.
        -11    1    4    4    0    0 -0.45414544889E-01 -0.31715278328E-01  0.50322515951E-01  0.74839538344E-01  0.51100000000E-03 0.  1.
         11    1    4    4    0    0 -0.27284844592E-01 -0.12442321949E-01  0.48519546157E-01  0.57041051885E-01  0.51100000000E-03 0. -1.
</event>
<event>
 8    1  0.1116841E+005  0.1043930E+01  0.7957747E-01            NaN
         13   -1    0    0    0    0  0.00000000000E+00  0.00000000000E+00  0.74505805969E-08  0.10566000000E+00  0.10566000000E+00 0.  1.
     999900   -1    0    0    0    0 -0.00000000000E+00 -0.00000000000E+00 -0.74505805969E-08  0.93827000000E+00  0.93827000000E+00 0. -1.
     999902    2    1    2    0    0  0.64079932874E-02  0.20996473921E-01 -0.20020198229E-01  0.10142193515E+01  0.10137840847E+01 0.  0.
     999903    2    3    3    0    0  0.46543963771E-01  0.11758614454E+00 -0.33469739773E-02  0.12786814744E+00  0.18606959540E-01 0.  0.
         14    1    1    2    0    0 -0.64079932874E-02 -0.20996473921E-01  0.20020198229E-01  0.29710648465E-01  0.00000000000E+00 0.  1.
     999901    1    3    3    0    0 -0.40135970484E-01 -0.96589670619E-01 -0.16673224252E-01  0.88635120410E+00  0.88000000000E+00 0. -1.
        -11    1    4    4    0    0  0.35588340166E-01  0.10538380993E+00 -0.60361360594E-03  0.11123355079E+00  0.51100000000E-03 0.  1.
         11    1    4    4    0    0  0.10955623605E-01  0.12202334609E-01 -0.27433603713E-02  0.16634596647E-01  0.51100000000E-03 0. -1.
</event>
<event>
 8    1  0.1116841E+005  0.1043930E+01  0.7957747E-01            NaN
         13   -1    0    0    0    0  0.00000000000E+00  0.00000000000E+00  0.74505805969E-08  0.10566000000E+00  0.10566000000E+00 0.  1.
     999900   -1    0    0    0    0 -0.00000000000E+00 -0.00000000000E+00 -0.74505805969E-08  0.93827000000E+00  0.93827000000E+00 0. -1.
     999902    2    1    2    0    0 -0.87868490269E-02  0.18036227165E-01  0.12689432962E-01  0.10201910886E+01  0.10199148598E+01 0.  0.
     999903    2    3    3    0    0  0.75297523805E-01 -0.14610358389E-01 -0.10090256669E+00  0.12831714924E+00  0.20019569423E-01 0.  0.
         14    1    1    2    0    0  0.87868490269E-02 -0.18036227165E-01 -0.12689432962E-01  0.23738911413E-01  0.00000000000E+00 0. -1.
     999901    1    3    3    0    0 -0.84084372832E-01  0.32646585554E-01  0.11359199966E+00  0.89187393935E+00  0.88000000000E+00 0.  1.
        -11    1    4    4    0    0  0.22880691704E-01 -0.12629751883E-01 -0.25965326646E-01  0.36844212494E-01  0.51100000000E-03 0.  1.
         11    1    4    4    0    0  0.52416832101E-01 -0.19806065059E-02 -0.74937240049E-01  0.91472936745E-01  0.51100000000E-03 0. -1.
</event>
<event>
 8    1  0.1116841E+005  0.1043930E+01  0.7957747E-01            NaN
         13   -1    0    0    0    0  0.00000000000E+00  0.00000000000E+00  0.74505805969E-08  0.10566000000E+00  0.10566000000E+00 0. -1.
     999900   -1    0    0    0    0 -0.00000000000E+00 -0.00000000000E+00 -0.74505805969E-08  0.93827000000E+00  0.93827000000E+00 0. -1.
     999902    2    1    2    0    0 -0.91649740158E-02 -0.20555491862E-01  0.72910126628E-02  0.10202723615E+01  0.10199980430E+01 0.  0.
     999903    2    3    3    0    0  0.10629439152E-01 -0.98010829904E-02 -0.12734713338E+00  0.12974728802E+00  0.20199509004E-01 0.  0.
         14    1    1    2    0    0  0.91649740158E-02  0.20555491862E-01 -0.72910126628E-02  0.23657638514E-01  0.00000000000E+00 0.  1.
     999901    1    3    3    0    0 -0.19794413167E-01 -0.10754408872E-01  0.13463814604E+00  0.89052507347E+00  0.88000000000E+00 0.  1.
        -11    1    4    4    0    0  0.12954247867E-01  0.13816882206E-02 -0.78853659365E-01  0.79924228594E-01  0.51100000000E-03 0.  1.
         11    1    4    4    0    0 -0.23248087150E-02 -0.11182771211E-01 -0.48493474015E-01  0.49823059426E-01  0.51100000000E-03 0. -1.
</event>
<event>
 8    1  0.1116841E+005  0.1043930E+01  0.7957747E-01            NaN
         13   -1    0    0    0    0  0.00000000000E+00  0.00000000000E+00  0.74505805969E-08  0.10566000000E+00  0.10566000000E+00 0. -1.
     999900   -1    0    0    0    0 -0.00000000000E+00 -0.00000000000E+00 -0.74505805969E-08  0.93827000000E+00  0.93827000000E+00 0.  1.
     999902    2    1    2    0    0  0.79425538179E-02 -0.18439645551E-01 -0.10699856856E-01  0.10211793599E+01  0.10209259001E+01 0.  0.
     999903    2    3    3    0    0  0.34560538553E-01 -0.79299251793E-01  0.97834713112E-01  0.13202686359E+00  0.19407716476E-01 0.  0.
         14    1    1    2    0    0 -0.79425538179E-02  0.18439645551E-01  0.10699856856E-01  0.22750640122E-01  0.00000000000E+00 0. -1.
     999901    1    3    3    0    0 -0.26617984735E-01  0.60859606242E-01 -0.10853456997E+00  0.88915249629E+00  0.88000000000E+00 0.  1.
        -11    1    4    4    0    0  0.15595942335E-01 -0.54964026104E-01  0.70994489565E-01  0.91130435379E-01  0.51100000000E-03 0. -1.
         11    1    4    4    0    0  0.18964596218E-01 -0.24335225690E-01  0.26840223547E-01  0.40896428207E-01  0.51100000000E-03 0.  1.
</event>
<event>
 8    1  0.1116841E+005  0.1043930E+01  0.7957747E-01            NaN
         13   -1    0    0    0    0  0.00000000000E+00  0.00000000000E+00  0.74505805969E-08  0.10566000000E+00  0.10566000000E+00 0.  1.
     999900   -1    0    0    0    0 -0.00000000000E+00 -0.00000000000E+00 -0.74505805969E-08  0.93827000000E+00  0.93827000000E+00 0. -1.
     999902    2    1    2    0    0 -0.10282417117E-01 -0.93267707928E-02  0.19289929977E-01  0.10201640968E+01  0.10198872321E+01 0.  0.
     999903    2    3    3    0    0  0.10019474435E+00  0.65351141896E-01  0.45826320773E-01  0.12972253564E+00  0.20448130373E-01 0.  0.
         14    1    1    2    0    0  0.10282417117E-01  0.93267707928E-02 -0.19289929977E-01  0.23765903174E-01  0.00000000000E+00 0. -1.
     999901    1    3    3    0    0 -0.11047716146E+00 -0.74677912689E-01 -0.26536390796E-01  0.89044156118E+00  0.88000000000E+00 0.  1.
        -11    1    4    4    0    0  0.68153878404E-01  0.53229832884E-01  0.38626195953E-01  0.94713306273E-01  0.51100000000E-03 0. -1.
         11    1    4    4    0    0  0.32040865943E-01  0.12121309012E-01  0.72001248196E-02  0.35009229368E-01  0.51100000000E-03 0.  1.
</event>
<event>
 8    1  0.1116841E+005  0.1043930E+01  0.7957747E-01            NaN
         13   -1    0    0    0    0  0.00000000000E+00  0.00000000000E+00  0.74505805969E-08  0.10566000000E+00  0.10566000000E+00 0. -1.
     999900   -1    0    0    0    0 -0.00000000000E+00 -0.00000000000E+00 -0.74505805969E-08  0.93827000000E+00  0.93827000000E+00 0.  1.
     999902    2    1    2    0    0  0.13405257178E-01 -0.19409613694E-01  0.32010605858E-02  0.10201249414E+01  0.10198471529E+01 0.  0.
     999903    2    3    3    0    0 -0.95086942944E-01  0.77147167936E-02 -0.84590281330E-01  0.12871392149E+00  0.17627090397E-01 0.  0.
         14    1    1    2    0    0 -0.13405257178E-01  0.19409613694E-01 -0.32010605858E-02  0.23805058551E-01  0.00000000000E+00 0.  1.
     999901    1    3    3    0    0  0.10849220012E+00 -0.27124330487E-01  0.87791341916E-01  0.89141101996E+00  0.88000000000E+00 0. -1.
        -11    1    4    4    0    0 -0.54665590856E-01 -0.35614568923E-02 -0.43177602173E-01  0.69753689861E-01  0.51100000000E-03 0.  1.
         11    1    4    4    0    0 -0.40421352088E-01  0.11276173686E-01 -0.41412679157E-01  0.58960231628E-01  0.51100000000E-03 0. -1.
</event>
<event>
 8    1  0.1116841E+005  0.1043930E+01  0.7957747E-01            NaN
         13   -1    0    0    0    0  0.00000000000E+00  0.00000000000E+00  0.74505805969E-08  0.10566000000E+00  0.10566000000E+00 0. -1.
     999900   -1    0    0    0    0 -0.00000000000E+00 -0.00000000000E+00 -0.74505805969E-08  0.93827000000E+00  0.93827000000E+00 0.  1.
     999902    2    1    2    0    0 -0.17237854832E-01 -0.12760554445E-01  0.11292500683E-01  0.10196916840E+01  0.10194035680E+01 0.  0.
     999903    2    3    3    0    0  0.11572208969E+00  0.49606234685E-01  0.29490952214E-02  0.12748230522E+00  0.19765131407E-01 0.  0.
         14    1    1    2    0    0  0.17237854832E-01  0.12760554445E-01 -0.11292500683E-01  0.24238315961E-01  0.00000000000E+00 0. -1.
     999901    1    3    3    0    0 -0.13295994452E+00 -0.62366789131E-01  0.83434054621E-02  0.89220937882E+00  0.88000000000E+00 0. -1.
        -11    1    4    4    0    0  0.38967598497E-01  0.68381083461E-02  0.18136953358E-02  0.39607878890E-01  0.51100000000E-03 0.  1.
         11    1    4    4    0    0  0.76754491195E-01  0.42768126339E-01  0.11353998855E-02  0.87874426332E-01  0.51100000000E-03 0. -1.
</event>
<event>
 8    1  0.1116841E+005  0.1043930E+01  0.7957747E-01            NaN
         13   -1    0    0    0    0  0.00000000000E+00  0.00000000000E+00  0.74505805969E-08  0.10566000000E+00  0.10566000000E+00 0.  1.
     999900   -1    0    0    0    0 -0.00000000000E+00 -0.00000000000E+00 -0.74505805969E-08  0.93827000000E+00  0.93827000000E+00 0.  1.
     999902    2    1    2    0    0  0.79519248178E-02 -0.10959426656E-01 -0.19482829112E-01  0.10202040064E+01  0.10199280818E+01 0.  0.
     999903    2    3    3    0    0  0.28625652014E-01  0.12448711130E+00  0.24956231510E-02  0.12933015452E+00  0.20089596844E-01 0.  0.
         14    1    1    2    0    0 -0.79519248178E-02  0.10959426656E-01  0.19482829112E-01  0.23725993575E-01  0.00000000000E+00 0.  1.
     999901    1    3    3    0    0 -0.20673727196E-01 -0.13544653795E+00 -0.21978452263E-01  0.89087385190E+00  0.88000000000E+00 0.  1.
        -11    1    4    4    0    0 -0.15252856554E-02  0.20088779741E-01 -0.36895384661E-02  0.20488030235E-01  0.51100000000E-03 0. -1.
         11    1    4    4    0    0  0.30150937669E-01  0.10439833156E+00  0.61851616171E-02  0.10884212429E+00  0.51100000000E-03 0.  1.
</event>
<event>
 8    1  0.1116841E+005  0.1043930E+01  0.7957747E-01            NaN
         13   -1    0    0    0    0  0.00000000000E+00  0.00000000000E+00  0.74505805969E-08  0.10566000000E+00  0.10566000000E+00 0. -1.
     999900   -1    0    0    0    0 -0.00000000000E+00 -0.00000000000E+00 -0.74505805969E-08  0.93827000000E+00  0.93827000000E+00 0.  1.
     999902    2    1    2    0    0  0.39641943736E-02 -0.22385141317E-01 -0.71847775926E-02  0.10200882212E+01  0.10198095648E+01 0.  0.
     999903    2    3    3    0    0  0.14957489240E-01 -0.56044779881E-01  0.11551632724E+00  0.13086980878E+00  0.20448500084E-01 0.  0.
         14    1    1    2    0    0 -0.39641943736E-02  0.22385141317E-01  0.71847775926E-02  0.23841778832E-01  0.00000000000E+00 0.  1.
     999901    1    3    3    0    0 -0.10993294866E-01  0.33659638564E-01 -0.12270110483E+00  0.88921841239E+00  0.88000000000E+00 0.  1.
        -11    1    4    4    0    0 -0.24068080134E-02 -0.15922456515E-01  0.18993647734E-01  0.24906567839E-01  0.51100000000E-03 0. -1.
         11    1    4    4    0    0  0.17364297253E-01 -0.40122323366E-01  0.96522679504E-01  0.10596324094E+00  0.51100000000E-03 0.  1.
</event>
<event>
 8    1  0.1116841E+005  0.1043930E+01  0.7957747E-01            NaN
         13   -1    0    0    0    0  0.00000000000E+00  0.00000000000E+00  0.74505805969E-08  0.10566000000E+00  0.10566000000E+00 0.  1.
     999900   -1    0    0    0    0 -0.00000000000E+00 -0.00000000000E+00 -0.74505805969E-08  0.93827000000E+00  0.93827000000E+00 0. -1.
     999902    2    1    2    0    0  0.30921341964E-02 -0.19835755247E-01  0.13660914056E-01  0.10196475155E+01  0.10193583358E+01 0.  0.
     999903    2    3    3    0    0  0.96320672534E-01 -0.85180500049E-01 -0.20595340386E-01  0.13165259041E+00  0.19360965121E-01 0.  0.
         14    1    1    2    0    0 -0.30921341964E-02  0.19835755247E-01 -0.13660914056E-01  0.24282484489E-01  0.00000000000E+00 0. -1.
     999901    1    3    3    0    0 -0.93228538338E-01  0.65344744802E-01  0.34256254442E-01  0.88799492510E+00  0.88000000000E+00 0. -1.
        -11    1    4    4    0    0  0.14767689234E-01 -0.19377235190E-01 -0.99513516166E-02  0.26322089752E-01  0.51100000000E-03 0.  1.
         11    1    4    4    0    0  0.81552983300E-01 -0.65803264860E-01 -0.10643988769E-01  0.10533050066E+00  0.51100000000E-03 0. -1.
</event>
<event>
 7    1  0.1584277E+005  0.1043930E+01  0.7957747E-01            NaN
         13   -1    0    0    0    0  0.00000000000E+00  0.00000000000E+00  0.74505805969E-08  0.10566000000E+00  0.10566000000E+00 0.  1.
     999900   -1    0    0    0    0 -0.00000000000E+00 -0.00000000000E+00 -0.74505805969E-08  0.93827000000E+00  0.93827000000E+00 0.  1.
     999903    2    1    2    0    0  0.70125087509E-01 -0.61495748024E-01  0.41918236229E-01  0.10424055345E+00  0.20241035836E-01 0.  0.
         14    1    1    2    0    0  0.23881334581E-01  0.44595232767E-01 -0.19565726453E-01  0.54239013436E-01  0.00000000000E+00 0. -1.
     999901    1    1    2    0    0 -0.94006422090E-01  0.16900515257E-01 -0.22352509776E-01  0.88545043311E+00  0.88000000000E+00 0.  1.
        -11    1    3    3    0    0  0.49920597326E-01 -0.54842349170E-01  0.32388500727E-01  0.80926048959E-01  0.51100000000E-03 0.  1.
         11    1    3    3    0    0  0.20204490183E-01 -0.66533988540E-02  0.95297355020E-02  0.23314504490E-01  0.51100000000E-03 0. -1.
</event>
<event>
 8    1  0.1116841E+005  0.1043930E+01  0.7957747E-01            NaN
         13   -1    0    0    0    0  0.00000000000E+00  0.00000000000E+00  0.74505805969E-08  0.10566000000E+00  0.10566000000E+00 0. -1.
     999900   -1    0    0    0    0 -0.00000000000E+00 -0.00000000000E+00 -0.74505805969E-08  0.93827000000E+00  0.93827000000E+00 0. -1.
     999902    2    1    2    0    0  0.21064284069E-01  0.31839284288E-02 -0.84012726729E-02  0.10210297195E+01  0.10207728765E+01 0.  0.
     999903    2    3    3    0    0 -0.24750695309E-01 -0.10003289260E+00  0.76248315218E-01  0.12978436766E+00  0.20273134814E-01 0.  0.
         14    1    1    2    0    0 -0.21064284069E-01 -0.31839284288E-02  0.84012726729E-02  0.22900280480E-01  0.00000000000E+00 0. -1.
     999901    1    3    3    0    0  0.45814979378E-01  0.10321682103E+00 -0.84649587891E-01  0.89124535186E+00  0.88000000000E+00 0. -1.
        -11    1    4    4    0    0 -0.12774694158E-01 -0.71902038158E-01  0.43610702626E-01  0.85060275138E-01  0.51100000000E-03 0. -1.
         11    1    4    4    0    0 -0.11976001151E-01 -0.28130854443E-01  0.32637612592E-01  0.44724092523E-01  0.51100000000E-03 0.  1.
</event>
<event>
 7    1  0.1116841E+005  0.1043930E+01  0.7957747E-01            NaN
         13   -1    0    0    0    0  0.00000000000E+00  0.00000000000E+00  0.74505805969E-08  0.10566000000E+00  0.10566000000E+00 0. -1.
     999900   -1    0    0    0    0 -0.00000000000E+00 -0.00000000000E+00 -0.74505805969E-08  0.93827000000E+00  0.93827000000E+00 0.  1.
     999902    2    1    2    0    0 -0.18486343166E-02 -0.20377639942E-01 -0.10328586019E-01  0.10210095867E+01  0.10207522867E+01 0.  0.
         14    1    1    2    0    0  0.18486343166E-02  0.20377639942E-01  0.10328586019E-01  0.22920413338E-01  0.00000000000E+00 0. -1.
     999901    1    3    3    0    0 -0.85536693841E-01 -0.83301307399E-01 -0.63415908131E-01  0.89032421691E+00  0.88000000000E+00 0. -1.
        -11    1    3    3    0    0  0.36366653383E-01  0.10055471758E-01 -0.61758700920E-02  0.38236742578E-01  0.51100000000E-03 0. -1.
         11    1    3    3    0    0  0.47321406142E-01  0.52868195698E-01  0.59263192204E-01  0.92448627177E-01  0.51100000000E-03 0.  1.
</event>
<event>
 8    1  0.1116841E+005  0.1043930E+01  0.7957747E-01            NaN
         13   -1    0    0    0    0  0.00000000000E+00  0.00000000000E+00  0.74505805969E-08  0.10566000000E+00  0.10566000000E+00 0.  1.
     999900   -1    0    0    0    0 -0.00000000000E+00 -0.00000000000E+00 -0.74505805969E-08  0.93827000000E+00  0.93827000000E+00 0. -1.
     999902    2    1    2    0    0  0.57920059518E-02 -0.20539269464E-01 -0.88463204186E-02  0.10208287812E+01  0.10205673590E+01 0.  0.
     999903    2    3    3    0    0  0.29635473675E-01  0.11792380783E-01  0.12419425199E+00  0.12992270288E+00  0.20937405557E-01 0.  0.
         14    1    1    2    0    0 -0.57920059518E-02  0.20539269464E-01  0.88463204186E-02  0.23101218756E-01  0.00000000000E+00 0. -1.
     999901    1    3    3    0    0 -0.23843467723E-01 -0.32331650247E-01 -0.13304057241E+00  0.89090607837E+00  0.88000000000E+00 0. -1.
        -11    1    4    4    0    0  0.90793858058E-02 -0.42902965532E-02  0.18538505186E-01  0.21089788682E-01  0.51100000000E-03 0.  1.
         11    1    4    4    0    0  0.20556087869E-01  0.16082677336E-01  0.10565574680E+00  0.10883291420E+00  0.51100000000E-03 0. -1.
</event>
<event>
 8    1  0.1116841E+005  0.1043930E+01  0.7957747E-01            NaN
         13   -1    0    0    0    0  0.00000000000E+00  0.00000000000E+00  0.74505805969E-08  0.10566000000E+00  0.10566000000E+00 0.  1.
     999900   -1    0    0    0    0 -0.00000000000E+00 -0.00000000000E+00 -0.74505805969E-08  0.93827000000E+00  0.93827000000E+00 0.  1.
     999902    2    1    2    0    0  0.18414401868E-01 -0.14661090919E-01  0.39741042057E-02  0.10200588608E+01  0.10197795096E+01 0.  0.
     999903    2    3    3    0    0  0.11568787874E+00  0.40561185327E-01  0.44562106928E-01  0.13205040640E+00  0.20558049890E-01 0.  0.
         14    1    1    2    0    0 -0.18414401868E-01  0.14661090919E-01 -0.39741042057E-02  0.23871139213E-01  0.00000000000E+00 0. -1.
     999901    1    3    3    0    0 -0.97273476868E-01 -0.55222276245E-01 -0.40588002723E-01  0.88800845439E+00  0.88000000000E+00 0.  1.
        -11    1    4    4    0    0  0.74695728606E-01  0.22648151522E-01  0.38067272143E-01  0.86843358806E-01  0.51100000000E-03 0.  1.
         11    1    4    4    0    0  0.40992150130E-01  0.17913033805E-01  0.64948347857E-02  0.45207047595E-01  0.51100000000E-03 0. -1.
</event>
<event>
 8    1  0.1116841E+005  0.1043930E+01  0.7957747E-01            NaN
         13   -1    0    0    0    0  0.00000000000E+00  0.00000000000E+00  0.74505805969E-08  0.10566000000E+00  0.10566000000E+00 0.  1.
     999900   -1    0    0    0    0 -0.00000000000E+00 -0.00000000000E+00 -0.74505805969E-08  0.93827000000E+00  0.93827000000E+00 0. -1.
     999902    2    1    2    0    0 -0.73960704934E-02  0.80479346011E-02 -0.21510714305E-01  0.10198015533E+01  0.10195160745E+01 0.  0.
     999903    2    3    3    0    0 -0.15377430419E-01 -0.10440927489E+00 -0.75023252190E-01  0.13099678409E+00  0.19847091002E-01 0.  0.
         14    1    1    2    0    0  0.73960704934E-02 -0.80479346011E-02  0.21510714305E-01  0.24128446697E-01  0.00000000000E+00 0.  1.
     999901    1    3    3    0    0  0.79813599254E-02  0.11245720950E+00  0.53512537884E-01  0.88880476922E+00  0.88000000000E+00 0.  1.
        -11    1    4    4    0    0 -0.16252200909E-01 -0.56143867902E-01 -0.48253919898E-01  0.75795579316E-01  0.51100000000E-03 0. -1.
         11    1    4    4    0    0  0.87477049066E-03 -0.48265406993E-01 -0.26769332292E-01  0.55201204769E-01  0.51100000000E-03 0.  1.
</event>
<event>
 8    1  0.1116841E+005  0.1043930E+01  0.7957747E-01            NaN
         13   -1    0    0    0    0  0.00000000000E+00  0.00000000000E+00  0.74505805969E-08  0.10566000000E+00  0.10566000000E+00 0. -1.
     999900   -1    0    0    0    0 -0.00000000000E+00 -0.00000000000E+00 -0.74505805969E-08  0.93827000000E+00  0.93827000000E+00 0. -1.
     999902    2    1    2    0    0 -0.80298649028E-02  0.11311936193E-01 -0.28525763199E-01  0.10122100095E+01  0.10117128770E+01 0.  0.
     999903    2    3    3    0    0  0.99186165911E-01  0.69982899864E-01  0.50190293760E-02  0.12313025361E+00  0.20009170797E-01 0.  0.
         14    1    1    2    0    0  0.80298649028E-02 -0.11311936193E-01  0.28525763199E-01  0.31719990493E-01  0.00000000000E+00 0. -1.
     999901    1    3    3    0    0 -0.10721603081E+00 -0.58670963671E-01 -0.33544792575E-01  0.88907975590E+00  0.88000000000E+00 0.  1.
        -11    1    4    4    0    0  0.31728225539E-01  0.23546278940E-01  0.10994125508E-01  0.41015112635E-01  0.51100000000E-03 0. -1.
         11    1    4    4    0    0  0.67457940372E-01  0.46436620924E-01 -0.59750961322E-02  0.82115140973E-01  0.51100000000E-03 0.  1.
</event>
<event>
 8    1  0.1116841E+005  0.1043930E+01  0.7957747E-01            NaN
         13   -1    0    0    0    0  0.00000000000E+00  0.00000000000E+00  0.74505805969E-08  0.10566000000E+00  0.10566000000E+00 0.  1.
     999900   -1    0    0    0    0 -0.00000000000E+00 -0.00000000000E+00 -0.74505805969E-08  0.93827000000E+00  0.93827000000E+00 0.  1.
     999902    2    1    2    0    0 -0.20893903553E-01  0.12721236031E-01 -0.17452617966E-02  0.10194059100E+01  0.10191108764E+01 0.  0.
     999903    2    3    3    0    0  0.25792168283E-01 -0.37898828151E-01  0.11856864259E+00  0.12855383710E+00  0.19131359256E-01 0.  0.
         14    1    1    2    0    0  0.20893903553E-01 -0.12721236031E-01  0.17452617966E-02  0.24524090005E-01  0.00000000000E+00 0. -1.
     999901    1    3    3    0    0 -0.46686071836E-01  0.50620064182E-01 -0.12031390438E+00  0.89085207290E+00  0.88000000000E+00 0.  1.
        -11    1    4    4    0    0 -0.13482611203E-02 -0.85415508796E-02  0.12578910359E-01  0.15273048363E-01  0.51100000000E-03 0. -1.
         11    1    4    4    0    0  0.27140429403E-01 -0.29357277272E-01  0.10598973223E+00  0.11328078873E+00  0.51100000000E-03 0.  1.
</event>
<event>
 8    1  0.1116841E+005  0.1043930E+01  0.7957747E-01            NaN
         13   -1    0    0    0    0  0.00000000000E+00  0.00000000000E+00  0.74505805969E-08  0.10566000000E+00  0.10566000000E+00 0. -1.
     999900   -1    0    0    0    0 -0.00000000000E+00 -0.00000000000E+00 -0.74505805969E-08  0.93827000000E+00  0.93827000000E+00 0.  1.
     999902    2    1    2    0    0 -0.17739628307E-01  0.11048576337E-01 -0.12680069735E-01  0.10194851719E+01  0.10191920654E+01 0.  0.
     999903    2    3    3    0    0  0.59036111175E-01 -0.10791317175E+00  0.30989369302E-01  0.12709880291E+00  0.79529636721E-02 0.  0.
         14    1    1    2    0    0  0.17739628307E-01 -0.11048576337E-01  0.12680069735E-01  0.24444828084E-01  0.00000000000E+00 0.  1.
     999901    1    3    3    0    0 -0.76775739482E-01  0.11896174809E+00 -0.43669439037E-01  0.89238636901E+00  0.88000000000E+00 0.  1.
        -11    1    4    4    0    0  0.40424120945E-01 -0.72255948378E-01  0.24560230106E-01  0.86362594067E-01  0.51100000000E-03 0. -1.
         11    1    4    4    0    0  0.18611990229E-01 -0.35657223375E-01  0.64291391958E-02  0.40736208843E-01  0.51100000000E-03 0.  1.
</event>
<event>
 8    1  0.1116841E+005  0.1043930E+01  0.7957747E-01            NaN
         13   -1    0    0    0    0  0.00000000000E+00  0.00000000000E+00  0.74505805969E-08  0.10566000000E+00  0.10566000000E+00 0.  1.
     999900   -1    0    0    0    0 -0.00000000000E+00 -0.00000000000E+00 -0.74505805969E-08  0.93827000000E+00  0.93827000000E+00 0.  1.
     999902    2    1    2    0    0 -0.22406828151E-01  0.26940605480E-02  0.31963060394E-02  0.10211365737E+01  0.10208821489E+01 0.  0.
     999903    2    3    3    0    0 -0.44449113723E-01 -0.58677629691E-01  0.10837220419E+00  0.13247785616E+00  0.19673835266E-01 0.  0.
         14    1    1    2    0    0  0.22406828151E-01 -0.26940605480E-02 -0.31963060394E-02  0.22793426296E-01  0.00000000000E+00 0. -1.
     999901    1    3    3    0    0  0.22042285572E-01  0.61371690239E-01 -0.10517589815E+00  0.88865871754E+00  0.88000000000E+00 0. -1.
        -11    1    4    4    0    0 -0.22849858942E-01 -0.44861322650E-01  0.76276344646E-01  0.91394727403E-01  0.51100000000E-03 0.  1.
         11    1    4    4    0    0 -0.21599254781E-01 -0.13816307041E-01  0.32095859547E-01  0.41083128756E-01  0.51100000000E-03 0. -1.
</event>
<event>
 8    1  0.1116841E+005  0.1043930E+01  0.7957747E-01            NaN
         13   -1    0    0    0    0  0.00000000000E+00  0.00000000000E+00  0.74505805969E-08  0.10566000000E+00  0.10566000000E+00 0. -1.
     999900   -1    0    0    0    0 -0.00000000000E+00 -0.00000000000E+00 -0.74505805969E-08  0.93827000000E+00  0.93827000000E+00 0. -1.
     999902    2    1    2    0    0 -0.72129455809E-02  0.17495768891E-01  0.15110354924E-01  0.10197132426E+01  0.10194256451E+01 0.  0.
     999903    2    3    3    0    0  0.12327987171E+00 -0.31000112898E-01  0.49249805078E-02  0.12871157719E+00  0.19582668351E-01 0.  0.
         14    1    1    2    0    0  0.72129455809E-02 -0.17495768891E-01 -0.15110354924E-01  0.24216757400E-01  0.00000000000E+00 0.  1.
     999901    1    3    3    0    0 -0.13049281729E+00  0.48495881789E-01  0.10185374416E-01  0.89100166541E+00  0.88000000000E+00 0.  1.
        -11    1    4    4    0    0  0.60848113240E-01 -0.22036121986E-01  0.97742791141E-02  0.65451365228E-01  0.51100000000E-03 0.  1.
         11    1    4    4    0    0  0.62431758474E-01 -0.89639909117E-02 -0.48492986063E-02  0.63260211960E-01  0.51100000000E-03 0. -1.
</event>
<event>
 8    1  0.1116841E+005  0.1043930E+01  0.7957747E-01            NaN
         13   -1    0    0    0    0  0.00000000000E+00  0.00000000000E+00  0.74505805969E-08  0.10566000000E+00  0.10566000000E+00 0. -1.
     999900   -1    0    0    0    0 -0.00000000000E+00 -0.00000000000E+00 -0.74505805969E-08  0.93827000000E+00  0.93827000000E+00 0.  1.
     999902    2    1    2    0    0  0.21002861171E-01  0.91508553670E-02  0.62765041713E-02  0.10201759933E+01  0.10198994090E+01 0.  0.
     999903    2    3    3    0    0 -0.10993875072E+00  0.48618981432E-01  0.41322942951E-01  0.12892311581E+00  0.21523241182E-01 0.  0.
         14    1    1    2    0    0 -0.21002861171E-01 -0.91508553670E-02 -0.62765041713E-02  0.23754006734E-01  0.00000000000E+00 0. -1.
     999901    1    3    3    0    0  0.13094161189E+00 -0.39468126065E-01 -0.35046438780E-01  0.89125287745E+00  0.88000000000E+00 0. -1.
        -11    1    4    4    0    0 -0.67804676210E-01  0.18789851707E-01  0.26795244004E-01  0.75291293424E-01  0.51100000000E-03 0.  1.
         11    1    4    4    0    0 -0.42134074510E-01  0.29829129725E-01  0.14527698947E-01  0.53631822388E-01  0.51100000000E-03 0. -1.
</event>
<event>
 8    1  0.1116841E+005  0.1043930E+01  0.7957747E-01            NaN
         13   -1    0    0    0    0  0.00000000000E+00  0.00000000000E+00  0.74505805969E-08  0.10566000000E+00  0.10566000000E+00 0. -1.
     999900   -1    0    0    0    0 -0.00000000000E+00 -0.00000000000E+00 -0.74505805969E-08  0.93827000000E+00  0.93827000000E+00 0.  1.
     999902    2    1    2    0    0  0.21744370145E-02 -0.12283794148E-01  0.19751126702E-01  0.10205692042E+01  0.10203018052E+01 0.  0.
     999903    2    3    3    0    0  0.98894507075E-01  0.68973416791E-01 -0.41476003999E-01  0.12944280024E+00  0.22309725951E-01 0.  0.
         14    1    1    2    0    0 -0.21744370145E-02  0.12283794148E-01 -0.19751126702E-01  0.23360795813E-01  0.00000000000E+00 0.  1.
     999901    1    3    3    0    0 -0.96720070061E-01 -0.81257210940E-01  0.61227130702E-01  0.89112640395E+00  0.88000000000E+00 0. -1.
        -11    1    4    4    0    0  0.88224220737E-02  0.14112227703E-01 -0.98104501748E-02  0.19326048629E-01  0.51100000000E-03 0. -1.
         11    1    4    4    0    0  0.90072085002E-01  0.54861189089E-01 -0.31665553825E-01  0.11011675161E+00  0.51100000000E-03 0.  1.
</event>
<event>
 8    1  0.1116841E+005  0.1043930E+01  0.7957747E-01            NaN
         13   -1    0    0    0    0  0.00000000000E+00  0.00000000000E+00  0.74505805969E-08  0.10566000000E+00  0.10566000000E+00 0.  1.
     999900   -1    0    0    0    0 -0.00000000000E+00 -0.00000000000E+00 -0.74505805969E-08  0.93827000000E+00  0.93827000000E+00 0.  1.
     999902    2    1    2    0    0  0.12061541345E-01  0.15104590304E-01 -0.13002508739E-01  0.10206341922E+01  0.10203682961E+01 0.  0.
     999903    2    3    3    0    0 -0.73747593674E-01  0.54506041146E-01 -0.92807082440E-01  0.13199227783E+00  0.19979758785E-01 0.  0.
         14    1    1    2    0    0 -0.12061541345E-01 -0.15104590304E-01  0.13002508739E-01  0.23295807807E-01  0.00000000000E+00 0.  1.
     999901    1    3    3    0    0  0.85809135019E-01 -0.39401450842E-01  0.79804573701E-01  0.88864191436E+00  0.88000000000E+00 0. -1.
        -11    1    4    4    0    0 -0.33655667672E-01  0.31173168360E-01 -0.58241951879E-01  0.74140788178E-01  0.51100000000E-03 0.  1.
         11    1    4    4    0    0 -0.40091926002E-01  0.23332872787E-01 -0.34565130561E-01  0.57851489650E-01  0.51100000000E-03 0. -1.
</event>
<event>
 8    1  0.1116841E+005  0.1043930E+01  0.7957747E-01            NaN
         13   -1    0    0    0    0  0.00000000000E+00  0.00000000000E+00  0.74505805969E-08  0.10566000000E+00  0.10566000000E+00 0.  1.
     999900   -1    0    0    0    0 -0.00000000000E+00 -0.00000000000E+00 -0.74505805969E-08  0.93827000000E+00  0.93827000000E+00 0. -1.
     999902    2    1    2    0    0 -0.22124422090E-01  0.19895775021E-02 -0.72823095818E-02  0.10205530775E+01  0.10202853050E+01 0.  0.
     999903    2    3    3    0    0 -0.55888307656E-01 -0.75668513457E-01 -0.91347615010E-01  0.13250028932E+00  0.19045026689E-01 0.  0.
         14    1    1    2    0    0  0.22124422090E-01 -0.19895775021E-02  0.72823095818E-02  0.23376922473E-01  0.00000000000E+00 0.  1.
     999901    1    3    3    0    0  0.33763885566E-01  0.77658090959E-01  0.84065305428E-01  0.88805278820E+00  0.88000000000E+00 0.  1.
        -11    1    4    4    0    0 -0.18210299634E-01 -0.14035429221E-01 -0.15363193177E-01  0.27656773343E-01  0.51100000000E-03 0.  1.
         11    1    4    4    0    0 -0.37678008022E-01 -0.61633084236E-01 -0.75984421833E-01  0.10484351598E+00  0.51100000000E-03 0. -1.
</event>
<event>
 8    1  0.1116841E+005  0.1043930E+01  0.7957747E-01            NaN
         13   -1    0    0    0    0  0.00000000000E+00  0.00000000000E+00  0.74505805969E-08  0.10566000000E+00  0.10566000000E+00 0. -1.
     999900   -1    0    0    0    0 -0.00000000000E+00 -0.00000000000E+00 -0.74505805969E-08  0.93827000000E+00  0.93827000000E+00 0. -1.
     999902    2    1    2    0    0 -0.17662598667E-01 -0.15207991573E-01  0.10200505457E-01  0.10184878949E+01  0.10181700700E+01 0.  0.
     999903    2    3    3    0    0 -0.12757997049E+00 -0.16367198803E-01 -0.16514616762E-01  0.13124673822E+00  0.20209890122E-01 0.  0.
         14    1    1    2    0    0  0.17662598667E-01  0.15207991573E-01 -0.10200505457E-01  0.25442105080E-01  0.00000000000E+00 0. -1.
     999901    1    3    3    0    0  0.10991737182E+00  0.11592072304E-02  0.26715122219E-01  0.88724115670E+00  0.88000000000E+00 0.  1.
        -11    1    4    4    0    0 -0.81676959020E-02  0.14930849705E-02  0.31868900555E-02  0.89083078248E-02  0.51100000000E-03 0. -1.
         11    1    4    4    0    0 -0.11941227459E+00 -0.17860283774E-01 -0.19701506817E-01  0.12233843039E+00  0.51100000000E-03 0.  1.
</event>
<event>
 8    1  0.1116841E+005  0.1043930E+01  0.7957747E-01            NaN
         13   -1    0    0    0    0  0.00000000000E+00  0.00000000000E+00  0.74505805969E-08  0.10566000000E+00  0.10566000000E+00 0. -1.
     999900   -1    0    0    0    0 -0.00000000000E+00 -0.00000000000E+00 -0.74505805969E-08  0.93827000000E+00  0.93827000000E+00 0.  1.
     999902    2    1    2    0    0  0.24217403787E-03 -0.23211776523E-01  0.55133464532E-02  0.10200712027E+01  0.10197921437E+01 0.  0.
     999903    2    3    3    0    0 -0.12402535199E+00 -0.10843095792E-01  0.34604452385E-01  0.13077839678E+00  0.20141009820E-01 0.  0.
         14    1    1    2    0    0 -0.24217403787E-03  0.23211776523E-01 -0.55133464532E-02  0.23858797261E-01  0.00000000000E+00 0.  1.
     999901    1    3    3    0    0  0.12426752603E+00 -0.12368680730E-01 -0.29091105931E-01  0.88929280596E+00  0.88000000000E+00 0. -1.
        -11    1    4    4    0    0 -0.61891810360E-01 -0.15137798538E-01  0.14707263402E-01  0.65393530659E-01  0.51100000000E-03 0. -1.
         11    1    4    4    0    0 -0.62133541630E-01  0.42947027454E-02  0.19897188982E-01  0.65384866121E-01  0.51100000000E-03 0.  1.
</event>
<event>
 8    1  0.1116841E+005  0.1043930E+01  0.7957747E-01            NaN
         13   -1    0    0    0    0  0.00000000000E+00  0.00000000000E+00  0.74505805969E-08  0.10566000000E+00  0.10566000000E+00 0.  1.
     999900   -1    0    0    0    0 -0.00000000000E+00 -0.00000000000E+00 -0.74505805969E-08  0.93827000000E+00  0.93827000000E+00 0. -1.
     999902    2    1    2    0    0  0.14997764656E-01 -0.38160536111E-02  0.18296020468E-01  0.10199667036E+01  0.10196851656E+01 0.  0.
     999903    2    3    3    0    0  0.38445059279E-01  0.52939125237E-01  0.11378989363E+00  0.13267306236E+00  0.19324285766E-01 0.  0.
         14    1    1    2    0    0 -0.14997764656E-01  0.38160536111E-02 -0.18296020468E-01  0.23963296409E-01  0.00000000000E+00 0.  1.
     999901    1    3    3    0    0 -0.23447294623E-01 -0.56755178848E-01 -0.95493873163E-01  0.88729364123E+00  0.88000000000E+00 0. -1.
        -11    1    4    4    0    0  0.40670530367E-01  0.49414630029E-01  0.10751769858E+00  0.12512479503E+00  0.51100000000E-03 0.  1.
         11    1    4    4    0    0 -0.22254710884E-02  0.35244952083E-02  0.62721950504E-02  0.75482673368E-02  0.51100000000E-03 0. -1.
</event>
<event>
 8    1  0.1116841E+005  0.1043930E+01  0.7957747E-01            NaN
         13   -1    0    0    0    0  0.00000000000E+00  0.00000000000E+00  0.74505805969E-08  0.10566000000E+00  0.10566000000E+00 0. -1.
     999900   -1    0    0    0    0 -0.00000000000E+00 -0.00000000000E+00 -0.74505805969E-08  0.93827000000E+00  0.93827000000E+00 0. -1.
     999902    2    1    2    0    0 -0.33971076454E-01  0.13333873163E-01  0.10279607322E-01  0.10060156685E+01  0.10053009642E+01 0.  0.
     999903    2    3    3    0    0 -0.59110068814E-01  0.10256025862E+00 -0.76016169673E-02  0.12096592129E+00  0.23714186645E-01 0.  0.
         14    1    1    2    0    0  0.33971076454E-01 -0.13333873163E-01 -0.10279607322E-01  0.37914331534E-01  0.00000000000E+00 0. -1.
     999901    1    3    3    0    0  0.25138992360E-01 -0.89226385461E-01  0.17881224289E-01  0.88504974718E+00  0.88000000000E+00 0.  1.
        -11    1    4    4    0    0 -0.12199675057E-01  0.99243897489E-02  0.46510852410E-02  0.16407903532E-01  0.51100000000E-03 0. -1.
         11    1    4    4    0    0 -0.46910393757E-01  0.92635868875E-01 -0.12252702208E-01  0.10455801776E+00  0.51100000000E-03 0.  1.
</event>
<event>
 8    1  0.1116841E+005  0.1043930E+01  0.7957747E-01            NaN
         13   -1    0    0    0    0  0.00000000000E+00  0.00000000000E+00  0.74505805969E-08  0.10566000000E+00  0.10566000000E+00 0.  1.
     999900   -1    0    0    0    0 -0.00000000000E+00 -0.00000000000E+00 -0.74505805969E-08  0.93827000000E+00  0.93827000000E+00 0. -1.
     999902    2    1    2    0    0  0.21452754817E-01 -0.18461249802E-01  0.21207631311E-01  0.10085633199E+01  0.10079430382E+01 0.  0.
     999903    2    3    3    0    0 -0.26361415495E-01  0.10336819405E+00  0.48020393785E-01  0.11848044036E+00  0.18754966306E-01 0.  0.
         14    1    1    2    0    0 -0.21452754817E-01  0.18461249802E-01 -0.21207631311E-01  0.35366680072E-01  0.00000000000E+00 0. -1.
     999901    1    3    3    0    0  0.47814170312E-01 -0.12182944385E+00 -0.26812762474E-01  0.89008287957E+00  0.88000000000E+00 0. -1.
        -11    1    4    4    0    0 -0.23952013152E-01  0.69902170171E-01  0.25955979635E-01  0.78319769717E-01  0.51100000000E-03 0.  1.
         11    1    4    4    0    0 -0.24094023426E-02  0.33466023874E-01  0.22064414150E-01  0.40160670641E-01  0.51100000000E-03 0. -1.
</event>
<event>
 8    1  0.1116841E+005  0.1043930E+01  0.7957747E-01            NaN
         13   -1    0    0    0    0  0.00000000000E+00  0.00000000000E+00  0.74505805969E-08  0.10566000000E+00  0.10566000000E+00 0.  1.
     999900   -1    0    0    0    0 -0.00000000000E+00 -0.00000000000E+00 -0.74505805969E-08  0.93827000000E+00  0.93827000000E+00 0. -1.
     999902    2    1    2    0    0 -0.85682524022E-02  0.19170543839E-01  0.14449769001E-01  0.10184403840E+01  0.10181213558E+01 0.  0.
     999903    2    3    3    0    0  0.97983519861E-01 -0.52575237576E-01 -0.55645506022E-01  0.12635625964E+00  0.22462329361E-01 0.  0.
         14    1    1    2    0    0  0.85682524022E-02 -0.19170543839E-01 -0.14449769001E-01  0.25489616013E-01  0.00000000000E+00 0. -1.
     999901    1    3    3    0    0 -0.10655177226E+00  0.71745781415E-01  0.70095275023E-01  0.89208412434E+00  0.88000000000E+00 0. -1.
        -11    1    4    4    0    0  0.60594088442E-01 -0.20597518933E-01 -0.35523738927E-01  0.73199033386E-01  0.51100000000E-03 0.  1.
         11    1    4    4    0    0  0.37389431419E-01 -0.31977718643E-01 -0.20121767095E-01  0.53157226258E-01  0.51100000000E-03 0. -1.
</event>
<event>
 8    1  0.1116841E+005  0.1043930E+01  0.7957747E-01            NaN
         13   -1    0    0    0    0  0.00000000000E+00  0.00000000000E+00  0.74505805969E-08  0.10566000000E+00  0.10566000000E+00 0.  1.
     999900   -1    0    0    0    0 -0.00000000000E+00 -0.00000000000E+00 -0.74505805969E-08  0.93827000000E+00  0.93827000000E+00 0. -1.
     999902    2    1    2    0    0 -0.50733067735E-02 -0.15651667921E-01 -0.17170543667E-01  0.10201488999E+01  0.10198716769E+01 0.  0.
     999903    2    3    3    0    0  0.57111834700E-01 -0.11428603729E+00 -0.28270175332E-01  0.13238827203E+00  0.20109494652E-01 0.  0.
         14    1    1    2    0    0  0.50733067735E-02  0.15651667921E-01  0.17170543667E-01  0.23781100062E-01  0.00000000000E+00 0.  1.
     999901    1    3    3    0    0 -0.62185141473E-01  0.98634369370E-01  0.11099631664E-01  0.88776062791E+00  0.88000000000E+00 0. -1.
        -11    1    4    4    0    0  0.13769009825E-01 -0.22188321235E-01  0.19989033692E-02  0.26194731655E-01  0.51100000000E-03 0.  1.
         11    1    4    4    0    0  0.43342824875E-01 -0.92097716056E-01 -0.30269078701E-01  0.10619354037E+00  0.51100000000E-03 0. -1.
</event>
<event>
 8    1  0.1116841E+005  0.1043930E+01  0.7957747E-01            NaN
         13   -1    0    0    0    0  0.00000000000E+00  0.00000000000E+00  0.74505805969E-08  0.10566000000E+00  0.10566000000E+00 0.  1.
     999900   -1    0    0    0    0 -0.00000000000E+00 -0.00000000000E+00 -0.74505805969E-08  0.93827000000E+00  0.93827000000E+00 0.  1.
     999902    2    1    2    0    0 -0.11273269697E-01  0.28046163974E-02  0.20518565801E-01  0.10203511106E+01  0.10200786366E+01 0.  0.
     999903    2    3    3    0    0  0.65283774700E-01 -0.10660841461E+00  0.31986574148E-01  0.13020297258E+00  0.17388152290E-01 0.  0.
         14    1    1    2    0    0  0.11273269697E-01 -0.28046163974E-02 -0.20518565801E-01  0.23578889400E-01  0.00000000000E+00 0. -1.
     999901    1    3    3    0    0 -0.76557044397E-01  0.10941303100E+00 -0.11468008347E-01  0.89014813802E+00  0.88000000000E+00 0.  1.
        -11    1    4    4    0    0  0.44678475076E-01 -0.59961223645E-01  0.24309560559E-01  0.78630339765E-01  0.51100000000E-03 0. -1.
         11    1    4    4    0    0  0.20605299625E-01 -0.46647190961E-01  0.76770135897E-02  0.51572632818E-01  0.51100000000E-03 0.  1.
</event>
<event>
 8    1  0.1116841E+005  0.1043930E+01  0.7957747E-01            NaN
         13   -1    0    0    0    0  0.00000000000E+00  0.00000000000E+00  0.74505805969E-08  0.10566000000E+00  0.10566000000E+00 0. -1.
     999900   -1    0    0    0    0 -0.00000000000E+00 -0.00000000000E+00 -0.74505805969E-08  0.93827000000E+00  0.93827000000E+00 0.  1.
     999902    2    1    2    0    0  0.55554247081E-02  0.10377167218E-01  0.20323968023E-01  0.10204435780E+01  0.10201732617E+01 0.  0.
     999903    2    3    3    0    0 -0.11007018599E+00  0.10013681007E-01  0.68297092921E-01  0.13158428952E+00  0.20837770893E-01 0.  0.
         14    1    1    2    0    0 -0.55554247081E-02 -0.10377167218E-01 -0.20323968023E-01  0.23486422021E-01  0.00000000000E+00 0.  1.
     999901    1    3    3    0    0  0.11562561070E+00  0.36348621091E-03 -0.47973124898E-01  0.88885928846E+00  0.88000000000E+00 0.  1.
        -11    1    4    4    0    0 -0.61193290275E-01  0.12910027742E-01  0.29701720534E-01  0.69236846510E-01  0.51100000000E-03 0. -1.
         11    1    4    4    0    0 -0.48876895713E-01 -0.28963467352E-02  0.38595372387E-01  0.62347443007E-01  0.51100000000E-03 0.  1.
</event>
<event>
 8    1  0.1116841E+005  0.1043930E+01  0.7957747E-01            NaN
         13   -1    0    0    0    0  0.00000000000E+00  0.00000000000E+00  0.74505805969E-08  0.10566000000E+00  0.10566000000E+00 0.  1.
     999900   -1    0    0    0    0 -0.00000000000E+00 -0.00000000000E+00 -0.74505805969E-08  0.93827000000E+00  0.93827000000E+00 0.  1.
     999902    2    1    2    0    0 -0.16851356294E-01  0.91010180637E-02  0.12457959123E-01  0.10210827357E+01  0.10208270939E+01 0.  0.
     999903    2    3    3    0    0 -0.92659814780E-01  0.54486774932E-01  0.78010250717E-01  0.13423218901E+00  0.19443030400E-01 0.  0.
         14    1    1    2    0    0  0.16851356294E-01 -0.91010180637E-02 -0.12457959123E-01  0.22847264262E-01  0.00000000000E+00 0. -1.
     999901    1    3    3    0    0  0.75808458486E-01 -0.45385756868E-01 -0.65552291594E-01  0.88685054673E+00  0.88000000000E+00 0. -1.
        -11    1    4    4    0    0 -0.71867174075E-01  0.32265672023E-01  0.55087977835E-01  0.96129655797E-01  0.51100000000E-03 0. -1.
         11    1    4    4    0    0 -0.20792640705E-01  0.22221102909E-01  0.22922272882E-01  0.38102533210E-01  0.51100000000E-03 0.  1.
</event>
<event>
 8    1  0.1116841E+005  0.1043930E+01  0.7957747E-01            NaN
         13   -1    0    0    0    0  0.00000000000E+00  0.00000000000E+00  0.74505805969E-08  0.10566000000E+00  0.10566000000E+00 0.  1.
     999900   -1    0    0    0    0 -0.00000000000E+00 -0.00000000000E+00 -0.74505805969E-08  0.93827000000E+00  0.93827000000E+00 0. -1.
     999902    2    1    2    0    0  0.17776557743E-01  0.68688994052E-02  0.13463448550E-01  0.10205964998E+01  0.10203297326E+01 0.  0.
     999903    2    3    3    0    0 -0.61899748903E-01  0.10173763621E+00 -0.47666099059E-01  0.12981863039E+00  0.19967329854E-01 0.  0.
         14    1    1    2    0    0 -0.17776557743E-01 -0.68688994052E-02 -0.13463448550E-01  0.23333500189E-01  0.00000000000E+00 0.  1.
     999901    1    3    3    0    0  0.79676306646E-01 -0.94868736800E-01  0.61129547609E-01  0.89077786942E+00  0.88000000000E+00 0.  1.
        -11    1    4    4    0    0 -0.40635280810E-01  0.73538257587E-01 -0.24285170782E-01  0.87459316349E-01  0.51100000000E-03 0. -1.
         11    1    4    4    0    0 -0.21264468092E-01  0.28199378618E-01 -0.23380928277E-01  0.42359314039E-01  0.51100000000E-03 0.  1.
</event>
<event>
 8    1  0.1116841E+005  0.1043930E+01  0.7957747E-01            NaN
         13   -1    0    0    0    0  0.00000000000E+00  0.00000000000E+00  0.74505805969E-08  0.10566000000E+00  0.10566000000E+00 0. -1.
     999900   -1    0    0    0    0 -0.00000000000E+00 -0.00000000000E+00 -0.74505805969E-08  0.93827000000E+00  0.93827000000E+00 0. -1.
     999902    2    1    2    0    0  0.15430948043E-01  0.14931862543E-01  0.85557386296E-02  0.10208156032E+01  0.10205538792E+01 0.  0.
     999903    2    3    3    0    0 -0.68478801579E-02 -0.78021515722E-01 -0.10046810899E+00  0.12895077258E+00  0.20005260507E-01 0.  0.
         14    1    1    2    0    0 -0.15430948043E-01 -0.14931862543E-01 -0.85557386296E-02  0.23114396813E-01  0.00000000000E+00 0.  1.
     999901    1    3    3    0    0  0.22278828201E-01  0.92953378265E-01  0.10902384762E+00  0.89186483060E+00  0.88000000000E+00 0.  1.
        -11    1    4    4    0    0  0.33326961143E-02 -0.29944331176E-01 -0.50885211974E-01  0.59138276535E-01  0.51100000000E-03 0. -1.
         11    1    4    4    0    0 -0.10180576272E-01 -0.48077184546E-01 -0.49582897016E-01  0.69812496049E-01  0.51100000000E-03 0.  1.
</event>
<event>
 8    1  0.1116841E+005  0.1043930E+01  0.7957747E-01            NaN
         13   -1    0    0    0    0  0.00000000000E+00  0.00000000000E+00  0.74505805969E-08  0.10566000000E+00  0.10566000000E+00 0.  1.
     999900   -1    0    0    0    0 -0.00000000000E+00 -0.00000000000E+00 -0.74505805969E-08  0.93827000000E+00  0.93827000000E+00 0.  1.
     999902    2    1    2    0    0  0.22470953525E-01  0.60246963306E-02  0.53712282581E-02  0.10200534255E+01  0.10197739455E+01 0.  0.
     999903    2    3    3    0    0 -0.88817989111E-01 -0.33046492887E-01 -0.83241123911E-01  0.12777323655E+00  0.20401210445E-01 0.  0.
         14    1    1    2    0    0 -0.22470953525E-01 -0.60246963306E-02 -0.53712282581E-02  0.23876574528E-01  0.00000000000E+00 0.  1.
     999901    1    3    3    0    0  0.11128894264E+00  0.39071189218E-01  0.88612352169E-01  0.89228018892E+00  0.88000000000E+00 0. -1.
        -11    1    4    4    0    0 -0.25114434083E-01 -0.91173474364E-02 -0.12131933497E-01  0.29348011090E-01  0.51100000000E-03 0. -1.
         11    1    4    4    0    0 -0.63703555028E-01 -0.23929145451E-01 -0.71109190414E-01  0.98425225463E-01  0.51100000000E-03 0.  1.
</event>
<event>
 8    1  0.1116841E+005  0.1043930E+01  0.7957747E-01            NaN
         13   -1    0    0    0    0  0.00000000000E+00  0.00000000000E+00  0.74505805969E-08  0.10566000000E+00  0.10566000000E+00 0. -1.
     999900   -1    0    0    0    0 -0.00000000000E+00 -0.00000000000E+00 -0.74505805969E-08  0.93827000000E+00  0.93827000000E+00 0. -1.
     999902    2    1    2    0    0 -0.76350167770E-02 -0.29255264897E-03  0.21788307410E-01  0.10208408379E+01  0.10205796916E+01 0.  0.
     999903    2    3    3    0    0  0.63875932082E-01  0.11192820488E+00 -0.25133739904E-02  0.13050501025E+00  0.20425055767E-01 0.  0.
         14    1    1    2    0    0  0.76350167770E-02  0.29255264897E-03 -0.21788307410E-01  0.23089162133E-01  0.00000000000E+00 0.  1.
     999901    1    3    3    0    0 -0.71510948859E-01 -0.11222075753E+00  0.24301681400E-01  0.89033582762E+00  0.88000000000E+00 0. -1.
        -11    1    4    4    0    0  0.13901798309E-01  0.36222185575E-01  0.65066293807E-02  0.39343412040E-01  0.51100000000E-03 0. -1.
         11    1    4    4    0    0  0.49974133773E-01  0.75706019307E-01 -0.90200033711E-02  0.91161598206E-01  0.51100000000E-03 0.  1.
</event>
<event>
 8    1  0.1116841E+005  0.1043930E+01  0.7957747E-01            NaN
         13   -1    0    0    0    0  0.00000000000E+00  0.00000000000E+00  0.74505805969E-08  0.10566000000E+00  0.10566000000E+00 0.  1.
     999900   -1    0    0    0    0 -0.00000000000E+00 -0.00000000000E+00 -0.74505805969E-08  0.93827000000E+00  0.93827000000E+00 0.  1.
     999902    2    1    2    0    0 -0.31588742972E-02  0.39691781650E-03 -0.22845517169E-01  0.10208637111E+01  0.10206030878E+01 0.  0.
     999903    2    3    3    0    0  0.29522415228E-01  0.65894061647E-01  0.10448206742E+00  0.12869205923E+00  0.20773621182E-01 0.  0.
         14    1    1    2    0    0  0.31588742972E-02 -0.39691781650E-03  0.22845517169E-01  0.23066288936E-01  0.00000000000E+00 0.  1.
     999901    1    3    3    0    0 -0.32681289525E-01 -0.65497143830E-01 -0.12732758458E+00  0.89217165183E+00  0.88000000000E+00 0.  1.
        -11    1    4    4    0    0  0.14345698809E-01  0.17224736903E-01  0.45532735263E-01  0.50754130248E-01  0.51100000000E-03 0. -1.
         11    1    4    4    0    0  0.15176716419E-01  0.48669324743E-01  0.58949332152E-01  0.77937928985E-01  0.51100000000E-03 0.  1.
</event>
<event>
 8    1  0.1116841E+005  0.1043930E+01  0.7957747E-01            NaN
         13   -1    0    0    0    0  0.00000000000E+00  0.00000000000E+00  0.74505805969E-08  0.10566000000E+00  0.10566000000E+00 0.  1.
     999900   -1    0    0    0    0 -0.00000000000E+00 -0.00000000000E+00 -0.74505805969E-08  0.93827000000E+00  0.93827000000E+00 0. -1.
     999902    2    1    2    0    0 -0.17116759553E-01  0.90479185427E-02  0.13599980553E-01  0.10202697431E+01  0.10199953631E+01 0.  0.
     999903    2    3    3    0    0 -0.98398273295E-01 -0.75367329970E-01  0.40991610668E-01  0.13207893019E+00  0.20051858803E-01 0.  0.
         14    1    1    2    0    0  0.17116759553E-01 -0.90479185427E-02 -0.13599980553E-01  0.23660256942E-01  0.00000000000E+00 0.  1.
     999901    1    3    3    0    0  0.81281513742E-01  0.84415248513E-01 -0.27391630115E-01  0.88819081287E+00  0.88000000000E+00 0. -1.
        -11    1    4    4    0    0 -0.29775394442E-01 -0.15976453284E-01  0.18708068626E-01  0.38627375351E-01  0.51100000000E-03 0. -1.
         11    1    4    4    0    0 -0.68622878852E-01 -0.59390876685E-01  0.22283542042E-01  0.93451554842E-01  0.51100000000E-03 0.  1.
</event>
<event>
 8    1  0.1163631E+005  0.1043930E+01  0.7957747E-01            NaN
         13   -1    0    0    0    0  0.00000000000E+00  0.00000000000E+00  0.74505805969E-08  0.10566000000E+00  0.10566000000E+00 0. -1.
     999900   -1    0    0    0    0 -0.00000000000E+00 -0.00000000000E+00 -0.74505805969E-08  0.93827000000E+00  0.93827000000E+00 0.  1.
     999902    2    1    2    0    0 -0.44443337911E-02 -0.23494593829E-01  0.34763837423E-02  0.10197673576E+01  0.10194810594E+01 0.  0.
     999903    2    3    3    0    0 -0.12091154871E+00  0.78171323139E-02 -0.43588823234E-01  0.13029550870E+00  0.19905373849E-01 0.  0.
         14    1    1    2    0    0  0.44443337911E-02  0.23494593829E-01 -0.34763837423E-02  0.24162642363E-01  0.00000000000E+00 0.  1.
     999901    1    3    3    0    0  0.11646721492E+00 -0.31311726143E-01  0.47065206976E-01  0.88947184894E+00  0.88000000000E+00 0. -1.
        -11    1    4    4    0    0 -0.50299563653E-01  0.12536653666E-01 -0.21883656619E-01  0.56270501480E-01  0.51100000000E-03 0.  1.
         11    1    4    4    0    0 -0.70611985054E-01 -0.47195213520E-02 -0.21705166615E-01  0.74025007220E-01  0.51100000000E-03 0. -1.
</event>
<event>
 8    1  0.1116841E+005  0.1043930E+01  0.7957747E-01            NaN
         13   -1    0    0    0    0  0.00000000000E+00  0.00000000000E+00  0.74505805969E-08  0.10566000000E+00  0.10566000000E+00 0.  1.
     999900   -1    0    0    0    0 -0.00000000000E+00 -0.00000000000E+00 -0.74505805969E-08  0.93827000000E+00  0.93827000000E+00 0. -1.
     999902    2    1    2    0    0 -0.10067435579E-01 -0.29792788151E-02 -0.20679871595E-01  0.10207376209E+01  0.10204741075E+01 0.  0.
     999903    2    3    3    0    0 -0.93397479912E-01 -0.71895549163E-01 -0.58976943585E-01  0.13329183979E+00  0.19909179678E-01 0.  0.
         14    1    1    2    0    0  0.10067435579E-01  0.29792788151E-02  0.20679871595E-01  0.23192379149E-01  0.00000000000E+00 0.  1.
     999901    1    3    3    0    0  0.83330044333E-01  0.68916270348E-01  0.38297071990E-01  0.88744578107E+00  0.88000000000E+00 0.  1.
        -11    1    4    4    0    0 -0.12359974850E-01 -0.19294604326E-01 -0.11512988355E-01  0.25648796390E-01  0.51100000000E-03 0. -1.
         11    1    4    4    0    0 -0.81037505062E-01 -0.52600944837E-01 -0.47463955230E-01  0.10764304340E+00  0.51100000000E-03 0.  1.
</event>
<event>
 8    1  0.1116841E+005  0.1043930E+01  0.7957747E-01            NaN
         13   -1    0    0    0    0  0.00000000000E+00  0.00000000000E+00  0.74505805969E-08  0.10566000000E+00  0.10566000000E+00 0. -1.
     999900   -1    0    0    0    0 -0.00000000000E+00 -0.00000000000E+00 -0.74505805969E-08  0.93827000000E+00  0.93827000000E+00 0.  1.
     999902    2    1    2    0    0 -0.18940704275E-01  0.82270517881E-02  0.21757015071E-01  0.10139332941E+01  0.10134894783E+01 0.  0.
     999903    2    3    3    0    0  0.73391617448E-01  0.56082525082E-01 -0.77629303370E-01  0.12225339400E+00  0.19697829123E-01 0.  0.
         14    1    1    2    0    0  0.18940704275E-01 -0.82270517881E-02 -0.21757015071E-01  0.29996705892E-01  0.00000000000E+00 0.  1.
     999901    1    3    3    0    0 -0.92332321723E-01 -0.47855473294E-01  0.99386318442E-01  0.89167990011E+00  0.88000000000E+00 0. -1.
        -11    1    4    4    0    0  0.39992546660E-01  0.26539114042E-01 -0.28154769114E-01  0.55647825720E-01  0.51100000000E-03 0. -1.
         11    1    4    4    0    0  0.33399070788E-01  0.29543411039E-01 -0.49474534256E-01  0.66605568282E-01  0.51100000000E-03 0.  1.
</event>
<event>
 8    1  0.1116841E+005  0.1043930E+01  0.7957747E-01            NaN
         13   -1    0    0    0    0  0.00000000000E+00  0.00000000000E+00  0.74505805969E-08  0.10566000000E+00  0.10566000000E+00 0.  1.
     999900   -1    0    0    0    0 -0.00000000000E+00 -0.00000000000E+00 -0.74505805969E-08  0.93827000000E+00  0.93827000000E+00 0. -1.
     999902    2    1    2    0    0  0.18275033030E-01 -0.99185170936E-02  0.11596525373E-01  0.10201217406E+01  0.10198438765E+01 0.  0.
     999903    2    3    3    0    0  0.97199802961E-01  0.85490810582E-01  0.11855107827E-01  0.13145300258E+00  0.19567010925E-01 0.  0.
         14    1    1    2    0    0 -0.18275033030E-01  0.99185170936E-02 -0.11596525373E-01  0.23808259372E-01  0.00000000000E+00 0. -1.
     999901    1    3    3    0    0 -0.78924769931E-01 -0.95409327675E-01 -0.25858245342E-03  0.88866873805E+00  0.88000000000E+00 0. -1.
        -11    1    4    4    0    0  0.68823806486E-01  0.64678167971E-01  0.42060940687E-03  0.94447973957E-01  0.51100000000E-03 0.  1.
         11    1    4    4    0    0  0.28375996475E-01  0.20812642611E-01  0.11434498420E-01  0.37005028624E-01  0.51100000000E-03 0. -1.
</event>
<event>
 8    1  0.1116841E+005  0.1043930E+01  0.7957747E-01            NaN
         13   -1    0    0    0    0  0.00000000000E+00  0.00000000000E+00  0.74505805969E-08  0.10566000000E+00  0.10566000000E+00 0. -1.
     999900   -1    0    0    0    0 -0.00000000000E+00 -0.00000000000E+00 -0.74505805969E-08  0.93827000000E+00  0.93827000000E+00 0. -1.
     999902    2    1    2    0    0 -0.10532441379E-01 -0.11874927503E-01  0.17621660590E-01  0.10202135680E+01  0.10199378683E+01 0.  0.
     999903    2    3    3    0    0 -0.10206114959E+00 -0.78653375294E-01 -0.21632077829E-01  0.13208197781E+00  0.19361569476E-01 0.  0.
         14    1    1    2    0    0  0.10532441379E-01  0.11874927503E-01 -0.17621660590E-01  0.23716431994E-01  0.00000000000E+00 0.  1.
     999901    1    3    3    0    0  0.91528708206E-01  0.66778447790E-01  0.39253738418E-01  0.88813159019E+00  0.88000000000E+00 0.  1.
        -11    1    4    4    0    0 -0.88136657996E-01 -0.63251913235E-01 -0.11870322700E-01  0.10913313288E+00  0.51100000000E-03 0. -1.
         11    1    4    4    0    0 -0.13924491589E-01 -0.15401462058E-01 -0.97617551293E-02  0.22948844933E-01  0.51100000000E-03 0.  1.
</event>
<event>
 8    1  0.1116841E+005  0.1043930E+01  0.7957747E-01            NaN
         13   -1    0    0    0    0  0.00000000000E+00  0.00000000000E+00  0.74505805969E-08  0.10566000000E+00  0.10566000000E+00 0.  1.
     999900   -1    0    0    0    0 -0.00000000000E+00 -0.00000000000E+00 -0.74505805969E-08  0.93827000000E+00  0.93827000000E+00 0. -1.
     999902    2    1    2    0    0  0.79501521751E-02 -0.21683855717E-01  0.49268060567E-02  0.10203150061E+01  0.10200416873E+01 0.  0.
     999903    2    3    3    0    0 -0.90579873973E-02  0.10867936220E+00 -0.64253317424E-01  0.12786347528E+00  0.18092225081E-01 0.  0.
         14    1    1    2    0    0 -0.79501521751E-02  0.21683855717E-01 -0.49268060567E-02  0.23614993887E-01  0.00000000000E+00 0.  1.
     999901    1    3    3    0    0  0.17008139572E-01 -0.13036321791E+00  0.69180123481E-01  0.89245153083E+00  0.88000000000E+00 0.  1.
        -11    1    4    4    0    0  0.39550990284E-02  0.43732250182E-01 -0.20385734420E-01  0.48414789095E-01  0.51100000000E-03 0. -1.
         11    1    4    4    0    0 -0.13013086426E-01  0.64947112014E-01 -0.43867583004E-01  0.79448686188E-01  0.51100000000E-03 0.  1.
</event>
<event>
 8    1  0.1116841E+005  0.1043930E+01  0.7957747E-01            NaN
         13   -1    0    0    0    0  0.00000000000E+00  0.00000000000E+00  0.74505805969E-08  0.10566000000E+00  0.10566000000E+00 0.  1.
     999900   -1    0    0    0    0 -0.00000000000E+00 -0.00000000000E+00 -0.74505805969E-08  0.93827000000E+00  0.93827000000E+00 0. -1.
     999902    2    1    2    0    0  0.18943770214E-01 -0.94836017657E-02  0.90087146630E-02  0.10209090949E+01  0.10206495079E+01 0.  0.
     999903    2    3    3    0    0  0.67445286860E-01 -0.11306109152E+00 -0.70857268599E-02  0.13336206822E+00  0.20088717730E-01 0.  0.
         14    1    1    2    0    0 -0.18943770214E-01  0.94836017657E-02 -0.90087146630E-02  0.23020905113E-01  0.00000000000E+00 0.  1.
     999901    1    3    3    0    0 -0.48501516646E-01  0.10357748975E+00  0.16094441523E-01  0.88754702667E+00  0.88000000000E+00 0. -1.
        -11    1    4    4    0    0  0.31774147111E-01 -0.47811393737E-01 -0.12659125162E-01  0.58788097151E-01  0.51100000000E-03 0. -1.
         11    1    4    4    0    0  0.35671139749E-01 -0.65249697778E-01  0.55733983024E-02  0.74573971068E-01  0.51100000000E-03 0.  1.
</event>
<event>
 8    1  0.1116841E+005  0.1043930E+01  0.7957747E-01            NaN
         13   -1    0    0    0    0  0.00000000000E+00  0.00000000000E+00  0.74505805969E-08  0.10566000000E+00  0.10566000000E+00 0. -1.
     999900   -1    0    0    0    0 -0.00000000000E+00 -0.00000000000E+00 -0.74505805969E-08  0.93827000000E+00  0.93827000000E+00 0.  1.
     999902    2    1    2    0    0  0.13922641583E-01  0.48599814098E-02 -0.18468005340E-01  0.10202968329E+01  0.10200230882E+01 0.  0.
     999903    2    3    3    0    0 -0.16762791494E-01 -0.11559398120E+00 -0.54653123133E-01  0.13082501449E+00  0.22028637766E-01 0.  0.
         14    1    1    2    0    0 -0.13922641583E-01 -0.48599814098E-02  0.18468005340E-01  0.23633167143E-01  0.00000000000E+00 0. -1.
     999901    1    3    3    0    0  0.30685433078E-01  0.12045396261E+00  0.36185117793E-01  0.88947181836E+00  0.88000000000E+00 0.  1.
        -11    1    4    4    0    0 -0.83289252046E-03 -0.30581166700E-01 -0.24596679385E-01  0.39257600849E-01  0.51100000000E-03 0. -1.
         11    1    4    4    0    0 -0.15929898974E-01 -0.85012814496E-01 -0.30056443749E-01  0.91567413645E-01  0.51100000000E-03 0.  1.
</event>
<event>
 8    1  0.1116841E+005  0.1043930E+01  0.7957747E-01            NaN
         13   -1    0    0    0    0  0.00000000000E+00  0.00000000000E+00  0.74505805969E-08  0.10566000000E+00  0.10566000000E+00 0. -1.
     999900   -1    0    0    0    0 -0.00000000000E+00 -0.00000000000E+00 -0.74505805969E-08  0.93827000000E+00  0.93827000000E+00 0.  1.
     999902    2    1    2    0    0  0.15731747554E-03 -0.17638359184E-01 -0.16798653725E-01  0.10195716086E+01  0.10192805962E+01 0.  0.
     999903    2    3    3    0    0 -0.68679202629E-01 -0.10607691690E+00  0.29287703543E-01  0.13126772069E+00  0.20107206260E-01 0.  0.
         14    1    1    2    0    0 -0.15731747554E-03  0.17638359184E-01  0.16798653725E-01  0.24358391376E-01  0.00000000000E+00 0. -1.
     999901    1    3    3    0    0  0.68836520104E-01  0.88438557717E-01 -0.46086357268E-01  0.88830388793E+00  0.88000000000E+00 0. -1.
        -11    1    4    4    0    0 -0.24930970647E-01 -0.46668484515E-01  0.21364740862E-01  0.57063245767E-01  0.51100000000E-03 0. -1.
         11    1    4    4    0    0 -0.43748231982E-01 -0.59408432386E-01  0.79229626810E-02  0.74204474924E-01  0.51100000000E-03 0.  1.
</event>
<event>
 8    1  0.1116841E+005  0.1043930E+01  0.7957747E-01            NaN
         13   -1    0    0    0    0  0.00000000000E+00  0.00000000000E+00  0.74505805969E-08  0.10566000000E+00  0.10566000000E+00 0. -1.
     999900   -1    0    0    0    0 -0.00000000000E+00 -0.00000000000E+00 -0.74505805969E-08  0.93827000000E+00  0.93827000000E+00 0. -1.
     999902    2    1    2    0    0  0.73105183111E-02  0.13262617673E-01 -0.16953148295E-01  0.10211978654E+01  0.10209448224E+01 0.  0.
     999903    2    3    3    0    0 -0.30491340318E-01 -0.11669358733E+00  0.41069546994E-01  0.12896234219E+00  0.19936470475E-01 0.  0.
         14    1    1    2    0    0 -0.73105183111E-02 -0.13262617673E-01  0.16953148295E-01  0.22732134582E-01  0.00000000000E+00 0. -1.
     999901    1    3    3    0    0  0.37801858629E-01  0.12995620501E+00 -0.58022695289E-01  0.89223552322E+00  0.88000000000E+00 0.  1.
        -11    1    4    4    0    0 -0.29662775451E-01 -0.76642049151E-01  0.27860315784E-01  0.86777544688E-01  0.51100000000E-03 0. -1.
         11    1    4    4    0    0 -0.82856486646E-03 -0.40051538182E-01  0.13209231209E-01  0.42184797506E-01  0.51100000000E-03 0.  1.
</event>
<event>
 8    1  0.1116841E+005  0.1043930E+01  0.7957747E-01            NaN
         13   -1    0    0    0    0  0.00000000000E+00  0.00000000000E+00  0.74505805969E-08  0.10566000000E+00  0.10566000000E+00 0.  1.
     999900   -1    0    0    0    0 -0.00000000000E+00 -0.00000000000E+00 -0.74505805969E-08  0.93827000000E+00  0.93827000000E+00 0. -1.
     999902    2    1    2    0    0  0.47282256671E-02  0.74662716617E-02  0.22713141855E-01  0.10195581280E+01  0.10192667896E+01 0.  0.
     999903    2    3    3    0    0 -0.12362444631E-01  0.10399585777E+00 -0.72585567269E-01  0.12900105744E+00  0.20115659925E-01 0.  0.
         14    1    1    2    0    0 -0.47282256671E-02 -0.74662716617E-02 -0.22713141855E-01  0.24371871972E-01  0.00000000000E+00 0. -1.
     999901    1    3    3    0    0  0.17090670298E-01 -0.96529586113E-01  0.95298709125E-01  0.89055707058E+00  0.88000000000E+00 0.  1.
        -11    1    4    4    0    0 -0.78984386729E-02  0.31628165339E-01 -0.33009851865E-01  0.46396525919E-01  0.51100000000E-03 0.  1.
         11    1    4    4    0    0 -0.44640059576E-02  0.72367692436E-01 -0.39575715404E-01  0.82604531525E-01  0.51100000000E-03 0. -1.
</event>
<event>
 8    1  0.1116841E+005  0.1043930E+01  0.7957747E-01            NaN
         13   -1    0    0    0    0  0.00000000000E+00  0.00000000000E+00  0.74505805969E-08  0.10566000000E+00  0.10566000000E+00 0. -1.
     999900   -1    0    0    0    0 -0.00000000000E+00 -0.00000000000E+00 -0.74505805969E-08  0.93827000000E+00  0.93827000000E+00 0. -1.
     999902    2    1    2    0    0  0.90252614035E-02  0.16396331032E-01  0.15342679948E-01  0.10197289082E+01  0.10194416871E+01 0.  0.
     999903    2    3    3    0    0 -0.74354801261E-01  0.54199419435E-01  0.91619427025E-01  0.13169768666E+00  0.21998811921E-01 0.  0.
         14    1    1    2    0    0 -0.90252614035E-02 -0.16396331032E-01 -0.15342679948E-01  0.24201091766E-01  0.00000000000E+00 0.  1.
     999901    1    3    3    0    0  0.83380062664E-01 -0.37803088403E-01 -0.76276747077E-01  0.88803122157E+00  0.88000000000E+00 0.  1.
        -11    1    4    4    0    0 -0.26555009711E-01  0.18418901165E-01  0.18307632084E-01  0.37146399212E-01  0.51100000000E-03 0. -1.
         11    1    4    4    0    0 -0.47799791550E-01  0.35780518269E-01  0.73311794941E-01  0.94551287449E-01  0.51100000000E-03 0.  1.
</event>
<event>
 8    1  0.1116841E+005  0.1043930E+01  0.7957747E-01            NaN
         13   -1    0    0    0    0  0.00000000000E+00  0.00000000000E+00  0.74505805969E-08  0.10566000000E+00  0.10566000000E+00 0. -1.
     999900   -1    0    0    0    0 -0.00000000000E+00 -0.00000000000E+00 -0.74505805969E-08  0.93827000000E+00  0.93827000000E+00 0.  1.
     999902    2    1    2    0    0  0.17060802923E-01 -0.17973658444E-01  0.63789782544E-03  0.10191402782E+01  0.10188387391E+01 0.  0.
     999903    2    3    3    0    0 -0.89288531399E-02  0.11002388171E+00 -0.60411467049E-01  0.12740833558E+00  0.19958949321E-01 0.  0.
         14    1    1    2    0    0 -0.17060802923E-01  0.17973658444E-01 -0.63789782544E-03  0.24789721819E-01  0.00000000000E+00 0. -1.
     999901    1    3    3    0    0  0.25989656063E-01 -0.12799754016E+00  0.61049364875E-01  0.89173194260E+00  0.88000000000E+00 0. -1.
        -11    1    4    4    0    0 -0.33389934822E-02  0.14965848904E-01 -0.14553462218E-02  0.15411186343E-01  0.51100000000E-03 0. -1.
         11    1    4    4    0    0 -0.55898596577E-02  0.95058032809E-01 -0.58956120828E-01  0.11199714923E+00  0.51100000000E-03 0.  1.
</event>
<event>
 8    1  0.1116841E+005  0.1043930E+01  0.7957747E-01            NaN
         13   -1    0    0    0    0  0.00000000000E+00  0.00000000000E+00  0.74505805969E-08  0.10566000000E+00  0.10566000000E+00 0.  1.
     999900   -1    0    0    0    0 -0.00000000000E+00 -0.00000000000E+00 -0.74505805969E-08  0.93827000000E+00  0.93827000000E+00 0.  1.
     999902    2    1    2    0    0 -0.34010379597E-02  0.14204049221E-01 -0.18938066455E-01  0.10200140548E+01  0.10197336415E+01 0.  0.
     999903    2    3    3    0    0  0.83382566473E-01  0.31905783912E-01 -0.95550760108E-01  0.13225606400E+00  0.19775926504E-01 0.  0.
         14    1    1    2    0    0  0.34010379597E-02 -0.14204049221E-01  0.18938066455E-01  0.23915945194E-01  0.00000000000E+00 0.  1.
     999901    1    3    3    0    0 -0.86783604433E-01 -0.17701734691E-01  0.76612693653E-01  0.88775799081E+00  0.88000000000E+00 0. -1.
        -11    1    4    4    0    0  0.22427772246E-01  0.18186644983E-01 -0.32828270404E-01  0.43723168713E-01  0.51100000000E-03 0. -1.
         11    1    4    4    0    0  0.60954794228E-01  0.13719138929E-01 -0.62722489704E-01  0.88532895287E-01  0.51100000000E-03 0.  1.
</event>
<event>
 8    1  0.1116841E+005  0.1043930E+01  0.7957747E-01            NaN
         13   -1    0    0    0    0  0.00000000000E+00  0.00000000000E+00  0.74505805969E-08  0.10566000000E+00  0.10566000000E+00 0. -1.
     999900   -1    0    0    0    0 -0.00000000000E+00 -0.00000000000E+00 -0.74505805969E-08  0.93827000000E+00  0.93827000000E+00 0.  1.
     999902    2    1    2    0    0  0.16068521798E-01  0.63720244539E-02  0.16341798091E-01  0.10201423046E+01  0.10198649259E+01 0.  0.
     999903    2    3    3    0    0 -0.18536907400E-01  0.33832822279E-01 -0.12087062973E+00  0.12841427346E+00  0.19805042198E-01 0.  0.
         14    1    1    2    0    0 -0.16068521798E-01 -0.63720244539E-02 -0.16341798091E-01  0.23787695417E-01  0.00000000000E+00 0. -1.
     999901    1    3    3    0    0  0.34605429198E-01 -0.27460797825E-01  0.13721242782E+00  0.89172803113E+00  0.88000000000E+00 0. -1.
        -11    1    4    4    0    0  0.20934426134E-02  0.80135245798E-02 -0.43415345999E-01  0.44201272237E-01  0.51100000000E-03 0.  1.
         11    1    4    4    0    0 -0.20630350014E-01  0.25819297700E-01 -0.77455283733E-01  0.84213001220E-01  0.51100000000E-03 0. -1.
</event>
<event>
 8    1  0.1116841E+005  0.1043930E+01  0.7957747E-01            NaN
         13   -1    0    0    0    0  0.00000000000E+00  0.00000000000E+00  0.74505805969E-08  0.10566000000E+00  0.10566000000E+00 0. -1.
     999900   -1    0    0    0    0 -0.00000000000E+00 -0.00000000000E+00 -0.74505805969E-08  0.93827000000E+00  0.93827000000E+00 0. -1.
     999902    2    1    2    0    0  0.60485275291E-02 -0.22548048757E-01 -0.23984212388E-02  0.10204619022E+01  0.10201920125E+01 0.  0.
     999903    2    3    3    0    0 -0.70550272957E-02 -0.90203848641E-01 -0.95173997151E-01  0.13290552775E+00  0.20476373065E-01 0.  0.
         14    1    1    2    0    0 -0.60485275291E-02  0.22548048757E-01  0.23984212388E-02  0.23468097760E-01  0.00000000000E+00 0. -1.
     999901    1    3    3    0    0  0.13103554825E-01  0.67655799883E-01  0.92775575912E-01  0.88755637449E+00  0.88000000000E+00 0.  1.
        -11    1    4    4    0    0  0.57782910209E-02 -0.27246341331E-01 -0.21791064829E-01  0.35367547136E-01  0.51100000000E-03 0. -1.
         11    1    4    4    0    0 -0.12833318317E-01 -0.62957507310E-01 -0.73382932321E-01  0.97537980617E-01  0.51100000000E-03 0.  1.
</event>
<event>
 8    1  0.1116841E+005  0.1043930E+01  0.7957747E-01            NaN
         13   -1    0    0    0    0  0.00000000000E+00  0.00000000000E+00  0.74505805969E-08  0.10566000000E+00  0.10566000000E+00 0.  1.
     999900   -1    0    0    0    0 -0.00000000000E+00 -0.00000000000E+00 -0.74505805969E-08  0.93827000000E+00  0.93827000000E+00 0.  1.
     999902    2    1    2    0    0 -0.13307173528E-01 -0.90225000792E-02  0.18270201689E-01  0.10195930601E+01  0.10193025662E+01 0.  0.
     999903    2    3    3    0    0 -0.82112109906E-02  0.10375215193E+00  0.76279267523E-01  0.13048724934E+00  0.19402643418E-01 0.  0.
         14    1    1    2    0    0  0.13307173528E-01  0.90225000792E-02 -0.18270201689E-01  0.24336939921E-01  0.00000000000E+00 0.  1.
     999901    1    3    3    0    0 -0.50959625374E-02 -0.11277465200E+00 -0.58009065835E-01  0.88910581074E+00  0.88000000000E+00 0.  1.
        -11    1    4    4    0    0 -0.60480493015E-02  0.95352846587E-01  0.62415093297E-01  0.11412558541E+00  0.51100000000E-03 0.  1.
         11    1    4    4    0    0 -0.21631616891E-02  0.83993053386E-02  0.13864174226E-01  0.16361663933E-01  0.51100000000E-03 0. -1.
</event>
<event>
 8    1  0.1116841E+005  0.1043930E+01  0.7957747E-01            NaN
         13   -1    0    0    0    0  0.00000000000E+00  0.00000000000E+00  0.74505805969E-08  0.10566000000E+00  0.10566000000E+00 0.  1.
     999900   -1    0    0    0    0 -0.00000000000E+00 -0.00000000000E+00 -0.74505805969E-08  0.93827000000E+00  0.93827000000E+00 0. -1.
     999902    2    1    2    0    0  0.58448631205E-02  0.93836989497E-02 -0.20900035240E-01  0.10202862333E+01  0.10200122402E+01 0.  0.
     999903    2    3    3    0    0 -0.22963967961E-01  0.36388413978E-02  0.12401274858E+00  0.12795072070E+00  0.21251826405E-01 0.  0.
         14    1    1    2    0    0 -0.58448631205E-02 -0.93836989497E-02  0.20900035240E-01  0.23643766703E-01  0.00000000000E+00 0.  1.
     999901    1    3    3    0    0  0.28808831081E-01  0.57448575518E-02 -0.14491278382E+00  0.89233551260E+00  0.88000000000E+00 0. -1.
        -11    1    4    4    0    0 -0.13712772387E-01 -0.17482029889E-03  0.10925243275E+00  0.11011097072E+00  0.51100000000E-03 0. -1.
         11    1    4    4    0    0 -0.92511955739E-02  0.38136616967E-02  0.14760315825E-01  0.17839749979E-01  0.51100000000E-03 0.  1.
</event>
<event>
 8    1  0.1116841E+005  0.1043930E+01  0.7957747E-01            NaN
         13   -1    0    0    0    0  0.00000000000E+00  0.00000000000E+00  0.74505805969E-08  0.10566000000E+00  0.10566000000E+00 0. -1.
     999900   -1    0    0    0    0 -0.00000000000E+00 -0.00000000000E+00 -0.74505805969E-08  0.93827000000E+00  0.93827000000E+00 0.  1.
     999902    2    1    2    0    0 -0.14889057042E-01  0.18198012438E-01  0.45893193821E-03  0.10204127235E+01  0.10201416882E+01 0.  0.
     999903    2    3    3    0    0  0.87078642450E-01 -0.17732233043E-01 -0.91505239195E-01  0.12903973587E+00  0.19517237826E-01 0.  0.
         14    1    1    2    0    0  0.14889057042E-01 -0.18198012438E-01 -0.45893193821E-03  0.23517276518E-01  0.00000000000E+00 0. -1.
     999901    1    3    3    0    0 -0.10196769949E+00  0.35930245482E-01  0.91964171134E-01  0.89137298762E+00  0.88000000000E+00 0. -1.
        -11    1    4    4    0    0  0.78690323418E-01 -0.16062775970E-01 -0.72520949830E-01  0.10821150150E+00  0.51100000000E-03 0. -1.
         11    1    4    4    0    0  0.83883190322E-02 -0.16694570732E-02 -0.18984289365E-01  0.20828234366E-01  0.51100000000E-03 0.  1.
</event>
<event>
 8    1  0.1116841E+005  0.1043930E+01  0.7957747E-01            NaN
         13   -1    0    0    0    0  0.00000000000E+00  0.00000000000E+00  0.74505805969E-08  0.10566000000E+00  0.10566000000E+00 0.  1.
     999900   -1    0    0    0    0 -0.00000000000E+00 -0.00000000000E+00 -0.74505805969E-08  0.93827000000E+00  0.93827000000E+00 0. -1.
     999902    2    1    2    0    0  0.80632638733E-02 -0.17775713373E-01 -0.12624617932E-01  0.10206840716E+01  0.10204193260E+01 0.  0.
     999903    2    3    3    0    0  0.10068284922E+00  0.75709306437E-01 -0.28947733569E-01  0.13074908484E+00  0.19708290133E-01 0.  0.
         14    1    1    2    0    0 -0.80632638733E-02  0.17775713373E-01  0.12624617932E-01  0.23245928420E-01  0.00000000000E+00 0.  1.
     999901    1    3    3    0    0 -0.92619585345E-01 -0.93485019810E-01  0.16323115637E-01  0.88993498674E+00  0.88000000000E+00 0.  1.
        -11    1    4    4    0    0  0.24723636454E-01  0.99365537586E-02 -0.10198618736E-01  0.28535350799E-01  0.51100000000E-03 0.  1.
         11    1    4    4    0    0  0.75959212764E-01  0.65772752679E-01 -0.18749114833E-01  0.10221373404E+00  0.51100000000E-03 0. -1.
</event>
<event>
 8    1  0.1116841E+005  0.1043930E+01  0.7957747E-01            NaN
         13   -1    0    0    0    0  0.00000000000E+00  0.00000000000E+00  0.74505805969E-08  0.10566000000E+00  0.10566000000E+00 0.  1.
     999900   -1    0    0    0    0 -0.00000000000E+00 -0.00000000000E+00 -0.74505805969E-08  0.93827000000E+00  0.93827000000E+00 0. -1.
     999902    2    1    2    0    0 -0.10980071840E-01  0.72981094630E-02 -0.19466934500E-01  0.10204186003E+01  0.10201477020E+01 0.  0.
     999903    2    3    3    0    0 -0.57737659161E-01 -0.31257535321E-01  0.10984092299E+00  0.12890677659E+00  0.15532478455E-01 0.  0.
         14    1    1    2    0    0  0.10980071840E-01 -0.72981094630E-02  0.19466934500E-01  0.23511399749E-01  0.00000000000E+00 0.  1.
     999901    1    3    3    0    0  0.46757587321E-01  0.38555644784E-01 -0.12930785749E+00  0.89151182366E+00  0.88000000000E+00 0. -1.
        -11    1    4    4    0    0 -0.23861507483E-01 -0.98933910093E-02  0.57166247585E-01  0.62733497503E-01  0.51100000000E-03 0.  1.
         11    1    4    4    0    0 -0.33876151678E-01 -0.21364144312E-01  0.52674675410E-01  0.66173279088E-01  0.51100000000E-03 0. -1.
</event>
<event>
 8    1  0.1116841E+005  0.1043930E+01  0.7957747E-01            NaN
         13   -1    0    0    0    0  0.00000000000E+00  0.00000000000E+00  0.74505805969E-08  0.10566000000E+00  0.10566000000E+00 0.  1.
     999900   -1    0    0    0    0 -0.00000000000E+00 -0.00000000000E+00 -0.74505805969E-08  0.93827000000E+00  0.93827000000E+00 0.  1.
     999902    2    1    2    0    0  0.17131389766E-01 -0.67708054019E-02 -0.64153752182E-02  0.10244239661E+01  0.10242382422E+01 0.  0.
     999903    2    3    3    0    0 -0.39065794996E-01  0.11796008997E+00  0.41340365586E-01  0.13257390544E+00  0.20642078664E-01 0.  0.
         14    1    1    2    0    0 -0.17131389766E-01  0.67708054019E-02  0.64153752182E-02  0.19506033946E-01  0.00000000000E+00 0.  1.
     999901    1    3    3    0    0  0.56197184762E-01 -0.12473089538E+00 -0.47755740804E-01  0.89185006061E+00  0.88000000000E+00 0.  1.
        -11    1    4    4    0    0 -0.25667603706E-01  0.61844056608E-01  0.31673079857E-01  0.74074005740E-01  0.51100000000E-03 0. -1.
         11    1    4    4    0    0 -0.13398191290E-01  0.56116033366E-01  0.96672857287E-02  0.58499899700E-01  0.51100000000E-03 0.  1.
</event>
<event>
 8    1  0.1116841E+005  0.1043930E+01  0.7957747E-01            NaN
         13   -1    0    0    0    0  0.00000000000E+00  0.00000000000E+00  0.74505805969E-08  0.10566000000E+00  0.10566000000E+00 0.  1.
     999900   -1    0    0    0    0 -0.00000000000E+00 -0.00000000000E+00 -0.74505805969E-08  0.93827000000E+00  0.93827000000E+00 0.  1.
     999902    2    1    2    0    0  0.12321221996E-01  0.19079343791E-01  0.93253240702E-02  0.10193781052E+01  0.10190823940E+01 0.  0.
     999903    2    3    3    0    0 -0.18559316941E-01 -0.93528903655E-01  0.83810194301E-01  0.12854578594E+00  0.20193225363E-01 0.  0.
         14    1    1    2    0    0 -0.12321221996E-01 -0.19079343791E-01 -0.93253240702E-02  0.24551894835E-01  0.00000000000E+00 0.  1.
     999901    1    3    3    0    0  0.30880538937E-01  0.11260824745E+00 -0.74484870231E-01  0.89083231922E+00  0.88000000000E+00 0.  1.
        -11    1    4    4    0    0 -0.14316599921E-01 -0.34683278673E-01  0.24069273359E-01  0.44581228043E-01  0.51100000000E-03 0.  1.
         11    1    4    4    0    0 -0.42427170202E-02 -0.58845624982E-01  0.59740920942E-01  0.83964557899E-01  0.51100000000E-03 0. -1.
</event>
<event>
 7    1  0.1116841E+005  0.1043930E+01  0.7957747E-01            NaN
         13   -1    0    0    0    0  0.00000000000E+00  0.00000000000E+00  0.74505805969E-08  0.10566000000E+00  0.10566000000E+00 0. -1.
     999900   -1    0    0    0    0 -0.00000000000E+00 -0.00000000000E+00 -0.74505805969E-08  0.93827000000E+00  0.93827000000E+00 0.  1.
     999903    2    1    2    0    0 -0.29881783908E-01  0.70853015015E-01 -0.70470556160E-01  0.10614802929E+00  0.19703656803E-01 0.  0.
         14    1    1    2    0    0  0.93324251831E-02  0.45019256827E-01 -0.72847906966E-02  0.46549928255E-01  0.00000000000E+00 0.  1.
     999901    1    1    2    0    0  0.20549358725E-01 -0.11587227184E+00  0.77755346857E-01  0.89123204245E+00  0.88000000000E+00 0. -1.
        -11    1    3    3    0    0 -0.11105582848E-02  0.14745309901E-01 -0.59967997780E-02  0.15964968912E-01  0.51100000000E-03 0. -1.
         11    1    3    3    0    0 -0.28771225623E-01  0.56107705114E-01 -0.64473756382E-01  0.90183060383E-01  0.51100000000E-03 0.  1.
</event>
<event>
 8    1  0.1116841E+005  0.1043930E+01  0.7957747E-01            NaN
         13   -1    0    0    0    0  0.00000000000E+00  0.00000000000E+00  0.74505805969E-08  0.10566000000E+00  0.10566000000E+00 0.  1.
     999900   -1    0    0    0    0 -0.00000000000E+00 -0.00000000000E+00 -0.74505805969E-08  0.93827000000E+00  0.93827000000E+00 0.  1.
     999902    2    1    2    0    0 -0.17348935941E-01  0.23862816688E-02 -0.22805410170E-01  0.10151764498E+01  0.10147691646E+01 0.  0.
     999903    2    3    3    0    0  0.58667007951E-01  0.10541520313E+00 -0.28859238186E-01  0.12589020157E+00  0.21477996894E-01 0.  0.
         14    1    1    2    0    0  0.17348935941E-01 -0.23862816688E-02  0.22805410170E-01  0.28753550242E-01  0.00000000000E+00 0.  1.
     999901    1    3    3    0    0 -0.76015943892E-01 -0.10302892146E+00  0.60538280158E-02  0.88928624819E+00  0.88000000000E+00 0.  1.
        -11    1    4    4    0    0  0.39694079228E-01  0.61984341245E-01 -0.27176467237E-01  0.78463367108E-01  0.51100000000E-03 0.  1.
         11    1    4    4    0    0  0.18972928723E-01  0.43430861881E-01 -0.16827709489E-02  0.47426834462E-01  0.51100000000E-03 0. -1.
</event>
<event>
 8    1  0.1116841E+005  0.1043930E+01  0.7957747E-01            NaN
         13   -1    0    0    0    0  0.00000000000E+00  0.00000000000E+00  0.74505805969E-08  0.10566000000E+00  0.10566000000E+00 0.  1.
     999900   -1    0    0    0    0 -0.00000000000E+00 -0.00000000000E+00 -0.74505805969E-08  0.93827000000E+00  0.93827000000E+00 0. -1.
     999902    2    1    2    0    0  0.24993661488E-02  0.95199362390E-02 -0.49925937565E-02  0.10328936052E+01  0.10328346420E+01 0.  0.
     999903    2    3    3    0    0  0.78090423607E-01  0.78477473420E-01 -0.87889778681E-01  0.14309526112E+00  0.22244380549E-01 0.  0.
         14    1    1    2    0    0 -0.24993661488E-02 -0.95199362390E-02  0.49925937565E-02  0.11036394772E-01  0.00000000000E+00 0.  1.
     999901    1    3    3    0    0 -0.75591057458E-01 -0.68957537181E-01  0.82897184925E-01  0.88979834410E+00  0.88000000000E+00 0.  1.
        -11    1    4    4    0    0  0.18438081508E-01  0.31788825106E-01 -0.34593859780E-01  0.50472651077E-01  0.51100000000E-03 0.  1.
         11    1    4    4    0    0  0.59652342100E-01  0.46688648315E-01 -0.53295918901E-01  0.92622610047E-01  0.51100000000E-03 0. -1.
</event>
<event>
 8    1  0.1116841E+005  0.1043930E+01  0.7957747E-01            NaN
         13   -1    0    0    0    0  0.00000000000E+00  0.00000000000E+00  0.74505805969E-08  0.10566000000E+00  0.10566000000E+00 0.  1.
     999900   -1    0    0    0    0 -0.00000000000E+00 -0.00000000000E+00 -0.74505805969E-08  0.93827000000E+00  0.93827000000E+00 0.  1.
     999902    2    1    2    0    0  0.10524830857E-01 -0.10760806898E-01  0.18019574505E-01  0.10204508157E+01  0.10201806679E+01 0.  0.
     999903    2    3    3    0    0  0.46857834584E-01  0.80434646583E-01  0.91299916071E-01  0.13196519041E+00  0.20340790878E-01 0.  0.
         14    1    1    2    0    0 -0.10524830857E-01  0.10760806898E-01 -0.18019574505E-01  0.23479184291E-01  0.00000000000E+00 0. -1.
     999901    1    3    3    0    0 -0.36333003728E-01 -0.91195453481E-01 -0.73280341566E-01  0.88848562529E+00  0.88000000000E+00 0.  1.
        -11    1    4    4    0    0  0.88661300789E-02  0.37553536980E-02  0.10776182010E-01  0.14460226958E-01  0.51100000000E-03 0.  1.
         11    1    4    4    0    0  0.37991704505E-01  0.76679292885E-01  0.80523734061E-01  0.11750496346E+00  0.51100000000E-03 0. -1.
</event>
<event>
 8    1  0.1116841E+005  0.1043930E+01  0.7957747E-01            NaN
         13   -1    0    0    0    0  0.00000000000E+00  0.00000000000E+00  0.74505805969E-08  0.10566000000E+00  0.10566000000E+00 0. -1.
     999900   -1    0    0    0    0 -0.00000000000E+00 -0.00000000000E+00 -0.74505805969E-08  0.93827000000E+00  0.93827000000E+00 0.  1.
     999902    2    1    2    0    0  0.10015028286E-01 -0.11460702520E-01 -0.18153147904E-01  0.10202406506E+01  0.10199655876E+01 0.  0.
     999903    2    3    3    0    0  0.11892704925E+00 -0.32279706766E-01 -0.45346573678E-01  0.13286545286E+00  0.20280392160E-01 0.  0.
         14    1    1    2    0    0 -0.10015028286E-01  0.11460702520E-01  0.18153147904E-01  0.23689349350E-01  0.00000000000E+00 0.  1.
     999901    1    3    3    0    0 -0.10891202097E+00  0.20819004246E-01  0.27193425774E-01  0.88737519779E+00  0.88000000000E+00 0.  1.
        -11    1    4    4    0    0  0.47282966002E-01 -0.20042250927E-01 -0.26434993051E-01  0.57761931017E-01  0.51100000000E-03 0.  1.
         11    1    4    4    0    0  0.71644083251E-01 -0.12237455838E-01 -0.18911580627E-01  0.75103521842E-01  0.51100000000E-03 0. -1.
</event>
<event>
 8    1  0.1116841E+005  0.1043930E+01  0.7957747E-01            NaN
         13   -1    0    0    0    0  0.00000000000E+00  0.00000000000E+00  0.74505805969E-08  0.10566000000E+00  0.10566000000E+00 0.  1.
     999900   -1    0    0    0    0 -0.00000000000E+00 -0.00000000000E+00 -0.74505805969E-08  0.93827000000E+00  0.93827000000E+00 0. -1.
     999902    2    1    2    0    0  0.16537979388E-01  0.16257513398E-01 -0.50896060358E-02  0.10201873044E+01  0.10199109866E+01 0.  0.
     999903    2    3    3    0    0 -0.11437773727E+00  0.54165438359E-01 -0.21422961569E-01  0.12954556154E+00  0.17519924004E-01 0.  0.
         14    1    1    2    0    0 -0.16537979388E-01 -0.16257513398E-01  0.50896060358E-02  0.23742695587E-01  0.00000000000E+00 0.  1.
     999901    1    3    3    0    0  0.13091571666E+00 -0.37907924961E-01  0.16333355533E-01  0.89064174287E+00  0.88000000000E+00 0.  1.
        -11    1    4    4    0    0 -0.68612484657E-01  0.22906009710E-01 -0.12328063752E-01  0.73379837889E-01  0.51100000000E-03 0.  1.
         11    1    4    4    0    0 -0.45765252613E-01  0.31259428649E-01 -0.90948978167E-02  0.56165723653E-01  0.51100000000E-03 0. -1.
</event>
<event>
 8    1  0.1116841E+005  0.1043930E+01  0.7957747E-01            NaN
         13   -1    0    0    0    0  0.00000000000E+00  0.00000000000E+00  0.74505805969E-08  0.10566000000E+00  0.10566000000E+00 0. -1.
     999900   -1    0    0    0    0 -0.00000000000E+00 -0.00000000000E+00 -0.74505805969E-08  0.93827000000E+00  0.93827000000E+00 0.  1.
     999902    2    1    2    0    0 -0.34622377237E-03 -0.10226176934E-01 -0.20941062541E-01  0.10206228623E+01  0.10203567045E+01 0.  0.
     999903    2    3    3    0    0 -0.86260670209E-01  0.17417742258E-01 -0.97873124257E-01  0.13266789699E+00  0.16653572257E-01 0.  0.
         14    1    1    2    0    0  0.34622377237E-03  0.10226176934E-01  0.20941062541E-01  0.23307137661E-01  0.00000000000E+00 0. -1.
     999901    1    3    3    0    0  0.85914446436E-01 -0.27643919192E-01  0.76932061716E-01  0.88795496535E+00  0.88000000000E+00 0. -1.
        -11    1    4    4    0    0 -0.30133803904E-01  0.96895380667E-02 -0.24872807776E-01  0.40259793509E-01  0.51100000000E-03 0. -1.
         11    1    4    4    0    0 -0.56126866304E-01  0.77282041912E-02 -0.73000316480E-01  0.92408103478E-01  0.51100000000E-03 0.  1.
</event>
<event>
 8    1  0.1116841E+005  0.1043930E+01  0.7957747E-01            NaN
         13   -1    0    0    0    0  0.00000000000E+00  0.00000000000E+00  0.74505805969E-08  0.10566000000E+00  0.10566000000E+00 0.  1.
     999900   -1    0    0    0    0 -0.00000000000E+00 -0.00000000000E+00 -0.74505805969E-08  0.93827000000E+00  0.93827000000E+00 0.  1.
     999902    2    1    2    0    0  0.10239286821E-01 -0.45115444748E-02  0.33338339461E-01  0.10087640803E+01  0.10081509450E+01 0.  0.
     999903    2    3    3    0    0  0.28089820123E-01  0.70591350851E-01 -0.87090154258E-01  0.11721368438E+00  0.19549322935E-01 0.  0.
         14    1    1    2    0    0 -0.10239286821E-01  0.45115444748E-02 -0.33338339461E-01  0.35165919669E-01  0.00000000000E+00 0. -1.
     999901    1    3    3    0    0 -0.17850533302E-01 -0.75102895326E-01  0.12042849372E+00  0.89155039595E+00  0.88000000000E+00 0. -1.
        -11    1    4    4    0    0  0.16487550339E-01  0.40698926783E-01 -0.35502374603E-01  0.56470538167E-01  0.51100000000E-03 0.  1.
         11    1    4    4    0    0  0.11602269784E-01  0.29892424068E-01 -0.51587779655E-01  0.60743146210E-01  0.51100000000E-03 0. -1.
</event>
<event>
 8    1  0.1116841E+005  0.1043930E+01  0.7957747E-01            NaN
         13   -1    0    0    0    0  0.00000000000E+00  0.00000000000E+00  0.74505805969E-08  0.10566000000E+00  0.10566000000E+00 0. -1.
     999900   -1    0    0    0    0 -0.00000000000E+00 -0.00000000000E+00 -0.74505805969E-08  0.93827000000E+00  0.93827000000E+00 0.  1.
     999902    2    1    2    0    0  0.24480891124E-01  0.12932121865E-01  0.56612793931E-02  0.10156704195E+01  0.10152772021E+01 0.  0.
     999903    2    3    3    0    0 -0.53269974022E-01  0.89611081449E-01  0.68978721414E-01  0.12666313137E+00  0.20436457353E-01 0.  0.
         14    1    1    2    0    0 -0.24480891124E-01 -0.12932121865E-01 -0.56612793931E-02  0.28259580509E-01  0.00000000000E+00 0. -1.
     999901    1    3    3    0    0  0.77750865146E-01 -0.76678959583E-01 -0.63317442021E-01  0.88900728812E+00  0.88000000000E+00 0.  1.
        -11    1    4    4    0    0 -0.10420813173E-01  0.33296538846E-01  0.16709368782E-01  0.38687426542E-01  0.51100000000E-03 0. -1.
         11    1    4    4    0    0 -0.42849160849E-01  0.56314542602E-01  0.52269352632E-01  0.87975704826E-01  0.51100000000E-03 0.  1.
</event>
<event>
 8    1  0.1116841E+005  0.1043930E+01  0.7957747E-01            NaN
         13   -1    0    0    0    0  0.00000000000E+00  0.00000000000E+00  0.74505805969E-08  0.10566000000E+00  0.10566000000E+00 0. -1.
     999900   -1    0    0    0    0 -0.00000000000E+00 -0.00000000000E+00 -0.74505805969E-08  0.93827000000E+00  0.93827000000E+00 0. -1.
     999902    2    1    2    0    0 -0.20977996757E-01  0.24954269744E-02 -0.11546456859E-01  0.10198546149E+01  0.10195704053E+01 0.  0.
     999903    2    3    3    0    0  0.11977379249E+00 -0.35172478524E-01 -0.20654232811E-01  0.12782721121E+00  0.18175092283E-01 0.  0.
         14    1    1    2    0    0  0.20977996757E-01 -0.24954269744E-02  0.11546456859E-01  0.24075385141E-01  0.00000000000E+00 0.  1.
     999901    1    3    3    0    0 -0.14075178925E+00  0.37667905498E-01  0.91077759522E-02  0.89202740365E+00  0.88000000000E+00 0.  1.
        -11    1    4    4    0    0  0.35252311989E-01 -0.19094822330E-01 -0.74562747189E-02  0.40782286523E-01  0.51100000000E-03 0. -1.
         11    1    4    4    0    0  0.84521480500E-01 -0.16077656194E-01 -0.13197958092E-01  0.87044924685E-01  0.51100000000E-03 0.  1.
</event>
<event>
 8    1  0.1116841E+005  0.1043930E+01  0.7957747E-01            NaN
         13   -1    0    0    0    0  0.00000000000E+00  0.00000000000E+00  0.74505805969E-08  0.10566000000E+00  0.10566000000E+00 0. -1.
     999900   -1    0    0    0    0 -0.00000000000E+00 -0.00000000000E+00 -0.74505805969E-08  0.93827000000E+00  0.93827000000E+00 0.  1.
     999902    2    1    2    0    0 -0.39999484173E-02 -0.21000524737E-01  0.94201607496E-02  0.10205684706E+01  0.10203010547E+01 0.  0.
     999903    2    3    3    0    0  0.12874942113E+00 -0.53870127885E-02  0.56603342374E-02  0.13046717685E+00  0.19601313844E-01 0.  0.
         14    1    1    2    0    0  0.39999484173E-02  0.21000524737E-01 -0.94201607496E-02  0.23361529383E-01  0.00000000000E+00 0.  1.
     999901    1    3    3    0    0 -0.13274936954E+00 -0.15613511948E-01  0.37598265122E-02  0.89010129377E+00  0.88000000000E+00 0.  1.
        -11    1    4    4    0    0  0.70650459762E-01 -0.12346546085E-01  0.51462962321E-03  0.71724825754E-01  0.51100000000E-03 0.  1.
         11    1    4    4    0    0  0.58098961365E-01  0.69595332963E-02  0.51457046142E-02  0.58742351097E-01  0.51100000000E-03 0. -1.
</event>
<event>
 8    1  0.1116841E+005  0.1043930E+01  0.7957747E-01            NaN
         13   -1    0    0    0    0  0.00000000000E+00  0.00000000000E+00  0.74505805969E-08  0.10566000000E+00  0.10566000000E+00 0. -1.
     999900   -1    0    0    0    0 -0.00000000000E+00 -0.00000000000E+00 -0.74505805969E-08  0.93827000000E+00  0.93827000000E+00 0. -1.
     999902    2    1    2    0    0  0.60590981800E-02  0.19664046625E-01 -0.13568489834E-01  0.10192826611E+01  0.10189846181E+01 0.  0.
     999903    2    3    3    0    0 -0.78909263716E-01 -0.96482139349E-01 -0.17110563356E-01  0.12758646542E+00  0.21214609726E-01 0.  0.
         14    1    1    2    0    0 -0.60590981800E-02 -0.19664046625E-01  0.13568489834E-01  0.24647338939E-01  0.00000000000E+00 0.  1.
     999901    1    3    3    0    0  0.84968361896E-01  0.11614618597E+00  0.35420735219E-02  0.89169619564E+00  0.88000000000E+00 0.  1.
        -11    1    4    4    0    0 -0.23870937875E-01 -0.36522396731E-01 -0.15087881858E-01  0.46169388538E-01  0.51100000000E-03 0.  1.
         11    1    4    4    0    0 -0.55038325841E-01 -0.59959742619E-01 -0.20226814979E-02  0.81417076880E-01  0.51100000000E-03 0. -1.
</event>
<event>
 8    1  0.1116841E+005  0.1043930E+01  0.7957747E-01            NaN
         13   -1    0    0    0    0  0.00000000000E+00  0.00000000000E+00  0.74505805969E-08  0.10566000000E+00  0.10566000000E+00 0. -1.
     999900   -1    0    0    0    0 -0.00000000000E+00 -0.00000000000E+00 -0.74505805969E-08  0.93827000000E+00  0.93827000000E+00 0. -1.
     999902    2    1    2    0    0 -0.16411013142E-01 -0.16434202843E-01  0.50080551703E-02  0.10201711071E+01  0.10198944077E+01 0.  0.
     999903    2    3    3    0    0  0.86284466936E-01  0.84051895944E-01  0.37904244899E-01  0.12791218897E+00  0.20373165175E-01 0.  0.
         14    1    1    2    0    0  0.16411013142E-01  0.16434202843E-01 -0.50080551703E-02  0.23758892904E-01  0.00000000000E+00 0. -1.
     999901    1    3    3    0    0 -0.10269548008E+00 -0.10048609879E+00 -0.32896189729E-01  0.89225891813E+00  0.88000000000E+00 0.  1.
        -11    1    4    4    0    0  0.45356638696E-01  0.45369911579E-01  0.95583432876E-02  0.64863522861E-01  0.51100000000E-03 0.  1.
         11    1    4    4    0    0  0.40927828240E-01  0.38681984365E-01  0.28345901612E-01  0.63048666108E-01  0.51100000000E-03 0. -1.
</event>
<event>
 8    1  0.1116841E+005  0.1043930E+01  0.7957747E-01            NaN
         13   -1    0    0    0    0  0.00000000000E+00  0.00000000000E+00  0.74505805969E-08  0.10566000000E+00  0.10566000000E+00 0.  1.
     999900   -1    0    0    0    0 -0.00000000000E+00 -0.00000000000E+00 -0.74505805969E-08  0.93827000000E+00  0.93827000000E+00 0.  1.
     999902    2    1    2    0    0 -0.35585997762E-02  0.44616148935E-02  0.23582172354E-01  0.10196670964E+01  0.10193783885E+01 0.  0.
     999903    2    3    3    0    0  0.10041293829E+00 -0.39986741299E-01 -0.65569648304E-01  0.12796435205E+00  0.19844368482E-01 0.  0.
         14    1    1    2    0    0  0.35585997762E-02 -0.44616148935E-02 -0.23582172354E-01  0.24262903635E-01  0.00000000000E+00 0. -1.
     999901    1    3    3    0    0 -0.10397153807E+00  0.44448356192E-01  0.89151820658E-01  0.89170274432E+00  0.88000000000E+00 0.  1.
        -11    1    4    4    0    0  0.37342182356E-01 -0.72984459267E-02 -0.30347970572E-01  0.48672028259E-01  0.51100000000E-03 0. -1.
         11    1    4    4    0    0  0.63070755936E-01 -0.32688295372E-01 -0.35221677732E-01  0.79292323789E-01  0.51100000000E-03 0.  1.
</event>
<event>
 8    1  0.1116841E+005  0.1043930E+01  0.7957747E-01            NaN
         13   -1    0    0    0    0  0.00000000000E+00  0.00000000000E+00  0.74505805969E-08  0.10566000000E+00  0.10566000000E+00 0. -1.
     999900   -1    0    0    0    0 -0.00000000000E+00 -0.00000000000E+00 -0.74505805969E-08  0.93827000000E+00  0.93827000000E+00 0. -1.
     999902    2    1    2    0    0  0.22724679397E-01 -0.56702636626E-02  0.57769480708E-02  0.10198066488E+01  0.10195212920E+01 0.  0.
     999903    2    3    3    0    0 -0.11917976816E+00  0.20786702352E-01  0.35236564698E-01  0.12755964696E+00  0.19848020282E-01 0.  0.
         14    1    1    2    0    0 -0.22724679397E-01  0.56702636626E-02 -0.57769480708E-02  0.24123351192E-01  0.00000000000E+00 0. -1.
     999901    1    3    3    0    0  0.14190444756E+00 -0.26456966014E-01 -0.29459616627E-01  0.89224700184E+00  0.88000000000E+00 0. -1.
        -11    1    4    4    0    0 -0.34254679878E-01  0.67373498659E-02  0.19696668931E-01  0.40087340455E-01  0.51100000000E-03 0.  1.
         11    1    4    4    0    0 -0.84925088281E-01  0.14049352486E-01  0.15539895767E-01  0.87472306510E-01  0.51100000000E-03 0. -1.
</event>
<event>
 8    1  0.1116841E+005  0.1043930E+01  0.7957747E-01            NaN
         13   -1    0    0    0    0  0.00000000000E+00  0.00000000000E+00  0.74505805969E-08  0.10566000000E+00  0.10566000000E+00 0.  1.
     999900   -1    0    0    0    0 -0.00000000000E+00 -0.00000000000E+00 -0.74505805969E-08  0.93827000000E+00  0.93827000000E+00 0.  1.
     999902    2    1    2    0    0  0.10914746611E-01 -0.19840762570E-01  0.21767625196E-02  0.10211808056E+01  0.10209273783E+01 0.  0.
     999903    2    3    3    0    0 -0.11828829547E-01 -0.12418199653E+00 -0.43886312482E-01  0.13352875084E+00  0.18515653008E-01 0.  0.
         14    1    1    2    0    0 -0.10914746611E-01  0.19840762570E-01 -0.21767625196E-02  0.22749194448E-01  0.00000000000E+00 0. -1.
     999901    1    3    3    0    0  0.22743576158E-01  0.10434123396E+00  0.46063075001E-01  0.88765205471E+00  0.88000000000E+00 0. -1.
        -11    1    4    4    0    0 -0.65751803705E-02 -0.79882716798E-01 -0.37387363067E-01  0.88445223037E-01  0.51100000000E-03 0.  1.
         11    1    4    4    0    0 -0.52536491763E-02 -0.44299279732E-01 -0.64989494146E-02  0.45083527800E-01  0.51100000000E-03 0. -1.
</event>
<event>
 8    1  0.1116841E+005  0.1043930E+01  0.7957747E-01            NaN
         13   -1    0    0    0    0  0.00000000000E+00  0.00000000000E+00  0.74505805969E-08  0.10566000000E+00  0.10566000000E+00 0. -1.
     999900   -1    0    0    0    0 -0.00000000000E+00 -0.00000000000E+00 -0.74505805969E-08  0.93827000000E+00  0.93827000000E+00 0.  1.
     999902    2    1    2    0    0  0.20899293356E-01 -0.95672718916E-02  0.89050217898E-03  0.10209276925E+01  0.10206685296E+01 0.  0.
     999903    2    3    3    0    0  0.30004631929E-01 -0.67854910064E-01  0.10770512613E+00  0.13250790447E+00  0.21292810862E-01 0.  0.
         14    1    1    2    0    0 -0.20899293356E-01  0.95672718916E-02 -0.89050217898E-03  0.23002307457E-01  0.00000000000E+00 0. -1.
     999901    1    3    3    0    0 -0.91053385727E-02  0.58287638172E-01 -0.10681462395E+00  0.88841978808E+00  0.88000000000E+00 0.  1.
        -11    1    4    4    0    0  0.12179416622E-01 -0.31066624151E-01  0.66815380350E-01  0.74686206878E-01  0.51100000000E-03 0. -1.
         11    1    4    4    0    0  0.17825215307E-01 -0.36788285912E-01  0.40889745781E-01  0.57821697589E-01  0.51100000000E-03 0.  1.
</event>
<event>
 8    1  0.1116841E+005  0.1043930E+01  0.7957747E-01            NaN
         13   -1    0    0    0    0  0.00000000000E+00  0.00000000000E+00  0.74505805969E-08  0.10566000000E+00  0.10566000000E+00 0.  1.
     999900   -1    0    0    0    0 -0.00000000000E+00 -0.00000000000E+00 -0.74505805969E-08  0.93827000000E+00  0.93827000000E+00 0.  1.
     999902    2    1    2    0    0  0.12096560618E-01  0.17556723144E-01  0.66202152663E-02  0.10216052927E+01  0.10213613374E+01 0.  0.
     999903    2    3    3    0    0 -0.49512148039E-01 -0.92572602846E-01  0.74135365332E-01  0.13004351866E+00  0.19852575426E-01 0.  0.
         14    1    1    2    0    0 -0.12096560618E-01 -0.17556723144E-01 -0.66202152663E-02  0.22324707311E-01  0.00000000000E+00 0. -1.
     999901    1    3    3    0    0  0.61608708657E-01  0.11012932599E+00 -0.67515150066E-01  0.89156177403E+00  0.88000000000E+00 0.  1.
        -11    1    4    4    0    0 -0.22028493052E-01 -0.59217652819E-01  0.49728130936E-01  0.80406051010E-01  0.51100000000E-03 0.  1.
         11    1    4    4    0    0 -0.27483654987E-01 -0.33354950026E-01  0.24407234396E-01  0.49637467649E-01  0.51100000000E-03 0. -1.
</event>
<event>
 8    1  0.1116841E+005  0.1043930E+01  0.7957747E-01            NaN
         13   -1    0    0    0    0  0.00000000000E+00  0.00000000000E+00  0.74505805969E-08  0.10566000000E+00  0.10566000000E+00 0.  1.
     999900   -1    0    0    0    0 -0.00000000000E+00 -0.00000000000E+00 -0.74505805969E-08  0.93827000000E+00  0.93827000000E+00 0. -1.
     999902    2    1    2    0    0 -0.99957573691E-02 -0.13438996210E-01  0.18110524038E-01  0.10192619465E+01  0.10189633961E+01 0.  0.
     999903    2    3    3    0    0  0.32484356911E-01 -0.87014520664E-01  0.92036563889E-01  0.13208497580E+00  0.18680243267E-01 0.  0.
         14    1    1    2    0    0  0.99957573691E-02  0.13438996210E-01 -0.18110524038E-01  0.24668053540E-01  0.00000000000E+00 0. -1.
     999901    1    3    3    0    0 -0.42480114280E-01  0.73575524454E-01 -0.73926039851E-01  0.88717697066E+00  0.88000000000E+00 0. -1.
        -11    1    4    4    0    0  0.24194253510E-01 -0.43144860158E-01  0.55895481426E-01  0.74641857062E-01  0.51100000000E-03 0.  1.
         11    1    4    4    0    0  0.82901034014E-02 -0.43869660506E-01  0.36141082463E-01  0.57443118734E-01  0.51100000000E-03 0. -1.
</event>
<event>
 8    1  0.1116841E+005  0.1043930E+01  0.7957747E-01            NaN
         13   -1    0    0    0    0  0.00000000000E+00  0.00000000000E+00  0.74505805969E-08  0.10566000000E+00  0.10566000000E+00 0.  1.
     999900   -1    0    0    0    0 -0.00000000000E+00 -0.00000000000E+00 -0.74505805969E-08  0.93827000000E+00  0.93827000000E+00 0.  1.
     999902    2    1    2    0    0  0.47290079372E-02 -0.21631001876E-01  0.91449183999E-02  0.10199739300E+01  0.10196925637E+01 0.  0.
     999903    2    3    3    0    0  0.12798613003E+00 -0.18932512085E-01  0.78990040265E-02  0.13137888594E+00  0.21427270285E-01 0.  0.
         14    1    1    2    0    0 -0.47290079372E-02  0.21631001876E-01 -0.91449183999E-02  0.23956070019E-01  0.00000000000E+00 0.  1.
     999901    1    3    3    0    0 -0.12325712209E+00 -0.26984897905E-02  0.12459143734E-02  0.88859504404E+00  0.88000000000E+00 0.  1.
        -11    1    4    4    0    0  0.10602885472E+00 -0.74245289958E-02  0.48988599561E-02  0.10640254515E+00  0.51100000000E-03 0.  1.
         11    1    4    4    0    0  0.21957275308E-01 -0.11507983090E-01  0.30001440704E-02  0.24976340788E-01  0.51100000000E-03 0. -1.
</event>
<event>
 8    1  0.1116841E+005  0.1043930E+01  0.7957747E-01            NaN
         13   -1    0    0    0    0  0.00000000000E+00  0.00000000000E+00  0.74505805969E-08  0.10566000000E+00  0.10566000000E+00 0. -1.
     999900   -1    0    0    0    0 -0.00000000000E+00 -0.00000000000E+00 -0.74505805969E-08  0.93827000000E+00  0.93827000000E+00 0. -1.
     999902    2    1    2    0    0  0.35297679564E-02  0.95873918621E-02 -0.73728721331E-02  0.10313309291E+01  0.10312539691E+01 0.  0.
     999903    2    3    3    0    0 -0.45722421737E-01 -0.62934781065E-01  0.11236865312E+00  0.13890542708E+00  0.24832981085E-01 0.  0.
         14    1    1    2    0    0 -0.35297679564E-02 -0.95873918621E-02  0.73728721331E-02  0.12599070919E-01  0.00000000000E+00 0. -1.
     999901    1    3    3    0    0  0.49252189693E-01  0.72522172927E-01 -0.11974152526E+00  0.89242550200E+00  0.88000000000E+00 0. -1.
        -11    1    4    4    0    0 -0.87344759147E-02 -0.21453096135E-01  0.17813665487E-01  0.29225232290E-01  0.51100000000E-03 0. -1.
         11    1    4    4    0    0 -0.36987945822E-01 -0.41481684930E-01  0.94554987636E-01  0.10968019479E+00  0.51100000000E-03 0.  1.
</event>
<event>
 8    1  0.1116841E+005  0.1043930E+01  0.7957747E-01            NaN
         13   -1    0    0    0    0  0.00000000000E+00  0.00000000000E+00  0.74505805969E-08  0.10566000000E+00  0.10566000000E+00 0.  1.
     999900   -1    0    0    0    0 -0.00000000000E+00 -0.00000000000E+00 -0.74505805969E-08  0.93827000000E+00  0.93827000000E+00 0.  1.
     999902    2    1    2    0    0  0.22840939987E-01  0.47479234005E-03 -0.46241287925E-02  0.10206208487E+01  0.10203546444E+01 0.  0.
     999903    2    3    3    0    0 -0.79198252844E-01  0.98796545786E-01  0.34816961588E-02  0.12924838532E+00  0.25688561395E-01 0.  0.
         14    1    1    2    0    0 -0.22840939987E-01 -0.47479234005E-03  0.46241287925E-02  0.23309151301E-01  0.00000000000E+00 0.  1.
     999901    1    3    3    0    0  0.10203919283E+00 -0.98321753446E-01 -0.81058249513E-02  0.89137246338E+00  0.88000000000E+00 0. -1.
        -11    1    4    4    0    0 -0.13942654054E-01  0.27726397878E-01 -0.80772119211E-02  0.32072624070E-01  0.51100000000E-03 0. -1.
         11    1    4    4    0    0 -0.65255598791E-01  0.71070147909E-01  0.11558908080E-01  0.97175761249E-01  0.51100000000E-03 0.  1.
</event>
<event>
 8    1  0.1116841E+005  0.1043930E+01  0.7957747E-01            NaN
         13   -1    0    0    0    0  0.00000000000E+00  0.00000000000E+00  0.74505805969E-08  0.10566000000E+00  0.10566000000E+00 0.  1.
     999900   -1    0    0    0    0 -0.00000000000E+00 -0.00000000000E+00 -0.74505805969E-08  0.93827000000E+00  0.93827000000E+00 0. -1.
     999902    2    1    2    0    0 -0.63875461989E-02 -0.21443835386E-01 -0.74852461134E-02  0.10203361929E+01  0.10200633700E+01 0.  0.
     999903    2    3    3    0    0 -0.10131446357E+00  0.61242518498E-01  0.47803667214E-01  0.12965947454E+00  0.22608010464E-01 0.  0.
         14    1    1    2    0    0  0.63875461989E-02  0.21443835386E-01  0.74852461134E-02  0.23593807066E-01  0.00000000000E+00 0. -1.
     999901    1    3    3    0    0  0.94926917372E-01 -0.82686353884E-01 -0.55288913327E-01  0.89067671840E+00  0.88000000000E+00 0.  1.
        -11    1    4    4    0    0 -0.50444690079E-01  0.32631298765E-01  0.36222462279E-01  0.70155515184E-01  0.51100000000E-03 0. -1.
         11    1    4    4    0    0 -0.50869773492E-01  0.28611219733E-01  0.11581204935E-01  0.59503959351E-01  0.51100000000E-03 0.  1.
</event>
<event>
 8    1  0.1116841E+005  0.1043930E+01  0.7957747E-01            NaN
         13   -1    0    0    0    0  0.00000000000E+00  0.00000000000E+00  0.74505805969E-08  0.10566000000E+00  0.10566000000E+00 0.  1.
     999900   -1    0    0    0    0 -0.00000000000E+00 -0.00000000000E+00 -0.74505805969E-08  0.93827000000E+00  0.93827000000E+00 0. -1.
     999902    2    1    2    0    0  0.19837117317E-01 -0.38246416950E-02  0.11583520480E-01  0.10206422982E+01  0.10203765892E+01 0.  0.
     999903    2    3    3    0    0  0.36761455484E-01  0.62336243117E-01 -0.10624552607E+00  0.13016636923E+00  0.20444071352E-01 0.  0.
         14    1    1    2    0    0 -0.19837117317E-01  0.38246416950E-02 -0.11583520480E-01  0.23287701782E-01  0.00000000000E+00 0. -1.
     999901    1    3    3    0    0 -0.16924338167E-01 -0.66160884812E-01  0.11782904655E+00  0.89047592899E+00  0.88000000000E+00 0.  1.
        -11    1    4    4    0    0  0.15671515613E-01  0.14266199906E-01 -0.43244404210E-01  0.48160777380E-01  0.51100000000E-03 0. -1.
         11    1    4    4    0    0  0.21089939871E-01  0.48070043211E-01 -0.63001121857E-01  0.82005591847E-01  0.51100000000E-03 0.  1.
</event>
<event>
 8    1  0.1116841E+005  0.1043930E+01  0.7957747E-01            NaN
         13   -1    0    0    0    0  0.00000000000E+00  0.00000000000E+00  0.74505805969E-08  0.10566000000E+00  0.10566000000E+00 0. -1.
     999900   -1    0    0    0    0 -0.00000000000E+00 -0.00000000000E+00 -0.74505805969E-08  0.93827000000E+00  0.93827000000E+00 0.  1.
     999902    2    1    2    0    0 -0.60472790260E-02 -0.83189394736E-02 -0.21374257067E-01  0.10202101096E+01  0.10199343285E+01 0.  0.
     999903    2    3    3    0    0  0.38368642087E-02 -0.32841442643E-01 -0.12769146084E+00  0.13341678681E+00  0.20041156398E-01 0.  0.
         14    1    1    2    0    0  0.60472790260E-02  0.83189394736E-02  0.21374257067E-01  0.23719890446E-01  0.00000000000E+00 0. -1.
     999901    1    3    3    0    0 -0.98841432347E-02  0.24522503170E-01  0.10631720377E+00  0.88679332275E+00  0.88000000000E+00 0. -1.
        -11    1    4    4    0    0 -0.28034938375E-02  0.15119679828E-02 -0.62385231101E-02  0.70232411658E-02  0.51100000000E-03 0.  1.
         11    1    4    4    0    0  0.66403580462E-02 -0.34353410626E-01 -0.12145293773E+00  0.12639354564E+00  0.51100000000E-03 0. -1.
</event>
<event>
 8    1  0.1116841E+005  0.1043930E+01  0.7957747E-01            NaN
         13   -1    0    0    0    0  0.00000000000E+00  0.00000000000E+00  0.74505805969E-08  0.10566000000E+00  0.10566000000E+00 0. -1.
     999900   -1    0    0    0    0 -0.00000000000E+00 -0.00000000000E+00 -0.74505805969E-08  0.93827000000E+00  0.93827000000E+00 0. -1.
     999902    2    1    2    0    0 -0.18608333815E-01  0.15770903299E-01  0.42968777014E-02  0.10191619836E+01  0.10188609788E+01 0.  0.
     999903    2    3    3    0    0  0.14205391930E-01 -0.87636125024E-01 -0.89438662386E-01  0.12755887371E+00  0.19751161042E-01 0.  0.
         14    1    1    2    0    0  0.18608333815E-01 -0.15770903299E-01 -0.42968777014E-02  0.24768016397E-01  0.00000000000E+00 0.  1.
     999901    1    3    3    0    0 -0.32813725746E-01  0.10340702832E+00  0.93735540087E-01  0.89160310990E+00  0.88000000000E+00 0.  1.
        -11    1    4    4    0    0  0.17834837337E-02 -0.10034822267E-01 -0.20989752306E-01  0.23339008013E-01  0.51100000000E-03 0.  1.
         11    1    4    4    0    0  0.12421908197E-01 -0.77601302758E-01 -0.68448910080E-01  0.10421986569E+00  0.51100000000E-03 0. -1.
</event>
<event>
 8    1  0.1116841E+005  0.1043930E+01  0.7957747E-01            NaN
         13   -1    0    0    0    0  0.00000000000E+00  0.00000000000E+00  0.74505805969E-08  0.10566000000E+00  0.10566000000E+00 0. -1.
     999900   -1    0    0    0    0 -0.00000000000E+00 -0.00000000000E+00 -0.74505805969E-08  0.93827000000E+00  0.93827000000E+00 0.  1.
     999902    2    1    2    0    0  0.13108239821E-01 -0.12466064601E-01 -0.15528474851E-01  0.10200896508E+01  0.10198110283E+01 0.  0.
     999903    2    3    3    0    0  0.18508745919E-01 -0.12806707662E+00 -0.20546205623E-01  0.13249856419E+00  0.19747738047E-01 0.  0.
         14    1    1    2    0    0 -0.13108239821E-01  0.12466064601E-01  0.15528474851E-01  0.23840349181E-01  0.00000000000E+00 0.  1.
     999901    1    3    3    0    0 -0.54005060979E-02  0.11560101201E+00  0.50177307718E-02  0.88759108663E+00  0.88000000000E+00 0.  1.
        -11    1    4    4    0    0  0.17198834646E-02 -0.89875259113E-02 -0.68929419402E-02  0.11467667188E-01  0.51100000000E-03 0.  1.
         11    1    4    4    0    0  0.16788862454E-01 -0.11907955070E+00 -0.13653263683E-01  0.12103089700E+00  0.51100000000E-03 0. -1.
</event>
<event>
 8    1  0.1116841E+005  0.1043930E+01  0.7957747E-01            NaN
         13   -1    0    0    0    0  0.00000000000E+00  0.00000000000E+00  0.74505805969E-08  0.10566000000E+00  0.10566000000E+00 0. -1.
     999900   -1    0    0    0    0 -0.00000000000E+00 -0.00000000000E+00 -0.74505805969E-08  0.93827000000E+00  0.93827000000E+00 0. -1.
     999902    2    1    2    0    0  0.55824587619E-02  0.17852648980E-01 -0.14881617916E-01  0.10200272078E+01  0.10197471065E+01 0.  0.
     999903    2    3    3    0    0 -0.10065995376E+00  0.67399391471E-01 -0.47194001528E-01  0.13166555848E+00  0.20819251884E-01 0.  0.
         14    1    1    2    0    0 -0.55824587619E-02 -0.17852648980E-01  0.14881617916E-01  0.23902792164E-01  0.00000000000E+00 0. -1.
     999901    1    3    3    0    0  0.10624241252E+00 -0.49546742491E-01  0.32312383612E-01  0.88836164935E+00  0.88000000000E+00 0. -1.
        -11    1    4    4    0    0 -0.53706410723E-01  0.38547218831E-01 -0.36529886781E-01  0.75531188138E-01  0.51100000000E-03 0. -1.
         11    1    4    4    0    0 -0.46953543034E-01  0.28852172641E-01 -0.10664114747E-01  0.56134370343E-01  0.51100000000E-03 0.  1.
</event>
<event>
 8    1  0.1116841E+005  0.1043930E+01  0.7957747E-01            NaN
         13   -1    0    0    0    0  0.00000000000E+00  0.00000000000E+00  0.74505805969E-08  0.10566000000E+00  0.10566000000E+00 0. -1.
     999900   -1    0    0    0    0 -0.00000000000E+00 -0.00000000000E+00 -0.74505805969E-08  0.93827000000E+00  0.93827000000E+00 0. -1.
     999902    2    1    2    0    0 -0.18714228383E-01  0.16506592728E-01  0.19569789363E-01  0.10122177531E+01  0.10117208672E+01 0.  0.
     999903    2    3    3    0    0  0.10286624198E+00  0.62196527731E-01  0.65267117286E-02  0.12258889633E+00  0.23142336439E-01 0.  0.
         14    1    1    2    0    0  0.18714228383E-01 -0.16506592728E-01 -0.19569789363E-01  0.31712246896E-01  0.00000000000E+00 0.  1.
     999901    1    3    3    0    0 -0.12158047036E+00 -0.45689935002E-01  0.13043077634E-01  0.88962885678E+00  0.88000000000E+00 0.  1.
        -11    1    4    4    0    0  0.37805650433E-01  0.35755592116E-01 -0.18645227673E-03  0.52038691929E-01  0.51100000000E-03 0. -1.
         11    1    4    4    0    0  0.65060591548E-01  0.26440935615E-01  0.67131640053E-02  0.70550204399E-01  0.51100000000E-03 0.  1.
</event>
<event>
 8    1  0.1116841E+005  0.1043930E+01  0.7957747E-01            NaN
         13   -1    0    0    0    0  0.00000000000E+00  0.00000000000E+00  0.74505805969E-08  0.10566000000E+00  0.10566000000E+00 0.  1.
     999900   -1    0    0    0    0 -0.00000000000E+00 -0.00000000000E+00 -0.74505805969E-08  0.93827000000E+00  0.93827000000E+00 0.  1.
     999902    2    1    2    0    0 -0.42052016946E-02  0.23423647305E-01  0.31841145501E-02  0.10199198030E+01  0.10196371487E+01 0.  0.
     999903    2    3    3    0    0 -0.98138457082E-01 -0.20685062438E-01  0.81055305286E-01  0.13040703913E+00  0.19416610767E-01 0.  0.
         14    1    1    2    0    0  0.42052016946E-02 -0.23423647305E-01 -0.31841145501E-02  0.24010196997E-01  0.00000000000E+00 0. -1.
     999901    1    3    3    0    0  0.93933255387E-01  0.44108709744E-01 -0.77871190735E-01  0.88951276387E+00  0.88000000000E+00 0.  1.
        -11    1    4    4    0    0 -0.85963149881E-01 -0.19899439067E-01  0.78114824798E-01  0.11784667067E+00  0.51100000000E-03 0.  1.
         11    1    4    4    0    0 -0.12175307201E-01 -0.78562337160E-03  0.29404804875E-02  0.12560368467E-01  0.51100000000E-03 0. -1.
</event>
<event>
 8    1  0.1116841E+005  0.1043930E+01  0.7957747E-01            NaN
         13   -1    0    0    0    0  0.00000000000E+00  0.00000000000E+00  0.74505805969E-08  0.10566000000E+00  0.10566000000E+00 0. -1.
     999900   -1    0    0    0    0 -0.00000000000E+00 -0.00000000000E+00 -0.74505805969E-08  0.93827000000E+00  0.93827000000E+00 0.  1.
     999902    2    1    2    0    0 -0.54035859688E-02  0.22681931138E-01  0.43451721422E-02  0.10202118790E+01  0.10199361396E+01 0.  0.
     999903    2    3    3    0    0 -0.68919440387E-01 -0.98867095837E-01  0.40844366001E-01  0.12884179827E+00  0.20183033584E-01 0.  0.
         14    1    1    2    0    0  0.54035859688E-02 -0.22681931138E-01 -0.43451721422E-02  0.23718120972E-01  0.00000000000E+00 0.  1.
     999901    1    3    3    0    0  0.63515854419E-01  0.12154902697E+00 -0.36499193859E-01  0.89137008076E+00  0.88000000000E+00 0.  1.
        -11    1    4    4    0    0 -0.57460925188E-01 -0.66788613228E-01  0.28342014198E-01  0.92552729134E-01  0.51100000000E-03 0.  1.
         11    1    4    4    0    0 -0.11458515199E-01 -0.32078482609E-01  0.12502351803E-01  0.36289069135E-01  0.51100000000E-03 0. -1.
</event>
<event>
 8    1  0.1116841E+005  0.1043930E+01  0.7957747E-01            NaN
         13   -1    0    0    0    0  0.00000000000E+00  0.00000000000E+00  0.74505805969E-08  0.10566000000E+00  0.10566000000E+00 0.  1.
     999900   -1    0    0    0    0 -0.00000000000E+00 -0.00000000000E+00 -0.74505805969E-08  0.93827000000E+00  0.93827000000E+00 0. -1.
     999902    2    1    2    0    0  0.10236774699E-01 -0.16991737521E-02 -0.22016019144E-01  0.10195910632E+01  0.10193005211E+01 0.  0.
     999903    2    3    3    0    0  0.38506823893E-01  0.92563072466E-01  0.77760060851E-01  0.12850193581E+00  0.20381917766E-01 0.  0.
         14    1    1    2    0    0 -0.10236774699E-01  0.16991737521E-02  0.22016019144E-01  0.24338936843E-01  0.00000000000E+00 0.  1.
     999901    1    3    3    0    0 -0.28270049194E-01 -0.94262246218E-01 -0.99776079996E-01  0.89108912735E+00  0.88000000000E+00 0. -1.
        -11    1    4    4    0    0  0.34897930097E-01  0.85815233096E-01  0.63514397352E-01  0.11232301433E+00  0.51100000000E-03 0.  1.
         11    1    4    4    0    0  0.36088937960E-02  0.67478393701E-02  0.14245663499E-01  0.16178921476E-01  0.51100000000E-03 0. -1.
</event>
<event>
 8    1  0.1116841E+005  0.1043930E+01  0.7957747E-01            NaN
         13   -1    0    0    0    0  0.00000000000E+00  0.00000000000E+00  0.74505805969E-08  0.10566000000E+00  0.10566000000E+00 0.  1.
     999900   -1    0    0    0    0 -0.00000000000E+00 -0.00000000000E+00 -0.74505805969E-08  0.93827000000E+00  0.93827000000E+00 0. -1.
     999902    2    1    2    0    0  0.59638621999E-03 -0.19808126233E-01  0.12966558569E-01  0.10202477454E+01  0.10199728491E+01 0.  0.
     999903    2    3    3    0    0  0.50664484588E-01  0.28637057636E-01 -0.11277292409E+00  0.12858403761E+00  0.20715966051E-01 0.  0.
         14    1    1    2    0    0 -0.59638621999E-03  0.19808126233E-01 -0.12966558569E-01  0.23682254591E-01  0.00000000000E+00 0.  1.
     999901    1    3    3    0    0 -0.50068098368E-01 -0.48445183869E-01  0.12573948266E+00  0.89166370780E+00  0.88000000000E+00 0.  1.
        -11    1    4    4    0    0  0.25391448718E-01  0.91930158801E-02 -0.32815491986E-01  0.42501233444E-01  0.51100000000E-03 0.  1.
         11    1    4    4    0    0  0.25273035870E-01  0.19444041756E-01 -0.79957432108E-01  0.86082804161E-01  0.51100000000E-03 0. -1.
</event>
<event>
 8    1  0.1116841E+005  0.1043930E+01  0.7957747E-01            NaN
         13   -1    0    0    0    0  0.00000000000E+00  0.00000000000E+00  0.74505805969E-08  0.10566000000E+00  0.10566000000E+00 0. -1.
     999900   -1    0    0    0    0 -0.00000000000E+00 -0.00000000000E+00 -0.74505805969E-08  0.93827000000E+00  0.93827000000E+00 0.  1.
     999902    2    1    2    0    0  0.75015949447E-02  0.22573773470E-01 -0.90570356791E-03  0.10201251796E+01  0.10198473967E+01 0.  0.
     999903    2    3    3    0    0  0.63707302056E-01  0.11433947174E+00 -0.13464335233E-01  0.13348108859E+00  0.22444989554E-01 0.  0.
         14    1    1    2    0    0 -0.75015949447E-02 -0.22573773470E-01  0.90570356791E-03  0.23804820402E-01  0.00000000000E+00 0. -1.
     999901    1    3    3    0    0 -0.56205707112E-01 -0.91765698265E-01  0.12558631665E-01  0.88664409101E+00  0.88000000000E+00 0. -1.
        -11    1    4    4    0    0  0.14289964443E-01  0.36693929644E-01  0.47186345007E-02  0.39663259940E-01  0.51100000000E-03 0.  1.
         11    1    4    4    0    0  0.49417337613E-01  0.77645542091E-01 -0.18182969733E-01  0.93817828650E-01  0.51100000000E-03 0. -1.
</event>
<event>
 8    1  0.1116841E+005  0.1043930E+01  0.7957747E-01            NaN
         13   -1    0    0    0    0  0.00000000000E+00  0.00000000000E+00  0.74505805969E-08  0.10566000000E+00  0.10566000000E+00 0. -1.
     999900   -1    0    0    0    0 -0.00000000000E+00 -0.00000000000E+00 -0.74505805969E-08  0.93827000000E+00  0.93827000000E+00 0. -1.
     999902    2    1    2    0    0 -0.21543183464E-01 -0.33681151073E-02  0.84054676905E-02  0.10205611138E+01  0.10202935275E+01 0.  0.
     999903    2    3    3    0    0  0.42098178152E-01 -0.35808081759E-01  0.11701279201E+00  0.13101171935E+00  0.20435307455E-01 0.  0.
         14    1    1    2    0    0  0.21543183464E-01  0.33681151073E-02 -0.84054676905E-02  0.23368886157E-01  0.00000000000E+00 0.  1.
     999901    1    3    3    0    0 -0.63641361616E-01  0.32439966651E-01 -0.10860732432E+00  0.88954939449E+00  0.88000000000E+00 0. -1.
        -11    1    4    4    0    0  0.14287477077E-01 -0.23722970060E-01  0.67323915343E-01  0.72798914880E-01  0.51100000000E-03 0.  1.
         11    1    4    4    0    0  0.27810701075E-01 -0.12085111699E-01  0.49688876666E-01  0.58212804471E-01  0.51100000000E-03 0. -1.
</event>
<event>
 8    1  0.1116841E+005  0.1043930E+01  0.7957747E-01            NaN
         13   -1    0    0    0    0  0.00000000000E+00  0.00000000000E+00  0.74505805969E-08  0.10566000000E+00  0.10566000000E+00 0. -1.
     999900   -1    0    0    0    0 -0.00000000000E+00 -0.00000000000E+00 -0.74505805969E-08  0.93827000000E+00  0.93827000000E+00 0.  1.
     999902    2    1    2    0    0  0.27651771341E-01 -0.51246911321E-02 -0.96123394943E-02  0.10142099733E+01  0.10137744275E+01 0.  0.
     999903    2    3    3    0    0  0.11374962243E-01  0.38558529462E-01  0.11562766968E+00  0.12412109111E+00  0.20497251094E-01 0.  0.
         14    1    1    2    0    0 -0.27651771341E-01  0.51246911321E-02  0.96123394943E-02  0.29720026717E-01  0.00000000000E+00 0. -1.
     999901    1    3    3    0    0  0.16276809098E-01 -0.43683220594E-01 -0.12524000917E+00  0.89008888218E+00  0.88000000000E+00 0.  1.
        -11    1    4    4    0    0 -0.74488088250E-03  0.28317759442E-01  0.61479794652E-01  0.67693992487E-01  0.51100000000E-03 0. -1.
         11    1    4    4    0    0  0.12119843125E-01  0.10240770019E-01  0.54147875025E-01  0.56427098620E-01  0.51100000000E-03 0.  1.
</event>
<event>
 8    1  0.1116841E+005  0.1043930E+01  0.7957747E-01            NaN
         13   -1    0    0    0    0  0.00000000000E+00  0.00000000000E+00  0.74505805969E-08  0.10566000000E+00  0.10566000000E+00 0. -1.
     999900   -1    0    0    0    0 -0.00000000000E+00 -0.00000000000E+00 -0.74505805969E-08  0.93827000000E+00  0.93827000000E+00 0.  1.
     999902    2    1    2    0    0  0.15968526047E-01 -0.10668403932E-01  0.13986865097E-01  0.10201720316E+01  0.10198953540E+01 0.  0.
     999903    2    3    3    0    0  0.11119996691E+00 -0.60882807479E-01 -0.32053000182E-01  0.13241633163E+00  0.20845651232E-01 0.  0.
         14    1    1    2    0    0 -0.15968526047E-01  0.10668403932E-01 -0.13986865097E-01  0.23757968386E-01  0.00000000000E+00 0.  1.
     999901    1    3    3    0    0 -0.95231440863E-01  0.50214403547E-01  0.46039865279E-01  0.88775569998E+00  0.88000000000E+00 0.  1.
        -11    1    4    4    0    0  0.58812698162E-01 -0.39390463467E-01 -0.93251775871E-02  0.71398614379E-01  0.51100000000E-03 0.  1.
         11    1    4    4    0    0  0.52387268748E-01 -0.21492344012E-01 -0.22727822595E-01  0.61017717254E-01  0.51100000000E-03 0. -1.
</event>
<event>
 8    1  0.1116841E+005  0.1043930E+01  0.7957747E-01            NaN
         13   -1    0    0    0    0  0.00000000000E+00  0.00000000000E+00  0.74505805969E-08  0.10566000000E+00  0.10566000000E+00 0. -1.
     999900   -1    0    0    0    0 -0.00000000000E+00 -0.00000000000E+00 -0.74505805969E-08  0.93827000000E+00  0.93827000000E+00 0. -1.
     999902    2    1    2    0    0 -0.14661794743E-01  0.16800698934E-02  0.17443940509E-01  0.10210808880E+01  0.10208252044E+01 0.  0.
     999903    2    3    3    0    0  0.15155679465E-01 -0.73126448451E-01  0.10820341262E+00  0.13275528397E+00  0.18406923570E-01 0.  0.
         14    1    1    2    0    0  0.14661794743E-01 -0.16800698934E-02 -0.17443940509E-01  0.22849112027E-01  0.00000000000E+00 0.  1.
     999901    1    3    3    0    0 -0.29817474209E-01  0.74806518345E-01 -0.90759472111E-01  0.88832560401E+00  0.88000000000E+00 0. -1.
        -11    1    4    4    0    0  0.67299151756E-02 -0.62094560937E-01  0.94237418238E-01  0.11305741185E+00  0.51100000000E-03 0. -1.
         11    1    4    4    0    0  0.84257642896E-02 -0.11031887514E-01  0.13965994382E-01  0.19697872120E-01  0.51100000000E-03 0.  1.
</event>
<event>
 8    1  0.1116841E+005  0.1043930E+01  0.7957747E-01            NaN
         13   -1    0    0    0    0  0.00000000000E+00  0.00000000000E+00  0.74505805969E-08  0.10566000000E+00  0.10566000000E+00 0.  1.
     999900   -1    0    0    0    0 -0.00000000000E+00 -0.00000000000E+00 -0.74505805969E-08  0.93827000000E+00  0.93827000000E+00 0. -1.
     999902    2    1    2    0    0  0.22954085427E-01  0.45302518452E-02 -0.25131529004E-02  0.10203985496E+01  0.10201271837E+01 0.  0.
     999903    2    3    3    0    0 -0.19811300915E-01 -0.35278410956E-01  0.12063807890E+00  0.12990439815E+00  0.26163957170E-01 0.  0.
         14    1    1    2    0    0 -0.22954085427E-01 -0.45302518452E-02  0.25131529004E-02  0.23531450382E-01  0.00000000000E+00 0. -1.
     999901    1    3    3    0    0  0.42765386342E-01  0.39808662801E-01 -0.12315123180E+00  0.89049415147E+00  0.88000000000E+00 0. -1.
        -11    1    4    4    0    0 -0.39205558139E-02 -0.22329253946E-01  0.33968533645E-01  0.40842242087E-01  0.51100000000E-03 0. -1.
         11    1    4    4    0    0 -0.15890745101E-01 -0.12949157010E-01  0.86669545255E-01  0.89062156064E-01  0.51100000000E-03 0.  1.
</event>
<event>
 8    1  0.1116841E+005  0.1043930E+01  0.7957747E-01            NaN
         13   -1    0    0    0    0  0.00000000000E+00  0.00000000000E+00  0.74505805969E-08  0.10566000000E+00  0.10566000000E+00 0.  1.
     999900   -1    0    0    0    0 -0.00000000000E+00 -0.00000000000E+00 -0.74505805969E-08  0.93827000000E+00  0.93827000000E+00 0.  1.
     999902    2    1    2    0    0 -0.31054700289E-02  0.52465830368E-03 -0.23117092195E-01  0.10205993514E+01  0.10203326502E+01 0.  0.
     999903    2    3    3    0    0  0.31840550193E-01 -0.11819593438E+00 -0.43342443049E-01  0.13170966860E+00  0.22017490595E-01 0.  0.
         14    1    1    2    0    0  0.31054700289E-02 -0.52465830368E-03  0.23117092195E-01  0.23330648555E-01  0.00000000000E+00 0.  1.
     999901    1    3    3    0    0 -0.34946020222E-01  0.11872059268E+00  0.20225350854E-01  0.88888968285E+00  0.88000000000E+00 0. -1.
        -11    1    4    4    0    0  0.53716909707E-02 -0.36077086180E-01 -0.34137668216E-02  0.36637769256E-01  0.51100000000E-03 0.  1.
         11    1    4    4    0    0  0.26468859223E-01 -0.82118848200E-01 -0.39928676227E-01  0.95071899342E-01  0.51100000000E-03 0. -1.
</event>
<event>
 8    1  0.1116841E+005  0.1043930E+01  0.7957747E-01            NaN
         13   -1    0    0    0    0  0.00000000000E+00  0.00000000000E+00  0.74505805969E-08  0.10566000000E+00  0.10566000000E+00 0. -1.
     999900   -1    0    0    0    0 -0.00000000000E+00 -0.00000000000E+00 -0.74505805969E-08  0.93827000000E+00  0.93827000000E+00 0.  1.
     999902    2    1    2    0    0 -0.14161523769E-01 -0.94736377151E-02 -0.16904070598E-01  0.10199290381E+01  0.10196466038E+01 0.  0.
     999903    2    3    3    0    0  0.98525036682E-01  0.77260359841E-01 -0.20704011411E-01  0.12850574544E+00  0.20216935125E-01 0.  0.
         14    1    1    2    0    0  0.14161523769E-01  0.94736377151E-02  0.16904070598E-01  0.24000961851E-01  0.00000000000E+00 0. -1.
     999901    1    3    3    0    0 -0.11268656045E+00 -0.86733997556E-01  0.37999408137E-02  0.89142329271E+00  0.88000000000E+00 0. -1.
        -11    1    4    4    0    0  0.54637772380E-01  0.48697071636E-01 -0.30892729869E-02  0.73256369588E-01  0.51100000000E-03 0. -1.
         11    1    4    4    0    0  0.43887264302E-01  0.28563288206E-01 -0.17614738424E-01  0.55249375850E-01  0.51100000000E-03 0.  1.
</event>
<event>
 8    1  0.1116841E+005  0.1043930E+01  0.7957747E-01            NaN
         13   -1    0    0    0    0  0.00000000000E+00  0.00000000000E+00  0.74505805969E-08  0.10566000000E+00  0.10566000000E+00 0. -1.
     999900   -1    0    0    0    0 -0.00000000000E+00 -0.00000000000E+00 -0.74505805969E-08  0.93827000000E+00  0.93827000000E+00 0. -1.
     999902    2    1    2    0    0  0.19274902021E-01  0.13337396300E-01 -0.16260503751E-02  0.10204342126E+01  0.10201636781E+01 0.  0.
     999903    2    3    3    0    0 -0.10930923391E+00  0.51147783310E-01 -0.42179726312E-01  0.12936288768E+00  0.19774302556E-01 0.  0.
         14    1    1    2    0    0 -0.19274902021E-01 -0.13337396300E-01  0.16260503751E-02  0.23495787449E-01  0.00000000000E+00 0.  1.
     999901    1    3    3    0    0  0.12858413593E+00 -0.37810387009E-01  0.40553675937E-01  0.89107132487E+00  0.88000000000E+00 0.  1.
        -11    1    4    4    0    0 -0.78654611286E-01  0.31771457948E-01 -0.21107693523E-01  0.87417213772E-01  0.51100000000E-03 0. -1.
         11    1    4    4    0    0 -0.30654622622E-01  0.19376325362E-01 -0.21072032789E-01  0.41945673907E-01  0.51100000000E-03 0.  1.
</event>
<event>
 8    1  0.1116841E+005  0.1043930E+01  0.7957747E-01            NaN
         13   -1    0    0    0    0  0.00000000000E+00  0.00000000000E+00  0.74505805969E-08  0.10566000000E+00  0.10566000000E+00 0.  1.
     999900   -1    0    0    0    0 -0.00000000000E+00 -0.00000000000E+00 -0.74505805969E-08  0.93827000000E+00  0.93827000000E+00 0.  1.
     999902    2    1    2    0    0 -0.97474939683E-02 -0.54241659701E-02  0.20855949291E-01  0.10202782382E+01  0.10200040576E+01 0.  0.
     999903    2    3    3    0    0 -0.54370177266E-01 -0.31626210168E-01 -0.11090200151E+00  0.12896578537E+00  0.19405837039E-01 0.  0.
         14    1    1    2    0    0  0.97474939683E-02  0.54241659701E-02 -0.20855949291E-01  0.23651761794E-01  0.00000000000E+00 0. -1.
     999901    1    3    3    0    0  0.44622683298E-01  0.26202044198E-01  0.13175795080E+00  0.89131245284E+00  0.88000000000E+00 0. -1.
        -11    1    4    4    0    0 -0.17437054312E-01 -0.15598819335E-01 -0.25878164934E-01  0.34890035384E-01  0.51100000000E-03 0. -1.
         11    1    4    4    0    0 -0.36933122954E-01 -0.16027390833E-01 -0.85023836576E-01  0.94075749984E-01  0.51100000000E-03 0.  1.
</event>
<event>
 7    1  0.1116841E+005  0.1043930E+01  0.7957747E-01            NaN
         13   -1    0    0    0    0  0.00000000000E+00  0.00000000000E+00  0.74505805969E-08  0.10566000000E+00  0.10566000000E+00 0. -1.
     999900   -1    0    0    0    0 -0.00000000000E+00 -0.00000000000E+00 -0.74505805969E-08  0.93827000000E+00  0.93827000000E+00 0.  1.
     999902    2    1    2    0    0  0.11803429300E-01  0.16063933755E-01  0.12479405883E-01  0.10204117840E+01  0.10201407268E+01 0.  0.
         14    1    1    2    0    0 -0.11803429300E-01 -0.16063933755E-01 -0.12479405883E-01  0.23518215964E-01  0.00000000000E+00 0.  1.
     999901    1    3    3    0    0  0.71589882936E-01  0.92514166983E-01  0.88043670701E-01  0.89209622260E+00  0.88000000000E+00 0. -1.
        -11    1    3    3    0    0 -0.26235666556E-02 -0.12348724316E-01 -0.26604957153E-01  0.29452656252E-01  0.51100000000E-03 0.  1.
         11    1    3    3    0    0 -0.57162886981E-01 -0.64101508912E-01 -0.48959307665E-01  0.98862905181E-01  0.51100000000E-03 0. -1.
</event>
<event>
 8    1  0.1116841E+005  0.1043930E+01  0.7957747E-01            NaN
         13   -1    0    0    0    0  0.00000000000E+00  0.00000000000E+00  0.74505805969E-08  0.10566000000E+00  0.10566000000E+00 0.  1.
     999900   -1    0    0    0    0 -0.00000000000E+00 -0.00000000000E+00 -0.74505805969E-08  0.93827000000E+00  0.93827000000E+00 0.  1.
     999902    2    1    2    0    0 -0.15186442651E-01  0.18114712814E-01  0.24983837543E-02  0.10201600025E+01  0.10198830413E+01 0.  0.
     999903    2    3    3    0    0  0.49941717746E-01 -0.75878333144E-01  0.89047317727E-01  0.12855073383E+00  0.18551812916E-01 0.  0.
         14    1    1    2    0    0  0.15186442651E-01 -0.18114712814E-01 -0.24983837543E-02  0.23769997520E-01  0.00000000000E+00 0.  1.
     999901    1    3    3    0    0 -0.65128160397E-01  0.93993045958E-01 -0.86548933972E-01  0.89160926865E+00  0.88000000000E+00 0.  1.
        -11    1    4    4    0    0  0.38365431432E-01 -0.63443176906E-01  0.62215350221E-01  0.96788191165E-01  0.51100000000E-03 0. -1.
         11    1    4    4    0    0  0.11576286314E-01 -0.12435156239E-01  0.26831967506E-01  0.31762542668E-01  0.51100000000E-03 0.  1.
</event>
<event>
 8    1  0.1116841E+005  0.1043930E+01  0.7957747E-01            NaN
         13   -1    0    0    0    0  0.00000000000E+00  0.00000000000E+00  0.74505805969E-08  0.10566000000E+00  0.10566000000E+00 0.  1.
     999900   -1    0    0    0    0 -0.00000000000E+00 -0.00000000000E+00 -0.74505805969E-08  0.93827000000E+00  0.93827000000E+00 0.  1.
     999902    2    1    2    0    0  0.22204737906E-01  0.13369647790E-02 -0.89129441649E-02  0.10199658928E+01  0.10196843355E+01 0.  0.
     999903    2    3    3    0    0 -0.35544677455E-01  0.11265319755E+00 -0.50501536015E-01  0.13010303279E+00  0.20548162637E-01 0.  0.
         14    1    1    2    0    0 -0.22204737906E-01 -0.13369647790E-02  0.89129441649E-02  0.23964107201E-01  0.00000000000E+00 0.  1.
     999901    1    3    3    0    0  0.57749415360E-01 -0.11131623277E+00  0.41588591850E-01  0.88986286001E+00  0.88000000000E+00 0.  1.
        -11    1    4    4    0    0 -0.42382360562E-03  0.27039235842E-01 -0.15442650374E-01  0.31145408537E-01  0.51100000000E-03 0.  1.
         11    1    4    4    0    0 -0.35120853849E-01  0.85613961707E-01 -0.35058885640E-01  0.98957624252E-01  0.51100000000E-03 0. -1.
</event>
<event>
 8    1  0.1116841E+005  0.1043930E+01  0.7957747E-01            NaN
         13   -1    0    0    0    0  0.00000000000E+00  0.00000000000E+00  0.74505805969E-08  0.10566000000E+00  0.10566000000E+00 0. -1.
     999900   -1    0    0    0    0 -0.00000000000E+00 -0.00000000000E+00 -0.74505805969E-08  0.93827000000E+00  0.93827000000E+00 0.  1.
     999902    2    1    2    0    0  0.40468824703E-03  0.12708547129E-01 -0.23274825560E-01  0.10174085286E+01  0.10170627933E+01 0.  0.
     999903    2    3    3    0    0 -0.70191773614E-01 -0.10143123825E+00  0.17559994815E-01  0.12629729331E+00  0.20675388810E-01 0.  0.
         14    1    1    2    0    0 -0.40468824703E-03 -0.12708547129E-01  0.23274825560E-01  0.26521471444E-01  0.00000000000E+00 0. -1.
     999901    1    3    3    0    0  0.70596461861E-01  0.11413978538E+00 -0.40834820375E-01  0.89111123525E+00  0.88000000000E+00 0.  1.
        -11    1    4    4    0    0 -0.33800945123E-01 -0.47354936816E-01 -0.20793953380E-02  0.58220090502E-01  0.51100000000E-03 0.  1.
         11    1    4    4    0    0 -0.36390828491E-01 -0.54076301434E-01  0.19639390153E-01  0.68077202804E-01  0.51100000000E-03 0. -1.
</event>
<event>
 8    1  0.1116841E+005  0.1043930E+01  0.7957747E-01            NaN
         13   -1    0    0    0    0  0.00000000000E+00  0.00000000000E+00  0.74505805969E-08  0.10566000000E+00  0.10566000000E+00 0. -1.
     999900   -1    0    0    0    0 -0.00000000000E+00 -0.00000000000E+00 -0.74505805969E-08  0.93827000000E+00  0.93827000000E+00 0.  1.
     999902    2    1    2    0    0  0.21979099933E-01  0.10724491314E-02 -0.90327937655E-02  0.10201429795E+01  0.10198656168E+01 0.  0.
     999903    2    3    3    0    0  0.11773857348E+00  0.49866415850E-01 -0.33281092969E-01  0.13327280412E+00  0.17463620918E-01 0.  0.
         14    1    1    2    0    0 -0.21979099933E-01 -0.10724491314E-02  0.90327937655E-02  0.23787020499E-01  0.00000000000E+00 0. -1.
     999901    1    3    3    0    0 -0.95759473543E-01 -0.48793966718E-01  0.24248299203E-01  0.88687017538E+00  0.88000000000E+00 0. -1.
        -11    1    4    4    0    0  0.10331367166E+00  0.45038950268E-01 -0.34854928154E-01  0.11797181414E+00  0.51100000000E-03 0. -1.
         11    1    4    4    0    0  0.14424901817E-01  0.48274655821E-02  0.15738351854E-02  0.15300989986E-01  0.51100000000E-03 0.  1.
</event>
<event>
 8    1  0.1116841E+005  0.1043930E+01  0.7957747E-01            NaN
         13   -1    0    0    0    0  0.00000000000E+00  0.00000000000E+00  0.74505805969E-08  0.10566000000E+00  0.10566000000E+00 0. -1.
     999900   -1    0    0    0    0 -0.00000000000E+00 -0.00000000000E+00 -0.74505805969E-08  0.93827000000E+00  0.93827000000E+00 0. -1.
     999902    2    1    2    0    0 -0.41737121149E-02  0.24050819261E-01  0.57727937803E-02  0.10188464012E+01  0.10185375802E+01 0.  0.
     999903    2    3    3    0    0 -0.12648511033E+00 -0.19930826237E-01 -0.65938018391E-02  0.12921310825E+00  0.16025858792E-01 0.  0.
         14    1    1    2    0    0  0.41737121149E-02 -0.24050819261E-01 -0.57727937803E-02  0.25083598785E-01  0.00000000000E+00 0. -1.
     999901    1    3    3    0    0  0.12231139821E+00  0.43981645498E-01  0.12366595619E-01  0.88963329297E+00  0.88000000000E+00 0. -1.
        -11    1    4    4    0    0 -0.86809203848E-01 -0.12350339928E-01  0.28345129876E-02  0.87730635207E-01  0.51100000000E-03 0. -1.
         11    1    4    4    0    0 -0.39675906482E-01 -0.75804863085E-02 -0.94283148267E-02  0.41482473038E-01  0.51100000000E-03 0.  1.
</event>
<event>
 8    1  0.1116841E+005  0.1043930E+01  0.7957747E-01            NaN
         13   -1    0    0    0    0  0.00000000000E+00  0.00000000000E+00  0.74505805969E-08  0.10566000000E+00  0.10566000000E+00 0.  1.
     999900   -1    0    0    0    0 -0.00000000000E+00 -0.00000000000E+00 -0.74505805969E-08  0.93827000000E+00  0.93827000000E+00 0.  1.
     999902    2    1    2    0    0  0.18871773872E-01 -0.60741087808E-02  0.13615331488E-01  0.10198797215E+01  0.10195961114E+01 0.  0.
     999903    2    3    3    0    0  0.56519581179E-01 -0.15492748619E-01  0.11803299270E+00  0.13285710836E+00  0.16874109131E-01 0.  0.
         14    1    1    2    0    0 -0.18871773872E-01  0.60741087808E-02 -0.13615331488E-01  0.24050278545E-01  0.00000000000E+00 0. -1.
     999901    1    3    3    0    0 -0.37647807307E-01  0.94186398382E-02 -0.10441766121E+00  0.88702261310E+00  0.88000000000E+00 0.  1.
        -11    1    4    4    0    0  0.18929886293E-01 -0.74898987838E-02  0.25322078429E-01  0.32494737356E-01  0.51100000000E-03 0.  1.
         11    1    4    4    0    0  0.37589694886E-01 -0.80028498352E-02  0.92710914272E-01  0.10036237100E+00  0.51100000000E-03 0. -1.
</event>
<event>
 8    1  0.1116841E+005  0.1043930E+01  0.7957747E-01            NaN
         13   -1    0    0    0    0  0.00000000000E+00  0.00000000000E+00  0.74505805969E-08  0.10566000000E+00  0.10566000000E+00 0. -1.
     999900   -1    0    0    0    0 -0.00000000000E+00 -0.00000000000E+00 -0.74505805969E-08  0.93827000000E+00  0.93827000000E+00 0. -1.
     999902    2    1    2    0    0  0.37646105944E-02 -0.19398605097E-01 -0.14241874659E-01  0.10195720615E+01  0.10192810601E+01 0.  0.
     999903    2    3    3    0    0 -0.32377170378E-01 -0.12658357638E+00 -0.65105794784E-02  0.13229836119E+00  0.19717650855E-01 0.  0.
         14    1    1    2    0    0 -0.37646105944E-02  0.19398605097E-01  0.14241874659E-01  0.24357938468E-01  0.00000000000E+00 0. -1.
     999901    1    3    3    0    0  0.36141780973E-01  0.10718497129E+00 -0.77312951803E-02  0.88727370035E+00  0.88000000000E+00 0. -1.
        -11    1    4    4    0    0 -0.22292631394E-01 -0.75249489414E-01 -0.13092016611E-01  0.79568266862E-01  0.51100000000E-03 0. -1.
         11    1    4    4    0    0 -0.10084538985E-01 -0.51334086971E-01  0.65814371321E-02  0.52730094323E-01  0.51100000000E-03 0.  1.
</event>
<event>
 8    1  0.1116841E+005  0.1043930E+01  0.7957747E-01            NaN
         13   -1    0    0    0    0  0.00000000000E+00  0.00000000000E+00  0.74505805969E-08  0.10566000000E+00  0.10566000000E+00 0.  1.
     999900   -1    0    0    0    0 -0.00000000000E+00 -0.00000000000E+00 -0.74505805969E-08  0.93827000000E+00  0.93827000000E+00 0. -1.
     999902    2    1    2    0    0 -0.12590909917E-01  0.19409514405E-01  0.41261413290E-02  0.10204292489E+01  0.10201585988E+01 0.  0.
     999903    2    3    3    0    0 -0.12511575254E-01  0.75731220899E-01  0.10649596247E+00  0.13270647614E+00  0.19438658727E-01 0.  0.
         14    1    1    2    0    0  0.12590909917E-01 -0.19409514405E-01 -0.41261413290E-02  0.23500751142E-01  0.00000000000E+00 0.  1.
     999901    1    3    3    0    0 -0.79334662513E-04 -0.56321706494E-01 -0.10236982114E+00  0.88772277272E+00  0.88000000000E+00 0. -1.
        -11    1    4    4    0    0  0.48028860771E-02  0.25473243618E-01  0.37999193614E-01  0.46001670528E-01  0.51100000000E-03 0.  1.
         11    1    4    4    0    0 -0.17314461331E-01  0.50257977282E-01  0.68496768857E-01  0.86704805614E-01  0.51100000000E-03 0. -1.
</event>
<event>
 8    1  0.1116841E+005  0.1043930E+01  0.7957747E-01            NaN
         13   -1    0    0    0    0  0.00000000000E+00  0.00000000000E+00  0.74505805969E-08  0.10566000000E+00  0.10566000000E+00 0.  1.
     999900   -1    0    0    0    0 -0.00000000000E+00 -0.00000000000E+00 -0.74505805969E-08  0.93827000000E+00  0.93827000000E+00 0. -1.
     999902    2    1    2    0    0  0.10796847787E-01  0.16011976691E-01 -0.13658840679E-01  0.10202758408E+01  0.10200016039E+01 0.  0.
     999903    2    3    3    0    0  0.41972172690E-02 -0.14841282860E-01 -0.12971407300E+00  0.13209551241E+00  0.19636785750E-01 0.  0.
         14    1    1    2    0    0 -0.10796847787E-01 -0.16011976691E-01  0.13658840679E-01  0.23654159220E-01  0.00000000000E+00 0.  1.
     999901    1    3    3    0    0  0.65996305182E-02  0.30853259551E-01  0.11605523233E+00  0.88818032837E+00  0.88000000000E+00 0.  1.
        -11    1    4    4    0    0 -0.38978039151E-02  0.12133014013E-02 -0.58516651537E-01  0.58661099578E-01  0.51100000000E-03 0.  1.
         11    1    4    4    0    0  0.80950211841E-02 -0.16054584262E-01 -0.71197421468E-01  0.73434412835E-01  0.51100000000E-03 0. -1.
</event>
<event>
 8    1  0.1116841E+005  0.1043930E+01  0.7957747E-01            NaN
         13   -1    0    0    0    0  0.00000000000E+00  0.00000000000E+00  0.74505805969E-08  0.10566000000E+00  0.10566000000E+00 0.  1.
     999900   -1    0    0    0    0 -0.00000000000E+00 -0.00000000000E+00 -0.74505805969E-08  0.93827000000E+00  0.93827000000E+00 0. -1.
     999902    2    1    2    0    0 -0.16693953794E-01 -0.16064686034E-01  0.42078184396E-02  0.10203828565E+01  0.10201111243E+01 0.  0.
     999903    2    3    3    0    0  0.12539255662E+00 -0.50149252664E-02 -0.17633615093E-01  0.12864986852E+00  0.22167578938E-01 0.  0.
         14    1    1    2    0    0  0.16693953794E-01  0.16064686034E-01 -0.42078184396E-02  0.23547143492E-01  0.00000000000E+00 0. -1.
     999901    1    3    3    0    0 -0.14208651042E+00 -0.11049760767E-01  0.21841433533E-01  0.89173298799E+00  0.88000000000E+00 0. -1.
        -11    1    4    4    0    0  0.43951596604E-01  0.67213659670E-02 -0.12580891201E-01  0.46211032762E-01  0.51100000000E-03 0.  1.
         11    1    4    4    0    0  0.81440960018E-01 -0.11736291233E-01 -0.50527238921E-02  0.82438835753E-01  0.51100000000E-03 0. -1.
</event>
<event>
 8    1  0.1116841E+005  0.1043930E+01  0.7957747E-01            NaN
         13   -1    0    0    0    0  0.00000000000E+00  0.00000000000E+00  0.74505805969E-08  0.10566000000E+00  0.10566000000E+00 0. -1.
     999900   -1    0    0    0    0 -0.00000000000E+00 -0.00000000000E+00 -0.74505805969E-08  0.93827000000E+00  0.93827000000E+00 0.  1.
     999902    2    1    2    0    0  0.58810594837E-02  0.97796328070E-02 -0.20524883896E-01  0.10204459855E+01  0.10201757252E+01 0.  0.
     999903    2    3    3    0    0 -0.26980279514E-01  0.35491330188E-01  0.11901637607E+00  0.12847472911E+00  0.18795963512E-01 0.  0.
         14    1    1    2    0    0 -0.58810594837E-02 -0.97796328070E-02  0.20524883896E-01  0.23484014509E-01  0.00000000000E+00 0. -1.
     999901    1    3    3    0    0  0.32861338998E-01 -0.25711697381E-01 -0.13954125997E+00  0.89197125638E+00  0.88000000000E+00 0.  1.
        -11    1    4    4    0    0 -0.17361698829E-01  0.34419636374E-01  0.98783525758E-01  0.10604049244E+00  0.51100000000E-03 0.  1.
         11    1    4    4    0    0 -0.96185806858E-02  0.10716938139E-02  0.20232850314E-01  0.22434236668E-01  0.51100000000E-03 0. -1.
</event>
<event>
 8    1  0.1116841E+005  0.1043930E+01  0.7957747E-01            NaN
         13   -1    0    0    0    0  0.00000000000E+00  0.00000000000E+00  0.74505805969E-08  0.10566000000E+00  0.10566000000E+00 0.  1.
     999900   -1    0    0    0    0 -0.00000000000E+00 -0.00000000000E+00 -0.74505805969E-08  0.93827000000E+00  0.93827000000E+00 0.  1.
     999902    2    1    2    0    0 -0.97845711746E-02 -0.11220730732E-01 -0.17863638681E-01  0.10206759204E+01  0.10204109869E+01 0.  0.
     999903    2    3    3    0    0  0.34222321621E-01  0.11390319435E+00 -0.48763245340E-01  0.13019998645E+00  0.20714183464E-01 0.  0.
         14    1    1    2    0    0  0.97845711746E-02  0.11220730732E-01  0.17863638681E-01  0.23254079602E-01  0.00000000000E+00 0.  1.
     999901    1    3    3    0    0 -0.44006892795E-01 -0.12512392508E+00  0.30899606660E-01  0.89047593394E+00  0.88000000000E+00 0.  1.
        -11    1    4    4    0    0  0.47425922972E-02  0.33704154584E-02 -0.50966591160E-02  0.77517054385E-02  0.51100000000E-03 0.  1.
         11    1    4    4    0    0  0.29479729323E-01  0.11053277889E+00 -0.43666586224E-01  0.12244828102E+00  0.51100000000E-03 0. -1.
</event>
<event>
 8    1  0.1116841E+005  0.1043930E+01  0.7957747E-01            NaN
         13   -1    0    0    0    0  0.00000000000E+00  0.00000000000E+00  0.74505805969E-08  0.10566000000E+00  0.10566000000E+00 0. -1.
     999900   -1    0    0    0    0 -0.00000000000E+00 -0.00000000000E+00 -0.74505805969E-08  0.93827000000E+00  0.93827000000E+00 0.  1.
     999902    2    1    2    0    0  0.17700767243E-01 -0.15760388229E-01  0.12903732134E-02  0.10201945400E+01  0.10199183925E+01 0.  0.
     999903    2    3    3    0    0  0.32722875942E-02 -0.12556787081E+00 -0.37415601680E-01  0.13240852032E+00  0.18817304753E-01 0.  0.
         14    1    1    2    0    0 -0.17700767243E-01  0.15760388229E-01 -0.12903732134E-02  0.23735459994E-01  0.00000000000E+00 0. -1.
     999901    1    3    3    0    0  0.14428479649E-01  0.10980748258E+00  0.38705974893E-01  0.88778601969E+00  0.88000000000E+00 0.  1.
        -11    1    4    4    0    0  0.12074832810E-02 -0.91109120483E-01 -0.18274392730E-01  0.92933010291E-01  0.51100000000E-03 0. -1.
         11    1    4    4    0    0  0.20648043132E-02 -0.34458750329E-01 -0.19141208950E-01  0.39475510030E-01  0.51100000000E-03 0.  1.
</event>
<event>
 8    1  0.1116841E+005  0.1043930E+01  0.7957747E-01            NaN
         13   -1    0    0    0    0  0.00000000000E+00  0.00000000000E+00  0.74505805969E-08  0.10566000000E+00  0.10566000000E+00 0. -1.
     999900   -1    0    0    0    0 -0.00000000000E+00 -0.00000000000E+00 -0.74505805969E-08  0.93827000000E+00  0.93827000000E+00 0.  1.
     999902    2    1    2    0    0  0.87482132870E-02  0.19912395421E-01 -0.84265680544E-02  0.10206052969E+01  0.10203387331E+01 0.  0.
     999903    2    3    3    0    0  0.50002236776E-01  0.11677803340E+00 -0.36538536769E-01  0.13388373456E+00  0.21271035281E-01 0.  0.
         14    1    1    2    0    0 -0.87482132870E-02 -0.19912395421E-01  0.84265680544E-02  0.23324703134E-01  0.00000000000E+00 0. -1.
     999901    1    3    3    0    0 -0.41254023489E-01 -0.96865637983E-01  0.28111968714E-01  0.88672156231E+00  0.88000000000E+00 0. -1.
        -11    1    4    4    0    0  0.25211712046E-01  0.83963474914E-01 -0.24408549954E-01  0.91002933885E-01  0.51100000000E-03 0. -1.
         11    1    4    4    0    0  0.24790524729E-01  0.32814558490E-01 -0.12129986814E-01  0.42880800673E-01  0.51100000000E-03 0.  1.
</event>
<event>
 8    1  0.1116841E+005  0.1043930E+01  0.7957747E-01            NaN
         13   -1    0    0    0    0  0.00000000000E+00  0.00000000000E+00  0.74505805969E-08  0.10566000000E+00  0.10566000000E+00 0. -1.
     999900   -1    0    0    0    0 -0.00000000000E+00 -0.00000000000E+00 -0.74505805969E-08  0.93827000000E+00  0.93827000000E+00 0. -1.
     999902    2    1    2    0    0 -0.63539782067E-02 -0.20900106019E-01  0.95950543425E-02  0.10200709862E+01  0.10197919221E+01 0.  0.
     999903    2    3    3    0    0  0.11826078076E+00  0.40353750461E-01  0.19023739069E-01  0.12913340525E+00  0.26447991632E-01 0.  0.
         14    1    1    2    0    0  0.63539782067E-02  0.20900106019E-01 -0.95950543425E-02  0.23859013779E-01  0.00000000000E+00 0. -1.
     999901    1    3    3    0    0 -0.12461475897E+00 -0.61253856480E-01 -0.94286847263E-02  0.89093758097E+00  0.88000000000E+00 0.  1.
        -11    1    4    4    0    0  0.74586062127E-01  0.31549142148E-01  0.78735246357E-03  0.80989567716E-01  0.51100000000E-03 0. -1.
         11    1    4    4    0    0  0.43674718635E-01  0.88046083132E-02  0.18236386605E-01  0.48143837537E-01  0.51100000000E-03 0.  1.
</event>
<event>
 8    1  0.1116841E+005  0.1043930E+01  0.7957747E-01            NaN
         13   -1    0    0    0    0  0.00000000000E+00  0.00000000000E+00  0.74505805969E-08  0.10566000000E+00  0.10566000000E+00 0. -1.
     999900   -1    0    0    0    0 -0.00000000000E+00 -0.00000000000E+00 -0.74505805969E-08  0.93827000000E+00  0.93827000000E+00 0.  1.
     999902    2    1    2    0    0 -0.13395845023E-01  0.22313230802E-02 -0.19675344220E-01  0.10200229584E+01  0.10197427563E+01 0.  0.
     999903    2    3    3    0    0  0.43755335391E-01  0.25589153437E-02 -0.12309955141E+00  0.13212491734E+00  0.19555480071E-01 0.  0.
         14    1    1    2    0    0  0.13395845023E-01 -0.22313230802E-02  0.19675344220E-01  0.23907041572E-01  0.00000000000E+00 0. -1.
     999901    1    3    3    0    0 -0.57151180414E-01 -0.32759226348E-03  0.10342420719E+00  0.88789804109E+00  0.88000000000E+00 0. -1.
        -11    1    4    4    0    0  0.21201551704E-01 -0.56324632060E-02 -0.78112451005E-01  0.81135975741E-01  0.51100000000E-03 0.  1.
         11    1    4    4    0    0  0.22553783687E-01  0.81913785497E-02 -0.44987100406E-01  0.50988941596E-01  0.51100000000E-03 0. -1.
</event>
<event>
 8    1  0.1116841E+005  0.1043930E+01  0.7957747E-01            NaN
         13   -1    0    0    0    0  0.00000000000E+00  0.00000000000E+00  0.74505805969E-08  0.10566000000E+00  0.10566000000E+00 0. -1.
     999900   -1    0    0    0    0 -0.00000000000E+00 -0.00000000000E+00 -0.74505805969E-08  0.93827000000E+00  0.93827000000E+00 0. -1.
     999902    2    1    2    0    0  0.18795256031E-01 -0.13983965831E-01 -0.22658029413E-02  0.10203939253E+01  0.10201224515E+01 0.  0.
     999903    2    3    3    0    0 -0.12386790577E+00 -0.26462131868E-01  0.10213996216E-01  0.12873018388E+00  0.20582322975E-01 0.  0.
         14    1    1    2    0    0 -0.18795256031E-01  0.13983965831E-01  0.22658029413E-02  0.23536074707E-01  0.00000000000E+00 0. -1.
     999901    1    3    3    0    0  0.14266316181E+00  0.12478166037E-01 -0.12479799157E-01  0.89166374141E+00  0.88000000000E+00 0. -1.
        -11    1    4    4    0    0 -0.82494176956E-01 -0.27087513894E-01  0.94471382217E-02  0.87341468857E-01  0.51100000000E-03 0.  1.
         11    1    4    4    0    0 -0.41373728819E-01  0.62538202518E-03  0.76685799418E-03  0.41388715023E-01  0.51100000000E-03 0. -1.
</event>
<event>
 7    1  0.1116841E+005  0.1043930E+01  0.7957747E-01            NaN
         13   -1    0    0    0    0  0.00000000000E+00  0.00000000000E+00  0.74505805969E-08  0.10566000000E+00  0.10566000000E+00 0. -1.
     999900   -1    0    0    0    0 -0.00000000000E+00 -0.00000000000E+00 -0.74505805969E-08  0.93827000000E+00  0.93827000000E+00 0. -1.
     999903    2    1    2    0    0  0.96000532232E-01  0.49938967483E-01  0.17417659307E-01  0.11150186334E+00  0.20476523417E-01 0.  0.
         14    1    1    2    0    0  0.18502020850E-01  0.34726827912E-01  0.98541432866E-02  0.40563302285E-01  0.00000000000E+00 0. -1.
     999901    1    1    2    0    0 -0.11450255308E+00 -0.84665795395E-01 -0.27271802593E-01  0.89186483437E+00  0.88000000000E+00 0.  1.
        -11    1    3    3    0    0  0.76253827599E-01  0.31178373378E-01  0.17675891748E-01  0.84258147737E-01  0.51100000000E-03 0.  1.
         11    1    3    3    0    0  0.19746704633E-01  0.18760594105E-01 -0.25823244179E-03  0.27243715606E-01  0.51100000000E-03 0. -1.
</event>
<event>
 8    1  0.1116841E+005  0.1043930E+01  0.7957747E-01            NaN
         13   -1    0    0    0    0  0.00000000000E+00  0.00000000000E+00  0.74505805969E-08  0.10566000000E+00  0.10566000000E+00 0.  1.
     999900   -1    0    0    0    0 -0.00000000000E+00 -0.00000000000E+00 -0.74505805969E-08  0.93827000000E+00  0.93827000000E+00 0.  1.
     999902    2    1    2    0    0  0.20595226735E-02  0.23834276418E-01 -0.46424812825E-02  0.10195606135E+01  0.10192693352E+01 0.  0.
     999903    2    3    3    0    0 -0.40192568126E-01 -0.85009694064E-01  0.83669986298E-01  0.12746681741E+00  0.20125414683E-01 0.  0.
         14    1    1    2    0    0 -0.20595226735E-02 -0.23834276418E-01  0.46424812825E-02  0.24369386502E-01  0.00000000000E+00 0. -1.
     999901    1    3    3    0    0  0.42252090800E-01  0.10884397048E+00 -0.88312467580E-01  0.89209379609E+00  0.88000000000E+00 0. -1.
        -11    1    4    4    0    0 -0.95016933242E-02 -0.20388062560E-01  0.95181359457E-02  0.24429721731E-01  0.51100000000E-03 0. -1.
         11    1    4    4    0    0 -0.30690874802E-01 -0.64621631505E-01  0.74151850352E-01  0.10303709568E+00  0.51100000000E-03 0.  1.
</event>
<event>
 8    1  0.1116841E+005  0.1043930E+01  0.7957747E-01            NaN
         13   -1    0    0    0    0  0.00000000000E+00  0.00000000000E+00  0.74505805969E-08  0.10566000000E+00  0.10566000000E+00 0.  1.
     999900   -1    0    0    0    0 -0.00000000000E+00 -0.00000000000E+00 -0.74505805969E-08  0.93827000000E+00  0.93827000000E+00 0. -1.
     999902    2    1    2    0    0 -0.12820088660E-01  0.13623902494E-01  0.13036445688E-01  0.10211283705E+01  0.10208737604E+01 0.  0.
     999903    2    3    3    0    0 -0.10308171830E+00 -0.20945717925E-01  0.79455569198E-01  0.13334814970E+00  0.20099199157E-01 0.  0.
         14    1    1    2    0    0  0.12820088660E-01 -0.13623902494E-01 -0.13036445688E-01  0.22801629516E-01  0.00000000000E+00 0. -1.
     999901    1    3    3    0    0  0.90261629636E-01  0.34569620419E-01 -0.66419123510E-01  0.88778022078E+00  0.88000000000E+00 0. -1.
        -11    1    4    4    0    0 -0.27357364353E-01 -0.10448943018E-01  0.31934466207E-01  0.43332171045E-01  0.51100000000E-03 0. -1.
         11    1    4    4    0    0 -0.75724353943E-01 -0.10496774907E-01  0.47521102991E-01  0.90015978659E-01  0.51100000000E-03 0.  1.
</event>
<event>
 8    1  0.1116841E+005  0.1043930E+01  0.7957747E-01            NaN
         13   -1    0    0    0    0  0.00000000000E+00  0.00000000000E+00  0.74505805969E-08  0.10566000000E+00  0.10566000000E+00 0. -1.
     999900   -1    0    0    0    0 -0.00000000000E+00 -0.00000000000E+00 -0.74505805969E-08  0.93827000000E+00  0.93827000000E+00 0. -1.
     999902    2    1    2    0    0  0.18408370426E-01  0.14985938457E-01  0.25403558039E-02  0.10200574245E+01  0.10197780393E+01 0.  0.
     999903    2    3    3    0    0 -0.50157251905E-01 -0.13540733647E-02 -0.11741873800E+00  0.12912621238E+00  0.19205084143E-01 0.  0.
         14    1    1    2    0    0 -0.18408370426E-01 -0.14985938457E-01 -0.25403558039E-02  0.23872575495E-01  0.00000000000E+00 0. -1.
     999901    1    3    3    0    0  0.68565622330E-01  0.16340011822E-01  0.11995909380E+00  0.89093121212E+00  0.88000000000E+00 0.  1.
        -11    1    4    4    0    0 -0.19960727391E-01  0.65685278326E-02 -0.62657145173E-01  0.66088994228E-01  0.51100000000E-03 0. -1.
         11    1    4    4    0    0 -0.30196524514E-01 -0.79226011972E-02 -0.54761592826E-01  0.63037218152E-01  0.51100000000E-03 0.  1.
</event>
<event>
 8    1  0.1116841E+005  0.1043930E+01  0.7957747E-01            NaN
         13   -1    0    0    0    0  0.00000000000E+00  0.00000000000E+00  0.74505805969E-08  0.10566000000E+00  0.10566000000E+00 0.  1.
     999900   -1    0    0    0    0 -0.00000000000E+00 -0.00000000000E+00 -0.74505805969E-08  0.93827000000E+00  0.93827000000E+00 0. -1.
     999902    2    1    2    0    0  0.71464227827E-02  0.21084124643E-01  0.83424493519E-02  0.10201558937E+01  0.10198788356E+01 0.  0.
     999903    2    3    3    0    0  0.88305108659E-01  0.53129694688E-01 -0.79583168738E-01  0.13148015688E+00  0.18248129568E-01 0.  0.
         14    1    1    2    0    0 -0.71464227827E-02 -0.21084124643E-01 -0.83424493519E-02  0.23774106329E-01  0.00000000000E+00 0. -1.
     999901    1    3    3    0    0 -0.81158685876E-01 -0.32045570045E-01  0.87925618090E-01  0.88867573680E+00  0.88000000000E+00 0.  1.
        -11    1    4    4    0    0  0.63022745528E-01  0.38684513170E-01 -0.46272337062E-01  0.87233871353E-01  0.51100000000E-03 0. -1.
         11    1    4    4    0    0  0.25282363131E-01  0.14445181518E-01 -0.33310831677E-01  0.44246285522E-01  0.51100000000E-03 0.  1.
</event>
<event>
 8    1  0.1116841E+005  0.1043930E+01  0.7957747E-01            NaN
         13   -1    0    0    0    0  0.00000000000E+00  0.00000000000E+00  0.74505805969E-08  0.10566000000E+00  0.10566000000E+00 0.  1.
     999900   -1    0    0    0    0 -0.00000000000E+00 -0.00000000000E+00 -0.74505805969E-08  0.93827000000E+00  0.93827000000E+00 0.  1.
     999902    2    1    2    0    0  0.29938642388E-02  0.35092004284E-02  0.24383559488E-01  0.10191139632E+01  0.10188117757E+01 0.  0.
     999903    2    3    3    0    0  0.65654190651E-01  0.11044191762E+00  0.96838520162E-02  0.13030745784E+00  0.19451649350E-01 0.  0.
         14    1    1    2    0    0 -0.29938642388E-02 -0.35092004284E-02 -0.24383559488E-01  0.24816036832E-01  0.00000000000E+00 0. -1.
     999901    1    3    3    0    0 -0.62660326412E-01 -0.10693271719E+00  0.14699707472E-01  0.88880650533E+00  0.88000000000E+00 0.  1.
        -11    1    4    4    0    0  0.50078554967E-01  0.83197036438E-01  0.15643967150E-01  0.98359561655E-01  0.51100000000E-03 0.  1.
         11    1    4    4    0    0  0.15575635684E-01  0.27244881178E-01 -0.59601151336E-02  0.31947896187E-01  0.51100000000E-03 0. -1.
</event>
<event>
 8    1  0.1116841E+005  0.1043930E+01  0.7957747E-01            NaN
         13   -1    0    0    0    0  0.00000000000E+00  0.00000000000E+00  0.74505805969E-08  0.10566000000E+00  0.10566000000E+00 0. -1.
     999900   -1    0    0    0    0 -0.00000000000E+00 -0.00000000000E+00 -0.74505805969E-08  0.93827000000E+00  0.93827000000E+00 0.  1.
     999902    2    1    2    0    0  0.46331396399E-02 -0.21858867826E-01 -0.78977213547E-02  0.10202308420E+01  0.10199555485E+01 0.  0.
     999903    2    3    3    0    0 -0.42584333369E-01  0.48092303264E-01  0.10814102341E+00  0.12861004462E+00  0.26828483970E-01 0.  0.
         14    1    1    2    0    0 -0.46331396399E-02  0.21858867826E-01  0.78977213547E-02  0.23699157963E-01  0.00000000000E+00 0.  1.
     999901    1    3    3    0    0  0.47217473009E-01 -0.69951171091E-01 -0.11603874476E+00  0.89162079741E+00  0.88000000000E+00 0.  1.
        -11    1    4    4    0    0 -0.26237284275E-01  0.25381824586E-01  0.84222423312E-01  0.91794933493E-01  0.51100000000E-03 0. -1.
         11    1    4    4    0    0 -0.16347049094E-01  0.22710478679E-01  0.23918600098E-01  0.36815111130E-01  0.51100000000E-03 0.  1.
</event>
<event>
 8    1  0.1116841E+005  0.1043930E+01  0.7957747E-01            NaN
         13   -1    0    0    0    0  0.00000000000E+00  0.00000000000E+00  0.74505805969E-08  0.10566000000E+00  0.10566000000E+00 0.  1.
     999900   -1    0    0    0    0 -0.00000000000E+00 -0.00000000000E+00 -0.74505805969E-08  0.93827000000E+00  0.93827000000E+00 0. -1.
     999902    2    1    2    0    0  0.13663239024E-01  0.13720427340E-01 -0.13940327828E-01  0.10200706839E+01  0.10197916126E+01 0.  0.
     999903    2    3    3    0    0 -0.50711726548E-01  0.20995036074E-01  0.11430181774E+00  0.12841878764E+00  0.20347204457E-01 0.  0.
         14    1    1    2    0    0 -0.13663239024E-01 -0.13720427340E-01  0.13940327828E-01  0.23859316147E-01  0.00000000000E+00 0.  1.
     999901    1    3    3    0    0  0.64374965573E-01 -0.72746087332E-02 -0.12824214557E+00  0.89165189622E+00  0.88000000000E+00 0. -1.
        -11    1    4    4    0    0 -0.22035308879E-01  0.80543183268E-02  0.27847906094E-01  0.36416944901E-01  0.51100000000E-03 0.  1.
         11    1    4    4    0    0 -0.28676417669E-01  0.12940717747E-01  0.86453911651E-01  0.92001842736E-01  0.51100000000E-03 0. -1.
</event>
<event>
 8    1  0.1116841E+005  0.1043930E+01  0.7957747E-01            NaN
         13   -1    0    0    0    0  0.00000000000E+00  0.00000000000E+00  0.74505805969E-08  0.10566000000E+00  0.10566000000E+00 0.  1.
     999900   -1    0    0    0    0 -0.00000000000E+00 -0.00000000000E+00 -0.74505805969E-08  0.93827000000E+00  0.93827000000E+00 0. -1.
     999902    2    1    2    0    0  0.45641551953E-02 -0.23069773855E-03  0.23906360443E-01  0.10195907559E+01  0.10193002064E+01 0.  0.
     999903    2    3    3    0    0 -0.28839047251E-01  0.12164600786E+00 -0.21208472063E-01  0.12941939407E+00  0.25887031472E-01 0.  0.
         14    1    1    2    0    0 -0.45641551953E-02  0.23069773855E-03 -0.23906360443E-01  0.24339244107E-01  0.00000000000E+00 0. -1.
     999901    1    3    3    0    0  0.33403202446E-01 -0.12187670560E+00  0.45114832505E-01  0.89017136183E+00  0.88000000000E+00 0.  1.
        -11    1    4    4    0    0 -0.49924702576E-02  0.74484585489E-01 -0.91589329624E-02  0.75213199697E-01  0.51100000000E-03 0.  1.
         11    1    4    4    0    0 -0.23846576993E-01  0.47161422374E-01 -0.12049539100E-01  0.54206194370E-01  0.51100000000E-03 0. -1.
</event>
<event>
 8    1  0.1116841E+005  0.1043930E+01  0.7957747E-01            NaN
         13   -1    0    0    0    0  0.00000000000E+00  0.00000000000E+00  0.74505805969E-08  0.10566000000E+00  0.10566000000E+00 0. -1.
     999900   -1    0    0    0    0 -0.00000000000E+00 -0.00000000000E+00 -0.74505805969E-08  0.93827000000E+00  0.93827000000E+00 0.  1.
     999902    2    1    2    0    0 -0.16011250070E-01  0.39451988131E-02  0.17352814733E-01  0.10199916437E+01  0.10197106984E+01 0.  0.
     999903    2    3    3    0    0 -0.51378498345E-01  0.11377753446E+00 -0.34108912620E-01  0.13096841928E+00  0.20105508889E-01 0.  0.
         14    1    1    2    0    0  0.16011250070E-01 -0.39451988131E-02 -0.17352814733E-01  0.23938356286E-01  0.00000000000E+00 0.  1.
     999901    1    3    3    0    0  0.35367248275E-01 -0.10983233565E+00  0.51461727354E-01  0.88902322444E+00  0.88000000000E+00 0. -1.
        -11    1    4    4    0    0 -0.36939335859E-01  0.96658528357E-01 -0.23174365738E-01  0.10604102030E+00  0.51100000000E-03 0.  1.
         11    1    4    4    0    0 -0.14439162486E-01  0.17119006105E-01 -0.10934546882E-01  0.24927398979E-01  0.51100000000E-03 0. -1.
</event>
<event>
 8    1  0.1116841E+005  0.1043930E+01  0.7957747E-01            NaN
         13   -1    0    0    0    0  0.00000000000E+00  0.00000000000E+00  0.74505805969E-08  0.10566000000E+00  0.10566000000E+00 0. -1.
     999900   -1    0    0    0    0 -0.00000000000E+00 -0.00000000000E+00 -0.74505805969E-08  0.93827000000E+00  0.93827000000E+00 0. -1.
     999902    2    1    2    0    0 -0.21634585550E-01  0.74888302422E-02  0.28419050139E-02  0.10208602299E+01  0.10205995270E+01 0.  0.
     999903    2    3    3    0    0 -0.85500839482E-02  0.13031035936E+00  0.71797934058E-02  0.13222354962E+00  0.19432548684E-01 0.  0.
         14    1    1    2    0    0  0.21634585550E-01 -0.74888302422E-02 -0.28419050139E-02  0.23069770142E-01  0.00000000000E+00 0.  1.
     999901    1    3    3    0    0 -0.13084501602E-01 -0.12282152911E+00 -0.43378883919E-02  0.88863668024E+00  0.88000000000E+00 0. -1.
        -11    1    4    4    0    0  0.59586741021E-02  0.35033666435E-01  0.43490519317E-02  0.35805571558E-01  0.51100000000E-03 0.  1.
         11    1    4    4    0    0 -0.14508758050E-01  0.95276692922E-01  0.28307414741E-02  0.96417978057E-01  0.51100000000E-03 0. -1.
</event>
<event>
 8    1  0.1116841E+005  0.1043930E+01  0.7957747E-01            NaN
         13   -1    0    0    0    0  0.00000000000E+00  0.00000000000E+00  0.74505805969E-08  0.10566000000E+00  0.10566000000E+00 0.  1.
     999900   -1    0    0    0    0 -0.00000000000E+00 -0.00000000000E+00 -0.74505805969E-08  0.93827000000E+00  0.93827000000E+00 0.  1.
     999902    2    1    2    0    0  0.63294405501E-02  0.14170972978E-01 -0.17489836868E-01  0.10205468290E+01  0.10202789116E+01 0.  0.
     999903    2    3    3    0    0  0.76568805678E-01  0.85401363307E-01  0.60854226100E-01  0.13142078105E+00  0.20298029472E-01 0.  0.
         14    1    1    2    0    0 -0.63294405501E-02 -0.14170972978E-01  0.17489836868E-01  0.23383171010E-01  0.00000000000E+00 0.  1.
     999901    1    3    3    0    0 -0.70239365128E-01 -0.71230390329E-01 -0.78344062968E-01  0.88912604794E+00  0.88000000000E+00 0. -1.
        -11    1    4    4    0    0  0.29172595131E-01  0.45342813492E-01  0.34402272607E-01  0.63959272381E-01  0.51100000000E-03 0.  1.
         11    1    4    4    0    0  0.47396210547E-01  0.40058549815E-01  0.26451953492E-01  0.67461508670E-01  0.51100000000E-03 0. -1.
</event>
<event>
 8    1  0.1116841E+005  0.1043930E+01  0.7957747E-01            NaN
         13   -1    0    0    0    0  0.00000000000E+00  0.00000000000E+00  0.74505805969E-08  0.10566000000E+00  0.10566000000E+00 0.  1.
     999900   -1    0    0    0    0 -0.00000000000E+00 -0.00000000000E+00 -0.74505805969E-08  0.93827000000E+00  0.93827000000E+00 0.  1.
     999902    2    1    2    0    0  0.46235508036E-04  0.28329767359E-01  0.10198472714E-01  0.10138204218E+01  0.10133732091E+01 0.  0.
     999903    2    3    3    0    0  0.30383338246E-01 -0.10120082455E+00 -0.56602525569E-01  0.12131782377E+00  0.18692627687E-01 0.  0.
         14    1    1    2    0    0 -0.46235508036E-04 -0.28329767359E-01 -0.10198472714E-01  0.30109578244E-01  0.00000000000E+00 0.  1.
     999901    1    3    3    0    0 -0.30337102738E-01  0.12953059191E+00  0.66800998283E-01  0.89250259799E+00  0.88000000000E+00 0.  1.
        -11    1    4    4    0    0  0.89871527632E-02 -0.93047371963E-02 -0.70888267562E-02  0.14760068931E-01  0.51100000000E-03 0. -1.
         11    1    4    4    0    0  0.21396185482E-01 -0.91896087357E-01 -0.49513698813E-01  0.10655775484E+00  0.51100000000E-03 0.  1.
</event>
<event>
 8    1  0.1116841E+005  0.1043930E+01  0.7957747E-01            NaN
         13   -1    0    0    0    0  0.00000000000E+00  0.00000000000E+00  0.74505805969E-08  0.10566000000E+00  0.10566000000E+00 0. -1.
     999900   -1    0    0    0    0 -0.00000000000E+00 -0.00000000000E+00 -0.74505805969E-08  0.93827000000E+00  0.93827000000E+00 0.  1.
     999902    2    1    2    0    0  0.15132029570E-01  0.92837124928E-02  0.15986546897E-01  0.10200399326E+01  0.10197601330E+01 0.  0.
     999903    2    3    3    0    0  0.27674528973E-01 -0.97771330248E-01  0.80291137204E-01  0.13113432641E+00  0.20601754201E-01 0.  0.
         14    1    1    2    0    0 -0.15132029570E-01 -0.92837124928E-02 -0.15986546897E-01  0.23890067356E-01  0.00000000000E+00 0.  1.
     999901    1    3    3    0    0 -0.12542499403E-01  0.10705504274E+00 -0.64304590307E-01  0.88890560624E+00  0.88000000000E+00 0. -1.
        -11    1    4    4    0    0  0.29322129548E-01 -0.76943008493E-01  0.58986978907E-01  0.10129036795E+00  0.51100000000E-03 0.  1.
         11    1    4    4    0    0 -0.16476005755E-02 -0.20828321755E-01  0.21304158298E-01  0.29843958460E-01  0.51100000000E-03 0. -1.
</event>
<event>
 8    1  0.1116841E+005  0.1043930E+01  0.7957747E-01            NaN
         13   -1    0    0    0    0  0.00000000000E+00  0.00000000000E+00  0.74505805969E-08  0.10566000000E+00  0.10566000000E+00 0. -1.
     999900   -1    0    0    0    0 -0.00000000000E+00 -0.00000000000E+00 -0.74505805969E-08  0.93827000000E+00  0.93827000000E+00 0. -1.
     999902    2    1    2    0    0  0.19140401317E-01 -0.94805808542E-02 -0.10532219425E-01  0.10201147943E+01  0.10198367661E+01 0.  0.
     999903    2    3    3    0    0 -0.76704159313E-01 -0.10295157155E+00 -0.23854613621E-02  0.12995223861E+00  0.19983487058E-01 0.  0.
         14    1    1    2    0    0 -0.19140401317E-01  0.94805808542E-02  0.10532219425E-01  0.23815205687E-01  0.00000000000E+00 0. -1.
     999901    1    3    3    0    0  0.95844560630E-01  0.93470990691E-01 -0.81467580631E-02  0.89016255570E+00  0.88000000000E+00 0. -1.
        -11    1    4    4    0    0 -0.10460040960E-01 -0.26551550400E-01  0.29245765729E-02  0.28691663505E-01  0.51100000000E-03 0.  1.
         11    1    4    4    0    0 -0.66244118353E-01 -0.76400021145E-01 -0.53100379351E-02  0.10126057511E+00  0.51100000000E-03 0. -1.
</event>
<event>
 8    1  0.1116841E+005  0.1043930E+01  0.7957747E-01            NaN
         13   -1    0    0    0    0  0.00000000000E+00  0.00000000000E+00  0.74505805969E-08  0.10566000000E+00  0.10566000000E+00 0. -1.
     999900   -1    0    0    0    0 -0.00000000000E+00 -0.00000000000E+00 -0.74505805969E-08  0.93827000000E+00  0.93827000000E+00 0. -1.
     999902    2    1    2    0    0 -0.12066368409E-01 -0.15342069040E-01  0.14428059626E-01  0.10196576859E+01  0.10193687513E+01 0.  0.
     999903    2    3    3    0    0 -0.34034617178E-01  0.55159787352E-02 -0.12232907957E+00  0.12857958758E+00  0.19481412830E-01 0.  0.
         14    1    1    2    0    0  0.12066368409E-01  0.15342069040E-01 -0.14428059626E-01  0.24272314138E-01  0.00000000000E+00 0. -1.
     999901    1    3    3    0    0  0.21968248769E-01 -0.20858047776E-01  0.13675713920E+00  0.89107809828E+00  0.88000000000E+00 0.  1.
        -11    1    4    4    0    0 -0.12255024371E-01  0.10523057711E-01 -0.66639324733E-01  0.68570993049E-01  0.51100000000E-03 0. -1.
         11    1    4    4    0    0 -0.21779592807E-01 -0.50070789757E-02 -0.55689754841E-01  0.60008594534E-01  0.51100000000E-03 0.  1.
</event>
<event>
 8    1  0.1116841E+005  0.1043930E+01  0.7957747E-01            NaN
         13   -1    0    0    0    0  0.00000000000E+00  0.00000000000E+00  0.74505805969E-08  0.10566000000E+00  0.10566000000E+00 0. -1.
     999900   -1    0    0    0    0 -0.00000000000E+00 -0.00000000000E+00 -0.74505805969E-08  0.93827000000E+00  0.93827000000E+00 0.  1.
     999902    2    1    2    0    0  0.17089688448E-01 -0.29565250941E-02  0.15901832007E-01  0.10203998756E+01  0.10201285406E+01 0.  0.
     999903    2    3    3    0    0  0.10038474460E+00 -0.75192133159E-01 -0.36446002440E-01  0.13197635882E+00  0.18933947183E-01 0.  0.
         14    1    1    2    0    0 -0.17089688448E-01  0.29565250941E-02 -0.15901832007E-01  0.23530124374E-01  0.00000000000E+00 0.  1.
     999901    1    3    3    0    0 -0.83295056148E-01  0.72235608065E-01  0.52347834447E-01  0.88842351681E+00  0.88000000000E+00 0. -1.
        -11    1    4    4    0    0  0.22998354766E-01 -0.96420766940E-02 -0.11865968800E-01  0.27621663626E-01  0.51100000000E-03 0.  1.
         11    1    4    4    0    0  0.77386389829E-01 -0.65550056465E-01 -0.24580033640E-01  0.10435469519E+00  0.51100000000E-03 0. -1.
</event>
<event>
 8    1  0.1116841E+005  0.1043930E+01  0.7957747E-01            NaN
         13   -1    0    0    0    0  0.00000000000E+00  0.00000000000E+00  0.74505805969E-08  0.10566000000E+00  0.10566000000E+00 0. -1.
     999900   -1    0    0    0    0 -0.00000000000E+00 -0.00000000000E+00 -0.74505805969E-08  0.93827000000E+00  0.93827000000E+00 0.  1.
     999902    2    1    2    0    0 -0.29863873547E-02  0.21540845848E-01  0.80108020357E-02  0.10207545928E+01  0.10204914695E+01 0.  0.
     999903    2    3    3    0    0  0.11158914065E+00 -0.60443722930E-01 -0.12858421150E-01  0.12930378339E+00  0.21178986066E-01 0.  0.
         14    1    1    2    0    0  0.29863873547E-02 -0.21540845848E-01 -0.80108020357E-02  0.23175407192E-01  0.00000000000E+00 0.  1.
     999901    1    3    3    0    0 -0.11457552801E+00  0.81984568778E-01  0.20869223186E-01  0.89145080942E+00  0.88000000000E+00 0. -1.
        -11    1    4    4    0    0  0.77745985205E-01 -0.31721459605E-01 -0.41926527612E-02  0.84074542361E-01  0.51100000000E-03 0. -1.
         11    1    4    4    0    0  0.33843155449E-01 -0.28722263326E-01 -0.86657683890E-02  0.45229241029E-01  0.51100000000E-03 0.  1.
</event>
<event>
 8    1  0.1116841E+005  0.1043930E+01  0.7957747E-01            NaN
         13   -1    0    0    0    0  0.00000000000E+00  0.00000000000E+00  0.74505805969E-08  0.10566000000E+00  0.10566000000E+00 0. -1.
     999900   -1    0    0    0    0 -0.00000000000E+00 -0.00000000000E+00 -0.74505805969E-08  0.93827000000E+00  0.93827000000E+00 0.  1.
     999902    2    1    2    0    0  0.13057490420E-01  0.99359823448E-02  0.17256048071E-01  0.10201183853E+01  0.10198404419E+01 0.  0.
     999903    2    3    3    0    0  0.12995434434E+00  0.96950512135E-02  0.11796961220E-01  0.13237138632E+00  0.20022237428E-01 0.  0.
         14    1    1    2    0    0 -0.13057490420E-01 -0.99359823448E-02 -0.17256048071E-01  0.23811614734E-01  0.00000000000E+00 0. -1.
     999901    1    3    3    0    0 -0.11689685392E+00  0.24093113137E-03  0.54590868515E-02  0.88774699894E+00  0.88000000000E+00 0. -1.
        -11    1    4    4    0    0  0.56831819123E-02 -0.19633269765E-02  0.41416314098E-02  0.73189781527E-02  0.51100000000E-03 0.  1.
         11    1    4    4    0    0  0.12427116243E+00  0.11658378190E-01  0.76553298099E-02  0.12505240817E+00  0.51100000000E-03 0. -1.
</event>
<event>
 8    1  0.1116841E+005  0.1043930E+01  0.7957747E-01            NaN
         13   -1    0    0    0    0  0.00000000000E+00  0.00000000000E+00  0.74505805969E-08  0.10566000000E+00  0.10566000000E+00 0.  1.
     999900   -1    0    0    0    0 -0.00000000000E+00 -0.00000000000E+00 -0.74505805969E-08  0.93827000000E+00  0.93827000000E+00 0. -1.
     999902    2    1    2    0    0  0.22353190669E-01 -0.61552191994E-02  0.73960207671E-02  0.10195937517E+01  0.10193032746E+01 0.  0.
     999903    2    3    3    0    0  0.85130638860E-01 -0.96347435941E-01  0.25776650897E-01  0.13256867231E+00  0.19492641215E-01 0.  0.
         14    1    1    2    0    0 -0.22353190669E-01  0.61552191994E-02 -0.73960207671E-02  0.24336248266E-01  0.00000000000E+00 0.  1.
     999901    1    3    3    0    0 -0.62777448191E-01  0.90192216742E-01 -0.18380630130E-01  0.88702507942E+00  0.88000000000E+00 0. -1.
        -11    1    4    4    0    0  0.43542825290E-01 -0.57123258926E-01  0.60133903320E-02  0.72079583301E-01  0.51100000000E-03 0.  1.
         11    1    4    4    0    0  0.41587813570E-01 -0.39224177016E-01  0.19763260565E-01  0.60489089010E-01  0.51100000000E-03 0. -1.
</event>
<event>
 8    1  0.1116841E+005  0.1043930E+01  0.7957747E-01            NaN
         13   -1    0    0    0    0  0.00000000000E+00  0.00000000000E+00  0.74505805969E-08  0.10566000000E+00  0.10566000000E+00 0. -1.
     999900   -1    0    0    0    0 -0.00000000000E+00 -0.00000000000E+00 -0.74505805969E-08  0.93827000000E+00  0.93827000000E+00 0. -1.
     999902    2    1    2    0    0 -0.83058620104E-03 -0.50630165039E-02  0.22195906192E-01  0.10211488178E+01  0.10208946693E+01 0.  0.
     999903    2    3    3    0    0  0.41757666817E-01 -0.12197200457E+00 -0.18199487680E-01  0.13147850887E+00  0.18289458862E-01 0.  0.
         14    1    1    2    0    0  0.83058620104E-03  0.50630165039E-02 -0.22195906192E-01  0.22781182174E-01  0.00000000000E+00 0.  1.
     999901    1    3    3    0    0 -0.42588253018E-01  0.11690898807E+00  0.40395393873E-01  0.88967030895E+00  0.88000000000E+00 0. -1.
        -11    1    4    4    0    0  0.11113861911E-01 -0.29282039667E-01  0.33498016875E-02  0.31502985033E-01  0.51100000000E-03 0. -1.
         11    1    4    4    0    0  0.30643804907E-01 -0.92689964908E-01 -0.21549289368E-01  0.99975523840E-01  0.51100000000E-03 0.  1.
</event>
<event>
 8    1  0.1116841E+005  0.1043930E+01  0.7957747E-01            NaN
         13   -1    0    0    0    0  0.00000000000E+00  0.00000000000E+00  0.74505805969E-08  0.10566000000E+00  0.10566000000E+00 0.  1.
     999900   -1    0    0    0    0 -0.00000000000E+00 -0.00000000000E+00 -0.74505805969E-08  0.93827000000E+00  0.93827000000E+00 0. -1.
     999902    2    1    2    0    0 -0.83035825950E-02  0.19128556484E-01  0.91447838359E-02  0.10211598830E+01  0.10209059841E+01 0.  0.
     999903    2    3    3    0    0  0.10086903224E+00 -0.62384858312E-01 -0.46366082247E-01  0.12894659410E+00  0.20272600617E-01 0.  0.
         14    1    1    2    0    0  0.83035825950E-02 -0.19128556484E-01 -0.91447838359E-02  0.22770117006E-01  0.00000000000E+00 0. -1.
     999901    1    3    3    0    0 -0.10917261484E+00  0.81513414796E-01  0.55510866082E-01  0.89221328889E+00  0.88000000000E+00 0.  1.
        -11    1    4    4    0    0  0.61121349138E-01 -0.25967769811E-01 -0.25371033186E-01  0.71092157341E-01  0.51100000000E-03 0.  1.
         11    1    4    4    0    0  0.39747683103E-01 -0.36417088501E-01 -0.20995049061E-01  0.57854436761E-01  0.51100000000E-03 0. -1.
</event>
<event>
 8    1  0.1116841E+005  0.1043930E+01  0.7957747E-01            NaN
         13   -1    0    0    0    0  0.00000000000E+00  0.00000000000E+00  0.74505805969E-08  0.10566000000E+00  0.10566000000E+00 0. -1.
     999900   -1    0    0    0    0 -0.00000000000E+00 -0.00000000000E+00 -0.74505805969E-08  0.93827000000E+00  0.93827000000E+00 0.  1.
     999902    2    1    2    0    0  0.23673278529E-01  0.34122907149E-02  0.35748216371E-02  0.10197463858E+01  0.10194595844E+01 0.  0.
     999903    2    3    3    0    0  0.46811275628E-01 -0.10610702884E+00  0.57542529709E-01  0.13101562696E+00  0.20098624012E-01 0.  0.
         14    1    1    2    0    0 -0.23673278529E-01 -0.34122907149E-02 -0.35748216371E-02  0.24183614163E-01  0.00000000000E+00 0.  1.
     999901    1    3    3    0    0 -0.23137997099E-01  0.10951931955E+00 -0.53967708071E-01  0.88873075888E+00  0.88000000000E+00 0. -1.
        -11    1    4    4    0    0  0.20246370355E-02 -0.10281060230E-01  0.11750572886E-01  0.15752347086E-01  0.51100000000E-03 0. -1.
         11    1    4    4    0    0  0.44786638593E-01 -0.95825968607E-01  0.45791956822E-01  0.11526327987E+00  0.51100000000E-03 0.  1.
</event>
<event>
 8    1  0.1116841E+005  0.1043930E+01  0.7957747E-01            NaN
         13   -1    0    0    0    0  0.00000000000E+00  0.00000000000E+00  0.74505805969E-08  0.10566000000E+00  0.10566000000E+00 0. -1.
     999900   -1    0    0    0    0 -0.00000000000E+00 -0.00000000000E+00 -0.74505805969E-08  0.93827000000E+00  0.93827000000E+00 0. -1.
     999902    2    1    2    0    0  0.17185399967E-01  0.80936891777E-02  0.12273136886E-01  0.10213141722E+01  0.10210637408E+01 0.  0.
     999903    2    3    3    0    0  0.99771849327E-01  0.60825497872E-01  0.63279503554E-01  0.13440785548E+00  0.20174561556E-01 0.  0.
         14    1    1    2    0    0 -0.17185399967E-01 -0.80936891777E-02 -0.12273136886E-01  0.22615827766E-01  0.00000000000E+00 0.  1.
     999901    1    3    3    0    0 -0.82586449360E-01 -0.52731808694E-01 -0.51006366668E-01  0.88690631676E+00  0.88000000000E+00 0. -1.
        -11    1    4    4    0    0  0.83603182079E-01  0.52602184728E-01  0.61061269914E-01  0.11612588728E+00  0.51100000000E-03 0.  1.
         11    1    4    4    0    0  0.16168667248E-01  0.82233131433E-02  0.22182336396E-02  0.18281968196E-01  0.51100000000E-03 0. -1.
</event>
<event>
 8    1  0.1116841E+005  0.1043930E+01  0.7957747E-01            NaN
         13   -1    0    0    0    0  0.00000000000E+00  0.00000000000E+00  0.74505805969E-08  0.10566000000E+00  0.10566000000E+00 0. -1.
     999900   -1    0    0    0    0 -0.00000000000E+00 -0.00000000000E+00 -0.74505805969E-08  0.93827000000E+00  0.93827000000E+00 0. -1.
     999902    2    1    2    0    0  0.48977240309E-02 -0.19964747305E-01 -0.62997887876E-02  0.10224296239E+01  0.10222035363E+01 0.  0.
     999903    2    3    3    0    0  0.65563426563E-01  0.96864109806E-01 -0.56164937673E-01  0.13124174109E+00  0.19714860094E-01 0.  0.
         14    1    1    2    0    0 -0.48977240309E-02  0.19964747305E-01  0.62997887876E-02  0.21500376146E-01  0.00000000000E+00 0. -1.
     999901    1    3    3    0    0 -0.60665702532E-01 -0.11682885711E+00  0.49865148885E-01  0.89118788277E+00  0.88000000000E+00 0. -1.
        -11    1    4    4    0    0  0.42699572208E-01  0.70919140490E-01 -0.48047964669E-01  0.95716487526E-01  0.51100000000E-03 0.  1.
         11    1    4    4    0    0  0.22863854355E-01  0.25944969317E-01 -0.81169730038E-02  0.35525253561E-01  0.51100000000E-03 0. -1.
</event>
<event>
 8    1  0.1116841E+005  0.1043930E+01  0.7957747E-01            NaN
         13   -1    0    0    0    0  0.00000000000E+00  0.00000000000E+00  0.74505805969E-08  0.10566000000E+00  0.10566000000E+00 0.  1.
     999900   -1    0    0    0    0 -0.00000000000E+00 -0.00000000000E+00 -0.74505805969E-08  0.93827000000E+00  0.93827000000E+00 0. -1.
     999902    2    1    2    0    0 -0.18315156873E-01  0.13547998108E-01  0.53644062478E-02  0.10205255116E+01  0.10202570998E+01 0.  0.
     999903    2    3    3    0    0  0.99129097933E-01 -0.54155178589E-01  0.59099439100E-01  0.12852532835E+00  0.16329571344E-01 0.  0.
         14    1    1    2    0    0  0.18315156873E-01 -0.13547998108E-01 -0.53644062478E-02  0.23404488424E-01  0.00000000000E+00 0. -1.
     999901    1    3    3    0    0 -0.11744425481E+00  0.67703176697E-01 -0.53735032852E-01  0.89200018323E+00  0.88000000000E+00 0.  1.
        -11    1    4    4    0    0  0.49722467053E-01 -0.17917536685E-01  0.26880500818E-01  0.59297422338E-01  0.51100000000E-03 0.  1.
         11    1    4    4    0    0  0.49406630879E-01 -0.36237641904E-01  0.32218938282E-01  0.69227906010E-01  0.51100000000E-03 0. -1.
</event>
<event>
 8    1  0.1116841E+005  0.1043930E+01  0.7957747E-01            NaN
         13   -1    0    0    0    0  0.00000000000E+00  0.00000000000E+00  0.74505805969E-08  0.10566000000E+00  0.10566000000E+00 0. -1.
     999900   -1    0    0    0    0 -0.00000000000E+00 -0.00000000000E+00 -0.74505805969E-08  0.93827000000E+00  0.93827000000E+00 0. -1.
     999902    2    1    2    0    0  0.13318415584E-01 -0.18921116188E-01  0.59550329364E-02  0.10200375064E+01  0.10197576493E+01 0.  0.
     999903    2    3    3    0    0 -0.10973614422E+00 -0.34700022447E-01  0.56265327326E-01  0.12991250157E+00  0.21572160274E-01 0.  0.
         14    1    1    2    0    0 -0.13318415584E-01  0.18921116188E-01 -0.59550329364E-02  0.23892493565E-01  0.00000000000E+00 0.  1.
     999901    1    3    3    0    0  0.12305455980E+00  0.15778906259E-01 -0.50310294390E-01  0.89012500487E+00  0.88000000000E+00 0. -1.
        -11    1    4    4    0    0 -0.54212976927E-01 -0.65836270043E-02  0.30486504669E-01  0.62546615414E-01  0.51100000000E-03 0. -1.
         11    1    4    4    0    0 -0.55523167290E-01 -0.28116395443E-01  0.25778822657E-01  0.67365886153E-01  0.51100000000E-03 0.  1.
</event>
<event>
 8    1  0.1116841E+005  0.1043930E+01  0.7957747E-01            NaN
         13   -1    0    0    0    0  0.00000000000E+00  0.00000000000E+00  0.74505805969E-08  0.10566000000E+00  0.10566000000E+00 0.  1.
     999900   -1    0    0    0    0 -0.00000000000E+00 -0.00000000000E+00 -0.74505805969E-08  0.93827000000E+00  0.93827000000E+00 0. -1.
     999902    2    1    2    0    0 -0.16858410327E-01  0.57792331989E-02  0.14582202332E-01  0.10209029255E+01  0.10206431978E+01 0.  0.
     999903    2    3    3    0    0  0.65817857961E-01  0.10511928852E+00  0.37808194943E-01  0.13115955876E+00  0.19781683561E-01 0.  0.
         14    1    1    2    0    0  0.16858410327E-01 -0.57792331989E-02 -0.14582202332E-01  0.23027074499E-01  0.00000000000E+00 0. -1.
     999901    1    3    3    0    0 -0.82676268288E-01 -0.99340055316E-01 -0.23225992612E-01  0.88974336674E+00  0.88000000000E+00 0. -1.
        -11    1    4    4    0    0  0.40112642114E-01  0.61925681566E-01  0.32463384194E-01  0.80609841391E-01  0.51100000000E-03 0. -1.
         11    1    4    4    0    0  0.25705215848E-01  0.43193606950E-01  0.53448107491E-02  0.50549717369E-01  0.51100000000E-03 0.  1.
</event>
<event>
 8    1  0.1116841E+005  0.1043930E+01  0.7957747E-01            NaN
         13   -1    0    0    0    0  0.00000000000E+00  0.00000000000E+00  0.74505805969E-08  0.10566000000E+00  0.10566000000E+00 0.  1.
     999900   -1    0    0    0    0 -0.00000000000E+00 -0.00000000000E+00 -0.74505805969E-08  0.93827000000E+00  0.93827000000E+00 0.  1.
     999902    2    1    2    0    0  0.22552100412E-01 -0.54791858484E-02  0.80571102024E-02  0.10193630357E+01  0.10190669570E+01 0.  0.
     999903    2    3    3    0    0 -0.58786491834E-01  0.10165390568E+00 -0.47347897369E-01  0.12741955051E+00  0.14302108413E-01 0.  0.
         14    1    1    2    0    0 -0.22552100412E-01  0.54791858484E-02 -0.80571102024E-02  0.24566964309E-01  0.00000000000E+00 0. -1.
     999901    1    3    3    0    0  0.81338592247E-01 -0.10713309153E+00  0.55405007572E-01  0.89194348518E+00  0.88000000000E+00 0. -1.
        -11    1    4    4    0    0 -0.36559291564E-01  0.74574999709E-01 -0.36678974617E-01  0.90794386838E-01  0.51100000000E-03 0.  1.
         11    1    4    4    0    0 -0.22227200270E-01  0.27078905971E-01 -0.10668922752E-01  0.36625163674E-01  0.51100000000E-03 0. -1.
</event>
<event>
 8    1  0.1116841E+005  0.1043930E+01  0.7957747E-01            NaN
         13   -1    0    0    0    0  0.00000000000E+00  0.00000000000E+00  0.74505805969E-08  0.10566000000E+00  0.10566000000E+00 0. -1.
     999900   -1    0    0    0    0 -0.00000000000E+00 -0.00000000000E+00 -0.74505805969E-08  0.93827000000E+00  0.93827000000E+00 0.  1.
     999902    2    1    2    0    0  0.26585142635E-02  0.15515049045E-01 -0.18897020103E-01  0.10193356548E+01  0.10190389077E+01 0.  0.
     999903    2    3    3    0    0  0.17525670953E-01 -0.27066635047E-02 -0.12984173762E+00  0.13205791169E+00  0.16307668153E-01 0.  0.
         14    1    1    2    0    0 -0.26585142635E-02 -0.15515049045E-01  0.18897020103E-01  0.24594345158E-01  0.00000000000E+00 0. -1.
     999901    1    3    3    0    0 -0.14867156689E-01  0.18221712550E-01  0.11094471752E+00  0.88727774316E+00  0.88000000000E+00 0. -1.
        -11    1    4    4    0    0  0.36830677492E-02  0.58959263695E-02 -0.56317880437E-01  0.56747614168E-01  0.51100000000E-03 0. -1.
         11    1    4    4    0    0  0.13842603204E-01 -0.86025898743E-02 -0.73523857184E-01  0.75310297518E-01  0.51100000000E-03 0.  1.
</event>
<event>
 8    1  0.1116841E+005  0.1043930E+01  0.7957747E-01            NaN
         13   -1    0    0    0    0  0.00000000000E+00  0.00000000000E+00  0.74505805969E-08  0.10566000000E+00  0.10566000000E+00 0. -1.
     999900   -1    0    0    0    0 -0.00000000000E+00 -0.00000000000E+00 -0.74505805969E-08  0.93827000000E+00  0.93827000000E+00 0. -1.
     999902    2    1    2    0    0 -0.18541149044E-02 -0.22792620196E-01 -0.82520939119E-02  0.10196187201E+01  0.10193288459E+01 0.  0.
     999903    2    3    3    0    0  0.12503345891E+00 -0.30057467706E-01 -0.65542845665E-02  0.13048649315E+00  0.21141169237E-01 0.  0.
         14    1    1    2    0    0  0.18541149044E-02  0.22792620196E-01  0.82520939119E-02  0.24311279921E-01  0.00000000000E+00 0.  1.
     999901    1    3    3    0    0 -0.12688757382E+00  0.72648475099E-02 -0.16978093454E-02  0.88913222692E+00  0.88000000000E+00 0.  1.
        -11    1    4    4    0    0  0.44030126279E-01 -0.15457577842E-01 -0.11380315208E-01  0.48035002114E-01  0.51100000000E-03 0. -1.
         11    1    4    4    0    0  0.81003332635E-01 -0.14599889864E-01  0.48260306414E-02  0.82451491040E-01  0.51100000000E-03 0.  1.
</event>
<event>
 8    1  0.1116841E+005  0.1043930E+01  0.7957747E-01            NaN
         13   -1    0    0    0    0  0.00000000000E+00  0.00000000000E+00  0.74505805969E-08  0.10566000000E+00  0.10566000000E+00 0. -1.
     999900   -1    0    0    0    0 -0.00000000000E+00 -0.00000000000E+00 -0.74505805969E-08  0.93827000000E+00  0.93827000000E+00 0. -1.
     999902    2    1    2    0    0 -0.23402316645E-01  0.37128597685E-02  0.95861378708E-03  0.10202156016E+01  0.10199399497E+01 0.  0.
     999903    2    3    3    0    0  0.67000717347E-01  0.96384158600E-02 -0.10826550030E+00  0.12884714361E+00  0.17267677221E-01 0.  0.
         14    1    1    2    0    0  0.23402316645E-01 -0.37128597685E-02 -0.95861378708E-03  0.23714398419E-01  0.00000000000E+00 0. -1.
     999901    1    3    3    0    0 -0.90403033991E-01 -0.59255560915E-02  0.10922411408E+00  0.89136845797E+00  0.88000000000E+00 0.  1.
        -11    1    4    4    0    0  0.49573056810E-01 -0.34476361398E-03 -0.81226992755E-01  0.95161401295E-01  0.51100000000E-03 0.  1.
         11    1    4    4    0    0  0.17427660537E-01  0.99831794740E-02 -0.27038507541E-01  0.33685742314E-01  0.51100000000E-03 0. -1.
</event>
<event>
 8    1  0.1116841E+005  0.1043930E+01  0.7957747E-01            NaN
         13   -1    0    0    0    0  0.00000000000E+00  0.00000000000E+00  0.74505805969E-08  0.10566000000E+00  0.10566000000E+00 0. -1.
     999900   -1    0    0    0    0 -0.00000000000E+00 -0.00000000000E+00 -0.74505805969E-08  0.93827000000E+00  0.93827000000E+00 0. -1.
     999902    2    1    2    0    0 -0.14242294033E-01  0.18855000249E-01 -0.42691266053E-03  0.10202966289E+01  0.10200228795E+01 0.  0.
     999903    2    3    3    0    0  0.45562029863E-01 -0.27009177908E-01  0.11588985090E+00  0.12944890374E+00  0.22829079702E-01 0.  0.
         14    1    1    2    0    0  0.14242294033E-01 -0.18855000249E-01  0.42691266053E-03  0.23633371070E-01  0.00000000000E+00 0.  1.
     999901    1    3    3    0    0 -0.59804323896E-01  0.45864178157E-01 -0.11631676356E+00  0.89084772519E+00  0.88000000000E+00 0. -1.
        -11    1    4    4    0    0  0.27168879068E-01 -0.15760816886E-01  0.41825071627E-01  0.52308212322E-01  0.51100000000E-03 0.  1.
         11    1    4    4    0    0  0.18393150795E-01 -0.11248361021E-01  0.74064779276E-01  0.77140691415E-01  0.51100000000E-03 0. -1.
</event>
<event>
 8    1  0.1225179E+005  0.1043930E+01  0.7957747E-01            NaN
         13   -1    0    0    0    0  0.00000000000E+00  0.00000000000E+00  0.74505805969E-08  0.10566000000E+00  0.10566000000E+00 0.  1.
     999900   -1    0    0    0    0 -0.00000000000E+00 -0.00000000000E+00 -0.74505805969E-08  0.93827000000E+00  0.93827000000E+00 0. -1.
     999902    2    1    2    0    0 -0.22766332526E-01 -0.10465298664E-01 -0.14498819678E-01  0.10149810079E+01  0.10145680865E+01 0.  0.
     999903    2    3    3    0    0  0.10739335566E+00 -0.53988000482E-01  0.20774546094E-01  0.12364494312E+00  0.20210224093E-01 0.  0.
         14    1    1    2    0    0  0.22766332526E-01  0.10465298664E-01  0.14498819678E-01  0.28948992122E-01  0.00000000000E+00 0.  1.
     999901    1    3    3    0    0 -0.13015968819E+00  0.43522701818E-01 -0.35273365772E-01  0.89133606476E+00  0.88000000000E+00 0. -1.
        -11    1    4    4    0    0  0.57609252123E-01 -0.39856204884E-01  0.14151669267E-01  0.71469391084E-01  0.51100000000E-03 0.  1.
         11    1    4    4    0    0  0.49784103538E-01 -0.14131795599E-01  0.66228768267E-02  0.52175552037E-01  0.51100000000E-03 0. -1.
</event>
<event>
 8    1  0.1116841E+005  0.1043930E+01  0.7957747E-01            NaN
         13   -1    0    0    0    0  0.00000000000E+00  0.00000000000E+00  0.74505805969E-08  0.10566000000E+00  0.10566000000E+00 0. -1.
     999900   -1    0    0    0    0 -0.00000000000E+00 -0.00000000000E+00 -0.74505805969E-08  0.93827000000E+00  0.93827000000E+00 0. -1.
     999902    2    1    2    0    0 -0.16154842060E-01 -0.15875187735E-01  0.45183999025E-02  0.10208341899E+01  0.10205728915E+01 0.  0.
     999903    2    3    3    0    0  0.35470754386E-01 -0.12555016303E+00 -0.10344841066E-01  0.13240033283E+00  0.20045312246E-01 0.  0.
         14    1    1    2    0    0  0.16154842060E-01  0.15875187735E-01 -0.45183999025E-02  0.23095810124E-01  0.00000000000E+00 0.  1.
     999901    1    3    3    0    0 -0.51625596445E-01  0.10967497530E+00  0.14863240968E-01  0.88843385705E+00  0.88000000000E+00 0. -1.
        -11    1    4    4    0    0  0.62340359528E-02 -0.55890208006E-01 -0.74126432416E-03  0.56244014339E-01  0.51100000000E-03 0.  1.
         11    1    4    4    0    0  0.29236718433E-01 -0.69659955025E-01 -0.96035767416E-02  0.76156318490E-01  0.51100000000E-03 0. -1.
</event>
<event>
 8    1  0.1116841E+005  0.1043930E+01  0.7957747E-01            NaN
         13   -1    0    0    0    0  0.00000000000E+00  0.00000000000E+00  0.74505805969E-08  0.10566000000E+00  0.10566000000E+00 0. -1.
     999900   -1    0    0    0    0 -0.00000000000E+00 -0.00000000000E+00 -0.74505805969E-08  0.93827000000E+00  0.93827000000E+00 0.  1.
     999902    2    1    2    0    0  0.78716252561E-02 -0.11581465597E-01 -0.21073137636E-01  0.10186284198E+01  0.10183141400E+01 0.  0.
     999903    2    3    3    0    0  0.18445729786E-01  0.10233804637E+00 -0.74699862418E-01  0.12960350875E+00  0.20091773265E-01 0.  0.
         14    1    1    2    0    0 -0.78716252561E-02  0.11581465597E-01  0.21073137636E-01  0.25301580176E-01  0.00000000000E+00 0. -1.
     999901    1    3    3    0    0 -0.10574104530E-01 -0.11391951197E+00  0.53626724782E-01  0.88902491107E+00  0.88000000000E+00 0. -1.
        -11    1    4    4    0    0  0.82944202520E-02  0.81408607847E-01 -0.51172877395E-01  0.96514679406E-01  0.51100000000E-03 0.  1.
         11    1    4    4    0    0  0.10151309534E-01  0.20929438526E-01 -0.23526985023E-01  0.33088829347E-01  0.51100000000E-03 0. -1.
</event>
<event>
 8    1  0.1116841E+005  0.1043930E+01  0.7957747E-01            NaN
         13   -1    0    0    0    0  0.00000000000E+00  0.00000000000E+00  0.74505805969E-08  0.10566000000E+00  0.10566000000E+00 0.  1.
     999900   -1    0    0    0    0 -0.00000000000E+00 -0.00000000000E+00 -0.74505805969E-08  0.93827000000E+00  0.93827000000E+00 0.  1.
     999902    2    1    2    0    0 -0.17496041697E-02  0.21536905860E-01  0.97337542692E-02  0.10202309409E+01  0.10199556497E+01 0.  0.
     999903    2    3    3    0    0  0.23014129064E-01  0.12892960194E+00  0.15988059644E-01  0.13333435733E+00  0.19233834766E-01 0.  0.
         14    1    1    2    0    0  0.17496041697E-02 -0.21536905860E-01 -0.97337542692E-02  0.23699059073E-01  0.00000000000E+00 0. -1.
     999901    1    3    3    0    0 -0.24763733234E-01 -0.10739269608E+00 -0.62543053752E-02  0.88689658359E+00  0.88000000000E+00 0.  1.
        -11    1    4    4    0    0  0.22827063926E-02  0.23140067227E-01 -0.42638775167E-02  0.23645617612E-01  0.51100000000E-03 0.  1.
         11    1    4    4    0    0  0.20731422672E-01  0.10578953472E+00  0.20251937161E-01  0.10968873972E+00  0.51100000000E-03 0. -1.
</event>
<event>
 8    1  0.1116841E+005  0.1043930E+01  0.7957747E-01            NaN
         13   -1    0    0    0    0  0.00000000000E+00  0.00000000000E+00  0.74505805969E-08  0.10566000000E+00  0.10566000000E+00 0. -1.
     999900   -1    0    0    0    0 -0.00000000000E+00 -0.00000000000E+00 -0.74505805969E-08  0.93827000000E+00  0.93827000000E+00 0.  1.
     999902    2    1    2    0    0  0.22426970978E-01 -0.65479645742E-02 -0.67666560811E-03  0.10205568799E+01  0.10202891954E+01 0.  0.
     999903    2    3    3    0    0  0.54580854121E-01 -0.59492360666E-01  0.10282953478E+00  0.13232801592E+00  0.20454338383E-01 0.  0.
         14    1    1    2    0    0 -0.22426970978E-01  0.65479645742E-02  0.67666560811E-03  0.23373120110E-01  0.00000000000E+00 0. -1.
     999901    1    3    3    0    0 -0.32153883143E-01  0.52944396092E-01 -0.10350620039E+00  0.88822886397E+00  0.88000000000E+00 0.  1.
        -11    1    4    4    0    0  0.30550237978E-01 -0.27188671452E-01  0.36955009026E-01  0.55122361242E-01  0.51100000000E-03 0. -1.
         11    1    4    4    0    0  0.24030616143E-01 -0.32303689214E-01  0.65874525755E-01  0.77205654673E-01  0.51100000000E-03 0.  1.
</event>
<event>
 8    1  0.1116841E+005  0.1043930E+01  0.7957747E-01            NaN
         13   -1    0    0    0    0  0.00000000000E+00  0.00000000000E+00  0.74505805969E-08  0.10566000000E+00  0.10566000000E+00 0. -1.
     999900   -1    0    0    0    0 -0.00000000000E+00 -0.00000000000E+00 -0.74505805969E-08  0.93827000000E+00  0.93827000000E+00 0. -1.
     999902    2    1    2    0    0  0.16372206880E-02 -0.18806876442E-01  0.15121811215E-01  0.10197422290E+01  0.10194553277E+01 0.  0.
     999903    2    3    3    0    0  0.43662141100E-01  0.33643232090E-01 -0.11354364783E+00  0.12784991026E+00  0.20376210656E-01 0.  0.
         14    1    1    2    0    0 -0.16372206880E-02  0.18806876442E-01 -0.15121811215E-01  0.24187771032E-01  0.00000000000E+00 0. -1.
     999901    1    3    3    0    0 -0.42024920412E-01 -0.52450108532E-01  0.12866545904E+00  0.89189231871E+00  0.88000000000E+00 0.  1.
        -11    1    4    4    0    0  0.19600566224E-01  0.27668727488E-01 -0.68344439859E-01  0.76295244005E-01  0.51100000000E-03 0.  1.
         11    1    4    4    0    0  0.24061574876E-01  0.59745046026E-02 -0.45199207967E-01  0.51554666255E-01  0.51100000000E-03 0. -1.
</event>
<event>
 8    1  0.1116841E+005  0.1043930E+01  0.7957747E-01            NaN
         13   -1    0    0    0    0  0.00000000000E+00  0.00000000000E+00  0.74505805969E-08  0.10566000000E+00  0.10566000000E+00 0.  1.
     999900   -1    0    0    0    0 -0.00000000000E+00 -0.00000000000E+00 -0.74505805969E-08  0.93827000000E+00  0.93827000000E+00 0.  1.
     999902    2    1    2    0    0 -0.27664982822E-02  0.17439255074E-01 -0.14199984545E-01  0.10212712116E+01  0.10210198171E+01 0.  0.
     999903    2    3    3    0    0  0.12746349636E+00 -0.25964150904E-02  0.20566934441E-01  0.13078257146E+00  0.20673604658E-01 0.  0.
         14    1    1    2    0    0  0.27664982822E-02 -0.17439255074E-01  0.14199984545E-01  0.22658788392E-01  0.00000000000E+00 0.  1.
     999901    1    3    3    0    0 -0.13022999464E+00  0.20035670165E-01 -0.34766918986E-01  0.89048864015E+00  0.88000000000E+00 0.  1.
        -11    1    4    4    0    0  0.79663109731E-01 -0.42376888716E-02  0.22572444355E-01  0.82909260183E-01  0.51100000000E-03 0.  1.
         11    1    4    4    0    0  0.47800386627E-01  0.16412737812E-02 -0.20055099143E-02  0.47873311274E-01  0.51100000000E-03 0. -1.
</event>
<event>
 8    1  0.1116841E+005  0.1043930E+01  0.7957747E-01            NaN
         13   -1    0    0    0    0  0.00000000000E+00  0.00000000000E+00  0.74505805969E-08  0.10566000000E+00  0.10566000000E+00 0.  1.
     999900   -1    0    0    0    0 -0.00000000000E+00 -0.00000000000E+00 -0.74505805969E-08  0.93827000000E+00  0.93827000000E+00 0.  1.
     999902    2    1    2    0    0 -0.11181016335E-01 -0.15367926603E-01 -0.14026070057E-01  0.10203096923E+01  0.10200362490E+01 0.  0.
     999903    2    3    3    0    0 -0.65550644208E-01 -0.13298963853E-01 -0.11382176866E+00  0.13299942047E+00  0.16115254553E-01 0.  0.
         14    1    1    2    0    0  0.11181016335E-01  0.15367926603E-01  0.14026070057E-01  0.23620307695E-01  0.00000000000E+00 0.  1.
     999901    1    3    3    0    0  0.54369627873E-01 -0.20689627504E-02  0.99795698602E-01  0.88731027183E+00  0.88000000000E+00 0. -1.
        -11    1    4    4    0    0 -0.40210420249E-01 -0.20748762218E-02 -0.57142714132E-01  0.69905177972E-01  0.51100000000E-03 0.  1.
         11    1    4    4    0    0 -0.25340223960E-01 -0.11224087631E-01 -0.56679054527E-01  0.63094242499E-01  0.51100000000E-03 0. -1.
</event>
<event>
 8    1  0.1116841E+005  0.1043930E+01  0.7957747E-01            NaN
         13   -1    0    0    0    0  0.00000000000E+00  0.00000000000E+00  0.74505805969E-08  0.10566000000E+00  0.10566000000E+00 0. -1.
     999900   -1    0    0    0    0 -0.00000000000E+00 -0.00000000000E+00 -0.74505805969E-08  0.93827000000E+00  0.93827000000E+00 0. -1.
     999902    2    1    2    0    0 -0.59452752716E-02  0.90817734940E-02 -0.25792840452E-01  0.10159461560E+01  0.10155606808E+01 0.  0.
     999903    2    3    3    0    0 -0.65797157096E-01 -0.60836563065E-01  0.84107453299E-01  0.12434708907E+00  0.18915114889E-01 0.  0.
         14    1    1    2    0    0  0.59452752716E-02 -0.90817734940E-02  0.25792840452E-01  0.27983844025E-01  0.00000000000E+00 0. -1.
     999901    1    3    3    0    0  0.59851881825E-01  0.69918336559E-01 -0.10990029375E+00  0.89159906691E+00  0.88000000000E+00 0. -1.
        -11    1    4    4    0    0 -0.34697278782E-01 -0.24407337245E-01  0.29313377911E-01  0.51566990525E-01  0.51100000000E-03 0. -1.
         11    1    4    4    0    0 -0.31099878314E-01 -0.36429225821E-01  0.54794075388E-01  0.72780098542E-01  0.51100000000E-03 0.  1.
</event>
<event>
 8    1  0.1116841E+005  0.1043930E+01  0.7957747E-01            NaN
         13   -1    0    0    0    0  0.00000000000E+00  0.00000000000E+00  0.74505805969E-08  0.10566000000E+00  0.10566000000E+00 0.  1.
     999900   -1    0    0    0    0 -0.00000000000E+00 -0.00000000000E+00 -0.74505805969E-08  0.93827000000E+00  0.93827000000E+00 0.  1.
     999902    2    1    2    0    0 -0.91049777067E-02  0.19146109832E-01  0.90187333391E-02  0.10208906491E+01  0.10206306411E+01 0.  0.
     999903    2    3    3    0    0 -0.37658327043E-01  0.88301058771E-01  0.91015444539E-01  0.13391761600E+00  0.20854020129E-01 0.  0.
         14    1    1    2    0    0  0.91049777067E-02 -0.19146109832E-01 -0.90187333391E-02  0.23039350941E-01  0.00000000000E+00 0. -1.
     999901    1    3    3    0    0  0.28553349336E-01 -0.69154948939E-01 -0.81996711200E-01  0.88697303306E+00  0.88000000000E+00 0.  1.
        -11    1    4    4    0    0 -0.33194585797E-01  0.53528941564E-01  0.62367131655E-01  0.88640556988E-01  0.51100000000E-03 0.  1.
         11    1    4    4    0    0 -0.44637412457E-02  0.34772117207E-01  0.28648312884E-01  0.45277059015E-01  0.51100000000E-03 0. -1.
</event>
<event>
 8    1  0.1116841E+005  0.1043930E+01  0.7957747E-01            NaN
         13   -1    0    0    0    0  0.00000000000E+00  0.00000000000E+00  0.74505805969E-08  0.10566000000E+00  0.10566000000E+00 0. -1.
     999900   -1    0    0    0    0 -0.00000000000E+00 -0.00000000000E+00 -0.74505805969E-08  0.93827000000E+00  0.93827000000E+00 0. -1.
     999902    2    1    2    0    0  0.77205277609E-03  0.20391451544E-01 -0.11586138930E-01  0.10204641530E+01  0.10201943156E+01 0.  0.
     999903    2    3    3    0    0  0.57679515760E-02  0.33694677362E-02 -0.13069169274E+00  0.13226325234E+00  0.19199655978E-01 0.  0.
         14    1    1    2    0    0 -0.77205277609E-03 -0.20391451544E-01  0.11586138930E-01  0.23465847030E-01  0.00000000000E+00 0.  1.
     999901    1    3    3    0    0 -0.49958987999E-02  0.17021983807E-01  0.11910555381E+00  0.88820090063E+00  0.88000000000E+00 0.  1.
        -11    1    4    4    0    0 -0.46017508630E-02  0.37346022775E-02 -0.92279334885E-01  0.92470860994E-01  0.51100000000E-03 0.  1.
         11    1    4    4    0    0  0.10369702439E-01 -0.36513454129E-03 -0.38412357853E-01  0.39792391342E-01  0.51100000000E-03 0. -1.
</event>
<event>
 8    1  0.1116841E+005  0.1043930E+01  0.7957747E-01            NaN
         13   -1    0    0    0    0  0.00000000000E+00  0.00000000000E+00  0.74505805969E-08  0.10566000000E+00  0.10566000000E+00 0. -1.
     999900   -1    0    0    0    0 -0.00000000000E+00 -0.00000000000E+00 -0.74505805969E-08  0.93827000000E+00  0.93827000000E+00 0.  1.
     999902    2    1    2    0    0  0.10787647700E-01 -0.22935095251E-02  0.20540280400E-01  0.10206161276E+01  0.10203498141E+01 0.  0.
     999903    2    3    3    0    0  0.54227510066E-01 -0.45640343691E-01  0.11114932815E+00  0.13383770586E+00  0.23123462996E-01 0.  0.
         14    1    1    2    0    0 -0.10787647700E-01  0.22935095251E-02 -0.20540280400E-01  0.23313872432E-01  0.00000000000E+00 0.  1.
     999901    1    3    3    0    0 -0.43439862366E-01  0.43346834165E-01 -0.90609047751E-01  0.88677842171E+00  0.88000000000E+00 0.  1.
        -11    1    4    4    0    0  0.38231500371E-01 -0.37774339217E-01  0.97676337960E-01  0.11148756183E+00  0.51100000000E-03 0.  1.
         11    1    4    4    0    0  0.15996009695E-01 -0.78660044738E-02  0.13472990192E-01  0.22350144032E-01  0.51100000000E-03 0. -1.
</event>
<event>
 8    1  0.1116841E+005  0.1043930E+01  0.7957747E-01            NaN
         13   -1    0    0    0    0  0.00000000000E+00  0.00000000000E+00  0.74505805969E-08  0.10566000000E+00  0.10566000000E+00 0. -1.
     999900   -1    0    0    0    0 -0.00000000000E+00 -0.00000000000E+00 -0.74505805969E-08  0.93827000000E+00  0.93827000000E+00 0. -1.
     999902    2    1    2    0    0 -0.19624205419E-02  0.18337331252E-01 -0.18959173623E-01  0.10174808209E+01  0.10171369926E+01 0.  0.
     999903    2    3    3    0    0 -0.83151828018E-01 -0.82866892830E-01  0.41033587620E-01  0.12594666771E+00  0.19941398259E-01 0.  0.
         14    1    1    2    0    0  0.19624205419E-02 -0.18337331252E-01  0.18959173623E-01  0.26449179124E-01  0.00000000000E+00 0. -1.
     999901    1    3    3    0    0  0.81189407476E-01  0.10120422408E+00 -0.59992761244E-01  0.89153415317E+00  0.88000000000E+00 0. -1.
        -11    1    4    4    0    0 -0.35088498043E-01 -0.46315445129E-01  0.13912316992E-01  0.59750622068E-01  0.51100000000E-03 0. -1.
         11    1    4    4    0    0 -0.48063329975E-01 -0.36551447701E-01  0.27121270628E-01  0.66196045644E-01  0.51100000000E-03 0.  1.
</event>
<event>
 8    1  0.1116841E+005  0.1043930E+01  0.7957747E-01            NaN
         13   -1    0    0    0    0  0.00000000000E+00  0.00000000000E+00  0.74505805969E-08  0.10566000000E+00  0.10566000000E+00 0. -1.
     999900   -1    0    0    0    0 -0.00000000000E+00 -0.00000000000E+00 -0.74505805969E-08  0.93827000000E+00  0.93827000000E+00 0. -1.
     999902    2    1    2    0    0  0.17124330498E-01  0.16941300645E-02 -0.15611264379E-01  0.10206958797E+01  0.10204314060E+01 0.  0.
     999903    2    3    3    0    0 -0.52231103011E-01 -0.72855809929E-01  0.89860887958E-01  0.12856794904E+00  0.20461700142E-01 0.  0.
         14    1    1    2    0    0 -0.17124330498E-01 -0.16941300645E-02  0.15611264379E-01  0.23234120323E-01  0.00000000000E+00 0. -1.
     999901    1    3    3    0    0  0.69355433508E-01  0.74549939993E-01 -0.10547215234E+00  0.89212793064E+00  0.88000000000E+00 0. -1.
        -11    1    4    4    0    0 -0.41895663203E-01 -0.57622159948E-01  0.58435632138E-01  0.92144148684E-01  0.51100000000E-03 0. -1.
         11    1    4    4    0    0 -0.10335439807E-01 -0.15233649981E-01  0.31425255820E-01  0.36423800353E-01  0.51100000000E-03 0.  1.
</event>
<event>
 8    1  0.1116841E+005  0.1043930E+01  0.7957747E-01            NaN
         13   -1    0    0    0    0  0.00000000000E+00  0.00000000000E+00  0.74505805969E-08  0.10566000000E+00  0.10566000000E+00 0.  1.
     999900   -1    0    0    0    0 -0.00000000000E+00 -0.00000000000E+00 -0.74505805969E-08  0.93827000000E+00  0.93827000000E+00 0.  1.
     999902    2    1    2    0    0 -0.17175254904E-01  0.15310507321E-01 -0.38826375775E-02  0.10205959928E+01  0.10203292139E+01 0.  0.
     999903    2    3    3    0    0 -0.11849776273E+00  0.57074474421E-01  0.13683480654E-01  0.13362415110E+00  0.19208350073E-01 0.  0.
         14    1    1    2    0    0  0.17175254904E-01 -0.15310507321E-01  0.38826375775E-02  0.23334007156E-01  0.00000000000E+00 0. -1.
     999901    1    3    3    0    0  0.10132250782E+00 -0.41763967100E-01 -0.17566118232E-01  0.88697184175E+00  0.88000000000E+00 0.  1.
        -11    1    4    4    0    0 -0.65663990650E-01  0.22310585180E-01  0.25125665037E-02  0.69398097889E-01  0.51100000000E-03 0. -1.
         11    1    4    4    0    0 -0.52833772075E-01  0.34763889241E-01  0.11170914150E-01  0.64226053209E-01  0.51100000000E-03 0.  1.
</event>
<event>
 8    1  0.1116841E+005  0.1043930E+01  0.7957747E-01            NaN
         13   -1    0    0    0    0  0.00000000000E+00  0.00000000000E+00  0.74505805969E-08  0.10566000000E+00  0.10566000000E+00 0. -1.
     999900   -1    0    0    0    0 -0.00000000000E+00 -0.00000000000E+00 -0.74505805969E-08  0.93827000000E+00  0.93827000000E+00 0. -1.
     999902    2    1    2    0    0 -0.11890279126E-01  0.19485349046E-01  0.51525193849E-02  0.10205290167E+01  0.10202606862E+01 0.  0.
     999903    2    3    3    0    0 -0.11751949948E+00  0.21710556462E-01 -0.53338987119E-01  0.13228144978E+00  0.19265341634E-01 0.  0.
         14    1    1    2    0    0  0.11890279126E-01 -0.19485349046E-01 -0.51525193849E-02  0.23400983338E-01  0.00000000000E+00 0. -1.
     999901    1    3    3    0    0  0.10562922036E+00 -0.22252074163E-02  0.58491506504E-01  0.88824756688E+00  0.88000000000E+00 0.  1.
        -11    1    4    4    0    0 -0.48079990911E-02 -0.11616494460E-02 -0.62946307803E-02  0.80218316085E-02  0.51100000000E-03 0.  1.
         11    1    4    4    0    0 -0.11271150039E+00  0.22872205908E-01 -0.47044356339E-01  0.12425961817E+00  0.51100000000E-03 0. -1.
</event>
<event>
 8    1  0.1116841E+005  0.1043930E+01  0.7957747E-01            NaN
         13   -1    0    0    0    0  0.00000000000E+00  0.00000000000E+00  0.74505805969E-08  0.10566000000E+00  0.10566000000E+00 0. -1.
     999900   -1    0    0    0    0 -0.00000000000E+00 -0.00000000000E+00 -0.74505805969E-08  0.93827000000E+00  0.93827000000E+00 0.  1.
     999902    2    1    2    0    0  0.16546177001E-01  0.73037125680E-02 -0.12607696743E-01  0.10218829093E+01  0.10216450490E+01 0.  0.
     999903    2    3    3    0    0 -0.11279355865E+00  0.38184984230E-01 -0.51106651031E-01  0.13106048613E+00  0.19608196023E-01 0.  0.
         14    1    1    2    0    0 -0.16546177001E-01 -0.73037125680E-02  0.12607696743E-01  0.22047090688E-01  0.00000000000E+00 0.  1.
     999901    1    3    3    0    0  0.12933973565E+00 -0.30881271662E-01  0.38498954287E-01  0.89082242318E+00  0.88000000000E+00 0. -1.
        -11    1    4    4    0    0 -0.74721274492E-01  0.15549082304E-01 -0.34414004900E-01  0.83723519255E-01  0.51100000000E-03 0.  1.
         11    1    4    4    0    0 -0.38072284162E-01  0.22635901926E-01 -0.16692646130E-01  0.47336966877E-01  0.51100000000E-03 0. -1.
</event>
<event>
 8    1  0.1116841E+005  0.1043930E+01  0.7957747E-01            NaN
         13   -1    0    0    0    0  0.00000000000E+00  0.00000000000E+00  0.74505805969E-08  0.10566000000E+00  0.10566000000E+00 0.  1.
     999900   -1    0    0    0    0 -0.00000000000E+00 -0.00000000000E+00 -0.74505805969E-08  0.93827000000E+00  0.93827000000E+00 0. -1.
     999902    2    1    2    0    0 -0.20356122432E-01  0.16572742839E-02 -0.11264880443E-01  0.10206058535E+01  0.10203393026E+01 0.  0.
     999903    2    3    3    0    0  0.91482796724E-01  0.87307797225E-02 -0.89813624376E-01  0.13002857808E+00  0.19890082545E-01 0.  0.
         14    1    1    2    0    0  0.20356122432E-01 -0.16572742839E-02  0.11264880443E-01  0.23324146500E-01  0.00000000000E+00 0.  1.
     999901    1    3    3    0    0 -0.11183891916E+00 -0.70735054385E-02  0.78548743932E-01  0.89057727542E+00  0.88000000000E+00 0.  1.
        -11    1    4    4    0    0  0.33924707876E-01  0.12678839551E-01 -0.37730512516E-01  0.52301926088E-01  0.51100000000E-03 0.  1.
         11    1    4    4    0    0  0.57558088849E-01 -0.39480598283E-02 -0.52083111860E-01  0.77726651995E-01  0.51100000000E-03 0. -1.
</event>
<event>
 8    1  0.1116841E+005  0.1043930E+01  0.7957747E-01            NaN
         13   -1    0    0    0    0  0.00000000000E+00  0.00000000000E+00  0.74505805969E-08  0.10566000000E+00  0.10566000000E+00 0. -1.
     999900   -1    0    0    0    0 -0.00000000000E+00 -0.00000000000E+00 -0.74505805969E-08  0.93827000000E+00  0.93827000000E+00 0.  1.
     999902    2    1    2    0    0  0.48756584810E-03  0.21564458118E-01 -0.98305261114E-02  0.10202255106E+01  0.10199500917E+01 0.  0.
     999903    2    3    3    0    0 -0.58546387740E-01 -0.17852921086E-03  0.11333550301E+00  0.12942382901E+00  0.21860463949E-01 0.  0.
         14    1    1    2    0    0 -0.48756584810E-03 -0.21564458118E-01  0.98305261114E-02  0.23704489407E-01  0.00000000000E+00 0. -1.
     999901    1    3    3    0    0  0.59033953588E-01  0.21742987329E-01 -0.12316602912E+00  0.89080168158E+00  0.88000000000E+00 0.  1.
        -11    1    4    4    0    0 -0.17725862587E-01 -0.39865149467E-03  0.58046279787E-01  0.60695937636E-01  0.51100000000E-03 0. -1.
         11    1    4    4    0    0 -0.40820525154E-01  0.22012228381E-03  0.55289223223E-01  0.68727891378E-01  0.51100000000E-03 0.  1.
</event>
<event>
 8    1  0.1116841E+005  0.1043930E+01  0.7957747E-01            NaN
         13   -1    0    0    0    0  0.00000000000E+00  0.00000000000E+00  0.74505805969E-08  0.10566000000E+00  0.10566000000E+00 0.  1.
     999900   -1    0    0    0    0 -0.00000000000E+00 -0.00000000000E+00 -0.74505805969E-08  0.93827000000E+00  0.93827000000E+00 0.  1.
     999902    2    1    2    0    0 -0.90519959709E-02  0.20645587505E-01 -0.17936351255E-02  0.10213159327E+01  0.10210655406E+01 0.  0.
     999903    2    3    3    0    0  0.94406692566E-01 -0.78031939741E-01 -0.34978902218E-01  0.12915999530E+00  0.21381617463E-01 0.  0.
         14    1    1    2    0    0  0.90519959709E-02 -0.20645587505E-01  0.17936351255E-02  0.22614067335E-01  0.00000000000E+00 0.  1.
     999901    1    3    3    0    0 -0.10345868854E+00  0.98677527246E-01  0.33185267092E-01  0.89215593736E+00  0.88000000000E+00 0. -1.
        -11    1    4    4    0    0  0.53322603766E-01 -0.34900867372E-01 -0.26374877137E-01  0.68972935857E-01  0.51100000000E-03 0.  1.
         11    1    4    4    0    0  0.41084088801E-01 -0.43131072368E-01 -0.86040250811E-02  0.60187059447E-01  0.51100000000E-03 0. -1.
</event>
<event>
 8    1  0.1116841E+005  0.1043930E+01  0.7957747E-01            NaN
         13   -1    0    0    0    0  0.00000000000E+00  0.00000000000E+00  0.74505805969E-08  0.10566000000E+00  0.10566000000E+00 0. -1.
     999900   -1    0    0    0    0 -0.00000000000E+00 -0.00000000000E+00 -0.74505805969E-08  0.93827000000E+00  0.93827000000E+00 0. -1.
     999902    2    1    2    0    0 -0.66132902488E-02 -0.97065705610E-02  0.27354555977E-01  0.10141604711E+01  0.10137234516E+01 0.  0.
     999903    2    3    3    0    0  0.12194490474E+00 -0.29350982105E-03  0.19124030559E-01  0.12473168991E+00  0.17933766532E-01 0.  0.
         14    1    1    2    0    0  0.66132902488E-02  0.97065705610E-02 -0.27354555977E-01  0.29769528929E-01  0.00000000000E+00 0.  1.
     999901    1    3    3    0    0 -0.12855819499E+00 -0.94130607399E-02  0.82305254182E-02  0.88942878116E+00  0.88000000000E+00 0. -1.
        -11    1    4    4    0    0  0.41901776355E-01 -0.84910051256E-02  0.51829109589E-02  0.43069475464E-01  0.51100000000E-03 0. -1.
         11    1    4    4    0    0  0.80043128387E-01  0.81974953045E-02  0.13941119600E-01  0.81662214444E-01  0.51100000000E-03 0.  1.
</event>
<event>
 8    1  0.1116841E+005  0.1043930E+01  0.7957747E-01            NaN
         13   -1    0    0    0    0  0.00000000000E+00  0.00000000000E+00  0.74505805969E-08  0.10566000000E+00  0.10566000000E+00 0. -1.
     999900   -1    0    0    0    0 -0.00000000000E+00 -0.00000000000E+00 -0.74505805969E-08  0.93827000000E+00  0.93827000000E+00 0.  1.
     999902    2    1    2    0    0 -0.19087025750E-01 -0.46779434055E-02 -0.13019687647E-01  0.10203564985E+01  0.10200841505E+01 0.  0.
     999903    2    3    3    0    0 -0.69023346990E-01  0.10916457589E+00  0.24502487124E-02  0.13148469992E+00  0.24517249750E-01 0.  0.
         14    1    1    2    0    0  0.19087025750E-01  0.46779434055E-02  0.13019687647E-01  0.23573501498E-01  0.00000000000E+00 0. -1.
     999901    1    3    3    0    0  0.49936321240E-01 -0.11384251930E+00 -0.15469936359E-01  0.88887179858E+00  0.88000000000E+00 0. -1.
        -11    1    4    4    0    0 -0.26803433302E-01  0.23446837762E-01  0.45790769756E-02  0.35908318044E-01  0.51100000000E-03 0.  1.
         11    1    4    4    0    0 -0.42219913688E-01  0.85717738131E-01 -0.21288282632E-02  0.95576381878E-01  0.51100000000E-03 0. -1.
</event>
<event>
 8    1  0.1116841E+005  0.1043930E+01  0.7957747E-01            NaN
         13   -1    0    0    0    0  0.00000000000E+00  0.00000000000E+00  0.74505805969E-08  0.10566000000E+00  0.10566000000E+00 0. -1.
     999900   -1    0    0    0    0 -0.00000000000E+00 -0.00000000000E+00 -0.74505805969E-08  0.93827000000E+00  0.93827000000E+00 0.  1.
     999902    2    1    2    0    0 -0.20312666331E-01 -0.58860694014E-02  0.81688897789E-02  0.10212588512E+01  0.10210071793E+01 0.  0.
     999903    2    3    3    0    0 -0.91364683774E-02 -0.10935120177E+00 -0.69975993296E-01  0.13168785138E+00  0.20097019175E-01 0.  0.
         14    1    1    2    0    0  0.20312666331E-01  0.58860694014E-02 -0.81688897789E-02  0.22671148773E-01  0.00000000000E+00 0.  1.
     999901    1    3    3    0    0 -0.11176197953E-01  0.10346513237E+00  0.78144883075E-01  0.88957099985E+00  0.88000000000E+00 0. -1.
        -11    1    4    4    0    0 -0.42665298589E-02 -0.97318981554E-01 -0.67364709969E-01  0.11843754775E+00  0.51100000000E-03 0. -1.
         11    1    4    4    0    0 -0.48699385185E-02 -0.12032220219E-01 -0.26112833271E-02  0.13250303626E-01  0.51100000000E-03 0.  1.
</event>
<event>
 8    1  0.1255575E+005  0.1043930E+01  0.7957747E-01            NaN
         13   -1    0    0    0    0  0.00000000000E+00  0.00000000000E+00  0.74505805969E-08  0.10566000000E+00  0.10566000000E+00 0. -1.
     999900   -1    0    0    0    0 -0.00000000000E+00 -0.00000000000E+00 -0.74505805969E-08  0.93827000000E+00  0.93827000000E+00 0.  1.
     999902    2    1    2    0    0  0.13740478652E-01 -0.72003775295E-02 -0.17795016100E-01  0.10203226116E+01  0.10200494708E+01 0.  0.
     999903    2    3    3    0    0 -0.49665163388E-01 -0.10568550470E+00  0.52615244338E-01  0.12977379175E+00  0.20900208904E-01 0.  0.
         14    1    1    2    0    0 -0.13740478652E-01  0.72003775295E-02  0.17795016100E-01  0.23607388422E-01  0.00000000000E+00 0. -1.
     999901    1    3    3    0    0  0.63405642040E-01  0.98485127166E-01 -0.70410260437E-01  0.89054881982E+00  0.88000000000E+00 0.  1.
        -11    1    4    4    0    0 -0.24347716633E-01 -0.54805647325E-01  0.38321990417E-01  0.71170965671E-01  0.51100000000E-03 0.  1.
         11    1    4    4    0    0 -0.25317446756E-01 -0.50879857370E-01  0.14293253920E-01  0.58602826082E-01  0.51100000000E-03 0. -1.
</event>
<event>
 8    1  0.1116841E+005  0.1043930E+01  0.7957747E-01            NaN
         13   -1    0    0    0    0  0.00000000000E+00  0.00000000000E+00  0.74505805969E-08  0.10566000000E+00  0.10566000000E+00 0. -1.
     999900   -1    0    0    0    0 -0.00000000000E+00 -0.00000000000E+00 -0.74505805969E-08  0.93827000000E+00  0.93827000000E+00 0.  1.
     999902    2    1    2    0    0  0.12207322176E-01  0.20129464187E-01 -0.45899070824E-02  0.10199449778E+01  0.10196629229E+01 0.  0.
     999903    2    3    3    0    0  0.67664968260E-01  0.69933908441E-01  0.87005384145E-01  0.13205662302E+00  0.19992882052E-01 0.  0.
         14    1    1    2    0    0 -0.12207322176E-01 -0.20129464187E-01  0.45899070824E-02  0.23985022205E-01  0.00000000000E+00 0. -1.
     999901    1    3    3    0    0 -0.55457646084E-01 -0.49804444254E-01 -0.91595291227E-01  0.88788835478E+00  0.88000000000E+00 0.  1.
        -11    1    4    4    0    0  0.61299517467E-01  0.52415911358E-01  0.72140238257E-01  0.10821059884E+00  0.51100000000E-03 0. -1.
         11    1    4    4    0    0  0.63654507931E-02  0.17517997083E-01  0.14865145888E-01  0.23846024173E-01  0.51100000000E-03 0.  1.
</event>
<event>
 8    1  0.1116841E+005  0.1043930E+01  0.7957747E-01            NaN
         13   -1    0    0    0    0  0.00000000000E+00  0.00000000000E+00  0.74505805969E-08  0.10566000000E+00  0.10566000000E+00 0. -1.
     999900   -1    0    0    0    0 -0.00000000000E+00 -0.00000000000E+00 -0.74505805969E-08  0.93827000000E+00  0.93827000000E+00 0.  1.
     999902    2    1    2    0    0 -0.13878272816E-01 -0.18821452090E-01 -0.13244758059E-01  0.10170547859E+01  0.10166996412E+01 0.  0.
     999903    2    3    3    0    0  0.12038877952E+00  0.26772623914E-01 -0.13399946033E-01  0.12570385325E+00  0.20289616593E-01 0.  0.
         14    1    1    2    0    0  0.13878272816E-01  0.18821452090E-01  0.13244758059E-01  0.26875214067E-01  0.00000000000E+00 0.  1.
     999901    1    3    3    0    0 -0.13426705234E+00 -0.45594076004E-01  0.15518797334E-03  0.89135093268E+00  0.88000000000E+00 0.  1.
        -11    1    4    4    0    0  0.67398770556E-01  0.66994241498E-02 -0.12254777490E-02  0.67743925729E-01  0.51100000000E-03 0. -1.
         11    1    4    4    0    0  0.52990008969E-01  0.20073199764E-01 -0.12174468284E-01  0.57959927521E-01  0.51100000000E-03 0.  1.
</event>
<event>
 8    1  0.1116841E+005  0.1043930E+01  0.7957747E-01            NaN
         13   -1    0    0    0    0  0.00000000000E+00  0.00000000000E+00  0.74505805969E-08  0.10566000000E+00  0.10566000000E+00 0. -1.
     999900   -1    0    0    0    0 -0.00000000000E+00 -0.00000000000E+00 -0.74505805969E-08  0.93827000000E+00  0.93827000000E+00 0. -1.
     999902    2    1    2    0    0  0.10596568103E-01  0.31140281283E-02  0.19404233374E-01  0.10216026916E+01  0.10213586788E+01 0.  0.
     999903    2    3    3    0    0  0.71533467440E-02  0.10881658056E+00  0.74491741745E-01  0.13356017071E+00  0.19926892328E-01 0.  0.
         14    1    1    2    0    0 -0.10596568103E-01 -0.31140281283E-02 -0.19404233374E-01  0.22327308382E-01  0.00000000000E+00 0. -1.
     999901    1    3    3    0    0  0.34432213589E-02 -0.10570255243E+00 -0.55087508371E-01  0.88804252091E+00  0.88000000000E+00 0. -1.
        -11    1    4    4    0    0  0.78108905901E-02  0.15043119833E-01  0.92047322877E-02  0.19294913412E-01  0.51100000000E-03 0. -1.
         11    1    4    4    0    0 -0.65754384606E-03  0.93773460725E-01  0.65287009458E-01  0.11426525730E+00  0.51100000000E-03 0.  1.
</event>
<event>
 8    1  0.1116841E+005  0.1043930E+01  0.7957747E-01            NaN
         13   -1    0    0    0    0  0.00000000000E+00  0.00000000000E+00  0.74505805969E-08  0.10566000000E+00  0.10566000000E+00 0.  1.
     999900   -1    0    0    0    0 -0.00000000000E+00 -0.00000000000E+00 -0.74505805969E-08  0.93827000000E+00  0.93827000000E+00 0. -1.
     999902    2    1    2    0    0  0.22706469209E-01 -0.49143205846E-02  0.15027056798E-02  0.10206492694E+01  0.10203837214E+01 0.  0.
     999903    2    3    3    0    0  0.69576661518E-01 -0.44890666788E-02  0.11112200248E+00  0.13261020161E+00  0.19398520291E-01 0.  0.
         14    1    1    2    0    0 -0.22706469209E-01  0.49143205846E-02 -0.15027056798E-02  0.23280730554E-01  0.00000000000E+00 0.  1.
     999901    1    3    3    0    0 -0.46870192308E-01 -0.42525390583E-03 -0.10961929680E+00  0.88803906783E+00  0.88000000000E+00 0. -1.
        -11    1    4    4    0    0  0.41347308921E-01 -0.44315670368E-02  0.48310839275E-01  0.63745094351E-01  0.51100000000E-03 0. -1.
         11    1    4    4    0    0  0.28229352597E-01 -0.57499642054E-04  0.62811163203E-01  0.68865107262E-01  0.51100000000E-03 0.  1.
</event>
<event>
 8    1  0.1116841E+005  0.1043930E+01  0.7957747E-01            NaN
         13   -1    0    0    0    0  0.00000000000E+00  0.00000000000E+00  0.74505805969E-08  0.10566000000E+00  0.10566000000E+00 0. -1.
     999900   -1    0    0    0    0 -0.00000000000E+00 -0.00000000000E+00 -0.74505805969E-08  0.93827000000E+00  0.93827000000E+00 0.  1.
     999902    2    1    2    0    0 -0.45130278535E-03 -0.21475958513E-01  0.91298587442E-02  0.10205895889E+01  0.10203226618E+01 0.  0.
     999903    2    3    3    0    0  0.12543437386E+00  0.18190007396E-02  0.32073670643E-01  0.13102999159E+00  0.20076041424E-01 0.  0.
         14    1    1    2    0    0  0.45130278535E-03  0.21475958513E-01 -0.91298587442E-02  0.23340411071E-01  0.00000000000E+00 0. -1.
     999901    1    3    3    0    0 -0.12588567664E+00 -0.23294959253E-01 -0.22943811899E-01  0.88955959734E+00  0.88000000000E+00 0.  1.
        -11    1    4    4    0    0  0.12354474095E-01  0.25710025040E-02 -0.23008260282E-02  0.12837367544E-01  0.51100000000E-03 0. -1.
         11    1    4    4    0    0  0.11307989976E+00 -0.75200176434E-03  0.34374496671E-01  0.11819262405E+00  0.51100000000E-03 0.  1.
</event>
<event>
 8    1  0.1116841E+005  0.1043930E+01  0.7957747E-01            NaN
         13   -1    0    0    0    0  0.00000000000E+00  0.00000000000E+00  0.74505805969E-08  0.10566000000E+00  0.10566000000E+00 0.  1.
     999900   -1    0    0    0    0 -0.00000000000E+00 -0.00000000000E+00 -0.74505805969E-08  0.93827000000E+00  0.93827000000E+00 0.  1.
     999902    2    1    2    0    0 -0.92663817465E-02 -0.22262784389E-01 -0.21582764125E-02  0.10197193503E+01  0.10194318996E+01 0.  0.
     999903    2    3    3    0    0  0.11403563684E+00  0.37724930995E-01 -0.40195386412E-01  0.12828862644E+00  0.20371688633E-01 0.  0.
         14    1    1    2    0    0  0.92663817465E-02  0.22262784389E-01  0.21582764125E-02  0.24210649650E-01  0.00000000000E+00 0. -1.
     999901    1    3    3    0    0 -0.12330201859E+00 -0.59987715384E-01  0.38037110000E-01  0.89143072391E+00  0.88000000000E+00 0.  1.
        -11    1    4    4    0    0  0.77953424826E-01  0.19554474805E-01 -0.18671637696E-01  0.82510636298E-01  0.51100000000E-03 0. -1.
         11    1    4    4    0    0  0.36082212016E-01  0.18170456190E-01 -0.21523748716E-01  0.45777990147E-01  0.51100000000E-03 0.  1.
</event>
<event>
 8    1  0.1116841E+005  0.1043930E+01  0.7957747E-01            NaN
         13   -1    0    0    0    0  0.00000000000E+00  0.00000000000E+00  0.74505805969E-08  0.10566000000E+00  0.10566000000E+00 0.  1.
     999900   -1    0    0    0    0 -0.00000000000E+00 -0.00000000000E+00 -0.74505805969E-08  0.93827000000E+00  0.93827000000E+00 0. -1.
     999902    2    1    2    0    0  0.20877519380E-01 -0.12378825440E-01 -0.14227234529E-02  0.10196168292E+01  0.10193269093E+01 0.  0.
     999903    2    3    3    0    0  0.69577051808E-01  0.10277892731E+00 -0.33923335533E-01  0.13018485184E+00  0.19819912147E-01 0.  0.
         14    1    1    2    0    0 -0.20877519380E-01  0.12378825440E-01  0.14227234529E-02  0.24313170850E-01  0.00000000000E+00 0.  1.
     999901    1    3    3    0    0 -0.48699532428E-01 -0.11515775275E+00  0.32500612080E-01  0.88943197731E+00  0.88000000000E+00 0. -1.
        -11    1    4    4    0    0  0.35604789566E-01  0.62666925135E-01 -0.27838304365E-01  0.77266272440E-01  0.51100000000E-03 0. -1.
         11    1    4    4    0    0  0.33972262242E-01  0.40112002175E-01 -0.60850311681E-02  0.52918579399E-01  0.51100000000E-03 0.  1.
</event>
<event>
 7    1  0.1116841E+005  0.1043930E+01  0.7957747E-01            NaN
         13   -1    0    0    0    0  0.00000000000E+00  0.00000000000E+00  0.74505805969E-08  0.10566000000E+00  0.10566000000E+00 0.  1.
     999900   -1    0    0    0    0 -0.00000000000E+00 -0.00000000000E+00 -0.74505805969E-08  0.93827000000E+00  0.93827000000E+00 0.  1.
     999903    2    1    2    0    0  0.23243256139E-01  0.96944382684E-01  0.52984706166E-01  0.11553199656E+00  0.24531629634E-01 0.  0.
         14    1    1    2    0    0  0.86226821277E-02 -0.43472727728E-02  0.37155286163E-01  0.38389643363E-01  0.00000000000E+00 0.  1.
     999901    1    1    2    0    0 -0.31865938266E-01 -0.92597109911E-01 -0.90139992329E-01  0.89000836007E+00  0.88000000000E+00 0.  1.
        -11    1    3    3    0    0 -0.35040954595E-02  0.29450480275E-02  0.44804400722E-02  0.64255316600E-02  0.51100000000E-03 0.  1.
         11    1    3    3    0    0  0.26747351598E-01  0.93999334656E-01  0.48504266093E-01  0.10910646490E+00  0.51100000000E-03 0. -1.
</event>
<event>
 8    1  0.1116841E+005  0.1043930E+01  0.7957747E-01            NaN
         13   -1    0    0    0    0  0.00000000000E+00  0.00000000000E+00  0.74505805969E-08  0.10566000000E+00  0.10566000000E+00 0. -1.
     999900   -1    0    0    0    0 -0.00000000000E+00 -0.00000000000E+00 -0.74505805969E-08  0.93827000000E+00  0.93827000000E+00 0.  1.
     999902    2    1    2    0    0  0.15292665550E-01  0.16638653490E-01 -0.26982871674E-02  0.10211705808E+01  0.10209169231E+01 0.  0.
     999903    2    3    3    0    0 -0.50052277677E-01 -0.11615983649E+00 -0.13700192439E-01  0.12874330505E+00  0.19718144171E-01 0.  0.
         14    1    1    2    0    0 -0.15292665550E-01 -0.16638653490E-01  0.26982871674E-02  0.22759419220E-01  0.00000000000E+00 0. -1.
     999901    1    3    3    0    0  0.65344943226E-01  0.13279848998E+00  0.11001905271E-01  0.89242727573E+00  0.88000000000E+00 0.  1.
        -11    1    4    4    0    0 -0.33573526259E-02 -0.13764513415E-01  0.42030032090E-02  0.14787156697E-01  0.51100000000E-03 0.  1.
         11    1    4    4    0    0 -0.46694925051E-01 -0.10239532307E+00 -0.17903195648E-01  0.11395614835E+00  0.51100000000E-03 0. -1.
</event>
<event>
 8    1  0.1116841E+005  0.1043930E+01  0.7957747E-01            NaN
         13   -1    0    0    0    0  0.00000000000E+00  0.00000000000E+00  0.74505805969E-08  0.10566000000E+00  0.10566000000E+00 0.  1.
     999900   -1    0    0    0    0 -0.00000000000E+00 -0.00000000000E+00 -0.74505805969E-08  0.93827000000E+00  0.93827000000E+00 0. -1.
     999902    2    1    2    0    0 -0.12093938935E-02  0.95942812816E-03  0.25139425661E-01  0.10187432206E+01  0.10184318218E+01 0.  0.
     999903    2    3    3    0    0 -0.11680048423E+00 -0.19464529457E-01 -0.45445001648E-01  0.12814757742E+00  0.18312083424E-01 0.  0.
         14    1    1    2    0    0  0.12093938935E-02 -0.95942812816E-03 -0.25139425661E-01  0.25186779438E-01  0.00000000000E+00 0. -1.
     999901    1    3    3    0    0  0.11559109034E+00  0.20423957586E-01  0.70584427308E-01  0.89059564314E+00  0.88000000000E+00 0.  1.
        -11    1    4    4    0    0 -0.57152103877E-01 -0.11171547668E-01 -0.12729539844E-01  0.59610978523E-01  0.51100000000E-03 0.  1.
         11    1    4    4    0    0 -0.59648380355E-01 -0.82929817896E-02 -0.32715461803E-01  0.68536598894E-01  0.51100000000E-03 0. -1.
</event>
<event>
 8    1  0.1116841E+005  0.1043930E+01  0.7957747E-01            NaN
         13   -1    0    0    0    0  0.00000000000E+00  0.00000000000E+00  0.74505805969E-08  0.10566000000E+00  0.10566000000E+00 0.  1.
     999900   -1    0    0    0    0 -0.00000000000E+00 -0.00000000000E+00 -0.74505805969E-08  0.93827000000E+00  0.93827000000E+00 0.  1.
     999902    2    1    2    0    0 -0.13477858477E-01  0.43811137277E-02 -0.18625037492E-01  0.10205261788E+01  0.10202577825E+01 0.  0.
     999903    2    3    3    0    0  0.21913378205E-01 -0.12613632431E+00  0.54920292514E-02  0.12986969382E+00  0.21104656674E-01 0.  0.
         14    1    1    2    0    0  0.13477858477E-01 -0.43811137277E-02  0.18625037492E-01  0.23403821231E-01  0.00000000000E+00 0.  1.
     999901    1    3    3    0    0 -0.35391236682E-01  0.13051743804E+00 -0.24117066743E-01  0.89065648495E+00  0.88000000000E+00 0.  1.
        -11    1    4    4    0    0  0.17977757131E-01 -0.60673329282E-01  0.10278400104E-01  0.64112083629E-01  0.51100000000E-03 0.  1.
         11    1    4    4    0    0  0.39356210735E-02 -0.65462995031E-01 -0.47863708526E-02  0.65757610195E-01  0.51100000000E-03 0. -1.
</event>
<event>
 8    1  0.1116841E+005  0.1043930E+01  0.7957747E-01            NaN
         13   -1    0    0    0    0  0.00000000000E+00  0.00000000000E+00  0.74505805969E-08  0.10566000000E+00  0.10566000000E+00 0.  1.
     999900   -1    0    0    0    0 -0.00000000000E+00 -0.00000000000E+00 -0.74505805969E-08  0.93827000000E+00  0.93827000000E+00 0. -1.
     999902    2    1    2    0    0 -0.85261729530E-03  0.44783115435E-02  0.22817337674E-01  0.10206617141E+01  0.10203964531E+01 0.  0.
     999903    2    3    3    0    0  0.95252725037E-01 -0.97102252610E-02  0.89622434203E-01  0.13279884612E+00  0.20880199157E-01 0.  0.
         14    1    1    2    0    0  0.85261729530E-03 -0.44783115435E-02 -0.22817337674E-01  0.23268285908E-01  0.00000000000E+00 0. -1.
     999901    1    3    3    0    0 -0.96105342332E-01  0.14188536804E-01 -0.66805096529E-01  0.88786286797E+00  0.88000000000E+00 0.  1.
        -11    1    4    4    0    0  0.58443713244E-01 -0.51023642933E-02  0.40714618571E-01  0.71411784920E-01  0.51100000000E-03 0.  1.
         11    1    4    4    0    0  0.36809011793E-01 -0.46078609676E-02  0.48907815632E-01  0.61387061200E-01  0.51100000000E-03 0. -1.
</event>
<event>
 8    1  0.1116841E+005  0.1043930E+01  0.7957747E-01            NaN
         13   -1    0    0    0    0  0.00000000000E+00  0.00000000000E+00  0.74505805969E-08  0.10566000000E+00  0.10566000000E+00 0.  1.
     999900   -1    0    0    0    0 -0.00000000000E+00 -0.00000000000E+00 -0.74505805969E-08  0.93827000000E+00  0.93827000000E+00 0. -1.
     999902    2    1    2    0    0 -0.64369686905E-02 -0.19282181195E-01  0.13520961905E-01  0.10195157933E+01  0.10192234295E+01 0.  0.
     999903    2    3    3    0    0  0.11021195631E+00 -0.26830771783E-01  0.61530354036E-01  0.13048887883E+00  0.19359684982E-01 0.  0.
         14    1    1    2    0    0  0.64369686905E-02  0.19282181195E-01 -0.13520961905E-01  0.24414206692E-01  0.00000000000E+00 0. -1.
     999901    1    3    3    0    0 -0.11664892501E+00  0.75485905878E-02 -0.48009392131E-01  0.88902691447E+00  0.88000000000E+00 0. -1.
        -11    1    4    4    0    0  0.13907007173E-01 -0.16545356530E-02  0.15256597042E-01  0.20716351296E-01  0.51100000000E-03 0.  1.
         11    1    4    4    0    0  0.96304949141E-01 -0.25176236130E-01  0.46273756994E-01  0.10977252754E+00  0.51100000000E-03 0. -1.
</event>
<event>
 8    1  0.1116841E+005  0.1043930E+01  0.7957747E-01            NaN
         13   -1    0    0    0    0  0.00000000000E+00  0.00000000000E+00  0.74505805969E-08  0.10566000000E+00  0.10566000000E+00 0. -1.
     999900   -1    0    0    0    0 -0.00000000000E+00 -0.00000000000E+00 -0.74505805969E-08  0.93827000000E+00  0.93827000000E+00 0. -1.
     999902    2    1    2    0    0  0.14345254728E-02 -0.17049316248E-01 -0.16803169126E-01  0.10199491005E+01  0.10196671438E+01 0.  0.
     999903    2    3    3    0    0 -0.10349035820E+00 -0.10523327387E-01 -0.78344246362E-01  0.13155778812E+00  0.18671797333E-01 0.  0.
         14    1    1    2    0    0 -0.14345254728E-02  0.17049316248E-01  0.16803169126E-01  0.23980899494E-01  0.00000000000E+00 0. -1.
     999901    1    3    3    0    0  0.10492488367E+00 -0.65259888614E-02  0.61541077237E-01  0.88839131239E+00  0.88000000000E+00 0. -1.
        -11    1    4    4    0    0 -0.32481001239E-01  0.35331268116E-02 -0.31137043830E-01  0.45136183334E-01  0.51100000000E-03 0.  1.
         11    1    4    4    0    0 -0.71009356963E-01 -0.14056454199E-01 -0.47207202532E-01  0.86421604781E-01  0.51100000000E-03 0. -1.
</event>
<event>
 8    1  0.1116841E+005  0.1043930E+01  0.7957747E-01            NaN
         13   -1    0    0    0    0  0.00000000000E+00  0.00000000000E+00  0.74505805969E-08  0.10566000000E+00  0.10566000000E+00 0.  1.
     999900   -1    0    0    0    0 -0.00000000000E+00 -0.00000000000E+00 -0.74505805969E-08  0.93827000000E+00  0.93827000000E+00 0. -1.
     999902    2    1    2    0    0  0.13328452945E-01  0.10655033251E-01 -0.17088065485E-01  0.10197808929E+01  0.10194949191E+01 0.  0.
     999903    2    3    3    0    0  0.76692853631E-01  0.91814632919E-01  0.50089311178E-01  0.13123448003E+00  0.20045673819E-01 0.  0.
         14    1    1    2    0    0 -0.13328452945E-01 -0.10655033251E-01  0.17088065485E-01  0.24149107096E-01  0.00000000000E+00 0.  1.
     999901    1    3    3    0    0 -0.63364400686E-01 -0.81159599667E-01 -0.67177376663E-01  0.88854641287E+00  0.88000000000E+00 0. -1.
        -11    1    4    4    0    0  0.32179206665E-01  0.24356400029E-01  0.19399642866E-01  0.44781054345E-01  0.51100000000E-03 0.  1.
         11    1    4    4    0    0  0.44513646967E-01  0.67458232890E-01  0.30689668313E-01  0.86453425687E-01  0.51100000000E-03 0. -1.
</event>
<event>
 8    1  0.1116841E+005  0.1043930E+01  0.7957747E-01            NaN
         13   -1    0    0    0    0  0.00000000000E+00  0.00000000000E+00  0.74505805969E-08  0.10566000000E+00  0.10566000000E+00 0.  1.
     999900   -1    0    0    0    0 -0.00000000000E+00 -0.00000000000E+00 -0.74505805969E-08  0.93827000000E+00  0.93827000000E+00 0.  1.
     999902    2    1    2    0    0 -0.14314847110E-01 -0.83060519191E-02 -0.15110920219E-01  0.10215191710E+01  0.10212733089E+01 0.  0.
     999903    2    3    3    0    0 -0.67117189582E-01  0.14245943318E-01  0.10957885720E+00  0.13087658251E+00  0.20334450172E-01 0.  0.
         14    1    1    2    0    0  0.14314847110E-01  0.83060519191E-02  0.15110920219E-01  0.22410828992E-01  0.00000000000E+00 0.  1.
     999901    1    3    3    0    0  0.52802342472E-01 -0.22551995237E-01 -0.12468977742E+00  0.89064258850E+00  0.88000000000E+00 0.  1.
        -11    1    4    4    0    0 -0.52156276996E-01  0.22744912030E-02  0.75837103406E-01  0.92070505127E-01  0.51100000000E-03 0.  1.
         11    1    4    4    0    0 -0.14960912585E-01  0.11971452115E-01  0.33741753798E-01  0.38806077379E-01  0.51100000000E-03 0. -1.
</event>
<event>
 8    1  0.1116841E+005  0.1043930E+01  0.7957747E-01            NaN
         13   -1    0    0    0    0  0.00000000000E+00  0.00000000000E+00  0.74505805969E-08  0.10566000000E+00  0.10566000000E+00 0. -1.
     999900   -1    0    0    0    0 -0.00000000000E+00 -0.00000000000E+00 -0.74505805969E-08  0.93827000000E+00  0.93827000000E+00 0.  1.
     999902    2    1    2    0    0  0.18209609345E-02 -0.20343993617E-01 -0.12813085560E-01  0.10198184024E+01  0.10195333270E+01 0.  0.
     999903    2    3    3    0    0  0.18136389208E-01 -0.10645076721E+00 -0.75288733819E-01  0.13326114187E+00  0.20723031582E-01 0.  0.
         14    1    1    2    0    0 -0.18209609345E-02  0.20343993617E-01  0.12813085560E-01  0.24111597554E-01  0.00000000000E+00 0. -1.
     999901    1    3    3    0    0 -0.16315428274E-01  0.86106773597E-01  0.62475648258E-01  0.88655726058E+00  0.88000000000E+00 0. -1.
        -11    1    4    4    0    0  0.17254217190E-01 -0.42882898927E-01 -0.35175565141E-01  0.58088144532E-01  0.51100000000E-03 0. -1.
         11    1    4    4    0    0  0.88217201788E-03 -0.63567868287E-01 -0.40113168678E-01  0.75172997336E-01  0.51100000000E-03 0.  1.
</event>
<event>
 8    1  0.1116841E+005  0.1043930E+01  0.7957747E-01            NaN
         13   -1    0    0    0    0  0.00000000000E+00  0.00000000000E+00  0.74505805969E-08  0.10566000000E+00  0.10566000000E+00 0. -1.
     999900   -1    0    0    0    0 -0.00000000000E+00 -0.00000000000E+00 -0.74505805969E-08  0.93827000000E+00  0.93827000000E+00 0. -1.
     999902    2    1    2    0    0 -0.22422291197E-01  0.27088311974E-02 -0.86808663116E-02  0.10197338361E+01  0.10194467333E+01 0.  0.
     999903    2    3    3    0    0  0.37828039548E-01  0.51852582172E-01 -0.11203773003E+00  0.13028015437E+00  0.17344013910E-01 0.  0.
         14    1    1    2    0    0  0.22422291197E-01 -0.27088311974E-02  0.86808663116E-02  0.24196163929E-01  0.00000000000E+00 0.  1.
     999901    1    3    3    0    0 -0.60250330745E-01 -0.49143750975E-01  0.10335686372E+00  0.88945368170E+00  0.88000000000E+00 0.  1.
        -11    1    4    4    0    0  0.27533235130E-01  0.44304635249E-01 -0.99684719801E-01  0.11250904063E+00  0.51100000000E-03 0. -1.
         11    1    4    4    0    0  0.10294804417E-01  0.75479469229E-02 -0.12353010227E-01  0.17771113736E-01  0.51100000000E-03 0.  1.
</event>
<event>
 8    1  0.1116841E+005  0.1043930E+01  0.7957747E-01            NaN
         13   -1    0    0    0    0  0.00000000000E+00  0.00000000000E+00  0.74505805969E-08  0.10566000000E+00  0.10566000000E+00 0.  1.
     999900   -1    0    0    0    0 -0.00000000000E+00 -0.00000000000E+00 -0.74505805969E-08  0.93827000000E+00  0.93827000000E+00 0.  1.
     999902    2    1    2    0    0 -0.21962504524E-01  0.77828361060E-02  0.18343292295E-02  0.10205571759E+01  0.10202894983E+01 0.  0.
     999903    2    3    3    0    0 -0.74637153971E-01 -0.62845874981E-01 -0.86299439082E-01  0.13177677859E+00  0.19930314453E-01 0.  0.
         14    1    1    2    0    0  0.21962504524E-01 -0.77828361060E-02 -0.18343292295E-02  0.23372824102E-01  0.00000000000E+00 0. -1.
     999901    1    3    3    0    0  0.52674649448E-01  0.70628711087E-01  0.88133768311E-01  0.88878039731E+00  0.88000000000E+00 0. -1.
        -11    1    4    4    0    0 -0.46223684261E-01 -0.49685609595E-01 -0.64443841362E-01  0.93587171118E-01  0.51100000000E-03 0.  1.
         11    1    4    4    0    0 -0.28413469710E-01 -0.13160265386E-01 -0.21855597720E-01  0.38189607470E-01  0.51100000000E-03 0. -1.
</event>
<event>
 8    1  0.1116841E+005  0.1043930E+01  0.7957747E-01            NaN
         13   -1    0    0    0    0  0.00000000000E+00  0.00000000000E+00  0.74505805969E-08  0.10566000000E+00  0.10566000000E+00 0. -1.
     999900   -1    0    0    0    0 -0.00000000000E+00 -0.00000000000E+00 -0.74505805969E-08  0.93827000000E+00  0.93827000000E+00 0. -1.
     999902    2    1    2    0    0 -0.16501857507E-01  0.10132700486E-01 -0.15962364612E-01  0.10188345820E+01  0.10185254663E+01 0.  0.
     999903    2    3    3    0    0 -0.88006590165E-01 -0.32653475848E-01 -0.90225002604E-01  0.13178411947E+00  0.20373847276E-01 0.  0.
         14    1    1    2    0    0  0.16501857507E-01 -0.10132700486E-01  0.15962364612E-01  0.25095417995E-01  0.00000000000E+00 0. -1.
     999901    1    3    3    0    0  0.71504732658E-01  0.42786176334E-01  0.74262637992E-01  0.88705046253E+00  0.88000000000E+00 0.  1.
        -11    1    4    4    0    0 -0.74943609644E-01 -0.27636249512E-01 -0.65207470897E-01  0.10311441362E+00  0.51100000000E-03 0.  1.
         11    1    4    4    0    0 -0.13062980521E-01 -0.50172263364E-02 -0.25017531707E-01  0.28669705857E-01  0.51100000000E-03 0. -1.
</event>
<event>
 8    1  0.1116841E+005  0.1043930E+01  0.7957747E-01            NaN
         13   -1    0    0    0    0  0.00000000000E+00  0.00000000000E+00  0.74505805969E-08  0.10566000000E+00  0.10566000000E+00 0.  1.
     999900   -1    0    0    0    0 -0.00000000000E+00 -0.00000000000E+00 -0.74505805969E-08  0.93827000000E+00  0.93827000000E+00 0. -1.
     999902    2    1    2    0    0 -0.56939774783E-02  0.17423077374E-01 -0.18054959542E-01  0.10182012890E+01  0.10178761705E+01 0.  0.
     999903    2    3    3    0    0 -0.23348089050E-01  0.33539335502E-01  0.11891001977E+00  0.12728557640E+00  0.19799112863E-01 0.  0.
         14    1    1    2    0    0  0.56939774783E-02 -0.17423077374E-01  0.18054959542E-01  0.25728710982E-01  0.00000000000E+00 0.  1.
     999901    1    3    3    0    0  0.17654111572E-01 -0.16116258128E-01 -0.13696497931E+00  0.89091571262E+00  0.88000000000E+00 0. -1.
        -11    1    4    4    0    0 -0.17572039304E-01  0.34662499016E-01  0.10931348544E+00  0.11601708763E+00  0.51100000000E-03 0. -1.
         11    1    4    4    0    0 -0.57760497462E-02 -0.11231635138E-02  0.95965343307E-02  0.11268488768E-01  0.51100000000E-03 0.  1.
</event>
<event>
 8    1  0.1116841E+005  0.1043930E+01  0.7957747E-01            NaN
         13   -1    0    0    0    0  0.00000000000E+00  0.00000000000E+00  0.74505805969E-08  0.10566000000E+00  0.10566000000E+00 0.  1.
     999900   -1    0    0    0    0 -0.00000000000E+00 -0.00000000000E+00 -0.74505805969E-08  0.93827000000E+00  0.93827000000E+00 0. -1.
     999902    2    1    2    0    0  0.22181096074E-01  0.83922223388E-02  0.11524680683E-02  0.10201863987E+01  0.10199100595E+01 0.  0.
     999903    2    3    3    0    0  0.79998653472E-01 -0.78347296414E-01  0.66447962749E-01  0.13163132689E+00  0.19323329238E-01 0.  0.
         14    1    1    2    0    0 -0.22181096074E-01 -0.83922223388E-02 -0.11524680683E-02  0.23743601274E-01  0.00000000000E+00 0. -1.
     999901    1    3    3    0    0 -0.57817557398E-01  0.86739518753E-01 -0.65295494681E-01  0.88855507183E+00  0.88000000000E+00 0. -1.
        -11    1    4    4    0    0  0.68906528154E-01 -0.67043123928E-01  0.64250290521E-01  0.11563412576E+00  0.51100000000E-03 0.  1.
         11    1    4    4    0    0  0.11092125318E-01 -0.11304172486E-01  0.21976722283E-02  0.15997201127E-01  0.51100000000E-03 0. -1.
</event>
<event>
 8    1  0.1116841E+005  0.1043930E+01  0.7957747E-01            NaN
         13   -1    0    0    0    0  0.00000000000E+00  0.00000000000E+00  0.74505805969E-08  0.10566000000E+00  0.10566000000E+00 0.  1.
     999900   -1    0    0    0    0 -0.00000000000E+00 -0.00000000000E+00 -0.74505805969E-08  0.93827000000E+00  0.93827000000E+00 0.  1.
     999902    2    1    2    0    0 -0.14354618712E-01  0.15294662855E-01  0.10392085048E-01  0.10205210867E+01  0.10202525722E+01 0.  0.
     999903    2    3    3    0    0 -0.75428721051E-01  0.57955078995E-02  0.10744783960E+00  0.13303018567E+00  0.20710195419E-01 0.  0.
         14    1    1    2    0    0  0.14354618712E-01 -0.15294662855E-01 -0.10392085048E-01  0.23408913300E-01  0.00000000000E+00 0. -1.
     999901    1    3    3    0    0  0.61074102339E-01  0.94991549556E-02 -0.97055754548E-01  0.88749090103E+00  0.88000000000E+00 0.  1.
        -11    1    4    4    0    0 -0.22024795951E-01 -0.45307852364E-03  0.48330608732E-01  0.53116906708E-01  0.51100000000E-03 0. -1.
         11    1    4    4    0    0 -0.53403925100E-01  0.62485864232E-02  0.59117230864E-01  0.79913278962E-01  0.51100000000E-03 0.  1.
</event>
<event>
 8    1  0.1116841E+005  0.1043930E+01  0.7957747E-01            NaN
         13   -1    0    0    0    0  0.00000000000E+00  0.00000000000E+00  0.74505805969E-08  0.10566000000E+00  0.10566000000E+00 0. -1.
     999900   -1    0    0    0    0 -0.00000000000E+00 -0.00000000000E+00 -0.74505805969E-08  0.93827000000E+00  0.93827000000E+00 0.  1.
     999902    2    1    2    0    0  0.86960525417E-02  0.15695412933E-01  0.15595822170E-01  0.10201561281E+01  0.10198790755E+01 0.  0.
     999903    2    3    3    0    0 -0.12003425058E+00 -0.37080915757E-01 -0.17926609543E-01  0.12859537006E+00  0.20789185768E-01 0.  0.
         14    1    1    2    0    0 -0.86960525417E-02 -0.15695412933E-01 -0.15595822170E-01  0.23773871921E-01  0.00000000000E+00 0.  1.
     999901    1    3    3    0    0  0.12873030312E+00  0.52776328690E-01  0.33522431713E-01  0.89156075802E+00  0.88000000000E+00 0. -1.
        -11    1    4    4    0    0 -0.28843605504E-01 -0.18445163737E-01 -0.58839421935E-02  0.34742762419E-01  0.51100000000E-03 0. -1.
         11    1    4    4    0    0 -0.91190645078E-01 -0.18635752020E-01 -0.12042667349E-01  0.93852607641E-01  0.51100000000E-03 0.  1.
</event>
<event>
 8    1  0.1116841E+005  0.1043930E+01  0.7957747E-01            NaN
         13   -1    0    0    0    0  0.00000000000E+00  0.00000000000E+00  0.74505805969E-08  0.10566000000E+00  0.10566000000E+00 0.  1.
     999900   -1    0    0    0    0 -0.00000000000E+00 -0.00000000000E+00 -0.74505805969E-08  0.93827000000E+00  0.93827000000E+00 0.  1.
     999902    2    1    2    0    0 -0.20092423294E-01 -0.39559010916E-02 -0.12670013775E-01  0.10198492218E+01  0.10195648834E+01 0.  0.
     999903    2    3    3    0    0  0.11078221429E+00 -0.35667728666E-01  0.47781999517E-01  0.12755540439E+00  0.21032732598E-01 0.  0.
         14    1    1    2    0    0  0.20092423294E-01  0.39559010916E-02  0.12670013775E-01  0.24080778150E-01  0.00000000000E+00 0.  1.
     999901    1    3    3    0    0 -0.13087463758E+00  0.31711827574E-01 -0.60452013292E-01  0.89229381746E+00  0.88000000000E+00 0.  1.
        -11    1    4    4    0    0  0.98100221211E-01 -0.23933415015E-01  0.40453524649E-01  0.10878056138E+00  0.51100000000E-03 0. -1.
         11    1    4    4    0    0  0.12681993074E-01 -0.11734313651E-01  0.73284748676E-02  0.18774843011E-01  0.51100000000E-03 0.  1.
</event>
<event>
 8    1  0.1116841E+005  0.1043930E+01  0.7957747E-01            NaN
         13   -1    0    0    0    0  0.00000000000E+00  0.00000000000E+00  0.74505805969E-08  0.10566000000E+00  0.10566000000E+00 0.  1.
     999900   -1    0    0    0    0 -0.00000000000E+00 -0.00000000000E+00 -0.74505805969E-08  0.93827000000E+00  0.93827000000E+00 0. -1.
     999902    2    1    2    0    0 -0.16505343589E-01 -0.15688869002E-01 -0.52112264599E-02  0.10205692667E+01  0.10203018692E+01 0.  0.
     999903    2    3    3    0    0 -0.36196394598E-01  0.11981369768E+00  0.25570287945E-01  0.12944852032E+00  0.20918380751E-01 0.  0.
         14    1    1    2    0    0  0.16505343589E-01  0.15688869002E-01  0.52112264599E-02  0.23360733267E-01  0.00000000000E+00 0.  1.
     999901    1    3    3    0    0  0.19691051009E-01 -0.13550256668E+00 -0.30781514404E-01  0.89112074642E+00  0.88000000000E+00 0.  1.
        -11    1    4    4    0    0 -0.25371738490E-01  0.83125407322E-01  0.77838346753E-02  0.87260573341E-01  0.51100000000E-03 0.  1.
         11    1    4    4    0    0 -0.10824656108E-01  0.36688290355E-01  0.17786453269E-01  0.42187946975E-01  0.51100000000E-03 0. -1.
</event>
<event>
 8    1  0.1116841E+005  0.1043930E+01  0.7957747E-01            NaN
         13   -1    0    0    0    0  0.00000000000E+00  0.00000000000E+00  0.74505805969E-08  0.10566000000E+00  0.10566000000E+00 0.  1.
     999900   -1    0    0    0    0 -0.00000000000E+00 -0.00000000000E+00 -0.74505805969E-08  0.93827000000E+00  0.93827000000E+00 0. -1.
     999902    2    1    2    0    0 -0.59648330018E-02  0.15421735751E-01 -0.15848617071E-01  0.10210261176E+01  0.10207691928E+01 0.  0.
     999903    2    3    3    0    0  0.12743360584E+00 -0.62138129299E-03  0.18576100123E-01  0.13016272389E+00  0.18909076676E-01 0.  0.
         14    1    1    2    0    0  0.59648330018E-02 -0.15421735751E-01  0.15848617071E-01  0.22903882409E-01  0.00000000000E+00 0.  1.
     999901    1    3    3    0    0 -0.13339843884E+00  0.16043117044E-01 -0.34424717194E-01  0.89086339371E+00  0.88000000000E+00 0. -1.
        -11    1    4    4    0    0  0.97707823087E-01 -0.84754912558E-02  0.14588615820E-01  0.99155138429E-01  0.51100000000E-03 0.  1.
         11    1    4    4    0    0  0.29725782756E-01  0.78541099628E-02  0.39874843022E-02  0.31007585456E-01  0.51100000000E-03 0. -1.
</event>
<event>
 8    1  0.1116841E+005  0.1043930E+01  0.7957747E-01            NaN
         13   -1    0    0    0    0  0.00000000000E+00  0.00000000000E+00  0.74505805969E-08  0.10566000000E+00  0.10566000000E+00 0.  1.
     999900   -1    0    0    0    0 -0.00000000000E+00 -0.00000000000E+00 -0.74505805969E-08  0.93827000000E+00  0.93827000000E+00 0.  1.
     999902    2    1    2    0    0  0.14076550206E-01  0.19490807100E-01 -0.39059902928E-02  0.10195722992E+01  0.10192813035E+01 0.  0.
     999903    2    3    3    0    0  0.10850298123E+00  0.71001075997E-01  0.20059808232E-01  0.13269913006E+00  0.19814476633E-01 0.  0.
         14    1    1    2    0    0 -0.14076550206E-01 -0.19490807100E-01  0.39059902928E-02  0.24357700780E-01  0.00000000000E+00 0.  1.
     999901    1    3    3    0    0 -0.94426431021E-01 -0.51510268897E-01 -0.23965798525E-01  0.88687316916E+00  0.88000000000E+00 0.  1.
        -11    1    4    4    0    0  0.39587834444E-01  0.34999091832E-01  0.14236548363E-01  0.54727264643E-01  0.51100000000E-03 0.  1.
         11    1    4    4    0    0  0.68915146784E-01  0.36001984166E-01  0.58232598690E-02  0.77971865417E-01  0.51100000000E-03 0. -1.
</event>
<event>
 8    1  0.1116841E+005  0.1043930E+01  0.7957747E-01            NaN
         13   -1    0    0    0    0  0.00000000000E+00  0.00000000000E+00  0.74505805969E-08  0.10566000000E+00  0.10566000000E+00 0. -1.
     999900   -1    0    0    0    0 -0.00000000000E+00 -0.00000000000E+00 -0.74505805969E-08  0.93827000000E+00  0.93827000000E+00 0. -1.
     999902    2    1    2    0    0  0.22189046020E-01  0.29850297241E-02 -0.94197750606E-03  0.10215212631E+01  0.10212754475E+01 0.  0.
     999903    2    3    3    0    0 -0.61262116256E-01 -0.21865347886E-01  0.11090542931E+00  0.13017874752E+00  0.20380179824E-01 0.  0.
         14    1    1    2    0    0 -0.22189046020E-01 -0.29850297241E-02  0.94197750606E-03  0.22408736853E-01  0.00000000000E+00 0.  1.
     999901    1    3    3    0    0  0.83451162276E-01  0.24850377610E-01 -0.11184740681E+00  0.89134251563E+00  0.88000000000E+00 0. -1.
        -11    1    4    4    0    0 -0.51748537410E-01 -0.24924308879E-01  0.10040301602E+00  0.11567263741E+00  0.51100000000E-03 0. -1.
         11    1    4    4    0    0 -0.95135788457E-02  0.30589609926E-02  0.10502413283E-01  0.14506110112E-01  0.51100000000E-03 0.  1.
</event>
<event>
 8    1  0.1116841E+005  0.1043930E+01  0.7957747E-01            NaN
         13   -1    0    0    0    0  0.00000000000E+00  0.00000000000E+00  0.74505805969E-08  0.10566000000E+00  0.10566000000E+00 0.  1.
     999900   -1    0    0    0    0 -0.00000000000E+00 -0.00000000000E+00 -0.74505805969E-08  0.93827000000E+00  0.93827000000E+00 0.  1.
     999902    2    1    2    0    0 -0.18949023013E-01  0.14377574603E-01  0.89329279625E-02  0.10185217862E+01  0.10182048182E+01 0.  0.
     999903    2    3    3    0    0 -0.28849398932E-02 -0.38927242656E-01  0.12184936789E+00  0.12956195547E+00  0.20380842787E-01 0.  0.
         14    1    1    2    0    0  0.18949023013E-01 -0.14377574603E-01 -0.89329279625E-02  0.25408213763E-01  0.00000000000E+00 0.  1.
     999901    1    3    3    0    0 -0.16064083120E-01  0.53304817259E-01 -0.11291643992E+00  0.88895983077E+00  0.88000000000E+00 0.  1.
        -11    1    4    4    0    0 -0.10418500828E-01 -0.15447141756E-01  0.41083724818E-01  0.45114220750E-01  0.51100000000E-03 0.  1.
         11    1    4    4    0    0  0.75335609351E-02 -0.23480100899E-01  0.80765643068E-01  0.84447734722E-01  0.51100000000E-03 0. -1.
</event>
<event>
 8    1  0.1116841E+005  0.1043930E+01  0.7957747E-01            NaN
         13   -1    0    0    0    0  0.00000000000E+00  0.00000000000E+00  0.74505805969E-08  0.10566000000E+00  0.10566000000E+00 0.  1.
     999900   -1    0    0    0    0 -0.00000000000E+00 -0.00000000000E+00 -0.74505805969E-08  0.93827000000E+00  0.93827000000E+00 0.  1.
     999902    2    1    2    0    0 -0.17888130419E-02 -0.23575554925E-01 -0.13470908983E-01  0.10167183843E+01  0.10163541710E+01 0.  0.
     999903    2    3    3    0    0  0.73338157713E-01  0.13374416233E-01 -0.10254502492E+00  0.12826829550E+00  0.19491359788E-01 0.  0.
         14    1    1    2    0    0  0.17888130419E-02  0.23575554925E-01  0.13470908983E-01  0.27211615735E-01  0.00000000000E+00 0.  1.
     999901    1    3    3    0    0 -0.75126970755E-01 -0.36949971158E-01  0.89074115941E-01  0.88845008877E+00  0.88000000000E+00 0. -1.
        -11    1    4    4    0    0  0.46561313265E-01  0.17302775690E-01 -0.60756594033E-01  0.78479084978E-01  0.51100000000E-03 0.  1.
         11    1    4    4    0    0  0.26776844449E-01 -0.39283594569E-02 -0.41788430891E-01  0.49789210518E-01  0.51100000000E-03 0. -1.
</event>
<event>
 8    1  0.1116841E+005  0.1043930E+01  0.7957747E-01            NaN
         13   -1    0    0    0    0  0.00000000000E+00  0.00000000000E+00  0.74505805969E-08  0.10566000000E+00  0.10566000000E+00 0. -1.
     999900   -1    0    0    0    0 -0.00000000000E+00 -0.00000000000E+00 -0.74505805969E-08  0.93827000000E+00  0.93827000000E+00 0.  1.
     999902    2    1    2    0    0  0.23620248773E-02 -0.21605695367E-01  0.78224990637E-02  0.10208307202E+01  0.10205693424E+01 0.  0.
     999903    2    3    3    0    0 -0.25716144433E-01 -0.12265139413E+00  0.42630570862E-01  0.13392022944E+00  0.20312009098E-01 0.  0.
         14    1    1    2    0    0 -0.23620248773E-02  0.21605695367E-01 -0.78224990637E-02  0.23099279760E-01  0.00000000000E+00 0. -1.
     999901    1    3    3    0    0  0.28078169311E-01  0.10104569877E+00 -0.34808071798E-01  0.88691049080E+00  0.88000000000E+00 0. -1.
        -11    1    4    4    0    0 -0.17105613484E-01 -0.49867185638E-01  0.98681617681E-02  0.53637486461E-01  0.51100000000E-03 0.  1.
         11    1    4    4    0    0 -0.86105309494E-02 -0.72784208495E-01  0.32762409094E-01  0.80282742978E-01  0.51100000000E-03 0. -1.
</event>
<event>
 8    1  0.1116841E+005  0.1043930E+01  0.7957747E-01            NaN
         13   -1    0    0    0    0  0.00000000000E+00  0.00000000000E+00  0.74505805969E-08  0.10566000000E+00  0.10566000000E+00 0. -1.
     999900   -1    0    0    0    0 -0.00000000000E+00 -0.00000000000E+00 -0.74505805969E-08  0.93827000000E+00  0.93827000000E+00 0.  1.
     999902    2    1    2    0    0  0.11764303190E-01 -0.22369847037E-02  0.18642665918E-01  0.10217725651E+01  0.10215322916E+01 0.  0.
     999903    2    3    3    0    0 -0.63797894718E-01  0.88595426414E-01  0.71972685739E-01  0.13227593007E+00  0.19938235423E-01 0.  0.
         14    1    1    2    0    0 -0.11764303190E-01  0.22369847037E-02 -0.18642665918E-01  0.22157434929E-01  0.00000000000E+00 0.  1.
     999901    1    3    3    0    0  0.75562197908E-01 -0.90832411118E-01 -0.53330019821E-01  0.88949663500E+00  0.88000000000E+00 0.  1.
        -11    1    4    4    0    0 -0.39284057697E-01  0.69171400170E-01  0.54719794390E-01  0.96552766970E-01  0.51100000000E-03 0. -1.
         11    1    4    4    0    0 -0.24513837020E-01  0.19424026244E-01  0.17252891350E-01  0.35723163101E-01  0.51100000000E-03 0.  1.
</event>
<event>
 8    1  0.1116841E+005  0.1043930E+01  0.7957747E-01            NaN
         13   -1    0    0    0    0  0.00000000000E+00  0.00000000000E+00  0.74505805969E-08  0.10566000000E+00  0.10566000000E+00 0. -1.
     999900   -1    0    0    0    0 -0.00000000000E+00 -0.00000000000E+00 -0.74505805969E-08  0.93827000000E+00  0.93827000000E+00 0. -1.
     999902    2    1    2    0    0 -0.81891787450E-02  0.15423682220E-01 -0.15781574912E-01  0.10203925675E+01  0.10201210620E+01 0.  0.
     999903    2    3    3    0    0  0.98192749293E-01  0.61555905226E-01 -0.58831041001E-01  0.13174271906E+00  0.21543146427E-01 0.  0.
         14    1    1    2    0    0  0.81891787450E-02 -0.15423682220E-01  0.15781574912E-01  0.23537432495E-01  0.00000000000E+00 0. -1.
     999901    1    3    3    0    0 -0.10638192804E+00 -0.46132223006E-01  0.43049466089E-01  0.88864984845E+00  0.88000000000E+00 0.  1.
        -11    1    4    4    0    0  0.47792176575E-01  0.17582365448E-01 -0.27547890302E-01  0.57899733140E-01  0.51100000000E-03 0.  1.
         11    1    4    4    0    0  0.50400572718E-01  0.43973539778E-01 -0.31283150699E-01  0.73842985920E-01  0.51100000000E-03 0. -1.
</event>
<event>
 8    1  0.1116841E+005  0.1043930E+01  0.7957747E-01            NaN
         13   -1    0    0    0    0  0.00000000000E+00  0.00000000000E+00  0.74505805969E-08  0.10566000000E+00  0.10566000000E+00 0. -1.
     999900   -1    0    0    0    0 -0.00000000000E+00 -0.00000000000E+00 -0.74505805969E-08  0.93827000000E+00  0.93827000000E+00 0.  1.
     999902    2    1    2    0    0 -0.14788916446E-01  0.18510466822E-01 -0.22617821136E-02  0.10201294729E+01  0.10198517914E+01 0.  0.
     999903    2    3    3    0    0  0.77950745122E-01 -0.47512627889E-02 -0.10124555305E+00  0.12943337445E+00  0.20085896703E-01 0.  0.
         14    1    1    2    0    0  0.14788916446E-01 -0.18510466822E-01  0.22617821136E-02  0.23800527094E-01  0.00000000000E+00 0.  1.
     999901    1    3    3    0    0 -0.92739661568E-01  0.23261729611E-01  0.98983770937E-01  0.89069609845E+00  0.88000000000E+00 0. -1.
        -11    1    4    4    0    0  0.27496558868E-01 -0.95529188598E-02 -0.28248877775E-01  0.40565739546E-01  0.51100000000E-03 0.  1.
         11    1    4    4    0    0  0.50454186254E-01  0.48016560709E-02 -0.72996675276E-01  0.88867634906E-01  0.51100000000E-03 0. -1.
</event>
<event>
 8    1  0.1116841E+005  0.1043930E+01  0.7957747E-01            NaN
         13   -1    0    0    0    0  0.00000000000E+00  0.00000000000E+00  0.74505805969E-08  0.10566000000E+00  0.10566000000E+00 0. -1.
     999900   -1    0    0    0    0 -0.00000000000E+00 -0.00000000000E+00 -0.74505805969E-08  0.93827000000E+00  0.93827000000E+00 0.  1.
     999902    2    1    2    0    0  0.20984050701E-01 -0.95531430102E-02 -0.63839564829E-02  0.10200062080E+01  0.10197256084E+01 0.  0.
     999903    2    3    3    0    0  0.68501012103E-01 -0.86859754975E-01 -0.70955237476E-01  0.13298669059E+00  0.20342282422E-01 0.  0.
         14    1    1    2    0    0 -0.20984050701E-01  0.95531430102E-02  0.63839564829E-02  0.23923792040E-01  0.00000000000E+00 0.  1.
     999901    1    3    3    0    0 -0.47516961403E-01  0.77306611965E-01  0.64571280993E-01  0.88701951737E+00  0.88000000000E+00 0. -1.
        -11    1    4    4    0    0  0.34981745218E-01 -0.45405738720E-01 -0.24742641949E-01  0.62432868417E-01  0.51100000000E-03 0. -1.
         11    1    4    4    0    0  0.33519266885E-01 -0.41454016255E-01 -0.46212595527E-01  0.70553822168E-01  0.51100000000E-03 0.  1.
</event>
<event>
 8    1  0.1116841E+005  0.1043930E+01  0.7957747E-01            NaN
         13   -1    0    0    0    0  0.00000000000E+00  0.00000000000E+00  0.74505805969E-08  0.10566000000E+00  0.10566000000E+00 0. -1.
     999900   -1    0    0    0    0 -0.00000000000E+00 -0.00000000000E+00 -0.74505805969E-08  0.93827000000E+00  0.93827000000E+00 0.  1.
     999902    2    1    2    0    0  0.13816295961E-01  0.14502454934E-01 -0.12423475435E-01  0.10203598075E+01  0.10200875368E+01 0.  0.
     999903    2    3    3    0    0  0.38147273076E-01 -0.18373435083E-01 -0.12391352707E+00  0.13238297659E+00  0.19439463453E-01 0.  0.
         14    1    1    2    0    0 -0.13816295961E-01 -0.14502454934E-01  0.12423475435E-01  0.23570192513E-01  0.00000000000E+00 0. -1.
     999901    1    3    3    0    0 -0.24330977115E-01  0.32875890018E-01  0.11149005164E+00  0.88797683090E+00  0.88000000000E+00 0. -1.
        -11    1    4    4    0    0  0.28970664402E-01 -0.41784483516E-02 -0.86653841720E-01  0.91465338967E-01  0.51100000000E-03 0.  1.
         11    1    4    4    0    0  0.91766086739E-02 -0.14194986732E-01 -0.37259685355E-01  0.40917637625E-01  0.51100000000E-03 0. -1.
</event>
<event>
 8    1  0.1116841E+005  0.1043930E+01  0.7957747E-01            NaN
         13   -1    0    0    0    0  0.00000000000E+00  0.00000000000E+00  0.74505805969E-08  0.10566000000E+00  0.10566000000E+00 0. -1.
     999900   -1    0    0    0    0 -0.00000000000E+00 -0.00000000000E+00 -0.74505805969E-08  0.93827000000E+00  0.93827000000E+00 0.  1.
     999902    2    1    2    0    0 -0.26556763809E-02 -0.22407844521E-01  0.19619433610E-02  0.10212802023E+01  0.10210290095E+01 0.  0.
     999903    2    3    3    0    0 -0.98256066371E-01  0.60877546173E-02 -0.81211954442E-01  0.13174699270E+00  0.32719615023E-01 0.  0.
         14    1    1    2    0    0  0.26556763809E-02  0.22407844521E-01 -0.19619433610E-02  0.22649797678E-01  0.00000000000E+00 0. -1.
     999901    1    3    3    0    0  0.95600389990E-01 -0.28495599138E-01  0.83173897803E-01  0.88953320962E+00  0.88000000000E+00 0. -1.
        -11    1    4    4    0    0 -0.59062681363E-01  0.18971889678E-01 -0.54658793374E-01  0.82681181304E-01  0.51100000000E-03 0. -1.
         11    1    4    4    0    0 -0.39193385008E-01 -0.12884135060E-01 -0.26553161069E-01  0.49065811400E-01  0.51100000000E-03 0.  1.
</event>
<event>
 8    1  0.1116841E+005  0.1043930E+01  0.7957747E-01            NaN
         13   -1    0    0    0    0  0.00000000000E+00  0.00000000000E+00  0.74505805969E-08  0.10566000000E+00  0.10566000000E+00 0. -1.
     999900   -1    0    0    0    0 -0.00000000000E+00 -0.00000000000E+00 -0.74505805969E-08  0.93827000000E+00  0.93827000000E+00 0.  1.
     999902    2    1    2    0    0  0.20692222069E-01  0.11163329912E-01 -0.62826715002E-02  0.10195936085E+01  0.10193031279E+01 0.  0.
     999903    2    3    3    0    0 -0.11669767983E+00 -0.44112239889E-01 -0.81612326020E-02  0.12721762120E+00  0.23526139533E-01 0.  0.
         14    1    1    2    0    0 -0.20692222069E-01 -0.11163329912E-01  0.62826715002E-02  0.24336391476E-01  0.00000000000E+00 0.  1.
     999901    1    3    3    0    0  0.13738990190E+00  0.55275569802E-01  0.18785611019E-02  0.89237598732E+00  0.88000000000E+00 0.  1.
        -11    1    4    4    0    0 -0.69519474175E-01 -0.32711483777E-01  0.47862001405E-02  0.76981603603E-01  0.51100000000E-03 0. -1.
         11    1    4    4    0    0 -0.47178205652E-01 -0.11400756112E-01 -0.12947432743E-01  0.50236017598E-01  0.51100000000E-03 0.  1.
</event>
<event>
 8    1  0.1116841E+005  0.1043930E+01  0.7957747E-01            NaN
         13   -1    0    0    0    0  0.00000000000E+00  0.00000000000E+00  0.74505805969E-08  0.10566000000E+00  0.10566000000E+00 0. -1.
     999900   -1    0    0    0    0 -0.00000000000E+00 -0.00000000000E+00 -0.74505805969E-08  0.93827000000E+00  0.93827000000E+00 0.  1.
     999902    2    1    2    0    0 -0.19815023591E-01  0.68493813217E-02 -0.11201966240E-01  0.10201595723E+01  0.10198826010E+01 0.  0.
     999903    2    3    3    0    0 -0.73096069836E-01 -0.60511481619E-01 -0.90067364878E-01  0.13246812432E+00  0.20760513304E-01 0.  0.
         14    1    1    2    0    0  0.19815023591E-01 -0.68493813217E-02  0.11201966240E-01  0.23770427678E-01  0.00000000000E+00 0. -1.
     999901    1    3    3    0    0  0.53281046245E-01  0.67360862941E-01  0.78865398639E-01  0.88769144800E+00  0.88000000000E+00 0. -1.
        -11    1    4    4    0    0 -0.57106538930E-01 -0.40126756718E-01 -0.75174736859E-01  0.10258077586E+00  0.51100000000E-03 0.  1.
         11    1    4    4    0    0 -0.15989530906E-01 -0.20384724901E-01 -0.14892628019E-01  0.29887348463E-01  0.51100000000E-03 0. -1.
</event>
<event>
 8    1  0.1116841E+005  0.1043930E+01  0.7957747E-01            NaN
         13   -1    0    0    0    0  0.00000000000E+00  0.00000000000E+00  0.74505805969E-08  0.10566000000E+00  0.10566000000E+00 0.  1.
     999900   -1    0    0    0    0 -0.00000000000E+00 -0.00000000000E+00 -0.74505805969E-08  0.93827000000E+00  0.93827000000E+00 0.  1.
     999902    2    1    2    0    0 -0.21748124184E-01 -0.49967539233E-03  0.10892387040E-01  0.10196015254E+01  0.10193112360E+01 0.  0.
     999903    2    3    3    0    0  0.57102118402E-01  0.13683973723E-01  0.11410672821E+00  0.12995455222E+00  0.20492368297E-01 0.  0.
         14    1    1    2    0    0  0.21748124184E-01  0.49967539233E-03 -0.10892387040E-01  0.24328474602E-01  0.00000000000E+00 0. -1.
     999901    1    3    3    0    0 -0.78850242586E-01 -0.14183649115E-01 -0.10321434117E+00  0.88964697318E+00  0.88000000000E+00 0. -1.
        -11    1    4    4    0    0 -0.45844425743E-03 -0.19599635119E-02  0.16334570385E-02  0.26421451516E-02  0.51100000000E-03 0. -1.
         11    1    4    4    0    0  0.57560562660E-01  0.15643937235E-01  0.11247327117E+00  0.12731240707E+00  0.51100000000E-03 0.  1.
</event>
<event>
 8    1  0.1116841E+005  0.1043930E+01  0.7957747E-01            NaN
         13   -1    0    0    0    0  0.00000000000E+00  0.00000000000E+00  0.74505805969E-08  0.10566000000E+00  0.10566000000E+00 0.  1.
     999900   -1    0    0    0    0 -0.00000000000E+00 -0.00000000000E+00 -0.74505805969E-08  0.93827000000E+00  0.93827000000E+00 0.  1.
     999902    2    1    2    0    0 -0.53965464827E-04 -0.23487861656E-01 -0.29974556155E-02  0.10202515858E+01  0.10199767797E+01 0.  0.
     999903    2    3    3    0    0 -0.11737175067E+00 -0.73405059130E-02  0.53192950812E-01  0.13054289103E+00  0.19543426053E-01 0.  0.
         14    1    1    2    0    0  0.53965464827E-04  0.23487861656E-01  0.29974556155E-02  0.23678414170E-01  0.00000000000E+00 0.  1.
     999901    1    3    3    0    0  0.11731778520E+00 -0.16147355743E-01 -0.56190406427E-01  0.88970869480E+00  0.88000000000E+00 0. -1.
        -11    1    4    4    0    0 -0.33203418439E-01 -0.54207759726E-02  0.64968382383E-02  0.34268379540E-01  0.51100000000E-03 0.  1.
         11    1    4    4    0    0 -0.84168332226E-01 -0.19197299404E-02  0.46696112573E-01  0.96274511493E-01  0.51100000000E-03 0. -1.
</event>
<event>
 8    1  0.1116841E+005  0.1043930E+01  0.7957747E-01            NaN
         13   -1    0    0    0    0  0.00000000000E+00  0.00000000000E+00  0.74505805969E-08  0.10566000000E+00  0.10566000000E+00 0. -1.
     999900   -1    0    0    0    0 -0.00000000000E+00 -0.00000000000E+00 -0.74505805969E-08  0.93827000000E+00  0.93827000000E+00 0.  1.
     999902    2    1    2    0    0  0.20941067824E-01 -0.11920499586E-01 -0.73236010633E-02  0.10187454459E+01  0.10184341028E+01 0.  0.
     999903    2    3    3    0    0  0.89979886912E-01 -0.73010295506E-01 -0.61329518035E-01  0.13228339891E+00  0.17626813289E-01 0.  0.
         14    1    1    2    0    0 -0.20941067824E-01  0.11920499586E-01  0.73236010633E-02  0.25184554086E-01  0.00000000000E+00 0. -1.
     999901    1    3    3    0    0 -0.69038819088E-01  0.61089795919E-01  0.54005916972E-01  0.88646204700E+00  0.88000000000E+00 0. -1.
        -11    1    4    4    0    0  0.17596483929E-01 -0.23594834155E-01 -0.12802485496E-01  0.32101669760E-01  0.51100000000E-03 0.  1.
         11    1    4    4    0    0  0.72383402983E-01 -0.49415461351E-01 -0.48527032539E-01  0.10018172915E+00  0.51100000000E-03 0. -1.
</event>
<event>
 8    1  0.1116841E+005  0.1043930E+01  0.7957747E-01            NaN
         13   -1    0    0    0    0  0.00000000000E+00  0.00000000000E+00  0.74505805969E-08  0.10566000000E+00  0.10566000000E+00 0.  1.
     999900   -1    0    0    0    0 -0.00000000000E+00 -0.00000000000E+00 -0.74505805969E-08  0.93827000000E+00  0.93827000000E+00 0. -1.
     999902    2    1    2    0    0  0.96371493025E-02 -0.20994682366E-01 -0.21811700035E-02  0.10207263616E+01  0.10204625894E+01 0.  0.
     999903    2    3    3    0    0  0.66633257997E-02 -0.47469436306E-01 -0.12192997574E+00  0.13221663584E+00  0.17792484779E-01 0.  0.
         14    1    1    2    0    0 -0.96371493025E-02  0.20994682366E-01  0.21811700035E-02  0.23203638441E-01  0.00000000000E+00 0.  1.
     999901    1    3    3    0    0  0.29738235028E-02  0.26474753940E-01  0.11974880574E+00  0.88850972572E+00  0.88000000000E+00 0.  1.
        -11    1    4    4    0    0  0.13394964396E-02 -0.32932455939E-01 -0.60869257771E-01  0.69221879254E-01  0.51100000000E-03 0. -1.
         11    1    4    4    0    0  0.53238293601E-02 -0.14536980367E-01 -0.61060717970E-01  0.62994756585E-01  0.51100000000E-03 0.  1.
</event>
<event>
 8    1  0.1116841E+005  0.1043930E+01  0.7957747E-01            NaN
         13   -1    0    0    0    0  0.00000000000E+00  0.00000000000E+00  0.74505805969E-08  0.10566000000E+00  0.10566000000E+00 0. -1.
     999900   -1    0    0    0    0 -0.00000000000E+00 -0.00000000000E+00 -0.74505805969E-08  0.93827000000E+00  0.93827000000E+00 0. -1.
     999902    2    1    2    0    0  0.58943208072E-02 -0.17371684516E-01  0.12554335455E-01  0.10217009699E+01  0.10214591240E+01 0.  0.
     999903    2    3    3    0    0  0.36791488154E-01 -0.11598704837E+00  0.54199867850E-01  0.13467561777E+00  0.19831473923E-01 0.  0.
         14    1    1    2    0    0 -0.58943208072E-02  0.17371684516E-01 -0.12554335455E-01  0.22229030106E-01  0.00000000000E+00 0. -1.
     999901    1    3    3    0    0 -0.30897167347E-01  0.98615363851E-01 -0.41645532395E-01  0.88702535212E+00  0.88000000000E+00 0. -1.
        -11    1    4    4    0    0  0.51139737669E-02 -0.39943030068E-02  0.59357884177E-03  0.65361028939E-02  0.51100000000E-03 0. -1.
         11    1    4    4    0    0  0.31677514388E-01 -0.11199274536E+00  0.53606289008E-01  0.12813951488E+00  0.51100000000E-03 0.  1.
</event>
<event>
 8    1  0.1116841E+005  0.1043930E+01  0.7957747E-01            NaN
         13   -1    0    0    0    0  0.00000000000E+00  0.00000000000E+00  0.74505805969E-08  0.10566000000E+00  0.10566000000E+00 0. -1.
     999900   -1    0    0    0    0 -0.00000000000E+00 -0.00000000000E+00 -0.74505805969E-08  0.93827000000E+00  0.93827000000E+00 0.  1.
     999902    2    1    2    0    0  0.39726227705E-03  0.14259818180E-01 -0.16266663191E-01  0.10222942758E+01  0.10220653021E+01 0.  0.
     999903    2    3    3    0    0 -0.22024531037E-01  0.13033288640E+00  0.89618780672E-02  0.13403070380E+00  0.20302045684E-01 0.  0.
         14    1    1    2    0    0 -0.39726227705E-03 -0.14259818180E-01  0.16266663191E-01  0.21635724236E-01  0.00000000000E+00 0. -1.
     999901    1    3    3    0    0  0.22421793314E-01 -0.11607306822E+00 -0.25228541258E-01  0.88826357196E+00  0.88000000000E+00 0. -1.
        -11    1    4    4    0    0  0.30698400398E-02  0.35056704591E-01  0.30565610664E-02  0.35327045464E-01  0.51100000000E-03 0.  1.
         11    1    4    4    0    0 -0.25094371077E-01  0.95276181807E-01  0.59053170008E-02  0.98703658338E-01  0.51100000000E-03 0. -1.
</event>
<event>
 8    1  0.1116841E+005  0.1043930E+01  0.7957747E-01            NaN
         13   -1    0    0    0    0  0.00000000000E+00  0.00000000000E+00  0.74505805969E-08  0.10566000000E+00  0.10566000000E+00 0. -1.
     999900   -1    0    0    0    0 -0.00000000000E+00 -0.00000000000E+00 -0.74505805969E-08  0.93827000000E+00  0.93827000000E+00 0. -1.
     999902    2    1    2    0    0  0.23226109196E-01  0.37066726021E-02 -0.33247069932E-02  0.10201761530E+01  0.10198995725E+01 0.  0.
     999903    2    3    3    0    0  0.12881140210E-01 -0.13120974861E-01 -0.12782316761E+00  0.13119355768E+00  0.23127984028E-01 0.  0.
         14    1    1    2    0    0 -0.23226109196E-01 -0.37066726021E-02  0.33247069932E-02  0.23753846988E-01  0.00000000000E+00 0. -1.
     999901    1    3    3    0    0  0.10344968985E-01  0.16827647463E-01  0.12449846062E+00  0.88898259533E+00  0.88000000000E+00 0.  1.
        -11    1    4    4    0    0  0.14184582157E-01 -0.16769733225E-01 -0.73079191191E-01  0.76310259005E-01  0.51100000000E-03 0. -1.
         11    1    4    4    0    0 -0.13034419465E-02  0.36487583639E-02 -0.54743976419E-01  0.54883298677E-01  0.51100000000E-03 0.  1.
</event>
<event>
 8    1  0.1116841E+005  0.1043930E+01  0.7957747E-01            NaN
         13   -1    0    0    0    0  0.00000000000E+00  0.00000000000E+00  0.74505805969E-08  0.10566000000E+00  0.10566000000E+00 0.  1.
     999900   -1    0    0    0    0 -0.00000000000E+00 -0.00000000000E+00 -0.74505805969E-08  0.93827000000E+00  0.93827000000E+00 0. -1.
     999902    2    1    2    0    0 -0.15275268765E-01  0.16828811581E-01  0.21435178496E-02  0.10211015659E+01  0.10208463501E+01 0.  0.
     999903    2    3    3    0    0  0.15861595862E-01  0.71262190266E-01 -0.10778015059E+00  0.13204829981E+00  0.22142778428E-01 0.  0.
         14    1    1    2    0    0  0.15275268765E-01 -0.16828811581E-01 -0.21435178496E-02  0.22828434109E-01  0.00000000000E+00 0.  1.
     999901    1    3    3    0    0 -0.31136864627E-01 -0.54433378684E-01  0.10992366844E+00  0.88905326608E+00  0.88000000000E+00 0.  1.
        -11    1    4    4    0    0  0.95286796098E-02  0.19580977704E-01 -0.17983235686E-01  0.28246562794E-01  0.51100000000E-03 0.  1.
         11    1    4    4    0    0  0.63329162526E-02  0.51681212562E-01 -0.89796914900E-01  0.10380173701E+00  0.51100000000E-03 0. -1.
</event>
<event>
 8    1  0.1116841E+005  0.1043930E+01  0.7957747E-01            NaN
         13   -1    0    0    0    0  0.00000000000E+00  0.00000000000E+00  0.74505805969E-08  0.10566000000E+00  0.10566000000E+00 0. -1.
     999900   -1    0    0    0    0 -0.00000000000E+00 -0.00000000000E+00 -0.74505805969E-08  0.93827000000E+00  0.93827000000E+00 0. -1.
     999902    2    1    2    0    0 -0.12887635160E-01 -0.16702473600E-01 -0.11070718095E-01  0.10201051272E+01  0.10198268706E+01 0.  0.
     999903    2    3    3    0    0  0.21065544023E-01 -0.12883509118E+00  0.82756241146E-02  0.13212943877E+00  0.18640406953E-01 0.  0.
         14    1    1    2    0    0  0.12887635160E-01  0.16702473600E-01  0.11070718095E-01  0.23824872791E-01  0.00000000000E+00 0. -1.
     999901    1    3    3    0    0 -0.33953179183E-01  0.11213261758E+00 -0.19346342209E-01  0.88797568844E+00  0.88000000000E+00 0. -1.
        -11    1    4    4    0    0  0.10058702932E-01 -0.27451968667E-01  0.73255798540E-02  0.30144872359E-01  0.51100000000E-03 0. -1.
         11    1    4    4    0    0  0.11006841091E-01 -0.10138312251E+00  0.95004426062E-03  0.10198456641E+00  0.51100000000E-03 0.  1.
</event>
<event>
 8    1  0.1116841E+005  0.1043930E+01  0.7957747E-01            NaN
         13   -1    0    0    0    0  0.00000000000E+00  0.00000000000E+00  0.74505805969E-08  0.10566000000E+00  0.10566000000E+00 0.  1.
     999900   -1    0    0    0    0 -0.00000000000E+00 -0.00000000000E+00 -0.74505805969E-08  0.93827000000E+00  0.93827000000E+00 0.  1.
     999902    2    1    2    0    0 -0.14795181493E-01  0.87681129483E-02 -0.14765720808E-01  0.10212627613E+01  0.10210111772E+01 0.  0.
     999903    2    3    3    0    0 -0.36749419267E-01 -0.67342602778E-01 -0.10668335974E+00  0.13293642375E+00  0.20129767707E-01 0.  0.
         14    1    1    2    0    0  0.14795181493E-01 -0.87681129483E-02  0.14765720808E-01  0.22667238718E-01  0.00000000000E+00 0.  1.
     999901    1    3    3    0    0  0.21954237773E-01  0.76110715726E-01  0.91917638937E-01  0.88832633753E+00  0.88000000000E+00 0. -1.
        -11    1    4    4    0    0 -0.32191808824E-01 -0.47502602411E-01 -0.89371510542E-01  0.10620893469E+00  0.51100000000E-03 0. -1.
         11    1    4    4    0    0 -0.45576104425E-02 -0.19840000366E-01 -0.17311849203E-01  0.26727489057E-01  0.51100000000E-03 0.  1.
</event>
<event>
 8    1  0.1116841E+005  0.1043930E+01  0.7957747E-01            NaN
         13   -1    0    0    0    0  0.00000000000E+00  0.00000000000E+00  0.74505805969E-08  0.10566000000E+00  0.10566000000E+00 0.  1.
     999900   -1    0    0    0    0 -0.00000000000E+00 -0.00000000000E+00 -0.74505805969E-08  0.93827000000E+00  0.93827000000E+00 0.  1.
     999902    2    1    2    0    0  0.27057394477E-02 -0.11734316973E-01  0.20450527203E-01  0.10201973372E+01  0.10199212556E+01 0.  0.
     999903    2    3    3    0    0 -0.12645449842E+00  0.19918438514E-01 -0.10883720140E-01  0.12965475033E+00  0.17447479889E-01 0.  0.
         14    1    1    2    0    0 -0.27057394477E-02  0.11734316973E-01 -0.20450527203E-01  0.23732662802E-01  0.00000000000E+00 0. -1.
     999901    1    3    3    0    0  0.12916023787E+00 -0.31652755487E-01  0.31334247343E-01  0.89054258687E+00  0.88000000000E+00 0.  1.
        -11    1    4    4    0    0 -0.52811331985E-01  0.25766783965E-02  0.19609949541E-02  0.52912972698E-01  0.51100000000E-03 0. -1.
         11    1    4    4    0    0 -0.73643166436E-01  0.17341760117E-01 -0.12844715094E-01  0.76741777628E-01  0.51100000000E-03 0.  1.
</event>
<event>
 8    1  0.1116841E+005  0.1043930E+01  0.7957747E-01            NaN
         13   -1    0    0    0    0  0.00000000000E+00  0.00000000000E+00  0.74505805969E-08  0.10566000000E+00  0.10566000000E+00 0. -1.
     999900   -1    0    0    0    0 -0.00000000000E+00 -0.00000000000E+00 -0.74505805969E-08  0.93827000000E+00  0.93827000000E+00 0.  1.
     999902    2    1    2    0    0 -0.15061097572E-01  0.20480999574E-01 -0.10631909602E-02  0.10184851896E+01  0.10181672962E+01 0.  0.
     999903    2    3    3    0    0  0.68545946762E-01 -0.72035143796E-01 -0.75696671760E-01  0.12656617355E+00  0.20035004704E-01 0.  0.
         14    1    1    2    0    0  0.15061097572E-01 -0.20480999574E-01  0.10631909602E-02  0.25444810446E-01  0.00000000000E+00 0. -1.
     999901    1    3    3    0    0 -0.83607044333E-01  0.92516143370E-01  0.74633480800E-01  0.89191901600E+00  0.88000000000E+00 0. -1.
        -11    1    4    4    0    0  0.53411869801E-01 -0.47325933976E-01 -0.61901147674E-01  0.94470022053E-01  0.51100000000E-03 0. -1.
         11    1    4    4    0    0  0.15134076961E-01 -0.24709209820E-01 -0.13795524085E-01  0.32096151501E-01  0.51100000000E-03 0.  1.
</event>
<event>
 8    1  0.1116841E+005  0.1043930E+01  0.7957747E-01            NaN
         13   -1    0    0    0    0  0.00000000000E+00  0.00000000000E+00  0.74505805969E-08  0.10566000000E+00  0.10566000000E+00 0. -1.
     999900   -1    0    0    0    0 -0.00000000000E+00 -0.00000000000E+00 -0.74505805969E-08  0.93827000000E+00  0.93827000000E+00 0.  1.
     999902    2    1    2    0    0 -0.20676781452E-01 -0.94079531156E-02  0.68429909993E-02  0.10202052155E+01  0.10199293193E+01 0.  0.
     999903    2    3    3    0    0 -0.19283765748E-01 -0.38467301790E-01 -0.12121383420E+00  0.13046090577E+00  0.21809571432E-01 0.  0.
         14    1    1    2    0    0  0.20676781452E-01  0.94079531156E-02 -0.68429909993E-02  0.23724784485E-01  0.00000000000E+00 0.  1.
     999901    1    3    3    0    0 -0.13930157041E-02  0.29059348674E-01  0.12805682520E+00  0.88974430974E+00  0.88000000000E+00 0. -1.
        -11    1    4    4    0    0 -0.10130694132E-01 -0.91850569876E-02 -0.64932887408E-01  0.66359153277E-01  0.51100000000E-03 0. -1.
         11    1    4    4    0    0 -0.91530716163E-02 -0.29282244802E-01 -0.56280946789E-01  0.64101752497E-01  0.51100000000E-03 0.  1.
</event>
<event>
 8    1  0.1116841E+005  0.1043930E+01  0.7957747E-01            NaN
         13   -1    0    0    0    0  0.00000000000E+00  0.00000000000E+00  0.74505805969E-08  0.10566000000E+00  0.10566000000E+00 0. -1.
     999900   -1    0    0    0    0 -0.00000000000E+00 -0.00000000000E+00 -0.74505805969E-08  0.93827000000E+00  0.93827000000E+00 0. -1.
     999902    2    1    2    0    0 -0.63946106124E-02 -0.17794871184E-01 -0.14309669678E-01  0.10202168152E+01  0.10199411919E+01 0.  0.
     999903    2    3    3    0    0 -0.83448181699E-01  0.36189024789E-01  0.89435583316E-01  0.12914185130E+00  0.20140745990E-01 0.  0.
         14    1    1    2    0    0  0.63946106124E-02  0.17794871184E-01  0.14309669678E-01  0.23713184764E-01  0.00000000000E+00 0. -1.
     999901    1    3    3    0    0  0.77053571086E-01 -0.53983895973E-01 -0.10374525299E+00  0.89107496394E+00  0.88000000000E+00 0. -1.
        -11    1    4    4    0    0 -0.29975128399E-01  0.64771768343E-02  0.20070944792E-01  0.36654687124E-01  0.51100000000E-03 0. -1.
         11    1    4    4    0    0 -0.53473053300E-01  0.29711847955E-01  0.69364638524E-01  0.92487164172E-01  0.51100000000E-03 0.  1.
</event>
<event>
 8    1  0.1116841E+005  0.1043930E+01  0.7957747E-01            NaN
         13   -1    0    0    0    0  0.00000000000E+00  0.00000000000E+00  0.74505805969E-08  0.10566000000E+00  0.10566000000E+00 0. -1.
     999900   -1    0    0    0    0 -0.00000000000E+00 -0.00000000000E+00 -0.74505805969E-08  0.93827000000E+00  0.93827000000E+00 0. -1.
     999902    2    1    2    0    0 -0.21275702984E-01 -0.18532955518E-02 -0.87555300334E-02  0.10208486320E+01  0.10205876640E+01 0.  0.
     999903    2    3    3    0    0  0.11468209670E+00  0.10905005439E-01 -0.54870860583E-01  0.12912338215E+00  0.19777108716E-01 0.  0.
         14    1    1    2    0    0  0.21275702984E-01  0.18532955518E-02  0.87555300334E-02  0.23081367985E-01  0.00000000000E+00 0. -1.
     999901    1    3    3    0    0 -0.13595779968E+00 -0.12758300991E-01  0.46115330550E-01  0.89172524987E+00  0.88000000000E+00 0. -1.
        -11    1    4    4    0    0  0.61025272034E-01  0.13766211282E-01 -0.35948130864E-01  0.72153458916E-01  0.51100000000E-03 0. -1.
         11    1    4    4    0    0  0.53656824666E-01 -0.28612058433E-02 -0.18922729719E-01  0.56969923232E-01  0.51100000000E-03 0.  1.
</event>
<event>
 8    1  0.1116841E+005  0.1043930E+01  0.7957747E-01            NaN
         13   -1    0    0    0    0  0.00000000000E+00  0.00000000000E+00  0.74505805969E-08  0.10566000000E+00  0.10566000000E+00 0.  1.
     999900   -1    0    0    0    0 -0.00000000000E+00 -0.00000000000E+00 -0.74505805969E-08  0.93827000000E+00  0.93827000000E+00 0. -1.
     999902    2    1    2    0    0  0.17406492078E-01 -0.13391219625E-01  0.78352637986E-02  0.10206125797E+01  0.10203461843E+01 0.  0.
     999903    2    3    3    0    0  0.86909882756E-01  0.90017164063E-01 -0.31117728414E-01  0.13098268436E+00  0.23059337210E-01 0.  0.
         14    1    1    2    0    0 -0.17406492078E-01  0.13391219625E-01 -0.78352637986E-02  0.23317420275E-01  0.00000000000E+00 0. -1.
     999901    1    3    3    0    0 -0.69503390678E-01 -0.10340838369E+00  0.38952992213E-01  0.88962989537E+00  0.88000000000E+00 0.  1.
        -11    1    4    4    0    0  0.25703171186E-01  0.19369300439E-01  0.82890046198E-03  0.32198928639E-01  0.51100000000E-03 0. -1.
         11    1    4    4    0    0  0.61206711570E-01  0.70647863624E-01 -0.31946628876E-01  0.98783755717E-01  0.51100000000E-03 0.  1.
</event>
<event>
 8    1  0.1116841E+005  0.1043930E+01  0.7957747E-01            NaN
         13   -1    0    0    0    0  0.00000000000E+00  0.00000000000E+00  0.74505805969E-08  0.10566000000E+00  0.10566000000E+00 0.  1.
     999900   -1    0    0    0    0 -0.00000000000E+00 -0.00000000000E+00 -0.74505805969E-08  0.93827000000E+00  0.93827000000E+00 0. -1.
     999902    2    1    2    0    0 -0.14910039985E-01 -0.18504554903E-01 -0.14429061438E-02  0.10201222319E+01  0.10198443794E+01 0.  0.
     999903    2    3    3    0    0  0.12104247729E+00  0.22271444300E-01 -0.30354362584E-01  0.12828051870E+00  0.19677540768E-01 0.  0.
         14    1    1    2    0    0  0.14910039985E-01  0.18504554903E-01  0.14429061438E-02  0.23807768116E-01  0.00000000000E+00 0.  1.
     999901    1    3    3    0    0 -0.13595251727E+00 -0.40775999203E-01  0.28911456440E-01  0.89184171319E+00  0.88000000000E+00 0.  1.
        -11    1    4    4    0    0  0.11186243694E+00  0.22736653866E-01 -0.22877606284E-01  0.11642081523E+00  0.51100000000E-03 0.  1.
         11    1    4    4    0    0  0.91800403423E-02 -0.46520956571E-03 -0.74767562994E-02  0.11859703470E-01  0.51100000000E-03 0. -1.
</event>
<event>
 8    1  0.1116841E+005  0.1043930E+01  0.7957747E-01            NaN
         13   -1    0    0    0    0  0.00000000000E+00  0.00000000000E+00  0.74505805969E-08  0.10566000000E+00  0.10566000000E+00 0.  1.
     999900   -1    0    0    0    0 -0.00000000000E+00 -0.00000000000E+00 -0.74505805969E-08  0.93827000000E+00  0.93827000000E+00 0. -1.
     999902    2    1    2    0    0  0.27254978016E-02 -0.16481273853E-01  0.16475786062E-01  0.10204670025E+01  0.10201972314E+01 0.  0.
     999903    2    3    3    0    0 -0.84492828615E-01 -0.84316099983E-01 -0.50327846389E-01  0.13104509731E+00  0.19790972755E-01 0.  0.
         14    1    1    2    0    0 -0.27254978016E-02  0.16481273853E-01 -0.16475786062E-01  0.23462997516E-01  0.00000000000E+00 0. -1.
     999901    1    3    3    0    0  0.87218326417E-01  0.67834826130E-01  0.66803632451E-01  0.88942190518E+00  0.88000000000E+00 0.  1.
        -11    1    4    4    0    0 -0.49630788536E-01 -0.49630904950E-01 -0.18935117255E-01  0.72699667698E-01  0.51100000000E-03 0.  1.
         11    1    4    4    0    0 -0.34862040078E-01 -0.34685195033E-01 -0.31392729134E-01  0.58345429610E-01  0.51100000000E-03 0. -1.
</event>
<event>
 8    1  0.1116841E+005  0.1043930E+01  0.7957747E-01            NaN
         13   -1    0    0    0    0  0.00000000000E+00  0.00000000000E+00  0.74505805969E-08  0.10566000000E+00  0.10566000000E+00 0.  1.
     999900   -1    0    0    0    0 -0.00000000000E+00 -0.00000000000E+00 -0.74505805969E-08  0.93827000000E+00  0.93827000000E+00 0. -1.
     999902    2    1    2    0    0 -0.15149509108E-01  0.20450586185E-01 -0.87455614883E-02  0.10170186837E+01  0.10166625713E+01 0.  0.
     999903    2    3    3    0    0 -0.12111454950E+00  0.40229255761E-01  0.16534935787E-01  0.13008075511E+00  0.18986090425E-01 0.  0.
         14    1    1    2    0    0  0.15149509108E-01 -0.20450586185E-01  0.87455614883E-02  0.26911316342E-01  0.00000000000E+00 0.  1.
     999901    1    3    3    0    0  0.10596504039E+00 -0.19778669576E-01 -0.25280497275E-01  0.88693792855E+00  0.88000000000E+00 0. -1.
        -11    1    4    4    0    0 -0.44640955979E-01  0.20502707485E-01  0.13912332370E-01  0.51058692481E-01  0.51100000000E-03 0. -1.
         11    1    4    4    0    0 -0.76473593517E-01  0.19726548276E-01  0.26226034171E-02  0.79022062628E-01  0.51100000000E-03 0.  1.
</event>
<event>
 8    1  0.1116841E+005  0.1043930E+01  0.7957747E-01            NaN
         13   -1    0    0    0    0  0.00000000000E+00  0.00000000000E+00  0.74505805969E-08  0.10566000000E+00  0.10566000000E+00 0. -1.
     999900   -1    0    0    0    0 -0.00000000000E+00 -0.00000000000E+00 -0.74505805969E-08  0.93827000000E+00  0.93827000000E+00 0. -1.
     999902    2    1    2    0    0  0.30797255848E-03  0.21514973543E-01  0.48996090197E-02  0.10218620345E+01  0.10216237186E+01 0.  0.
     999903    2    3    3    0    0 -0.36664971603E-01 -0.12939451490E-01  0.12480749627E+00  0.13229359561E+00  0.20320796439E-01 0.  0.
         14    1    1    2    0    0 -0.30797255848E-03 -0.21514973543E-01 -0.48996090197E-02  0.22067965520E-01  0.00000000000E+00 0. -1.
     999901    1    3    3    0    0  0.36972944161E-01  0.34454425033E-01 -0.11990788725E+00  0.88956843887E+00  0.88000000000E+00 0. -1.
        -11    1    4    4    0    0 -0.20196358613E-01  0.21805460917E-02  0.74851867063E-01  0.77561013443E-01  0.51100000000E-03 0. -1.
         11    1    4    4    0    0 -0.16468612989E-01 -0.15119997582E-01  0.49955629205E-01  0.54732582169E-01  0.51100000000E-03 0.  1.
</event>
<event>
 8    1  0.1116841E+005  0.1043930E+01  0.7957747E-01            NaN
         13   -1    0    0    0    0  0.00000000000E+00  0.00000000000E+00  0.74505805969E-08  0.10566000000E+00  0.10566000000E+00 0. -1.
     999900   -1    0    0    0    0 -0.00000000000E+00 -0.00000000000E+00 -0.74505805969E-08  0.93827000000E+00  0.93827000000E+00 0. -1.
     999902    2    1    2    0    0  0.92086047332E-02 -0.22917470388E-01  0.16599866579E-02  0.10191759214E+01  0.10188752595E+01 0.  0.
     999903    2    3    3    0    0 -0.11760725126E+00 -0.47678692059E-01  0.46009114474E-02  0.12973563200E+00  0.26560169405E-01 0.  0.
         14    1    1    2    0    0 -0.92086047332E-02  0.22917470388E-01 -0.16599866579E-02  0.24754078569E-01  0.00000000000E+00 0. -1.
     999901    1    3    3    0    0  0.12681585599E+00  0.24761221671E-01 -0.29409247895E-02  0.88944028943E+00  0.88000000000E+00 0.  1.
        -11    1    4    4    0    0 -0.27449209347E-01  0.36157704833E-03 -0.30803314160E-03  0.27458074171E-01  0.51100000000E-03 0. -1.
         11    1    4    4    0    0 -0.90158041910E-01 -0.48040269107E-01  0.49089445890E-02  0.10227755783E+00  0.51100000000E-03 0.  1.
</event>
<event>
 8    1  0.1116841E+005  0.1043930E+01  0.7957747E-01            NaN
         13   -1    0    0    0    0  0.00000000000E+00  0.00000000000E+00  0.74505805969E-08  0.10566000000E+00  0.10566000000E+00 0. -1.
     999900   -1    0    0    0    0 -0.00000000000E+00 -0.00000000000E+00 -0.74505805969E-08  0.93827000000E+00  0.93827000000E+00 0.  1.
     999902    2    1    2    0    0  0.21592301127E-01  0.18041768307E-02 -0.99581044753E-02  0.10200836928E+01  0.10198049294E+01 0.  0.
     999903    2    3    3    0    0  0.66984693278E-01  0.11185206584E+00  0.27146037657E-03  0.13200956801E+00  0.20703105768E-01 0.  0.
         14    1    1    2    0    0 -0.21592301127E-01 -0.18041768307E-02  0.99581044753E-02  0.23846307193E-01  0.00000000000E+00 0. -1.
     999901    1    3    3    0    0 -0.45392392151E-01 -0.11004788901E+00 -0.10229564852E-01  0.88807412480E+00  0.88000000000E+00 0. -1.
        -11    1    4    4    0    0  0.53734499589E-01  0.99826719594E-01  0.50444886201E-02  0.11348338371E+00  0.51100000000E-03 0. -1.
         11    1    4    4    0    0  0.13250193689E-01  0.12025346247E-01 -0.47730282435E-02  0.18526184302E-01  0.51100000000E-03 0.  1.
</event>
<event>
 8    1  0.1116841E+005  0.1043930E+01  0.7957747E-01            NaN
         13   -1    0    0    0    0  0.00000000000E+00  0.00000000000E+00  0.74505805969E-08  0.10566000000E+00  0.10566000000E+00 0. -1.
     999900   -1    0    0    0    0 -0.00000000000E+00 -0.00000000000E+00 -0.74505805969E-08  0.93827000000E+00  0.93827000000E+00 0.  1.
     999902    2    1    2    0    0 -0.16151597611E-01  0.16145983083E-01 -0.23875044552E-02  0.10209677037E+01  0.10207094517E+01 0.  0.
     999903    2    3    3    0    0 -0.34792502215E-01  0.12366458953E+00 -0.30857266328E-01  0.13377084762E+00  0.20952801039E-01 0.  0.
         14    1    1    2    0    0  0.16151597611E-01 -0.16145983083E-01  0.23875044552E-02  0.22962296327E-01  0.00000000000E+00 0.  1.
     999901    1    3    3    0    0  0.18640904605E-01 -0.10751860645E+00  0.28469761873E-01  0.88719685606E+00  0.88000000000E+00 0. -1.
        -11    1    4    4    0    0 -0.55566548537E-02  0.41160609934E-01 -0.18117126100E-01  0.45316262008E-01  0.51100000000E-03 0.  1.
         11    1    4    4    0    0 -0.29235847362E-01  0.82503979600E-01 -0.12740140228E-01  0.88454585607E-01  0.51100000000E-03 0. -1.
</event>
<event>
 8    1  0.1116841E+005  0.1043930E+01  0.7957747E-01            NaN
         13   -1    0    0    0    0  0.00000000000E+00  0.00000000000E+00  0.74505805969E-08  0.10566000000E+00  0.10566000000E+00 0.  1.
     999900   -1    0    0    0    0 -0.00000000000E+00 -0.00000000000E+00 -0.74505805969E-08  0.93827000000E+00  0.93827000000E+00 0.  1.
     999902    2    1    2    0    0 -0.12923261423E-02  0.65054665260E-02 -0.22437787200E-01  0.10205324468E+01  0.10202641959E+01 0.  0.
     999903    2    3    3    0    0 -0.27275048011E-01  0.11535752076E+00  0.50601303420E-01  0.13044336119E+00  0.20092106224E-01 0.  0.
         14    1    1    2    0    0  0.12923261423E-02 -0.65054665260E-02  0.22437787200E-01  0.23397553206E-01  0.00000000000E+00 0. -1.
     999901    1    3    3    0    0  0.25982721868E-01 -0.10885205423E+00 -0.73039090621E-01  0.89008908560E+00  0.88000000000E+00 0.  1.
        -11    1    4    4    0    0 -0.20724925641E-01  0.10581142771E+00  0.49964861482E-01  0.11883740691E+00  0.51100000000E-03 0. -1.
         11    1    4    4    0    0 -0.65501223696E-02  0.95460930423E-02  0.63644193796E-03  0.11605954281E-01  0.51100000000E-03 0.  1.
</event>
<event>
 8    1  0.1116841E+005  0.1043930E+01  0.7957747E-01            NaN
         13   -1    0    0    0    0  0.00000000000E+00  0.00000000000E+00  0.74505805969E-08  0.10566000000E+00  0.10566000000E+00 0. -1.
     999900   -1    0    0    0    0 -0.00000000000E+00 -0.00000000000E+00 -0.74505805969E-08  0.93827000000E+00  0.93827000000E+00 0.  1.
     999902    2    1    2    0    0 -0.11046628751E-01  0.48222906405E-02 -0.21527801246E-01  0.10192575717E+01  0.10189589141E+01 0.  0.
     999903    2    3    3    0    0  0.37974159760E-01  0.32716166295E-01  0.11511017041E+00  0.12692857330E+00  0.18658162886E-01 0.  0.
         14    1    1    2    0    0  0.11046628751E-01 -0.48222906405E-02  0.21527801246E-01  0.24672428342E-01  0.00000000000E+00 0. -1.
     999901    1    3    3    0    0 -0.49020788511E-01 -0.27893875654E-01 -0.13663797166E+00  0.89232899835E+00  0.88000000000E+00 0.  1.
        -11    1    4    4    0    0  0.23499123904E-01  0.30908932777E-01  0.86208160722E-01  0.94549875969E-01  0.51100000000E-03 0.  1.
         11    1    4    4    0    0  0.14475035856E-01  0.18072335179E-02  0.28902009690E-01  0.32378697335E-01  0.51100000000E-03 0. -1.
</event>
<event>
 8    1  0.1116841E+005  0.1043930E+01  0.7957747E-01            NaN
         13   -1    0    0    0    0  0.00000000000E+00  0.00000000000E+00  0.74505805969E-08  0.10566000000E+00  0.10566000000E+00 0.  1.
     999900   -1    0    0    0    0 -0.00000000000E+00 -0.00000000000E+00 -0.74505805969E-08  0.93827000000E+00  0.93827000000E+00 0.  1.
     999902    2    1    2    0    0 -0.21651894220E-01  0.76589249483E-02 -0.15703114326E-01  0.10161082198E+01  0.10157272581E+01 0.  0.
     999903    2    3    3    0    0 -0.60465577150E-01 -0.96986983761E-01 -0.53358054463E-01  0.12825960504E+00  0.23256897250E-01 0.  0.
         14    1    1    2    0    0  0.21651894220E-01 -0.76589249483E-02  0.15703114326E-01  0.27821780213E-01  0.00000000000E+00 0.  1.
     999901    1    3    3    0    0  0.38813682931E-01  0.10464590871E+00  0.37654940136E-01  0.88784861475E+00  0.88000000000E+00 0. -1.
        -11    1    4    4    0    0 -0.60241389735E-01 -0.83919373755E-01 -0.49933065486E-01  0.11473908871E+00  0.51100000000E-03 0. -1.
         11    1    4    4    0    0 -0.22418741470E-03 -0.13067610006E-01 -0.34249889769E-02  0.13520516328E-01  0.51100000000E-03 0.  1.
</event>
<event>
 8    1  0.1116841E+005  0.1043930E+01  0.7957747E-01            NaN
         13   -1    0    0    0    0  0.00000000000E+00  0.00000000000E+00  0.74505805969E-08  0.10566000000E+00  0.10566000000E+00 0. -1.
     999900   -1    0    0    0    0 -0.00000000000E+00 -0.00000000000E+00 -0.74505805969E-08  0.93827000000E+00  0.93827000000E+00 0.  1.
     999902    2    1    2    0    0 -0.13909525803E-01 -0.34750553720E-02  0.19624040913E-01  0.10196266278E+01  0.10193369444E+01 0.  0.
     999903    2    3    3    0    0  0.10222418282E+00 -0.51405482460E-01  0.58028510148E-01  0.12987426486E+00  0.20191817747E-01 0.  0.
         14    1    1    2    0    0  0.13909525803E-01  0.34750553720E-02 -0.19624040913E-01  0.24303372187E-01  0.00000000000E+00 0.  1.
     999901    1    3    3    0    0 -0.11613370862E+00  0.47930427088E-01 -0.38404469235E-01  0.88975236295E+00  0.88000000000E+00 0.  1.
        -11    1    4    4    0    0  0.40967419679E-01 -0.29446697929E-01  0.32235455678E-01  0.59873393238E-01  0.51100000000E-03 0.  1.
         11    1    4    4    0    0  0.61256763139E-01 -0.21958784531E-01  0.25793054470E-01  0.70000871624E-01  0.51100000000E-03 0. -1.
</event>
<event>
 8    1  0.1116841E+005  0.1043930E+01  0.7957747E-01            NaN
         13   -1    0    0    0    0  0.00000000000E+00  0.00000000000E+00  0.74505805969E-08  0.10566000000E+00  0.10566000000E+00 0.  1.
     999900   -1    0    0    0    0 -0.00000000000E+00 -0.00000000000E+00 -0.74505805969E-08  0.93827000000E+00  0.93827000000E+00 0.  1.
     999902    2    1    2    0    0 -0.21711160856E-01 -0.81629079120E-02 -0.35979489181E-02  0.10204576161E+01  0.10201876266E+01 0.  0.
     999903    2    3    3    0    0  0.90498771934E-02  0.88597998166E-01 -0.92866217207E-01  0.13013310324E+00  0.19467529496E-01 0.  0.
         14    1    1    2    0    0  0.21711160856E-01  0.81629079120E-02  0.35979489181E-02  0.23472383937E-01  0.00000000000E+00 0. -1.
     999901    1    3    3    0    0 -0.30761038049E-01 -0.96760906078E-01  0.89268268289E-01  0.89032451282E+00  0.88000000000E+00 0.  1.
        -11    1    4    4    0    0  0.33447163638E-02  0.27904309576E-01 -0.43003513972E-01  0.51375100539E-01  0.51100000000E-03 0.  1.
         11    1    4    4    0    0  0.57051608296E-02  0.60693688591E-01 -0.49862703235E-01  0.78758002703E-01  0.51100000000E-03 0. -1.
</event>
<event>
 8    1  0.1116841E+005  0.1043930E+01  0.7957747E-01            NaN
         13   -1    0    0    0    0  0.00000000000E+00  0.00000000000E+00  0.74505805969E-08  0.10566000000E+00  0.10566000000E+00 0. -1.
     999900   -1    0    0    0    0 -0.00000000000E+00 -0.00000000000E+00 -0.74505805969E-08  0.93827000000E+00  0.93827000000E+00 0.  1.
     999902    2    1    2    0    0  0.92764722208E-02  0.13037476963E-01 -0.15669431610E-01  0.10215344685E+01  0.10212889457E+01 0.  0.
     999903    2    3    3    0    0  0.62756874450E-01  0.44772098937E-01  0.10441113038E+00  0.13120498963E+00  0.19237957808E-01 0.  0.
         14    1    1    2    0    0 -0.92764722208E-02 -0.13037476963E-01  0.15669431610E-01  0.22395531461E-01  0.00000000000E+00 0.  1.
     999901    1    3    3    0    0 -0.53480402229E-01 -0.31734621974E-01 -0.12008056199E+00  0.89032947891E+00  0.88000000000E+00 0.  1.
        -11    1    4    4    0    0  0.50256596248E-01  0.42472285191E-01  0.94130484560E-01  0.11484959608E+00  0.51100000000E-03 0.  1.
         11    1    4    4    0    0  0.12500278202E-01  0.22998137461E-02  0.10280645823E-01  0.16355393542E-01  0.51100000000E-03 0. -1.
</event>
<event>
 8    1  0.1116841E+005  0.1043930E+01  0.7957747E-01            NaN
         13   -1    0    0    0    0  0.00000000000E+00  0.00000000000E+00  0.74505805969E-08  0.10566000000E+00  0.10566000000E+00 0. -1.
     999900   -1    0    0    0    0 -0.00000000000E+00 -0.00000000000E+00 -0.74505805969E-08  0.93827000000E+00  0.93827000000E+00 0.  1.
     999902    2    1    2    0    0  0.19280505040E-01 -0.62132709817E-02 -0.99078102597E-02  0.10213798932E+01  0.10211309314E+01 0.  0.
     999903    2    3    3    0    0  0.95319779219E-01  0.50889702574E-01  0.73697782212E-01  0.13231711936E+00  0.20020859956E-01 0.  0.
         14    1    1    2    0    0 -0.19280505040E-01  0.62132709817E-02  0.99078102597E-02  0.22550106763E-01  0.00000000000E+00 0. -1.
     999901    1    3    3    0    0 -0.76039274179E-01 -0.57102973556E-01 -0.83605592471E-01  0.88906277388E+00  0.88000000000E+00 0.  1.
        -11    1    4    4    0    0  0.64091354280E-01  0.39381240993E-01  0.60403415314E-01  0.96474958089E-01  0.51100000000E-03 0. -1.
         11    1    4    4    0    0  0.31228424939E-01  0.11508461580E-01  0.13294366898E-01  0.35842161268E-01  0.51100000000E-03 0.  1.
</event>
<event>
 8    1  0.1116841E+005  0.1043930E+01  0.7957747E-01            NaN
         13   -1    0    0    0    0  0.00000000000E+00  0.00000000000E+00  0.74505805969E-08  0.10566000000E+00  0.10566000000E+00 0.  1.
     999900   -1    0    0    0    0 -0.00000000000E+00 -0.00000000000E+00 -0.74505805969E-08  0.93827000000E+00  0.93827000000E+00 0.  1.
     999902    2    1    2    0    0 -0.44001987590E-02  0.17454558506E-01 -0.17270854008E-01  0.10189839430E+01  0.10186785412E+01 0.  0.
     999903    2    3    3    0    0 -0.30065913613E-01  0.33576790646E-01 -0.12251753236E+00  0.13219449866E+00  0.20820175519E-01 0.  0.
         14    1    1    2    0    0  0.44001987590E-02 -0.17454558506E-01  0.17270854008E-01  0.24946057002E-01  0.00000000000E+00 0. -1.
     999901    1    3    3    0    0  0.25665714854E-01 -0.16122232140E-01  0.10524667835E+00  0.88678944434E+00  0.88000000000E+00 0. -1.
        -11    1    4    4    0    0 -0.18565867063E-02  0.15900450846E-01 -0.47289532014E-01  0.49928270653E-01  0.51100000000E-03 0.  1.
         11    1    4    4    0    0 -0.28209326906E-01  0.17676339799E-01 -0.75228000346E-01  0.82266228006E-01  0.51100000000E-03 0. -1.
</event>
<event>
 8    1  0.1116841E+005  0.1043930E+01  0.7957747E-01            NaN
         13   -1    0    0    0    0  0.00000000000E+00  0.00000000000E+00  0.74505805969E-08  0.10566000000E+00  0.10566000000E+00 0.  1.
     999900   -1    0    0    0    0 -0.00000000000E+00 -0.00000000000E+00 -0.74505805969E-08  0.93827000000E+00  0.93827000000E+00 0.  1.
     999902    2    1    2    0    0 -0.22766882501E-01 -0.72435783178E-02  0.15856611006E-02  0.10199860094E+01  0.10197049302E+01 0.  0.
     999903    2    3    3    0    0  0.73603643168E-01 -0.24215248053E-01 -0.10189567875E+00  0.12853567229E+00  0.11610993828E-01 0.  0.
         14    1    1    2    0    0  0.22766882501E-01  0.72435783178E-02 -0.15856611006E-02  0.23943990620E-01  0.00000000000E+00 0.  1.
     999901    1    3    3    0    0 -0.96370525669E-01  0.16971669735E-01  0.10348133985E+00  0.89145033709E+00  0.88000000000E+00 0.  1.
        -11    1    4    4    0    0  0.21472505766E-01 -0.25684797393E-02 -0.33152694839E-01  0.39585703077E-01  0.51100000000E-03 0.  1.
         11    1    4    4    0    0  0.52131137402E-01 -0.21646768313E-01 -0.68742983915E-01  0.88949969218E-01  0.51100000000E-03 0. -1.
</event>
<event>
 8    1  0.1116841E+005  0.1043930E+01  0.7957747E-01            NaN
         13   -1    0    0    0    0  0.00000000000E+00  0.00000000000E+00  0.74505805969E-08  0.10566000000E+00  0.10566000000E+00 0. -1.
     999900   -1    0    0    0    0 -0.00000000000E+00 -0.00000000000E+00 -0.74505805969E-08  0.93827000000E+00  0.93827000000E+00 0.  1.
     999902    2    1    2    0    0  0.21874471189E-02 -0.20372693377E-01  0.14431464793E-01  0.10188681019E+01  0.10185598217E+01 0.  0.
     999903    2    3    3    0    0 -0.12503268522E+00 -0.25176709293E-01 -0.67632930063E-02  0.12945410471E+00  0.21108861418E-01 0.  0.
         14    1    1    2    0    0 -0.21874471189E-02  0.20372693377E-01 -0.14431464793E-01  0.25061898101E-01  0.00000000000E+00 0. -1.
     999901    1    3    3    0    0  0.12722013234E+00  0.48040159162E-02  0.21194757799E-01  0.88941399719E+00  0.88000000000E+00 0. -1.
        -11    1    4    4    0    0 -0.67560481215E-01 -0.21339456416E-01 -0.10977688540E-01  0.71697711183E-01  0.51100000000E-03 0. -1.
         11    1    4    4    0    0 -0.57472204002E-01 -0.38372528774E-02  0.42143955338E-02  0.57756393526E-01  0.51100000000E-03 0.  1.
</event>
<event>
 8    1  0.1116841E+005  0.1043930E+01  0.7957747E-01            NaN
         13   -1    0    0    0    0  0.00000000000E+00  0.00000000000E+00  0.74505805969E-08  0.10566000000E+00  0.10566000000E+00 0.  1.
     999900   -1    0    0    0    0 -0.00000000000E+00 -0.00000000000E+00 -0.74505805969E-08  0.93827000000E+00  0.93827000000E+00 0.  1.
     999902    2    1    2    0    0  0.11643961507E-01 -0.20064578760E-01 -0.21498846485E-02  0.10206321210E+01  0.10203661771E+01 0.  0.
     999903    2    3    3    0    0 -0.76731455999E-01 -0.76977610365E-01  0.70553762321E-01  0.13139923373E+00  0.21786610767E-01 0.  0.
         14    1    1    2    0    0 -0.11643961507E-01  0.20064578760E-01  0.21498846485E-02  0.23297878968E-01  0.00000000000E+00 0. -1.
     999901    1    3    3    0    0  0.88375417506E-01  0.56913031605E-01 -0.72703646969E-01  0.88923288731E+00  0.88000000000E+00 0. -1.
        -11    1    4    4    0    0 -0.35033351766E-01 -0.34080948530E-01  0.44664730681E-01  0.66212129375E-01  0.51100000000E-03 0. -1.
         11    1    4    4    0    0 -0.41698104233E-01 -0.42896661835E-01  0.25889031640E-01  0.65187104350E-01  0.51100000000E-03 0.  1.
</event>
<event>
 8    1  0.1116841E+005  0.1043930E+01  0.7957747E-01            NaN
         13   -1    0    0    0    0  0.00000000000E+00  0.00000000000E+00  0.74505805969E-08  0.10566000000E+00  0.10566000000E+00 0.  1.
     999900   -1    0    0    0    0 -0.00000000000E+00 -0.00000000000E+00 -0.74505805969E-08  0.93827000000E+00  0.93827000000E+00 0.  1.
     999902    2    1    2    0    0 -0.10562961371E-01  0.21599298266E-02  0.21008009412E-01  0.10203169123E+01  0.10200436381E+01 0.  0.
     999903    2    3    3    0    0 -0.41227955082E-01 -0.11983105922E+00  0.27647506733E-01  0.13134771929E+00  0.20702939450E-01 0.  0.
         14    1    1    2    0    0  0.10562961371E-01 -0.21599298266E-02 -0.21008009412E-01  0.23613087668E-01  0.00000000000E+00 0. -1.
     999901    1    3    3    0    0  0.30664993710E-01  0.12199098904E+00 -0.66394973214E-02  0.88896919304E+00  0.88000000000E+00 0. -1.
        -11    1    4    4    0    0 -0.35828269309E-01 -0.74767417975E-01  0.20410911751E-01  0.85385584918E-01  0.51100000000E-03 0. -1.
         11    1    4    4    0    0 -0.53996857724E-02 -0.45063641241E-01  0.72365949825E-02  0.45962134375E-01  0.51100000000E-03 0.  1.
</event>
<event>
 8    1  0.1116841E+005  0.1043930E+01  0.7957747E-01            NaN
         13   -1    0    0    0    0  0.00000000000E+00  0.00000000000E+00  0.74505805969E-08  0.10566000000E+00  0.10566000000E+00 0. -1.
     999900   -1    0    0    0    0 -0.00000000000E+00 -0.00000000000E+00 -0.74505805969E-08  0.93827000000E+00  0.93827000000E+00 0. -1.
     999902    2    1    2    0    0  0.16787421033E-01  0.25584025468E-02 -0.18957912258E-01  0.10184787649E+01  0.10181607090E+01 0.  0.
     999903    2    3    3    0    0  0.13033185688E-01  0.69776469138E-01  0.10407708420E+00  0.12737272574E+00  0.18792345042E-01 0.  0.
         14    1    1    2    0    0 -0.16787421033E-01 -0.25584025468E-02  0.18957912258E-01  0.25451235053E-01  0.00000000000E+00 0. -1.
     999901    1    3    3    0    0  0.37542353443E-02 -0.67218066591E-01 -0.12303499646E+00  0.89110603921E+00  0.88000000000E+00 0. -1.
        -11    1    4    4    0    0  0.35637123427E-02  0.66863658490E-03  0.56965271915E-02  0.67719025088E-02  0.51100000000E-03 0. -1.
         11    1    4    4    0    0  0.94694733458E-02  0.69107832553E-01  0.98380557008E-01  0.12060082323E+00  0.51100000000E-03 0.  1.
</event>
<event>
 8    1  0.1116841E+005  0.1043930E+01  0.7957747E-01            NaN
         13   -1    0    0    0    0  0.00000000000E+00  0.00000000000E+00  0.74505805969E-08  0.10566000000E+00  0.10566000000E+00 0. -1.
     999900   -1    0    0    0    0 -0.00000000000E+00 -0.00000000000E+00 -0.74505805969E-08  0.93827000000E+00  0.93827000000E+00 0.  1.
     999902    2    1    2    0    0  0.60015782714E-02 -0.60605896719E-02  0.22360224772E-01  0.10199982357E+01  0.10197174469E+01 0.  0.
     999903    2    3    3    0    0 -0.72531693626E-01  0.10127110943E+00 -0.25852493741E-01  0.12870028631E+00  0.19460937251E-01 0.  0.
         14    1    1    2    0    0 -0.60015782714E-02  0.60605896719E-02 -0.22360224772E-01  0.23931764263E-01  0.00000000000E+00 0.  1.
     999901    1    3    3    0    0  0.78533271897E-01 -0.10733169910E+00  0.48212718513E-01  0.89129794943E+00  0.88000000000E+00 0.  1.
        -11    1    4    4    0    0 -0.33995694065E-01  0.48225841952E-01 -0.23661065265E-02  0.59053354080E-01  0.51100000000E-03 0. -1.
         11    1    4    4    0    0 -0.38535999561E-01  0.53045267475E-01 -0.23486387215E-01  0.69646932230E-01  0.51100000000E-03 0.  1.
</event>
<event>
 8    1  0.1116841E+005  0.1043930E+01  0.7957747E-01            NaN
         13   -1    0    0    0    0  0.00000000000E+00  0.00000000000E+00  0.74505805969E-08  0.10566000000E+00  0.10566000000E+00 0. -1.
     999900   -1    0    0    0    0 -0.00000000000E+00 -0.00000000000E+00 -0.74505805969E-08  0.93827000000E+00  0.93827000000E+00 0. -1.
     999902    2    1    2    0    0 -0.23779441561E-01  0.17454727980E-02 -0.25312995598E-02  0.10199525941E+01  0.10196707205E+01 0.  0.
     999903    2    3    3    0    0  0.42341807955E-01  0.11752915910E+00 -0.27655773327E-01  0.12955430073E+00  0.20335759160E-01 0.  0.
         14    1    1    2    0    0  0.23779441561E-01 -0.17454727980E-02  0.25312995598E-02  0.23977405900E-01  0.00000000000E+00 0. -1.
     999901    1    3    3    0    0 -0.66121249516E-01 -0.11578368630E+00  0.25124473767E-01  0.89039829337E+00  0.88000000000E+00 0.  1.
        -11    1    4    4    0    0  0.11738941454E-01  0.51116700833E-01 -0.36000257153E-02  0.52573198083E-01  0.51100000000E-03 0. -1.
         11    1    4    4    0    0  0.30602866501E-01  0.66412458264E-01 -0.24055747612E-01  0.76981102648E-01  0.51100000000E-03 0.  1.
</event>
<event>
 8    1  0.1116841E+005  0.1043930E+01  0.7957747E-01            NaN
         13   -1    0    0    0    0  0.00000000000E+00  0.00000000000E+00  0.74505805969E-08  0.10566000000E+00  0.10566000000E+00 0. -1.
     999900   -1    0    0    0    0 -0.00000000000E+00 -0.00000000000E+00 -0.74505805969E-08  0.93827000000E+00  0.93827000000E+00 0.  1.
     999902    2    1    2    0    0 -0.23824037560E-01  0.71184747654E-03 -0.75993604558E-03  0.10200832183E+01  0.10198044437E+01 0.  0.
     999903    2    3    3    0    0  0.43926428186E-01 -0.74628587797E-01 -0.92185666946E-01  0.12956372329E+00  0.28099893126E-01 0.  0.
         14    1    1    2    0    0  0.23824037560E-01 -0.71184747654E-03  0.75993604558E-03  0.23846781655E-01  0.00000000000E+00 0. -1.
     999901    1    3    3    0    0 -0.67750465746E-01  0.75340435274E-01  0.91425730900E-01  0.89051949505E+00  0.88000000000E+00 0. -1.
        -11    1    4    4    0    0  0.26178720593E-01 -0.19602588001E-01 -0.26847402226E-01  0.42315848042E-01  0.51100000000E-03 0. -1.
         11    1    4    4    0    0  0.17747707593E-01 -0.55025999796E-01 -0.65338264719E-01  0.87247875252E-01  0.51100000000E-03 0.  1.
</event>
<event>
 8    1  0.1116841E+005  0.1043930E+01  0.7957747E-01            NaN
         13   -1    0    0    0    0  0.00000000000E+00  0.00000000000E+00  0.74505805969E-08  0.10566000000E+00  0.10566000000E+00 0.  1.
     999900   -1    0    0    0    0 -0.00000000000E+00 -0.00000000000E+00 -0.74505805969E-08  0.93827000000E+00  0.93827000000E+00 0. -1.
     999902    2    1    2    0    0 -0.23688112016E-01 -0.51276486529E-02 -0.43339963323E-02  0.10193088108E+01  0.10190114076E+01 0.  0.
     999903    2    3    3    0    0  0.23944308558E-01 -0.11672139310E+00  0.45141703060E-01  0.12960669433E+00  0.23725689435E-01 0.  0.
         14    1    1    2    0    0  0.23688112016E-01  0.51276486529E-02  0.43339963323E-02  0.24621189163E-01  0.00000000000E+00 0.  1.
     999901    1    3    3    0    0 -0.47632420574E-01  0.11159374445E+00 -0.49475699392E-01  0.88970211651E+00  0.88000000000E+00 0. -1.
        -11    1    4    4    0    0 -0.30121233068E-02 -0.21296893492E-01  0.24752459770E-02  0.21656835477E-01  0.51100000000E-03 0.  1.
         11    1    4    4    0    0  0.26956431865E-01 -0.95424499611E-01  0.42666457083E-01  0.10794985885E+00  0.51100000000E-03 0. -1.
</event>
<event>
 8    1  0.1116841E+005  0.1043930E+01  0.7957747E-01            NaN
         13   -1    0    0    0    0  0.00000000000E+00  0.00000000000E+00  0.74505805969E-08  0.10566000000E+00  0.10566000000E+00 0.  1.
     999900   -1    0    0    0    0 -0.00000000000E+00 -0.00000000000E+00 -0.74505805969E-08  0.93827000000E+00  0.93827000000E+00 0. -1.
     999902    2    1    2    0    0 -0.19633662826E-02 -0.20826632695E-01 -0.81574954770E-02  0.10214767559E+01  0.10212299519E+01 0.  0.
     999903    2    3    3    0    0 -0.32785142349E-01  0.12321874856E+00  0.13846509431E-02  0.12918190203E+00  0.20695917464E-01 0.  0.
         14    1    1    2    0    0  0.19633662826E-02  0.20826632695E-01  0.81574954770E-02  0.22453244064E-01  0.00000000000E+00 0.  1.
     999901    1    3    3    0    0  0.30821776066E-01 -0.14404538125E+00 -0.95421464201E-02  0.89229485390E+00  0.88000000000E+00 0. -1.
        -11    1    4    4    0    0 -0.26013845698E-01  0.59030149917E-01  0.34487601045E-02  0.64602119427E-01  0.51100000000E-03 0. -1.
         11    1    4    4    0    0 -0.67712966513E-02  0.64188598642E-01 -0.20641091613E-02  0.64579782607E-01  0.51100000000E-03 0.  1.
</event>
<event>
 8    1  0.1116841E+005  0.1043930E+01  0.7957747E-01            NaN
         13   -1    0    0    0    0  0.00000000000E+00  0.00000000000E+00  0.74505805969E-08  0.10566000000E+00  0.10566000000E+00 0.  1.
     999900   -1    0    0    0    0 -0.00000000000E+00 -0.00000000000E+00 -0.74505805969E-08  0.93827000000E+00  0.93827000000E+00 0. -1.
     999902    2    1    2    0    0 -0.42879770463E-02  0.22775915987E-01 -0.45476917991E-02  0.10203119858E+01  0.10200385962E+01 0.  0.
     999903    2    3    3    0    0 -0.97663418594E-01 -0.71926320696E-01  0.40147644376E-01  0.12919742533E+00  0.19199021430E-01 0.  0.
         14    1    1    2    0    0  0.42879770463E-02 -0.22775915987E-01  0.45476917991E-02  0.23618014245E-01  0.00000000000E+00 0.  1.
     999901    1    3    3    0    0  0.93375441548E-01  0.94702236683E-01 -0.44695336175E-01  0.89111456042E+00  0.88000000000E+00 0. -1.
        -11    1    4    4    0    0 -0.63713289548E-01 -0.35621481386E-01  0.26386886919E-01  0.77619598836E-01  0.51100000000E-03 0.  1.
         11    1    4    4    0    0 -0.33950129046E-01 -0.36304839310E-01  0.13760757457E-01  0.51577826499E-01  0.51100000000E-03 0. -1.
</event>
<event>
 8    1  0.1116841E+005  0.1043930E+01  0.7957747E-01            NaN
         13   -1    0    0    0    0  0.00000000000E+00  0.00000000000E+00  0.74505805969E-08  0.10566000000E+00  0.10566000000E+00 0.  1.
     999900   -1    0    0    0    0 -0.00000000000E+00 -0.00000000000E+00 -0.74505805969E-08  0.93827000000E+00  0.93827000000E+00 0. -1.
     999902    2    1    2    0    0  0.15064685840E-01 -0.18004738156E-01 -0.25165469853E-02  0.10203196556E+01  0.10200464456E+01 0.  0.
     999903    2    3    3    0    0  0.88264362730E-01 -0.34991807299E-01  0.89957506246E-01  0.13228913597E+00  0.19825192541E-01 0.  0.
         14    1    1    2    0    0 -0.15064685840E-01  0.18004738156E-01  0.25165469853E-02  0.23610344433E-01  0.00000000000E+00 0. -1.
     999901    1    3    3    0    0 -0.73199676890E-01  0.16987069143E-01 -0.92474053232E-01  0.88803051960E+00  0.88000000000E+00 0. -1.
        -11    1    4    4    0    0  0.32481029203E-01 -0.72784589392E-02  0.42467244537E-01  0.53960366957E-01  0.51100000000E-03 0. -1.
         11    1    4    4    0    0  0.55783333527E-01 -0.27713348360E-01  0.47490261709E-01  0.78328769012E-01  0.51100000000E-03 0.  1.
</event>
<event>
 8    1  0.1116841E+005  0.1043930E+01  0.7957747E-01            NaN
         13   -1    0    0    0    0  0.00000000000E+00  0.00000000000E+00  0.74505805969E-08  0.10566000000E+00  0.10566000000E+00 0.  1.
     999900   -1    0    0    0    0 -0.00000000000E+00 -0.00000000000E+00 -0.74505805969E-08  0.93827000000E+00  0.93827000000E+00 0.  1.
     999902    2    1    2    0    0  0.21862321425E-01  0.98728494406E-02  0.15851647170E-02  0.10198894717E+01  0.10196060943E+01 0.  0.
     999903    2    3    3    0    0 -0.85684254815E-01  0.93169241057E-01 -0.16881338103E-01  0.12924612745E+00  0.19931956305E-01 0.  0.
         14    1    1    2    0    0 -0.21862321425E-01 -0.98728494406E-02 -0.15851647170E-02  0.24040528308E-01  0.00000000000E+00 0.  1.
     999901    1    3    3    0    0  0.10754657624E+00 -0.83296391617E-01  0.18466502820E-01  0.89064334424E+00  0.88000000000E+00 0. -1.
        -11    1    4    4    0    0 -0.53598554288E-01  0.62382213024E-01 -0.20074006673E-01  0.84661516573E-01  0.51100000000E-03 0. -1.
         11    1    4    4    0    0 -0.32085700526E-01  0.30787028034E-01  0.31926685691E-02  0.44584610876E-01  0.51100000000E-03 0.  1.
</event>
<event>
 8    1  0.1116841E+005  0.1043930E+01  0.7957747E-01            NaN
         13   -1    0    0    0    0  0.00000000000E+00  0.00000000000E+00  0.74505805969E-08  0.10566000000E+00  0.10566000000E+00 0.  1.
     999900   -1    0    0    0    0 -0.00000000000E+00 -0.00000000000E+00 -0.74505805969E-08  0.93827000000E+00  0.93827000000E+00 0.  1.
     999902    2    1    2    0    0 -0.16529045593E-02  0.14737297679E-01 -0.17699898927E-01  0.10208387363E+01  0.10205775419E+01 0.  0.
     999903    2    3    3    0    0 -0.64772956459E-01 -0.60569403751E-01 -0.95807843513E-01  0.13193149074E+00  0.19041712416E-01 0.  0.
         14    1    1    2    0    0  0.16529045593E-02 -0.14737297679E-01  0.17699898927E-01  0.23091263681E-01  0.00000000000E+00 0.  1.
     999901    1    3    3    0    0  0.63120051899E-01  0.75306701430E-01  0.78107944585E-01  0.88890724558E+00  0.88000000000E+00 0. -1.
        -11    1    4    4    0    0 -0.24247497052E-02 -0.93774369706E-02 -0.14050160100E-01  0.17072898263E-01  0.51100000000E-03 0.  1.
         11    1    4    4    0    0 -0.62348206753E-01 -0.51191966781E-01 -0.81757683412E-01  0.11485859248E+00  0.51100000000E-03 0. -1.
</event>
<event>
 8    1  0.1116841E+005  0.1043930E+01  0.7957747E-01            NaN
         13   -1    0    0    0    0  0.00000000000E+00  0.00000000000E+00  0.74505805969E-08  0.10566000000E+00  0.10566000000E+00 0. -1.
     999900   -1    0    0    0    0 -0.00000000000E+00 -0.00000000000E+00 -0.74505805969E-08  0.93827000000E+00  0.93827000000E+00 0.  1.
     999902    2    1    2    0    0  0.17378659479E-01 -0.94952550426E-02 -0.92964389989E-02  0.10220530383E+01  0.10218188742E+01 0.  0.
     999903    2    3    3    0    0  0.67924938990E-01 -0.43557346193E-01 -0.10618238193E+00  0.13463992238E+00  0.18497857261E-01 0.  0.
         14    1    1    2    0    0 -0.17378659479E-01  0.94952550426E-02  0.92964389989E-02  0.21876961664E-01  0.00000000000E+00 0.  1.
     999901    1    3    3    0    0 -0.50546279511E-01  0.34062091150E-01  0.96885942930E-01  0.88741311595E+00  0.88000000000E+00 0. -1.
        -11    1    4    4    0    0  0.16187898831E-01 -0.94725205347E-02 -0.13336675882E-01  0.23019660259E-01  0.51100000000E-03 0.  1.
         11    1    4    4    0    0  0.51737040160E-01 -0.34084825658E-01 -0.92845706046E-01  0.11162026213E+00  0.51100000000E-03 0. -1.
</event>
<event>
 8    1  0.1116841E+005  0.1043930E+01  0.7957747E-01            NaN
         13   -1    0    0    0    0  0.00000000000E+00  0.00000000000E+00  0.74505805969E-08  0.10566000000E+00  0.10566000000E+00 0.  1.
     999900   -1    0    0    0    0 -0.00000000000E+00 -0.00000000000E+00 -0.74505805969E-08  0.93827000000E+00  0.93827000000E+00 0. -1.
     999902    2    1    2    0    0  0.53725255829E-02 -0.28044452911E-02  0.21800957523E-01  0.10213023467E+01  0.10210516504E+01 0.  0.
     999903    2    3    3    0    0 -0.18200514005E-01  0.53570739455E-01 -0.11388532229E+00  0.12880886428E+00  0.20512777680E-01 0.  0.
         14    1    1    2    0    0 -0.53725255829E-02  0.28044452911E-02 -0.21800957523E-01  0.22627653291E-01  0.00000000000E+00 0. -1.
     999901    1    3    3    0    0  0.23573039588E-01 -0.56375184746E-01  0.13568627981E+00  0.89249348243E+00  0.88000000000E+00 0.  1.
        -11    1    4    4    0    0 -0.41328889237E-02  0.21826626665E-01 -0.66127439546E-01  0.69760890077E-01  0.51100000000E-03 0. -1.
         11    1    4    4    0    0 -0.14067625082E-01  0.31744112790E-01 -0.47757882743E-01  0.59047974202E-01  0.51100000000E-03 0.  1.
</event>
<event>
 8    1  0.1116841E+005  0.1043930E+01  0.7957747E-01            NaN
         13   -1    0    0    0    0  0.00000000000E+00  0.00000000000E+00  0.74505805969E-08  0.10566000000E+00  0.10566000000E+00 0. -1.
     999900   -1    0    0    0    0 -0.00000000000E+00 -0.00000000000E+00 -0.74505805969E-08  0.93827000000E+00  0.93827000000E+00 0.  1.
     999902    2    1    2    0    0 -0.32099526488E-02 -0.91167292895E-02  0.21195543144E-01  0.10206347301E+01  0.10203688464E+01 0.  0.
     999903    2    3    3    0    0 -0.87115366180E-01 -0.21598264763E-01 -0.91163630259E-01  0.12944423928E+00  0.19734019724E-01 0.  0.
         14    1    1    2    0    0  0.32099526488E-02  0.91167292895E-02 -0.21195543144E-01  0.23295269866E-01  0.00000000000E+00 0.  1.
     999901    1    3    3    0    0  0.83905413531E-01  0.12481535473E-01  0.11235917340E+00  0.89119049086E+00  0.88000000000E+00 0. -1.
        -11    1    4    4    0    0 -0.65466449653E-01 -0.12078692670E-01 -0.55627788376E-01  0.86755188937E-01  0.51100000000E-03 0. -1.
         11    1    4    4    0    0 -0.21648916527E-01 -0.95195720925E-02 -0.35535841882E-01  0.42689050340E-01  0.51100000000E-03 0.  1.
</event>
<event>
 8    1  0.1116841E+005  0.1043930E+01  0.7957747E-01            NaN
         13   -1    0    0    0    0  0.00000000000E+00  0.00000000000E+00  0.74505805969E-08  0.10566000000E+00  0.10566000000E+00 0. -1.
     999900   -1    0    0    0    0 -0.00000000000E+00 -0.00000000000E+00 -0.74505805969E-08  0.93827000000E+00  0.93827000000E+00 0. -1.
     999902    2    1    2    0    0 -0.67973480872E-02  0.23791514804E-01 -0.26898638398E-02  0.10190407355E+01  0.10187367399E+01 0.  0.
     999903    2    3    3    0    0 -0.27495847160E-01  0.11580821148E+00  0.54046246428E-01  0.13218421584E+00  0.19598640463E-01 0.  0.
         14    1    1    2    0    0  0.67973480872E-02 -0.23791514804E-01  0.26898638398E-02  0.24889264456E-01  0.00000000000E+00 0. -1.
     999901    1    3    3    0    0  0.20698499073E-01 -0.92016696673E-01 -0.56736110268E-01  0.88685651970E+00  0.88000000000E+00 0.  1.
        -11    1    4    4    0    0 -0.49232928218E-02  0.57939589282E-01  0.21020925631E-01  0.61833447694E-01  0.51100000000E-03 0. -1.
         11    1    4    4    0    0 -0.22572554338E-01  0.57868622195E-01  0.33025320797E-01  0.70350768147E-01  0.51100000000E-03 0.  1.
</event>
<event>
 8    1  0.1116841E+005  0.1043930E+01  0.7957747E-01            NaN
         13   -1    0    0    0    0  0.00000000000E+00  0.00000000000E+00  0.74505805969E-08  0.10566000000E+00  0.10566000000E+00 0.  1.
     999900   -1    0    0    0    0 -0.00000000000E+00 -0.00000000000E+00 -0.74505805969E-08  0.93827000000E+00  0.93827000000E+00 0. -1.
     999902    2    1    2    0    0  0.11983524205E-01  0.14357807897E-01  0.14435833150E-01  0.10203049121E+01  0.10200313568E+01 0.  0.
     999903    2    3    3    0    0  0.85450334099E-02  0.12997207192E+00 -0.12262429690E-01  0.13233459811E+00  0.19907827640E-01 0.  0.
         14    1    1    2    0    0 -0.11983524205E-01 -0.14357807897E-01 -0.14435833150E-01  0.23625087909E-01  0.00000000000E+00 0. -1.
     999901    1    3    3    0    0  0.34384907954E-02 -0.11561426402E+00  0.26698262840E-01  0.88797031398E+00  0.88000000000E+00 0.  1.
        -11    1    4    4    0    0  0.11586211787E-01  0.79731467896E-01 -0.18477016417E-03  0.80570730030E-01  0.51100000000E-03 0. -1.
         11    1    4    4    0    0 -0.30411783775E-02  0.50240604023E-01 -0.12077659526E-01  0.51763868085E-01  0.51100000000E-03 0.  1.
</event>
<event>
 8    1  0.1116841E+005  0.1043930E+01  0.7957747E-01            NaN
         13   -1    0    0    0    0  0.00000000000E+00  0.00000000000E+00  0.74505805969E-08  0.10566000000E+00  0.10566000000E+00 0. -1.
     999900   -1    0    0    0    0 -0.00000000000E+00 -0.00000000000E+00 -0.74505805969E-08  0.93827000000E+00  0.93827000000E+00 0. -1.
     999902    2    1    2    0    0 -0.20837021689E-02 -0.10034222247E-02  0.23432700931E-01  0.10203834473E+01  0.10201117289E+01 0.  0.
     999903    2    3    3    0    0  0.51597747849E-01  0.87651638680E-01 -0.76262944404E-01  0.12871050300E+00  0.20130065774E-01 0.  0.
         14    1    1    2    0    0  0.20837021689E-02  0.10034222247E-02 -0.23432700931E-01  0.23546552695E-01  0.00000000000E+00 0.  1.
     999901    1    3    3    0    0 -0.53681450018E-01 -0.88655060905E-01  0.99695645335E-01  0.89167294430E+00  0.88000000000E+00 0.  1.
        -11    1    4    4    0    0 -0.95986367383E-03  0.70638580592E-02 -0.28765094513E-02  0.77042103149E-02  0.51100000000E-03 0.  1.
         11    1    4    4    0    0  0.52557611522E-01  0.80587780621E-01 -0.73386434952E-01  0.12100629269E+00  0.51100000000E-03 0. -1.
</event>
<event>
 8    1  0.1116841E+005  0.1043930E+01  0.7957747E-01            NaN
         13   -1    0    0    0    0  0.00000000000E+00  0.00000000000E+00  0.74505805969E-08  0.10566000000E+00  0.10566000000E+00 0. -1.
     999900   -1    0    0    0    0 -0.00000000000E+00 -0.00000000000E+00 -0.74505805969E-08  0.93827000000E+00  0.93827000000E+00 0. -1.
     999902    2    1    2    0    0 -0.20157981261E-01 -0.12953991704E-01  0.68940515485E-02  0.10189965274E+01  0.10186914375E+01 0.  0.
     999903    2    3    3    0    0 -0.12041238395E+00  0.26223943690E-01  0.41062193557E-01  0.13177991471E+00  0.22203710304E-01 0.  0.
         14    1    1    2    0    0  0.20157981261E-01  0.12953991704E-01 -0.68940515485E-02  0.24933472609E-01  0.00000000000E+00 0.  1.
     999901    1    3    3    0    0  0.10025440269E+00 -0.39177935394E-01 -0.34168142009E-01  0.88721661268E+00  0.88000000000E+00 0.  1.
        -11    1    4    4    0    0 -0.16702430889E-01  0.48014511770E-02 -0.19137202816E-02  0.17491385803E-01  0.51100000000E-03 0. -1.
         11    1    4    4    0    0 -0.10370995306E+00  0.21422492513E-01  0.42975913839E-01  0.11428852891E+00  0.51100000000E-03 0.  1.
</event>
<event>
 8    1  0.1116841E+005  0.1043930E+01  0.7957747E-01            NaN
         13   -1    0    0    0    0  0.00000000000E+00  0.00000000000E+00  0.74505805969E-08  0.10566000000E+00  0.10566000000E+00 0.  1.
     999900   -1    0    0    0    0 -0.00000000000E+00 -0.00000000000E+00 -0.74505805969E-08  0.93827000000E+00  0.93827000000E+00 0. -1.
     999902    2    1    2    0    0  0.18458196172E-01 -0.14879582545E-01  0.27112180657E-02  0.10200666874E+01  0.10197875216E+01 0.  0.
     999903    2    3    3    0    0  0.62930724530E-02  0.11363345183E+00  0.57082412495E-01  0.12898879129E+00  0.20677096623E-01 0.  0.
         14    1    1    2    0    0 -0.18458196172E-01  0.14879582545E-01 -0.27112180657E-02  0.23863312554E-01  0.00000000000E+00 0. -1.
     999901    1    3    3    0    0  0.12165123719E-01 -0.12851303438E+00 -0.54371194429E-01  0.89107789616E+00  0.88000000000E+00 0. -1.
        -11    1    4    4    0    0  0.10492716305E-02  0.69972342266E-01  0.45631006656E-01  0.83544476434E-01  0.51100000000E-03 0.  1.
         11    1    4    4    0    0  0.52438008226E-02  0.43661109568E-01  0.11451405839E-01  0.45444314853E-01  0.51100000000E-03 0. -1.
</event>
<event>
 8    1  0.1116841E+005  0.1043930E+01  0.7957747E-01            NaN
         13   -1    0    0    0    0  0.00000000000E+00  0.00000000000E+00  0.74505805969E-08  0.10566000000E+00  0.10566000000E+00 0.  1.
     999900   -1    0    0    0    0 -0.00000000000E+00 -0.00000000000E+00 -0.74505805969E-08  0.93827000000E+00  0.93827000000E+00 0.  1.
     999902    2    1    2    0    0 -0.11017887470E-01  0.12488337824E-01  0.16801126432E-01  0.10202734940E+01  0.10199992021E+01 0.  0.
     999903    2    3    3    0    0 -0.10923685732E+00 -0.81124127331E-03 -0.68873931790E-01  0.13057463460E+00  0.19307190691E-01 0.  0.
         14    1    1    2    0    0  0.11017887470E-01 -0.12488337824E-01 -0.16801126432E-01  0.23656505983E-01  0.00000000000E+00 0. -1.
     999901    1    3    3    0    0  0.98218969847E-01  0.13299579097E-01  0.85675058222E-01  0.88969885941E+00  0.88000000000E+00 0.  1.
        -11    1    4    4    0    0 -0.68918986158E-01 -0.37533041029E-02 -0.53470485790E-01  0.87311327538E-01  0.51100000000E-03 0.  1.
         11    1    4    4    0    0 -0.40317871160E-01  0.29420628296E-02 -0.15403445999E-01  0.43263307065E-01  0.51100000000E-03 0. -1.
</event>
<event>
 8    1  0.1116841E+005  0.1043930E+01  0.7957747E-01            NaN
         13   -1    0    0    0    0  0.00000000000E+00  0.00000000000E+00  0.74505805969E-08  0.10566000000E+00  0.10566000000E+00 0.  1.
     999900   -1    0    0    0    0 -0.00000000000E+00 -0.00000000000E+00 -0.74505805969E-08  0.93827000000E+00  0.93827000000E+00 0. -1.
     999902    2    1    2    0    0  0.22312512863E-03  0.14331996867E-01 -0.19071226951E-01  0.10200727660E+01  0.10197937440E+01 0.  0.
     999903    2    3    3    0    0 -0.66261308940E-01 -0.10087119363E+00 -0.42869428884E-01  0.12975916419E+00  0.20834922406E-01 0.  0.
         14    1    1    2    0    0 -0.22312512863E-03 -0.14331996867E-01  0.19071226951E-01  0.23857234048E-01  0.00000000000E+00 0.  1.
     999901    1    3    3    0    0  0.66484434069E-01  0.11520319049E+00  0.23798201933E-01  0.89031360177E+00  0.88000000000E+00 0. -1.
        -11    1    4    4    0    0 -0.36803303616E-02 -0.92762337025E-02  0.18292920555E-02  0.10158778160E-01  0.51100000000E-03 0.  1.
         11    1    4    4    0    0 -0.62580978578E-01 -0.91594959923E-01 -0.44698720940E-01  0.11960038603E+00  0.51100000000E-03 0. -1.
</event>
<event>
 8    1  0.1116841E+005  0.1043930E+01  0.7957747E-01            NaN
         13   -1    0    0    0    0  0.00000000000E+00  0.00000000000E+00  0.74505805969E-08  0.10566000000E+00  0.10566000000E+00 0. -1.
     999900   -1    0    0    0    0 -0.00000000000E+00 -0.00000000000E+00 -0.74505805969E-08  0.93827000000E+00  0.93827000000E+00 0. -1.
     999902    2    1    2    0    0 -0.18338939609E-01  0.32129728385E-02  0.13836978988E-01  0.10207329767E+01  0.10204693567E+01 0.  0.
     999903    2    3    3    0    0  0.10015172672E+00 -0.13984779995E-01 -0.75693956870E-01  0.12812354973E+00  0.21450558331E-01 0.  0.
         14    1    1    2    0    0  0.18338939609E-01 -0.32129728385E-02 -0.13836978988E-01  0.23197023257E-01  0.00000000000E+00 0.  1.
     999901    1    3    3    0    0 -0.11849066633E+00  0.17197752833E-01  0.89530935858E-01  0.89260942701E+00  0.88000000000E+00 0.  1.
        -11    1    4    4    0    0  0.36102042638E-01  0.11455517250E-02 -0.37316834117E-01  0.51937240983E-01  0.51100000000E-03 0.  1.
         11    1    4    4    0    0  0.64049684085E-01 -0.15130331720E-01 -0.38377122753E-01  0.76186308751E-01  0.51100000000E-03 0. -1.
</event>
<event>
 8    1  0.1116841E+005  0.1043930E+01  0.7957747E-01            NaN
         13   -1    0    0    0    0  0.00000000000E+00  0.00000000000E+00  0.74505805969E-08  0.10566000000E+00  0.10566000000E+00 0. -1.
     999900   -1    0    0    0    0 -0.00000000000E+00 -0.00000000000E+00 -0.74505805969E-08  0.93827000000E+00  0.93827000000E+00 0. -1.
     999902    2    1    2    0    0  0.16596182435E-01 -0.15672117133E-01  0.44494684991E-02  0.10206738976E+01  0.10204089176E+01 0.  0.
     999903    2    3    3    0    0  0.73200431283E-01 -0.24827431783E-01 -0.10583211819E+00  0.13193890388E+00  0.15255576278E-01 0.  0.
         14    1    1    2    0    0 -0.16596182435E-01  0.15672117133E-01 -0.44494684991E-02  0.23256102356E-01  0.00000000000E+00 0. -1.
     999901    1    3    3    0    0 -0.56604248848E-01  0.91553146495E-02  0.11028158669E+00  0.88873499376E+00  0.88000000000E+00 0.  1.
        -11    1    4    4    0    0  0.37258873446E-01 -0.20632326882E-01 -0.56479042461E-01  0.70739380272E-01  0.51100000000E-03 0.  1.
         11    1    4    4    0    0  0.35941557837E-01 -0.41951049003E-02 -0.49353075732E-01  0.61199523610E-01  0.51100000000E-03 0. -1.
</event>
<event>
 8    1  0.1116841E+005  0.1043930E+01  0.7957747E-01            NaN
         13   -1    0    0    0    0  0.00000000000E+00  0.00000000000E+00  0.74505805969E-08  0.10566000000E+00  0.10566000000E+00 0.  1.
     999900   -1    0    0    0    0 -0.00000000000E+00 -0.00000000000E+00 -0.74505805969E-08  0.93827000000E+00  0.93827000000E+00 0. -1.
     999902    2    1    2    0    0 -0.44179140289E-02 -0.20561830514E-01  0.11589507720E-01  0.10199170134E+01  0.10196342926E+01 0.  0.
     999903    2    3    3    0    0  0.66035979804E-01 -0.82570491714E-01 -0.74304105318E-01  0.13076767945E+00  0.20011226629E-01 0.  0.
         14    1    1    2    0    0  0.44179140289E-02  0.20561830514E-01 -0.11589507720E-01  0.24012986646E-01  0.00000000000E+00 0.  1.
     999901    1    3    3    0    0 -0.70453893833E-01  0.62008661200E-01  0.85893613038E-01  0.88914933390E+00  0.88000000000E+00 0.  1.
        -11    1    4    4    0    0  0.45205960912E-01 -0.65821400182E-01 -0.47503529397E-01  0.92913303946E-01  0.51100000000E-03 0.  1.
         11    1    4    4    0    0  0.20830018892E-01 -0.16749091532E-01 -0.26800575921E-01  0.37854375505E-01  0.51100000000E-03 0. -1.
</event>
<event>
 8    1  0.1116841E+005  0.1043930E+01  0.7957747E-01            NaN
         13   -1    0    0    0    0  0.00000000000E+00  0.00000000000E+00  0.74505805969E-08  0.10566000000E+00  0.10566000000E+00 0. -1.
     999900   -1    0    0    0    0 -0.00000000000E+00 -0.00000000000E+00 -0.74505805969E-08  0.93827000000E+00  0.93827000000E+00 0.  1.
     999902    2    1    2    0    0 -0.41685173377E-02 -0.15541343853E-01 -0.19093370372E-01  0.10189606849E+01  0.10186547063E+01 0.  0.
     999903    2    3    3    0    0  0.47792907399E-01 -0.45219335176E-01  0.10776179982E+00  0.12785294334E+00  0.20120122966E-01 0.  0.
         14    1    1    2    0    0  0.41685173377E-02  0.15541343853E-01  0.19093370372E-01  0.24969315122E-01  0.00000000000E+00 0. -1.
     999901    1    3    3    0    0 -0.51961424737E-01  0.29677991323E-01 -0.12685517019E+00  0.89110774154E+00  0.88000000000E+00 0.  1.
        -11    1    4    4    0    0  0.73642151987E-02 -0.13760420796E-01  0.39740657616E-01  0.42698499210E-01  0.51100000000E-03 0.  1.
         11    1    4    4    0    0  0.40428692200E-01 -0.31458914380E-01  0.68021142203E-01  0.85154444127E-01  0.51100000000E-03 0. -1.
</event>
<event>
 7    1  0.1116841E+005  0.1043930E+01  0.7957747E-01            NaN
         13   -1    0    0    0    0  0.00000000000E+00  0.00000000000E+00  0.74505805969E-08  0.10566000000E+00  0.10566000000E+00 0.  1.
     999900   -1    0    0    0    0 -0.00000000000E+00 -0.00000000000E+00 -0.74505805969E-08  0.93827000000E+00  0.93827000000E+00 0. -1.
     999902    2    1    2    0    0 -0.21781981772E-01 -0.76657938870E-02  0.75885667525E-03  0.10208259962E+01  0.10205645103E+01 0.  0.
         14    1    1    2    0    0  0.21781981772E-01  0.76657938870E-02 -0.75885667525E-03  0.23104003750E-01  0.00000000000E+00 0. -1.
     999901    1    3    3    0    0 -0.37860386821E-01  0.94895911801E-01  0.73939272001E-01  0.88899137167E+00  0.88000000000E+00 0.  1.
        -11    1    3    3    0    0 -0.17910819503E-02 -0.48397784960E-01 -0.51814435507E-01  0.70926373173E-01  0.51100000000E-03 0.  1.
         11    1    3    3    0    0  0.17869487000E-01 -0.54163920729E-01 -0.21365979819E-01  0.60908251403E-01  0.51100000000E-03 0. -1.
</event>
<event>
 8    1  0.1116841E+005  0.1043930E+01  0.7957747E-01            NaN
         13   -1    0    0    0    0  0.00000000000E+00  0.00000000000E+00  0.74505805969E-08  0.10566000000E+00  0.10566000000E+00 0.  1.
     999900   -1    0    0    0    0 -0.00000000000E+00 -0.00000000000E+00 -0.74505805969E-08  0.93827000000E+00  0.93827000000E+00 0.  1.
     999902    2    1    2    0    0 -0.67237917136E-02 -0.71355693731E-02 -0.22784849471E-01  0.10191252607E+01  0.10188233517E+01 0.  0.
     999903    2    3    3    0    0 -0.36708941215E-01  0.99919790249E-01 -0.72984848628E-01  0.13071094345E+00  0.20665230710E-01 0.  0.
         14    1    1    2    0    0  0.67237917136E-02  0.71355693731E-02  0.22784849471E-01  0.24804739279E-01  0.00000000000E+00 0.  1.
     999901    1    3    3    0    0  0.29985149501E-01 -0.10705535962E+00  0.50199999157E-01  0.88841431727E+00  0.88000000000E+00 0. -1.
        -11    1    4    4    0    0 -0.32948851061E-01  0.86205568329E-01 -0.53802259945E-01  0.10682682759E+00  0.51100000000E-03 0. -1.
         11    1    4    4    0    0 -0.37600901542E-02  0.13714221919E-01 -0.19182588682E-01  0.23884115859E-01  0.51100000000E-03 0.  1.
</event>
<event>
 8    1  0.1116841E+005  0.1043930E+01  0.7957747E-01            NaN
         13   -1    0    0    0    0  0.00000000000E+00  0.00000000000E+00  0.74505805969E-08  0.10566000000E+00  0.10566000000E+00 0. -1.
     999900   -1    0    0    0    0 -0.00000000000E+00 -0.00000000000E+00 -0.74505805969E-08  0.93827000000E+00  0.93827000000E+00 0.  1.
     999902    2    1    2    0    0  0.53875566765E-03 -0.23584603005E-01 -0.50489297177E-02  0.10198050037E+01  0.10195196075E+01 0.  0.
     999903    2    3    3    0    0  0.96469359618E-01  0.81871157499E-01 -0.53391400984E-02  0.12833224334E+00  0.20771001118E-01 0.  0.
         14    1    1    2    0    0 -0.53875566765E-03  0.23584603005E-01  0.50489297177E-02  0.24124996329E-01  0.00000000000E+00 0. -1.
     999901    1    3    3    0    0 -0.95930603950E-01 -0.10545576050E+00  0.29021038067E-03  0.89147276034E+00  0.88000000000E+00 0.  1.
        -11    1    4    4    0    0  0.38316654413E-01  0.20696492931E-01 -0.57172311179E-02  0.43925603897E-01  0.51100000000E-03 0. -1.
         11    1    4    4    0    0  0.58152705205E-01  0.61174664568E-01  0.37809101951E-03  0.84406639439E-01  0.51100000000E-03 0.  1.
</event>
<event>
 8    1  0.1116841E+005  0.1043930E+01  0.7957747E-01            NaN
         13   -1    0    0    0    0  0.00000000000E+00  0.00000000000E+00  0.74505805969E-08  0.10566000000E+00  0.10566000000E+00 0. -1.
     999900   -1    0    0    0    0 -0.00000000000E+00 -0.00000000000E+00 -0.74505805969E-08  0.93827000000E+00  0.93827000000E+00 0. -1.
     999902    2    1    2    0    0 -0.11233911022E-01 -0.20981668926E-02  0.20889746011E-01  0.10201185626E+01  0.10198406235E+01 0.  0.
     999903    2    3    3    0    0 -0.10194415198E+00  0.77031994162E-01  0.26625314331E-01  0.13190528478E+00  0.19067211189E-01 0.  0.
         14    1    1    2    0    0  0.11233911022E-01  0.20981668926E-02 -0.20889746011E-01  0.23811437368E-01  0.00000000000E+00 0.  1.
     999901    1    3    3    0    0  0.90710240960E-01 -0.79130161054E-01 -0.57355683207E-02  0.88821327785E+00  0.88000000000E+00 0. -1.
        -11    1    4    4    0    0 -0.22238370718E-01  0.81966293832E-02  0.23132364386E-02  0.23818943076E-01  0.51100000000E-03 0. -1.
         11    1    4    4    0    0 -0.79705781263E-01  0.68835364778E-01  0.24312077893E-01  0.10808634171E+00  0.51100000000E-03 0.  1.
</event>
<event>
 8    1  0.1116841E+005  0.1043930E+01  0.7957747E-01            NaN
         13   -1    0    0    0    0  0.00000000000E+00  0.00000000000E+00  0.74505805969E-08  0.10566000000E+00  0.10566000000E+00 0.  1.
     999900   -1    0    0    0    0 -0.00000000000E+00 -0.00000000000E+00 -0.74505805969E-08  0.93827000000E+00  0.93827000000E+00 0. -1.
     999902    2    1    2    0    0 -0.48818236455E-02  0.11795663861E-01 -0.18948872352E-01  0.10210820318E+01  0.10208263741E+01 0.  0.
     999903    2    3    3    0    0 -0.59066216515E-01  0.88680737691E-01 -0.78932746167E-01  0.13403900683E+00  0.19570022059E-01 0.  0.
         14    1    1    2    0    0  0.48818236455E-02 -0.11795663861E-01  0.18948872352E-01  0.22847968213E-01  0.00000000000E+00 0. -1.
     999901    1    3    3    0    0  0.54184392870E-01 -0.76885073830E-01  0.59983873815E-01  0.88704302496E+00  0.88000000000E+00 0.  1.
        -11    1    4    4    0    0 -0.15746167689E-01  0.12193115418E-01 -0.97746571979E-02  0.22190513848E-01  0.51100000000E-03 0. -1.
         11    1    4    4    0    0 -0.43320048826E-01  0.76487622274E-01 -0.69158088969E-01  0.11184849298E+00  0.51100000000E-03 0.  1.
</event>
<event>
 8    1  0.1116841E+005  0.1043930E+01  0.7957747E-01            NaN
         13   -1    0    0    0    0  0.00000000000E+00  0.00000000000E+00  0.74505805969E-08  0.10566000000E+00  0.10566000000E+00 0.  1.
     999900   -1    0    0    0    0 -0.00000000000E+00 -0.00000000000E+00 -0.74505805969E-08  0.93827000000E+00  0.93827000000E+00 0. -1.
     999902    2    1    2    0    0 -0.11804428110E-01  0.92834454640E-02  0.18175380845E-01  0.10203530759E+01  0.10200806478E+01 0.  0.
     999903    2    3    3    0    0 -0.41866696887E-01  0.12832911259E-01  0.12445695700E+00  0.13344151763E+00  0.19990011503E-01 0.  0.
         14    1    1    2    0    0  0.11804428110E-01 -0.92834454640E-02 -0.18175380845E-01  0.23576924132E-01  0.00000000000E+00 0. -1.
     999901    1    3    3    0    0  0.30062268777E-01 -0.35494657946E-02 -0.10628157616E+00  0.88691155824E+00  0.88000000000E+00 0. -1.
        -11    1    4    4    0    0 -0.15244605986E-01 -0.42400577760E-02  0.52603168895E-01  0.54933874799E-01  0.51100000000E-03 0.  1.
         11    1    4    4    0    0 -0.26622090901E-01  0.17072969035E-01  0.71853788109E-01  0.78507642827E-01  0.51100000000E-03 0. -1.
</event>
<event>
 8    1  0.1116841E+005  0.1043930E+01  0.7957747E-01            NaN
         13   -1    0    0    0    0  0.00000000000E+00  0.00000000000E+00  0.74505805969E-08  0.10566000000E+00  0.10566000000E+00 0. -1.
     999900   -1    0    0    0    0 -0.00000000000E+00 -0.00000000000E+00 -0.74505805969E-08  0.93827000000E+00  0.93827000000E+00 0.  1.
     999902    2    1    2    0    0 -0.98527723952E-02 -0.15327975888E-01  0.13756142191E-01  0.10210989813E+01  0.10208437070E+01 0.  0.
     999903    2    3    3    0    0 -0.72476371832E-01 -0.69696313542E-01 -0.83044783741E-01  0.13191505731E+00  0.19868206868E-01 0.  0.
         14    1    1    2    0    0  0.98527723952E-02  0.15327975888E-01 -0.13756142191E-01  0.22831018739E-01  0.00000000000E+00 0. -1.
     999901    1    3    3    0    0  0.62623599437E-01  0.54368337655E-01  0.96800925932E-01  0.88918392395E+00  0.88000000000E+00 0. -1.
        -11    1    4    4    0    0 -0.40557125539E-01 -0.37760992865E-01 -0.58253843501E-01  0.80402390623E-01  0.51100000000E-03 0.  1.
         11    1    4    4    0    0 -0.31919246292E-01 -0.31935320677E-01 -0.24790940240E-01  0.51512666691E-01  0.51100000000E-03 0. -1.
</event>
<event>
 8    1  0.1116841E+005  0.1043930E+01  0.7957747E-01            NaN
         13   -1    0    0    0    0  0.00000000000E+00  0.00000000000E+00  0.74505805969E-08  0.10566000000E+00  0.10566000000E+00 0. -1.
     999900   -1    0    0    0    0 -0.00000000000E+00 -0.00000000000E+00 -0.74505805969E-08  0.93827000000E+00  0.93827000000E+00 0. -1.
     999902    2    1    2    0    0  0.20288630493E-01  0.18057525396E-03 -0.10936213088E-01  0.10208808809E+01  0.10206206499E+01 0.  0.
     999903    2    3    3    0    0 -0.86841499161E-01  0.90095739917E-01 -0.27820275586E-01  0.12967570077E+00  0.19573740298E-01 0.  0.
         14    1    1    2    0    0 -0.20288630493E-01 -0.18057525396E-03  0.10936213088E-01  0.23049119103E-01  0.00000000000E+00 0. -1.
     999901    1    3    3    0    0  0.10713012965E+00 -0.89915164663E-01  0.16884062498E-01  0.89120518013E+00  0.88000000000E+00 0. -1.
        -11    1    4    4    0    0 -0.36149895540E-01  0.44237751590E-01 -0.21432062653E-01  0.61019570991E-01  0.51100000000E-03 0. -1.
         11    1    4    4    0    0 -0.50691603621E-01  0.45857988327E-01 -0.63882129328E-02  0.68656129781E-01  0.51100000000E-03 0.  1.
</event>
<event>
 8    1  0.1116841E+005  0.1043930E+01  0.7957747E-01            NaN
         13   -1    0    0    0    0  0.00000000000E+00  0.00000000000E+00  0.74505805969E-08  0.10566000000E+00  0.10566000000E+00 0.  1.
     999900   -1    0    0    0    0 -0.00000000000E+00 -0.00000000000E+00 -0.74505805969E-08  0.93827000000E+00  0.93827000000E+00 0.  1.
     999902    2    1    2    0    0 -0.13920372145E-01  0.15830297389E-01 -0.52374258691E-02  0.10222089110E+01  0.10219781074E+01 0.  0.
     999903    2    3    3    0    0 -0.16667077197E-01  0.13212598962E+00 -0.59606008925E-02  0.13455314701E+00  0.18274353987E-01 0.  0.
         14    1    1    2    0    0  0.13920372145E-01 -0.15830297389E-01  0.52374258691E-02  0.21721088965E-01  0.00000000000E+00 0. -1.
     999901    1    3    3    0    0  0.27467050515E-02 -0.11629569223E+00  0.72317502335E-03  0.88765576402E+00  0.88000000000E+00 0.  1.
        -11    1    4    4    0    0 -0.10786517636E-01  0.27049888490E-01 -0.28590132875E-02  0.29265688237E-01  0.51100000000E-03 0.  1.
         11    1    4    4    0    0 -0.58805595604E-02  0.10507610113E+00 -0.31015876050E-02  0.10528745878E+00  0.51100000000E-03 0. -1.
</event>
<event>
 8    1  0.1116841E+005  0.1043930E+01  0.7957747E-01            NaN
         13   -1    0    0    0    0  0.00000000000E+00  0.00000000000E+00  0.74505805969E-08  0.10566000000E+00  0.10566000000E+00 0. -1.
     999900   -1    0    0    0    0 -0.00000000000E+00 -0.00000000000E+00 -0.74505805969E-08  0.93827000000E+00  0.93827000000E+00 0.  1.
     999902    2    1    2    0    0 -0.78926627642E-02  0.19600595939E-01 -0.10829438541E-01  0.10201864909E+01  0.10199101539E+01 0.  0.
     999903    2    3    3    0    0  0.30180316583E-01  0.75298380135E-01 -0.10325221657E+00  0.13277803654E+00  0.19705055193E-01 0.  0.
         14    1    1    2    0    0  0.78926627642E-02 -0.19600595939E-01  0.10829438541E-01  0.23743509129E-01  0.00000000000E+00 0.  1.
     999901    1    3    3    0    0 -0.38072979347E-01 -0.55697784196E-01  0.92422778031E-01  0.88740845433E+00  0.88000000000E+00 0. -1.
        -11    1    4    4    0    0 -0.10442543754E-02  0.64950406303E-02 -0.16291082640E-01  0.17576589958E-01  0.51100000000E-03 0. -1.
         11    1    4    4    0    0  0.31224570958E-01  0.68803339505E-01 -0.86961133932E-01  0.11520144658E+00  0.51100000000E-03 0.  1.
</event>
<event>
 8    1  0.1116841E+005  0.1043930E+01  0.7957747E-01            NaN
         13   -1    0    0    0    0  0.00000000000E+00  0.00000000000E+00  0.74505805969E-08  0.10566000000E+00  0.10566000000E+00 0.  1.
     999900   -1    0    0    0    0 -0.00000000000E+00 -0.00000000000E+00 -0.74505805969E-08  0.93827000000E+00  0.93827000000E+00 0.  1.
     999902    2    1    2    0    0  0.84007185180E-02  0.21327585674E-01  0.67071395894E-02  0.10200464554E+01  0.10197668103E+01 0.  0.
     999903    2    3    3    0    0  0.51120258159E-02 -0.12447124702E+00  0.21076599162E-01  0.12792841583E+00  0.20055732409E-01 0.  0.
         14    1    1    2    0    0 -0.84007185180E-02 -0.21327585674E-01 -0.67071395894E-02  0.23883544623E-01  0.00000000000E+00 0.  1.
     999901    1    3    3    0    0  0.32886927021E-02  0.14579883269E+00 -0.14369459573E-01  0.89211803955E+00  0.88000000000E+00 0.  1.
        -11    1    4    4    0    0  0.84130027434E-02 -0.33037624882E-01  0.11268192890E-01  0.35909560913E-01  0.51100000000E-03 0. -1.
         11    1    4    4    0    0 -0.33009769275E-02 -0.91433622137E-01  0.98084062724E-02  0.92018854918E-01  0.51100000000E-03 0.  1.
</event>
<event>
 8    1  0.1116841E+005  0.1043930E+01  0.7957747E-01            NaN
         13   -1    0    0    0    0  0.00000000000E+00  0.00000000000E+00  0.74505805969E-08  0.10566000000E+00  0.10566000000E+00 0. -1.
     999900   -1    0    0    0    0 -0.00000000000E+00 -0.00000000000E+00 -0.74505805969E-08  0.93827000000E+00  0.93827000000E+00 0. -1.
     999902    2    1    2    0    0 -0.11780028294E-01  0.14493861834E-01  0.11737380251E-01  0.10218708252E+01  0.10216327012E+01 0.  0.
     999903    2    3    3    0    0 -0.40277468040E-02  0.13018980660E+00  0.26079888221E-01  0.13414825760E+00  0.18707911673E-01 0.  0.
         14    1    1    2    0    0  0.11780028294E-01 -0.14493861834E-01 -0.11737380251E-01  0.22059174795E-01  0.00000000000E+00 0. -1.
     999901    1    3    3    0    0 -0.77522814897E-02 -0.11569594477E+00 -0.14342507970E-01  0.88772256761E+00  0.88000000000E+00 0. -1.
        -11    1    4    4    0    0  0.58543517934E-02  0.54499877175E-01  0.55145375850E-02  0.55092479458E-01  0.51100000000E-03 0.  1.
         11    1    4    4    0    0 -0.98820985975E-02  0.75689929429E-01  0.20565350636E-01  0.79055778140E-01  0.51100000000E-03 0. -1.
</event>
<event>
 8    1  0.1116841E+005  0.1043930E+01  0.7957747E-01            NaN
         13   -1    0    0    0    0  0.00000000000E+00  0.00000000000E+00  0.74505805969E-08  0.10566000000E+00  0.10566000000E+00 0.  1.
     999900   -1    0    0    0    0 -0.00000000000E+00 -0.00000000000E+00 -0.74505805969E-08  0.93827000000E+00  0.93827000000E+00 0. -1.
     999902    2    1    2    0    0  0.11600648218E-01 -0.19925880135E-01  0.22963420821E-02  0.10207591363E+01  0.10204961173E+01 0.  0.
     999903    2    3    3    0    0  0.47199634837E-01  0.41875912425E-01  0.11299051943E+00  0.13096143438E+00  0.20065947389E-01 0.  0.
         14    1    1    2    0    0 -0.11600648218E-01  0.19925880135E-01 -0.22963420821E-02  0.23170863713E-01  0.00000000000E+00 0.  1.
     999901    1    3    3    0    0 -0.35598986619E-01 -0.61801792561E-01 -0.11069417735E+00  0.88979770190E+00  0.88000000000E+00 0. -1.
        -11    1    4    4    0    0  0.25086832796E-01  0.34329444880E-01  0.66607464026E-01  0.79023258289E-01  0.51100000000E-03 0. -1.
         11    1    4    4    0    0  0.22112802041E-01  0.75464675449E-02  0.46383055404E-01  0.51938176096E-01  0.51100000000E-03 0.  1.
</event>
<event>
 8    1  0.1116841E+005  0.1043930E+01  0.7957747E-01            NaN
         13   -1    0    0    0    0  0.00000000000E+00  0.00000000000E+00  0.74505805969E-08  0.10566000000E+00  0.10566000000E+00 0.  1.
     999900   -1    0    0    0    0 -0.00000000000E+00 -0.00000000000E+00 -0.74505805969E-08  0.93827000000E+00  0.93827000000E+00 0.  1.
     999902    2    1    2    0    0 -0.23549557869E-01 -0.11909413002E-01 -0.33377504438E-02  0.10173300682E+01  0.10169822571E+01 0.  0.
     999903    2    3    3    0    0 -0.52427793746E-01 -0.44265753795E-01  0.10781038952E+00  0.12927894674E+00  0.19540610680E-01 0.  0.
         14    1    1    2    0    0  0.23549557869E-01  0.11909413002E-01  0.33377504438E-02  0.26599931803E-01  0.00000000000E+00 0.  1.
     999901    1    3    3    0    0  0.28878235877E-01  0.32356340793E-01 -0.11114813997E+00  0.88805112145E+00  0.88000000000E+00 0.  1.
        -11    1    4    4    0    0 -0.16835920497E-01 -0.22773908707E-01  0.56777808277E-01  0.63451396916E-01  0.51100000000E-03 0.  1.
         11    1    4    4    0    0 -0.35591873249E-01 -0.21491845088E-01  0.51032581246E-01  0.65827549828E-01  0.51100000000E-03 0. -1.
</event>
<event>
 8    1  0.1116841E+005  0.1043930E+01  0.7957747E-01            NaN
         13   -1    0    0    0    0  0.00000000000E+00  0.00000000000E+00  0.74505805969E-08  0.10566000000E+00  0.10566000000E+00 0. -1.
     999900   -1    0    0    0    0 -0.00000000000E+00 -0.00000000000E+00 -0.74505805969E-08  0.93827000000E+00  0.93827000000E+00 0. -1.
     999902    2    1    2    0    0 -0.10077645710E-01 -0.20466155629E-01 -0.23623144974E-02  0.10209952447E+01  0.10207376190E+01 0.  0.
     999903    2    3    3    0    0  0.20911435950E-01 -0.66690929344E-01 -0.10975831833E+00  0.13272110094E+00  0.26134918835E-01 0.  0.
         14    1    1    2    0    0  0.10077645710E-01  0.20466155629E-01  0.23623144974E-02  0.22934755265E-01  0.00000000000E+00 0. -1.
     999901    1    3    3    0    0 -0.30989081660E-01  0.46224773716E-01  0.10739600383E+00  0.88827414379E+00  0.88000000000E+00 0.  1.
        -11    1    4    4    0    0  0.23876922773E-01 -0.37709463541E-01 -0.56402799257E-01  0.71928074955E-01  0.51100000000E-03 0.  1.
         11    1    4    4    0    0 -0.29654868235E-02 -0.28981465803E-01 -0.53355519075E-01  0.60793025989E-01  0.51100000000E-03 0. -1.
</event>
<event>
 8    1  0.1116841E+005  0.1043930E+01  0.7957747E-01            NaN
         13   -1    0    0    0    0  0.00000000000E+00  0.00000000000E+00  0.74505805969E-08  0.10566000000E+00  0.10566000000E+00 0. -1.
     999900   -1    0    0    0    0 -0.00000000000E+00 -0.00000000000E+00 -0.74505805969E-08  0.93827000000E+00  0.93827000000E+00 0. -1.
     999902    2    1    2    0    0  0.15911857026E-01  0.30204298881E-02 -0.16511278390E-01  0.10208013921E+01  0.10205393425E+01 0.  0.
     999903    2    3    3    0    0 -0.93576137011E-01  0.30149824375E-01  0.80351139099E-01  0.12832957021E+00  0.18619014722E-01 0.  0.
         14    1    1    2    0    0 -0.15911857026E-01 -0.30204298881E-02  0.16511278390E-01  0.23128607931E-01  0.00000000000E+00 0. -1.
     999901    1    3    3    0    0  0.10948799404E+00 -0.27129394487E-01 -0.96862417489E-01  0.89247182186E+00  0.88000000000E+00 0. -1.
        -11    1    4    4    0    0 -0.25860548578E-01  0.38323326325E-02  0.12747212998E-01  0.29089642596E-01  0.51100000000E-03 0. -1.
         11    1    4    4    0    0 -0.67715588433E-01  0.26317491743E-01  0.67603926101E-01  0.99239927618E-01  0.51100000000E-03 0.  1.
</event>
<event>
 8    1  0.1116841E+005  0.1043930E+01  0.7957747E-01            NaN
         13   -1    0    0    0    0  0.00000000000E+00  0.00000000000E+00  0.74505805969E-08  0.10566000000E+00  0.10566000000E+00 0.  1.
     999900   -1    0    0    0    0 -0.00000000000E+00 -0.00000000000E+00 -0.74505805969E-08  0.93827000000E+00  0.93827000000E+00 0.  1.
     999902    2    1    2    0    0 -0.15654928373E-01  0.10214988169E-01  0.14144616499E-01  0.10204887342E+01  0.10202194684E+01 0.  0.
     999903    2    3    3    0    0 -0.91087938936E-01  0.47179571083E-01  0.83140192377E-01  0.13380000137E+00  0.21615370224E-01 0.  0.
         14    1    1    2    0    0  0.15654928373E-01 -0.10214988169E-01 -0.14144616499E-01  0.23441265784E-01  0.00000000000E+00 0. -1.
     999901    1    3    3    0    0  0.75433010563E-01 -0.36964582914E-01 -0.68995575878E-01  0.88668873285E+00  0.88000000000E+00 0.  1.
        -11    1    4    4    0    0 -0.64635765845E-01  0.26779288189E-01  0.66290515566E-01  0.96382602565E-01  0.51100000000E-03 0. -1.
         11    1    4    4    0    0 -0.26452173091E-01  0.20400282894E-01  0.16849676811E-01  0.37417398801E-01  0.51100000000E-03 0.  1.
</event>
<event>
 8    1  0.1116841E+005  0.1043930E+01  0.7957747E-01            NaN
         13   -1    0    0    0    0  0.00000000000E+00  0.00000000000E+00  0.74505805969E-08  0.10566000000E+00  0.10566000000E+00 0. -1.
     999900   -1    0    0    0    0 -0.00000000000E+00 -0.00000000000E+00 -0.74505805969E-08  0.93827000000E+00  0.93827000000E+00 0.  1.
     999902    2    1    2    0    0  0.10122540881E-02 -0.16201653303E-01 -0.16234369877E-01  0.10209719297E+01  0.10207137739E+01 0.  0.
     999903    2    3    3    0    0 -0.45690587747E-01 -0.10926191881E+00 -0.58386586058E-01  0.13383147981E+00  0.21819139400E-01 0.  0.
         14    1    1    2    0    0 -0.10122540881E-02  0.16201653303E-01  0.16234369877E-01  0.22958070332E-01  0.00000000000E+00 0. -1.
     999901    1    3    3    0    0  0.46702841835E-01  0.93060265510E-01  0.42152216181E-01  0.88714044986E+00  0.88000000000E+00 0.  1.
        -11    1    4    4    0    0 -0.27552274749E-01 -0.84604079315E-01 -0.50104713072E-01  0.10211621553E+00  0.51100000000E-03 0.  1.
         11    1    4    4    0    0 -0.18138312997E-01 -0.24657839498E-01 -0.82818729859E-02  0.31715264278E-01  0.51100000000E-03 0. -1.
</event>
<event>
 7    1  0.1116841E+005  0.1043930E+01  0.7957747E-01            NaN
         13   -1    0    0    0    0  0.00000000000E+00  0.00000000000E+00  0.74505805969E-08  0.10566000000E+00  0.10566000000E+00 0.  1.
     999900   -1    0    0    0    0 -0.00000000000E+00 -0.00000000000E+00 -0.74505805969E-08  0.93827000000E+00  0.93827000000E+00 0. -1.
     999903    2    1    2    0    0 -0.52691035741E-01  0.60065642392E-01 -0.76521763332E-01  0.11220274081E+00  0.18698880671E-01 0.  0.
         14    1    1    2    0    0  0.86556736627E-02 -0.65993051534E-02 -0.39902914393E-01  0.41360779636E-01  0.00000000000E+00 0. -1.
     999901    1    1    2    0    0  0.44035362079E-01 -0.53466337238E-01  0.11642467772E+00  0.89036647955E+00  0.88000000000E+00 0.  1.
        -11    1    3    3    0    0 -0.45817369358E-01  0.44925658972E-01 -0.52118362652E-01  0.82668803157E-01  0.51100000000E-03 0. -1.
         11    1    3    3    0    0 -0.68736663831E-02  0.15139983420E-01 -0.24403400680E-01  0.29533937652E-01  0.51100000000E-03 0.  1.
</event>
<event>
 8    1  0.1116841E+005  0.1043930E+01  0.7957747E-01            NaN
         13   -1    0    0    0    0  0.00000000000E+00  0.00000000000E+00  0.74505805969E-08  0.10566000000E+00  0.10566000000E+00 0. -1.
     999900   -1    0    0    0    0 -0.00000000000E+00 -0.00000000000E+00 -0.74505805969E-08  0.93827000000E+00  0.93827000000E+00 0.  1.
     999902    2    1    2    0    0 -0.12856550396E-01 -0.79468708773E-02 -0.14823242310E-01  0.10227599231E+01  0.10225408002E+01 0.  0.
     999903    2    3    3    0    0  0.14619184754E-01  0.12130245976E+00 -0.46736412916E-01  0.13232252720E+00  0.19923644399E-01 0.  0.
         14    1    1    2    0    0  0.12856550396E-01  0.79468708773E-02  0.14823242310E-01  0.21170076935E-01  0.00000000000E+00 0. -1.
     999901    1    3    3    0    0 -0.27475735151E-01 -0.12924933064E+00  0.31913170606E-01  0.89043739586E+00  0.88000000000E+00 0.  1.
        -11    1    4    4    0    0  0.18351603907E-01  0.88803276418E-01 -0.38947816811E-01  0.98691422240E-01  0.51100000000E-03 0.  1.
         11    1    4    4    0    0 -0.37324191530E-02  0.32499183343E-01 -0.77885961053E-02  0.33631104962E-01  0.51100000000E-03 0. -1.
</event>
<event>
 8    1  0.1116841E+005  0.1043930E+01  0.7957747E-01            NaN
         13   -1    0    0    0    0  0.00000000000E+00  0.00000000000E+00  0.74505805969E-08  0.10566000000E+00  0.10566000000E+00 0.  1.
     999900   -1    0    0    0    0 -0.00000000000E+00 -0.00000000000E+00 -0.74505805969E-08  0.93827000000E+00  0.93827000000E+00 0.  1.
     999902    2    1    2    0    0 -0.17921658642E-01 -0.82173502142E-02 -0.11708719295E-01  0.10209995661E+01  0.10207420385E+01 0.  0.
     999903    2    3    3    0    0  0.53335462515E-01  0.90033528044E-01 -0.75091836959E-01  0.13041086638E+00  0.20432874464E-01 0.  0.
         14    1    1    2    0    0  0.17921658642E-01  0.82173502142E-02  0.11708719295E-01  0.22930433937E-01  0.00000000000E+00 0.  1.
     999901    1    3    3    0    0 -0.71257121157E-01 -0.98250878258E-01  0.63383117664E-01  0.89058869968E+00  0.88000000000E+00 0. -1.
        -11    1    4    4    0    0  0.33300074364E-01  0.62243137162E-01 -0.39017666605E-01  0.80658183123E-01  0.51100000000E-03 0. -1.
         11    1    4    4    0    0  0.20035388151E-01  0.27790390882E-01 -0.36074170354E-01  0.49752683259E-01  0.51100000000E-03 0.  1.
</event>
<event>
 8    1  0.1116841E+005  0.1043930E+01  0.7957747E-01            NaN
         13   -1    0    0    0    0  0.00000000000E+00  0.00000000000E+00  0.74505805969E-08  0.10566000000E+00  0.10566000000E+00 0.  1.
     999900   -1    0    0    0    0 -0.00000000000E+00 -0.00000000000E+00 -0.74505805969E-08  0.93827000000E+00  0.93827000000E+00 0. -1.
     999902    2    1    2    0    0 -0.26220623306E-02  0.20497551696E-01 -0.13590104993E-01  0.10191971112E+01  0.10188969701E+01 0.  0.
     999903    2    3    3    0    0  0.60094040621E-01 -0.10802796841E+00 -0.24768287033E-01  0.12758224440E+00  0.19555699062E-01 0.  0.
         14    1    1    2    0    0  0.26220623306E-02 -0.20497551696E-01  0.13590104993E-01  0.24732888835E-01  0.00000000000E+00 0.  1.
     999901    1    3    3    0    0 -0.62716102952E-01  0.12852552011E+00  0.11178182040E-01  0.89161486677E+00  0.88000000000E+00 0. -1.
        -11    1    4    4    0    0  0.29545846762E-01 -0.37917970542E-01 -0.15684809234E-01  0.50566826206E-01  0.51100000000E-03 0.  1.
         11    1    4    4    0    0  0.30548193860E-01 -0.70109997868E-01 -0.90834777996E-02  0.77015418191E-01  0.51100000000E-03 0. -1.
</event>
<event>
 8    1  0.1116841E+005  0.1043930E+01  0.7957747E-01            NaN
         13   -1    0    0    0    0  0.00000000000E+00  0.00000000000E+00  0.74505805969E-08  0.10566000000E+00  0.10566000000E+00 0.  1.
     999900   -1    0    0    0    0 -0.00000000000E+00 -0.00000000000E+00 -0.74505805969E-08  0.93827000000E+00  0.93827000000E+00 0. -1.
     999902    2    1    2    0    0  0.25048338449E-01  0.10733615831E-01 -0.58306619124E-02  0.10160619827E+01  0.10156797361E+01 0.  0.
     999903    2    3    3    0    0 -0.97209953652E-01 -0.69544028020E-01  0.24200909313E-01  0.12348510349E+00  0.19409787496E-01 0.  0.
         14    1    1    2    0    0 -0.25048338449E-01 -0.10733615831E-01  0.58306619124E-02  0.27868017264E-01  0.00000000000E+00 0.  1.
     999901    1    3    3    0    0  0.12225829210E+00  0.80277643852E-01 -0.30031571225E-01  0.89257687924E+00  0.88000000000E+00 0. -1.
        -11    1    4    4    0    0 -0.36776837032E-01 -0.22368972714E-01 -0.13252823760E-03  0.43048639550E-01  0.51100000000E-03 0.  1.
         11    1    4    4    0    0 -0.60433116620E-01 -0.47175055307E-01  0.24333437551E-01  0.80436463943E-01  0.51100000000E-03 0. -1.
</event>
<event>
 8    1  0.1116841E+005  0.1043930E+01  0.7957747E-01            NaN
         13   -1    0    0    0    0  0.00000000000E+00  0.00000000000E+00  0.74505805969E-08  0.10566000000E+00  0.10566000000E+00 0. -1.
     999900   -1    0    0    0    0 -0.00000000000E+00 -0.00000000000E+00 -0.74505805969E-08  0.93827000000E+00  0.93827000000E+00 0.  1.
     999902    2    1    2    0    0 -0.52864681192E-02 -0.19452695126E-01 -0.17114453260E-01  0.10174865017E+01  0.10171428231E+01 0.  0.
     999903    2    3    3    0    0  0.77624538027E-01 -0.95849987524E-01 -0.35951495006E-01  0.13009390798E+00  0.20472564251E-01 0.  0.
         14    1    1    2    0    0  0.52864681192E-02  0.19452695126E-01  0.17114453260E-01  0.26443498316E-01  0.00000000000E+00 0. -1.
     999901    1    3    3    0    0 -0.82911006146E-01  0.76397292398E-01  0.18837041746E-01  0.88739259371E+00  0.88000000000E+00 0. -1.
        -11    1    4    4    0    0  0.34301648615E-01 -0.41713452180E-01 -0.26350117305E-01  0.60093302401E-01  0.51100000000E-03 0. -1.
         11    1    4    4    0    0  0.43322889413E-01 -0.54136535344E-01 -0.96013777008E-02  0.70000605575E-01  0.51100000000E-03 0.  1.
</event>
<event>
 8    1  0.1116841E+005  0.1043930E+01  0.7957747E-01            NaN
         13   -1    0    0    0    0  0.00000000000E+00  0.00000000000E+00  0.74505805969E-08  0.10566000000E+00  0.10566000000E+00 0. -1.
     999900   -1    0    0    0    0 -0.00000000000E+00 -0.00000000000E+00 -0.74505805969E-08  0.93827000000E+00  0.93827000000E+00 0. -1.
     999902    2    1    2    0    0  0.68306820410E-02 -0.17866911280E-01  0.26439920330E-01  0.10112963652E+01  0.10107696988E+01 0.  0.
     999903    2    3    3    0    0  0.75159750619E-01 -0.73680876847E-01 -0.59661773652E-01  0.12270334129E+00  0.20462722256E-01 0.  0.
         14    1    1    2    0    0 -0.68306820410E-02  0.17866911280E-01 -0.26439920330E-01  0.32633634840E-01  0.00000000000E+00 0.  1.
     999901    1    3    3    0    0 -0.68329068578E-01  0.55813965567E-01  0.86101693982E-01  0.88859302387E+00  0.88000000000E+00 0.  1.
        -11    1    4    4    0    0  0.54303807713E-01 -0.61618292669E-01 -0.52821327965E-01  0.97652810163E-01  0.51100000000E-03 0. -1.
         11    1    4    4    0    0  0.20855942905E-01 -0.12062584178E-01 -0.68404456873E-02  0.25050531126E-01  0.51100000000E-03 0.  1.
</event>
<event>
 8    1  0.1116841E+005  0.1043930E+01  0.7957747E-01            NaN
         13   -1    0    0    0    0  0.00000000000E+00  0.00000000000E+00  0.74505805969E-08  0.10566000000E+00  0.10566000000E+00 0.  1.
     999900   -1    0    0    0    0 -0.00000000000E+00 -0.00000000000E+00 -0.74505805969E-08  0.93827000000E+00  0.93827000000E+00 0. -1.
     999902    2    1    2    0    0  0.59076856195E-02  0.22022973125E-01 -0.68769349997E-02  0.10201139481E+01  0.10198358999E+01 0.  0.
     999903    2    3    3    0    0  0.20995950514E-01  0.10055553839E+00  0.80628080763E-01  0.13216566842E+00  0.20362471935E-01 0.  0.
         14    1    1    2    0    0 -0.59076856195E-02 -0.22022973125E-01  0.68769349997E-02  0.23816051932E-01  0.00000000000E+00 0.  1.
     999901    1    3    3    0    0 -0.15088264894E-01 -0.78532565263E-01 -0.87505015762E-01  0.88794827965E+00  0.88000000000E+00 0. -1.
        -11    1    4    4    0    0  0.18852691190E-01  0.62782813108E-01  0.40718239780E-01  0.77170860813E-01  0.51100000000E-03 0.  1.
         11    1    4    4    0    0  0.21432593236E-02  0.37772725280E-01  0.39909840982E-01  0.54994807608E-01  0.51100000000E-03 0. -1.
</event>
<event>
 8    1  0.1116841E+005  0.1043930E+01  0.7957747E-01            NaN
         13   -1    0    0    0    0  0.00000000000E+00  0.00000000000E+00  0.74505805969E-08  0.10566000000E+00  0.10566000000E+00 0.  1.
     999900   -1    0    0    0    0 -0.00000000000E+00 -0.00000000000E+00 -0.74505805969E-08  0.93827000000E+00  0.93827000000E+00 0.  1.
     999902    2    1    2    0    0 -0.14757895542E-01 -0.11811155771E-01 -0.15882406634E-01  0.10192409392E+01  0.10189418739E+01 0.  0.
     999903    2    3    3    0    0  0.71832783323E-01  0.97633424953E-01 -0.35991984230E-01  0.12801680522E+00  0.20016120075E-01 0.  0.
         14    1    1    2    0    0  0.14757895542E-01  0.11811155771E-01  0.15882406634E-01  0.24689060775E-01  0.00000000000E+00 0. -1.
     999901    1    3    3    0    0 -0.86590678865E-01 -0.10944458072E+00  0.20109577597E-01  0.89122413400E+00  0.88000000000E+00 0. -1.
        -11    1    4    4    0    0  0.19398999942E-01  0.14127510125E-01 -0.10302169294E-01  0.26120940915E-01  0.51100000000E-03 0. -1.
         11    1    4    4    0    0  0.52433783381E-01  0.83505914827E-01 -0.25689814937E-01  0.10189586431E+00  0.51100000000E-03 0.  1.
</event>
<event>
 8    1  0.1116841E+005  0.1043930E+01  0.7957747E-01            NaN
         13   -1    0    0    0    0  0.00000000000E+00  0.00000000000E+00  0.74505805969E-08  0.10566000000E+00  0.10566000000E+00 0. -1.
     999900   -1    0    0    0    0 -0.00000000000E+00 -0.00000000000E+00 -0.74505805969E-08  0.93827000000E+00  0.93827000000E+00 0.  1.
     999902    2    1    2    0    0  0.11469127239E-01  0.21500983837E-01  0.63165461809E-02  0.10187559669E+01  0.10184448872E+01 0.  0.
     999903    2    3    3    0    0 -0.58707920137E-01  0.11400262713E+00 -0.16705751784E-01  0.13083063324E+00  0.19858337628E-01 0.  0.
         14    1    1    2    0    0 -0.11469127239E-01 -0.21500983837E-01 -0.63165461809E-02  0.25174033074E-01  0.00000000000E+00 0. -1.
     999901    1    3    3    0    0  0.70177047376E-01 -0.92501643292E-01  0.23022297965E-01  0.88792533368E+00  0.88000000000E+00 0.  1.
        -11    1    4    4    0    0 -0.60003608074E-02  0.52529736834E-02  0.26937939274E-02  0.84330130476E-02  0.51100000000E-03 0.  1.
         11    1    4    4    0    0 -0.52707559329E-01  0.10874965345E+00 -0.19399545712E-01  0.12239762020E+00  0.51100000000E-03 0. -1.
</event>
<event>
 8    1  0.1116841E+005  0.1043930E+01  0.7957747E-01            NaN
         13   -1    0    0    0    0  0.00000000000E+00  0.00000000000E+00  0.74505805969E-08  0.10566000000E+00  0.10566000000E+00 0. -1.
     999900   -1    0    0    0    0 -0.00000000000E+00 -0.00000000000E+00 -0.74505805969E-08  0.93827000000E+00  0.93827000000E+00 0.  1.
     999902    2    1    2    0    0 -0.17141074104E-01 -0.13011712718E-01 -0.10247631068E-01  0.10200944167E+01  0.10198159069E+01 0.  0.
     999903    2    3    3    0    0  0.77217161362E-01 -0.64775628861E-01 -0.80898266486E-01  0.13072694938E+00  0.19663002609E-01 0.  0.
         14    1    1    2    0    0  0.17141074104E-01  0.13011712718E-01  0.10247631068E-01  0.23835583312E-01  0.00000000000E+00 0. -1.
     999901    1    3    3    0    0 -0.94358235467E-01  0.51763916143E-01  0.70650635417E-01  0.88936746730E+00  0.88000000000E+00 0. -1.
        -11    1    4    4    0    0  0.10799734197E-01 -0.23600331867E-02 -0.12998686453E-01  0.17071349855E-01  0.51100000000E-03 0. -1.
         11    1    4    4    0    0  0.66417427165E-01 -0.62415595674E-01 -0.67899580033E-01  0.11365559953E+00  0.51100000000E-03 0.  1.
</event>
<event>
 8    1  0.1116841E+005  0.1043930E+01  0.7957747E-01            NaN
         13   -1    0    0    0    0  0.00000000000E+00  0.00000000000E+00  0.74505805969E-08  0.10566000000E+00  0.10566000000E+00 0.  1.
     999900   -1    0    0    0    0 -0.00000000000E+00 -0.00000000000E+00 -0.74505805969E-08  0.93827000000E+00  0.93827000000E+00 0. -1.
     999902    2    1    2    0    0  0.21091153010E-01  0.81225861724E-02  0.68062957723E-02  0.10203262121E+01  0.10200531556E+01 0.  0.
     999903    2    3    3    0    0 -0.82795562687E-01 -0.57612247212E-01 -0.76808480657E-01  0.12785495269E+00  0.16524829730E-01 0.  0.
         14    1    1    2    0    0 -0.21091153010E-01 -0.81225861724E-02 -0.68062957723E-02  0.23603787907E-01  0.00000000000E+00 0. -1.
     999901    1    3    3    0    0  0.10388671570E+00  0.65734833385E-01  0.83614776429E-01  0.89247125940E+00  0.88000000000E+00 0. -1.
        -11    1    4    4    0    0 -0.60202140695E-01 -0.41551316499E-01 -0.64478643480E-01  0.97511877395E-01  0.51100000000E-03 0.  1.
         11    1    4    4    0    0 -0.22593421992E-01 -0.16060930714E-01 -0.12329837177E-01  0.30343075297E-01  0.51100000000E-03 0. -1.
</event>
<event>
 8    1  0.1116841E+005  0.1043930E+01  0.7957747E-01            NaN
         13   -1    0    0    0    0  0.00000000000E+00  0.00000000000E+00  0.74505805969E-08  0.10566000000E+00  0.10566000000E+00 0.  1.
     999900   -1    0    0    0    0 -0.00000000000E+00 -0.00000000000E+00 -0.74505805969E-08  0.93827000000E+00  0.93827000000E+00 0.  1.
     999902    2    1    2    0    0 -0.18697274143E-01 -0.88261853952E-02 -0.58735936733E-02  0.10224360773E+01  0.10222101269E+01 0.  0.
     999903    2    3    3    0    0  0.54833465232E-01  0.11185396235E+00 -0.33950173480E-01  0.13071932745E+00  0.20418385983E-01 0.  0.
         14    1    1    2    0    0  0.18697274143E-01  0.88261853952E-02  0.58735936733E-02  0.21493922668E-01  0.00000000000E+00 0.  1.
     999901    1    3    3    0    0 -0.73530739375E-01 -0.12068014774E+00  0.28076579807E-01  0.89171674989E+00  0.88000000000E+00 0. -1.
        -11    1    4    4    0    0  0.27163885349E-01  0.58636785981E-01 -0.71427016197E-02  0.65018679199E-01  0.51100000000E-03 0. -1.
         11    1    4    4    0    0  0.27669579883E-01  0.53217176368E-01 -0.26807471861E-01  0.65700648247E-01  0.51100000000E-03 0.  1.
</event>
<event>
 8    1  0.1116841E+005  0.1043930E+01  0.7957747E-01            NaN
         13   -1    0    0    0    0  0.00000000000E+00  0.00000000000E+00  0.74505805969E-08  0.10566000000E+00  0.10566000000E+00 0. -1.
     999900   -1    0    0    0    0 -0.00000000000E+00 -0.00000000000E+00 -0.74505805969E-08  0.93827000000E+00  0.93827000000E+00 0.  1.
     999902    2    1    2    0    0 -0.10549178885E-01  0.13220660738E-01 -0.15700467723E-01  0.10208523976E+01  0.10205915157E+01 0.  0.
     999903    2    3    3    0    0 -0.32635884150E-01  0.42929884135E-01  0.11664988552E+00  0.13018575037E+00  0.20810043760E-01 0.  0.
         14    1    1    2    0    0  0.10549178885E-01 -0.13220660738E-01  0.15700467723E-01  0.23077602393E-01  0.00000000000E+00 0. -1.
     999901    1    3    3    0    0  0.22086705265E-01 -0.29709223396E-01 -0.13235035324E+00  0.89066664724E+00  0.88000000000E+00 0.  1.
        -11    1    4    4    0    0 -0.11100805844E-01  0.13383358058E-01  0.18253433538E-01  0.25214898774E-01  0.51100000000E-03 0. -1.
         11    1    4    4    0    0 -0.21535078306E-01  0.29546526077E-01  0.98396451979E-01  0.10497085159E+00  0.51100000000E-03 0.  1.
</event>
<event>
 8    1  0.1116841E+005  0.1043930E+01  0.7957747E-01            NaN
         13   -1    0    0    0    0  0.00000000000E+00  0.00000000000E+00  0.74505805969E-08  0.10566000000E+00  0.10566000000E+00 0. -1.
     999900   -1    0    0    0    0 -0.00000000000E+00 -0.00000000000E+00 -0.74505805969E-08  0.93827000000E+00  0.93827000000E+00 0. -1.
     999902    2    1    2    0    0  0.75784855074E-02 -0.15159648487E-01 -0.14171584391E-01  0.10218374178E+01  0.10215985641E+01 0.  0.
     999903    2    3    3    0    0 -0.35480584814E-01 -0.11985969452E+00  0.40628328053E-01  0.13289466733E+00  0.19624303672E-01 0.  0.
         14    1    1    2    0    0 -0.75784855074E-02  0.15159648487E-01  0.14171584391E-01  0.22092582216E-01  0.00000000000E+00 0.  1.
     999901    1    3    3    0    0  0.43059070321E-01  0.10470004604E+00 -0.54799912444E-01  0.88894275045E+00  0.88000000000E+00 0.  1.
        -11    1    4    4    0    0 -0.23907329694E-01 -0.46792375772E-01  0.16389963964E-01  0.55045243966E-01  0.51100000000E-03 0.  1.
         11    1    4    4    0    0 -0.11573255120E-01 -0.73067318752E-01  0.24238364089E-01  0.77849423366E-01  0.51100000000E-03 0. -1.
</event>
<event>
 8    1  0.1116841E+005  0.1043930E+01  0.7957747E-01            NaN
         13   -1    0    0    0    0  0.00000000000E+00  0.00000000000E+00  0.74505805969E-08  0.10566000000E+00  0.10566000000E+00 0. -1.
     999900   -1    0    0    0    0 -0.00000000000E+00 -0.00000000000E+00 -0.74505805969E-08  0.93827000000E+00  0.93827000000E+00 0.  1.
     999902    2    1    2    0    0  0.70770525042E-04 -0.19640385739E-01 -0.13637073768E-01  0.10200193425E+01  0.10197390546E+01 0.  0.
     999903    2    3    3    0    0  0.89994697077E-01  0.19443583050E-01 -0.91196064272E-01  0.13118343742E+00  0.20378265135E-01 0.  0.
         14    1    1    2    0    0 -0.70770525042E-04  0.19640385739E-01  0.13637073768E-01  0.23910657486E-01  0.00000000000E+00 0. -1.
     999901    1    3    3    0    0 -0.89923926552E-01 -0.39083968789E-01  0.77558990504E-01  0.88883590510E+00  0.88000000000E+00 0. -1.
        -11    1    4    4    0    0  0.41904899068E-01  0.13334953301E-01 -0.30577970500E-01  0.53564119952E-01  0.51100000000E-03 0. -1.
         11    1    4    4    0    0  0.48089798009E-01  0.61086297493E-02 -0.60618093773E-01  0.77619317464E-01  0.51100000000E-03 0.  1.
</event>
<event>
 8    1  0.1116841E+005  0.1043930E+01  0.7957747E-01            NaN
         13   -1    0    0    0    0  0.00000000000E+00  0.00000000000E+00  0.74505805969E-08  0.10566000000E+00  0.10566000000E+00 0. -1.
     999900   -1    0    0    0    0 -0.00000000000E+00 -0.00000000000E+00 -0.74505805969E-08  0.93827000000E+00  0.93827000000E+00 0. -1.
     999902    2    1    2    0    0 -0.16400056547E-02  0.10234524709E-01 -0.21403604667E-01  0.10201487173E+01  0.10198714899E+01 0.  0.
     999903    2    3    3    0    0  0.65322572923E-01  0.10016765076E+00  0.48134490902E-01  0.13031305784E+00  0.19077920159E-01 0.  0.
         14    1    1    2    0    0  0.16400056547E-02 -0.10234524709E-01  0.21403604667E-01  0.23781282710E-01  0.00000000000E+00 0. -1.
     999901    1    3    3    0    0 -0.66962578577E-01 -0.89933126050E-01 -0.69538095570E-01  0.88983565945E+00  0.88000000000E+00 0. -1.
        -11    1    4    4    0    0  0.41211774304E-01  0.77319153145E-01  0.38653993933E-01  0.95765620931E-01  0.51100000000E-03 0.  1.
         11    1    4    4    0    0  0.24110798619E-01  0.22848497615E-01  0.94804969694E-02  0.34547436911E-01  0.51100000000E-03 0. -1.
</event>
<event>
 8    1  0.1116841E+005  0.1043930E+01  0.7957747E-01            NaN
         13   -1    0    0    0    0  0.00000000000E+00  0.00000000000E+00  0.74505805969E-08  0.10566000000E+00  0.10566000000E+00 0.  1.
     999900   -1    0    0    0    0 -0.00000000000E+00 -0.00000000000E+00 -0.74505805969E-08  0.93827000000E+00  0.93827000000E+00 0. -1.
     999902    2    1    2    0    0 -0.90949811050E-02 -0.10253603527E-01  0.19152253108E-01  0.10203786972E+01  0.10201068678E+01 0.  0.
     999903    2    3    3    0    0  0.39939081301E-01  0.11744778708E+00  0.31474773039E-01  0.12972510067E+00  0.21185549306E-01 0.  0.
         14    1    1    2    0    0  0.90949811050E-02  0.10253603527E-01 -0.19152253108E-01  0.23551302845E-01  0.00000000000E+00 0.  1.
     999901    1    3    3    0    0 -0.49034062406E-01 -0.12770139061E+00 -0.12322519931E-01  0.89065359649E+00  0.88000000000E+00 0.  1.
        -11    1    4    4    0    0  0.16960762276E-01  0.58849976854E-01  0.50372095298E-02  0.61454225514E-01  0.51100000000E-03 0.  1.
         11    1    4    4    0    0  0.22978319025E-01  0.58597810229E-01  0.26437563509E-01  0.68270875153E-01  0.51100000000E-03 0. -1.
</event>
<event>
 8    1  0.1116841E+005  0.1043930E+01  0.7957747E-01            NaN
         13   -1    0    0    0    0  0.00000000000E+00  0.00000000000E+00  0.74505805969E-08  0.10566000000E+00  0.10566000000E+00 0.  1.
     999900   -1    0    0    0    0 -0.00000000000E+00 -0.00000000000E+00 -0.74505805969E-08  0.93827000000E+00  0.93827000000E+00 0. -1.
     999902    2    1    2    0    0 -0.38062275389E-03 -0.21947731049E-01 -0.89420568525E-02  0.10202275075E+01  0.10199521356E+01 0.  0.
     999903    2    3    3    0    0  0.31819435302E-01  0.11913028787E+00 -0.29683910583E-01  0.12816804999E+00  0.18477352099E-01 0.  0.
         14    1    1    2    0    0  0.38062275389E-03  0.21947731049E-01  0.89420568525E-02  0.23702492540E-01  0.00000000000E+00 0. -1.
     999901    1    3    3    0    0 -0.32200058056E-01 -0.14107801892E+00  0.20741853730E-01  0.89205945747E+00  0.88000000000E+00 0. -1.
        -11    1    4    4    0    0  0.13009066222E-01  0.57737654292E-01 -0.23416677454E-01  0.63651193478E-01  0.51100000000E-03 0. -1.
         11    1    4    4    0    0  0.18810369080E-01  0.61392633577E-01 -0.62672331288E-02  0.64516856515E-01  0.51100000000E-03 0.  1.
</event>
<event>
 8    1  0.1116841E+005  0.1043930E+01  0.7957747E-01            NaN
         13   -1    0    0    0    0  0.00000000000E+00  0.00000000000E+00  0.74505805969E-08  0.10566000000E+00  0.10566000000E+00 0.  1.
     999900   -1    0    0    0    0 -0.00000000000E+00 -0.00000000000E+00 -0.74505805969E-08  0.93827000000E+00  0.93827000000E+00 0.  1.
     999902    2    1    2    0    0  0.88087027430E-02  0.11633323138E-01 -0.18663281349E-01  0.10202393790E+01  0.10199642861E+01 0.  0.
     999903    2    3    3    0    0 -0.57452991999E-01  0.11582728105E+00 -0.13492792272E-01  0.13160349915E+00  0.20509027760E-01 0.  0.
         14    1    1    2    0    0 -0.88087027430E-02 -0.11633323138E-01  0.18663281349E-01  0.23690620970E-01  0.00000000000E+00 0.  1.
     999901    1    3    3    0    0  0.66261694742E-01 -0.10419395791E+00 -0.51704890772E-02  0.88863587988E+00  0.88000000000E+00 0. -1.
        -11    1    4    4    0    0 -0.40317559831E-02  0.24289824588E-01 -0.60263169106E-02  0.25354057887E-01  0.51100000000E-03 0. -1.
         11    1    4    4    0    0 -0.53421236016E-01  0.91537456462E-01 -0.74664753611E-02  0.10624944126E+00  0.51100000000E-03 0.  1.
</event>
<event>
 8    1  0.1116841E+005  0.1043930E+01  0.7957747E-01            NaN
         13   -1    0    0    0    0  0.00000000000E+00  0.00000000000E+00  0.74505805969E-08  0.10566000000E+00  0.10566000000E+00 0. -1.
     999900   -1    0    0    0    0 -0.00000000000E+00 -0.00000000000E+00 -0.74505805969E-08  0.93827000000E+00  0.93827000000E+00 0. -1.
     999902    2    1    2    0    0  0.12186420791E-01  0.20761716010E-01  0.40873760416E-02  0.10195114753E+01  0.10192190069E+01 0.  0.
     999903    2    3    3    0    0  0.73544606447E-01 -0.52238898695E-01 -0.90404872731E-01  0.12933020068E+00  0.20384997406E-01 0.  0.
         14    1    1    2    0    0 -0.12186420791E-01 -0.20761716010E-01 -0.40873760416E-02  0.24418524654E-01  0.00000000000E+00 0. -1.
     999901    1    3    3    0    0 -0.61358185656E-01  0.73000614705E-01  0.94492248773E-01  0.89018127467E+00  0.88000000000E+00 0.  1.
        -11    1    4    4    0    0  0.59207931589E-01 -0.48985426633E-01 -0.68503259222E-01  0.10294711667E+00  0.51100000000E-03 0. -1.
         11    1    4    4    0    0  0.14336674858E-01 -0.32534720618E-02 -0.21901613509E-01  0.26383084007E-01  0.51100000000E-03 0.  1.
</event>
<event>
 8    1  0.1116841E+005  0.1043930E+01  0.7957747E-01            NaN
         13   -1    0    0    0    0  0.00000000000E+00  0.00000000000E+00  0.74505805969E-08  0.10566000000E+00  0.10566000000E+00 0. -1.
     999900   -1    0    0    0    0 -0.00000000000E+00 -0.00000000000E+00 -0.74505805969E-08  0.93827000000E+00  0.93827000000E+00 0.  1.
     999902    2    1    2    0    0  0.15484826912E-01  0.15672505967E-01 -0.89083636730E-02  0.10201651888E+01  0.10198883499E+01 0.  0.
     999903    2    3    3    0    0  0.11495678841E+00  0.14062025845E-01 -0.62164117249E-01  0.13295977851E+00  0.20028016769E-01 0.  0.
         14    1    1    2    0    0 -0.15484826912E-01 -0.15672505967E-01  0.89083636730E-02  0.23764811194E-01  0.00000000000E+00 0. -1.
     999901    1    3    3    0    0 -0.99471961498E-01  0.16104801217E-02  0.53255753576E-01  0.88720541030E+00  0.88000000000E+00 0.  1.
        -11    1    4    4    0    0  0.94563344288E-01  0.91187987390E-02 -0.42068798490E-01  0.10390102743E+00  0.51100000000E-03 0. -1.
         11    1    4    4    0    0  0.20393444121E-01  0.49432271058E-02 -0.20095318758E-01  0.29058751080E-01  0.51100000000E-03 0.  1.
</event>
<event>
 8    1  0.1116841E+005  0.1043930E+01  0.7957747E-01            NaN
         13   -1    0    0    0    0  0.00000000000E+00  0.00000000000E+00  0.74505805969E-08  0.10566000000E+00  0.10566000000E+00 0. -1.
     999900   -1    0    0    0    0 -0.00000000000E+00 -0.00000000000E+00 -0.74505805969E-08  0.93827000000E+00  0.93827000000E+00 0.  1.
     999902    2    1    2    0    0  0.10708084526E-01  0.17500524222E-02 -0.21242810458E-01  0.10200766406E+01  0.10197977103E+01 0.  0.
     999903    2    3    3    0    0  0.54948335290E-01 -0.97372019192E-01  0.61809100518E-01  0.12952624632E+00  0.21355418651E-01 0.  0.
         14    1    1    2    0    0 -0.10708084526E-01 -0.17500524222E-02  0.21242810458E-01  0.23853359382E-01  0.00000000000E+00 0.  1.
     999901    1    3    3    0    0 -0.44240250765E-01  0.99122071615E-01 -0.83051910976E-01  0.89055039430E+00  0.88000000000E+00 0.  1.
        -11    1    4    4    0    0  0.13664587776E-01 -0.44675064199E-01  0.28819872170E-01  0.54894703507E-01  0.51100000000E-03 0. -1.
         11    1    4    4    0    0  0.41283747514E-01 -0.52696954994E-01  0.32989228349E-01  0.74631542812E-01  0.51100000000E-03 0.  1.
</event>
<event>
 8    1  0.1116841E+005  0.1043930E+01  0.7957747E-01            NaN
         13   -1    0    0    0    0  0.00000000000E+00  0.00000000000E+00  0.74505805969E-08  0.10566000000E+00  0.10566000000E+00 0. -1.
     999900   -1    0    0    0    0 -0.00000000000E+00 -0.00000000000E+00 -0.74505805969E-08  0.93827000000E+00  0.93827000000E+00 0.  1.
     999902    2    1    2    0    0 -0.60905846788E-02 -0.21068243183E-01  0.10614005512E-01  0.10195656160E+01  0.10192744587E+01 0.  0.
     999903    2    3    3    0    0  0.36044370669E-01  0.11969161797E+00  0.15051254775E-01  0.12737259760E+00  0.19286219995E-01 0.  0.
         14    1    1    2    0    0  0.60905846788E-02  0.21068243183E-01 -0.10614005512E-01  0.24364383956E-01  0.00000000000E+00 0. -1.
     999901    1    3    3    0    0 -0.42134955348E-01 -0.14075986115E+00 -0.44372492629E-02  0.89219301844E+00  0.88000000000E+00 0. -1.
        -11    1    4    4    0    0  0.19646824633E-01  0.69139581207E-01 -0.89582908786E-03  0.71884233587E-01  0.51100000000E-03 0. -1.
         11    1    4    4    0    0  0.16397546036E-01  0.50552036759E-01  0.15947083863E-01  0.55488364016E-01  0.51100000000E-03 0.  1.
</event>
<event>
 8    1  0.1116841E+005  0.1043930E+01  0.7957747E-01            NaN
         13   -1    0    0    0    0  0.00000000000E+00  0.00000000000E+00  0.74505805969E-08  0.10566000000E+00  0.10566000000E+00 0.  1.
     999900   -1    0    0    0    0 -0.00000000000E+00 -0.00000000000E+00 -0.74505805969E-08  0.93827000000E+00  0.93827000000E+00 0. -1.
     999902    2    1    2    0    0 -0.11754562542E-02 -0.78021825636E-03 -0.23966854221E-01  0.10199216569E+01  0.10196390467E+01 0.  0.
     999903    2    3    3    0    0  0.76730075440E-01  0.10051506136E+00 -0.24760323569E-01  0.13069129577E+00  0.21825653003E-01 0.  0.
         14    1    1    2    0    0  0.11754562542E-02  0.78021825636E-03  0.23966854221E-01  0.24008343116E-01  0.00000000000E+00 0.  1.
     999901    1    3    3    0    0 -0.77905531694E-01 -0.10129527961E+00  0.79346934872E-03  0.88923036112E+00  0.88000000000E+00 0.  1.
        -11    1    4    4    0    0  0.27620264184E-01  0.35012341697E-01  0.17611255097E-02  0.44633011872E-01  0.51100000000E-03 0. -1.
         11    1    4    4    0    0  0.49109811256E-01  0.65502719661E-01 -0.26521449079E-01  0.86058283894E-01  0.51100000000E-03 0.  1.
</event>
<event>
 8    1  0.1116841E+005  0.1043930E+01  0.7957747E-01            NaN
         13   -1    0    0    0    0  0.00000000000E+00  0.00000000000E+00  0.74505805969E-08  0.10566000000E+00  0.10566000000E+00 0.  1.
     999900   -1    0    0    0    0 -0.00000000000E+00 -0.00000000000E+00 -0.74505805969E-08  0.93827000000E+00  0.93827000000E+00 0. -1.
     999902    2    1    2    0    0 -0.47990319136E-02 -0.22930045370E-01 -0.35849946970E-02  0.10202304246E+01  0.10199551213E+01 0.  0.
     999903    2    3    3    0    0  0.48574621348E-01 -0.37679178678E-01  0.11340214686E+00  0.13076301367E+00  0.21440720273E-01 0.  0.
         14    1    1    2    0    0  0.47990319136E-02  0.22930045370E-01  0.35849946970E-02  0.23699575417E-01  0.00000000000E+00 0.  1.
     999901    1    3    3    0    0 -0.53373653262E-01  0.14749133308E-01 -0.11698714156E+00  0.88946741092E+00  0.88000000000E+00 0. -1.
        -11    1    4    4    0    0  0.16214777083E-02 -0.10404013626E-01  0.14403533333E-01  0.17849246006E-01  0.51100000000E-03 0.  1.
         11    1    4    4    0    0  0.46953143640E-01 -0.27275165052E-01  0.98998613525E-01  0.11291376766E+00  0.51100000000E-03 0. -1.
</event>
<event>
 8    1  0.1116841E+005  0.1043930E+01  0.7957747E-01            NaN
         13   -1    0    0    0    0  0.00000000000E+00  0.00000000000E+00  0.74505805969E-08  0.10566000000E+00  0.10566000000E+00 0.  1.
     999900   -1    0    0    0    0 -0.00000000000E+00 -0.00000000000E+00 -0.74505805969E-08  0.93827000000E+00  0.93827000000E+00 0. -1.
     999902    2    1    2    0    0 -0.16046451989E-01 -0.82512571612E-02 -0.18025310404E-01  0.10184254184E+01  0.10181060108E+01 0.  0.
     999903    2    3    3    0    0  0.42432281461E-01  0.85105210852E-01  0.79258746154E-01  0.12623744493E+00  0.24709274305E-01 0.  0.
         14    1    1    2    0    0  0.16046451989E-01  0.82512571612E-02  0.18025310404E-01  0.25504581576E-01  0.00000000000E+00 0.  1.
     999901    1    3    3    0    0 -0.58478733450E-01 -0.93356468013E-01 -0.97284056558E-01  0.89218797349E+00  0.88000000000E+00 0. -1.
        -11    1    4    4    0    0  0.17458215682E-01  0.44493176849E-01  0.24776237482E-01  0.53838231265E-01  0.51100000000E-03 0.  1.
         11    1    4    4    0    0  0.24974065779E-01  0.40612034003E-01  0.54482508671E-01  0.72399213666E-01  0.51100000000E-03 0. -1.
</event>
<event>
 8    1  0.1116841E+005  0.1043930E+01  0.7957747E-01            NaN
         13   -1    0    0    0    0  0.00000000000E+00  0.00000000000E+00  0.74505805969E-08  0.10566000000E+00  0.10566000000E+00 0. -1.
     999900   -1    0    0    0    0 -0.00000000000E+00 -0.00000000000E+00 -0.74505805969E-08  0.93827000000E+00  0.93827000000E+00 0. -1.
     999902    2    1    2    0    0  0.13029241061E-01 -0.23969557820E-01  0.74196151811E-02  0.10156571948E+01  0.10152636041E+01 0.  0.
     999903    2    3    3    0    0 -0.14255674658E-02 -0.24095791687E-01 -0.12249989796E+00  0.12600106048E+00  0.16952959089E-01 0.  0.
         14    1    1    2    0    0 -0.13029241061E-01  0.23969557820E-01 -0.74196151811E-02  0.28272805205E-01  0.00000000000E+00 0. -1.
     999901    1    3    3    0    0  0.14454808527E-01  0.12623386693E-03  0.12991951315E+00  0.88965613431E+00  0.88000000000E+00 0.  1.
        -11    1    4    4    0    0 -0.90120367784E-02 -0.12739141268E-01 -0.57658999257E-01  0.59735448801E-01  0.51100000000E-03 0. -1.
         11    1    4    4    0    0  0.75864693126E-02 -0.11356650419E-01 -0.64840898708E-01  0.66265611682E-01  0.51100000000E-03 0.  1.
</event>
<event>
 8    1  0.1116841E+005  0.1043930E+01  0.7957747E-01            NaN
         13   -1    0    0    0    0  0.00000000000E+00  0.00000000000E+00  0.74505805969E-08  0.10566000000E+00  0.10566000000E+00 0. -1.
     999900   -1    0    0    0    0 -0.00000000000E+00 -0.00000000000E+00 -0.74505805969E-08  0.93827000000E+00  0.93827000000E+00 0.  1.
     999902    2    1    2    0    0  0.19585248195E-01  0.82968465757E-02  0.10640460512E-01  0.10201468335E+01  0.10198695617E+01 0.  0.
     999903    2    3    3    0    0  0.40043740931E-01 -0.23241497915E-02 -0.12203233473E+00  0.12990336898E+00  0.19341450065E-01 0.  0.
         14    1    1    2    0    0 -0.19585248195E-01 -0.82968465757E-02 -0.10640460512E-01  0.23783166523E-01  0.00000000000E+00 0.  1.
     999901    1    3    3    0    0 -0.20458492736E-01  0.10620996367E-01  0.13267279525E+00  0.89024346450E+00  0.88000000000E+00 0. -1.
        -11    1    4    4    0    0 -0.15297427413E-02 -0.24417527847E-02 -0.69524061518E-02  0.75431652385E-02  0.51100000000E-03 0.  1.
         11    1    4    4    0    0  0.41573483673E-01  0.11760299316E-03 -0.11507992858E+00  0.12236020374E+00  0.51100000000E-03 0. -1.
</event>
<event>
 8    1  0.1116841E+005  0.1043930E+01  0.7957747E-01            NaN
         13   -1    0    0    0    0  0.00000000000E+00  0.00000000000E+00  0.74505805969E-08  0.10566000000E+00  0.10566000000E+00 0.  1.
     999900   -1    0    0    0    0 -0.00000000000E+00 -0.00000000000E+00 -0.74505805969E-08  0.93827000000E+00  0.93827000000E+00 0.  1.
     999902    2    1    2    0    0  0.62350266598E-02  0.12750669827E-01  0.18929570423E-01  0.10202702499E+01  0.10199958819E+01 0.  0.
     999903    2    3    3    0    0  0.29673737735E-01 -0.10591751548E+00 -0.62847191984E-01  0.12823944872E+00  0.19913208477E-01 0.  0.
         14    1    1    2    0    0 -0.62350266598E-02 -0.12750669827E-01 -0.18929570423E-01  0.23659750102E-01  0.00000000000E+00 0. -1.
     999901    1    3    3    0    0 -0.23438711075E-01  0.11866818530E+00  0.81776762407E-01  0.89203080118E+00  0.88000000000E+00 0.  1.
        -11    1    4    4    0    0  0.16478480835E-01 -0.38259346421E-01 -0.32881735750E-01  0.53073416944E-01  0.51100000000E-03 0. -1.
         11    1    4    4    0    0  0.13195256900E-01 -0.67658169056E-01 -0.29965456234E-01  0.75166031776E-01  0.51100000000E-03 0.  1.
</event>
<event>
 8    1  0.1116841E+005  0.1043930E+01  0.7957747E-01            NaN
         13   -1    0    0    0    0  0.00000000000E+00  0.00000000000E+00  0.74505805969E-08  0.10566000000E+00  0.10566000000E+00 0. -1.
     999900   -1    0    0    0    0 -0.00000000000E+00 -0.00000000000E+00 -0.74505805969E-08  0.93827000000E+00  0.93827000000E+00 0. -1.
     999902    2    1    2    0    0 -0.10085529289E-01 -0.13193273241E-01 -0.19120549309E-01  0.10186046024E+01  0.10182897231E+01 0.  0.
     999903    2    3    3    0    0  0.45439066704E-01  0.11275879091E+00 -0.33919115933E-01  0.12778144325E+00  0.19958384323E-01 0.  0.
         14    1    1    2    0    0  0.10085529289E-01  0.13193273241E-01  0.19120549309E-01  0.25325397642E-01  0.00000000000E+00 0. -1.
     999901    1    3    3    0    0 -0.55524595993E-01 -0.12595206415E+00  0.14798566624E-01  0.89082315910E+00  0.88000000000E+00 0.  1.
        -11    1    4    4    0    0  0.36647324318E-01  0.67809049155E-01 -0.16852712985E-01  0.78901004956E-01  0.51100000000E-03 0.  1.
         11    1    4    4    0    0  0.87917423861E-02  0.44949741750E-01 -0.17066402949E-01  0.48880438298E-01  0.51100000000E-03 0. -1.
</event>
<event>
 8    1  0.1116841E+005  0.1043930E+01  0.7957747E-01            NaN
         13   -1    0    0    0    0  0.00000000000E+00  0.00000000000E+00  0.74505805969E-08  0.10566000000E+00  0.10566000000E+00 0. -1.
     999900   -1    0    0    0    0 -0.00000000000E+00 -0.00000000000E+00 -0.74505805969E-08  0.93827000000E+00  0.93827000000E+00 0.  1.
     999902    2    1    2    0    0 -0.10999422808E-02  0.23388866997E-01 -0.65204063544E-02  0.10196243490E+01  0.10193346106E+01 0.  0.
     999903    2    3    3    0    0  0.94529744953E-01 -0.60643983590E-01 -0.59633216636E-01  0.12887885914E+00  0.20977949856E-01 0.  0.
         14    1    1    2    0    0  0.10999422808E-02 -0.23388866997E-01  0.65204063544E-02  0.24305651019E-01  0.00000000000E+00 0.  1.
     999901    1    3    3    0    0 -0.95629687234E-01  0.84032850587E-01  0.53112810282E-01  0.89074548984E+00  0.88000000000E+00 0. -1.
        -11    1    4    4    0    0  0.27917475950E-01 -0.10820656326E-01 -0.24028212954E-01  0.38393856351E-01  0.51100000000E-03 0.  1.
         11    1    4    4    0    0  0.66612269003E-01 -0.49823327264E-01 -0.35605003682E-01  0.90485002788E-01  0.51100000000E-03 0. -1.
</event>
<event>
 8    1  0.1116841E+005  0.1043930E+01  0.7957747E-01            NaN
         13   -1    0    0    0    0  0.00000000000E+00  0.00000000000E+00  0.74505805969E-08  0.10566000000E+00  0.10566000000E+00 0.  1.
     999900   -1    0    0    0    0 -0.00000000000E+00 -0.00000000000E+00 -0.74505805969E-08  0.93827000000E+00  0.93827000000E+00 0. -1.
     999902    2    1    2    0    0  0.26485149499E-02 -0.64024480806E-02  0.23206439208E-01  0.10197113131E+01  0.10194236692E+01 0.  0.
     999903    2    3    3    0    0 -0.40426929543E-01 -0.75881522463E-01  0.99050893981E-01  0.13267398753E+00  0.19974115369E-01 0.  0.
         14    1    1    2    0    0 -0.26485149499E-02  0.64024480806E-02 -0.23206439208E-01  0.24218686867E-01  0.00000000000E+00 0. -1.
     999901    1    3    3    0    0  0.43075444493E-01  0.69479074382E-01 -0.75844454773E-01  0.88703732560E+00  0.88000000000E+00 0. -1.
        -11    1    4    4    0    0 -0.22612470118E-01 -0.51018809759E-01  0.50357302468E-01  0.75168888424E-01  0.51100000000E-03 0. -1.
         11    1    4    4    0    0 -0.17814459425E-01 -0.24862712704E-01  0.48693591513E-01  0.57505099105E-01  0.51100000000E-03 0.  1.
</event>
<event>
 8    1  0.1116841E+005  0.1043930E+01  0.7957747E-01            NaN
         13   -1    0    0    0    0  0.00000000000E+00  0.00000000000E+00  0.74505805969E-08  0.10566000000E+00  0.10566000000E+00 0. -1.
     999900   -1    0    0    0    0 -0.00000000000E+00 -0.00000000000E+00 -0.74505805969E-08  0.93827000000E+00  0.93827000000E+00 0. -1.
     999902    2    1    2    0    0  0.11919139766E-03 -0.18200772892E-01  0.14967942404E-01  0.10203647366E+01  0.10200925811E+01 0.  0.
     999903    2    3    3    0    0 -0.75952466551E-01 -0.58305499127E-01 -0.85889653305E-01  0.13043915496E+00  0.21657151176E-01 0.  0.
         14    1    1    2    0    0 -0.11919139766E-03  0.18200772892E-01 -0.14967942404E-01  0.23565263424E-01  0.00000000000E+00 0.  1.
     999901    1    3    3    0    0  0.76071657949E-01  0.40104726235E-01  0.10085759571E+00  0.88992558162E+00  0.88000000000E+00 0.  1.
        -11    1    4    4    0    0 -0.35929854605E-01 -0.36652668179E-01 -0.34760593414E-01  0.61991390629E-01  0.51100000000E-03 0.  1.
         11    1    4    4    0    0 -0.40022611946E-01 -0.21652830948E-01 -0.51129059890E-01  0.68447764327E-01  0.51100000000E-03 0. -1.
</event>
<event>
 8    1  0.1116841E+005  0.1043930E+01  0.7957747E-01            NaN
         13   -1    0    0    0    0  0.00000000000E+00  0.00000000000E+00  0.74505805969E-08  0.10566000000E+00  0.10566000000E+00 0.  1.
     999900   -1    0    0    0    0 -0.00000000000E+00 -0.00000000000E+00 -0.74505805969E-08  0.93827000000E+00  0.93827000000E+00 0.  1.
     999902    2    1    2    0    0 -0.19372039134E-01  0.13217357024E-01  0.46515472283E-02  0.10200216057E+01  0.10197413715E+01 0.  0.
     999903    2    3    3    0    0 -0.69013179560E-01  0.73027448285E-01 -0.83566664848E-01  0.13220183638E+00  0.19952716902E-01 0.  0.
         14    1    1    2    0    0  0.19372039134E-01 -0.13217357024E-01 -0.46515472283E-02  0.23908394311E-01  0.00000000000E+00 0.  1.
     999901    1    3    3    0    0  0.49641140426E-01 -0.59810091262E-01  0.88218212076E-01  0.88781976931E+00  0.88000000000E+00 0. -1.
        -11    1    4    4    0    0 -0.18740602642E-01  0.15049165924E-01 -0.30796332996E-01  0.39068693725E-01  0.51100000000E-03 0. -1.
         11    1    4    4    0    0 -0.50272576917E-01  0.57978282362E-01 -0.52770331852E-01  0.93133142652E-01  0.51100000000E-03 0.  1.
</event>
<event>
 8    1  0.1116841E+005  0.1043930E+01  0.7957747E-01            NaN
         13   -1    0    0    0    0  0.00000000000E+00  0.00000000000E+00  0.74505805969E-08  0.10566000000E+00  0.10566000000E+00 0.  1.
     999900   -1    0    0    0    0 -0.00000000000E+00 -0.00000000000E+00 -0.74505805969E-08  0.93827000000E+00  0.93827000000E+00 0. -1.
     999902    2    1    2    0    0  0.66022602826E-03 -0.43658792612E-02 -0.23206158803E-01  0.10203074979E+01  0.10200340032E+01 0.  0.
     999903    2    3    3    0    0 -0.10258144477E+00 -0.27816254814E-01 -0.76219814336E-01  0.13237776509E+00  0.20438095513E-01 0.  0.
         14    1    1    2    0    0 -0.66022602826E-03  0.43658792612E-02  0.23206158803E-01  0.23622502122E-01  0.00000000000E+00 0.  1.
     999901    1    3    3    0    0  0.10324167080E+00  0.23450375553E-01  0.53013655533E-01  0.88792973279E+00  0.88000000000E+00 0. -1.
        -11    1    4    4    0    0 -0.55835025926E-01 -0.86123684420E-02 -0.49980689047E-01  0.75432442682E-01  0.51100000000E-03 0.  1.
         11    1    4    4    0    0 -0.46746418846E-01 -0.19203886372E-01 -0.26239125289E-01  0.56945322404E-01  0.51100000000E-03 0. -1.
</event>
<event>
 8    1  0.1116841E+005  0.1043930E+01  0.7957747E-01            NaN
         13   -1    0    0    0    0  0.00000000000E+00  0.00000000000E+00  0.74505805969E-08  0.10566000000E+00  0.10566000000E+00 0.  1.
     999900   -1    0    0    0    0 -0.00000000000E+00 -0.00000000000E+00 -0.74505805969E-08  0.93827000000E+00  0.93827000000E+00 0.  1.
     999902    2    1    2    0    0 -0.84081769954E-02 -0.14350521576E-01 -0.17316274050E-01  0.10199198301E+01  0.10196371765E+01 0.  0.
     999903    2    3    3    0    0 -0.19777609903E-01  0.11664636019E+00 -0.48722843686E-01  0.12959639472E+00  0.20585986209E-01 0.  0.
         14    1    1    2    0    0  0.84081769954E-02  0.14350521576E-01  0.17316274050E-01  0.24010169863E-01  0.00000000000E+00 0. -1.
     999901    1    3    3    0    0  0.11369432908E-01 -0.13099688177E+00  0.31406569636E-01  0.89032343542E+00  0.88000000000E+00 0. -1.
        -11    1    4    4    0    0 -0.20287404301E-01  0.88953870578E-01 -0.29544627498E-01  0.95903680842E-01  0.51100000000E-03 0. -1.
         11    1    4    4    0    0  0.50979439743E-03  0.27692489612E-01 -0.19178216187E-01  0.33692713877E-01  0.51100000000E-03 0.  1.
</event>
<event>
 8    1  0.1116841E+005  0.1043930E+01  0.7957747E-01            NaN
         13   -1    0    0    0    0  0.00000000000E+00  0.00000000000E+00  0.74505805969E-08  0.10566000000E+00  0.10566000000E+00 0. -1.
     999900   -1    0    0    0    0 -0.00000000000E+00 -0.00000000000E+00 -0.74505805969E-08  0.93827000000E+00  0.93827000000E+00 0.  1.
     999902    2    1    2    0    0 -0.13172014298E-01 -0.42253537535E-02 -0.19454278840E-01  0.10200590021E+01  0.10197796543E+01 0.  0.
     999903    2    3    3    0    0  0.43698969405E-01 -0.75334980145E-01  0.92218382380E-01  0.12834062111E+00  0.19548038712E-01 0.  0.
         14    1    1    2    0    0  0.13172014298E-01  0.42253537535E-02  0.19454278840E-01  0.23870997888E-01  0.00000000000E+00 0. -1.
     999901    1    3    3    0    0 -0.56870983703E-01  0.71109626392E-01 -0.11167266122E+00  0.89171838100E+00  0.88000000000E+00 0. -1.
        -11    1    4    4    0    0  0.20983801465E-01 -0.18236942185E-01  0.28693666051E-01  0.39956145668E-01  0.51100000000E-03 0. -1.
         11    1    4    4    0    0  0.22715167941E-01 -0.57098037961E-01  0.63524716329E-01  0.88384475442E-01  0.51100000000E-03 0.  1.
</event>
<event>
 8    1  0.1116841E+005  0.1043930E+01  0.7957747E-01            NaN
         13   -1    0    0    0    0  0.00000000000E+00  0.00000000000E+00  0.74505805969E-08  0.10566000000E+00  0.10566000000E+00 0.  1.
     999900   -1    0    0    0    0 -0.00000000000E+00 -0.00000000000E+00 -0.74505805969E-08  0.93827000000E+00  0.93827000000E+00 0.  1.
     999902    2    1    2    0    0 -0.13878873120E-01  0.13860375218E-01  0.15416463628E-01  0.10189820448E+01  0.10186765959E+01 0.  0.
     999903    2    3    3    0    0 -0.69951103588E-01 -0.10679255613E+00 -0.59405077127E-02  0.12872514638E+00  0.15396971800E-01 0.  0.
         14    1    1    2    0    0  0.13878873120E-01 -0.13860375218E-01 -0.15416463628E-01  0.24947955248E-01  0.00000000000E+00 0. -1.
     999901    1    3    3    0    0  0.56072230468E-01  0.12065293135E+00  0.21356971340E-01  0.89025689837E+00  0.88000000000E+00 0. -1.
        -11    1    4    4    0    0 -0.28590875556E-01 -0.54608923054E-01  0.19292268592E-02  0.61672973655E-01  0.51100000000E-03 0.  1.
         11    1    4    4    0    0 -0.41360228032E-01 -0.52183633077E-01 -0.78697345718E-02  0.67052172726E-01  0.51100000000E-03 0. -1.
</event>
<event>
 8    1  0.1116841E+005  0.1043930E+01  0.7957747E-01            NaN
         13   -1    0    0    0    0  0.00000000000E+00  0.00000000000E+00  0.74505805969E-08  0.10566000000E+00  0.10566000000E+00 0.  1.
     999900   -1    0    0    0    0 -0.00000000000E+00 -0.00000000000E+00 -0.74505805969E-08  0.93827000000E+00  0.93827000000E+00 0.  1.
     999902    2    1    2    0    0 -0.54945285069E-02  0.19016542969E-01 -0.13258840292E-01  0.10201053154E+01  0.10198270632E+01 0.  0.
     999903    2    3    3    0    0 -0.35113520210E-02 -0.70472386155E-01  0.10468384034E+00  0.12773617803E+00  0.19471464957E-01 0.  0.
         14    1    1    2    0    0  0.54945285069E-02 -0.19016542969E-01  0.13258840292E-01  0.23824684591E-01  0.00000000000E+00 0.  1.
     999901    1    3    3    0    0 -0.19831764859E-02  0.89488929123E-01 -0.11794268063E+00  0.89236913737E+00  0.88000000000E+00 0.  1.
        -11    1    4    4    0    0  0.21284308680E-02 -0.57275996059E-01  0.71941389275E-01  0.91983121030E-01  0.51100000000E-03 0.  1.
         11    1    4    4    0    0 -0.56397828890E-02 -0.13196390096E-01  0.32742451062E-01  0.35753057004E-01  0.51100000000E-03 0. -1.
</event>
<event>
 8    1  0.1116841E+005  0.1043930E+01  0.7957747E-01            NaN
         13   -1    0    0    0    0  0.00000000000E+00  0.00000000000E+00  0.74505805969E-08  0.10566000000E+00  0.10566000000E+00 0.  1.
     999900   -1    0    0    0    0 -0.00000000000E+00 -0.00000000000E+00 -0.74505805969E-08  0.93827000000E+00  0.93827000000E+00 0. -1.
     999902    2    1    2    0    0 -0.18693257870E-01 -0.13522148693E-01  0.43046654659E-02  0.10204605190E+01  0.10201905970E+01 0.  0.
     999903    2    3    3    0    0 -0.50738788694E-01 -0.12238805472E+00  0.82721407737E-02  0.13316437765E+00  0.10538621628E-01 0.  0.
         14    1    1    2    0    0  0.18693257870E-01  0.13522148693E-01 -0.43046654659E-02  0.23469481030E-01  0.00000000000E+00 0. -1.
     999901    1    3    3    0    0  0.32045530824E-01  0.10886590603E+00 -0.39674753078E-02  0.88729614132E+00  0.88000000000E+00 0. -1.
        -11    1    4    4    0    0 -0.71083797648E-02 -0.16715575033E-01 -0.24515618386E-02  0.18336051592E-01  0.51100000000E-03 0. -1.
         11    1    4    4    0    0 -0.43630408929E-01 -0.10567247969E+00  0.10723702612E-01  0.11482832606E+00  0.51100000000E-03 0.  1.
</event>
<event>
 8    1  0.1116841E+005  0.1043930E+01  0.7957747E-01            NaN
         13   -1    0    0    0    0  0.00000000000E+00  0.00000000000E+00  0.74505805969E-08  0.10566000000E+00  0.10566000000E+00 0. -1.
     999900   -1    0    0    0    0 -0.00000000000E+00 -0.00000000000E+00 -0.74505805969E-08  0.93827000000E+00  0.93827000000E+00 0. -1.
     999902    2    1    2    0    0  0.29859459260E-02  0.10461860826E-01  0.19953213816E-01  0.10212034264E+01  0.10209505086E+01 0.  0.
     999903    2    3    3    0    0 -0.87421362505E-01 -0.50784818760E-01  0.82861716860E-01  0.13222529568E+00  0.19896538858E-01 0.  0.
         14    1    1    2    0    0 -0.29859459260E-02 -0.10461860826E-01 -0.19953213816E-01  0.22726573578E-01  0.00000000000E+00 0. -1.
     999901    1    3    3    0    0  0.90407308431E-01  0.61246679586E-01 -0.62908503044E-01  0.88897813074E+00  0.88000000000E+00 0. -1.
        -11    1    4    4    0    0 -0.20332238400E-01 -0.13976981714E-01  0.10212772913E-01  0.26708009805E-01  0.51100000000E-03 0. -1.
         11    1    4    4    0    0 -0.67089124105E-01 -0.36807837046E-01  0.72648943947E-01  0.10551728588E+00  0.51100000000E-03 0.  1.
</event>
<event>
 8    1  0.1296353E+005  0.1043930E+01  0.7957747E-01            NaN
         13   -1    0    0    0    0  0.00000000000E+00  0.00000000000E+00  0.74505805969E-08  0.10566000000E+00  0.10566000000E+00 0.  1.
     999900   -1    0    0    0    0 -0.00000000000E+00 -0.00000000000E+00 -0.74505805969E-08  0.93827000000E+00  0.93827000000E+00 0.  1.
     999902    2    1    2    0    0  0.62054569524E-02 -0.29838362223E-01  0.13522497529E-01  0.10105879320E+01  0.10100377591E+01 0.  0.
     999903    2    3    3    0    0 -0.79757636175E-01  0.29694976381E-02 -0.87628660472E-01  0.12002767815E+00  0.18914622432E-01 0.  0.
         14    1    1    2    0    0 -0.62054569524E-02  0.29838362223E-01 -0.13522497529E-01  0.33342067956E-01  0.00000000000E+00 0.  1.
     999901    1    3    3    0    0  0.85963093128E-01 -0.32807859861E-01  0.10115115800E+00  0.89056025389E+00  0.88000000000E+00 0. -1.
        -11    1    4    4    0    0 -0.35844408353E-01  0.10258407579E-02 -0.25861686666E-01  0.44214951290E-01  0.51100000000E-03 0. -1.
         11    1    4    4    0    0 -0.43913227823E-01  0.19436568802E-02 -0.61766973807E-01  0.75812726861E-01  0.51100000000E-03 0.  1.
</event>
<event>
 8    1  0.1116841E+005  0.1043930E+01  0.7957747E-01            NaN
         13   -1    0    0    0    0  0.00000000000E+00  0.00000000000E+00  0.74505805969E-08  0.10566000000E+00  0.10566000000E+00 0. -1.
     999900   -1    0    0    0    0 -0.00000000000E+00 -0.00000000000E+00 -0.74505805969E-08  0.93827000000E+00  0.93827000000E+00 0.  1.
     999902    2    1    2    0    0 -0.53541186371E-02  0.18844369413E-01 -0.13402701084E-01  0.10201937568E+01  0.10199175909E+01 0.  0.
     999903    2    3    3    0    0  0.22108982634E-03  0.97226092574E-02 -0.13051494439E+00  0.13237082006E+00  0.19831925862E-01 0.  0.
         14    1    1    2    0    0  0.53541186371E-02 -0.18844369413E-01  0.13402701084E-01  0.23736243202E-01  0.00000000000E+00 0. -1.
     999901    1    3    3    0    0 -0.55752084634E-02  0.91217601561E-02  0.11711224331E+00  0.88782293673E+00  0.88000000000E+00 0. -1.
        -11    1    4    4    0    0  0.65460025892E-02 -0.24206301187E-02 -0.24688309064E-01  0.25660929942E-01  0.51100000000E-03 0.  1.
         11    1    4    4    0    0 -0.63249127628E-02  0.12143239376E-01 -0.10582663533E+00  0.10670989012E+00  0.51100000000E-03 0. -1.
</event>
<event>
 8    1  0.1116841E+005  0.1043930E+01  0.7957747E-01            NaN
         13   -1    0    0    0    0  0.00000000000E+00  0.00000000000E+00  0.74505805969E-08  0.10566000000E+00  0.10566000000E+00 0. -1.
     999900   -1    0    0    0    0 -0.00000000000E+00 -0.00000000000E+00 -0.74505805969E-08  0.93827000000E+00  0.93827000000E+00 0. -1.
     999902    2    1    2    0    0 -0.99610310439E-02  0.21940095389E-01  0.34017808356E-02  0.10195956202E+01  0.10193051882E+01 0.  0.
     999903    2    3    3    0    0 -0.92222511265E-01 -0.85720810918E-01 -0.23207957298E-01  0.12882859120E+00  0.14322975243E-01 0.  0.
         14    1    1    2    0    0  0.99610310439E-02 -0.21940095389E-01 -0.34017808356E-02  0.24334379754E-01  0.00000000000E+00 0. -1.
     999901    1    3    3    0    0  0.82261480221E-01  0.10766090631E+00  0.26609738133E-01  0.89076702905E+00  0.88000000000E+00 0.  1.
        -11    1    4    4    0    0 -0.61422462795E-01 -0.50756308198E-01 -0.94417666666E-02  0.80239203863E-01  0.51100000000E-03 0.  1.
         11    1    4    4    0    0 -0.30800048470E-01 -0.34964502720E-01 -0.13766190631E-01  0.48589387336E-01  0.51100000000E-03 0. -1.
</event>
<event>
 8    1  0.1116841E+005  0.1043930E+01  0.7957747E-01            NaN
         13   -1    0    0    0    0  0.00000000000E+00  0.00000000000E+00  0.74505805969E-08  0.10566000000E+00  0.10566000000E+00 0. -1.
     999900   -1    0    0    0    0 -0.00000000000E+00 -0.00000000000E+00 -0.74505805969E-08  0.93827000000E+00  0.93827000000E+00 0.  1.
     999902    2    1    2    0    0 -0.15852142096E-01 -0.12798828386E-01  0.10237836740E-01  0.10211283834E+01  0.10208737737E+01 0.  0.
     999903    2    3    3    0    0 -0.10243298948E+00  0.49555051509E-01  0.65936615657E-01  0.13293549703E+00  0.19390426073E-01 0.  0.
         14    1    1    2    0    0  0.15852142096E-01  0.12798828386E-01 -0.10237836740E-01  0.22801616570E-01  0.00000000000E+00 0.  1.
     999901    1    3    3    0    0  0.86580847385E-01 -0.62353879894E-01 -0.55698778916E-01  0.88819288640E+00  0.88000000000E+00 0.  1.
        -11    1    4    4    0    0 -0.69759636784E-01  0.25616402688E-01  0.36065125445E-01  0.82604850979E-01  0.51100000000E-03 0.  1.
         11    1    4    4    0    0 -0.32673352698E-01  0.23938648820E-01  0.29871490212E-01  0.50330646055E-01  0.51100000000E-03 0. -1.
</event>
<event>
 8    1  0.1116841E+005  0.1043930E+01  0.7957747E-01            NaN
         13   -1    0    0    0    0  0.00000000000E+00  0.00000000000E+00  0.74505805969E-08  0.10566000000E+00  0.10566000000E+00 0. -1.
     999900   -1    0    0    0    0 -0.00000000000E+00 -0.00000000000E+00 -0.74505805969E-08  0.93827000000E+00  0.93827000000E+00 0.  1.
     999902    2    1    2    0    0  0.33749257847E-02 -0.21384158354E-01 -0.81398411393E-02  0.10208014599E+01  0.10205394119E+01 0.  0.
     999903    2    3    3    0    0  0.12901502861E-02 -0.92286609132E-01  0.92435597954E-01  0.13223693060E+00  0.20585998448E-01 0.  0.
         14    1    1    2    0    0 -0.33749257847E-02  0.21384158354E-01  0.81398411393E-02  0.23128540082E-01  0.00000000000E+00 0. -1.
     999901    1    3    3    0    0  0.20847754985E-02  0.70902450778E-01 -0.10057543909E+00  0.88856452932E+00  0.88000000000E+00 0.  1.
        -11    1    4    4    0    0  0.38854612243E-02 -0.33371308476E-01  0.21084511817E-01  0.39668108071E-01  0.51100000000E-03 0. -1.
         11    1    4    4    0    0 -0.25953109381E-02 -0.58915300655E-01  0.71351086137E-01  0.92568822528E-01  0.51100000000E-03 0.  1.
</event>
<event>
 8    1  0.1116841E+005  0.1043930E+01  0.7957747E-01            NaN
         13   -1    0    0    0    0  0.00000000000E+00  0.00000000000E+00  0.74505805969E-08  0.10566000000E+00  0.10566000000E+00 0. -1.
     999900   -1    0    0    0    0 -0.00000000000E+00 -0.00000000000E+00 -0.74505805969E-08  0.93827000000E+00  0.93827000000E+00 0.  1.
     999902    2    1    2    0    0 -0.57883258318E-02 -0.22321018154E-01  0.38835712267E-02  0.10205459308E+01  0.10202779926E+01 0.  0.
     999903    2    3    3    0    0  0.34753881457E-01 -0.64810370833E-02  0.12498583653E+00  0.13118642292E+00  0.18400600786E-01 0.  0.
         14    1    1    2    0    0  0.57883258318E-02  0.22321018154E-01 -0.38835712267E-02  0.23384069211E-01  0.00000000000E+00 0. -1.
     999901    1    3    3    0    0 -0.40542207289E-01 -0.15839981071E-01 -0.12110226530E+00  0.88935950787E+00  0.88000000000E+00 0.  1.
        -11    1    4    4    0    0  0.22887437965E-01  0.88596063821E-03  0.99664383798E-01  0.10226372896E+00  0.51100000000E-03 0.  1.
         11    1    4    4    0    0  0.11866443492E-01 -0.73669977215E-02  0.25321452727E-01  0.28922693958E-01  0.51100000000E-03 0. -1.
</event>
<event>
 8    1  0.1116841E+005  0.1043930E+01  0.7957747E-01            NaN
         13   -1    0    0    0    0  0.00000000000E+00  0.00000000000E+00  0.74505805969E-08  0.10566000000E+00  0.10566000000E+00 0. -1.
     999900   -1    0    0    0    0 -0.00000000000E+00 -0.00000000000E+00 -0.74505805969E-08  0.93827000000E+00  0.93827000000E+00 0.  1.
     999902    2    1    2    0    0 -0.13276599682E-01  0.67299373630E-02 -0.21107029370E-01  0.10181023628E+01  0.10177747070E+01 0.  0.
     999903    2    3    3    0    0  0.74012360788E-01  0.40035457722E-01 -0.96915426022E-01  0.12991570823E+00  0.20120239032E-01 0.  0.
         14    1    1    2    0    0  0.13276599682E-01 -0.67299373630E-02  0.21107029370E-01  0.25827637229E-01  0.00000000000E+00 0. -1.
     999901    1    3    3    0    0 -0.87288960470E-01 -0.33305520359E-01  0.75808396653E-01  0.88818665454E+00  0.88000000000E+00 0.  1.
        -11    1    4    4    0    0  0.50377804798E-01  0.30042589327E-01 -0.53025237301E-01  0.79072228383E-01  0.51100000000E-03 0. -1.
         11    1    4    4    0    0  0.23634555990E-01  0.99928683945E-02 -0.43890188722E-01  0.50843479844E-01  0.51100000000E-03 0.  1.
</event>
<event>
 8    1  0.1116841E+005  0.1043930E+01  0.7957747E-01            NaN
         13   -1    0    0    0    0  0.00000000000E+00  0.00000000000E+00  0.74505805969E-08  0.10566000000E+00  0.10566000000E+00 0. -1.
     999900   -1    0    0    0    0 -0.00000000000E+00 -0.00000000000E+00 -0.74505805969E-08  0.93827000000E+00  0.93827000000E+00 0. -1.
     999902    2    1    2    0    0 -0.28509832917E-02 -0.19237827201E-01  0.12611791255E-01  0.10207507123E+01  0.10204874998E+01 0.  0.
     999903    2    3    3    0    0 -0.27815636675E-01 -0.80026879766E-01 -0.98472521080E-01  0.13133614792E+00  0.19347744396E-01 0.  0.
         14    1    1    2    0    0  0.28509832917E-02  0.19237827201E-01 -0.12611791255E-01  0.23179287733E-01  0.00000000000E+00 0. -1.
     999901    1    3    3    0    0  0.24964653383E-01  0.60789052565E-01  0.11108431233E+00  0.88941456435E+00  0.88000000000E+00 0.  1.
        -11    1    4    4    0    0 -0.18188593746E-01 -0.65557561564E-01 -0.67631422981E-01  0.95931690885E-01  0.51100000000E-03 0.  1.
         11    1    4    4    0    0 -0.96270429290E-02 -0.14469318202E-01 -0.30841098099E-01  0.35404457032E-01  0.51100000000E-03 0. -1.
</event>
<event>
 8    1  0.1116841E+005  0.1043930E+01  0.7957747E-01            NaN
         13   -1    0    0    0    0  0.00000000000E+00  0.00000000000E+00  0.74505805969E-08  0.10566000000E+00  0.10566000000E+00 0.  1.
     999900   -1    0    0    0    0 -0.00000000000E+00 -0.00000000000E+00 -0.74505805969E-08  0.93827000000E+00  0.93827000000E+00 0.  1.
     999902    2    1    2    0    0 -0.24329534899E-01  0.20492867744E-02 -0.17037878870E-02  0.10194549364E+01  0.10191610955E+01 0.  0.
     999903    2    3    3    0    0  0.75463552971E-01 -0.97414284265E-01  0.26479592579E-01  0.12780143572E+00  0.21160045929E-01 0.  0.
         14    1    1    2    0    0  0.24329534899E-01 -0.20492867744E-02  0.17037878870E-02  0.24475063592E-01  0.00000000000E+00 0. -1.
     999901    1    3    3    0    0 -0.99793087870E-01  0.99463571039E-01 -0.28183380466E-01  0.89165350069E+00  0.88000000000E+00 0.  1.
        -11    1    4    4    0    0  0.60981107552E-01 -0.83906721558E-01  0.14727401665E-01  0.10476731781E+00  0.51100000000E-03 0. -1.
         11    1    4    4    0    0  0.14482445419E-01 -0.13507562707E-01  0.11752190914E-01  0.23034117909E-01  0.51100000000E-03 0.  1.
</event>
<event>
 8    1  0.1116841E+005  0.1043930E+01  0.7957747E-01            NaN
         13   -1    0    0    0    0  0.00000000000E+00  0.00000000000E+00  0.74505805969E-08  0.10566000000E+00  0.10566000000E+00 0. -1.
     999900   -1    0    0    0    0 -0.00000000000E+00 -0.00000000000E+00 -0.74505805969E-08  0.93827000000E+00  0.93827000000E+00 0. -1.
     999902    2    1    2    0    0 -0.42072716002E-02 -0.18294962932E-01 -0.14009057889E-01  0.10205064967E+01  0.10202376436E+01 0.  0.
     999903    2    3    3    0    0  0.11236162049E+00 -0.56152410078E-01  0.30691457667E-01  0.13088880973E+00  0.20290096677E-01 0.  0.
         14    1    1    2    0    0  0.42072716002E-02  0.18294962932E-01  0.14009057889E-01  0.23423503281E-01  0.00000000000E+00 0. -1.
     999901    1    3    3    0    0 -0.11656889209E+00  0.37857447146E-01 -0.44700515557E-01  0.88961768699E+00  0.88000000000E+00 0.  1.
        -11    1    4    4    0    0  0.45455584347E-01 -0.11995199334E-01  0.94176401160E-02  0.47948389146E-01  0.51100000000E-03 0.  1.
         11    1    4    4    0    0  0.66906036143E-01 -0.44157210744E-01  0.21273817551E-01  0.82940420587E-01  0.51100000000E-03 0. -1.
</event>
<event>
 8    1  0.1116841E+005  0.1043930E+01  0.7957747E-01            NaN
         13   -1    0    0    0    0  0.00000000000E+00  0.00000000000E+00  0.74505805969E-08  0.10566000000E+00  0.10566000000E+00 0. -1.
     999900   -1    0    0    0    0 -0.00000000000E+00 -0.00000000000E+00 -0.74505805969E-08  0.93827000000E+00  0.93827000000E+00 0.  1.
     999902    2    1    2    0    0 -0.15125843224E-01  0.13887642326E-01 -0.10788541847E-01  0.10207340870E+01  0.10204704925E+01 0.  0.
     999903    2    3    3    0    0  0.98355216940E-01  0.83056498938E-01  0.67261048414E-02  0.13058295123E+00  0.20845525921E-01 0.  0.
         14    1    1    2    0    0  0.15125843224E-01 -0.13887642326E-01  0.10788541847E-01  0.23195912955E-01  0.00000000000E+00 0. -1.
     999901    1    3    3    0    0 -0.11348106016E+00 -0.69168856612E-01 -0.17514646688E-01  0.89015113581E+00  0.88000000000E+00 0. -1.
        -11    1    4    4    0    0  0.29725258963E-01  0.28546386432E-01  0.11554462218E-01  0.42804835204E-01  0.51100000000E-03 0.  1.
         11    1    4    4    0    0  0.68629957977E-01  0.54510112507E-01 -0.48283573769E-02  0.87778116028E-01  0.51100000000E-03 0. -1.
</event>
<event>
 8    1  0.1116841E+005  0.1043930E+01  0.7957747E-01            NaN
         13   -1    0    0    0    0  0.00000000000E+00  0.00000000000E+00  0.74505805969E-08  0.10566000000E+00  0.10566000000E+00 0.  1.
     999900   -1    0    0    0    0 -0.00000000000E+00 -0.00000000000E+00 -0.74505805969E-08  0.93827000000E+00  0.93827000000E+00 0.  1.
     999902    2    1    2    0    0  0.19730084672E-01  0.30076867376E-02 -0.82878063622E-02  0.10223195823E+01  0.10220911496E+01 0.  0.
     999903    2    3    3    0    0  0.10435629549E+00 -0.66021373468E-01 -0.49854032979E-01  0.13459532445E+00  0.19529940991E-01 0.  0.
         14    1    1    2    0    0 -0.19730084672E-01 -0.30076867376E-02  0.82878063622E-02  0.21610417741E-01  0.00000000000E+00 0.  1.
     999901    1    3    3    0    0 -0.84626210822E-01  0.69029060206E-01  0.41566226617E-01  0.88772425781E+00  0.88000000000E+00 0. -1.
        -11    1    4    4    0    0  0.73376313120E-01 -0.51815816724E-01 -0.27942206865E-01  0.94074386712E-01  0.51100000000E-03 0.  1.
         11    1    4    4    0    0  0.30979982373E-01 -0.14205556745E-01 -0.21911826114E-01  0.40520937735E-01  0.51100000000E-03 0. -1.
</event>
<event>
 8    1  0.1116841E+005  0.1043930E+01  0.7957747E-01            NaN
         13   -1    0    0    0    0  0.00000000000E+00  0.00000000000E+00  0.74505805969E-08  0.10566000000E+00  0.10566000000E+00 0. -1.
     999900   -1    0    0    0    0 -0.00000000000E+00 -0.00000000000E+00 -0.74505805969E-08  0.93827000000E+00  0.93827000000E+00 0.  1.
     999902    2    1    2    0    0 -0.18402427131E-01 -0.14332788025E-01 -0.65649317397E-02  0.10196982756E+01  0.10194103182E+01 0.  0.
     999903    2    3    3    0    0  0.10698790988E+00 -0.47341396701E-01 -0.50805142199E-01  0.12909763501E+00  0.19935300090E-01 0.  0.
         14    1    1    2    0    0  0.18402427131E-01  0.14332788025E-01  0.65649317397E-02  0.24231724363E-01  0.00000000000E+00 0. -1.
     999901    1    3    3    0    0 -0.12539033701E+00  0.33008608676E-01  0.44240210459E-01  0.89060064063E+00  0.88000000000E+00 0. -1.
        -11    1    4    4    0    0  0.68232295416E-01 -0.39760276324E-01 -0.37488412688E-01  0.87419493924E-01  0.51100000000E-03 0. -1.
         11    1    4    4    0    0  0.38755614463E-01 -0.75811203771E-02 -0.13316729511E-01  0.41678141087E-01  0.51100000000E-03 0.  1.
</event>
<event>
 7    1  0.1116841E+005  0.1043930E+01  0.7957747E-01            NaN
         13   -1    0    0    0    0  0.00000000000E+00  0.00000000000E+00  0.74505805969E-08  0.10566000000E+00  0.10566000000E+00 0. -1.
     999900   -1    0    0    0    0 -0.00000000000E+00 -0.00000000000E+00 -0.74505805969E-08  0.93827000000E+00  0.93827000000E+00 0.  1.
     999903    2    1    2    0    0  0.78156622438E-02 -0.64555368019E-01 -0.87687911161E-01  0.11101089093E+00  0.20143684481E-01 0.  0.
         14    1    1    2    0    0 -0.27195401597E-01  0.18981391968E-01 -0.28721449305E-01  0.43872596906E-01  0.00000000000E+00 0.  1.
     999901    1    1    2    0    0  0.19379739353E-01  0.45573976051E-01  0.11640936047E+00  0.88904651217E+00  0.88000000000E+00 0.  1.
        -11    1    3    3    0    0 -0.64582654406E-02 -0.24360869219E-01 -0.36860603999E-01  0.44655642306E-01  0.51100000000E-03 0.  1.
         11    1    3    3    0    0  0.14273927684E-01 -0.40194498800E-01 -0.50827307162E-01  0.66355248622E-01  0.51100000000E-03 0. -1.
</event>
<event>
 8    1  0.1116841E+005  0.1043930E+01  0.7957747E-01            NaN
         13   -1    0    0    0    0  0.00000000000E+00  0.00000000000E+00  0.74505805969E-08  0.10566000000E+00  0.10566000000E+00 0. -1.
     999900   -1    0    0    0    0 -0.00000000000E+00 -0.00000000000E+00 -0.74505805969E-08  0.93827000000E+00  0.93827000000E+00 0. -1.
     999902    2    1    2    0    0  0.87066054477E-02 -0.15122192383E-01  0.14441641670E-01  0.10212794659E+01  0.10210282566E+01 0.  0.
     999903    2    3    3    0    0  0.69315799371E-01  0.10457800533E+00  0.31746631693E-01  0.13094184769E+00  0.19916817305E-01 0.  0.
         14    1    1    2    0    0 -0.87066054477E-02  0.15122192383E-01 -0.14441641670E-01  0.22650534100E-01  0.00000000000E+00 0.  1.
     999901    1    3    3    0    0 -0.60609193923E-01 -0.11970019771E+00 -0.17304990023E-01  0.89033761821E+00  0.88000000000E+00 0.  1.
        -11    1    4    4    0    0  0.45373750185E-01  0.69671664623E-01  0.11229234348E-01  0.83900386663E-01  0.51100000000E-03 0. -1.
         11    1    4    4    0    0  0.23942049186E-01  0.34906340706E-01  0.20517397345E-01  0.47041461027E-01  0.51100000000E-03 0.  1.
</event>
<event>
 8    1  0.1116841E+005  0.1043930E+01  0.7957747E-01            NaN
         13   -1    0    0    0    0  0.00000000000E+00  0.00000000000E+00  0.74505805969E-08  0.10566000000E+00  0.10566000000E+00 0. -1.
     999900   -1    0    0    0    0 -0.00000000000E+00 -0.00000000000E+00 -0.74505805969E-08  0.93827000000E+00  0.93827000000E+00 0. -1.
     999902    2    1    2    0    0  0.93597969783E-02  0.23963878092E-01 -0.53466939365E-02  0.10176533870E+01  0.10173140890E+01 0.  0.
     999903    2    3    3    0    0 -0.80207455707E-03  0.12945436693E+00 -0.94567956209E-02  0.13128529205E+00  0.19680459466E-01 0.  0.
         14    1    1    2    0    0 -0.93597969783E-02 -0.23963878092E-01  0.53466939365E-02  0.26276612961E-01  0.00000000000E+00 0.  1.
     999901    1    3    3    0    0  0.10161871535E-01 -0.10549048884E+00  0.41101016844E-02  0.88636809498E+00  0.88000000000E+00 0. -1.
        -11    1    4    4    0    0  0.48694078353E-02  0.80503647915E-01 -0.13756776154E-01  0.81817226007E-01  0.51100000000E-03 0.  1.
         11    1    4    4    0    0 -0.56714823924E-02  0.48950719019E-01  0.42999805332E-02  0.49468066048E-01  0.51100000000E-03 0. -1.
</event>
<event>
 8    1  0.1116841E+005  0.1043930E+01  0.7957747E-01            NaN
         13   -1    0    0    0    0  0.00000000000E+00  0.00000000000E+00  0.74505805969E-08  0.10566000000E+00  0.10566000000E+00 0.  1.
     999900   -1    0    0    0    0 -0.00000000000E+00 -0.00000000000E+00 -0.74505805969E-08  0.93827000000E+00  0.93827000000E+00 0. -1.
     999902    2    1    2    0    0 -0.16666578108E-01  0.13275759335E-01 -0.72077368056E-03  0.10226100533E+01  0.10223877841E+01 0.  0.
     999903    2    3    3    0    0  0.11681981678E+00 -0.50501895357E-01  0.17846805679E-01  0.13006819892E+00  0.20047864461E-01 0.  0.
         14    1    1    2    0    0  0.16666578108E-01 -0.13275759335E-01  0.72077368056E-03  0.21319946680E-01  0.00000000000E+00 0. -1.
     999901    1    3    3    0    0 -0.13348639489E+00  0.63777654692E-01 -0.18567579360E-01  0.89254185440E+00  0.88000000000E+00 0.  1.
        -11    1    4    4    0    0  0.50298370467E-01 -0.14022121746E-01  0.14182536568E-01  0.54110548273E-01  0.51100000000E-03 0. -1.
         11    1    4    4    0    0  0.66521446312E-01 -0.36479773611E-01  0.36642691115E-02  0.75957650643E-01  0.51100000000E-03 0.  1.
</event>
<event>
 8    1  0.1116841E+005  0.1043930E+01  0.7957747E-01            NaN
         13   -1    0    0    0    0  0.00000000000E+00  0.00000000000E+00  0.74505805969E-08  0.10566000000E+00  0.10566000000E+00 0. -1.
     999900   -1    0    0    0    0 -0.00000000000E+00 -0.00000000000E+00 -0.74505805969E-08  0.93827000000E+00  0.93827000000E+00 0. -1.
     999902    2    1    2    0    0 -0.16601875272E-01  0.11406700406E-01  0.11343855218E-01  0.10208125147E+01  0.10205507199E+01 0.  0.
     999903    2    3    3    0    0 -0.21455674585E-01 -0.11849261256E+00  0.46575334149E-01  0.13056611733E+00  0.19426889632E-01 0.  0.
         14    1    1    2    0    0  0.16601875272E-01 -0.11406700406E-01 -0.11343855218E-01  0.23117485328E-01  0.00000000000E+00 0.  1.
     999901    1    3    3    0    0  0.48537993128E-02  0.12989931296E+00 -0.35231478930E-01  0.89024639734E+00  0.88000000000E+00 0. -1.
        -11    1    4    4    0    0 -0.97231139966E-02 -0.17894405617E-01  0.11435882373E-01  0.23362132284E-01  0.51100000000E-03 0.  1.
         11    1    4    4    0    0 -0.11732560588E-01 -0.10059820694E+00  0.35139451775E-01  0.10720398504E+00  0.51100000000E-03 0. -1.
</event>
<event>
 8    1  0.1116841E+005  0.1043930E+01  0.7957747E-01            NaN
         13   -1    0    0    0    0  0.00000000000E+00  0.00000000000E+00  0.74505805969E-08  0.10566000000E+00  0.10566000000E+00 0. -1.
     999900   -1    0    0    0    0 -0.00000000000E+00 -0.00000000000E+00 -0.74505805969E-08  0.93827000000E+00  0.93827000000E+00 0. -1.
     999902    2    1    2    0    0  0.41713298443E-02  0.19651555582E-01 -0.12608523592E-01  0.10202116844E+01  0.10199359403E+01 0.  0.
     999903    2    3    3    0    0  0.98761538137E-01  0.72433656856E-01  0.44165404243E-01  0.13175429281E+00  0.20202343472E-01 0.  0.
         14    1    1    2    0    0 -0.41713298443E-02 -0.19651555582E-01  0.12608523592E-01  0.23718315637E-01  0.00000000000E+00 0.  1.
     999901    1    3    3    0    0 -0.94590208293E-01 -0.52782101274E-01 -0.56773927835E-01  0.88845739155E+00  0.88000000000E+00 0. -1.
        -11    1    4    4    0    0  0.80160685496E-01  0.57455618808E-01  0.43670064767E-01  0.10786203832E+00  0.51100000000E-03 0. -1.
         11    1    4    4    0    0  0.18600852641E-01  0.14978038048E-01  0.49533947575E-03  0.23892254497E-01  0.51100000000E-03 0.  1.
</event>
<event>
 8    1  0.1116841E+005  0.1043930E+01  0.7957747E-01            NaN
         13   -1    0    0    0    0  0.00000000000E+00  0.00000000000E+00  0.74505805969E-08  0.10566000000E+00  0.10566000000E+00 0.  1.
     999900   -1    0    0    0    0 -0.00000000000E+00 -0.00000000000E+00 -0.74505805969E-08  0.93827000000E+00  0.93827000000E+00 0.  1.
     999902    2    1    2    0    0 -0.15726446453E-02  0.21066505394E-01 -0.11743549972E-01  0.10197601463E+01  0.10194736751E+01 0.  0.
     999903    2    3    3    0    0 -0.12495636213E+00  0.21020801732E-01 -0.26123724509E-01  0.13103615472E+00  0.20786012593E-01 0.  0.
         14    1    1    2    0    0  0.15726446453E-02 -0.21066505394E-01  0.11743549972E-01  0.24169853674E-01  0.00000000000E+00 0. -1.
     999901    1    3    3    0    0  0.12338371749E+00  0.45703662040E-04  0.14380174536E-01  0.88872399160E+00  0.88000000000E+00 0. -1.
        -11    1    4    4    0    0 -0.73087508918E-01  0.90880727226E-02 -0.25061965806E-01  0.77799359103E-01  0.51100000000E-03 0.  1.
         11    1    4    4    0    0 -0.51868853215E-01  0.11932729009E-01 -0.10617587021E-02  0.53236795621E-01  0.51100000000E-03 0. -1.
</event>
<event>
 8    1  0.1116841E+005  0.1043930E+01  0.7957747E-01            NaN
         13   -1    0    0    0    0  0.00000000000E+00  0.00000000000E+00  0.74505805969E-08  0.10566000000E+00  0.10566000000E+00 0. -1.
     999900   -1    0    0    0    0 -0.00000000000E+00 -0.00000000000E+00 -0.74505805969E-08  0.93827000000E+00  0.93827000000E+00 0. -1.
     999902    2    1    2    0    0  0.17909655952E-01 -0.14426555628E-01 -0.37706666440E-02  0.10206255109E+01  0.10203594143E+01 0.  0.
     999903    2    3    3    0    0  0.88871399157E-01  0.17697334416E-01  0.93290756314E-01  0.13186883268E+00  0.21792259780E-01 0.  0.
         14    1    1    2    0    0 -0.17909655952E-01  0.14426555628E-01  0.37706666440E-02  0.23304489064E-01  0.00000000000E+00 0.  1.
     999901    1    3    3    0    0 -0.70961743205E-01 -0.32123890044E-01 -0.97061422958E-01  0.88875667825E+00  0.88000000000E+00 0. -1.
        -11    1    4    4    0    0  0.53515717077E-01  0.19822232557E-01  0.65274456894E-01  0.86705644116E-01  0.51100000000E-03 0. -1.
         11    1    4    4    0    0  0.35355682080E-01 -0.21248981409E-02  0.28016299421E-01  0.45163188568E-01  0.51100000000E-03 0.  1.
</event>
<event>
 8    1  0.1116841E+005  0.1043930E+01  0.7957747E-01            NaN
         13   -1    0    0    0    0  0.00000000000E+00  0.00000000000E+00  0.74505805969E-08  0.10566000000E+00  0.10566000000E+00 0.  1.
     999900   -1    0    0    0    0 -0.00000000000E+00 -0.00000000000E+00 -0.74505805969E-08  0.93827000000E+00  0.93827000000E+00 0.  1.
     999902    2    1    2    0    0  0.45704201776E-02 -0.38133546459E-02  0.23282991136E-01  0.10198981859E+01  0.10196150163E+01 0.  0.
     999903    2    3    3    0    0  0.79042291483E-01  0.21628362524E-01 -0.96468928359E-01  0.12830754953E+00  0.21002457435E-01 0.  0.
         14    1    1    2    0    0 -0.45704201776E-02  0.38133546459E-02 -0.23282991136E-01  0.24031814133E-01  0.00000000000E+00 0. -1.
     999901    1    3    3    0    0 -0.74471871306E-01 -0.25441717170E-01  0.11975191950E+00  0.89159063634E+00  0.88000000000E+00 0. -1.
        -11    1    4    4    0    0  0.45948075129E-01  0.19290496082E-01 -0.45453604858E-01  0.67451020473E-01  0.51100000000E-03 0. -1.
         11    1    4    4    0    0  0.33094216354E-01  0.23378664420E-02 -0.51015323501E-01  0.60856529054E-01  0.51100000000E-03 0.  1.
</event>
<event>
 8    1  0.1116841E+005  0.1043930E+01  0.7957747E-01            NaN
         13   -1    0    0    0    0  0.00000000000E+00  0.00000000000E+00  0.74505805969E-08  0.10566000000E+00  0.10566000000E+00 0.  1.
     999900   -1    0    0    0    0 -0.00000000000E+00 -0.00000000000E+00 -0.74505805969E-08  0.93827000000E+00  0.93827000000E+00 0.  1.
     999902    2    1    2    0    0  0.91066273898E-03 -0.11726872496E-01  0.19740893973E-01  0.10209506236E+01  0.10206919830E+01 0.  0.
     999903    2    3    3    0    0 -0.43605175998E-01 -0.10100320722E+00 -0.68189690857E-01  0.13095977443E+00  0.19939140882E-01 0.  0.
         14    1    1    2    0    0 -0.91066273898E-03  0.11726872496E-01 -0.19740893973E-01  0.22979376406E-01  0.00000000000E+00 0. -1.
     999901    1    3    3    0    0  0.44515838737E-01  0.89276334719E-01  0.87930584830E-01  0.88999084916E+00  0.88000000000E+00 0. -1.
        -11    1    4    4    0    0 -0.44688453963E-01 -0.90664918676E-01 -0.58782491078E-01  0.11693086750E+00  0.51100000000E-03 0. -1.
         11    1    4    4    0    0  0.10832779648E-02 -0.10338288539E-01 -0.94071997789E-02  0.14028906933E-01  0.51100000000E-03 0.  1.
</event>
<event>
 8    1  0.1116841E+005  0.1043930E+01  0.7957747E-01            NaN
         13   -1    0    0    0    0  0.00000000000E+00  0.00000000000E+00  0.74505805969E-08  0.10566000000E+00  0.10566000000E+00 0.  1.
     999900   -1    0    0    0    0 -0.00000000000E+00 -0.00000000000E+00 -0.74505805969E-08  0.93827000000E+00  0.93827000000E+00 0.  1.
     999902    2    1    2    0    0  0.16560030895E-01 -0.11236701952E-01  0.72947762198E-02  0.10226294870E+01  0.10224076270E+01 0.  0.
     999903    2    3    3    0    0 -0.42252213744E-01 -0.10874585092E+00  0.61735902365E-01  0.13362400306E+00  0.20812085341E-01 0.  0.
         14    1    1    2    0    0 -0.16560030895E-01  0.11236701952E-01 -0.72947762198E-02  0.21300513001E-01  0.00000000000E+00 0. -1.
     999901    1    3    3    0    0  0.58812244640E-01  0.97509148963E-01 -0.54441126145E-01  0.88900548394E+00  0.88000000000E+00 0.  1.
        -11    1    4    4    0    0 -0.11509981910E-01 -0.17314225116E-01  0.39251389756E-02  0.21164354748E-01  0.51100000000E-03 0. -1.
         11    1    4    4    0    0 -0.30742231834E-01 -0.91431625800E-01  0.57810763389E-01  0.11245964832E+00  0.51100000000E-03 0.  1.
</event>
<event>
 8    1  0.1116841E+005  0.1043930E+01  0.7957747E-01            NaN
         13   -1    0    0    0    0  0.00000000000E+00  0.00000000000E+00  0.74505805969E-08  0.10566000000E+00  0.10566000000E+00 0. -1.
     999900   -1    0    0    0    0 -0.00000000000E+00 -0.00000000000E+00 -0.74505805969E-08  0.93827000000E+00  0.93827000000E+00 0.  1.
     999902    2    1    2    0    0 -0.55770597070E-02  0.13492095068E-01 -0.18422580317E-01  0.10204240074E+01  0.10201532351E+01 0.  0.
     999903    2    3    3    0    0  0.11917759560E-01  0.29872167035E-01  0.12299906592E+00  0.12881060600E+00  0.20712861854E-01 0.  0.
         14    1    1    2    0    0  0.55770597070E-02 -0.13492095068E-01  0.18422580317E-01  0.23505992637E-01  0.00000000000E+00 0. -1.
     999901    1    3    3    0    0 -0.17494819267E-01 -0.16380071967E-01 -0.14142164624E+00  0.89161340136E+00  0.88000000000E+00 0.  1.
        -11    1    4    4    0    0  0.14837212848E-01  0.13197491685E-01  0.48488956910E-01  0.52399968846E-01  0.51100000000E-03 0. -1.
         11    1    4    4    0    0 -0.29194532878E-02  0.16674675350E-01  0.74510109008E-01  0.76410637158E-01  0.51100000000E-03 0.  1.
</event>
<event>
 8    1  0.1116841E+005  0.1043930E+01  0.7957747E-01            NaN
         13   -1    0    0    0    0  0.00000000000E+00  0.00000000000E+00  0.74505805969E-08  0.10566000000E+00  0.10566000000E+00 0. -1.
     999900   -1    0    0    0    0 -0.00000000000E+00 -0.00000000000E+00 -0.74505805969E-08  0.93827000000E+00  0.93827000000E+00 0.  1.
     999902    2    1    2    0    0 -0.35160252940E-02 -0.93799379549E-02 -0.21620125407E-01  0.10201019600E+01  0.10198236285E+01 0.  0.
     999903    2    3    3    0    0  0.55608600135E-01  0.61141642797E-01  0.95219279044E-01  0.12762200997E+00  0.19749669237E-01 0.  0.
         14    1    1    2    0    0  0.35160252940E-02  0.93799379549E-02  0.21620125407E-01  0.23828040048E-01  0.00000000000E+00 0. -1.
     999901    1    3    3    0    0 -0.59124625429E-01 -0.70521580752E-01 -0.11683940445E+00  0.89247994998E+00  0.88000000000E+00 0.  1.
        -11    1    4    4    0    0  0.32717651304E-01  0.49332010809E-01  0.65271348546E-01  0.88117546830E-01  0.51100000000E-03 0. -1.
         11    1    4    4    0    0  0.22890948832E-01  0.11809631987E-01  0.29947930498E-01  0.39504463143E-01  0.51100000000E-03 0.  1.
</event>
<event>
 8    1  0.1116841E+005  0.1043930E+01  0.7957747E-01            NaN
         13   -1    0    0    0    0  0.00000000000E+00  0.00000000000E+00  0.74505805969E-08  0.10566000000E+00  0.10566000000E+00 0.  1.
     999900   -1    0    0    0    0 -0.00000000000E+00 -0.00000000000E+00 -0.74505805969E-08  0.93827000000E+00  0.93827000000E+00 0. -1.
     999902    2    1    2    0    0 -0.39925444715E-04  0.21763225446E-01  0.10122719205E-01  0.10199277289E+01  0.10196452634E+01 0.  0.
     999903    2    3    3    0    0 -0.48775039409E-01 -0.28998167886E-01  0.11615145481E+00  0.13077424202E+00  0.19769767584E-01 0.  0.
         14    1    1    2    0    0  0.39925444715E-04 -0.21763225446E-01 -0.10122719205E-01  0.24002271142E-01  0.00000000000E+00 0. -1.
     999901    1    3    3    0    0  0.48735113965E-01  0.50761393332E-01 -0.10602873561E+00  0.88915348684E+00  0.88000000000E+00 0. -1.
        -11    1    4    4    0    0 -0.48821955186E-01 -0.30750043308E-01  0.10828795892E+00  0.12270163666E+00  0.51100000000E-03 0. -1.
         11    1    4    4    0    0  0.46915776993E-04  0.17518754216E-02  0.78634958896E-02  0.80726053532E-02  0.51100000000E-03 0.  1.
</event>
<event>
 8    1  0.1116841E+005  0.1043930E+01  0.7957747E-01            NaN
         13   -1    0    0    0    0  0.00000000000E+00  0.00000000000E+00  0.74505805969E-08  0.10566000000E+00  0.10566000000E+00 0.  1.
     999900   -1    0    0    0    0 -0.00000000000E+00 -0.00000000000E+00 -0.74505805969E-08  0.93827000000E+00  0.93827000000E+00 0.  1.
     999902    2    1    2    0    0  0.19691870321E-01 -0.21859962961E-02 -0.13328551899E-01  0.10200511677E+01  0.10197716343E+01 0.  0.
     999903    2    3    3    0    0  0.92097342406E-01  0.65768000109E-01  0.63242482876E-01  0.13116229872E+00  0.19914483402E-01 0.  0.
         14    1    1    2    0    0 -0.19691870321E-01  0.21859962961E-02  0.13328551899E-01  0.23878832306E-01  0.00000000000E+00 0.  1.
     999901    1    3    3    0    0 -0.72405472085E-01 -0.67953996405E-01 -0.76571034776E-01  0.88888886897E+00  0.88000000000E+00 0.  1.
        -11    1    4    4    0    0  0.31103247863E-01  0.11324388959E-01  0.16591568087E-01  0.37029651167E-01  0.51100000000E-03 0. -1.
         11    1    4    4    0    0  0.60994094543E-01  0.54443611151E-01  0.46650914789E-01  0.94132647556E-01  0.51100000000E-03 0.  1.
</event>
<event>
 8    1  0.1116841E+005  0.1043930E+01  0.7957747E-01            NaN
         13   -1    0    0    0    0  0.00000000000E+00  0.00000000000E+00  0.74505805969E-08  0.10566000000E+00  0.10566000000E+00 0. -1.
     999900   -1    0    0    0    0 -0.00000000000E+00 -0.00000000000E+00 -0.74505805969E-08  0.93827000000E+00  0.93827000000E+00 0. -1.
     999902    2    1    2    0    0 -0.19976701396E-01 -0.11182061082E-01 -0.82612244976E-02  0.10195916574E+01  0.10193011297E+01 0.  0.
     999903    2    3    3    0    0  0.14040139498E-01  0.57860844295E-01  0.11079721943E+00  0.12824493403E+00  0.25014724692E-01 0.  0.
         14    1    1    2    0    0  0.19976701396E-01  0.11182061082E-01  0.82612244976E-02  0.24338342567E-01  0.00000000000E+00 0. -1.
     999901    1    3    3    0    0 -0.34016840894E-01 -0.69042905377E-01 -0.11905844393E+00  0.89134672340E+00  0.88000000000E+00 0. -1.
        -11    1    4    4    0    0  0.30534597202E-02  0.45546132974E-01  0.94973451413E-01  0.10537547836E+00  0.51100000000E-03 0.  1.
         11    1    4    4    0    0  0.10986679778E-01  0.12314711321E-01  0.15823768019E-01  0.22869455673E-01  0.51100000000E-03 0. -1.
</event>
<event>
 8    1  0.1116841E+005  0.1043930E+01  0.7957747E-01            NaN
         13   -1    0    0    0    0  0.00000000000E+00  0.00000000000E+00  0.74505805969E-08  0.10566000000E+00  0.10566000000E+00 0. -1.
     999900   -1    0    0    0    0 -0.00000000000E+00 -0.00000000000E+00 -0.74505805969E-08  0.93827000000E+00  0.93827000000E+00 0.  1.
     999902    2    1    2    0    0  0.22948249396E-01 -0.20270667947E-02 -0.78209507084E-02  0.10196010374E+01  0.10193107363E+01 0.  0.
     999903    2    3    3    0    0 -0.18872920583E-01  0.12629403515E+00  0.23808686370E-02  0.12925313206E+00  0.19857823791E-01 0.  0.
         14    1    1    2    0    0 -0.22948249396E-01  0.20270667947E-02  0.78209507084E-02  0.24328962578E-01  0.00000000000E+00 0.  1.
     999901    1    3    3    0    0  0.41821169980E-01 -0.12832110195E+00 -0.10201819345E-01  0.89034790536E+00  0.88000000000E+00 0.  1.
        -11    1    4    4    0    0 -0.14742788585E-01  0.75249019134E-01  0.10507869969E-01  0.77397940207E-01  0.51100000000E-03 0.  1.
         11    1    4    4    0    0 -0.41301319982E-02  0.51045016017E-01 -0.81270013321E-02  0.51855191854E-01  0.51100000000E-03 0. -1.
</event>
<event>
 8    1  0.1116841E+005  0.1043930E+01  0.7957747E-01            NaN
         13   -1    0    0    0    0  0.00000000000E+00  0.00000000000E+00  0.74505805969E-08  0.10566000000E+00  0.10566000000E+00 0. -1.
     999900   -1    0    0    0    0 -0.00000000000E+00 -0.00000000000E+00 -0.74505805969E-08  0.93827000000E+00  0.93827000000E+00 0. -1.
     999902    2    1    2    0    0 -0.34001044566E-02  0.68501638320E-02 -0.21723156887E-01  0.10208999978E+01  0.10206402033E+01 0.  0.
     999903    2    3    3    0    0  0.95395857633E-01 -0.50763011001E-01  0.67754035608E-01  0.12899972985E+00  0.19314968846E-01 0.  0.
         14    1    1    2    0    0  0.34001044566E-02 -0.68501638320E-02  0.21723156887E-01  0.23030002171E-01  0.00000000000E+00 0. -1.
     999901    1    3    3    0    0 -0.98795962089E-01  0.57613174833E-01 -0.89477192495E-01  0.89190026798E+00  0.88000000000E+00 0. -1.
        -11    1    4    4    0    0  0.16254849851E-01 -0.92221417452E-02  0.37588880735E-02  0.19069829642E-01  0.51100000000E-03 0. -1.
         11    1    4    4    0    0  0.79141007782E-01 -0.41540869256E-01  0.63995147534E-01  0.10992990021E+00  0.51100000000E-03 0.  1.
</event>
<event>
 8    1  0.1116841E+005  0.1043930E+01  0.7957747E-01            NaN
         13   -1    0    0    0    0  0.00000000000E+00  0.00000000000E+00  0.74505805969E-08  0.10566000000E+00  0.10566000000E+00 0.  1.
     999900   -1    0    0    0    0 -0.00000000000E+00 -0.00000000000E+00 -0.74505805969E-08  0.93827000000E+00  0.93827000000E+00 0. -1.
     999902    2    1    2    0    0  0.46789785367E-02 -0.18339278887E-01 -0.13927245642E-01  0.10204312732E+01  0.10201606703E+01 0.  0.
     999903    2    3    3    0    0 -0.68491949645E-02  0.81015376546E-01 -0.10025465388E+00  0.13056798721E+00  0.19662170552E-01 0.  0.
         14    1    1    2    0    0 -0.46789785367E-02  0.18339278887E-01  0.13927245642E-01  0.23498726804E-01  0.00000000000E+00 0.  1.
     999901    1    3    3    0    0  0.11528173501E-01 -0.99354655433E-01  0.86327408233E-01  0.88986328599E+00  0.88000000000E+00 0.  1.
        -11    1    4    4    0    0 -0.10831193718E-01  0.50801693357E-01 -0.52053939307E-01  0.73539108804E-01  0.51100000000E-03 0.  1.
         11    1    4    4    0    0  0.39819987531E-02  0.30213683189E-01 -0.48200714568E-01  0.57028878402E-01  0.51100000000E-03 0. -1.
</event>
<event>
 8    1  0.1116841E+005  0.1043930E+01  0.7957747E-01            NaN
         13   -1    0    0    0    0  0.00000000000E+00  0.00000000000E+00  0.74505805969E-08  0.10566000000E+00  0.10566000000E+00 0. -1.
     999900   -1    0    0    0    0 -0.00000000000E+00 -0.00000000000E+00 -0.74505805969E-08  0.93827000000E+00  0.93827000000E+00 0. -1.
     999902    2    1    2    0    0  0.15065899964E-01 -0.12722573229E-01 -0.12906490133E-01  0.10203625924E+01  0.10200903869E+01 0.  0.
     999903    2    3    3    0    0 -0.11726533671E+00  0.34172285242E-01  0.33804395694E-01  0.12801031290E+00  0.18027722255E-01 0.  0.
         14    1    1    2    0    0 -0.15065899964E-01  0.12722573229E-01  0.12906490133E-01  0.23567407555E-01  0.00000000000E+00 0.  1.
     999901    1    3    3    0    0  0.13233123667E+00 -0.46894858471E-01 -0.46710885827E-01  0.89235227954E+00  0.88000000000E+00 0. -1.
        -11    1    4    4    0    0 -0.61757893904E-01  0.23262096155E-01  0.10496608502E-01  0.66825163584E-01  0.51100000000E-03 0. -1.
         11    1    4    4    0    0 -0.55507442803E-01  0.10910189087E-01  0.23307787192E-01  0.61185149319E-01  0.51100000000E-03 0.  1.
</event>
<event>
 8    1  0.1116841E+005  0.1043930E+01  0.7957747E-01            NaN
         13   -1    0    0    0    0  0.00000000000E+00  0.00000000000E+00  0.74505805969E-08  0.10566000000E+00  0.10566000000E+00 0.  1.
     999900   -1    0    0    0    0 -0.00000000000E+00 -0.00000000000E+00 -0.74505805969E-08  0.93827000000E+00  0.93827000000E+00 0. -1.
     999902    2    1    2    0    0  0.13260466689E-01 -0.21916938365E-02  0.20322429851E-01  0.10195651759E+01  0.10192740079E+01 0.  0.
     999903    2    3    3    0    0  0.27017717047E-01 -0.31743902670E-01  0.12456171432E+00  0.13281356275E+00  0.19651701847E-01 0.  0.
         14    1    1    2    0    0 -0.13260466689E-01  0.21916938365E-02 -0.20322429851E-01  0.24364824106E-01  0.00000000000E+00 0. -1.
     999901    1    3    3    0    0 -0.13757250358E-01  0.29552208834E-01 -0.10423928447E+00  0.88675161314E+00  0.88000000000E+00 0. -1.
        -11    1    4    4    0    0  0.13513048005E-01 -0.24585138164E-01  0.10015603760E+00  0.10401213618E+00  0.51100000000E-03 0. -1.
         11    1    4    4    0    0  0.13504669042E-01 -0.71587645057E-02  0.24405676721E-01  0.28801426569E-01  0.51100000000E-03 0.  1.
</event>
<event>
 7    1  0.1116841E+005  0.1043930E+01  0.7957747E-01            NaN
         13   -1    0    0    0    0  0.00000000000E+00  0.00000000000E+00  0.74505805969E-08  0.10566000000E+00  0.10566000000E+00 0. -1.
     999900   -1    0    0    0    0 -0.00000000000E+00 -0.00000000000E+00 -0.74505805969E-08  0.93827000000E+00  0.93827000000E+00 0.  1.
     999903    2    1    2    0    0  0.70793072876E-01  0.89175156312E-01 -0.30324392999E-01  0.11950210594E+00  0.19932808217E-01 0.  0.
         14    1    1    2    0    0 -0.37871243507E-01 -0.10041895877E-01  0.79641766130E-02  0.39981231430E-01  0.00000000000E+00 0.  1.
     999901    1    1    2    0    0 -0.32921829369E-01 -0.79133260435E-01  0.22360216386E-01  0.88444666263E+00  0.88000000000E+00 0. -1.
        -11    1    3    3    0    0  0.98179986230E-02  0.25764658947E-01 -0.86114296561E-02  0.28889939240E-01  0.51100000000E-03 0.  1.
         11    1    3    3    0    0  0.60975074253E-01  0.63410497365E-01 -0.21712963343E-01  0.90612166702E-01  0.51100000000E-03 0. -1.
</event>
<event>
 8    1  0.1116841E+005  0.1043930E+01  0.7957747E-01            NaN
         13   -1    0    0    0    0  0.00000000000E+00  0.00000000000E+00  0.74505805969E-08  0.10566000000E+00  0.10566000000E+00 0. -1.
     999900   -1    0    0    0    0 -0.00000000000E+00 -0.00000000000E+00 -0.74505805969E-08  0.93827000000E+00  0.93827000000E+00 0.  1.
     999902    2    1    2    0    0 -0.35613466610E-02  0.10621611858E-01  0.21631011721E-01  0.10195701458E+01  0.10192790980E+01 0.  0.
     999903    2    3    3    0    0 -0.12120830851E+00  0.44654325479E-01 -0.53456692676E-02  0.13067939068E+00  0.19054241834E-01 0.  0.
         14    1    1    2    0    0  0.35613466610E-02 -0.10621611858E-01 -0.21631011721E-01  0.24359854199E-01  0.00000000000E+00 0.  1.
     999901    1    3    3    0    0  0.11764696185E+00 -0.34032713621E-01  0.26976680989E-01  0.88889075512E+00  0.88000000000E+00 0. -1.
        -11    1    4    4    0    0 -0.70759197932E-01  0.24729870030E-01  0.62235370643E-02  0.75215850046E-01  0.51100000000E-03 0.  1.
         11    1    4    4    0    0 -0.50449110578E-01  0.19924455450E-01 -0.11569206332E-01  0.55463540631E-01  0.51100000000E-03 0. -1.
</event>
<event>
 8    1  0.1116841E+005  0.1043930E+01  0.7957747E-01            NaN
         13   -1    0    0    0    0  0.00000000000E+00  0.00000000000E+00  0.74505805969E-08  0.10566000000E+00  0.10566000000E+00 0.  1.
     999900   -1    0    0    0    0 -0.00000000000E+00 -0.00000000000E+00 -0.74505805969E-08  0.93827000000E+00  0.93827000000E+00 0. -1.
     999902    2    1    2    0    0 -0.16816009641E-01  0.77355457451E-02 -0.16068581340E-01  0.10194184485E+01  0.10191237202E+01 0.  0.
     999903    2    3    3    0    0 -0.40488460692E-01  0.58215114516E-01 -0.11030617851E+00  0.13263251242E+00  0.19890081098E-01 0.  0.
         14    1    1    2    0    0  0.16816009641E-01 -0.77355457451E-02  0.16068581340E-01  0.24511551450E-01  0.00000000000E+00 0.  1.
     999901    1    3    3    0    0  0.23672451051E-01 -0.50479568771E-01  0.94237597167E-01  0.88678593613E+00  0.88000000000E+00 0.  1.
        -11    1    4    4    0    0 -0.37596603111E-01  0.39962762349E-01 -0.77184620098E-01  0.94700863991E-01  0.51100000000E-03 0.  1.
         11    1    4    4    0    0 -0.28918575811E-02  0.18252352168E-01 -0.33121558409E-01  0.37931648426E-01  0.51100000000E-03 0. -1.
</event>
<event>
 8    1  0.1116841E+005  0.1043930E+01  0.7957747E-01            NaN
         13   -1    0    0    0    0  0.00000000000E+00  0.00000000000E+00  0.74505805969E-08  0.10566000000E+00  0.10566000000E+00 0. -1.
     999900   -1    0    0    0    0 -0.00000000000E+00 -0.00000000000E+00 -0.74505805969E-08  0.93827000000E+00  0.93827000000E+00 0. -1.
     999902    2    1    2    0    0 -0.23127941121E-01 -0.28947846628E-02 -0.16998647940E-02  0.10205596988E+01  0.10202920797E+01 0.  0.
     999903    2    3    3    0    0 -0.13910649317E-01 -0.18311851247E-01  0.12743100398E+00  0.13095449102E+00  0.19534274567E-01 0.  0.
         14    1    1    2    0    0  0.23127941121E-01  0.28947846628E-02  0.16998647940E-02  0.23370301219E-01  0.00000000000E+00 0.  1.
     999901    1    3    3    0    0 -0.92172918041E-02  0.15417066584E-01 -0.12913086877E+00  0.88960520776E+00  0.88000000000E+00 0. -1.
        -11    1    4    4    0    0  0.20828977302E-02  0.58786880422E-03  0.40609506902E-01  0.40670348222E-01  0.51100000000E-03 0.  1.
         11    1    4    4    0    0 -0.15993547047E-01 -0.18899720051E-01  0.86821497074E-01  0.90284142796E-01  0.51100000000E-03 0. -1.
</event>
<event>
 8    1  0.1116841E+005  0.1043930E+01  0.7957747E-01            NaN
         13   -1    0    0    0    0  0.00000000000E+00  0.00000000000E+00  0.74505805969E-08  0.10566000000E+00  0.10566000000E+00 0.  1.
     999900   -1    0    0    0    0 -0.00000000000E+00 -0.00000000000E+00 -0.74505805969E-08  0.93827000000E+00  0.93827000000E+00 0.  1.
     999902    2    1    2    0    0  0.12727093224E-01 -0.81318799285E-03  0.22516494355E-01  0.10180527379E+01  0.10177238056E+01 0.  0.
     999903    2    3    3    0    0  0.42989606231E-01 -0.63353615865E-01  0.10396808635E+00  0.13156444882E+00  0.25259737247E-01 0.  0.
         14    1    1    2    0    0 -0.12727093224E-01  0.81318799285E-03 -0.22516494355E-01  0.25877262117E-01  0.00000000000E+00 0. -1.
     999901    1    3    3    0    0 -0.30262513007E-01  0.62540427872E-01 -0.81451591997E-01  0.88648828907E+00  0.88000000000E+00 0.  1.
        -11    1    4    4    0    0 -0.33452240383E-02 -0.51034009841E-02  0.65693422809E-02  0.89806795108E-02  0.51100000000E-03 0. -1.
         11    1    4    4    0    0  0.46334830270E-01 -0.58250214881E-01  0.97398744071E-01  0.12258376931E+00  0.51100000000E-03 0.  1.
</event>
<event>
 8    1  0.1116841E+005  0.1043930E+01  0.7957747E-01            NaN
         13   -1    0    0    0    0  0.00000000000E+00  0.00000000000E+00  0.74505805969E-08  0.10566000000E+00  0.10566000000E+00 0.  1.
     999900   -1    0    0    0    0 -0.00000000000E+00 -0.00000000000E+00 -0.74505805969E-08  0.93827000000E+00  0.93827000000E+00 0. -1.
     999902    2    1    2    0    0 -0.14892511758E-01 -0.17664638591E-01 -0.50870805589E-02  0.10202719200E+01  0.10199975911E+01 0.  0.
     999903    2    3    3    0    0  0.31182627902E-02  0.73643430986E-01  0.10354845192E+00  0.12872089478E+00  0.20339822224E-01 0.  0.
         14    1    1    2    0    0  0.14892511758E-01  0.17664638591E-01  0.50870805589E-02  0.23658080049E-01  0.00000000000E+00 0. -1.
     999901    1    3    3    0    0 -0.18010774548E-01 -0.91308069577E-01 -0.10863553248E+00  0.89155102517E+00  0.88000000000E+00 0. -1.
        -11    1    4    4    0    0  0.74827632098E-02  0.34577886598E-01  0.35423713237E-01  0.50067180541E-01  0.51100000000E-03 0. -1.
         11    1    4    4    0    0 -0.43645004196E-02  0.39065544389E-01  0.68124738679E-01  0.78653714238E-01  0.51100000000E-03 0.  1.
</event>
<event>
 8    1  0.1116841E+005  0.1043930E+01  0.7957747E-01            NaN
         13   -1    0    0    0    0  0.00000000000E+00  0.00000000000E+00  0.74505805969E-08  0.10566000000E+00  0.10566000000E+00 0.  1.
     999900   -1    0    0    0    0 -0.00000000000E+00 -0.00000000000E+00 -0.74505805969E-08  0.93827000000E+00  0.93827000000E+00 0.  1.
     999902    2    1    2    0    0  0.95812387910E-03  0.46442496388E-03 -0.23310311124E-01  0.10205953842E+01  0.10203285911E+01 0.  0.
     999903    2    3    3    0    0  0.12917975239E+00  0.64931962020E-02  0.62519574996E-02  0.13079143956E+00  0.18377803590E-01 0.  0.
         14    1    1    2    0    0 -0.95812387910E-03 -0.46442496388E-03  0.23310311124E-01  0.23334615844E-01  0.00000000000E+00 0.  1.
     999901    1    3    3    0    0 -0.12822162851E+00 -0.60287712381E-02 -0.29562268623E-01  0.88980394460E+00  0.88000000000E+00 0.  1.
        -11    1    4    4    0    0  0.11231750432E-01 -0.12956953100E-02  0.54991562764E-02  0.12583039571E-01  0.51100000000E-03 0.  1.
         11    1    4    4    0    0  0.11794800196E+00  0.77888915120E-02  0.75280122315E-03  0.11820839998E+00  0.51100000000E-03 0. -1.
</event>
<event>
 8    1  0.1116841E+005  0.1043930E+01  0.7957747E-01            NaN
         13   -1    0    0    0    0  0.00000000000E+00  0.00000000000E+00  0.74505805969E-08  0.10566000000E+00  0.10566000000E+00 0.  1.
     999900   -1    0    0    0    0 -0.00000000000E+00 -0.00000000000E+00 -0.74505805969E-08  0.93827000000E+00  0.93827000000E+00 0.  1.
     999902    2    1    2    0    0 -0.34339705237E-02 -0.20371395721E-01  0.96624116716E-02  0.10211232441E+01  0.10208685182E+01 0.  0.
     999903    2    3    3    0    0  0.43133383532E-01  0.80905328523E-01  0.90709454671E-01  0.13039650902E+00  0.19206338520E-01 0.  0.
         14    1    1    2    0    0  0.34339705237E-02  0.20371395721E-01 -0.96624116716E-02  0.22806755940E-01  0.00000000000E+00 0. -1.
     999901    1    3    3    0    0 -0.46567354056E-01 -0.10127672424E+00 -0.81047042999E-01  0.89072673504E+00  0.88000000000E+00 0.  1.
        -11    1    4    4    0    0  0.80633667594E-02  0.34626657134E-01  0.36539543615E-01  0.50984533305E-01  0.51100000000E-03 0.  1.
         11    1    4    4    0    0  0.35070016773E-01  0.46278671389E-01  0.54169911056E-01  0.79411975714E-01  0.51100000000E-03 0. -1.
</event>
<event>
 8    1  0.1116841E+005  0.1043930E+01  0.7957747E-01            NaN
         13   -1    0    0    0    0  0.00000000000E+00  0.00000000000E+00  0.74505805969E-08  0.10566000000E+00  0.10566000000E+00 0. -1.
     999900   -1    0    0    0    0 -0.00000000000E+00 -0.00000000000E+00 -0.74505805969E-08  0.93827000000E+00  0.93827000000E+00 0. -1.
     999902    2    1    2    0    0  0.18931666658E-01 -0.62010037746E-02  0.14299396164E-01  0.10194079042E+01  0.10191129192E+01 0.  0.
     999903    2    3    3    0    0 -0.71629331086E-01  0.37298209582E-01  0.99335595643E-01  0.12961881063E+00  0.20286892236E-01 0.  0.
         14    1    1    2    0    0 -0.18931666658E-01  0.62010037746E-02 -0.14299396164E-01  0.24522095769E-01  0.00000000000E+00 0. -1.
     999901    1    3    3    0    0  0.90560997744E-01 -0.43499213357E-01 -0.85036199480E-01  0.88978909360E+00  0.88000000000E+00 0. -1.
        -11    1    4    4    0    0 -0.26178026495E-01  0.23937409208E-01  0.48995106654E-01  0.60490249030E-01  0.51100000000E-03 0. -1.
         11    1    4    4    0    0 -0.45451304591E-01  0.13360800375E-01  0.50340488990E-01  0.69128561596E-01  0.51100000000E-03 0.  1.
</event>
<event>
 8    1  0.1116841E+005  0.1043930E+01  0.7957747E-01            NaN
         13   -1    0    0    0    0  0.00000000000E+00  0.00000000000E+00  0.74505805969E-08  0.10566000000E+00  0.10566000000E+00 0.  1.
     999900   -1    0    0    0    0 -0.00000000000E+00 -0.00000000000E+00 -0.74505805969E-08  0.93827000000E+00  0.93827000000E+00 0.  1.
     999902    2    1    2    0    0 -0.16243745079E-01 -0.16240832532E-01 -0.50325701549E-02  0.10204150971E+01  0.10201441171E+01 0.  0.
     999903    2    3    3    0    0 -0.12210388510E+00  0.26481048035E-01 -0.40223978477E-01  0.13234417452E+00  0.16923576007E-01 0.  0.
         14    1    1    2    0    0  0.16243745079E-01  0.16240832532E-01  0.50325701549E-02  0.23514902889E-01  0.00000000000E+00 0.  1.
     999901    1    3    3    0    0  0.10586014002E+00 -0.42721880568E-01  0.35191408322E-01  0.88807092259E+00  0.88000000000E+00 0. -1.
        -11    1    4    4    0    0 -0.66759900611E-01  0.83157026756E-02 -0.15362592401E-01  0.69009460270E-01  0.51100000000E-03 0.  1.
         11    1    4    4    0    0 -0.55343984487E-01  0.18165345360E-01 -0.24861386076E-01  0.63334714254E-01  0.51100000000E-03 0. -1.
</event>
<event>
 8    1  0.1116841E+005  0.1043930E+01  0.7957747E-01            NaN
         13   -1    0    0    0    0  0.00000000000E+00  0.00000000000E+00  0.74505805969E-08  0.10566000000E+00  0.10566000000E+00 0.  1.
     999900   -1    0    0    0    0 -0.00000000000E+00 -0.00000000000E+00 -0.74505805969E-08  0.93827000000E+00  0.93827000000E+00 0. -1.
     999902    2    1    2    0    0  0.11720229995E-01  0.42139863559E-02  0.19875943318E-01  0.10204741991E+01  0.10202045954E+01 0.  0.
     999903    2    3    3    0    0 -0.95495055718E-01  0.56130189606E-01  0.67562362142E-01  0.13116862498E+00  0.19251793421E-01 0.  0.
         14    1    1    2    0    0 -0.11720229995E-01 -0.42139863559E-02 -0.19875943318E-01  0.23455800880E-01  0.00000000000E+00 0. -1.
     999901    1    3    3    0    0  0.10721528571E+00 -0.51916203250E-01 -0.47686418824E-01  0.88930557414E+00  0.88000000000E+00 0. -1.
        -11    1    4    4    0    0 -0.94228118067E-01  0.56581611322E-01  0.68444471614E-01  0.12948097849E+00  0.51100000000E-03 0. -1.
         11    1    4    4    0    0 -0.12669376503E-02 -0.45142171620E-03 -0.88210947185E-03  0.16876464962E-02  0.51100000000E-03 0.  1.
</event>
<event>
 8    1  0.1116841E+005  0.1043930E+01  0.7957747E-01            NaN
         13   -1    0    0    0    0  0.00000000000E+00  0.00000000000E+00  0.74505805969E-08  0.10566000000E+00  0.10566000000E+00 0.  1.
     999900   -1    0    0    0    0 -0.00000000000E+00 -0.00000000000E+00 -0.74505805969E-08  0.93827000000E+00  0.93827000000E+00 0. -1.
     999902    2    1    2    0    0 -0.34475903812E-02 -0.17513799564E-01 -0.15844575224E-01  0.10200622473E+01  0.10197829763E+01 0.  0.
     999903    2    3    3    0    0 -0.57032266027E-01 -0.10195826499E-02  0.11384781807E+00  0.12879152888E+00  0.19292830645E-01 0.  0.
         14    1    1    2    0    0  0.34475903812E-02  0.17513799564E-01  0.15844575224E-01  0.23867752693E-01  0.00000000000E+00 0.  1.
     999901    1    3    3    0    0  0.53584675646E-01 -0.16494216914E-01 -0.12969239329E+00  0.89127071843E+00  0.88000000000E+00 0. -1.
        -11    1    4    4    0    0 -0.17945463544E-01 -0.34306852653E-02  0.56208049106E-01  0.59105119647E-01  0.51100000000E-03 0. -1.
         11    1    4    4    0    0 -0.39086802483E-01  0.24111026154E-02  0.57639768962E-01  0.69686409228E-01  0.51100000000E-03 0.  1.
</event>
<event>
 8    1  0.1116841E+005  0.1043930E+01  0.7957747E-01            NaN
         13   -1    0    0    0    0  0.00000000000E+00  0.00000000000E+00  0.74505805969E-08  0.10566000000E+00  0.10566000000E+00 0. -1.
     999900   -1    0    0    0    0 -0.00000000000E+00 -0.00000000000E+00 -0.74505805969E-08  0.93827000000E+00  0.93827000000E+00 0.  1.
     999902    2    1    2    0    0  0.20440004523E-01  0.77766827497E-02 -0.31479288222E-02  0.10218352034E+01  0.10215963014E+01 0.  0.
     999903    2    3    3    0    0  0.12687210533E+00  0.80485638380E-02  0.39080506588E-01  0.13441697804E+00  0.19476331780E-01 0.  0.
         14    1    1    2    0    0 -0.20440004523E-01 -0.77766827497E-02  0.31479288222E-02  0.22094796567E-01  0.00000000000E+00 0.  1.
     999901    1    3    3    0    0 -0.10643210081E+00 -0.27188108834E-03 -0.42228435410E-01  0.88741822539E+00  0.88000000000E+00 0. -1.
        -11    1    4    4    0    0  0.77139715353E-01  0.87715041756E-03  0.32599443588E-01  0.83751357725E-01  0.51100000000E-03 0. -1.
         11    1    4    4    0    0  0.49732389978E-01  0.71714134205E-02  0.64810629994E-02  0.50665620315E-01  0.51100000000E-03 0.  1.
</event>
<event>
 8    1  0.1116841E+005  0.1043930E+01  0.7957747E-01            NaN
         13   -1    0    0    0    0  0.00000000000E+00  0.00000000000E+00  0.74505805969E-08  0.10566000000E+00  0.10566000000E+00 0. -1.
     999900   -1    0    0    0    0 -0.00000000000E+00 -0.00000000000E+00 -0.74505805969E-08  0.93827000000E+00  0.93827000000E+00 0.  1.
     999902    2    1    2    0    0  0.15196716943E-01 -0.22571907941E-02 -0.17898308826E-01  0.10203421944E+01  0.10200695119E+01 0.  0.
     999903    2    3    3    0    0 -0.86826411208E-01 -0.87015274622E-01  0.30811387001E-01  0.12907047041E+00  0.24481851667E-01 0.  0.
         14    1    1    2    0    0 -0.15196716943E-01  0.22571907941E-02  0.17898308826E-01  0.23587805641E-01  0.00000000000E+00 0. -1.
     999901    1    3    3    0    0  0.10202312815E+00  0.84758083828E-01 -0.48709695826E-01  0.89127172395E+00  0.88000000000E+00 0. -1.
        -11    1    4    4    0    0 -0.48538357575E-01 -0.37302694481E-01  0.57040565604E-02  0.61483823514E-01  0.51100000000E-03 0.  1.
         11    1    4    4    0    0 -0.38288053633E-01 -0.49712580140E-01  0.25107330440E-01  0.67586646892E-01  0.51100000000E-03 0. -1.
</event>
<event>
 8    1  0.1116841E+005  0.1043930E+01  0.7957747E-01            NaN
         13   -1    0    0    0    0  0.00000000000E+00  0.00000000000E+00  0.74505805969E-08  0.10566000000E+00  0.10566000000E+00 0. -1.
     999900   -1    0    0    0    0 -0.00000000000E+00 -0.00000000000E+00 -0.74505805969E-08  0.93827000000E+00  0.93827000000E+00 0. -1.
     999902    2    1    2    0    0 -0.17040088791E-01  0.11033792369E-03  0.17221880765E-01  0.10197025367E+01  0.10194146818E+01 0.  0.
     999903    2    3    3    0    0 -0.32109147792E-01  0.91009517761E-01 -0.83665660278E-01  0.12915886379E+00  0.19192177864E-01 0.  0.
         14    1    1    2    0    0  0.17040088791E-01 -0.11033792369E-03 -0.17221880765E-01  0.24227463291E-01  0.00000000000E+00 0.  1.
     999901    1    3    3    0    0  0.15069059001E-01 -0.90899179838E-01  0.10088754104E+00  0.89054367292E+00  0.88000000000E+00 0.  1.
        -11    1    4    4    0    0 -0.25040547821E-01  0.61943783758E-01 -0.68219895135E-01  0.95489667476E-01  0.51100000000E-03 0. -1.
         11    1    4    4    0    0 -0.70685999708E-02  0.29065734004E-01 -0.15445765143E-01  0.33669196316E-01  0.51100000000E-03 0.  1.
</event>
<event>
 8    1  0.1116841E+005  0.1043930E+01  0.7957747E-01            NaN
         13   -1    0    0    0    0  0.00000000000E+00  0.00000000000E+00  0.74505805969E-08  0.10566000000E+00  0.10566000000E+00 0.  1.
     999900   -1    0    0    0    0 -0.00000000000E+00 -0.00000000000E+00 -0.74505805969E-08  0.93827000000E+00  0.93827000000E+00 0.  1.
     999902    2    1    2    0    0  0.20678463491E-01 -0.11196262784E-01 -0.43875471154E-02  0.10200091781E+01  0.10197286490E+01 0.  0.
     999903    2    3    3    0    0 -0.11010634646E-01  0.11785158087E+00  0.45964445916E-01  0.12860979053E+00  0.20433275356E-01 0.  0.
         14    1    1    2    0    0 -0.20678463491E-01  0.11196262784E-01  0.43875471154E-02  0.23920821942E-01  0.00000000000E+00 0.  1.
     999901    1    3    3    0    0  0.31689098138E-01 -0.12904784365E+00 -0.50351993032E-01  0.89139938753E+00  0.88000000000E+00 0.  1.
        -11    1    4    4    0    0 -0.14000808055E-01  0.75545732995E-01  0.36910169896E-01  0.85239674816E-01  0.51100000000E-03 0.  1.
         11    1    4    4    0    0  0.29901734084E-02  0.42305847874E-01  0.90542760199E-02  0.43370115709E-01  0.51100000000E-03 0. -1.
</event>
<event>
 8    1  0.1116841E+005  0.1043930E+01  0.7957747E-01            NaN
         13   -1    0    0    0    0  0.00000000000E+00  0.00000000000E+00  0.74505805969E-08  0.10566000000E+00  0.10566000000E+00 0. -1.
     999900   -1    0    0    0    0 -0.00000000000E+00 -0.00000000000E+00 -0.74505805969E-08  0.93827000000E+00  0.93827000000E+00 0.  1.
     999902    2    1    2    0    0 -0.58916114366E-02 -0.11171157178E-02 -0.21435497779E-01  0.10216715275E+01  0.10214290335E+01 0.  0.
     999903    2    3    3    0    0 -0.41547946105E-01 -0.45184844274E-01  0.11239728597E+00  0.12974969634E+00  0.20831030451E-01 0.  0.
         14    1    1    2    0    0  0.58916114366E-02  0.11171157178E-02  0.21435497779E-01  0.22258472497E-01  0.00000000000E+00 0. -1.
     999901    1    3    3    0    0  0.35656334669E-01  0.44067728556E-01 -0.13383278375E+00  0.89192183116E+00  0.88000000000E+00 0.  1.
        -11    1    4    4    0    0 -0.28360720913E-01 -0.18160221044E-01  0.47573926697E-01  0.58289482254E-01  0.51100000000E-03 0.  1.
         11    1    4    4    0    0 -0.13187225192E-01 -0.27024623230E-01  0.64823359270E-01  0.71460214085E-01  0.51100000000E-03 0. -1.
</event>
<event>
 8    1  0.1116841E+005  0.1043930E+01  0.7957747E-01            NaN
         13   -1    0    0    0    0  0.00000000000E+00  0.00000000000E+00  0.74505805969E-08  0.10566000000E+00  0.10566000000E+00 0.  1.
     999900   -1    0    0    0    0 -0.00000000000E+00 -0.00000000000E+00 -0.74505805969E-08  0.93827000000E+00  0.93827000000E+00 0.  1.
     999902    2    1    2    0    0  0.13415721626E-01  0.15380681868E-01 -0.80135823391E-02  0.10220036582E+01  0.10217684243E+01 0.  0.
     999903    2    3    3    0    0 -0.92170623950E-01 -0.38994109614E-01  0.79828379221E-01  0.12969132248E+00  0.20767871672E-01 0.  0.
         14    1    1    2    0    0 -0.13415721626E-01 -0.15380681868E-01  0.80135823391E-02  0.21926341770E-01  0.00000000000E+00 0.  1.
     999901    1    3    3    0    0  0.10558634558E+00  0.54374791482E-01 -0.87841961560E-01  0.89231233575E+00  0.88000000000E+00 0.  1.
        -11    1    4    4    0    0 -0.32323167371E-01 -0.34188835428E-02  0.27818989846E-01  0.42785899904E-01  0.51100000000E-03 0.  1.
         11    1    4    4    0    0 -0.59847456579E-01 -0.35575226071E-01  0.52009389375E-01  0.86905422576E-01  0.51100000000E-03 0. -1.
</event>
<event>
 8    1  0.1116841E+005  0.1043930E+01  0.7957747E-01            NaN
         13   -1    0    0    0    0  0.00000000000E+00  0.00000000000E+00  0.74505805969E-08  0.10566000000E+00  0.10566000000E+00 0.  1.
     999900   -1    0    0    0    0 -0.00000000000E+00 -0.00000000000E+00 -0.74505805969E-08  0.93827000000E+00  0.93827000000E+00 0. -1.
     999902    2    1    2    0    0  0.15300911130E-01  0.16455332261E-01 -0.57539203860E-02  0.10207350988E+01  0.10204715275E+01 0.  0.
     999903    2    3    3    0    0 -0.66536935299E-01  0.57110696594E-01  0.94369513355E-01  0.13035596960E+00  0.19956911953E-01 0.  0.
         14    1    1    2    0    0 -0.15300911130E-01 -0.16455332261E-01  0.57539203860E-02  0.23194901186E-01  0.00000000000E+00 0. -1.
     999901    1    3    3    0    0  0.81837846430E-01 -0.40655364334E-01 -0.10012343374E+00  0.89037912921E+00  0.88000000000E+00 0. -1.
        -11    1    4    4    0    0 -0.19160663018E-01  0.57026079542E-02  0.22122840326E-01  0.29821668798E-01  0.51100000000E-03 0. -1.
         11    1    4    4    0    0 -0.47376272281E-01  0.51408088640E-01  0.72246673028E-01  0.10053430080E+00  0.51100000000E-03 0.  1.
</event>
<event>
 8    1  0.1116841E+005  0.1043930E+01  0.7957747E-01            NaN
         13   -1    0    0    0    0  0.00000000000E+00  0.00000000000E+00  0.74505805969E-08  0.10566000000E+00  0.10566000000E+00 0.  1.
     999900   -1    0    0    0    0 -0.00000000000E+00 -0.00000000000E+00 -0.74505805969E-08  0.93827000000E+00  0.93827000000E+00 0. -1.
     999902    2    1    2    0    0 -0.19543688660E-01  0.87606583431E-02 -0.11549089995E-01  0.10195971748E+01  0.10193067804E+01 0.  0.
     999903    2    3    3    0    0 -0.49492763370E-01  0.10206822769E+00  0.62483024724E-01  0.13106805117E+00  0.20180409568E-01 0.  0.
         14    1    1    2    0    0  0.19543688660E-01 -0.87606583431E-02  0.11549089995E-01  0.24332825170E-01  0.00000000000E+00 0.  1.
     999901    1    3    3    0    0  0.29949074710E-01 -0.93307569347E-01 -0.74032114719E-01  0.88852912366E+00  0.88000000000E+00 0. -1.
        -11    1    4    4    0    0 -0.40892105188E-01  0.73165402152E-01  0.54111753478E-01  0.99768147844E-01  0.51100000000E-03 0. -1.
         11    1    4    4    0    0 -0.86006581820E-02  0.28902825538E-01  0.83712712465E-02  0.31299903331E-01  0.51100000000E-03 0.  1.
</event>
<event>
 8    1  0.1116841E+005  0.1043930E+01  0.7957747E-01            NaN
         13   -1    0    0    0    0  0.00000000000E+00  0.00000000000E+00  0.74505805969E-08  0.10566000000E+00  0.10566000000E+00 0.  1.
     999900   -1    0    0    0    0 -0.00000000000E+00 -0.00000000000E+00 -0.74505805969E-08  0.93827000000E+00  0.93827000000E+00 0.  1.
     999902    2    1    2    0    0  0.51960849715E-02 -0.10836660101E-01  0.22125480154E-01  0.10187512516E+01  0.10184400538E+01 0.  0.
     999903    2    3    3    0    0  0.10804570331E+00  0.66902081233E-01 -0.72055295252E-02  0.12887392067E+00  0.20169414866E-01 0.  0.
         14    1    1    2    0    0 -0.51960849715E-02  0.10836660101E-01 -0.22125480154E-01  0.25178748444E-01  0.00000000000E+00 0. -1.
     999901    1    3    3    0    0 -0.10284961834E+00 -0.77738741334E-01  0.29331009679E-01  0.88987733089E+00  0.88000000000E+00 0. -1.
        -11    1    4    4    0    0  0.90715240798E-01  0.51158178812E-01 -0.12406668179E-01  0.10488374854E+00  0.51100000000E-03 0. -1.
         11    1    4    4    0    0  0.17330462511E-01  0.15743902421E-01  0.52011386537E-02  0.23990172125E-01  0.51100000000E-03 0.  1.
</event>
<event>
 8    1  0.1116841E+005  0.1043930E+01  0.7957747E-01            NaN
         13   -1    0    0    0    0  0.00000000000E+00  0.00000000000E+00  0.74505805969E-08  0.10566000000E+00  0.10566000000E+00 0.  1.
     999900   -1    0    0    0    0 -0.00000000000E+00 -0.00000000000E+00 -0.74505805969E-08  0.93827000000E+00  0.93827000000E+00 0. -1.
     999902    2    1    2    0    0  0.17276395136E-01  0.85062761386E-03  0.14646075051E-01  0.10212649408E+01  0.10210134055E+01 0.  0.
     999903    2    3    3    0    0  0.84007509523E-01 -0.86899325885E-01  0.53234213133E-01  0.13354756435E+00  0.19806968490E-01 0.  0.
         14    1    1    2    0    0 -0.17276395136E-01 -0.85062761386E-03 -0.14646075051E-01  0.22665059246E-01  0.00000000000E+00 0. -1.
     999901    1    3    3    0    0 -0.66731114387E-01  0.87749953499E-01 -0.38588138081E-01  0.88771737640E+00  0.88000000000E+00 0. -1.
        -11    1    4    4    0    0  0.67973399355E-02 -0.15043218235E-01  0.32671103093E-02  0.16835598470E-01  0.51100000000E-03 0. -1.
         11    1    4    4    0    0  0.77210169587E-01 -0.71856107650E-01  0.49967102823E-01  0.11671196588E+00  0.51100000000E-03 0.  1.
</event>
<event>
 8    1  0.1116841E+005  0.1043930E+01  0.7957747E-01            NaN
         13   -1    0    0    0    0  0.00000000000E+00  0.00000000000E+00  0.74505805969E-08  0.10566000000E+00  0.10566000000E+00 0. -1.
     999900   -1    0    0    0    0 -0.00000000000E+00 -0.00000000000E+00 -0.74505805969E-08  0.93827000000E+00  0.93827000000E+00 0. -1.
     999902    2    1    2    0    0  0.17142471151E-02  0.11232585039E-01 -0.17961731178E-01  0.10226759793E+01  0.10224550969E+01 0.  0.
     999903    2    3    3    0    0 -0.14763080094E-01 -0.67648819780E-01 -0.11287555971E+00  0.13391143612E+00  0.19926600079E-01 0.  0.
         14    1    1    2    0    0 -0.17142471151E-02 -0.11232585039E-01  0.17961731178E-01  0.21254020719E-01  0.00000000000E+00 0. -1.
     999901    1    3    3    0    0  0.16477327209E-01  0.78881404819E-01  0.94913828536E-01  0.88876454316E+00  0.88000000000E+00 0.  1.
        -11    1    4    4    0    0  0.49032921216E-02 -0.12631209755E-01 -0.19132692808E-01  0.23450176728E-01  0.51100000000E-03 0.  1.
         11    1    4    4    0    0 -0.19666372216E-01 -0.55017610025E-01 -0.93742866906E-01  0.11046125939E+00  0.51100000000E-03 0. -1.
</event>
<event>
 8    1  0.1116841E+005  0.1043930E+01  0.7957747E-01            NaN
         13   -1    0    0    0    0  0.00000000000E+00  0.00000000000E+00  0.74505805969E-08  0.10566000000E+00  0.10566000000E+00 0. -1.
     999900   -1    0    0    0    0 -0.00000000000E+00 -0.00000000000E+00 -0.74505805969E-08  0.93827000000E+00  0.93827000000E+00 0.  1.
     999902    2    1    2    0    0 -0.98381330623E-04 -0.15029841642E-01  0.18148688870E-01  0.10203656047E+01  0.10200934695E+01 0.  0.
     999903    2    3    3    0    0  0.12833851122E+00 -0.15665331682E-01  0.40447923978E-02  0.13093018876E+00  0.20252849285E-01 0.  0.
         14    1    1    2    0    0  0.98381330623E-04  0.15029841642E-01 -0.18148688870E-01  0.23564395311E-01  0.00000000000E+00 0.  1.
     999901    1    3    3    0    0 -0.12843689255E+00  0.63549004032E-03  0.14103896472E-01  0.88943541593E+00  0.88000000000E+00 0.  1.
        -11    1    4    4    0    0  0.17415059439E-01 -0.60115124463E-02  0.65451681115E-02  0.19558193264E-01  0.51100000000E-03 0. -1.
         11    1    4    4    0    0  0.11092345178E+00 -0.96538192360E-02 -0.25003757136E-02  0.11137199549E+00  0.51100000000E-03 0.  1.
</event>
<event>
 8    1  0.1116841E+005  0.1043930E+01  0.7957747E-01            NaN
         13   -1    0    0    0    0  0.00000000000E+00  0.00000000000E+00  0.74505805969E-08  0.10566000000E+00  0.10566000000E+00 0. -1.
     999900   -1    0    0    0    0 -0.00000000000E+00 -0.00000000000E+00 -0.74505805969E-08  0.93827000000E+00  0.93827000000E+00 0. -1.
     999902    2    1    2    0    0 -0.26805815982E-02 -0.18411820357E-01  0.13770289326E-01  0.10207826132E+01  0.10205201330E+01 0.  0.
     999903    2    3    3    0    0  0.75951235745E-01  0.70306724863E-01  0.76772961669E-01  0.13060101395E+00  0.21234675137E-01 0.  0.
         14    1    1    2    0    0  0.26805815982E-02  0.18411820357E-01 -0.13770289326E-01  0.23147386779E-01  0.00000000000E+00 0.  1.
     999901    1    3    3    0    0 -0.78631817343E-01 -0.88718545220E-01 -0.63002672343E-01  0.89018159927E+00  0.88000000000E+00 0. -1.
        -11    1    4    4    0    0  0.29432365478E-01  0.14178553630E-01  0.21463634472E-01  0.39092764630E-01  0.51100000000E-03 0.  1.
         11    1    4    4    0    0  0.46518870267E-01  0.56128171233E-01  0.55309327197E-01  0.91508249316E-01  0.51100000000E-03 0. -1.
</event>
<event>
 7    1  0.1116841E+005  0.1043930E+01  0.7957747E-01            NaN
         13   -1    0    0    0    0  0.00000000000E+00  0.00000000000E+00  0.74505805969E-08  0.10566000000E+00  0.10566000000E+00 0. -1.
     999900   -1    0    0    0    0 -0.00000000000E+00 -0.00000000000E+00 -0.74505805969E-08  0.93827000000E+00  0.93827000000E+00 0. -1.
     999902    2    1    2    0    0 -0.15174100017E-01 -0.81506522441E-02 -0.16810403837E-01  0.10198618443E+01  0.10195778074E+01 0.  0.
         14    1    1    2    0    0  0.15174100017E-01  0.81506522441E-02  0.16810403837E-01  0.24068155736E-01  0.00000000000E+00 0. -1.
     999901    1    3    3    0    0  0.70997358612E-01  0.80196795939E-01  0.17896880789E-01  0.88667494007E+00  0.88000000000E+00 0.  1.
        -11    1    3    3    0    0 -0.46372464220E-01 -0.52132968590E-01 -0.11792274554E-02  0.69784694241E-01  0.51100000000E-03 0. -1.
         11    1    3    3    0    0 -0.39798994409E-01 -0.36214479593E-01 -0.33528057171E-01  0.63402209952E-01  0.51100000000E-03 0.  1.
</event>
<event>
 8    1  0.1116841E+005  0.1043930E+01  0.7957747E-01            NaN
         13   -1    0    0    0    0  0.00000000000E+00  0.00000000000E+00  0.74505805969E-08  0.10566000000E+00  0.10566000000E+00 0.  1.
     999900   -1    0    0    0    0 -0.00000000000E+00 -0.00000000000E+00 -0.74505805969E-08  0.93827000000E+00  0.93827000000E+00 0. -1.
     999902    2    1    2    0    0 -0.86137299714E-02 -0.17516100127E-01 -0.13444136945E-01  0.10202286303E+01  0.10199532848E+01 0.  0.
     999903    2    3    3    0    0  0.11515591548E-01 -0.89796451174E-01 -0.95593268911E-01  0.13322349017E+00  0.20357155470E-01 0.  0.
         14    1    1    2    0    0  0.86137299714E-02  0.17516100127E-01  0.13444136945E-01  0.23701369705E-01  0.00000000000E+00 0.  1.
     999901    1    3    3    0    0 -0.20129321519E-01  0.72280351047E-01  0.82149131966E-01  0.88700514013E+00  0.88000000000E+00 0.  1.
        -11    1    4    4    0    0  0.46857564233E-02 -0.22519237734E-01 -0.12820319325E-01  0.26338073012E-01  0.51100000000E-03 0.  1.
         11    1    4    4    0    0  0.68298351248E-02 -0.67277213440E-01 -0.82772949586E-01  0.10688541715E+00  0.51100000000E-03 0. -1.
</event>
<event>
 8    1  0.1116841E+005  0.1043930E+01  0.7957747E-01            NaN
         13   -1    0    0    0    0  0.00000000000E+00  0.00000000000E+00  0.74505805969E-08  0.10566000000E+00  0.10566000000E+00 0. -1.
     999900   -1    0    0    0    0 -0.00000000000E+00 -0.00000000000E+00 -0.74505805969E-08  0.93827000000E+00  0.93827000000E+00 0.  1.
     999902    2    1    2    0    0 -0.14225126923E-01 -0.16663453109E-01 -0.85264348552E-02  0.10204198959E+01  0.10201490278E+01 0.  0.
     999903    2    3    3    0    0 -0.10245716588E+00 -0.22893973613E-01 -0.79315953137E-01  0.13315732594E+00  0.20451116381E-01 0.  0.
         14    1    1    2    0    0  0.14225126923E-01  0.16663453109E-01  0.85264348552E-02  0.23510104144E-01  0.00000000000E+00 0.  1.
     999901    1    3    3    0    0  0.88232038952E-01  0.62305205038E-02  0.70789518282E-01  0.88726256992E+00  0.88000000000E+00 0. -1.
        -11    1    4    4    0    0 -0.46416954499E-01 -0.12824265081E-03 -0.32481438418E-01  0.56655582901E-01  0.51100000000E-03 0.  1.
         11    1    4    4    0    0 -0.56040211376E-01 -0.22765730962E-01 -0.46834514719E-01  0.76501743035E-01  0.51100000000E-03 0. -1.
</event>
<event>
 8    1  0.1116841E+005  0.1043930E+01  0.7957747E-01            NaN
         13   -1    0    0    0    0  0.00000000000E+00  0.00000000000E+00  0.74505805969E-08  0.10566000000E+00  0.10566000000E+00 0.  1.
     999900   -1    0    0    0    0 -0.00000000000E+00 -0.00000000000E+00 -0.74505805969E-08  0.93827000000E+00  0.93827000000E+00 0.  1.
     999902    2    1    2    0    0 -0.23951476094E-01  0.16188403388E-01 -0.91470719424E-02  0.10136082828E+01  0.10131546498E+01 0.  0.
     999903    2    3    3    0    0  0.38769006869E-01  0.10660939579E+00  0.48217020373E-01  0.12490110155E+00  0.20169406258E-01 0.  0.
         14    1    1    2    0    0  0.23951476094E-01 -0.16188403388E-01  0.91470719424E-02  0.30321717242E-01  0.00000000000E+00 0. -1.
     999901    1    3    3    0    0 -0.62720482963E-01 -0.90420992405E-01 -0.57364092315E-01  0.88870718121E+00  0.88000000000E+00 0. -1.
        -11    1    4    4    0    0  0.16703232335E-01  0.28469929003E-01  0.66200519295E-02  0.33669289217E-01  0.51100000000E-03 0. -1.
         11    1    4    4    0    0  0.22065774534E-01  0.78139466791E-01  0.41596968443E-01  0.91231812329E-01  0.51100000000E-03 0.  1.
</event>
<event>
 8    1  0.1116841E+005  0.1043930E+01  0.7957747E-01            NaN
         13   -1    0    0    0    0  0.00000000000E+00  0.00000000000E+00  0.74505805969E-08  0.10566000000E+00  0.10566000000E+00 0. -1.
     999900   -1    0    0    0    0 -0.00000000000E+00 -0.00000000000E+00 -0.74505805969E-08  0.93827000000E+00  0.93827000000E+00 0. -1.
     999902    2    1    2    0    0  0.13696751868E-01 -0.17844514000E-01 -0.50436324152E-02  0.10208764554E+01  0.10206161233E+01 0.  0.
     999903    2    3    3    0    0  0.21347271976E-01  0.12581965163E+00  0.16280404158E-03  0.12917861983E+00  0.20019954010E-01 0.  0.
         14    1    1    2    0    0 -0.13696751868E-01  0.17844514000E-01  0.50436324152E-02  0.23053544620E-01  0.00000000000E+00 0.  1.
     999901    1    3    3    0    0 -0.76505201079E-02 -0.14366416563E+00 -0.52064364567E-02  0.89169783555E+00  0.88000000000E+00 0. -1.
        -11    1    4    4    0    0  0.22124079505E-01  0.86048770850E-01  0.56091710324E-02  0.89025781544E-01  0.51100000000E-03 0.  1.
         11    1    4    4    0    0 -0.77680752963E-03  0.39770880781E-01 -0.54463669908E-02  0.40152838286E-01  0.51100000000E-03 0. -1.
</event>
<event>
 7    1  0.1116841E+005  0.1043930E+01  0.7957747E-01            NaN
         13   -1    0    0    0    0  0.00000000000E+00  0.00000000000E+00  0.74505805969E-08  0.10566000000E+00  0.10566000000E+00 0. -1.
     999900   -1    0    0    0    0 -0.00000000000E+00 -0.00000000000E+00 -0.74505805969E-08  0.93827000000E+00  0.93827000000E+00 0. -1.
     999902    2    1    2    0    0  0.23926373466E-01 -0.13393080740E-02  0.36646224587E-03  0.10199633693E+01  0.10196817520E+01 0.  0.
         14    1    1    2    0    0 -0.23926373466E-01  0.13393080740E-02 -0.36646224587E-03  0.23966630717E-01  0.00000000000E+00 0. -1.
     999901    1    3    3    0    0  0.10893237443E+00  0.63129384645E-03 -0.76190209021E-01  0.88998404968E+00  0.88000000000E+00 0. -1.
        -11    1    3    3    0    0 -0.27882639798E-01 -0.30315109262E-01  0.32520650282E-01  0.52481437360E-01  0.51100000000E-03 0. -1.
         11    1    3    3    0    0 -0.57123361165E-01  0.28344507342E-01  0.44036020985E-01  0.77497882245E-01  0.51100000000E-03 0.  1.
</event>
<event>
 8    1  0.1116841E+005  0.1043930E+01  0.7957747E-01            NaN
         13   -1    0    0    0    0  0.00000000000E+00  0.00000000000E+00  0.74505805969E-08  0.10566000000E+00  0.10566000000E+00 0.  1.
     999900   -1    0    0    0    0 -0.00000000000E+00 -0.00000000000E+00 -0.74505805969E-08  0.93827000000E+00  0.93827000000E+00 0. -1.
     999902    2    1    2    0    0 -0.17819741063E-01  0.13470441521E-01 -0.10113475819E-01  0.10194090221E+01  0.10191140642E+01 0.  0.
     999903    2    3    3    0    0 -0.20615285217E-01  0.11466934239E+00 -0.58524358977E-01  0.13228296212E+00  0.22352480969E-01 0.  0.
         14    1    1    2    0    0  0.17819741063E-01 -0.13470441521E-01  0.10113475819E-01  0.24520977947E-01  0.00000000000E+00 0.  1.
     999901    1    3    3    0    0  0.27955441535E-02 -0.10119890087E+00  0.48410883158E-01  0.88712605993E+00  0.88000000000E+00 0.  1.
        -11    1    4    4    0    0 -0.40746076493E-02  0.73744437286E-01 -0.29963686036E-01  0.79705257418E-01  0.51100000000E-03 0.  1.
         11    1    4    4    0    0 -0.16540677567E-01  0.40924905101E-01 -0.28560672941E-01  0.52577704702E-01  0.51100000000E-03 0. -1.
</event>
<event>
 8    1  0.1250876E+005  0.1043930E+01  0.7957747E-01            NaN
         13   -1    0    0    0    0  0.00000000000E+00  0.00000000000E+00  0.74505805969E-08  0.10566000000E+00  0.10566000000E+00 0.  1.
     999900   -1    0    0    0    0 -0.00000000000E+00 -0.00000000000E+00 -0.74505805969E-08  0.93827000000E+00  0.93827000000E+00 0.  1.
     999902    2    1    2    0    0 -0.37866525950E-02  0.14023786548E-01  0.18997273188E-01  0.10200155333E+01  0.10197351551E+01 0.  0.
     999903    2    3    3    0    0  0.43591932521E-01  0.12026164522E+00  0.26205702277E-01  0.13233136969E+00  0.21487965942E-01 0.  0.
         14    1    1    2    0    0  0.37866525950E-02 -0.14023786548E-01 -0.18997273188E-01  0.23914466659E-01  0.00000000000E+00 0. -1.
     999901    1    3    3    0    0 -0.47378585116E-01 -0.10623785867E+00 -0.72084290890E-02  0.88768416365E+00  0.88000000000E+00 0. -1.
        -11    1    4    4    0    0  0.15142833564E-01  0.50473937517E-01  0.21188832186E-01  0.56799221009E-01  0.51100000000E-03 0.  1.
         11    1    4    4    0    0  0.28449098957E-01  0.69787707705E-01  0.50168700909E-02  0.75532148683E-01  0.51100000000E-03 0. -1.
</event>
<event>
 8    1  0.1116841E+005  0.1043930E+01  0.7957747E-01            NaN
         13   -1    0    0    0    0  0.00000000000E+00  0.00000000000E+00  0.74505805969E-08  0.10566000000E+00  0.10566000000E+00 0.  1.
     999900   -1    0    0    0    0 -0.00000000000E+00 -0.00000000000E+00 -0.74505805969E-08  0.93827000000E+00  0.93827000000E+00 0.  1.
     999902    2    1    2    0    0 -0.16346130265E-01  0.13832314678E-01  0.12313053734E-01  0.10192289839E+01  0.10189296254E+01 0.  0.
     999903    2    3    3    0    0 -0.94853387166E-01 -0.81118798387E-01 -0.30865613317E-01  0.12959788027E+00  0.16294170032E-01 0.  0.
         14    1    1    2    0    0  0.16346130265E-01 -0.13832314678E-01 -0.12313053734E-01  0.24701016097E-01  0.00000000000E+00 0. -1.
     999901    1    3    3    0    0  0.78507256901E-01  0.94951113065E-01  0.43178667051E-01  0.88963110363E+00  0.88000000000E+00 0. -1.
        -11    1    4    4    0    0 -0.38732283287E-02 -0.58846114628E-02 -0.52277768196E-02  0.87875662860E-02  0.51100000000E-03 0.  1.
         11    1    4    4    0    0 -0.90980158838E-01 -0.75234186924E-01 -0.25637836497E-01  0.12081031399E+00  0.51100000000E-03 0. -1.
</event>
<event>
 8    1  0.1116841E+005  0.1043930E+01  0.7957747E-01            NaN
         13   -1    0    0    0    0  0.00000000000E+00  0.00000000000E+00  0.74505805969E-08  0.10566000000E+00  0.10566000000E+00 0. -1.
     999900   -1    0    0    0    0 -0.00000000000E+00 -0.00000000000E+00 -0.74505805969E-08  0.93827000000E+00  0.93827000000E+00 0.  1.
     999902    2    1    2    0    0  0.90350704453E-02  0.24740750349E-01 -0.95315646828E-02  0.10159195028E+01  0.10155332827E+01 0.  0.
     999903    2    3    3    0    0  0.45389209810E-01  0.66302143904E-01  0.97288735631E-01  0.12774184638E+00  0.19917996431E-01 0.  0.
         14    1    1    2    0    0 -0.90350704453E-02 -0.24740750349E-01  0.95315646828E-02  0.28010497158E-01  0.00000000000E+00 0. -1.
     999901    1    3    3    0    0 -0.36354139365E-01 -0.41561393555E-01 -0.10682030031E+00  0.88817765646E+00  0.88000000000E+00 0.  1.
        -11    1    4    4    0    0  0.40837500537E-01  0.50515502277E-01  0.86105185992E-01  0.10786047282E+00  0.51100000000E-03 0.  1.
         11    1    4    4    0    0  0.45517092736E-02  0.15786641626E-01  0.11183549638E-01  0.19881373561E-01  0.51100000000E-03 0. -1.
</event>
<event>
 8    1  0.1116841E+005  0.1043930E+01  0.7957747E-01            NaN
         13   -1    0    0    0    0  0.00000000000E+00  0.00000000000E+00  0.74505805969E-08  0.10566000000E+00  0.10566000000E+00 0. -1.
     999900   -1    0    0    0    0 -0.00000000000E+00 -0.00000000000E+00 -0.74505805969E-08  0.93827000000E+00  0.93827000000E+00 0.  1.
     999902    2    1    2    0    0  0.41854374288E-02 -0.48985371130E-02 -0.23212921170E-01  0.10198394778E+01  0.10195549064E+01 0.  0.
     999903    2    3    3    0    0  0.25000149057E-01 -0.12098835478E+00  0.34621563620E-01  0.13008955469E+00  0.21481390208E-01 0.  0.
         14    1    1    2    0    0 -0.41854374288E-02  0.48985371130E-02  0.23212921170E-01  0.24090522235E-01  0.00000000000E+00 0. -1.
     999901    1    3    3    0    0 -0.20814711628E-01  0.11608981767E+00 -0.57834484790E-01  0.88974992308E+00  0.88000000000E+00 0. -1.
        -11    1    4    4    0    0  0.17276276877E-01 -0.97418322235E-01  0.18928119060E-01  0.10073397670E+00  0.51100000000E-03 0.  1.
         11    1    4    4    0    0  0.77238721800E-02 -0.23570032547E-01  0.15693444560E-01  0.29355577986E-01  0.51100000000E-03 0. -1.
</event>
<event>
 8    1  0.1116841E+005  0.1043930E+01  0.7957747E-01            NaN
         13   -1    0    0    0    0  0.00000000000E+00  0.00000000000E+00  0.74505805969E-08  0.10566000000E+00  0.10566000000E+00 0.  1.
     999900   -1    0    0    0    0 -0.00000000000E+00 -0.00000000000E+00 -0.74505805969E-08  0.93827000000E+00  0.93827000000E+00 0. -1.
     999902    2    1    2    0    0  0.59775548678E-02 -0.20594038466E-01 -0.10115087161E-01  0.10202200744E+01  0.10199445277E+01 0.  0.
     999903    2    3    3    0    0 -0.95797086149E-01  0.82229648139E-01  0.14834619823E-01  0.12805793896E+00  0.15491063131E-01 0.  0.
         14    1    1    2    0    0 -0.59775548678E-02  0.20594038466E-01  0.10115087161E-01  0.23709925576E-01  0.00000000000E+00 0. -1.
     999901    1    3    3    0    0  0.10177464102E+00 -0.10282368661E+00 -0.24949706984E-01  0.89216213547E+00  0.88000000000E+00 0.  1.
        -11    1    4    4    0    0 -0.32775577118E-01  0.31155113148E-01  0.12434905432E-01  0.46901679338E-01  0.51100000000E-03 0.  1.
         11    1    4    4    0    0 -0.63021509031E-01  0.51074534992E-01  0.23997143907E-02  0.81156259619E-01  0.51100000000E-03 0. -1.
</event>
<event>
 8    1  0.1116841E+005  0.1043930E+01  0.7957747E-01            NaN
         13   -1    0    0    0    0  0.00000000000E+00  0.00000000000E+00  0.74505805969E-08  0.10566000000E+00  0.10566000000E+00 0.  1.
     999900   -1    0    0    0    0 -0.00000000000E+00 -0.00000000000E+00 -0.74505805969E-08  0.93827000000E+00  0.93827000000E+00 0. -1.
     999902    2    1    2    0    0  0.25215936740E-02 -0.95973757637E-02  0.21647163844E-01  0.10201168154E+01  0.10198388350E+01 0.  0.
     999903    2    3    3    0    0  0.12836237191E+00  0.92171959227E-02  0.14177800616E-01  0.13093422398E+00  0.19516807026E-01 0.  0.
         14    1    1    2    0    0 -0.25215936740E-02  0.95973757637E-02 -0.21647163844E-01  0.23813184556E-01  0.00000000000E+00 0.  1.
     999901    1    3    3    0    0 -0.12584077823E+00 -0.18814571686E-01  0.74693632280E-02  0.88918259146E+00  0.88000000000E+00 0.  1.
        -11    1    4    4    0    0  0.50441733937E-01  0.12187693027E-01  0.99483517278E-02  0.52840696503E-01  0.51100000000E-03 0. -1.
         11    1    4    4    0    0  0.77920637972E-01 -0.29704971041E-02  0.42294488878E-02  0.78093527478E-01  0.51100000000E-03 0.  1.
</event>
<event>
 7    1  0.1116841E+005  0.1043930E+01  0.7957747E-01            NaN
         13   -1    0    0    0    0  0.00000000000E+00  0.00000000000E+00  0.74505805969E-08  0.10566000000E+00  0.10566000000E+00 0.  1.
     999900   -1    0    0    0    0 -0.00000000000E+00 -0.00000000000E+00 -0.74505805969E-08  0.93827000000E+00  0.93827000000E+00 0. -1.
     999903    2    1    2    0    0 -0.40317997367E-01 -0.10133581552E+00 -0.31969967087E-01  0.11530315644E+00  0.19448667592E-01 0.  0.
         14    1    1    2    0    0 -0.23318282688E-01  0.66118651046E-02  0.33387553382E-01  0.41257578559E-01  0.00000000000E+00 0.  1.
     999901    1    1    2    0    0  0.63636280055E-01  0.94723950411E-01 -0.14175862952E-02  0.88736926500E+00  0.88000000000E+00 0.  1.
        -11    1    3    3    0    0 -0.12802799890E-01 -0.14009024818E-01 -0.26872989020E-02  0.19174127301E-01  0.51100000000E-03 0.  1.
         11    1    3    3    0    0 -0.27515197477E-01 -0.87326790698E-01 -0.29282668185E-01  0.96129029138E-01  0.51100000000E-03 0. -1.
</event>
<event>
 8    1  0.1116841E+005  0.1043930E+01  0.7957747E-01            NaN
         13   -1    0    0    0    0  0.00000000000E+00  0.00000000000E+00  0.74505805969E-08  0.10566000000E+00  0.10566000000E+00 0. -1.
     999900   -1    0    0    0    0 -0.00000000000E+00 -0.00000000000E+00 -0.74505805969E-08  0.93827000000E+00  0.93827000000E+00 0.  1.
     999902    2    1    2    0    0  0.96524232989E-02  0.72699980113E-02 -0.20641390950E-01  0.10200116145E+01  0.10197311432E+01 0.  0.
     999903    2    3    3    0    0  0.36663478441E-01  0.23352456943E-01  0.11920478252E+00  0.12841462320E+00  0.19773400774E-01 0.  0.
         14    1    1    2    0    0 -0.96524232989E-02 -0.72699980113E-02  0.20641390950E-01  0.23918385543E-01  0.00000000000E+00 0. -1.
     999901    1    3    3    0    0 -0.27011055142E-01 -0.16082458932E-01 -0.13984617347E+00  0.89159699126E+00  0.88000000000E+00 0.  1.
        -11    1    4    4    0    0  0.26280768408E-01  0.10196945735E-01  0.52020004716E-01  0.59169236112E-01  0.51100000000E-03 0. -1.
         11    1    4    4    0    0  0.10382710033E-01  0.13155511208E-01  0.67184777807E-01  0.69245387087E-01  0.51100000000E-03 0.  1.
</event>
<event>
 8    1  0.1116841E+005  0.1043930E+01  0.7957747E-01            NaN
         13   -1    0    0    0    0  0.00000000000E+00  0.00000000000E+00  0.74505805969E-08  0.10566000000E+00  0.10566000000E+00 0.  1.
     999900   -1    0    0    0    0 -0.00000000000E+00 -0.00000000000E+00 -0.74505805969E-08  0.93827000000E+00  0.93827000000E+00 0. -1.
     999902    2    1    2    0    0  0.71747363348E-02 -0.17775011808E-01 -0.14311664098E-01  0.10200082188E+01  0.10197276670E+01 0.  0.
     999903    2    3    3    0    0 -0.10975549811E+00  0.93076056987E-02 -0.66609233005E-01  0.13032221599E+00  0.20351637981E-01 0.  0.
         14    1    1    2    0    0 -0.71747363348E-02  0.17775011808E-01  0.14311664098E-01  0.23921781194E-01  0.00000000000E+00 0.  1.
     999901    1    3    3    0    0  0.11693023445E+00 -0.27082617507E-01  0.52297568907E-01  0.88968600282E+00  0.88000000000E+00 0.  1.
        -11    1    4    4    0    0 -0.52208112491E-01 -0.57460649166E-02 -0.31624928870E-01  0.61311512123E-01  0.51100000000E-03 0.  1.
         11    1    4    4    0    0 -0.57547385622E-01  0.15053670615E-01 -0.34984304135E-01  0.69010703863E-01  0.51100000000E-03 0. -1.
</event>
<event>
 8    1  0.1116841E+005  0.1043930E+01  0.7957747E-01            NaN
         13   -1    0    0    0    0  0.00000000000E+00  0.00000000000E+00  0.74505805969E-08  0.10566000000E+00  0.10566000000E+00 0. -1.
     999900   -1    0    0    0    0 -0.00000000000E+00 -0.00000000000E+00 -0.74505805969E-08  0.93827000000E+00  0.93827000000E+00 0.  1.
     999902    2    1    2    0    0 -0.17006245363E-01 -0.14625333342E-01 -0.39901425391E-02  0.10211476824E+01  0.10208935083E+01 0.  0.
     999903    2    3    3    0    0 -0.21265406746E-01 -0.11743290483E+00 -0.55827832423E-01  0.13363729752E+00  0.22348954218E-01 0.  0.
         14    1    1    2    0    0  0.17006245363E-01  0.14625333342E-01  0.39901425391E-02  0.22782317577E-01  0.00000000000E+00 0.  1.
     999901    1    3    3    0    0  0.42591613825E-02  0.10280757149E+00  0.51837689884E-01  0.88751038490E+00  0.88000000000E+00 0. -1.
        -11    1    4    4    0    0 -0.67749110865E-02 -0.15614744649E-01 -0.15947730671E-01  0.23330471604E-01  0.51100000000E-03 0. -1.
         11    1    4    4    0    0 -0.14490495659E-01 -0.10181816018E+00 -0.39880101752E-01  0.11030682592E+00  0.51100000000E-03 0.  1.
</event>
<event>
 8    1  0.1116841E+005  0.1043930E+01  0.7957747E-01            NaN
         13   -1    0    0    0    0  0.00000000000E+00  0.00000000000E+00  0.74505805969E-08  0.10566000000E+00  0.10566000000E+00 0.  1.
     999900   -1    0    0    0    0 -0.00000000000E+00 -0.00000000000E+00 -0.74505805969E-08  0.93827000000E+00  0.93827000000E+00 0.  1.
     999902    2    1    2    0    0 -0.22037873008E-01 -0.28198431210E-02  0.95004534133E-02  0.10197664329E+01  0.10194801124E+01 0.  0.
     999903    2    3    3    0    0 -0.12454526735E+00  0.39610401445E-01 -0.13842937404E-01  0.13249364197E+00  0.16805675432E-01 0.  0.
         14    1    1    2    0    0  0.22037873008E-01  0.28198431210E-02 -0.95004534133E-02  0.24163567142E-01  0.00000000000E+00 0.  1.
     999901    1    3    3    0    0  0.10250739434E+00 -0.42430244566E-01  0.23343390818E-01  0.88727279088E+00  0.88000000000E+00 0. -1.
        -11    1    4    4    0    0 -0.10592850253E+00  0.32671579344E-01 -0.17672764692E-01  0.11225358559E+00  0.51100000000E-03 0. -1.
         11    1    4    4    0    0 -0.18616764814E-01  0.69388221012E-02  0.38298272878E-02  0.20240056382E-01  0.51100000000E-03 0.  1.
</event>
<event>
 8    1  0.1116841E+005  0.1043930E+01  0.7957747E-01            NaN
         13   -1    0    0    0    0  0.00000000000E+00  0.00000000000E+00  0.74505805969E-08  0.10566000000E+00  0.10566000000E+00 0.  1.
     999900   -1    0    0    0    0 -0.00000000000E+00 -0.00000000000E+00 -0.74505805969E-08  0.93827000000E+00  0.93827000000E+00 0. -1.
     999902    2    1    2    0    0  0.48665768020E-02  0.27399057767E-01  0.83407263703E-02  0.10148790163E+01  0.10144631379E+01 0.  0.
     999903    2    3    3    0    0 -0.72481493414E-01  0.10057114656E+00 -0.19802262723E-01  0.12801436691E+00  0.25048475375E-01 0.  0.
         14    1    1    2    0    0 -0.48665768020E-02 -0.27399057767E-01 -0.83407263703E-02  0.29050983679E-01  0.00000000000E+00 0. -1.
     999901    1    3    3    0    0  0.77348070216E-01 -0.73172088789E-01  0.28142989093E-01  0.88686464941E+00  0.88000000000E+00 0.  1.
        -11    1    4    4    0    0 -0.54025339691E-01  0.60848037417E-01 -0.40824679152E-02  0.81474834468E-01  0.51100000000E-03 0. -1.
         11    1    4    4    0    0 -0.18456153723E-01  0.39723109140E-01 -0.15719794808E-01  0.46539532440E-01  0.51100000000E-03 0.  1.
</event>
<event>
 8    1  0.1116841E+005  0.1043930E+01  0.7957747E-01            NaN
         13   -1    0    0    0    0  0.00000000000E+00  0.00000000000E+00  0.74505805969E-08  0.10566000000E+00  0.10566000000E+00 0.  1.
     999900   -1    0    0    0    0 -0.00000000000E+00 -0.00000000000E+00 -0.74505805969E-08  0.93827000000E+00  0.93827000000E+00 0. -1.
     999902    2    1    2    0    0  0.41538996261E-02 -0.11115255098E-01 -0.18640079859E-01  0.10218334764E+01  0.10215945366E+01 0.  0.
     999903    2    3    3    0    0 -0.66780153001E-01 -0.12268802875E-01  0.10875649408E+00  0.12983411679E+00  0.20464860594E-01 0.  0.
         14    1    1    2    0    0 -0.41538996261E-02  0.11115255098E-01  0.18640079859E-01  0.22096523599E-01  0.00000000000E+00 0.  1.
     999901    1    3    3    0    0  0.70934052627E-01  0.11535477777E-02 -0.12739657394E+00  0.89199935961E+00  0.88000000000E+00 0. -1.
        -11    1    4    4    0    0 -0.16350646805E-01 -0.86911847973E-02  0.43527501419E-01  0.47305230629E-01  0.51100000000E-03 0.  1.
         11    1    4    4    0    0 -0.50429506196E-01 -0.35776180780E-02  0.65228992662E-01  0.82528886161E-01  0.51100000000E-03 0. -1.
</event>
<event>
 8    1  0.1116841E+005  0.1043930E+01  0.7957747E-01            NaN
         13   -1    0    0    0    0  0.00000000000E+00  0.00000000000E+00  0.74505805969E-08  0.10566000000E+00  0.10566000000E+00 0.  1.
     999900   -1    0    0    0    0 -0.00000000000E+00 -0.00000000000E+00 -0.74505805969E-08  0.93827000000E+00  0.93827000000E+00 0.  1.
     999902    2    1    2    0    0 -0.16624060902E-01 -0.13371532760E-01 -0.10115537116E-01  0.10203189564E+01  0.10200457300E+01 0.  0.
     999903    2    3    3    0    0 -0.82094981299E-01  0.92416727774E-01 -0.39040236471E-01  0.13109781645E+00  0.19546352271E-01 0.  0.
         14    1    1    2    0    0  0.16624060902E-01  0.13371532760E-01  0.10115537116E-01  0.23611043610E-01  0.00000000000E+00 0. -1.
     999901    1    3    3    0    0  0.65470920397E-01 -0.10578826053E+00  0.28924699355E-01  0.88922113994E+00  0.88000000000E+00 0.  1.
        -11    1    4    4    0    0 -0.75160542927E-01  0.75247781532E-01 -0.36257934193E-01  0.11236651971E+00  0.51100000000E-03 0.  1.
         11    1    4    4    0    0 -0.69344383719E-02  0.17168946242E-01 -0.27823022775E-02  0.18731296740E-01  0.51100000000E-03 0. -1.
</event>
<event>
 8    1  0.1116841E+005  0.1043930E+01  0.7957747E-01            NaN
         13   -1    0    0    0    0  0.00000000000E+00  0.00000000000E+00  0.74505805969E-08  0.10566000000E+00  0.10566000000E+00 0. -1.
     999900   -1    0    0    0    0 -0.00000000000E+00 -0.00000000000E+00 -0.74505805969E-08  0.93827000000E+00  0.93827000000E+00 0. -1.
     999902    2    1    2    0    0  0.29548757652E-02 -0.20894820320E-01 -0.77794914682E-02  0.10214389953E+01  0.10211913512E+01 0.  0.
     999903    2    3    3    0    0  0.10924361357E+00 -0.15755207967E-01  0.68906030079E-01  0.13171747668E+00  0.20470930571E-01 0.  0.
         14    1    1    2    0    0 -0.29548757652E-02  0.20894820320E-01  0.77794914682E-02  0.22491004746E-01  0.00000000000E+00 0. -1.
     999901    1    3    3    0    0 -0.10628873780E+00 -0.51396123532E-02 -0.76685521547E-01  0.88972151857E+00  0.88000000000E+00 0. -1.
        -11    1    4    4    0    0  0.67444951572E-01 -0.67188984133E-02  0.53170713448E-01  0.86147263323E-01  0.51100000000E-03 0. -1.
         11    1    4    4    0    0  0.41798661995E-01 -0.90363095532E-02  0.15735316630E-01  0.45570213357E-01  0.51100000000E-03 0.  1.
</event>
<event>
 8    1  0.1116841E+005  0.1043930E+01  0.7957747E-01            NaN
         13   -1    0    0    0    0  0.00000000000E+00  0.00000000000E+00  0.74505805969E-08  0.10566000000E+00  0.10566000000E+00 0.  1.
     999900   -1    0    0    0    0 -0.00000000000E+00 -0.00000000000E+00 -0.74505805969E-08  0.93827000000E+00  0.93827000000E+00 0.  1.
     999902    2    1    2    0    0  0.93015291640E-03  0.13649689997E-02  0.24044832604E-01  0.10198285001E+01  0.10195436662E+01 0.  0.
     999903    2    3    3    0    0  0.60443270091E-01  0.68383622285E-01 -0.87745057149E-01  0.12823986707E+00  0.20409795608E-01 0.  0.
         14    1    1    2    0    0 -0.93015291640E-03 -0.13649689997E-02 -0.24044832604E-01  0.24101499949E-01  0.00000000000E+00 0. -1.
     999901    1    3    3    0    0 -0.59513117175E-01 -0.67018653286E-01  0.11178988975E+00  0.89158863298E+00  0.88000000000E+00 0. -1.
        -11    1    4    4    0    0  0.22479123070E-01  0.23263838072E-01 -0.44930657709E-01  0.55367339281E-01  0.51100000000E-03 0. -1.
         11    1    4    4    0    0  0.37964147021E-01  0.45119784213E-01 -0.42814399439E-01  0.72872527793E-01  0.51100000000E-03 0.  1.
</event>
<event>
 8    1  0.1116841E+005  0.1043930E+01  0.7957747E-01            NaN
         13   -1    0    0    0    0  0.00000000000E+00  0.00000000000E+00  0.74505805969E-08  0.10566000000E+00  0.10566000000E+00 0. -1.
     999900   -1    0    0    0    0 -0.00000000000E+00 -0.00000000000E+00 -0.74505805969E-08  0.93827000000E+00  0.93827000000E+00 0. -1.
     999902    2    1    2    0    0  0.15120595308E-01 -0.58938341298E-02  0.16401765037E-01  0.10208564745E+01  0.10205956858E+01 0.  0.
     999903    2    3    3    0    0  0.39427205893E-01  0.12324425064E+00 -0.43801319282E-02  0.13085684331E+00  0.18991524560E-01 0.  0.
         14    1    1    2    0    0 -0.15120595308E-01  0.58938341298E-02 -0.16401765037E-01  0.23073525512E-01  0.00000000000E+00 0.  1.
     999901    1    3    3    0    0 -0.24306610585E-01 -0.12913808477E+00  0.20781896966E-01  0.88999963118E+00  0.88000000000E+00 0. -1.
        -11    1    4    4    0    0  0.67404178235E-02  0.34399015939E-01 -0.85921667786E-02  0.36094486850E-01  0.51100000000E-03 0.  1.
         11    1    4    4    0    0  0.32686788069E-01  0.88845234700E-01  0.42120348504E-02  0.94762356459E-01  0.51100000000E-03 0. -1.
</event>
<event>
 8    1  0.1116841E+005  0.1043930E+01  0.7957747E-01            NaN
         13   -1    0    0    0    0  0.00000000000E+00  0.00000000000E+00  0.74505805969E-08  0.10566000000E+00  0.10566000000E+00 0.  1.
     999900   -1    0    0    0    0 -0.00000000000E+00 -0.00000000000E+00 -0.74505805969E-08  0.93827000000E+00  0.93827000000E+00 0.  1.
     999902    2    1    2    0    0  0.16783040188E-01 -0.11531393491E-01  0.12577390744E-01  0.10199960444E+01  0.10197152035E+01 0.  0.
     999903    2    3    3    0    0 -0.12116660750E+00 -0.89316409599E-02 -0.35537332287E-01  0.12794677972E+00  0.18610627885E-01 0.  0.
         14    1    1    2    0    0 -0.16783040188E-01  0.11531393491E-01 -0.12577390744E-01  0.23933955622E-01  0.00000000000E+00 0. -1.
     999901    1    3    3    0    0  0.13794964769E+00 -0.25997525310E-02  0.48114723031E-01  0.89204926466E+00  0.88000000000E+00 0. -1.
        -11    1    4    4    0    0 -0.34533629363E-01  0.32439026343E-03 -0.18455690789E-01  0.39160572385E-01  0.51100000000E-03 0. -1.
         11    1    4    4    0    0 -0.86632978138E-01 -0.92560312234E-02 -0.17081641498E-01  0.88786207331E-01  0.51100000000E-03 0.  1.
</event>
<event>
 8    1  0.1116841E+005  0.1043930E+01  0.7957747E-01            NaN
         13   -1    0    0    0    0  0.00000000000E+00  0.00000000000E+00  0.74505805969E-08  0.10566000000E+00  0.10566000000E+00 0.  1.
     999900   -1    0    0    0    0 -0.00000000000E+00 -0.00000000000E+00 -0.74505805969E-08  0.93827000000E+00  0.93827000000E+00 0. -1.
     999902    2    1    2    0    0  0.11714362209E-02  0.23073113764E-02 -0.23024064825E-01  0.10207609795E+01  0.10204980028E+01 0.  0.
     999903    2    3    3    0    0  0.49864472044E-01 -0.66163495694E-01  0.96372683888E-01  0.12873247843E+00  0.20500806555E-01 0.  0.
         14    1    1    2    0    0 -0.11714362209E-02 -0.23073113764E-02  0.23024064825E-01  0.23169020472E-01  0.00000000000E+00 0.  1.
     999901    1    3    3    0    0 -0.48693035823E-01  0.68470807070E-01 -0.11939674871E+00  0.89202850109E+00  0.88000000000E+00 0. -1.
        -11    1    4    4    0    0  0.25324636106E-01 -0.25596838780E-01  0.28428509099E-01  0.45880023975E-01  0.51100000000E-03 0. -1.
         11    1    4    4    0    0  0.24539835939E-01 -0.40566656914E-01  0.67944174790E-01  0.82852454459E-01  0.51100000000E-03 0.  1.
</event>
<event>
 8    1  0.1116841E+005  0.1043930E+01  0.7957747E-01            NaN
         13   -1    0    0    0    0  0.00000000000E+00  0.00000000000E+00  0.74505805969E-08  0.10566000000E+00  0.10566000000E+00 0.  1.
     999900   -1    0    0    0    0 -0.00000000000E+00 -0.00000000000E+00 -0.74505805969E-08  0.93827000000E+00  0.93827000000E+00 0.  1.
     999902    2    1    2    0    0 -0.85303048811E-02  0.85906660759E-02 -0.20518099294E-01  0.10201065233E+01  0.10198282997E+01 0.  0.
     999903    2    3    3    0    0 -0.64398394276E-01 -0.85320714997E-01 -0.74255484749E-01  0.13172130417E+00  0.20244687329E-01 0.  0.
         14    1    1    2    0    0  0.85303048811E-02 -0.85906660759E-02  0.20518099294E-01  0.23823476732E-01  0.00000000000E+00 0.  1.
     999901    1    3    3    0    0  0.55868089395E-01  0.93911381073E-01  0.53737385455E-01  0.88838521909E+00  0.88000000000E+00 0.  1.
        -11    1    4    4    0    0 -0.44255825390E-01 -0.65634764938E-01 -0.63807194545E-01  0.10167654423E+00  0.51100000000E-03 0. -1.
         11    1    4    4    0    0 -0.20142568885E-01 -0.19685950059E-01 -0.10448290205E-01  0.30044759946E-01  0.51100000000E-03 0.  1.
</event>
<event>
 8    1  0.1116841E+005  0.1043930E+01  0.7957747E-01            NaN
         13   -1    0    0    0    0  0.00000000000E+00  0.00000000000E+00  0.74505805969E-08  0.10566000000E+00  0.10566000000E+00 0. -1.
     999900   -1    0    0    0    0 -0.00000000000E+00 -0.00000000000E+00 -0.74505805969E-08  0.93827000000E+00  0.93827000000E+00 0.  1.
     999902    2    1    2    0    0  0.40099355860E-02  0.87101180955E-03  0.27760987949E-01  0.10158673790E+01  0.10154797000E+01 0.  0.
     999903    2    3    3    0    0 -0.73138460260E-01 -0.55915440902E-01  0.87749968389E-01  0.12863840407E+00  0.19287590562E-01 0.  0.
         14    1    1    2    0    0 -0.40099355860E-02 -0.87101180955E-03 -0.27760987949E-01  0.28062620991E-01  0.00000000000E+00 0.  1.
     999901    1    3    3    0    0  0.77148395846E-01  0.56786452711E-01 -0.59988980440E-01  0.88722897494E+00  0.88000000000E+00 0. -1.
        -11    1    4    4    0    0 -0.18804696328E-01 -0.19614649901E-01  0.36951953671E-01  0.45870023936E-01  0.51100000000E-03 0.  1.
         11    1    4    4    0    0 -0.54333763932E-01 -0.36300791000E-01  0.50798014718E-01  0.82768380137E-01  0.51100000000E-03 0. -1.
</event>
<event>
 8    1  0.1116841E+005  0.1043930E+01  0.7957747E-01            NaN
         13   -1    0    0    0    0  0.00000000000E+00  0.00000000000E+00  0.74505805969E-08  0.10566000000E+00  0.10566000000E+00 0. -1.
     999900   -1    0    0    0    0 -0.00000000000E+00 -0.00000000000E+00 -0.74505805969E-08  0.93827000000E+00  0.93827000000E+00 0. -1.
     999902    2    1    2    0    0 -0.13333044601E-01  0.20180948038E-01 -0.12231916777E-01  0.10168253781E+01  0.10164640618E+01 0.  0.
     999903    2    3    3    0    0 -0.12004821862E+00  0.32002691572E-01  0.29623227105E-01  0.12931214715E+00  0.20207641022E-01 0.  0.
         14    1    1    2    0    0  0.13333044601E-01 -0.20180948038E-01  0.12231916777E-01  0.27104621932E-01  0.00000000000E+00 0. -1.
     999901    1    3    3    0    0  0.10671517401E+00 -0.11821743534E-01 -0.41855143881E-01  0.88751323092E+00  0.88000000000E+00 0. -1.
        -11    1    4    4    0    0 -0.31950224979E-01  0.12053532201E-01 -0.30485168721E-03  0.34153456198E-01  0.51100000000E-03 0. -1.
         11    1    4    4    0    0 -0.88097993637E-01  0.19949159371E-01  0.29928078792E-01  0.95158690952E-01  0.51100000000E-03 0.  1.
</event>
<event>
 8    1  0.1116841E+005  0.1043930E+01  0.7957747E-01            NaN
         13   -1    0    0    0    0  0.00000000000E+00  0.00000000000E+00  0.74505805969E-08  0.10566000000E+00  0.10566000000E+00 0.  1.
     999900   -1    0    0    0    0 -0.00000000000E+00 -0.00000000000E+00 -0.74505805969E-08  0.93827000000E+00  0.93827000000E+00 0. -1.
     999902    2    1    2    0    0 -0.57656083835E-02  0.23188046586E-01 -0.80928086863E-02  0.10187026082E+01  0.10183901918E+01 0.  0.
     999903    2    3    3    0    0 -0.13560816828E-01 -0.80913220111E-01 -0.96476075645E-01  0.12813568715E+00  0.19500671948E-01 0.  0.
         14    1    1    2    0    0  0.57656083835E-02 -0.23188046586E-01  0.80928086863E-02  0.25227391798E-01  0.00000000000E+00 0.  1.
     999901    1    3    3    0    0  0.77952084448E-02  0.10410126670E+00  0.88383266959E-01  0.89056692106E+00  0.88000000000E+00 0. -1.
        -11    1    4    4    0    0 -0.97198216330E-02 -0.48985428574E-01 -0.43858236047E-01  0.66466932645E-01  0.51100000000E-03 0. -1.
         11    1    4    4    0    0 -0.38409951953E-02 -0.31927791537E-01 -0.52617839599E-01  0.61668754500E-01  0.51100000000E-03 0.  1.
</event>
<event>
 8    1  0.1116841E+005  0.1043930E+01  0.7957747E-01            NaN
         13   -1    0    0    0    0  0.00000000000E+00  0.00000000000E+00  0.74505805969E-08  0.10566000000E+00  0.10566000000E+00 0.  1.
     999900   -1    0    0    0    0 -0.00000000000E+00 -0.00000000000E+00 -0.74505805969E-08  0.93827000000E+00  0.93827000000E+00 0. -1.
     999902    2    1    2    0    0  0.10966710179E-01 -0.13526151421E-01 -0.15536339378E-01  0.10205932619E+01  0.10203264198E+01 0.  0.
     999903    2    3    3    0    0  0.12293710153E+00 -0.59525324426E-02 -0.46000788667E-01  0.13294309943E+00  0.20219583378E-01 0.  0.
         14    1    1    2    0    0 -0.10966710179E-01  0.13526151421E-01  0.15536339378E-01  0.23336738112E-01  0.00000000000E+00 0.  1.
     999901    1    3    3    0    0 -0.11197039135E+00 -0.75736189788E-02  0.30464449289E-01  0.88765016246E+00  0.88000000000E+00 0.  1.
        -11    1    4    4    0    0  0.63854835128E-01  0.31558735128E-02 -0.15307418054E-01  0.65741749865E-01  0.51100000000E-03 0.  1.
         11    1    4    4    0    0  0.59082266404E-01 -0.91084059554E-02 -0.30693370613E-01  0.67201349563E-01  0.51100000000E-03 0. -1.
</event>
<event>
 8    1  0.1116841E+005  0.1043930E+01  0.7957747E-01            NaN
         13   -1    0    0    0    0  0.00000000000E+00  0.00000000000E+00  0.74505805969E-08  0.10566000000E+00  0.10566000000E+00 0. -1.
     999900   -1    0    0    0    0 -0.00000000000E+00 -0.00000000000E+00 -0.74505805969E-08  0.93827000000E+00  0.93827000000E+00 0. -1.
     999902    2    1    2    0    0 -0.17724801570E-01  0.16184510814E-01  0.53271027786E-02  0.10193437232E+01  0.10190471731E+01 0.  0.
     999903    2    3    3    0    0  0.13028316092E-01 -0.27892244052E-01  0.12420523504E+00  0.12972553272E+00  0.21308663291E-01 0.  0.
         14    1    1    2    0    0  0.17724801570E-01 -0.16184510814E-01 -0.53271027786E-02  0.24586276761E-01  0.00000000000E+00 0.  1.
     999901    1    3    3    0    0 -0.30753117661E-01  0.44076754866E-01 -0.11887813226E+00  0.88961819051E+00  0.88000000000E+00 0. -1.
        -11    1    4    4    0    0  0.12620656812E-01 -0.21764046655E-01  0.11908049592E+00  0.12171023101E+00  0.51100000000E-03 0.  1.
         11    1    4    4    0    0  0.40765927915E-03 -0.61281973964E-02  0.51247391230E-02  0.80153017096E-02  0.51100000000E-03 0. -1.
</event>
<event>
 8    1  0.1116841E+005  0.1043930E+01  0.7957747E-01            NaN
         13   -1    0    0    0    0  0.00000000000E+00  0.00000000000E+00  0.74505805969E-08  0.10566000000E+00  0.10566000000E+00 0.  1.
     999900   -1    0    0    0    0 -0.00000000000E+00 -0.00000000000E+00 -0.74505805969E-08  0.93827000000E+00  0.93827000000E+00 0.  1.
     999902    2    1    2    0    0 -0.19392240891E-01 -0.13524104580E-02 -0.15094729624E-01  0.10193182369E+01  0.10190210641E+01 0.  0.
     999903    2    3    3    0    0  0.54590237930E-01 -0.63386904464E-01  0.93875709496E-01  0.12735621852E+00  0.20222854087E-01 0.  0.
         14    1    1    2    0    0  0.19392240891E-01  0.13524104580E-02  0.15094729624E-01  0.24611763107E-01  0.00000000000E+00 0.  1.
     999901    1    3    3    0    0 -0.73982478822E-01  0.62034494006E-01 -0.10897043912E+00  0.89196201837E+00  0.88000000000E+00 0.  1.
        -11    1    4    4    0    0  0.38105581132E-01 -0.29075668539E-01  0.49948264800E-01  0.69228029670E-01  0.51100000000E-03 0.  1.
         11    1    4    4    0    0  0.16484656798E-01 -0.34311235925E-01  0.43927444696E-01  0.58128188850E-01  0.51100000000E-03 0. -1.
</event>
<event>
 8    1  0.1116841E+005  0.1043930E+01  0.7957747E-01            NaN
         13   -1    0    0    0    0  0.00000000000E+00  0.00000000000E+00  0.74505805969E-08  0.10566000000E+00  0.10566000000E+00 0.  1.
     999900   -1    0    0    0    0 -0.00000000000E+00 -0.00000000000E+00 -0.74505805969E-08  0.93827000000E+00  0.93827000000E+00 0. -1.
     999902    2    1    2    0    0  0.16092460971E-01  0.16546446807E-01  0.46203234207E-02  0.10203906799E+01  0.10201191303E+01 0.  0.
     999903    2    3    3    0    0 -0.11341376413E+00 -0.53435009826E-01 -0.15411533959E-01  0.12793869693E+00  0.20317790789E-01 0.  0.
         14    1    1    2    0    0 -0.16092460971E-01 -0.16546446807E-01 -0.46203234207E-02  0.23539320096E-01  0.00000000000E+00 0. -1.
     999901    1    3    3    0    0  0.12950622510E+00  0.69981456634E-01  0.20031857380E-01  0.89245198298E+00  0.88000000000E+00 0.  1.
        -11    1    4    4    0    0 -0.63530424475E-01 -0.32707867705E-01  0.10512755791E-02  0.71465276499E-01  0.51100000000E-03 0. -1.
         11    1    4    4    0    0 -0.49883339656E-01 -0.20727142122E-01 -0.16462809538E-01  0.56473420427E-01  0.51100000000E-03 0.  1.
</event>
<event>
 8    1  0.1116841E+005  0.1043930E+01  0.7957747E-01            NaN
         13   -1    0    0    0    0  0.00000000000E+00  0.00000000000E+00  0.74505805969E-08  0.10566000000E+00  0.10566000000E+00 0.  1.
     999900   -1    0    0    0    0 -0.00000000000E+00 -0.00000000000E+00 -0.74505805969E-08  0.93827000000E+00  0.93827000000E+00 0.  1.
     999902    2    1    2    0    0  0.98039691799E-02 -0.20579602819E-01 -0.36536814394E-02  0.10208434833E+01  0.10205823976E+01 0.  0.
     999903    2    3    3    0    0  0.63281136900E-02 -0.12229475279E+00 -0.49916404279E-01  0.13377060423E+00  0.20171156609E-01 0.  0.
         14    1    1    2    0    0 -0.98039691799E-02  0.20579602819E-01  0.36536814394E-02  0.23086516670E-01  0.00000000000E+00 0. -1.
     999901    1    3    3    0    0  0.34758554899E-02  0.10171514997E+00  0.46262722840E-01  0.88707287910E+00  0.88000000000E+00 0. -1.
        -11    1    4    4    0    0  0.12881149235E-01 -0.63973274994E-01 -0.22901686358E-01  0.69161060418E-01  0.51100000000E-03 0.  1.
         11    1    4    4    0    0 -0.65530355454E-02 -0.58321477792E-01 -0.27014717921E-01  0.64609543816E-01  0.51100000000E-03 0. -1.
</event>
<event>
 8    1  0.1116841E+005  0.1043930E+01  0.7957747E-01            NaN
         13   -1    0    0    0    0  0.00000000000E+00  0.00000000000E+00  0.74505805969E-08  0.10566000000E+00  0.10566000000E+00 0. -1.
     999900   -1    0    0    0    0 -0.00000000000E+00 -0.00000000000E+00 -0.74505805969E-08  0.93827000000E+00  0.93827000000E+00 0.  1.
     999902    2    1    2    0    0  0.53464312247E-02  0.12597959013E-01 -0.19390269718E-01  0.10201965751E+01  0.10199204755E+01 0.  0.
     999903    2    3    3    0    0 -0.46281238287E-01 -0.11607576458E+00 -0.29974956822E-01  0.12927885779E+00  0.14106342318E-01 0.  0.
         14    1    1    2    0    0 -0.53464312247E-02 -0.12597959013E-01  0.19390269718E-01  0.23733424908E-01  0.00000000000E+00 0. -1.
     999901    1    3    3    0    0  0.51627669512E-01  0.12867372360E+00  0.10584687105E-01  0.89091771730E+00  0.88000000000E+00 0.  1.
        -11    1    4    4    0    0 -0.33149210339E-01 -0.96480584393E-01 -0.26739753676E-01  0.10546396948E+00  0.51100000000E-03 0. -1.
         11    1    4    4    0    0 -0.13132027949E-01 -0.19595180191E-01 -0.32352031465E-02  0.23814888309E-01  0.51100000000E-03 0.  1.
</event>
<event>
 8    1  0.1116841E+005  0.1043930E+01  0.7957747E-01            NaN
         13   -1    0    0    0    0  0.00000000000E+00  0.00000000000E+00  0.74505805969E-08  0.10566000000E+00  0.10566000000E+00 0.  1.
     999900   -1    0    0    0    0 -0.00000000000E+00 -0.00000000000E+00 -0.74505805969E-08  0.93827000000E+00  0.93827000000E+00 0.  1.
     999902    2    1    2    0    0  0.20623516266E-01  0.10503005704E-01  0.58778917203E-02  0.10200513032E+01  0.10197717729E+01 0.  0.
     999903    2    3    3    0    0 -0.11559844038E+00  0.40882538509E-01 -0.31876743601E-01  0.12825269922E+00  0.19956119404E-01 0.  0.
         14    1    1    2    0    0 -0.20623516266E-01 -0.10503005704E-01 -0.58778917203E-02  0.23878696846E-01  0.00000000000E+00 0. -1.
     999901    1    3    3    0    0  0.13622195665E+00 -0.30379532805E-01  0.37754635321E-01  0.89179860393E+00  0.88000000000E+00 0. -1.
        -11    1    4    4    0    0 -0.57683265734E-01  0.20783225498E-01 -0.26220603847E-01  0.66686451360E-01  0.51100000000E-03 0.  1.
         11    1    4    4    0    0 -0.57915174648E-01  0.20099313011E-01 -0.56561397536E-02  0.61566247863E-01  0.51100000000E-03 0. -1.
</event>
<event>
 8    1  0.1116841E+005  0.1043930E+01  0.7957747E-01            NaN
         13   -1    0    0    0    0  0.00000000000E+00  0.00000000000E+00  0.74505805969E-08  0.10566000000E+00  0.10566000000E+00 0. -1.
     999900   -1    0    0    0    0 -0.00000000000E+00 -0.00000000000E+00 -0.74505805969E-08  0.93827000000E+00  0.93827000000E+00 0.  1.
     999902    2    1    2    0    0 -0.21613319106E-01  0.15189300442E-02 -0.26747805838E-02  0.10220988946E+01  0.10218657217E+01 0.  0.
     999903    2    3    3    0    0 -0.11524604209E+00 -0.65869440030E-01  0.83140630433E-02  0.13450155690E+00  0.20027776138E-01 0.  0.
         14    1    1    2    0    0  0.21613319106E-01 -0.15189300442E-02  0.26747805838E-02  0.21831105387E-01  0.00000000000E+00 0. -1.
     999901    1    3    3    0    0  0.93632722982E-01  0.67388370074E-01 -0.10988843627E-01  0.88759733771E+00  0.88000000000E+00 0.  1.
        -11    1    4    4    0    0 -0.43897747663E-01 -0.14164571617E-01  0.29675988248E-02  0.46224615766E-01  0.51100000000E-03 0. -1.
         11    1    4    4    0    0 -0.71348294425E-01 -0.51704868413E-01  0.53464642185E-02  0.88276941132E-01  0.51100000000E-03 0.  1.
</event>
<event>
 8    1  0.1116841E+005  0.1043930E+01  0.7957747E-01            NaN
         13   -1    0    0    0    0  0.00000000000E+00  0.00000000000E+00  0.74505805969E-08  0.10566000000E+00  0.10566000000E+00 0.  1.
     999900   -1    0    0    0    0 -0.00000000000E+00 -0.00000000000E+00 -0.74505805969E-08  0.93827000000E+00  0.93827000000E+00 0.  1.
     999902    2    1    2    0    0 -0.20387984463E-01  0.93536271688E-02 -0.38994977273E-02  0.10211623402E+01  0.10209084967E+01 0.  0.
     999903    2    3    3    0    0 -0.20350312910E-01  0.55331582586E-01  0.11626832793E+00  0.13180623594E+00  0.19463825047E-01 0.  0.
         14    1    1    2    0    0  0.20387984463E-01 -0.93536271688E-02  0.38994977273E-02  0.22767659832E-01  0.00000000000E+00 0. -1.
     999901    1    3    3    0    0 -0.37671553432E-04 -0.45977955417E-01 -0.12016782566E+00  0.88935610423E+00  0.88000000000E+00 0.  1.
        -11    1    4    4    0    0 -0.89887247765E-02  0.29016595713E-01  0.80010238856E-01  0.85584224263E-01  0.51100000000E-03 0.  1.
         11    1    4    4    0    0 -0.11361588133E-01  0.26314986872E-01  0.36258089078E-01  0.46222011678E-01  0.51100000000E-03 0. -1.
</event>
<event>
 8    1  0.1116841E+005  0.1043930E+01  0.7957747E-01            NaN
         13   -1    0    0    0    0  0.00000000000E+00  0.00000000000E+00  0.74505805969E-08  0.10566000000E+00  0.10566000000E+00 0. -1.
     999900   -1    0    0    0    0 -0.00000000000E+00 -0.00000000000E+00 -0.74505805969E-08  0.93827000000E+00  0.93827000000E+00 0. -1.
     999902    2    1    2    0    0  0.19916127845E-01 -0.22549958796E-02  0.11979138604E-01  0.10205796913E+01  0.10203125351E+01 0.  0.
     999903    2    3    3    0    0 -0.38481585290E-02  0.10273187687E+00  0.79220419762E-01  0.13147431248E+00  0.20999359182E-01 0.  0.
         14    1    1    2    0    0 -0.19916127845E-01  0.22549958796E-02 -0.11979138604E-01  0.23350308701E-01  0.00000000000E+00 0.  1.
     999901    1    3    3    0    0  0.23764286374E-01 -0.10498687274E+00 -0.67241281158E-01  0.88910537882E+00  0.88000000000E+00 0. -1.
        -11    1    4    4    0    0 -0.23983683704E-02  0.47124646329E-01  0.49562033058E-01  0.68433476489E-01  0.51100000000E-03 0.  1.
         11    1    4    4    0    0 -0.14497901586E-02  0.55607230536E-01  0.29658386704E-01  0.63040835989E-01  0.51100000000E-03 0. -1.
</event>
<event>
 8    1  0.1116841E+005  0.1043930E+01  0.7957747E-01            NaN
         13   -1    0    0    0    0  0.00000000000E+00  0.00000000000E+00  0.74505805969E-08  0.10566000000E+00  0.10566000000E+00 0.  1.
     999900   -1    0    0    0    0 -0.00000000000E+00 -0.00000000000E+00 -0.74505805969E-08  0.93827000000E+00  0.93827000000E+00 0.  1.
     999902    2    1    2    0    0  0.15538562671E-01  0.16976604751E-01  0.83455036722E-03  0.10209007032E+01  0.10206409247E+01 0.  0.
     999903    2    3    3    0    0 -0.10492389589E+00  0.74607878802E-01 -0.96755042048E-02  0.13076418053E+00  0.20743577775E-01 0.  0.
         14    1    1    2    0    0 -0.15538562671E-01 -0.16976604751E-01 -0.83455036722E-03  0.23029296843E-01  0.00000000000E+00 0. -1.
     999901    1    3    3    0    0  0.12046245856E+00 -0.57631274050E-01  0.10510054572E-01  0.89013652263E+00  0.88000000000E+00 0. -1.
        -11    1    4    4    0    0 -0.79280099090E-01  0.62989869837E-01 -0.87152338940E-03  0.10126242387E+00  0.51100000000E-03 0. -1.
         11    1    4    4    0    0 -0.25643796802E-01  0.11618008965E-01 -0.88039808154E-02  0.29501756659E-01  0.51100000000E-03 0.  1.
</event>
<event>
 8    1  0.1116841E+005  0.1043930E+01  0.7957747E-01            NaN
         13   -1    0    0    0    0  0.00000000000E+00  0.00000000000E+00  0.74505805969E-08  0.10566000000E+00  0.10566000000E+00 0.  1.
     999900   -1    0    0    0    0 -0.00000000000E+00 -0.00000000000E+00 -0.74505805969E-08  0.93827000000E+00  0.93827000000E+00 0. -1.
     999902    2    1    2    0    0 -0.83085606403E-02  0.10817361429E-01 -0.19045202434E-01  0.10205042188E+01  0.10202353128E+01 0.  0.
     999903    2    3    3    0    0  0.50982001486E-02  0.66555939690E-01 -0.11392558190E+00  0.13354941910E+00  0.20018101269E-01 0.  0.
         14    1    1    2    0    0  0.83085606403E-02 -0.10817361429E-01  0.19045202434E-01  0.23425781181E-01  0.00000000000E+00 0.  1.
     999901    1    3    3    0    0 -0.13406760789E-01 -0.55738578261E-01  0.94880379462E-01  0.88695479972E+00  0.88000000000E+00 0.  1.
        -11    1    4    4    0    0  0.25524094391E-02  0.65267953203E-01 -0.10084496829E+00  0.12015152625E+00  0.51100000000E-03 0.  1.
         11    1    4    4    0    0  0.25457907096E-02  0.12879864864E-02 -0.13080613605E-01  0.13397892850E-01  0.51100000000E-03 0. -1.
</event>
<event>
 8    1  0.1116841E+005  0.1043930E+01  0.7957747E-01            NaN
         13   -1    0    0    0    0  0.00000000000E+00  0.00000000000E+00  0.74505805969E-08  0.10566000000E+00  0.10566000000E+00 0. -1.
     999900   -1    0    0    0    0 -0.00000000000E+00 -0.00000000000E+00 -0.74505805969E-08  0.93827000000E+00  0.93827000000E+00 0.  1.
     999902    2    1    2    0    0 -0.41263283697E-02 -0.81434881002E-02  0.20604706245E-01  0.10213934319E+01  0.10211447722E+01 0.  0.
     999903    2    3    3    0    0 -0.69791077077E-01  0.10641308983E+00  0.26379142361E-01  0.13152354649E+00  0.20200099087E-01 0.  0.
         14    1    1    2    0    0  0.41263283697E-02  0.81434881002E-02 -0.20604706245E-01  0.22536568144E-01  0.00000000000E+00 0.  1.
     999901    1    3    3    0    0  0.65664748707E-01 -0.11455657793E+00 -0.57744361154E-02  0.88986988537E+00  0.88000000000E+00 0.  1.
        -11    1    4    4    0    0 -0.26458635184E-01  0.34689656895E-01 -0.13113747807E-03  0.43631525178E-01  0.51100000000E-03 0.  1.
         11    1    4    4    0    0 -0.43332441892E-01  0.71723432934E-01  0.26510279839E-01  0.87892021312E-01  0.51100000000E-03 0. -1.
</event>
<event>
 8    1  0.1116841E+005  0.1043930E+01  0.7957747E-01            NaN
         13   -1    0    0    0    0  0.00000000000E+00  0.00000000000E+00  0.74505805969E-08  0.10566000000E+00  0.10566000000E+00 0.  1.
     999900   -1    0    0    0    0 -0.00000000000E+00 -0.00000000000E+00 -0.74505805969E-08  0.93827000000E+00  0.93827000000E+00 0. -1.
     999902    2    1    2    0    0 -0.20583974601E-01 -0.76579711867E-02  0.93158592229E-02  0.10200735592E+01  0.10197945560E+01 0.  0.
     999903    2    3    3    0    0  0.81856253645E-01  0.96064856575E-01  0.99633062299E-02  0.12807981231E+00  0.19397626673E-01 0.  0.
         14    1    1    2    0    0  0.20583974601E-01  0.76579711867E-02 -0.93158592229E-02  0.23856440769E-01  0.00000000000E+00 0. -1.
     999901    1    3    3    0    0 -0.10244022825E+00 -0.10372282776E+00 -0.64744700702E-03  0.89199374692E+00  0.88000000000E+00 0.  1.
        -11    1    4    4    0    0  0.13320500369E-01  0.12469484914E-01  0.80844477369E-02  0.19963546787E-01  0.51100000000E-03 0.  1.
         11    1    4    4    0    0  0.68535753276E-01  0.83595371661E-01  0.18788584930E-02  0.10811626552E+00  0.51100000000E-03 0. -1.
</event>
<event>
 8    1  0.1116841E+005  0.1043930E+01  0.7957747E-01            NaN
         13   -1    0    0    0    0  0.00000000000E+00  0.00000000000E+00  0.74505805969E-08  0.10566000000E+00  0.10566000000E+00 0. -1.
     999900   -1    0    0    0    0 -0.00000000000E+00 -0.00000000000E+00 -0.74505805969E-08  0.93827000000E+00  0.93827000000E+00 0.  1.
     999902    2    1    2    0    0 -0.19577170012E-01  0.97956751586E-02  0.74041671516E-02  0.10208206398E+01  0.10205590312E+01 0.  0.
     999903    2    3    3    0    0 -0.15214954274E-01  0.61332848443E-01  0.11510144403E+00  0.13274755013E+00  0.19502730953E-01 0.  0.
         14    1    1    2    0    0  0.19577170012E-01 -0.97956751586E-02 -0.74041671516E-02  0.23109360197E-01  0.00000000000E+00 0.  1.
     999901    1    3    3    0    0 -0.43622157380E-02 -0.51537173284E-01 -0.10769727688E+00  0.88807308967E+00  0.88000000000E+00 0.  1.
        -11    1    4    4    0    0 -0.12036986442E-01  0.60112427455E-01  0.10031720125E+00  0.11756783133E+00  0.51100000000E-03 0. -1.
         11    1    4    4    0    0 -0.31779678320E-02  0.12204209871E-02  0.14784242787E-01  0.15179718796E-01  0.51100000000E-03 0.  1.
</event>
<event>
 8    1  0.1116841E+005  0.1043930E+01  0.7957747E-01            NaN
         13   -1    0    0    0    0  0.00000000000E+00  0.00000000000E+00  0.74505805969E-08  0.10566000000E+00  0.10566000000E+00 0. -1.
     999900   -1    0    0    0    0 -0.00000000000E+00 -0.00000000000E+00 -0.74505805969E-08  0.93827000000E+00  0.93827000000E+00 0. -1.
     999902    2    1    2    0    0  0.99734934371E-02 -0.21236224976E-01 -0.50581831155E-02  0.10199293117E+01  0.10196468839E+01 0.  0.
     999903    2    3    3    0    0  0.40091938519E-01 -0.12022596093E+00 -0.36100874382E-01  0.13332357224E+00  0.20254791218E-01 0.  0.
         14    1    1    2    0    0 -0.99734934371E-02  0.21236224976E-01  0.50581831155E-02  0.24000688302E-01  0.00000000000E+00 0. -1.
     999901    1    3    3    0    0 -0.30118445082E-01  0.98989735956E-01  0.31042691267E-01  0.88660573946E+00  0.88000000000E+00 0. -1.
        -11    1    4    4    0    0  0.36970487339E-01 -0.83177352873E-01 -0.22845011059E-01  0.93847986746E-01  0.51100000000E-03 0. -1.
         11    1    4    4    0    0  0.31214511798E-02 -0.37048608059E-01 -0.13255863323E-01  0.39475585493E-01  0.51100000000E-03 0.  1.
</event>
<event>
 7    1  0.1116841E+005  0.1043930E+01  0.7957747E-01            NaN
         13   -1    0    0    0    0  0.00000000000E+00  0.00000000000E+00  0.74505805969E-08  0.10566000000E+00  0.10566000000E+00 0. -1.
     999900   -1    0    0    0    0 -0.00000000000E+00 -0.00000000000E+00 -0.74505805969E-08  0.93827000000E+00  0.93827000000E+00 0.  1.
     999903    2    1    2    0    0  0.96818614268E-01  0.55366621709E-01  0.16742830559E-01  0.11459198326E+00  0.20290228787E-01 0.  0.
         14    1    1    2    0    0  0.92463692338E-02 -0.24878190727E-01  0.31430580330E-01  0.41137587407E-01  0.00000000000E+00 0.  1.
     999901    1    1    2    0    0 -0.10606498350E+00 -0.30488430983E-01 -0.48173410889E-01  0.88820042933E+00  0.88000000000E+00 0. -1.
        -11    1    3    3    0    0  0.59886193511E-01  0.43279203355E-01  0.16584627347E-01  0.75728175744E-01  0.51100000000E-03 0. -1.
         11    1    3    3    0    0  0.36932420757E-01  0.12087418354E-01  0.15820321270E-03  0.38863807517E-01  0.51100000000E-03 0.  1.
</event>
<event>
 8    1  0.1116841E+005  0.1043930E+01  0.7957747E-01            NaN
         13   -1    0    0    0    0  0.00000000000E+00  0.00000000000E+00  0.74505805969E-08  0.10566000000E+00  0.10566000000E+00 0. -1.
     999900   -1    0    0    0    0 -0.00000000000E+00 -0.00000000000E+00 -0.74505805969E-08  0.93827000000E+00  0.93827000000E+00 0.  1.
     999902    2    1    2    0    0 -0.46675214045E-04 -0.16409806448E-01 -0.16445560381E-01  0.10206976867E+01  0.10204332547E+01 0.  0.
     999903    2    3    3    0    0 -0.11266157445E+00  0.67015523290E-02  0.61024773952E-01  0.12984534025E+00  0.19956156607E-01 0.  0.
         14    1    1    2    0    0  0.46675214045E-04  0.16409806448E-01  0.16445560381E-01  0.23232313326E-01  0.00000000000E+00 0.  1.
     999901    1    3    3    0    0  0.11261489924E+00 -0.23111358777E-01 -0.77470334333E-01  0.89085234643E+00  0.88000000000E+00 0. -1.
        -11    1    4    4    0    0 -0.67936953096E-01 -0.46959710948E-02  0.31334629882E-01  0.74964003970E-01  0.51100000000E-03 0. -1.
         11    1    4    4    0    0 -0.44724621355E-01  0.11397523424E-01  0.29690144070E-01  0.54881336276E-01  0.51100000000E-03 0.  1.
</event>
<event>
 8    1  0.1116841E+005  0.1043930E+01  0.7957747E-01            NaN
         13   -1    0    0    0    0  0.00000000000E+00  0.00000000000E+00  0.74505805969E-08  0.10566000000E+00  0.10566000000E+00 0. -1.
     999900   -1    0    0    0    0 -0.00000000000E+00 -0.00000000000E+00 -0.74505805969E-08  0.93827000000E+00  0.93827000000E+00 0. -1.
     999902    2    1    2    0    0  0.12340280819E-01  0.11090956794E-01 -0.14654205516E-01  0.10217932073E+01  0.10215533862E+01 0.  0.
     999903    2    3    3    0    0  0.97021577917E-01  0.17925610147E-01 -0.89343694676E-01  0.13455245394E+00  0.19686365913E-01 0.  0.
         14    1    1    2    0    0 -0.12340280819E-01 -0.11090956794E-01  0.14654205516E-01  0.22136792736E-01  0.00000000000E+00 0. -1.
     999901    1    3    3    0    0 -0.84681297098E-01 -0.68346533526E-02  0.74689489160E-01  0.88724075332E+00  0.88000000000E+00 0.  1.
        -11    1    4    4    0    0  0.30980483531E-01  0.15084072906E-01 -0.32495223083E-01  0.47365813193E-01  0.51100000000E-03 0. -1.
         11    1    4    4    0    0  0.66041094387E-01  0.28415372406E-02 -0.56848471593E-01  0.87186640749E-01  0.51100000000E-03 0.  1.
</event>
<event>
 8    1  0.1330477E+005  0.1043930E+01  0.7957747E-01            NaN
         13   -1    0    0    0    0  0.00000000000E+00  0.00000000000E+00  0.74505805969E-08  0.10566000000E+00  0.10566000000E+00 0. -1.
     999900   -1    0    0    0    0 -0.00000000000E+00 -0.00000000000E+00 -0.74505805969E-08  0.93827000000E+00  0.93827000000E+00 0.  1.
     999902    2    1    2    0    0 -0.11468851407E-01  0.82612559300E-02  0.19055557682E-01  0.10202045457E+01  0.10199286337E+01 0.  0.
     999903    2    3    3    0    0 -0.36522950321E-01  0.92503074310E-01  0.86525967501E-01  0.13325660585E+00  0.19489363622E-01 0.  0.
         14    1    1    2    0    0  0.11468851407E-01 -0.82612559300E-02 -0.19055557682E-01  0.23725454278E-01  0.00000000000E+00 0.  1.
     999901    1    3    3    0    0  0.25054098914E-01 -0.84241818381E-01 -0.67470409819E-01  0.88694793987E+00  0.88000000000E+00 0.  1.
        -11    1    4    4    0    0 -0.20076085371E-01  0.45994011196E-01  0.56199317307E-01  0.75346683115E-01  0.51100000000E-03 0. -1.
         11    1    4    4    0    0 -0.16446864950E-01  0.46509063114E-01  0.30326650194E-01  0.57909922738E-01  0.51100000000E-03 0.  1.
</event>
<event>
 8    1  0.1116841E+005  0.1043930E+01  0.7957747E-01            NaN
         13   -1    0    0    0    0  0.00000000000E+00  0.00000000000E+00  0.74505805969E-08  0.10566000000E+00  0.10566000000E+00 0. -1.
     999900   -1    0    0    0    0 -0.00000000000E+00 -0.00000000000E+00 -0.74505805969E-08  0.93827000000E+00  0.93827000000E+00 0. -1.
     999902    2    1    2    0    0  0.82362635821E-02  0.19033201484E-01  0.11056406885E-01  0.10204280229E+01  0.10201573442E+01 0.  0.
     999903    2    3    3    0    0 -0.49775527042E-01  0.73124340388E-01 -0.94036473421E-01  0.13063269097E+00  0.19931617247E-01 0.  0.
         14    1    1    2    0    0 -0.82362635821E-02 -0.19033201484E-01 -0.11056406885E-01  0.23501977145E-01  0.00000000000E+00 0.  1.
     999901    1    3    3    0    0  0.58011790624E-01 -0.54091138905E-01  0.10509288031E+00  0.88979533189E+00  0.88000000000E+00 0.  1.
        -11    1    4    4    0    0 -0.44984748610E-01  0.69232741763E-01 -0.78581452576E-01  0.11398291955E+00  0.51100000000E-03 0. -1.
         11    1    4    4    0    0 -0.47907784320E-02  0.38915986253E-02 -0.15455020845E-01  0.16649771415E-01  0.51100000000E-03 0.  1.
</event>
<event>
 8    1  0.1116841E+005  0.1043930E+01  0.7957747E-01            NaN
         13   -1    0    0    0    0  0.00000000000E+00  0.00000000000E+00  0.74505805969E-08  0.10566000000E+00  0.10566000000E+00 0. -1.
     999900   -1    0    0    0    0 -0.00000000000E+00 -0.00000000000E+00 -0.74505805969E-08  0.93827000000E+00  0.93827000000E+00 0. -1.
     999902    2    1    2    0    0  0.10157971132E-01 -0.20005444043E-01 -0.55093136594E-02  0.10208268681E+01  0.10205654020E+01 0.  0.
     999903    2    3    3    0    0  0.20318673673E-01  0.12554355968E+00 -0.41827223894E-02  0.12881256760E+00  0.20028692616E-01 0.  0.
         14    1    1    2    0    0 -0.10157971132E-01  0.20005444043E-01  0.55093136594E-02  0.23103131949E-01  0.00000000000E+00 0. -1.
     999901    1    3    3    0    0 -0.10160702541E-01 -0.14554900373E+00 -0.13265912699E-02  0.89201430045E+00  0.88000000000E+00 0.  1.
        -11    1    4    4    0    0  0.10101845017E-01  0.82931991762E-01  0.62027927499E-02  0.83776478139E-01  0.51100000000E-03 0. -1.
         11    1    4    4    0    0  0.10216828656E-01  0.42611567920E-01 -0.10385515139E-01  0.45036089463E-01  0.51100000000E-03 0.  1.
</event>
<event>
 8    1  0.1116841E+005  0.1043930E+01  0.7957747E-01            NaN
         13   -1    0    0    0    0  0.00000000000E+00  0.00000000000E+00  0.74505805969E-08  0.10566000000E+00  0.10566000000E+00 0.  1.
     999900   -1    0    0    0    0 -0.00000000000E+00 -0.00000000000E+00 -0.74505805969E-08  0.93827000000E+00  0.93827000000E+00 0. -1.
     999902    2    1    2    0    0 -0.36240243478E-02 -0.85861906807E-02 -0.21531087094E-01  0.10204684584E+01  0.10201987212E+01 0.  0.
     999903    2    3    3    0    0 -0.46503238612E-01  0.11909779066E+00 -0.15375143982E-01  0.13019899260E+00  0.19197595670E-01 0.  0.
         14    1    1    2    0    0  0.36240243478E-02  0.85861906807E-02  0.21531087094E-01  0.23461541601E-01  0.00000000000E+00 0.  1.
     999901    1    3    3    0    0  0.42879214264E-01 -0.12768398134E+00 -0.61559431115E-02  0.89026946580E+00  0.88000000000E+00 0.  1.
        -11    1    4    4    0    0 -0.41994763763E-02  0.30668223183E-01 -0.75010822347E-02  0.31854401120E-01  0.51100000000E-03 0.  1.
         11    1    4    4    0    0 -0.42303762236E-01  0.88429567474E-01 -0.78740617476E-02  0.98344591475E-01  0.51100000000E-03 0. -1.
</event>
<event>
 8    1  0.1116841E+005  0.1043930E+01  0.7957747E-01            NaN
         13   -1    0    0    0    0  0.00000000000E+00  0.00000000000E+00  0.74505805969E-08  0.10566000000E+00  0.10566000000E+00 0.  1.
     999900   -1    0    0    0    0 -0.00000000000E+00 -0.00000000000E+00 -0.74505805969E-08  0.93827000000E+00  0.93827000000E+00 0.  1.
     999902    2    1    2    0    0  0.16523441744E-01  0.15991052208E-01  0.35349450576E-02  0.10206655698E+01  0.10204003977E+01 0.  0.
     999903    2    3    3    0    0  0.10018129962E+00 -0.80680750332E-01  0.16435650353E-01  0.13133407769E+00  0.20804641128E-01 0.  0.
         14    1    1    2    0    0 -0.16523441744E-01 -0.15991052208E-01 -0.35349450576E-02  0.23264430239E-01  0.00000000000E+00 0. -1.
     999901    1    3    3    0    0 -0.83657857877E-01  0.96671802540E-01 -0.12900705295E-01  0.88933149207E+00  0.88000000000E+00 0.  1.
        -11    1    4    4    0    0  0.15489792145E-01 -0.16040968122E-01  0.10429634491E-01  0.24622849461E-01  0.51100000000E-03 0.  1.
         11    1    4    4    0    0  0.84691507476E-01 -0.64639782210E-01  0.60060158623E-02  0.10671122823E+00  0.51100000000E-03 0. -1.
</event>
<event>
 8    1  0.1116841E+005  0.1043930E+01  0.7957747E-01            NaN
         13   -1    0    0    0    0  0.00000000000E+00  0.00000000000E+00  0.74505805969E-08  0.10566000000E+00  0.10566000000E+00 0.  1.
     999900   -1    0    0    0    0 -0.00000000000E+00 -0.00000000000E+00 -0.74505805969E-08  0.93827000000E+00  0.93827000000E+00 0.  1.
     999902    2    1    2    0    0 -0.19594983331E-01 -0.11265510932E-01  0.75904131139E-02  0.10200869826E+01  0.10198082970E+01 0.  0.
     999903    2    3    3    0    0 -0.59477197047E-01  0.10998363758E+00 -0.33334850106E-01  0.12993709399E+00  0.11768545386E-01 0.  0.
         14    1    1    2    0    0  0.19594983331E-01  0.11265510932E-01 -0.75904131139E-02  0.23843017417E-01  0.00000000000E+00 0. -1.
     999901    1    3    3    0    0  0.39882213716E-01 -0.12124914851E+00  0.40925263219E-01  0.89014988859E+00  0.88000000000E+00 0.  1.
        -11    1    4    4    0    0 -0.26730021518E-01  0.61188911802E-01 -0.19499565763E-01  0.69563432663E-01  0.51100000000E-03 0.  1.
         11    1    4    4    0    0 -0.32747175528E-01  0.48794725776E-01 -0.13835284342E-01  0.60373661331E-01  0.51100000000E-03 0. -1.
</event>
<event>
 8    1  0.1116841E+005  0.1043930E+01  0.7957747E-01            NaN
         13   -1    0    0    0    0  0.00000000000E+00  0.00000000000E+00  0.74505805969E-08  0.10566000000E+00  0.10566000000E+00 0.  1.
     999900   -1    0    0    0    0 -0.00000000000E+00 -0.00000000000E+00 -0.74505805969E-08  0.93827000000E+00  0.93827000000E+00 0.  1.
     999902    2    1    2    0    0 -0.28787861872E-02 -0.21962521618E-01  0.85997560493E-02  0.10201687801E+01  0.10198920258E+01 0.  0.
     999903    2    3    3    0    0  0.60394628712E-01  0.10377216041E+00 -0.38256788931E-01  0.12775168532E+00  0.20993778803E-01 0.  0.
         14    1    1    2    0    0  0.28787861872E-02  0.21962521618E-01 -0.85997560493E-02  0.23761219873E-01  0.00000000000E+00 0.  1.
     999901    1    3    3    0    0 -0.63273414899E-01 -0.12573468203E+00  0.46856544981E-01  0.89241709481E+00  0.88000000000E+00 0. -1.
        -11    1    4    4    0    0  0.42375236133E-01  0.78315574232E-01 -0.18865995212E-01  0.91022946013E-01  0.51100000000E-03 0. -1.
         11    1    4    4    0    0  0.18019392579E-01  0.25456586181E-01 -0.19390793719E-01  0.36728739306E-01  0.51100000000E-03 0.  1.
</event>
<event>
 8    1  0.1116841E+005  0.1043930E+01  0.7957747E-01            NaN
         13   -1    0    0    0    0  0.00000000000E+00  0.00000000000E+00  0.74505805969E-08  0.10566000000E+00  0.10566000000E+00 0. -1.
     999900   -1    0    0    0    0 -0.00000000000E+00 -0.00000000000E+00 -0.74505805969E-08  0.93827000000E+00  0.93827000000E+00 0. -1.
     999902    2    1    2    0    0 -0.97033026570E-03 -0.10323260130E-01  0.28669571303E-01  0.10134430264E+01  0.10129843593E+01 0.  0.
     999903    2    3    3    0    0  0.10284406097E-02 -0.12005218389E+00 -0.27619092691E-01  0.12484140279E+00  0.20223180307E-01 0.  0.
         14    1    1    2    0    0  0.97033026570E-03  0.10323260130E-01 -0.28669571303E-01  0.30486973599E-01  0.00000000000E+00 0.  1.
     999901    1    3    3    0    0 -0.19987708754E-02  0.10972892376E+00  0.56288663994E-01  0.88860162361E+00  0.88000000000E+00 0.  1.
        -11    1    4    4    0    0 -0.38890801905E-02 -0.66114101546E-02  0.97211133623E-03  0.77486650728E-02  0.51100000000E-03 0.  1.
         11    1    4    4    0    0  0.49175208002E-02 -0.11344077374E+00 -0.28591204028E-01  0.11709273771E+00  0.51100000000E-03 0. -1.
</event>
<event>
 8    1  0.1116841E+005  0.1043930E+01  0.7957747E-01            NaN
         13   -1    0    0    0    0  0.00000000000E+00  0.00000000000E+00  0.74505805969E-08  0.10566000000E+00  0.10566000000E+00 0. -1.
     999900   -1    0    0    0    0 -0.00000000000E+00 -0.00000000000E+00 -0.74505805969E-08  0.93827000000E+00  0.93827000000E+00 0. -1.
     999902    2    1    2    0    0 -0.29838193186E-02  0.30237302974E-02  0.23987308621E-01  0.10195694356E+01  0.10192783707E+01 0.  0.
     999903    2    3    3    0    0  0.49164030840E-01  0.10431766410E-01  0.12060415816E+00  0.13271595679E+00  0.23286016018E-01 0.  0.
         14    1    1    2    0    0  0.29838193186E-02 -0.30237302974E-02 -0.23987308621E-01  0.24360564392E-01  0.00000000000E+00 0.  1.
     999901    1    3    3    0    0 -0.52147850159E-01 -0.74080361125E-02 -0.96616849541E-01  0.88685347882E+00  0.88000000000E+00 0. -1.
        -11    1    4    4    0    0  0.17407705269E-01 -0.28814591986E-02  0.21612255430E-01  0.27904869031E-01  0.51100000000E-03 0.  1.
         11    1    4    4    0    0  0.31756325571E-01  0.13313225609E-01  0.98991902732E-01  0.10481108776E+00  0.51100000000E-03 0. -1.
</event>
<event>
 8    1  0.1116841E+005  0.1043930E+01  0.7957747E-01            NaN
         13   -1    0    0    0    0  0.00000000000E+00  0.00000000000E+00  0.74505805969E-08  0.10566000000E+00  0.10566000000E+00 0.  1.
     999900   -1    0    0    0    0 -0.00000000000E+00 -0.00000000000E+00 -0.74505805969E-08  0.93827000000E+00  0.93827000000E+00 0. -1.
     999902    2    1    2    0    0 -0.28317613680E-02 -0.22253749298E-01 -0.25973568330E-02  0.10213469424E+01  0.10210972442E+01 0.  0.
     999903    2    3    3    0    0 -0.71581950835E-01 -0.11155946762E+00 -0.18607504093E-02  0.13415888874E+00  0.20631396860E-01 0.  0.
         14    1    1    2    0    0  0.28317613680E-02  0.22253749298E-01  0.25973568330E-02  0.22583057649E-01  0.00000000000E+00 0.  1.
     999901    1    3    3    0    0  0.68750189467E-01  0.89305718318E-01 -0.73660642374E-03  0.88718805361E+00  0.88000000000E+00 0. -1.
        -11    1    4    4    0    0 -0.46530465553E-01 -0.54095752394E-01 -0.35851828222E-02  0.71446128717E-01  0.51100000000E-03 0.  1.
         11    1    4    4    0    0 -0.25051485282E-01 -0.57463715222E-01  0.17244324130E-02  0.62712760026E-01  0.51100000000E-03 0. -1.
</event>
<event>
 8    1  0.1116841E+005  0.1043930E+01  0.7957747E-01            NaN
         13   -1    0    0    0    0  0.00000000000E+00  0.00000000000E+00  0.74505805969E-08  0.10566000000E+00  0.10566000000E+00 0. -1.
     999900   -1    0    0    0    0 -0.00000000000E+00 -0.00000000000E+00 -0.74505805969E-08  0.93827000000E+00  0.93827000000E+00 0. -1.
     999902    2    1    2    0    0 -0.94514055366E-02  0.74344332147E-03 -0.21028291180E-01  0.10208633400E+01  0.10206027083E+01 0.  0.
     999903    2    3    3    0    0  0.63020057817E-01 -0.60324258110E-01  0.92099483179E-01  0.12857455797E+00  0.20941784851E-01 0.  0.
         14    1    1    2    0    0  0.94514055366E-02 -0.74344332147E-03  0.21028291180E-01  0.23066660021E-01  0.00000000000E+00 0.  1.
     999901    1    3    3    0    0 -0.72471463354E-01  0.61067701432E-01 -0.11312777436E+00  0.89228878200E+00  0.88000000000E+00 0. -1.
        -11    1    4    4    0    0  0.37324087606E-01 -0.36671397145E-01  0.40064896336E-01  0.65903990195E-01  0.51100000000E-03 0.  1.
         11    1    4    4    0    0  0.25695970211E-01 -0.23652860965E-01  0.52034586843E-01  0.62670567780E-01  0.51100000000E-03 0. -1.
</event>
<event>
 7    1  0.1116841E+005  0.1043930E+01  0.7957747E-01            NaN
         13   -1    0    0    0    0  0.00000000000E+00  0.00000000000E+00  0.74505805969E-08  0.10566000000E+00  0.10566000000E+00 0. -1.
     999900   -1    0    0    0    0 -0.00000000000E+00 -0.00000000000E+00 -0.74505805969E-08  0.93827000000E+00  0.93827000000E+00 0. -1.
     999903    2    1    2    0    0 -0.62718942090E-01  0.88656058510E-02 -0.61325322566E-01  0.90725878052E-01  0.21403857045E-01 0.  0.
         14    1    1    2    0    0 -0.27815040379E-02  0.34302307188E-01 -0.52123956622E-01  0.62460322583E-01  0.00000000000E+00 0.  1.
     999901    1    1    2    0    0  0.65500446128E-01 -0.43167913039E-01  0.11344927919E+00  0.89074379937E+00  0.88000000000E+00 0.  1.
        -11    1    3    3    0    0 -0.46202940812E-01  0.13817025406E-01 -0.52711418392E-01  0.71444920608E-01  0.51100000000E-03 0. -1.
         11    1    3    3    0    0 -0.16516001279E-01 -0.49514195554E-02 -0.86139041745E-02  0.19280957444E-01  0.51100000000E-03 0.  1.
</event>
<event>
 8    1  0.1116841E+005  0.1043930E+01  0.7957747E-01            NaN
         13   -1    0    0    0    0  0.00000000000E+00  0.00000000000E+00  0.74505805969E-08  0.10566000000E+00  0.10566000000E+00 0. -1.
     999900   -1    0    0    0    0 -0.00000000000E+00 -0.00000000000E+00 -0.74505805969E-08  0.93827000000E+00  0.93827000000E+00 0. -1.
     999902    2    1    2    0    0 -0.15793008877E-02 -0.10276525432E-01  0.19925093850E-01  0.10214553358E+01  0.10212080554E+01 0.  0.
     999903    2    3    3    0    0 -0.94846245433E-01 -0.74132573840E-01  0.54213702254E-01  0.13356343554E+00  0.20214277765E-01 0.  0.
         14    1    1    2    0    0  0.15793008877E-02  0.10276525432E-01 -0.19925093850E-01  0.22474664206E-01  0.00000000000E+00 0.  1.
     999901    1    3    3    0    0  0.93266944545E-01  0.63856048408E-01 -0.34288608404E-01  0.88789190025E+00  0.88000000000E+00 0. -1.
        -11    1    4    4    0    0 -0.53168092980E-01 -0.32149638679E-01  0.20269890920E-01  0.65357287101E-01  0.51100000000E-03 0.  1.
         11    1    4    4    0    0 -0.41678152453E-01 -0.41982935161E-01  0.33943811334E-01  0.68206148444E-01  0.51100000000E-03 0. -1.
</event>
<event>
 8    1  0.1116841E+005  0.1043930E+01  0.7957747E-01            NaN
         13   -1    0    0    0    0  0.00000000000E+00  0.00000000000E+00  0.74505805969E-08  0.10566000000E+00  0.10566000000E+00 0. -1.
     999900   -1    0    0    0    0 -0.00000000000E+00 -0.00000000000E+00 -0.74505805969E-08  0.93827000000E+00  0.93827000000E+00 0. -1.
     999902    2    1    2    0    0 -0.18241697766E-01  0.85496614132E-03  0.16520230412E-01  0.10193046367E+01  0.10190071314E+01 0.  0.
     999903    2    3    3    0    0 -0.10443344951E+00  0.28338106523E-01  0.74191149750E-01  0.13278882973E+00  0.20473225009E-01 0.  0.
         14    1    1    2    0    0  0.18241697766E-01 -0.85496614132E-03 -0.16520230412E-01  0.24625363294E-01  0.00000000000E+00 0.  1.
     999901    1    3    3    0    0  0.86191751747E-01 -0.27483140382E-01 -0.57670919338E-01  0.88651580697E+00  0.88000000000E+00 0. -1.
        -11    1    4    4    0    0 -0.48783592299E-01  0.19310781801E-01  0.45884457386E-01  0.69702150053E-01  0.51100000000E-03 0. -1.
         11    1    4    4    0    0 -0.55649857214E-01  0.90273247221E-02  0.28306692365E-01  0.63086679681E-01  0.51100000000E-03 0.  1.
</event>
<event>
 8    1  0.1116841E+005  0.1043930E+01  0.7957747E-01            NaN
         13   -1    0    0    0    0  0.00000000000E+00  0.00000000000E+00  0.74505805969E-08  0.10566000000E+00  0.10566000000E+00 0.  1.
     999900   -1    0    0    0    0 -0.00000000000E+00 -0.00000000000E+00 -0.74505805969E-08  0.93827000000E+00  0.93827000000E+00 0. -1.
     999902    2    1    2    0    0 -0.98774177857E-02  0.13277912234E-01  0.16719580131E-01  0.10204053173E+01  0.10201341093E+01 0.  0.
     999903    2    3    3    0    0 -0.23817233374E-01  0.12878706195E+00  0.69883054242E-02  0.13269400173E+00  0.20136875378E-01 0.  0.
         14    1    1    2    0    0  0.98774177857E-02 -0.13277912234E-01 -0.16719580131E-01  0.23524682679E-01  0.00000000000E+00 0. -1.
     999901    1    3    3    0    0  0.13939815588E-01 -0.11550914972E+00  0.97312747063E-02  0.88771131559E+00  0.88000000000E+00 0.  1.
        -11    1    4    4    0    0 -0.12615060003E-01  0.44194783410E-01  0.11023845445E-01  0.47266318970E-01  0.51100000000E-03 0. -1.
         11    1    4    4    0    0 -0.11202173371E-01  0.84592278540E-01 -0.40355400211E-02  0.85427682757E-01  0.51100000000E-03 0.  1.
</event>
<event>
 8    1  0.1116841E+005  0.1043930E+01  0.7957747E-01            NaN
         13   -1    0    0    0    0  0.00000000000E+00  0.00000000000E+00  0.74505805969E-08  0.10566000000E+00  0.10566000000E+00 0. -1.
     999900   -1    0    0    0    0 -0.00000000000E+00 -0.00000000000E+00 -0.74505805969E-08  0.93827000000E+00  0.93827000000E+00 0.  1.
     999902    2    1    2    0    0  0.11123322342E-01  0.97486786840E-02 -0.19808895833E-01  0.10192084024E+01  0.10189085386E+01 0.  0.
     999903    2    3    3    0    0 -0.41888814333E-01 -0.10566428405E+00  0.53210514182E-01  0.12709726979E+00  0.20068469755E-01 0.  0.
         14    1    1    2    0    0 -0.11123322342E-01 -0.97486786840E-02  0.19808895833E-01  0.24721597645E-01  0.00000000000E+00 0. -1.
     999901    1    3    3    0    0  0.53012136675E-01  0.11541296274E+00 -0.73019410015E-01  0.89211113256E+00  0.88000000000E+00 0. -1.
        -11    1    4    4    0    0 -0.29178038494E-01 -0.51392918820E-01  0.21016188530E-01  0.62725842652E-01  0.51100000000E-03 0.  1.
         11    1    4    4    0    0 -0.12710775840E-01 -0.54271365234E-01  0.32194325652E-01  0.64371427140E-01  0.51100000000E-03 0. -1.
</event>
<event>
 8    1  0.1116841E+005  0.1043930E+01  0.7957747E-01            NaN
         13   -1    0    0    0    0  0.00000000000E+00  0.00000000000E+00  0.74505805969E-08  0.10566000000E+00  0.10566000000E+00 0.  1.
     999900   -1    0    0    0    0 -0.00000000000E+00 -0.00000000000E+00 -0.74505805969E-08  0.93827000000E+00  0.93827000000E+00 0.  1.
     999902    2    1    2    0    0 -0.17760702638E-02  0.12559647915E-01 -0.20102277935E-01  0.10201602554E+01  0.10198833001E+01 0.  0.
     999903    2    3    3    0    0 -0.51547180300E-01  0.84439623663E-01 -0.87578181908E-01  0.13325727764E+00  0.17332116296E-01 0.  0.
         14    1    1    2    0    0  0.17760702638E-02 -0.12559647915E-01  0.20102277935E-01  0.23769744624E-01  0.00000000000E+00 0.  1.
     999901    1    3    3    0    0  0.49771110036E-01 -0.71879975749E-01  0.67475903972E-01  0.88690297774E+00  0.88000000000E+00 0.  1.
        -11    1    4    4    0    0 -0.25756081559E-01  0.56084115043E-01 -0.59616753215E-01  0.85809219099E-01  0.51100000000E-03 0.  1.
         11    1    4    4    0    0 -0.25791098741E-01  0.28355508620E-01 -0.27961428692E-01  0.47448058536E-01  0.51100000000E-03 0. -1.
</event>
<event>
 8    1  0.1116841E+005  0.1043930E+01  0.7957747E-01            NaN
         13   -1    0    0    0    0  0.00000000000E+00  0.00000000000E+00  0.74505805969E-08  0.10566000000E+00  0.10566000000E+00 0.  1.
     999900   -1    0    0    0    0 -0.00000000000E+00 -0.00000000000E+00 -0.74505805969E-08  0.93827000000E+00  0.93827000000E+00 0. -1.
     999902    2    1    2    0    0 -0.65810072438E-02 -0.64013956290E-02  0.21535869628E-01  0.10205188658E+01  0.10202502998E+01 0.  0.
     999903    2    3    3    0    0 -0.49680285445E-01 -0.94444350237E-01  0.79438890035E-01  0.13318472955E+00  0.63062573841E-02 0.  0.
         14    1    1    2    0    0  0.65810072438E-02  0.64013956290E-02 -0.21535869628E-01  0.23411134167E-01  0.00000000000E+00 0. -1.
     999901    1    3    3    0    0  0.43099278201E-01  0.88042954608E-01 -0.57903020407E-01  0.88733413628E+00  0.88000000000E+00 0. -1.
        -11    1    4    4    0    0 -0.18772163762E-01 -0.42305873303E-01  0.34299506175E-01  0.57609880169E-01  0.51100000000E-03 0.  1.
         11    1    4    4    0    0 -0.30908121683E-01 -0.52138476934E-01  0.45139383860E-01  0.75574849383E-01  0.51100000000E-03 0. -1.
</event>
<event>
 8    1  0.1116841E+005  0.1043930E+01  0.7957747E-01            NaN
         13   -1    0    0    0    0  0.00000000000E+00  0.00000000000E+00  0.74505805969E-08  0.10566000000E+00  0.10566000000E+00 0. -1.
     999900   -1    0    0    0    0 -0.00000000000E+00 -0.00000000000E+00 -0.74505805969E-08  0.93827000000E+00  0.93827000000E+00 0. -1.
     999902    2    1    2    0    0  0.95783213349E-02 -0.73005079964E-02 -0.24783036196E-01  0.10163756802E+01  0.10160021077E+01 0.  0.
     999903    2    3    3    0    0  0.63447277692E-01 -0.10702805199E+00 -0.27995843400E-01  0.12910020459E+00  0.20063265406E-01 0.  0.
         14    1    1    2    0    0 -0.95783213349E-02  0.73005079964E-02  0.24783036196E-01  0.27554319801E-01  0.00000000000E+00 0. -1.
     999901    1    3    3    0    0 -0.53868956357E-01  0.99727543990E-01  0.32128072037E-02  0.88727547561E+00  0.88000000000E+00 0. -1.
        -11    1    4    4    0    0  0.30134187979E-01 -0.54440015012E-01 -0.39064994358E-02  0.62348266844E-01  0.51100000000E-03 0.  1.
         11    1    4    4    0    0  0.33313089713E-01 -0.52588036974E-01 -0.24089343964E-01  0.66751937744E-01  0.51100000000E-03 0. -1.
</event>
<event>
 8    1  0.1116841E+005  0.1043930E+01  0.7957747E-01            NaN
         13   -1    0    0    0    0  0.00000000000E+00  0.00000000000E+00  0.74505805969E-08  0.10566000000E+00  0.10566000000E+00 0.  1.
     999900   -1    0    0    0    0 -0.00000000000E+00 -0.00000000000E+00 -0.74505805969E-08  0.93827000000E+00  0.93827000000E+00 0.  1.
     999902    2    1    2    0    0  0.79234362301E-02 -0.25203894998E-01 -0.30999535444E-02  0.10173287429E+01  0.10169808967E+01 0.  0.
     999903    2    3    3    0    0 -0.47230779963E-02 -0.10445921820E+00  0.75086249202E-01  0.13022422663E+00  0.19656262354E-01 0.  0.
         14    1    1    2    0    0 -0.79234362301E-02  0.25203894998E-01  0.30999535444E-02  0.26601257052E-01  0.00000000000E+00 0.  1.
     999901    1    3    3    0    0  0.12646514226E-01  0.79255323197E-01 -0.78186202747E-01  0.88710451632E+00  0.88000000000E+00 0.  1.
        -11    1    4    4    0    0  0.62924404458E-02 -0.21368337842E-01  0.19852388508E-01  0.29842572264E-01  0.51100000000E-03 0. -1.
         11    1    4    4    0    0 -0.11015518442E-01 -0.83090880353E-01  0.55233860694E-01  0.10038165436E+00  0.51100000000E-03 0.  1.
</event>
<event>
 8    1  0.1116841E+005  0.1043930E+01  0.7957747E-01            NaN
         13   -1    0    0    0    0  0.00000000000E+00  0.00000000000E+00  0.74505805969E-08  0.10566000000E+00  0.10566000000E+00 0.  1.
     999900   -1    0    0    0    0 -0.00000000000E+00 -0.00000000000E+00 -0.74505805969E-08  0.93827000000E+00  0.93827000000E+00 0. -1.
     999902    2    1    2    0    0 -0.18005091682E-01 -0.76216689985E-02 -0.12719340114E-01  0.10206050182E+01  0.10203384479E+01 0.  0.
     999903    2    3    3    0    0 -0.82770723923E-01 -0.71538533448E-01 -0.74389018892E-01  0.13376619292E+00  0.19771538366E-01 0.  0.
         14    1    1    2    0    0  0.18005091682E-01  0.76216689985E-02  0.12719340114E-01  0.23324981838E-01  0.00000000000E+00 0. -1.
     999901    1    3    3    0    0  0.64765632241E-01  0.63916864449E-01  0.61669678778E-01  0.88683882524E+00  0.88000000000E+00 0.  1.
        -11    1    4    4    0    0 -0.54514488782E-01 -0.44790081572E-01 -0.36432414965E-01  0.79407574422E-01  0.51100000000E-03 0. -1.
         11    1    4    4    0    0 -0.28256235141E-01 -0.26748451876E-01 -0.37956603927E-01  0.54358618495E-01  0.51100000000E-03 0.  1.
</event>
<event>
 8    1  0.1116841E+005  0.1043930E+01  0.7957747E-01            NaN
         13   -1    0    0    0    0  0.00000000000E+00  0.00000000000E+00  0.74505805969E-08  0.10566000000E+00  0.10566000000E+00 0. -1.
     999900   -1    0    0    0    0 -0.00000000000E+00 -0.00000000000E+00 -0.74505805969E-08  0.93827000000E+00  0.93827000000E+00 0. -1.
     999902    2    1    2    0    0  0.10383555982E-01 -0.54193757518E-02 -0.21252928337E-01  0.10196632567E+01  0.10193744563E+01 0.  0.
     999903    2    3    3    0    0 -0.73528014171E-01  0.37948028831E-01 -0.99745158798E-01  0.13113474638E+00  0.20020071011E-01 0.  0.
         14    1    1    2    0    0 -0.10383555982E-01  0.54193757518E-02  0.21252928337E-01  0.24266743318E-01  0.00000000000E+00 0. -1.
     999901    1    3    3    0    0  0.83911570153E-01 -0.43367404583E-01  0.78492230461E-01  0.88852851031E+00  0.88000000000E+00 0.  1.
        -11    1    4    4    0    0 -0.39288110146E-01  0.11863603315E-01 -0.58929873663E-01  0.71814286972E-01  0.51100000000E-03 0.  1.
         11    1    4    4    0    0 -0.34239904025E-01  0.26084425516E-01 -0.40815285135E-01  0.59320459403E-01  0.51100000000E-03 0. -1.
</event>
<event>
 8    1  0.1116841E+005  0.1043930E+01  0.7957747E-01            NaN
         13   -1    0    0    0    0  0.00000000000E+00  0.00000000000E+00  0.74505805969E-08  0.10566000000E+00  0.10566000000E+00 0. -1.
     999900   -1    0    0    0    0 -0.00000000000E+00 -0.00000000000E+00 -0.74505805969E-08  0.93827000000E+00  0.93827000000E+00 0.  1.
     999902    2    1    2    0    0  0.13199481835E-01 -0.71493857927E-02 -0.24635443269E-01  0.10150813414E+01  0.10146713185E+01 0.  0.
     999903    2    3    3    0    0 -0.51590915301E-04  0.10365988154E+00  0.63850080637E-01  0.12363085338E+00  0.21503055740E-01 0.  0.
         14    1    1    2    0    0 -0.13199481835E-01  0.71493857927E-02  0.24635443269E-01  0.28848658599E-01  0.00000000000E+00 0. -1.
     999901    1    3    3    0    0  0.13251072750E-01 -0.11080926734E+00 -0.88485523905E-01  0.89145048802E+00  0.88000000000E+00 0.  1.
        -11    1    4    4    0    0  0.94213319139E-02  0.76453461791E-01  0.45386947863E-01  0.89409895829E-01  0.51100000000E-03 0. -1.
         11    1    4    4    0    0 -0.94729228292E-02  0.27206419753E-01  0.18463132773E-01  0.34220957548E-01  0.51100000000E-03 0.  1.
</event>
<event>
 8    1  0.1116841E+005  0.1043930E+01  0.7957747E-01            NaN
         13   -1    0    0    0    0  0.00000000000E+00  0.00000000000E+00  0.74505805969E-08  0.10566000000E+00  0.10566000000E+00 0.  1.
     999900   -1    0    0    0    0 -0.00000000000E+00 -0.00000000000E+00 -0.74505805969E-08  0.93827000000E+00  0.93827000000E+00 0.  1.
     999902    2    1    2    0    0  0.15806146932E-01 -0.46581307113E-03  0.17774823853E-01  0.10201393374E+01  0.10198618888E+01 0.  0.
     999903    2    3    3    0    0  0.69932938039E-01  0.33620135321E-01  0.10660530066E+00  0.13335728134E+00  0.19963592738E-01 0.  0.
         14    1    1    2    0    0 -0.15806146932E-01  0.46581307113E-03 -0.17774823853E-01  0.23790662573E-01  0.00000000000E+00 0. -1.
     999901    1    3    3    0    0 -0.54126791107E-01 -0.34085948392E-01 -0.88830476807E-01  0.88678205609E+00  0.88000000000E+00 0.  1.
        -11    1    4    4    0    0  0.54476453411E-01  0.17412818173E-01  0.69426895351E-01  0.89951348695E-01  0.51100000000E-03 0.  1.
         11    1    4    4    0    0  0.15456484628E-01  0.16207317148E-01  0.37178405309E-01  0.43405932642E-01  0.51100000000E-03 0. -1.
</event>
<event>
 8    1  0.1116841E+005  0.1043930E+01  0.7957747E-01            NaN
         13   -1    0    0    0    0  0.00000000000E+00  0.00000000000E+00  0.74505805969E-08  0.10566000000E+00  0.10566000000E+00 0.  1.
     999900   -1    0    0    0    0 -0.00000000000E+00 -0.00000000000E+00 -0.74505805969E-08  0.93827000000E+00  0.93827000000E+00 0. -1.
     999902    2    1    2    0    0  0.19887102482E-01  0.77742847568E-02 -0.82619213273E-02  0.10210346797E+01  0.10207779491E+01 0.  0.
     999903    2    3    3    0    0  0.11037056845E+00  0.36619892094E-01  0.61956201918E-01  0.13314397046E+00  0.19132878450E-01 0.  0.
         14    1    1    2    0    0 -0.19887102482E-01 -0.77742847568E-02  0.82619213273E-02  0.22895320321E-01  0.00000000000E+00 0. -1.
     999901    1    3    3    0    0 -0.90483465970E-01 -0.28845607337E-01 -0.70218123245E-01  0.88789070921E+00  0.88000000000E+00 0. -1.
        -11    1    4    4    0    0  0.73493813921E-01  0.25079869260E-01  0.51252898596E-01  0.93045479537E-01  0.51100000000E-03 0. -1.
         11    1    4    4    0    0  0.36876754531E-01  0.11540022833E-01  0.10703303322E-01  0.40098490928E-01  0.51100000000E-03 0.  1.
</event>
<event>
 8    1  0.1116841E+005  0.1043930E+01  0.7957747E-01            NaN
         13   -1    0    0    0    0  0.00000000000E+00  0.00000000000E+00  0.74505805969E-08  0.10566000000E+00  0.10566000000E+00 0. -1.
     999900   -1    0    0    0    0 -0.00000000000E+00 -0.00000000000E+00 -0.74505805969E-08  0.93827000000E+00  0.93827000000E+00 0. -1.
     999902    2    1    2    0    0 -0.12233551613E-01 -0.19380254332E-01  0.60398767134E-02  0.10202290685E+01  0.10199537333E+01 0.  0.
     999903    2    3    3    0    0  0.59989162338E-01  0.10070232070E+00 -0.45775232632E-01  0.12763691595E+00  0.21357747991E-01 0.  0.
         14    1    1    2    0    0  0.12233551613E-01  0.19380254332E-01 -0.60398767134E-02  0.23700931495E-01  0.00000000000E+00 0.  1.
     999901    1    3    3    0    0 -0.72222713952E-01 -0.12008257503E+00  0.51815109345E-01  0.89259215255E+00  0.88000000000E+00 0.  1.
        -11    1    4    4    0    0  0.50539330262E-01  0.74748492694E-01 -0.26819483350E-01  0.94133452457E-01  0.51100000000E-03 0.  1.
         11    1    4    4    0    0  0.94498320766E-02  0.25953828008E-01 -0.18955749281E-01  0.33503463498E-01  0.51100000000E-03 0. -1.
</event>
<event>
 8    1  0.1116841E+005  0.1043930E+01  0.7957747E-01            NaN
         13   -1    0    0    0    0  0.00000000000E+00  0.00000000000E+00  0.74505805969E-08  0.10566000000E+00  0.10566000000E+00 0. -1.
     999900   -1    0    0    0    0 -0.00000000000E+00 -0.00000000000E+00 -0.74505805969E-08  0.93827000000E+00  0.93827000000E+00 0. -1.
     999902    2    1    2    0    0 -0.20717358081E-01 -0.66407000367E-02  0.70614279587E-02  0.10210570556E+01  0.10208008322E+01 0.  0.
     999903    2    3    3    0    0  0.45982339811E-01 -0.10884252508E+00 -0.52081066462E-01  0.13066843400E+00  0.20018274678E-01 0.  0.
         14    1    1    2    0    0  0.20717358081E-01  0.66407000367E-02 -0.70614279587E-02  0.22872944447E-01  0.00000000000E+00 0. -1.
     999901    1    3    3    0    0 -0.66699697893E-01  0.10220182504E+00  0.59142494421E-01  0.89038862155E+00  0.88000000000E+00 0. -1.
        -11    1    4    4    0    0  0.15096508352E-01 -0.20672210609E-01 -0.51394760660E-02  0.26113601650E-01  0.51100000000E-03 0. -1.
         11    1    4    4    0    0  0.30885831459E-01 -0.88170314468E-01 -0.46941590396E-01  0.10455483235E+00  0.51100000000E-03 0.  1.
</event>
<event>
 8    1  0.1116841E+005  0.1043930E+01  0.7957747E-01            NaN
         13   -1    0    0    0    0  0.00000000000E+00  0.00000000000E+00  0.74505805969E-08  0.10566000000E+00  0.10566000000E+00 0.  1.
     999900   -1    0    0    0    0 -0.00000000000E+00 -0.00000000000E+00 -0.74505805969E-08  0.93827000000E+00  0.93827000000E+00 0. -1.
     999902    2    1    2    0    0 -0.15601202171E-01 -0.16884023446E-01  0.10703237784E-03  0.10209413242E+01  0.10206824719E+01 0.  0.
     999903    2    3    3    0    0 -0.57482646393E-01  0.90871619229E-01  0.71760050556E-01  0.13049228645E+00  0.17799610947E-01 0.  0.
         14    1    1    2    0    0  0.15601202171E-01  0.16884023446E-01 -0.10703237784E-03  0.22988675752E-01  0.00000000000E+00 0.  1.
     999901    1    3    3    0    0  0.41881444222E-01 -0.10775564268E+00 -0.71653018178E-01  0.89044903780E+00  0.88000000000E+00 0. -1.
        -11    1    4    4    0    0 -0.46247729592E-01  0.81765839194E-01  0.57307644203E-01  0.11004059322E+00  0.51100000000E-03 0. -1.
         11    1    4    4    0    0 -0.11234916801E-01  0.91057800351E-02  0.14452406353E-01  0.20451693229E-01  0.51100000000E-03 0.  1.
</event>
<event>
 8    1  0.1116841E+005  0.1043930E+01  0.7957747E-01            NaN
         13   -1    0    0    0    0  0.00000000000E+00  0.00000000000E+00  0.74505805969E-08  0.10566000000E+00  0.10566000000E+00 0.  1.
     999900   -1    0    0    0    0 -0.00000000000E+00 -0.00000000000E+00 -0.74505805969E-08  0.93827000000E+00  0.93827000000E+00 0. -1.
     999902    2    1    2    0    0  0.21453977393E-01 -0.47158947877E-02 -0.61199477214E-02  0.10211272245E+01  0.10208725886E+01 0.  0.
     999903    2    3    3    0    0  0.90332422868E-01  0.94741093241E-01 -0.10258438749E-01  0.13284063798E+00  0.20138971249E-01 0.  0.
         14    1    1    2    0    0 -0.21453977393E-01  0.47158947877E-02  0.61199477214E-02  0.22802775483E-01  0.00000000000E+00 0. -1.
     999901    1    3    3    0    0 -0.68878445474E-01 -0.99456988028E-01  0.41384910279E-02  0.88828658654E+00  0.88000000000E+00 0.  1.
        -11    1    4    4    0    0  0.40682327848E-01  0.29378056021E-01 -0.56527422553E-03  0.50186677820E-01  0.51100000000E-03 0. -1.
         11    1    4    4    0    0  0.49650095020E-01  0.65363037220E-01 -0.96931645238E-02  0.82653960157E-01  0.51100000000E-03 0.  1.
</event>
<event>
 8    1  0.1116841E+005  0.1043930E+01  0.7957747E-01            NaN
         13   -1    0    0    0    0  0.00000000000E+00  0.00000000000E+00  0.74505805969E-08  0.10566000000E+00  0.10566000000E+00 0.  1.
     999900   -1    0    0    0    0 -0.00000000000E+00 -0.00000000000E+00 -0.74505805969E-08  0.93827000000E+00  0.93827000000E+00 0. -1.
     999902    2    1    2    0    0 -0.12236569067E-02  0.15814559276E-01 -0.18805984771E-01  0.10193279130E+01  0.10190309767E+01 0.  0.
     999903    2    3    3    0    0  0.52343901528E-01 -0.51059825701E-01  0.10203582691E+00  0.12694659869E+00  0.18898124766E-01 0.  0.
         14    1    1    2    0    0  0.12236569067E-02 -0.15814559276E-01  0.18805984771E-01  0.24602086996E-01  0.00000000000E+00 0.  1.
     999901    1    3    3    0    0 -0.53567558434E-01  0.66874384977E-01 -0.12084181168E+00  0.89238131431E+00  0.88000000000E+00 0. -1.
        -11    1    4    4    0    0  0.32925917673E-01 -0.18951664800E-01  0.50603154684E-01  0.63278922544E-01  0.51100000000E-03 0. -1.
         11    1    4    4    0    0  0.19417983854E-01 -0.32108160901E-01  0.51432672221E-01  0.63667676149E-01  0.51100000000E-03 0.  1.
</event>
<event>
 8    1  0.1116841E+005  0.1043930E+01  0.7957747E-01            NaN
         13   -1    0    0    0    0  0.00000000000E+00  0.00000000000E+00  0.74505805969E-08  0.10566000000E+00  0.10566000000E+00 0. -1.
     999900   -1    0    0    0    0 -0.00000000000E+00 -0.00000000000E+00 -0.74505805969E-08  0.93827000000E+00  0.93827000000E+00 0.  1.
     999902    2    1    2    0    0  0.86172095340E-02 -0.93476949177E-02  0.19653060891E-01  0.10205231954E+01  0.10202547299E+01 0.  0.
     999903    2    3    3    0    0  0.67065802894E-01 -0.18681691932E-01  0.11236689503E+00  0.13367528473E+00  0.19898118443E-01 0.  0.
         14    1    1    2    0    0 -0.86172095340E-02  0.93476949177E-02 -0.19653060891E-01  0.23406804627E-01  0.00000000000E+00 0.  1.
     999901    1    3    3    0    0 -0.58448593360E-01  0.93339970147E-02 -0.92713834143E-01  0.88684791064E+00  0.88000000000E+00 0.  1.
        -11    1    4    4    0    0  0.22216342522E-01 -0.71572544134E-02  0.56350015671E-01  0.60994897761E-01  0.51100000000E-03 0.  1.
         11    1    4    4    0    0  0.44849460372E-01 -0.11524437519E-01  0.56016879363E-01  0.72680386972E-01  0.51100000000E-03 0. -1.
</event>
<event>
 8    1  0.1116841E+005  0.1043930E+01  0.7957747E-01            NaN
         13   -1    0    0    0    0  0.00000000000E+00  0.00000000000E+00  0.74505805969E-08  0.10566000000E+00  0.10566000000E+00 0.  1.
     999900   -1    0    0    0    0 -0.00000000000E+00 -0.00000000000E+00 -0.74505805969E-08  0.93827000000E+00  0.93827000000E+00 0.  1.
     999902    2    1    2    0    0 -0.11574512880E-01  0.15729220701E-01 -0.13783086328E-01  0.10200270462E+01  0.10197469410E+01 0.  0.
     999903    2    3    3    0    0 -0.11829275544E+00  0.49460973557E-01  0.25839700552E-01  0.13205374722E+00  0.18191705084E-01 0.  0.
         14    1    1    2    0    0  0.11574512880E-01 -0.15729220701E-01  0.13783086328E-01  0.23902953813E-01  0.00000000000E+00 0.  1.
     999901    1    3    3    0    0  0.10671824256E+00 -0.33731752856E-01 -0.39622786880E-01  0.88797329897E+00  0.88000000000E+00 0.  1.
        -11    1    4    4    0    0 -0.85908325829E-01  0.35580636610E-01  0.10345228343E-01  0.93560178595E-01  0.51100000000E-03 0. -1.
         11    1    4    4    0    0 -0.32384429612E-01  0.13880336947E-01  0.15494472209E-01  0.38493568620E-01  0.51100000000E-03 0.  1.
</event>
<event>
 8    1  0.1116841E+005  0.1043930E+01  0.7957747E-01            NaN
         13   -1    0    0    0    0  0.00000000000E+00  0.00000000000E+00  0.74505805969E-08  0.10566000000E+00  0.10566000000E+00 0. -1.
     999900   -1    0    0    0    0 -0.00000000000E+00 -0.00000000000E+00 -0.74505805969E-08  0.93827000000E+00  0.93827000000E+00 0.  1.
     999902    2    1    2    0    0 -0.27093188539E-02  0.53593424510E-04 -0.23271761747E-01  0.10205009971E+01  0.10202320162E+01 0.  0.
     999903    2    3    3    0    0 -0.35506296203E-01 -0.12451994861E+00 -0.90266195084E-02  0.13100837030E+00  0.17770721871E-01 0.  0.
         14    1    1    2    0    0  0.27093188539E-02 -0.53593424510E-04  0.23271761747E-01  0.23429002875E-01  0.00000000000E+00 0. -1.
     999901    1    3    3    0    0  0.32796977349E-01  0.12457354204E+00 -0.14245142239E-01  0.88949262683E+00  0.88000000000E+00 0.  1.
        -11    1    4    4    0    0 -0.65369167833E-02 -0.54828965310E-01 -0.42828480093E-02  0.55385473060E-01  0.51100000000E-03 0.  1.
         11    1    4    4    0    0 -0.28969379419E-01 -0.69690983305E-01 -0.47437714991E-02  0.75622897240E-01  0.51100000000E-03 0. -1.
</event>
<event>
 8    1  0.1116841E+005  0.1043930E+01  0.7957747E-01            NaN
         13   -1    0    0    0    0  0.00000000000E+00  0.00000000000E+00  0.74505805969E-08  0.10566000000E+00  0.10566000000E+00 0.  1.
     999900   -1    0    0    0    0 -0.00000000000E+00 -0.00000000000E+00 -0.74505805969E-08  0.93827000000E+00  0.93827000000E+00 0.  1.
     999902    2    1    2    0    0 -0.49482104862E-02 -0.17832276093E-01 -0.91823278899E-02  0.10232711035E+01  0.10230625403E+01 0.  0.
     999903    2    3    3    0    0  0.76073718604E-01 -0.62372397321E-01 -0.89737575157E-01  0.13476813604E+00  0.20786810373E-01 0.  0.
         14    1    1    2    0    0  0.49482104862E-02  0.17832276093E-01  0.91823278899E-02  0.20658896465E-01  0.00000000000E+00 0. -1.
     999901    1    3    3    0    0 -0.81021929091E-01  0.44540121228E-01  0.80555247267E-01  0.88850296750E+00  0.88000000000E+00 0. -1.
        -11    1    4    4    0    0  0.56160210779E-01 -0.56400661815E-01 -0.74113289231E-01  0.10875681445E+00  0.51100000000E-03 0. -1.
         11    1    4    4    0    0  0.19913507825E-01 -0.59717355060E-02 -0.15624285926E-01  0.26011321584E-01  0.51100000000E-03 0.  1.
</event>
<event>
 8    1  0.1116841E+005  0.1043930E+01  0.7957747E-01            NaN
         13   -1    0    0    0    0  0.00000000000E+00  0.00000000000E+00  0.74505805969E-08  0.10566000000E+00  0.10566000000E+00 0.  1.
     999900   -1    0    0    0    0 -0.00000000000E+00 -0.00000000000E+00 -0.74505805969E-08  0.93827000000E+00  0.93827000000E+00 0. -1.
     999902    2    1    2    0    0 -0.15055757430E-01 -0.16572181519E-01 -0.78371143657E-02  0.10202079977E+01  0.10199321669E+01 0.  0.
     999903    2    3    3    0    0 -0.54489122668E-01 -0.10750179674E+00  0.51129548410E-01  0.13268320787E+00  0.21561589442E-01 0.  0.
         14    1    1    2    0    0  0.15055757430E-01  0.16572181519E-01  0.78371143657E-02  0.23722002311E-01  0.00000000000E+00 0. -1.
     999901    1    3    3    0    0  0.39433365238E-01  0.90929615222E-01 -0.58966662776E-01  0.88752478982E+00  0.88000000000E+00 0. -1.
        -11    1    4    4    0    0 -0.47859214995E-01 -0.10488258648E+00  0.47959154740E-01  0.12486473902E+00  0.51100000000E-03 0.  1.
         11    1    4    4    0    0 -0.66299076728E-02 -0.26192102595E-02  0.31703936704E-02  0.78184688500E-02  0.51100000000E-03 0. -1.
</event>
<event>
 8    1  0.1116841E+005  0.1043930E+01  0.7957747E-01            NaN
         13   -1    0    0    0    0  0.00000000000E+00  0.00000000000E+00  0.74505805969E-08  0.10566000000E+00  0.10566000000E+00 0.  1.
     999900   -1    0    0    0    0 -0.00000000000E+00 -0.00000000000E+00 -0.74505805969E-08  0.93827000000E+00  0.93827000000E+00 0. -1.
     999902    2    1    2    0    0  0.19946174416E-01 -0.73229510829E-02 -0.81918423047E-02  0.10211576096E+01  0.10209036594E+01 0.  0.
     999903    2    3    3    0    0 -0.64454277816E-01  0.60561089839E-01  0.91315610241E-01  0.12895056382E+00  0.21626550889E-01 0.  0.
         14    1    1    2    0    0 -0.19946174416E-01  0.73229510829E-02  0.81918423047E-02  0.22772390448E-01  0.00000000000E+00 0. -1.
     999901    1    3    3    0    0  0.84400452232E-01 -0.67884040922E-01 -0.99507452546E-01  0.89220704574E+00  0.88000000000E+00 0. -1.
        -11    1    4    4    0    0 -0.37434824463E-01  0.48955632783E-01  0.61078084880E-01  0.86768736520E-01  0.51100000000E-03 0. -1.
         11    1    4    4    0    0 -0.27019453353E-01  0.11605457056E-01  0.30237525362E-01  0.42181827295E-01  0.51100000000E-03 0.  1.
</event>
<event>
 8    1  0.1116841E+005  0.1043930E+01  0.7957747E-01            NaN
         13   -1    0    0    0    0  0.00000000000E+00  0.00000000000E+00  0.74505805969E-08  0.10566000000E+00  0.10566000000E+00 0.  1.
     999900   -1    0    0    0    0 -0.00000000000E+00 -0.00000000000E+00 -0.74505805969E-08  0.93827000000E+00  0.93827000000E+00 0. -1.
     999902    2    1    2    0    0  0.14848136700E-01  0.10926298146E-01 -0.14835396504E-01  0.10202669456E+01  0.10199925000E+01 0.  0.
     999903    2    3    3    0    0 -0.12245970824E+00 -0.26719623531E-01  0.19888736795E-01  0.12814788115E+00  0.17776365402E-01 0.  0.
         14    1    1    2    0    0 -0.14848136700E-01 -0.10926298146E-01  0.14835396504E-01  0.23663054411E-01  0.00000000000E+00 0.  1.
     999901    1    3    3    0    0  0.13730784494E+00  0.37645921678E-01 -0.34724133298E-01  0.89211906444E+00  0.88000000000E+00 0.  1.
        -11    1    4    4    0    0 -0.53260044322E-01 -0.29587990576E-02  0.10684062702E-01  0.54404017589E-01  0.51100000000E-03 0. -1.
         11    1    4    4    0    0 -0.69199663922E-01 -0.23760824474E-01  0.92046740927E-02  0.73743863560E-01  0.51100000000E-03 0.  1.
</event>
<event>
 8    1  0.1116841E+005  0.1043930E+01  0.7957747E-01            NaN
         13   -1    0    0    0    0  0.00000000000E+00  0.00000000000E+00  0.74505805969E-08  0.10566000000E+00  0.10566000000E+00 0.  1.
     999900   -1    0    0    0    0 -0.00000000000E+00 -0.00000000000E+00 -0.74505805969E-08  0.93827000000E+00  0.93827000000E+00 0.  1.
     999902    2    1    2    0    0  0.75991801703E-02 -0.18153311112E-01  0.12929320268E-01  0.10203830774E+01  0.10201113503E+01 0.  0.
     999903    2    3    3    0    0  0.12547574402E+00 -0.32515082950E-01  0.18327215568E-01  0.13239080145E+00  0.19749544798E-01 0.  0.
         14    1    1    2    0    0 -0.75991801703E-02  0.18153311112E-01 -0.12929320268E-01  0.23546922647E-01  0.00000000000E+00 0.  1.
     999901    1    3    3    0    0 -0.11787656385E+00  0.14361771838E-01 -0.53978953001E-02  0.88799227591E+00  0.88000000000E+00 0. -1.
        -11    1    4    4    0    0  0.10082947381E+00 -0.20651573092E-01  0.83175571427E-02  0.10325944576E+00  0.51100000000E-03 0. -1.
         11    1    4    4    0    0  0.24646270212E-01 -0.11863509858E-01  0.10009658425E-01  0.29131355689E-01  0.51100000000E-03 0.  1.
</event>
<event>
 8    1  0.1116841E+005  0.1043930E+01  0.7957747E-01            NaN
         13   -1    0    0    0    0  0.00000000000E+00  0.00000000000E+00  0.74505805969E-08  0.10566000000E+00  0.10566000000E+00 0. -1.
     999900   -1    0    0    0    0 -0.00000000000E+00 -0.00000000000E+00 -0.74505805969E-08  0.93827000000E+00  0.93827000000E+00 0. -1.
     999902    2    1    2    0    0  0.23060818701E-01 -0.35814962959E-02 -0.75528642293E-03  0.10205805047E+01  0.10203133673E+01 0.  0.
     999903    2    3    3    0    0 -0.68968946472E-01 -0.10062663404E+00 -0.39731740173E-01  0.12962236851E+00  0.18463807410E-01 0.  0.
         14    1    1    2    0    0 -0.23060818701E-01  0.35814962959E-02  0.75528642293E-03  0.23349495336E-01  0.00000000000E+00 0.  1.
     999901    1    3    3    0    0  0.92029765173E-01  0.97045137746E-01  0.38976453751E-01  0.89095813616E+00  0.88000000000E+00 0. -1.
        -11    1    4    4    0    0 -0.49267293800E-01 -0.70559520558E-01 -0.36655523486E-01  0.93540369374E-01  0.51100000000E-03 0.  1.
         11    1    4    4    0    0 -0.19701652672E-01 -0.30067113484E-01 -0.30762166878E-02  0.36081999132E-01  0.51100000000E-03 0. -1.
</event>
<event>
 8    1  0.1116841E+005  0.1043930E+01  0.7957747E-01            NaN
         13   -1    0    0    0    0  0.00000000000E+00  0.00000000000E+00  0.74505805969E-08  0.10566000000E+00  0.10566000000E+00 0.  1.
     999900   -1    0    0    0    0 -0.00000000000E+00 -0.00000000000E+00 -0.74505805969E-08  0.93827000000E+00  0.93827000000E+00 0.  1.
     999902    2    1    2    0    0 -0.22076700202E-01 -0.93920932964E-03  0.92006151660E-02  0.10199943754E+01  0.10197134949E+01 0.  0.
     999903    2    3    3    0    0  0.12076336226E-01 -0.12809582298E+00  0.30228972242E-02  0.13017787830E+00  0.19564363769E-01 0.  0.
         14    1    1    2    0    0  0.22076700202E-01  0.93920932964E-03 -0.92006151660E-02  0.23935624609E-01  0.00000000000E+00 0.  1.
     999901    1    3    3    0    0 -0.34153036429E-01  0.12715661365E+00  0.61777179418E-02  0.88981649709E+00  0.88000000000E+00 0.  1.
        -11    1    4    4    0    0  0.11339876735E-01 -0.10233442109E+00  0.10074467063E-01  0.10345377012E+00  0.51100000000E-03 0.  1.
         11    1    4    4    0    0  0.73645949104E-03 -0.25761401887E-01 -0.70515698388E-02  0.26724108179E-01  0.51100000000E-03 0. -1.
</event>
<event>
 8    1  0.1116841E+005  0.1043930E+01  0.7957747E-01            NaN
         13   -1    0    0    0    0  0.00000000000E+00  0.00000000000E+00  0.74505805969E-08  0.10566000000E+00  0.10566000000E+00 0. -1.
     999900   -1    0    0    0    0 -0.00000000000E+00 -0.00000000000E+00 -0.74505805969E-08  0.93827000000E+00  0.93827000000E+00 0. -1.
     999902    2    1    2    0    0 -0.18462055932E-01  0.14884168571E-01  0.41800683457E-02  0.10198497393E+01  0.10195654132E+01 0.  0.
     999903    2    3    3    0    0  0.12527346102E+00  0.41160353839E-02 -0.22259156697E-01  0.12773153854E+00  0.10463942754E-01 0.  0.
         14    1    1    2    0    0  0.18462055932E-01 -0.14884168571E-01 -0.41800683457E-02  0.24080260685E-01  0.00000000000E+00 0. -1.
     999901    1    3    3    0    0 -0.14373551695E+00  0.10768133187E-01  0.26439225043E-01  0.89211820077E+00  0.88000000000E+00 0.  1.
        -11    1    4    4    0    0  0.56785564305E-01 -0.19946553596E-02 -0.65600516337E-02  0.57200300365E-01  0.51100000000E-03 0. -1.
         11    1    4    4    0    0  0.68487896717E-01  0.61106907435E-02 -0.15699105064E-01  0.70531238178E-01  0.51100000000E-03 0.  1.
</event>
<event>
 8    1  0.1116841E+005  0.1043930E+01  0.7957747E-01            NaN
         13   -1    0    0    0    0  0.00000000000E+00  0.00000000000E+00  0.74505805969E-08  0.10566000000E+00  0.10566000000E+00 0.  1.
     999900   -1    0    0    0    0 -0.00000000000E+00 -0.00000000000E+00 -0.74505805969E-08  0.93827000000E+00  0.93827000000E+00 0.  1.
     999902    2    1    2    0    0 -0.17632145394E-01 -0.12593572336E-01  0.52467218212E-02  0.10216360837E+01  0.10213928083E+01 0.  0.
     999903    2    3    3    0    0 -0.92835897822E-01 -0.14948237016E-01 -0.91695595841E-01  0.13312105185E+00  0.21706644925E-01 0.  0.
         14    1    1    2    0    0  0.17632145394E-01  0.12593572336E-01 -0.52467218212E-02  0.22293916328E-01  0.00000000000E+00 0. -1.
     999901    1    3    3    0    0  0.75203752428E-01  0.23546646808E-02  0.96942317662E-01  0.88851503182E+00  0.88000000000E+00 0. -1.
        -11    1    4    4    0    0 -0.47017118380E-01  0.23285982245E-02 -0.51418196218E-01  0.69714588242E-01  0.51100000000E-03 0. -1.
         11    1    4    4    0    0 -0.45818779442E-01 -0.17276835241E-01 -0.40277399623E-01  0.63406463605E-01  0.51100000000E-03 0.  1.
</event>
<event>
 8    1  0.1116841E+005  0.1043930E+01  0.7957747E-01            NaN
         13   -1    0    0    0    0  0.00000000000E+00  0.00000000000E+00  0.74505805969E-08  0.10566000000E+00  0.10566000000E+00 0.  1.
     999900   -1    0    0    0    0 -0.00000000000E+00 -0.00000000000E+00 -0.74505805969E-08  0.93827000000E+00  0.93827000000E+00 0.  1.
     999902    2    1    2    0    0 -0.18594549736E-01 -0.63652777377E-02  0.12719945185E-01  0.10205190828E+01  0.10202505218E+01 0.  0.
     999903    2    3    3    0    0 -0.73266313309E-01 -0.79555477890E-01 -0.70894997817E-01  0.13184745284E+00  0.25702594741E-01 0.  0.
         14    1    1    2    0    0  0.18594549736E-01  0.63652777377E-02 -0.12719945185E-01  0.23410917241E-01  0.00000000000E+00 0. -1.
     999901    1    3    3    0    0  0.54671763573E-01  0.73190200153E-01  0.83614943003E-01  0.88867162992E+00  0.88000000000E+00 0. -1.
        -11    1    4    4    0    0 -0.35392671240E-01 -0.33353316919E-01 -0.17399856805E-01  0.51653664583E-01  0.51100000000E-03 0. -1.
         11    1    4    4    0    0 -0.37873642069E-01 -0.46202160971E-01 -0.53495141012E-01  0.80193788257E-01  0.51100000000E-03 0.  1.
</event>
<event>
 8    1  0.1116841E+005  0.1043930E+01  0.7957747E-01            NaN
         13   -1    0    0    0    0  0.00000000000E+00  0.00000000000E+00  0.74505805969E-08  0.10566000000E+00  0.10566000000E+00 0.  1.
     999900   -1    0    0    0    0 -0.00000000000E+00 -0.00000000000E+00 -0.74505805969E-08  0.93827000000E+00  0.93827000000E+00 0.  1.
     999902    2    1    2    0    0  0.15496157435E-01 -0.10305182081E-01  0.15311564205E-01  0.10198307952E+01  0.10195460162E+01 0.  0.
     999903    2    3    3    0    0 -0.95282988586E-01  0.70580995384E-01  0.45737987286E-01  0.12868526270E+00  0.20184363539E-01 0.  0.
         14    1    1    2    0    0 -0.15496157435E-01  0.10305182081E-01 -0.15311564205E-01  0.24099204787E-01  0.00000000000E+00 0. -1.
     999901    1    3    3    0    0  0.11077914602E+00 -0.80886177465E-01 -0.30426423080E-01  0.89114553251E+00  0.88000000000E+00 0. -1.
        -11    1    4    4    0    0 -0.44047703028E-01  0.34516814709E-01  0.10970365835E-01  0.57028244645E-01  0.51100000000E-03 0. -1.
         11    1    4    4    0    0 -0.51235285558E-01  0.36064180676E-01  0.34767621451E-01  0.71657018054E-01  0.51100000000E-03 0.  1.
</event>
<event>
 8    1  0.1116841E+005  0.1043930E+01  0.7957747E-01            NaN
         13   -1    0    0    0    0  0.00000000000E+00  0.00000000000E+00  0.74505805969E-08  0.10566000000E+00  0.10566000000E+00 0.  1.
     999900   -1    0    0    0    0 -0.00000000000E+00 -0.00000000000E+00 -0.74505805969E-08  0.93827000000E+00  0.93827000000E+00 0. -1.
     999902    2    1    2    0    0 -0.14423736903E-01 -0.13253391163E-01  0.41952290371E-02  0.10238976135E+01  0.10237016296E+01 0.  0.
     999903    2    3    3    0    0 -0.75935656869E-01  0.10346387570E+00  0.31730114237E-01  0.13363652447E+00  0.19517247853E-01 0.  0.
         14    1    1    2    0    0  0.14423736903E-01  0.13253391163E-01 -0.41952290371E-02  0.20032386533E-01  0.00000000000E+00 0. -1.
     999901    1    3    3    0    0  0.61511919966E-01 -0.11671726686E+00 -0.27534885200E-01  0.89026108900E+00  0.88000000000E+00 0. -1.
        -11    1    4    4    0    0 -0.55474693581E-01  0.76294465132E-01  0.14283722620E-01  0.95407404799E-01  0.51100000000E-03 0. -1.
         11    1    4    4    0    0 -0.20460963288E-01  0.27169410568E-01  0.17446391617E-01  0.38229119669E-01  0.51100000000E-03 0.  1.
</event>
<event>
 8    1  0.1116841E+005  0.1043930E+01  0.7957747E-01            NaN
         13   -1    0    0    0    0  0.00000000000E+00  0.00000000000E+00  0.74505805969E-08  0.10566000000E+00  0.10566000000E+00 0.  1.
     999900   -1    0    0    0    0 -0.00000000000E+00 -0.00000000000E+00 -0.74505805969E-08  0.93827000000E+00  0.93827000000E+00 0.  1.
     999902    2    1    2    0    0  0.41868096822E-02  0.19217853977E-01 -0.13715537439E-01  0.10199514418E+01  0.10196695408E+01 0.  0.
     999903    2    3    3    0    0 -0.12487893231E-01 -0.86558730806E-02  0.12607472860E+00  0.12832578667E+00  0.18487799186E-01 0.  0.
         14    1    1    2    0    0 -0.41868096822E-02 -0.19217853977E-01  0.13715537439E-01  0.23978558214E-01  0.00000000000E+00 0. -1.
     999901    1    3    3    0    0  0.16674702913E-01  0.27873727057E-01 -0.13979026603E+00  0.89162565511E+00  0.88000000000E+00 0.  1.
        -11    1    4    4    0    0 -0.10750075437E-01 -0.13148333600E-01  0.11485590365E+00  0.11610591080E+00  0.51100000000E-03 0. -1.
         11    1    4    4    0    0 -0.17378177940E-02  0.44924605192E-02  0.11218824942E-01  0.12219875870E-01  0.51100000000E-03 0.  1.
</event>
<event>
 8    1  0.1116841E+005  0.1043930E+01  0.7957747E-01            NaN
         13   -1    0    0    0    0  0.00000000000E+00  0.00000000000E+00  0.74505805969E-08  0.10566000000E+00  0.10566000000E+00 0.  1.
     999900   -1    0    0    0    0 -0.00000000000E+00 -0.00000000000E+00 -0.74505805969E-08  0.93827000000E+00  0.93827000000E+00 0. -1.
     999902    2    1    2    0    0  0.12074503722E-01 -0.73124059865E-02  0.18436315408E-01  0.10207101239E+01  0.10204459782E+01 0.  0.
     999903    2    3    3    0    0 -0.36212922488E-01  0.12136746845E+00 -0.16713745124E-01  0.12934840584E+00  0.20253954323E-01 0.  0.
         14    1    1    2    0    0 -0.12074503722E-01  0.73124059865E-02 -0.18436315408E-01  0.23219876125E-01  0.00000000000E+00 0. -1.
     999901    1    3    3    0    0  0.48287426210E-01 -0.12867987443E+00  0.35150060533E-01  0.89136171803E+00  0.88000000000E+00 0.  1.
        -11    1    4    4    0    0 -0.18785827690E-01  0.32028939629E-01 -0.72231926853E-02  0.37831150252E-01  0.51100000000E-03 0.  1.
         11    1    4    4    0    0 -0.17427094798E-01  0.89338528819E-01 -0.94905524388E-02  0.91517255593E-01  0.51100000000E-03 0. -1.
</event>
<event>
 8    1  0.1116841E+005  0.1043930E+01  0.7957747E-01            NaN
         13   -1    0    0    0    0  0.00000000000E+00  0.00000000000E+00  0.74505805969E-08  0.10566000000E+00  0.10566000000E+00 0.  1.
     999900   -1    0    0    0    0 -0.00000000000E+00 -0.00000000000E+00 -0.74505805969E-08  0.93827000000E+00  0.93827000000E+00 0. -1.
     999902    2    1    2    0    0 -0.22843216079E-01 -0.14776478757E-02  0.63570068373E-02  0.10201727380E+01  0.10198960769E+01 0.  0.
     999903    2    3    3    0    0 -0.43427711090E-01 -0.16476051186E-01  0.12201849442E+00  0.13223903928E+00  0.21005336807E-01 0.  0.
         14    1    1    2    0    0  0.22843216079E-01  0.14776478757E-02 -0.63570068373E-02  0.23757262048E-01  0.00000000000E+00 0. -1.
     999901    1    3    3    0    0  0.20584495011E-01  0.14998403311E-01 -0.11566148758E+00  0.88793369868E+00  0.88000000000E+00 0. -1.
        -11    1    4    4    0    0 -0.55587660530E-02 -0.89360926625E-02  0.43240558029E-01  0.44505736841E-01  0.51100000000E-03 0. -1.
         11    1    4    4    0    0 -0.37868945037E-01 -0.75399585240E-02  0.78777936392E-01  0.87733302434E-01  0.51100000000E-03 0.  1.
</event>
<event>
 8    1  0.1116841E+005  0.1043930E+01  0.7957747E-01            NaN
         13   -1    0    0    0    0  0.00000000000E+00  0.00000000000E+00  0.74505805969E-08  0.10566000000E+00  0.10566000000E+00 0. -1.
     999900   -1    0    0    0    0 -0.00000000000E+00 -0.00000000000E+00 -0.74505805969E-08  0.93827000000E+00  0.93827000000E+00 0. -1.
     999902    2    1    2    0    0 -0.16070490832E-01 -0.13081570199E-01  0.12369368358E-01  0.10197972540E+01  0.10195116723E+01 0.  0.
     999903    2    3    3    0    0  0.10081464078E+00 -0.65996729021E-01 -0.40656735738E-01  0.12891347051E+00  0.21131793114E-01 0.  0.
         14    1    1    2    0    0  0.16070490832E-01  0.13081570199E-01 -0.12369368358E-01  0.24132745970E-01  0.00000000000E+00 0.  1.
     999901    1    3    3    0    0 -0.11688513161E+00  0.52915158822E-01  0.53026104096E-01  0.89088378352E+00  0.88000000000E+00 0.  1.
        -11    1    4    4    0    0  0.45751373461E-01 -0.35031429429E-01 -0.29584040024E-01  0.64775502828E-01  0.51100000000E-03 0. -1.
         11    1    4    4    0    0  0.55063267321E-01 -0.30965299592E-01 -0.11072695714E-01  0.64137967681E-01  0.51100000000E-03 0.  1.
</event>
<event>
 8    1  0.1116841E+005  0.1043930E+01  0.7957747E-01            NaN
         13   -1    0    0    0    0  0.00000000000E+00  0.00000000000E+00  0.74505805969E-08  0.10566000000E+00  0.10566000000E+00 0.  1.
     999900   -1    0    0    0    0 -0.00000000000E+00 -0.00000000000E+00 -0.74505805969E-08  0.93827000000E+00  0.93827000000E+00 0.  1.
     999902    2    1    2    0    0  0.22953337388E-01  0.46018070830E-02  0.62672639420E-02  0.10196955014E+01  0.10194074772E+01 0.  0.
     999903    2    3    3    0    0 -0.10350275962E+00 -0.66210858532E-01 -0.26486470947E-01  0.12723912417E+00  0.19787939293E-01 0.  0.
         14    1    1    2    0    0 -0.22953337388E-01 -0.46018070830E-02 -0.62672639420E-02  0.24234498613E-01  0.00000000000E+00 0. -1.
     999901    1    3    3    0    0  0.12645609700E+00  0.70812665615E-01  0.32753734889E-01  0.89245637721E+00  0.88000000000E+00 0. -1.
        -11    1    4    4    0    0 -0.58382067470E-01 -0.33487010806E-01 -0.49672861775E-02  0.67489115772E-01  0.51100000000E-03 0.  1.
         11    1    4    4    0    0 -0.45120692147E-01 -0.32723847725E-01 -0.21519184770E-01  0.59750008401E-01  0.51100000000E-03 0. -1.
</event>
<event>
 8    1  0.1116841E+005  0.1043930E+01  0.7957747E-01            NaN
         13   -1    0    0    0    0  0.00000000000E+00  0.00000000000E+00  0.74505805969E-08  0.10566000000E+00  0.10566000000E+00 0.  1.
     999900   -1    0    0    0    0 -0.00000000000E+00 -0.00000000000E+00 -0.74505805969E-08  0.93827000000E+00  0.93827000000E+00 0. -1.
     999902    2    1    2    0    0  0.20356608246E-01 -0.59731504737E-02 -0.13710927583E-01  0.10186701591E+01  0.10183569284E+01 0.  0.
     999903    2    3    3    0    0 -0.37998852308E-01 -0.59528167780E-02  0.11927881402E+00  0.12676678344E+00  0.19053427656E-01 0.  0.
         14    1    1    2    0    0 -0.20356608246E-01  0.59731504737E-02  0.13710927583E-01  0.25259840875E-01  0.00000000000E+00 0.  1.
     999901    1    3    3    0    0  0.58355460553E-01 -0.20333695703E-04 -0.13298974160E+00  0.89190337569E+00  0.88000000000E+00 0. -1.
        -11    1    4    4    0    0 -0.78990583408E-02 -0.13728619394E-02  0.55651250058E-01  0.56228130207E-01  0.51100000000E-03 0. -1.
         11    1    4    4    0    0 -0.30099793967E-01 -0.45799548386E-02  0.63627563960E-01  0.70538653231E-01  0.51100000000E-03 0.  1.
</event>
<event>
 8    1  0.1116841E+005  0.1043930E+01  0.7957747E-01            NaN
         13   -1    0    0    0    0  0.00000000000E+00  0.00000000000E+00  0.74505805969E-08  0.10566000000E+00  0.10566000000E+00 0.  1.
     999900   -1    0    0    0    0 -0.00000000000E+00 -0.00000000000E+00 -0.74505805969E-08  0.93827000000E+00  0.93827000000E+00 0.  1.
     999902    2    1    2    0    0  0.43068537508E-03  0.71368877945E-02  0.22788108038E-01  0.10200465638E+01  0.10197669213E+01 0.  0.
     999903    2    3    3    0    0  0.69525509885E-01 -0.10311911955E+00  0.34090664844E-01  0.13040718195E+00  0.19403874186E-01 0.  0.
         14    1    1    2    0    0 -0.43068537508E-03 -0.71368877945E-02 -0.22788108038E-01  0.23883436210E-01  0.00000000000E+00 0. -1.
     999901    1    3    3    0    0 -0.69094824510E-01  0.11025600734E+00 -0.11302556807E-01  0.88963938184E+00  0.88000000000E+00 0.  1.
        -11    1    4    4    0    0  0.29340324226E-01 -0.28547517698E-01  0.75071676519E-02  0.41622518900E-01  0.51100000000E-03 0.  1.
         11    1    4    4    0    0  0.40185185659E-01 -0.74571601850E-01  0.26583497193E-01  0.88784663050E-01  0.51100000000E-03 0. -1.
</event>
<event>
 8    1  0.1116841E+005  0.1043930E+01  0.7957747E-01            NaN
         13   -1    0    0    0    0  0.00000000000E+00  0.00000000000E+00  0.74505805969E-08  0.10566000000E+00  0.10566000000E+00 0. -1.
     999900   -1    0    0    0    0 -0.00000000000E+00 -0.00000000000E+00 -0.74505805969E-08  0.93827000000E+00  0.93827000000E+00 0. -1.
     999902    2    1    2    0    0  0.21793814911E-01  0.37454909635E-02 -0.83707822746E-02  0.10202853586E+01  0.10200113450E+01 0.  0.
     999903    2    3    3    0    0 -0.59257091951E-01 -0.44562809836E-01 -0.10459271702E+00  0.13002606932E+00  0.21677068105E-01 0.  0.
         14    1    1    2    0    0 -0.21793814911E-01 -0.37454909635E-02  0.83707822746E-02  0.23644641397E-01  0.00000000000E+00 0.  1.
     999901    1    3    3    0    0  0.81050906861E-01  0.48308300800E-01  0.96221934747E-01  0.89025928928E+00  0.88000000000E+00 0.  1.
        -11    1    4    4    0    0 -0.34570331077E-01 -0.26677110175E-01 -0.42930312253E-01  0.61237642257E-01  0.51100000000E-03 0.  1.
         11    1    4    4    0    0 -0.24686760874E-01 -0.17885699661E-01 -0.61662404769E-01  0.68788427062E-01  0.51100000000E-03 0. -1.
</event>
<event>
 8    1  0.1116841E+005  0.1043930E+01  0.7957747E-01            NaN
         13   -1    0    0    0    0  0.00000000000E+00  0.00000000000E+00  0.74505805969E-08  0.10566000000E+00  0.10566000000E+00 0.  1.
     999900   -1    0    0    0    0 -0.00000000000E+00 -0.00000000000E+00 -0.74505805969E-08  0.93827000000E+00  0.93827000000E+00 0. -1.
     999902    2    1    2    0    0 -0.24310282930E-01  0.72618580824E-02 -0.10892502590E-03  0.10185580410E+01  0.10182419882E+01 0.  0.
     999903    2    3    3    0    0 -0.47898273012E-01 -0.27665061343E-01 -0.11581149147E+00  0.12998425855E+00  0.20591399597E-01 0.  0.
         14    1    1    2    0    0  0.24310282930E-01 -0.72618580824E-02  0.10892502590E-03  0.25371959002E-01  0.00000000000E+00 0. -1.
     999901    1    3    3    0    0  0.23587990082E-01  0.34926919425E-01  0.11570256644E+00  0.88857378245E+00  0.88000000000E+00 0.  1.
        -11    1    4    4    0    0 -0.81271801798E-02  0.29376628546E-02 -0.20894055655E-01  0.22616445420E-01  0.51100000000E-03 0.  1.
         11    1    4    4    0    0 -0.39771092832E-01 -0.30602724197E-01 -0.94917435814E-01  0.10736781313E+00  0.51100000000E-03 0. -1.
</event>
<event>
 8    1  0.1116841E+005  0.1043930E+01  0.7957747E-01            NaN
         13   -1    0    0    0    0  0.00000000000E+00  0.00000000000E+00  0.74505805969E-08  0.10566000000E+00  0.10566000000E+00 0.  1.
     999900   -1    0    0    0    0 -0.00000000000E+00 -0.00000000000E+00 -0.74505805969E-08  0.93827000000E+00  0.93827000000E+00 0.  1.
     999902    2    1    2    0    0 -0.27022446159E-02  0.23161227154E-01  0.50301591852E-02  0.10200752925E+01  0.10197963303E+01 0.  0.
     999903    2    3    3    0    0  0.10888984059E+00  0.71573218569E-01 -0.16059127624E-02  0.13168317644E+00  0.18925036364E-01 0.  0.
         14    1    1    2    0    0  0.27022446159E-02 -0.23161227154E-01 -0.50301591852E-02  0.23854707516E-01  0.00000000000E+00 0.  1.
     999901    1    3    3    0    0 -0.11159208521E+00 -0.48411991415E-01  0.66360719475E-02  0.88839211604E+00  0.88000000000E+00 0.  1.
        -11    1    4    4    0    0  0.99503662870E-01  0.66149029075E-01 -0.67424495775E-02  0.11967620782E+00  0.51100000000E-03 0.  1.
         11    1    4    4    0    0  0.93861777237E-02  0.54241894942E-02  0.51365368151E-02  0.12006968618E-01  0.51100000000E-03 0. -1.
</event>
<event>
 8    1  0.1116841E+005  0.1043930E+01  0.7957747E-01            NaN
         13   -1    0    0    0    0  0.00000000000E+00  0.00000000000E+00  0.74505805969E-08  0.10566000000E+00  0.10566000000E+00 0.  1.
     999900   -1    0    0    0    0 -0.00000000000E+00 -0.00000000000E+00 -0.74505805969E-08  0.93827000000E+00  0.93827000000E+00 0. -1.
     999902    2    1    2    0    0 -0.24684383394E-01 -0.15691853375E-02  0.11191310540E-02  0.10191704851E+01  0.10188696894E+01 0.  0.
     999903    2    3    3    0    0 -0.84862111816E-01  0.41496947393E-01  0.89488834653E-01  0.13165414419E+00  0.20024672018E-01 0.  0.
         14    1    1    2    0    0  0.24684383394E-01  0.15691853375E-02 -0.11191310540E-02  0.24759514948E-01  0.00000000000E+00 0.  1.
     999901    1    3    3    0    0  0.60177728422E-01 -0.43066132731E-01 -0.88369703599E-01  0.88751634086E+00  0.88000000000E+00 0. -1.
        -11    1    4    4    0    0 -0.48049449788E-01  0.32777747071E-01  0.47176756257E-01  0.74893509598E-01  0.51100000000E-03 0. -1.
         11    1    4    4    0    0 -0.36812662028E-01  0.87192003227E-02  0.42312078396E-01  0.56760634590E-01  0.51100000000E-03 0.  1.
</event>
<event>
 8    1  0.1116841E+005  0.1043930E+01  0.7957747E-01            NaN
         13   -1    0    0    0    0  0.00000000000E+00  0.00000000000E+00  0.74505805969E-08  0.10566000000E+00  0.10566000000E+00 0.  1.
     999900   -1    0    0    0    0 -0.00000000000E+00 -0.00000000000E+00 -0.74505805969E-08  0.93827000000E+00  0.93827000000E+00 0. -1.
     999902    2    1    2    0    0  0.12343429430E-01  0.13362323525E-01 -0.15064174579E-01  0.10203113359E+01  0.10200379311E+01 0.  0.
     999903    2    3    3    0    0  0.11932544758E-01  0.10467220185E+00 -0.78919441803E-01  0.13328531715E+00  0.20929453186E-01 0.  0.
         14    1    1    2    0    0 -0.12343429430E-01 -0.13362323525E-01  0.15064174579E-01  0.23618664142E-01  0.00000000000E+00 0. -1.
     999901    1    3    3    0    0  0.41088467228E-03 -0.91309878322E-01  0.63855267223E-01  0.88702601870E+00  0.88000000000E+00 0.  1.
        -11    1    4    4    0    0  0.88012323895E-02  0.39736024983E-01 -0.42149307571E-01  0.58593844581E-01  0.51100000000E-03 0. -1.
         11    1    4    4    0    0  0.31313123686E-02  0.64936176864E-01 -0.36770134231E-01  0.74691472574E-01  0.51100000000E-03 0.  1.
</event>
<event>
 8    1  0.1116841E+005  0.1043930E+01  0.7957747E-01            NaN
         13   -1    0    0    0    0  0.00000000000E+00  0.00000000000E+00  0.74505805969E-08  0.10566000000E+00  0.10566000000E+00 0.  1.
     999900   -1    0    0    0    0 -0.00000000000E+00 -0.00000000000E+00 -0.74505805969E-08  0.93827000000E+00  0.93827000000E+00 0. -1.
     999902    2    1    2    0    0  0.15867674750E-01 -0.17825822932E-01  0.29746714604E-02  0.10198802238E+01  0.10195966257E+01 0.  0.
     999903    2    3    3    0    0  0.12861834518E+00 -0.20016271346E-01  0.17688537249E-01  0.13256178626E+00  0.17788001283E-01 0.  0.
         14    1    1    2    0    0 -0.15867674750E-01  0.17825822932E-01 -0.29746714604E-02  0.24049776204E-01  0.00000000000E+00 0.  1.
     999901    1    3    3    0    0 -0.11275067043E+00  0.21904484138E-02 -0.14713865789E-01  0.88731843754E+00  0.88000000000E+00 0.  1.
        -11    1    4    4    0    0  0.80691474298E-01 -0.38255604857E-02  0.11254372275E-01  0.81563907175E-01  0.51100000000E-03 0.  1.
         11    1    4    4    0    0  0.47926870885E-01 -0.16190710860E-01  0.64341649744E-02  0.50997879083E-01  0.51100000000E-03 0. -1.
</event>
<event>
 8    1  0.1116841E+005  0.1043930E+01  0.7957747E-01            NaN
         13   -1    0    0    0    0  0.00000000000E+00  0.00000000000E+00  0.74505805969E-08  0.10566000000E+00  0.10566000000E+00 0.  1.
     999900   -1    0    0    0    0 -0.00000000000E+00 -0.00000000000E+00 -0.74505805969E-08  0.93827000000E+00  0.93827000000E+00 0.  1.
     999902    2    1    2    0    0  0.14927169804E-01 -0.74560648654E-03 -0.18034850435E-01  0.10205071019E+01  0.10202382627E+01 0.  0.
     999903    2    3    3    0    0 -0.12564815174E-01 -0.92451344829E-01  0.86943538757E-01  0.12911144678E+00  0.20136062609E-01 0.  0.
         14    1    1    2    0    0 -0.14927169804E-01  0.74560648654E-03  0.18034850435E-01  0.23422898147E-01  0.00000000000E+00 0.  1.
     999901    1    3    3    0    0  0.27491984978E-01  0.91705738342E-01 -0.10497838919E+00  0.89139565507E+00  0.88000000000E+00 0.  1.
        -11    1    4    4    0    0 -0.17777787775E-02 -0.74333654814E-01  0.67519819731E-01  0.10043823930E+00  0.51100000000E-03 0. -1.
         11    1    4    4    0    0 -0.10787036397E-01 -0.18117690015E-01  0.19423719026E-01  0.28673207485E-01  0.51100000000E-03 0.  1.
</event>
<event>
 8    1  0.1116841E+005  0.1043930E+01  0.7957747E-01            NaN
         13   -1    0    0    0    0  0.00000000000E+00  0.00000000000E+00  0.74505805969E-08  0.10566000000E+00  0.10566000000E+00 0.  1.
     999900   -1    0    0    0    0 -0.00000000000E+00 -0.00000000000E+00 -0.74505805969E-08  0.93827000000E+00  0.93827000000E+00 0.  1.
     999902    2    1    2    0    0  0.18928399279E-01 -0.11357249915E-01 -0.16390455770E-01  0.10164360286E+01  0.10160641130E+01 0.  0.
     999903    2    3    3    0    0  0.40320842977E-01  0.80230243276E-01 -0.89377341450E-01  0.12841970493E+00  0.20991644433E-01 0.  0.
         14    1    1    2    0    0 -0.18928399279E-01  0.11357249915E-01  0.16390455770E-01  0.27493971434E-01  0.00000000000E+00 0.  1.
     999901    1    3    3    0    0 -0.21392443698E-01 -0.91587493190E-01  0.72986885680E-01  0.88801632363E+00  0.88000000000E+00 0.  1.
        -11    1    4    4    0    0  0.33006571883E-01  0.56800050400E-01 -0.76008589929E-01  0.10046515006E+00  0.51100000000E-03 0.  1.
         11    1    4    4    0    0  0.73142710939E-02  0.23430192876E-01 -0.13368751520E-01  0.27954554871E-01  0.51100000000E-03 0. -1.
</event>
<event>
 8    1  0.1116841E+005  0.1043930E+01  0.7957747E-01            NaN
         13   -1    0    0    0    0  0.00000000000E+00  0.00000000000E+00  0.74505805969E-08  0.10566000000E+00  0.10566000000E+00 0. -1.
     999900   -1    0    0    0    0 -0.00000000000E+00 -0.00000000000E+00 -0.74505805969E-08  0.93827000000E+00  0.93827000000E+00 0. -1.
     999902    2    1    2    0    0  0.16486181800E-01 -0.15476142945E-01 -0.34948557624E-02  0.10210494579E+01  0.10207930624E+01 0.  0.
     999903    2    3    3    0    0  0.12460359227E-01 -0.34627880195E-01 -0.12569045201E+00  0.13239049066E+00  0.19359794708E-01 0.  0.
         14    1    1    2    0    0 -0.16486181800E-01  0.15476142945E-01  0.34948557624E-02  0.22880542118E-01  0.00000000000E+00 0. -1.
     999901    1    3    3    0    0  0.40258225739E-02  0.19151737249E-01  0.12219559625E+00  0.88865896722E+00  0.88000000000E+00 0.  1.
        -11    1    4    4    0    0  0.82660977786E-02 -0.12264613752E-01 -0.79866360279E-01  0.81225893336E-01  0.51100000000E-03 0.  1.
         11    1    4    4    0    0  0.41942614480E-02 -0.22363266443E-01 -0.45824091730E-01  0.51164597321E-01  0.51100000000E-03 0. -1.
</event>
<event>
 8    1  0.1116841E+005  0.1043930E+01  0.7957747E-01            NaN
         13   -1    0    0    0    0  0.00000000000E+00  0.00000000000E+00  0.74505805969E-08  0.10566000000E+00  0.10566000000E+00 0.  1.
     999900   -1    0    0    0    0 -0.00000000000E+00 -0.00000000000E+00 -0.74505805969E-08  0.93827000000E+00  0.93827000000E+00 0. -1.
     999902    2    1    2    0    0  0.13622546039E-01 -0.18131183467E-01 -0.39211438896E-02  0.10209150278E+01  0.10206555761E+01 0.  0.
     999903    2    3    3    0    0  0.12600781025E+00  0.21120538769E-01 -0.29443634516E-01  0.13253304758E+00  0.19340002198E-01 0.  0.
         14    1    1    2    0    0 -0.13622546039E-01  0.18131183467E-01  0.39211438896E-02  0.23014972168E-01  0.00000000000E+00 0.  1.
     999901    1    3    3    0    0 -0.11238526421E+00 -0.39251722236E-01  0.25522490626E-01  0.88838198025E+00  0.88000000000E+00 0.  1.
        -11    1    4    4    0    0  0.44868003708E-01  0.16832879684E-01 -0.12559419888E-01  0.49542746635E-01  0.51100000000E-03 0. -1.
         11    1    4    4    0    0  0.81139806543E-01  0.42876590852E-02 -0.16884214628E-01  0.82990300945E-01  0.51100000000E-03 0.  1.
</event>
<event>
 8    1  0.1116841E+005  0.1043930E+01  0.7957747E-01            NaN
         13   -1    0    0    0    0  0.00000000000E+00  0.00000000000E+00  0.74505805969E-08  0.10566000000E+00  0.10566000000E+00 0. -1.
     999900   -1    0    0    0    0 -0.00000000000E+00 -0.00000000000E+00 -0.74505805969E-08  0.93827000000E+00  0.93827000000E+00 0. -1.
     999902    2    1    2    0    0 -0.21362679683E-02 -0.20817373890E-01  0.97954771469E-02  0.10208241984E+01  0.10205626712E+01 0.  0.
     999903    2    3    3    0    0  0.65864237076E-01 -0.72914130067E-02  0.11260409842E+00  0.13213041932E+00  0.19685078118E-01 0.  0.
         14    1    1    2    0    0  0.21362679683E-02  0.20817373890E-01 -0.97954771469E-02  0.23105801632E-01  0.00000000000E+00 0. -1.
     999901    1    3    3    0    0 -0.68000505044E-01 -0.13525960883E-01 -0.10280862127E+00  0.88869377904E+00  0.88000000000E+00 0. -1.
        -11    1    4    4    0    0  0.61062451096E-01 -0.40273394341E-02  0.90343714383E-01  0.10911961440E+00  0.51100000000E-03 0. -1.
         11    1    4    4    0    0  0.48017859797E-02 -0.32640735726E-02  0.22260384037E-01  0.23010804926E-01  0.51100000000E-03 0.  1.
</event>
<event>
 8    1  0.1116841E+005  0.1043930E+01  0.7957747E-01            NaN
         13   -1    0    0    0    0  0.00000000000E+00  0.00000000000E+00  0.74505805969E-08  0.10566000000E+00  0.10566000000E+00 0.  1.
     999900   -1    0    0    0    0 -0.00000000000E+00 -0.00000000000E+00 -0.74505805969E-08  0.93827000000E+00  0.93827000000E+00 0.  1.
     999902    2    1    2    0    0 -0.20330138000E-01 -0.92094729146E-02 -0.84090998901E-02  0.10200795941E+01  0.10198007337E+01 0.  0.
     999903    2    3    3    0    0  0.52001578497E-01 -0.10163323433E+00  0.58402905708E-01  0.12977746951E+00  0.19945267894E-01 0.  0.
         14    1    1    2    0    0  0.20330138000E-01  0.92094729146E-02  0.84090998901E-02  0.23850405938E-01  0.00000000000E+00 0.  1.
     999901    1    3    3    0    0 -0.72331716497E-01  0.92423761415E-01 -0.66812005598E-01  0.89030212455E+00  0.88000000000E+00 0. -1.
        -11    1    4    4    0    0  0.47495506425E-01 -0.90356200502E-01  0.44634860775E-01  0.11141183966E+00  0.51100000000E-03 0.  1.
         11    1    4    4    0    0  0.45060720715E-02 -0.11277033827E-01  0.13768044933E-01  0.18365629849E-01  0.51100000000E-03 0. -1.
</event>
<event>
 8    1  0.1116841E+005  0.1043930E+01  0.7957747E-01            NaN
         13   -1    0    0    0    0  0.00000000000E+00  0.00000000000E+00  0.74505805969E-08  0.10566000000E+00  0.10566000000E+00 0.  1.
     999900   -1    0    0    0    0 -0.00000000000E+00 -0.00000000000E+00 -0.74505805969E-08  0.93827000000E+00  0.93827000000E+00 0.  1.
     999902    2    1    2    0    0 -0.13884714213E-02 -0.85623492689E-02 -0.21459930958E-01  0.10207832872E+01  0.10205208225E+01 0.  0.
     999903    2    3    3    0    0 -0.11079262756E+00 -0.67992836018E-01  0.18385103953E-02  0.13171407192E+00  0.21146738553E-01 0.  0.
         14    1    1    2    0    0  0.13884714213E-02  0.85623492689E-02  0.21459930958E-01  0.23146712826E-01  0.00000000000E+00 0.  1.
     999901    1    3    3    0    0  0.10940415614E+00  0.59430486749E-01 -0.23298441354E-01  0.88906921525E+00  0.88000000000E+00 0. -1.
        -11    1    4    4    0    0 -0.76419983292E-01 -0.41605176804E-01 -0.76578361371E-02  0.87349345496E-01  0.51100000000E-03 0. -1.
         11    1    4    4    0    0 -0.34372644267E-01 -0.26387659213E-01  0.94963465324E-02  0.44364726429E-01  0.51100000000E-03 0.  1.
</event>
<event>
 8    1  0.1116841E+005  0.1043930E+01  0.7957747E-01            NaN
         13   -1    0    0    0    0  0.00000000000E+00  0.00000000000E+00  0.74505805969E-08  0.10566000000E+00  0.10566000000E+00 0. -1.
     999900   -1    0    0    0    0 -0.00000000000E+00 -0.00000000000E+00 -0.74505805969E-08  0.93827000000E+00  0.93827000000E+00 0. -1.
     999902    2    1    2    0    0 -0.14964327577E-01  0.17227265611E-01  0.57214244796E-02  0.10204045993E+01  0.10201333745E+01 0.  0.
     999903    2    3    3    0    0 -0.10310363060E+00  0.65197564555E-01 -0.48935188989E-01  0.13301684205E+00  0.20438847345E-01 0.  0.
         14    1    1    2    0    0  0.14964327577E-01 -0.17227265611E-01 -0.57214244796E-02  0.23525400706E-01  0.00000000000E+00 0. -1.
     999901    1    3    3    0    0  0.88139303018E-01 -0.47970298944E-01  0.54656613469E-01  0.88738775725E+00  0.88000000000E+00 0.  1.
        -11    1    4    4    0    0 -0.73537735032E-01  0.40445241121E-01 -0.41945133946E-01  0.93825750121E-01  0.51100000000E-03 0. -1.
         11    1    4    4    0    0 -0.29565895563E-01  0.24752323434E-01 -0.69900550438E-02  0.39191091926E-01  0.51100000000E-03 0.  1.
</event>
<event>
 8    1  0.1116841E+005  0.1043930E+01  0.7957747E-01            NaN
         13   -1    0    0    0    0  0.00000000000E+00  0.00000000000E+00  0.74505805969E-08  0.10566000000E+00  0.10566000000E+00 0. -1.
     999900   -1    0    0    0    0 -0.00000000000E+00 -0.00000000000E+00 -0.74505805969E-08  0.93827000000E+00  0.93827000000E+00 0.  1.
     999902    2    1    2    0    0 -0.12271248802E-01  0.38242488747E-02  0.20679843580E-01  0.10195811939E+01  0.10192904133E+01 0.  0.
     999903    2    3    3    0    0 -0.12418469823E+00  0.48239223841E-02  0.40085875701E-01  0.13228067348E+00  0.21123201555E-01 0.  0.
         14    1    1    2    0    0  0.12271248802E-01 -0.38242488747E-02 -0.20679843580E-01  0.24348806071E-01  0.00000000000E+00 0.  1.
     999901    1    3    3    0    0  0.11191344943E+00 -0.99967350940E-03 -0.19406032121E-01  0.88730052045E+00  0.88000000000E+00 0.  1.
        -11    1    4    4    0    0 -0.62190613690E-01  0.89366346426E-02  0.11447672789E-01  0.63865845357E-01  0.51100000000E-03 0.  1.
         11    1    4    4    0    0 -0.61994084538E-01 -0.41127122585E-02  0.28638202911E-01  0.68414828121E-01  0.51100000000E-03 0. -1.
</event>
<event>
 8    1  0.1116841E+005  0.1043930E+01  0.7957747E-01            NaN
         13   -1    0    0    0    0  0.00000000000E+00  0.00000000000E+00  0.74505805969E-08  0.10566000000E+00  0.10566000000E+00 0.  1.
     999900   -1    0    0    0    0 -0.00000000000E+00 -0.00000000000E+00 -0.74505805969E-08  0.93827000000E+00  0.93827000000E+00 0.  1.
     999902    2    1    2    0    0 -0.79636453008E-02  0.19062195956E-01 -0.12344145387E-01  0.10198641552E+01  0.10195801735E+01 0.  0.
     999903    2    3    3    0    0  0.47746005322E-02 -0.10772242922E+00 -0.67446517528E-01  0.12898095549E+00  0.21450771180E-01 0.  0.
         14    1    1    2    0    0  0.79636453008E-02 -0.19062195956E-01  0.12344145387E-01  0.24065844811E-01  0.00000000000E+00 0.  1.
     999901    1    3    3    0    0 -0.12738245833E-01  0.12678462518E+00  0.55102372141E-01  0.89088319970E+00  0.88000000000E+00 0. -1.
        -11    1    4    4    0    0  0.10528648433E-01 -0.98451600713E-01 -0.61053121099E-01  0.11632417994E+00  0.51100000000E-03 0. -1.
         11    1    4    4    0    0 -0.57540479011E-02 -0.92708285121E-02 -0.63933964293E-02  0.12656775555E-01  0.51100000000E-03 0.  1.
</event>
<event>
 8    1  0.1116841E+005  0.1043930E+01  0.7957747E-01            NaN
         13   -1    0    0    0    0  0.00000000000E+00  0.00000000000E+00  0.74505805969E-08  0.10566000000E+00  0.10566000000E+00 0. -1.
     999900   -1    0    0    0    0 -0.00000000000E+00 -0.00000000000E+00 -0.74505805969E-08  0.93827000000E+00  0.93827000000E+00 0. -1.
     999902    2    1    2    0    0  0.18788634717E-01 -0.14970010305E-01 -0.89922994747E-03  0.10198899788E+01  0.10196066135E+01 0.  0.
     999903    2    3    3    0    0 -0.59645300240E-01 -0.84926647319E-01  0.76167394911E-01  0.13029171114E+00  0.20108721480E-01 0.  0.
         14    1    1    2    0    0 -0.18788634717E-01  0.14970010305E-01  0.89922994747E-03  0.24040021164E-01  0.00000000000E+00 0.  1.
     999901    1    3    3    0    0  0.78433934958E-01  0.69956637014E-01 -0.77066624858E-01  0.88959826769E+00  0.88000000000E+00 0. -1.
        -11    1    4    4    0    0 -0.35481657906E-01 -0.55627262429E-01  0.59374798866E-01  0.88763552399E-01  0.51100000000E-03 0. -1.
         11    1    4    4    0    0 -0.24163642334E-01 -0.29299384890E-01  0.16792596045E-01  0.41528158744E-01  0.51100000000E-03 0.  1.
</event>
<event>
 8    1  0.1116841E+005  0.1043930E+01  0.7957747E-01            NaN
         13   -1    0    0    0    0  0.00000000000E+00  0.00000000000E+00  0.74505805969E-08  0.10566000000E+00  0.10566000000E+00 0. -1.
     999900   -1    0    0    0    0 -0.00000000000E+00 -0.00000000000E+00 -0.74505805969E-08  0.93827000000E+00  0.93827000000E+00 0. -1.
     999902    2    1    2    0    0 -0.88184149621E-02 -0.10287948415E-01  0.21571671723E-01  0.10184556336E+01  0.10181369918E+01 0.  0.
     999903    2    3    3    0    0  0.38297317359E-01  0.11908565240E+00  0.18345584107E-01  0.12774365515E+00  0.18270299712E-01 0.  0.
         14    1    1    2    0    0  0.88184149621E-02  0.10287948415E-01 -0.21571671723E-01  0.25474366449E-01  0.00000000000E+00 0.  1.
     999901    1    3    3    0    0 -0.47115732322E-01 -0.12937360081E+00  0.32260876160E-02  0.89071197840E+00  0.88000000000E+00 0.  1.
        -11    1    4    4    0    0  0.56991817029E-03  0.25282946819E-01  0.45407626497E-02  0.25698868711E-01  0.51100000000E-03 0.  1.
         11    1    4    4    0    0  0.37727399189E-01  0.93802705580E-01  0.13804821457E-01  0.10204478644E+00  0.51100000000E-03 0. -1.
</event>
<event>
 8    1  0.1116841E+005  0.1043930E+01  0.7957747E-01            NaN
         13   -1    0    0    0    0  0.00000000000E+00  0.00000000000E+00  0.74505805969E-08  0.10566000000E+00  0.10566000000E+00 0. -1.
     999900   -1    0    0    0    0 -0.00000000000E+00 -0.00000000000E+00 -0.74505805969E-08  0.93827000000E+00  0.93827000000E+00 0.  1.
     999902    2    1    2    0    0 -0.18912962766E-02  0.29336404987E-01 -0.63468937292E-02  0.10138553476E+01  0.10134091874E+01 0.  0.
     999903    2    3    3    0    0 -0.25960397994E-01 -0.40398215672E-01  0.11201129384E+00  0.12287223911E+00  0.15655641264E-01 0.  0.
         14    1    1    2    0    0  0.18912962766E-02 -0.29336404987E-01  0.63468937292E-02  0.30074652437E-01  0.00000000000E+00 0. -1.
     999901    1    3    3    0    0  0.24069101717E-01  0.69734620659E-01 -0.11835818757E+00  0.89098310845E+00  0.88000000000E+00 0.  1.
        -11    1    4    4    0    0 -0.21397897085E-01 -0.22629933811E-01  0.81723259626E-01  0.87458196808E-01  0.51100000000E-03 0.  1.
         11    1    4    4    0    0 -0.45625009091E-02 -0.17768281862E-01  0.30288034215E-01  0.35414042307E-01  0.51100000000E-03 0. -1.
</event>
<event>
 8    1  0.1116841E+005  0.1043930E+01  0.7957747E-01            NaN
         13   -1    0    0    0    0  0.00000000000E+00  0.00000000000E+00  0.74505805969E-08  0.10566000000E+00  0.10566000000E+00 0. -1.
     999900   -1    0    0    0    0 -0.00000000000E+00 -0.00000000000E+00 -0.74505805969E-08  0.93827000000E+00  0.93827000000E+00 0.  1.
     999902    2    1    2    0    0  0.18732448871E-01  0.47566417048E-02  0.11960353428E-01  0.10212015963E+01  0.10209486373E+01 0.  0.
     999903    2    3    3    0    0  0.98336832124E-01 -0.85674820679E-01 -0.15753587589E-01  0.13256062844E+00  0.17715451987E-01 0.  0.
         14    1    1    2    0    0 -0.18732448871E-01 -0.47566417048E-02 -0.11960353428E-01  0.22728403709E-01  0.00000000000E+00 0.  1.
     999901    1    3    3    0    0 -0.79604383253E-01  0.90431462384E-01  0.27713941017E-01  0.88864096785E+00  0.88000000000E+00 0.  1.
        -11    1    4    4    0    0  0.55893583003E-01 -0.58749430511E-01 -0.56414423205E-02  0.81287607904E-01  0.51100000000E-03 0.  1.
         11    1    4    4    0    0  0.42443249121E-01 -0.26925390168E-01 -0.10112145269E-01  0.51273020534E-01  0.51100000000E-03 0. -1.
</event>
<event>
 8    1  0.1116841E+005  0.1043930E+01  0.7957747E-01            NaN
         13   -1    0    0    0    0  0.00000000000E+00  0.00000000000E+00  0.74505805969E-08  0.10566000000E+00  0.10566000000E+00 0. -1.
     999900   -1    0    0    0    0 -0.00000000000E+00 -0.00000000000E+00 -0.74505805969E-08  0.93827000000E+00  0.93827000000E+00 0. -1.
     999902    2    1    2    0    0 -0.76501447134E-02 -0.14243408099E-01  0.16772985452E-01  0.10206333816E+01  0.10203674667E+01 0.  0.
     999903    2    3    3    0    0  0.10262538917E+00  0.33002951495E-01  0.71057705647E-01  0.13083579634E+00  0.21157569856E-01 0.  0.
         14    1    1    2    0    0  0.76501447134E-02  0.14243408099E-01 -0.16772985452E-01  0.23296618411E-01  0.00000000000E+00 0.  1.
     999901    1    3    3    0    0 -0.11027553388E+00 -0.47246359594E-01 -0.54284720195E-01  0.88979758525E+00  0.88000000000E+00 0. -1.
        -11    1    4    4    0    0  0.46114691949E-01  0.63481419123E-02  0.22511249480E-01  0.51709585122E-01  0.51100000000E-03 0.  1.
         11    1    4    4    0    0  0.56510697221E-01  0.26654809582E-01  0.48546456167E-01  0.79126211218E-01  0.51100000000E-03 0. -1.
</event>
<event>
 8    1  0.1168267E+005  0.1043930E+01  0.7957747E-01            NaN
         13   -1    0    0    0    0  0.00000000000E+00  0.00000000000E+00  0.74505805969E-08  0.10566000000E+00  0.10566000000E+00 0.  1.
     999900   -1    0    0    0    0 -0.00000000000E+00 -0.00000000000E+00 -0.74505805969E-08  0.93827000000E+00  0.93827000000E+00 0. -1.
     999902    2    1    2    0    0 -0.87150287661E-02  0.16733291144E-01 -0.14317217560E-01  0.10202458813E+01  0.10199709412E+01 0.  0.
     999903    2    3    3    0    0  0.65739715224E-01  0.68809939398E-01  0.86078204440E-01  0.12988936455E+00  0.20131364249E-01 0.  0.
         14    1    1    2    0    0  0.87150287661E-02 -0.16733291144E-01  0.14317217560E-01  0.23684118678E-01  0.00000000000E+00 0. -1.
     999901    1    3    3    0    0 -0.74454743990E-01 -0.52076648254E-01 -0.10039542200E+00  0.89035651677E+00  0.88000000000E+00 0. -1.
        -11    1    4    4    0    0  0.29834320984E-01  0.18984346105E-01  0.37835053758E-01  0.51790390223E-01  0.51100000000E-03 0. -1.
         11    1    4    4    0    0  0.35905394240E-01  0.49825593293E-01  0.48243150682E-01  0.78098974329E-01  0.51100000000E-03 0.  1.
</event>
<event>
 8    1  0.1116841E+005  0.1043930E+01  0.7957747E-01            NaN
         13   -1    0    0    0    0  0.00000000000E+00  0.00000000000E+00  0.74505805969E-08  0.10566000000E+00  0.10566000000E+00 0. -1.
     999900   -1    0    0    0    0 -0.00000000000E+00 -0.00000000000E+00 -0.74505805969E-08  0.93827000000E+00  0.93827000000E+00 0.  1.
     999902    2    1    2    0    0  0.12165515302E-01 -0.14168803305E-01 -0.15114396724E-01  0.10199050185E+01  0.10196220118E+01 0.  0.
     999903    2    3    3    0    0  0.63330093502E-01 -0.82606269308E-01  0.76891836837E-01  0.13099183494E+00  0.20298023989E-01 0.  0.
         14    1    1    2    0    0 -0.12165515302E-01  0.14168803305E-01  0.15114396724E-01  0.24024981540E-01  0.00000000000E+00 0. -1.
     999901    1    3    3    0    0 -0.51164578200E-01  0.68437466003E-01 -0.92006233561E-01  0.88891318352E+00  0.88000000000E+00 0.  1.
        -11    1    4    4    0    0  0.39487885911E-01 -0.43840642715E-01  0.32266478131E-01  0.67250887127E-01  0.51100000000E-03 0.  1.
         11    1    4    4    0    0  0.23842207590E-01 -0.38765626593E-01  0.44625358706E-01  0.63740947817E-01  0.51100000000E-03 0. -1.
</event>
<event>
 8    1  0.1116841E+005  0.1043930E+01  0.7957747E-01            NaN
         13   -1    0    0    0    0  0.00000000000E+00  0.00000000000E+00  0.74505805969E-08  0.10566000000E+00  0.10566000000E+00 0.  1.
     999900   -1    0    0    0    0 -0.00000000000E+00 -0.00000000000E+00 -0.74505805969E-08  0.93827000000E+00  0.93827000000E+00 0.  1.
     999902    2    1    2    0    0  0.36840624762E-02  0.22794612806E-01  0.59467829460E-02  0.10200861136E+01  0.10198074075E+01 0.  0.
     999903    2    3    3    0    0 -0.56123189597E-01  0.44673692715E-01  0.10879634951E+00  0.13181046111E+00  0.19793957655E-01 0.  0.
         14    1    1    2    0    0 -0.36840624762E-02 -0.22794612806E-01 -0.59467829460E-02  0.23843886359E-01  0.00000000000E+00 0. -1.
     999901    1    3    3    0    0  0.59807252073E-01 -0.21879079908E-01 -0.10284956656E+00  0.88827565253E+00  0.88000000000E+00 0.  1.
        -11    1    4    4    0    0 -0.84329663191E-02  0.15363577853E-01  0.35385775072E-01  0.39491374297E-01  0.51100000000E-03 0. -1.
         11    1    4    4    0    0 -0.47690223277E-01  0.29310114861E-01  0.73410574438E-01  0.92319086812E-01  0.51100000000E-03 0.  1.
</event>
<event>
 8    1  0.1116841E+005  0.1043930E+01  0.7957747E-01            NaN
         13   -1    0    0    0    0  0.00000000000E+00  0.00000000000E+00  0.74505805969E-08  0.10566000000E+00  0.10566000000E+00 0.  1.
     999900   -1    0    0    0    0 -0.00000000000E+00 -0.00000000000E+00 -0.74505805969E-08  0.93827000000E+00  0.93827000000E+00 0. -1.
     999902    2    1    2    0    0  0.22639200054E-01  0.46848274989E-02 -0.17251666787E-02  0.10207468771E+01  0.10204835765E+01 0.  0.
     999903    2    3    3    0    0  0.23365079512E-01  0.16699661506E-01  0.12660900113E+00  0.13135689414E+00  0.19999720924E-01 0.  0.
         14    1    1    2    0    0 -0.22639200054E-01 -0.46848274989E-02  0.17251666787E-02  0.23183122910E-01  0.00000000000E+00 0. -1.
     999901    1    3    3    0    0 -0.72587945746E-03 -0.12014834007E-01 -0.12833416781E+00  0.88938998295E+00  0.88000000000E+00 0. -1.
        -11    1    4    4    0    0 -0.55570866024E-04  0.85340911344E-02  0.17681795126E-01  0.19640285117E-01  0.51100000000E-03 0. -1.
         11    1    4    4    0    0  0.23420650378E-01  0.81655703714E-02  0.10892720600E+00  0.11171660903E+00  0.51100000000E-03 0.  1.
</event>
<event>
 8    1  0.1116841E+005  0.1043930E+01  0.7957747E-01            NaN
         13   -1    0    0    0    0  0.00000000000E+00  0.00000000000E+00  0.74505805969E-08  0.10566000000E+00  0.10566000000E+00 0. -1.
     999900   -1    0    0    0    0 -0.00000000000E+00 -0.00000000000E+00 -0.74505805969E-08  0.93827000000E+00  0.93827000000E+00 0. -1.
     999902    2    1    2    0    0  0.50212675042E-02  0.21309610144E-01  0.78937281372E-02  0.10206571928E+01  0.10203918275E+01 0.  0.
     999903    2    3    3    0    0  0.10688454418E+00  0.49780634550E-01  0.57860114492E-01  0.13291659659E+00  0.20411061698E-01 0.  0.
         14    1    1    2    0    0 -0.50212675042E-02 -0.21309610144E-01 -0.78937281372E-02  0.23272807217E-01  0.00000000000E+00 0.  1.
     999901    1    3    3    0    0 -0.10186327667E+00 -0.28471024405E-01 -0.49966386355E-01  0.88774059619E+00  0.88000000000E+00 0. -1.
        -11    1    4    4    0    0  0.69251501651E-01  0.22206302959E-01  0.39643653403E-01  0.82829769698E-01  0.51100000000E-03 0. -1.
         11    1    4    4    0    0  0.37633042526E-01  0.27574331591E-01  0.18216461090E-01  0.50086826891E-01  0.51100000000E-03 0.  1.
</event>
<event>
 8    1  0.1116841E+005  0.1043930E+01  0.7957747E-01            NaN
         13   -1    0    0    0    0  0.00000000000E+00  0.00000000000E+00  0.74505805969E-08  0.10566000000E+00  0.10566000000E+00 0.  1.
     999900   -1    0    0    0    0 -0.00000000000E+00 -0.00000000000E+00 -0.74505805969E-08  0.93827000000E+00  0.93827000000E+00 0.  1.
     999902    2    1    2    0    0 -0.76617397189E-02 -0.12900680586E-01  0.18420556661E-01  0.10201719125E+01  0.10198952320E+01 0.  0.
     999903    2    3    3    0    0  0.77617572234E-02 -0.85652577686E-02  0.13065820952E+00  0.13289857755E+00  0.21374182642E-01 0.  0.
         14    1    1    2    0    0  0.76617397189E-02  0.12900680586E-01 -0.18420556661E-01  0.23758087524E-01  0.00000000000E+00 0. -1.
     999901    1    3    3    0    0 -0.15423496942E-01 -0.43354228174E-02 -0.11223765286E+00  0.88727333492E+00  0.88000000000E+00 0.  1.
        -11    1    4    4    0    0  0.14475424380E-01 -0.65917086488E-02  0.67438032792E-01  0.69290244059E-01  0.51100000000E-03 0.  1.
         11    1    4    4    0    0 -0.67136671564E-02 -0.19735491197E-02  0.63220176730E-01  0.63608333492E-01  0.51100000000E-03 0. -1.
</event>
<event>
 8    1  0.1116841E+005  0.1043930E+01  0.7957747E-01            NaN
         13   -1    0    0    0    0  0.00000000000E+00  0.00000000000E+00  0.74505805969E-08  0.10566000000E+00  0.10566000000E+00 0.  1.
     999900   -1    0    0    0    0 -0.00000000000E+00 -0.00000000000E+00 -0.74505805969E-08  0.93827000000E+00  0.93827000000E+00 0. -1.
     999902    2    1    2    0    0  0.50420499099E-03 -0.99136236936E-02  0.21023736049E-01  0.10206806638E+01  0.10204158396E+01 0.  0.
     999903    2    3    3    0    0 -0.50119643152E-01 -0.16138960233E-01 -0.11559757152E+00  0.12867903233E+00  0.20568183035E-01 0.  0.
         14    1    1    2    0    0 -0.50420499099E-03  0.99136236936E-02 -0.21023736049E-01  0.23249336224E-01  0.00000000000E+00 0. -1.
     999901    1    3    3    0    0  0.50623848143E-01  0.62253365396E-02  0.13662130757E+00  0.89200163144E+00  0.88000000000E+00 0.  1.
        -11    1    4    4    0    0 -0.49649865493E-01 -0.14013993868E-01 -0.96273939153E-01  0.10922652447E+00  0.51100000000E-03 0.  1.
         11    1    4    4    0    0 -0.46977765953E-03 -0.21249663655E-02 -0.19323632368E-01  0.19452507859E-01  0.51100000000E-03 0. -1.
</event>
<event>
 8    1  0.1116841E+005  0.1043930E+01  0.7957747E-01            NaN
         13   -1    0    0    0    0  0.00000000000E+00  0.00000000000E+00  0.74505805969E-08  0.10566000000E+00  0.10566000000E+00 0.  1.
     999900   -1    0    0    0    0 -0.00000000000E+00 -0.00000000000E+00 -0.74505805969E-08  0.93827000000E+00  0.93827000000E+00 0. -1.
     999902    2    1    2    0    0 -0.84132902027E-02 -0.96505651154E-02 -0.19786163908E-01  0.10203628801E+01  0.10200906812E+01 0.  0.
     999903    2    3    3    0    0 -0.15152679347E-02  0.49432042312E-02  0.12651074697E+00  0.12813905898E+00  0.19695634797E-01 0.  0.
         14    1    1    2    0    0  0.84132902027E-02  0.96505651154E-02  0.19786163908E-01  0.23567119919E-01  0.00000000000E+00 0.  1.
     999901    1    3    3    0    0 -0.68980222680E-02 -0.14593769347E-01 -0.14629691088E+00  0.89222382111E+00  0.88000000000E+00 0. -1.
        -11    1    4    4    0    0 -0.99455445105E-02 -0.16225168530E-03  0.48954506153E-01  0.49957431629E-01  0.51100000000E-03 0. -1.
         11    1    4    4    0    0  0.84302765758E-02  0.51054559165E-02  0.77556240821E-01  0.78181627347E-01  0.51100000000E-03 0.  1.
</event>
<event>
 8    1  0.1116841E+005  0.1043930E+01  0.7957747E-01            NaN
         13   -1    0    0    0    0  0.00000000000E+00  0.00000000000E+00  0.74505805969E-08  0.10566000000E+00  0.10566000000E+00 0.  1.
     999900   -1    0    0    0    0 -0.00000000000E+00 -0.00000000000E+00 -0.74505805969E-08  0.93827000000E+00  0.93827000000E+00 0.  1.
     999902    2    1    2    0    0  0.60822392871E-02 -0.15738615136E-01 -0.15898289487E-01  0.10207469620E+01  0.10204836634E+01 0.  0.
     999903    2    3    3    0    0  0.95851312469E-01  0.59430933760E-01  0.60779247227E-01  0.12968669907E+00  0.20124935587E-01 0.  0.
         14    1    1    2    0    0 -0.60822392871E-02  0.15738615136E-01  0.15898289487E-01  0.23183037975E-01  0.00000000000E+00 0.  1.
     999901    1    3    3    0    0 -0.89769073182E-01 -0.75169548896E-01 -0.76677536714E-01  0.89106026296E+00  0.88000000000E+00 0.  1.
        -11    1    4    4    0    0  0.60734966553E-01  0.37377494870E-01  0.27205279291E-01  0.76329559328E-01  0.51100000000E-03 0.  1.
         11    1    4    4    0    0  0.35116345916E-01  0.22053438890E-01  0.33573967936E-01  0.53357139741E-01  0.51100000000E-03 0. -1.
</event>
<event>
 8    1  0.1116841E+005  0.1043930E+01  0.7957747E-01            NaN
         13   -1    0    0    0    0  0.00000000000E+00  0.00000000000E+00  0.74505805969E-08  0.10566000000E+00  0.10566000000E+00 0.  1.
     999900   -1    0    0    0    0 -0.00000000000E+00 -0.00000000000E+00 -0.74505805969E-08  0.93827000000E+00  0.93827000000E+00 0.  1.
     999902    2    1    2    0    0  0.22473805669E-01  0.80155823449E-02 -0.32407639108E-02  0.10198504640E+01  0.10195661553E+01 0.  0.
     999903    2    3    3    0    0 -0.83421594461E-01 -0.50734854664E-01  0.79165827128E-01  0.12774268138E+00  0.22754704179E-01 0.  0.
         14    1    1    2    0    0 -0.22473805669E-01 -0.80155823449E-02  0.32407639108E-02  0.24079535966E-01  0.00000000000E+00 0. -1.
     999901    1    3    3    0    0  0.10589540013E+00  0.58750437009E-01 -0.82406591039E-01  0.89210778265E+00  0.88000000000E+00 0. -1.
        -11    1    4    4    0    0 -0.55032790780E-01 -0.36947124044E-01  0.39922177236E-01  0.77380484571E-01  0.51100000000E-03 0.  1.
         11    1    4    4    0    0 -0.28388803681E-01 -0.13787730621E-01  0.39243649891E-01  0.50362196814E-01  0.51100000000E-03 0. -1.
</event>
<event>
 7    1  0.1116841E+005  0.1043930E+01  0.7957747E-01            NaN
         13   -1    0    0    0    0  0.00000000000E+00  0.00000000000E+00  0.74505805969E-08  0.10566000000E+00  0.10566000000E+00 0. -1.
     999900   -1    0    0    0    0 -0.00000000000E+00 -0.00000000000E+00 -0.74505805969E-08  0.93827000000E+00  0.93827000000E+00 0.  1.
     999903    2    1    2    0    0 -0.98791458379E-01  0.52740093540E-01  0.91134154403E-02  0.11425662546E+00  0.20742526484E-01 0.  0.
         14    1    1    2    0    0  0.80787113565E-02  0.12604048233E-01 -0.39332920543E-01  0.42085701224E-01  0.00000000000E+00 0.  1.
     999901    1    1    2    0    0  0.90712747023E-01 -0.65344141773E-01  0.30219505103E-01  0.88758767332E+00  0.88000000000E+00 0. -1.
        -11    1    3    3    0    0 -0.58687209035E-01  0.19648770654E-01  0.44326060099E-02  0.62049752695E-01  0.51100000000E-03 0. -1.
         11    1    3    3    0    0 -0.40104249345E-01  0.33091322886E-01  0.46808094304E-02  0.52206872764E-01  0.51100000000E-03 0.  1.
</event>
<event>
 8    1  0.1116841E+005  0.1043930E+01  0.7957747E-01            NaN
         13   -1    0    0    0    0  0.00000000000E+00  0.00000000000E+00  0.74505805969E-08  0.10566000000E+00  0.10566000000E+00 0.  1.
     999900   -1    0    0    0    0 -0.00000000000E+00 -0.00000000000E+00 -0.74505805969E-08  0.93827000000E+00  0.93827000000E+00 0.  1.
     999902    2    1    2    0    0  0.35801507513E-02 -0.24039259977E-01 -0.94604936538E-03  0.10196072019E+01  0.10193170496E+01 0.  0.
     999903    2    3    3    0    0 -0.98835881502E-01  0.79561926299E-01 -0.11861763570E-01  0.12756381599E+00  0.57614344855E-02 0.  0.
         14    1    1    2    0    0 -0.35801507513E-02  0.24039259977E-01  0.94604936538E-03  0.24322798134E-01  0.00000000000E+00 0.  1.
     999901    1    3    3    0    0  0.10241603225E+00 -0.10360118628E+00  0.10915714204E-01  0.89204338587E+00  0.88000000000E+00 0. -1.
        -11    1    4    4    0    0 -0.56645479768E-01  0.47057632462E-01 -0.43147972284E-02  0.73769978631E-01  0.51100000000E-03 0.  1.
         11    1    4    4    0    0 -0.42190401734E-01  0.32504293838E-01 -0.75469663413E-02  0.53793837364E-01  0.51100000000E-03 0. -1.
</event>
<event>
 8    1  0.1116841E+005  0.1043930E+01  0.7957747E-01            NaN
         13   -1    0    0    0    0  0.00000000000E+00  0.00000000000E+00  0.74505805969E-08  0.10566000000E+00  0.10566000000E+00 0. -1.
     999900   -1    0    0    0    0 -0.00000000000E+00 -0.00000000000E+00 -0.74505805969E-08  0.93827000000E+00  0.93827000000E+00 0.  1.
     999902    2    1    2    0    0 -0.12258744489E-01  0.18587441844E-01  0.90006626635E-02  0.10199137193E+01  0.10196309200E+01 0.  0.
     999903    2    3    3    0    0 -0.76074693282E-01  0.10730860404E+00  0.39252128036E-03  0.13311158801E+00  0.20397189321E-01 0.  0.
         14    1    1    2    0    0  0.12258744489E-01 -0.18587441844E-01 -0.90006626635E-02  0.24016280710E-01  0.00000000000E+00 0.  1.
     999901    1    3    3    0    0  0.63815948794E-01 -0.88721162191E-01  0.86081413831E-02  0.88680213128E+00  0.88000000000E+00 0. -1.
        -11    1    4    4    0    0 -0.35407065484E-01  0.62215493864E-01  0.74703773443E-02  0.71975659925E-01  0.51100000000E-03 0. -1.
         11    1    4    4    0    0 -0.40667627799E-01  0.45093110171E-01 -0.70778560639E-02  0.61135928087E-01  0.51100000000E-03 0.  1.
</event>
<event>
 8    1  0.1116841E+005  0.1043930E+01  0.7957747E-01            NaN
         13   -1    0    0    0    0  0.00000000000E+00  0.00000000000E+00  0.74505805969E-08  0.10566000000E+00  0.10566000000E+00 0.  1.
     999900   -1    0    0    0    0 -0.00000000000E+00 -0.00000000000E+00 -0.74505805969E-08  0.93827000000E+00  0.93827000000E+00 0.  1.
     999902    2    1    2    0    0  0.88484741431E-03 -0.13070067593E-01 -0.18768049491E-01  0.10210422456E+01  0.10207856866E+01 0.  0.
     999903    2    3    3    0    0 -0.12579307643E-01  0.19145512282E-01  0.12499091283E+00  0.12869378990E+00  0.20361081723E-01 0.  0.
         14    1    1    2    0    0 -0.88484741431E-03  0.13070067593E-01  0.18768049491E-01  0.22887754445E-01  0.00000000000E+00 0.  1.
     999901    1    3    3    0    0  0.13464155058E-01 -0.32215579875E-01 -0.14375896232E+00  0.89234845565E+00  0.88000000000E+00 0.  1.
        -11    1    4    4    0    0 -0.17118823715E-02  0.19133523645E-01  0.67481339562E-01  0.70164197269E-01  0.51100000000E-03 0. -1.
         11    1    4    4    0    0 -0.10867425272E-01  0.11988636867E-04  0.57509573265E-01  0.58529592634E-01  0.51100000000E-03 0.  1.
</event>
<event>
 8    1  0.1116841E+005  0.1043930E+01  0.7957747E-01            NaN
         13   -1    0    0    0    0  0.00000000000E+00  0.00000000000E+00  0.74505805969E-08  0.10566000000E+00  0.10566000000E+00 0. -1.
     999900   -1    0    0    0    0 -0.00000000000E+00 -0.00000000000E+00 -0.74505805969E-08  0.93827000000E+00  0.93827000000E+00 0.  1.
     999902    2    1    2    0    0  0.12689113031E-01 -0.89986937945E-02 -0.18052222150E-01  0.10200999181E+01  0.10198215383E+01 0.  0.
     999903    2    3    3    0    0 -0.14508346362E-01 -0.10873239237E+00 -0.71384608795E-01  0.13244522402E+00  0.20316242941E-01 0.  0.
         14    1    1    2    0    0 -0.12689113031E-01  0.89986937945E-02  0.18052222150E-01  0.23830081915E-01  0.00000000000E+00 0. -1.
     999901    1    3    3    0    0  0.27197459394E-01  0.99733698580E-01  0.53332386645E-01  0.88765469406E+00  0.88000000000E+00 0. -1.
        -11    1    4    4    0    0 -0.27045113723E-02 -0.25879965315E-01 -0.27815979041E-01  0.38093001948E-01  0.51100000000E-03 0. -1.
         11    1    4    4    0    0 -0.11803834990E-01 -0.82852427060E-01 -0.43568629755E-01  0.94352222072E-01  0.51100000000E-03 0.  1.
</event>
<event>
 8    1  0.1116841E+005  0.1043930E+01  0.7957747E-01            NaN
         13   -1    0    0    0    0  0.00000000000E+00  0.00000000000E+00  0.74505805969E-08  0.10566000000E+00  0.10566000000E+00 0.  1.
     999900   -1    0    0    0    0 -0.00000000000E+00 -0.00000000000E+00 -0.74505805969E-08  0.93827000000E+00  0.93827000000E+00 0.  1.
     999902    2    1    2    0    0  0.57967343143E-03 -0.16739943603E-01  0.18252348118E-01  0.10191568301E+01  0.10188556986E+01 0.  0.
     999903    2    3    3    0    0 -0.12333734000E+00 -0.25628266787E-01 -0.22847200474E-01  0.12948070851E+00  0.19348173317E-01 0.  0.
         14    1    1    2    0    0 -0.57967343143E-03  0.16739943603E-01 -0.18252348118E-01  0.24773169861E-01  0.00000000000E+00 0. -1.
     999901    1    3    3    0    0  0.12391701343E+00  0.88883231833E-02  0.41099548592E-01  0.88967612163E+00  0.88000000000E+00 0. -1.
        -11    1    4    4    0    0 -0.73659856956E-01 -0.16539941186E-01 -0.23182959861E-01  0.78975027256E-01  0.51100000000E-03 0.  1.
         11    1    4    4    0    0 -0.49677483039E-01 -0.90883256003E-02  0.33575938761E-03  0.50505681252E-01  0.51100000000E-03 0. -1.
</event>
<event>
 8    1  0.1116841E+005  0.1043930E+01  0.7957747E-01            NaN
         13   -1    0    0    0    0  0.00000000000E+00  0.00000000000E+00  0.74505805969E-08  0.10566000000E+00  0.10566000000E+00 0. -1.
     999900   -1    0    0    0    0 -0.00000000000E+00 -0.00000000000E+00 -0.74505805969E-08  0.93827000000E+00  0.93827000000E+00 0.  1.
     999902    2    1    2    0    0 -0.87616878242E-02 -0.12858224734E-01 -0.18614331207E-01  0.10196690346E+01  0.10193803734E+01 0.  0.
     999903    2    3    3    0    0  0.12342073082E+00 -0.12153935680E-01 -0.30701504834E-01  0.12971466070E+00  0.22425785438E-01 0.  0.
         14    1    1    2    0    0  0.87616878242E-02  0.12858224734E-01  0.18614331207E-01  0.24260965420E-01  0.00000000000E+00 0. -1.
     999901    1    3    3    0    0 -0.13218241864E+00 -0.70428905408E-03  0.12087173627E-01  0.88995437388E+00  0.88000000000E+00 0. -1.
        -11    1    4    4    0    0  0.91178954242E-01 -0.18817074327E-01 -0.22590280236E-01  0.95803266464E-01  0.51100000000E-03 0. -1.
         11    1    4    4    0    0  0.32241776578E-01  0.66631386468E-02 -0.81112245985E-02  0.33911394236E-01  0.51100000000E-03 0.  1.
</event>
<event>
 8    1  0.1116841E+005  0.1043930E+01  0.7957747E-01            NaN
         13   -1    0    0    0    0  0.00000000000E+00  0.00000000000E+00  0.74505805969E-08  0.10566000000E+00  0.10566000000E+00 0.  1.
     999900   -1    0    0    0    0 -0.00000000000E+00 -0.00000000000E+00 -0.74505805969E-08  0.93827000000E+00  0.93827000000E+00 0. -1.
     999902    2    1    2    0    0  0.19890133083E-01  0.11020404607E-01 -0.10173974690E-02  0.10211681501E+01  0.10209144377E+01 0.  0.
     999903    2    3    3    0    0  0.78506504823E-01  0.10014084119E+00 -0.37194624161E-01  0.13398884301E+00  0.19445066534E-01 0.  0.
         14    1    1    2    0    0 -0.19890133083E-01 -0.11020404607E-01  0.10173974690E-02  0.22761849867E-01  0.00000000000E+00 0.  1.
     999901    1    3    3    0    0 -0.58616371740E-01 -0.89120436579E-01  0.36177226692E-01  0.88717930712E+00  0.88000000000E+00 0. -1.
        -11    1    4    4    0    0  0.45032259483E-01  0.72215292364E-01 -0.23486017252E-01  0.88288204041E-01  0.51100000000E-03 0. -1.
         11    1    4    4    0    0  0.33474245339E-01  0.27925548822E-01 -0.13708606910E-01  0.45700638972E-01  0.51100000000E-03 0.  1.
</event>
<event>
 8    1  0.1116841E+005  0.1043930E+01  0.7957747E-01            NaN
         13   -1    0    0    0    0  0.00000000000E+00  0.00000000000E+00  0.74505805969E-08  0.10566000000E+00  0.10566000000E+00 0.  1.
     999900   -1    0    0    0    0 -0.00000000000E+00 -0.00000000000E+00 -0.74505805969E-08  0.93827000000E+00  0.93827000000E+00 0.  1.
     999902    2    1    2    0    0  0.16931616859E-01  0.13684781640E-01 -0.40797727220E-02  0.10217805656E+01  0.10215404675E+01 0.  0.
     999903    2    3    3    0    0  0.10659618218E+00  0.58594057620E-01 -0.53595178885E-01  0.13470201623E+00  0.21821556563E-01 0.  0.
         14    1    1    2    0    0 -0.16931616859E-01 -0.13684781640E-01  0.40797727220E-02  0.22149434382E-01  0.00000000000E+00 0.  1.
     999901    1    3    3    0    0 -0.89664565325E-01 -0.44909275980E-01  0.49515406163E-01  0.88707854939E+00  0.88000000000E+00 0. -1.
        -11    1    4    4    0    0  0.18084895633E-01  0.76247413649E-02 -0.17715567066E-01  0.26444329608E-01  0.51100000000E-03 0. -1.
         11    1    4    4    0    0  0.88511286551E-01  0.50969316255E-01 -0.35879611819E-01  0.10825768662E+00  0.51100000000E-03 0.  1.
</event>
<event>
 8    1  0.1116841E+005  0.1043930E+01  0.7957747E-01            NaN
         13   -1    0    0    0    0  0.00000000000E+00  0.00000000000E+00  0.74505805969E-08  0.10566000000E+00  0.10566000000E+00 0. -1.
     999900   -1    0    0    0    0 -0.00000000000E+00 -0.00000000000E+00 -0.74505805969E-08  0.93827000000E+00  0.93827000000E+00 0. -1.
     999902    2    1    2    0    0  0.20540850872E-01 -0.57731601947E-02  0.91431096962E-02  0.10207168057E+01  0.10204528138E+01 0.  0.
     999903    2    3    3    0    0 -0.70414781760E-01 -0.29443829524E-01  0.10513910244E+00  0.13052106416E+00  0.12503469106E-01 0.  0.
         14    1    1    2    0    0 -0.20540850872E-01  0.57731601947E-02 -0.91431096962E-02  0.23213194268E-01  0.00000000000E+00 0.  1.
     999901    1    3    3    0    0  0.90955632632E-01  0.23670669329E-01 -0.95995992744E-01  0.89019574157E+00  0.88000000000E+00 0. -1.
        -11    1    4    4    0    0 -0.32897407008E-01 -0.82595478747E-02  0.40387500814E-01  0.52743443781E-01  0.51100000000E-03 0.  1.
         11    1    4    4    0    0 -0.37517374752E-01 -0.21184281649E-01  0.64751601627E-01  0.77777620377E-01  0.51100000000E-03 0. -1.
</event>
<event>
 8    1  0.1116841E+005  0.1043930E+01  0.7957747E-01            NaN
         13   -1    0    0    0    0  0.00000000000E+00  0.00000000000E+00  0.74505805969E-08  0.10566000000E+00  0.10566000000E+00 0. -1.
     999900   -1    0    0    0    0 -0.00000000000E+00 -0.00000000000E+00 -0.74505805969E-08  0.93827000000E+00  0.93827000000E+00 0. -1.
     999902    2    1    2    0    0 -0.22898633677E-01  0.16165296944E-02  0.69286997032E-03  0.10209639237E+01  0.10207055858E+01 0.  0.
     999903    2    3    3    0    0  0.34947615607E-01 -0.10146207752E+00 -0.70987166494E-01  0.13017246916E+00  0.19743477681E-01 0.  0.
         14    1    1    2    0    0  0.22898633677E-01 -0.16165296944E-02 -0.69286997032E-03  0.22966076315E-01  0.00000000000E+00 0.  1.
     999901    1    3    3    0    0 -0.57846249284E-01  0.10307860721E+00  0.71680036464E-01  0.89079145452E+00  0.88000000000E+00 0.  1.
        -11    1    4    4    0    0  0.25753555019E-01 -0.50654544791E-01 -0.30085461281E-01  0.64300269094E-01  0.51100000000E-03 0. -1.
         11    1    4    4    0    0  0.91940605877E-02 -0.50807532724E-01 -0.40901705213E-01  0.65872200069E-01  0.51100000000E-03 0.  1.
</event>
<event>
 8    1  0.1116841E+005  0.1043930E+01  0.7957747E-01            NaN
         13   -1    0    0    0    0  0.00000000000E+00  0.00000000000E+00  0.74505805969E-08  0.10566000000E+00  0.10566000000E+00 0. -1.
     999900   -1    0    0    0    0 -0.00000000000E+00 -0.00000000000E+00 -0.74505805969E-08  0.93827000000E+00  0.93827000000E+00 0.  1.
     999902    2    1    2    0    0  0.43268724491E-02  0.10202888664E-01  0.20508727751E-01  0.10206184433E+01  0.10203521834E+01 0.  0.
     999903    2    3    3    0    0 -0.32931324388E-01 -0.11276166341E+00  0.53733621307E-01  0.13066768743E+00  0.19674288255E-01 0.  0.
         14    1    1    2    0    0 -0.43268724491E-02 -0.10202888664E-01 -0.20508727751E-01  0.23311556710E-01  0.00000000000E+00 0.  1.
     999901    1    3    3    0    0  0.37258196837E-01  0.12296455208E+00 -0.33224893556E-01  0.88995075586E+00  0.88000000000E+00 0.  1.
        -11    1    4    4    0    0 -0.17146301680E-01 -0.45359306726E-01  0.32029344676E-01  0.58117143850E-01  0.51100000000E-03 0. -1.
         11    1    4    4    0    0 -0.15785022708E-01 -0.67402356688E-01  0.21704276632E-01  0.72550543582E-01  0.51100000000E-03 0.  1.
</event>
<event>
 8    1  0.1116841E+005  0.1043930E+01  0.7957747E-01            NaN
         13   -1    0    0    0    0  0.00000000000E+00  0.00000000000E+00  0.74505805969E-08  0.10566000000E+00  0.10566000000E+00 0. -1.
     999900   -1    0    0    0    0 -0.00000000000E+00 -0.00000000000E+00 -0.74505805969E-08  0.93827000000E+00  0.93827000000E+00 0.  1.
     999902    2    1    2    0    0  0.71747473645E-02 -0.13883008631E-01  0.17549341411E-01  0.10204311849E+01  0.10201605799E+01 0.  0.
     999903    2    3    3    0    0 -0.16286663486E-01  0.10669582119E+00 -0.65784726984E-01  0.12799952981E+00  0.20174133432E-01 0.  0.
         14    1    1    2    0    0 -0.71747473645E-02  0.13883008631E-01 -0.17549341411E-01  0.23498815127E-01  0.00000000000E+00 0.  1.
     999901    1    3    3    0    0  0.23461410850E-01 -0.12057882983E+00  0.83334068395E-01  0.89243165506E+00  0.88000000000E+00 0.  1.
        -11    1    4    4    0    0 -0.19701882860E-01  0.64052460038E-01 -0.39773899784E-01  0.77930135699E-01  0.51100000000E-03 0. -1.
         11    1    4    4    0    0  0.34152193738E-02  0.42643361157E-01 -0.26010827200E-01  0.50069394112E-01  0.51100000000E-03 0.  1.
</event>
<event>
 8    1  0.1116841E+005  0.1043930E+01  0.7957747E-01            NaN
         13   -1    0    0    0    0  0.00000000000E+00  0.00000000000E+00  0.74505805969E-08  0.10566000000E+00  0.10566000000E+00 0. -1.
     999900   -1    0    0    0    0 -0.00000000000E+00 -0.00000000000E+00 -0.74505805969E-08  0.93827000000E+00  0.93827000000E+00 0.  1.
     999902    2    1    2    0    0 -0.20822399372E-01 -0.92825535509E-02 -0.25637903679E-02  0.10209885280E+01  0.10207307496E+01 0.  0.
     999903    2    3    3    0    0  0.45086652653E-01  0.23131219532E-01  0.11775967149E+00  0.12976891910E+00  0.20118960471E-01 0.  0.
         14    1    1    2    0    0  0.20822399372E-01  0.92825535509E-02  0.25637903679E-02  0.22941471991E-01  0.00000000000E+00 0. -1.
     999901    1    3    3    0    0 -0.65909052025E-01 -0.32413773083E-01 -0.12032346186E+00  0.89121960891E+00  0.88000000000E+00 0.  1.
        -11    1    4    4    0    0  0.32173741864E-01  0.56685758321E-02  0.74964774227E-01  0.81775674338E-01  0.51100000000E-03 0.  1.
         11    1    4    4    0    0  0.12912910788E-01  0.17462643700E-01  0.42794897267E-01  0.47993244765E-01  0.51100000000E-03 0. -1.
</event>
<event>
 8    1  0.1116841E+005  0.1043930E+01  0.7957747E-01            NaN
         13   -1    0    0    0    0  0.00000000000E+00  0.00000000000E+00  0.74505805969E-08  0.10566000000E+00  0.10566000000E+00 0. -1.
     999900   -1    0    0    0    0 -0.00000000000E+00 -0.00000000000E+00 -0.74505805969E-08  0.93827000000E+00  0.93827000000E+00 0. -1.
     999902    2    1    2    0    0  0.82727395371E-02  0.15374337350E-01 -0.16979385353E-01  0.10195761914E+01  0.10192852898E+01 0.  0.
     999903    2    3    3    0    0 -0.81836776041E-01 -0.45545719768E-01 -0.87686290260E-01  0.13006483980E+00  0.21361333048E-01 0.  0.
         14    1    1    2    0    0 -0.82727395371E-02 -0.15374337350E-01  0.16979385353E-01  0.24353808642E-01  0.00000000000E+00 0. -1.
     999901    1    3    3    0    0  0.90109515578E-01  0.60920057118E-01  0.70706904908E-01  0.88951135156E+00  0.88000000000E+00 0. -1.
        -11    1    4    4    0    0 -0.31305260339E-01 -0.29331777570E-01 -0.41977169116E-01  0.60022631968E-01  0.51100000000E-03 0. -1.
         11    1    4    4    0    0 -0.50531515701E-01 -0.16213942198E-01 -0.45709121144E-01  0.70042207828E-01  0.51100000000E-03 0.  1.
</event>
<event>
 8    1  0.1116841E+005  0.1043930E+01  0.7957747E-01            NaN
         13   -1    0    0    0    0  0.00000000000E+00  0.00000000000E+00  0.74505805969E-08  0.10566000000E+00  0.10566000000E+00 0.  1.
     999900   -1    0    0    0    0 -0.00000000000E+00 -0.00000000000E+00 -0.74505805969E-08  0.93827000000E+00  0.93827000000E+00 0. -1.
     999902    2    1    2    0    0  0.18545831005E-02  0.23291238974E-01  0.31226215000E-02  0.10203573027E+01  0.10200849735E+01 0.  0.
     999903    2    3    3    0    0 -0.42411815970E-01  0.56675819563E-02 -0.12144382169E+00  0.13030848040E+00  0.20020355099E-01 0.  0.
         14    1    1    2    0    0 -0.18545831005E-02 -0.23291238974E-01 -0.31226215000E-02  0.23572697267E-01  0.00000000000E+00 0.  1.
     999901    1    3    3    0    0  0.44266399071E-01  0.17623657017E-01  0.12456644319E+00  0.89004882234E+00  0.88000000000E+00 0.  1.
        -11    1    4    4    0    0 -0.22557894930E-01  0.22112083809E-02 -0.91099213380E-01  0.93877983924E-01  0.51100000000E-03 0. -1.
         11    1    4    4    0    0 -0.19853921040E-01  0.34563735754E-02 -0.30344608307E-01  0.36430496473E-01  0.51100000000E-03 0.  1.
</event>
<event>
 8    1  0.1116841E+005  0.1043930E+01  0.7957747E-01            NaN
         13   -1    0    0    0    0  0.00000000000E+00  0.00000000000E+00  0.74505805969E-08  0.10566000000E+00  0.10566000000E+00 0. -1.
     999900   -1    0    0    0    0 -0.00000000000E+00 -0.00000000000E+00 -0.74505805969E-08  0.93827000000E+00  0.93827000000E+00 0.  1.
     999902    2    1    2    0    0 -0.17818318854E-01 -0.13561671126E-02  0.15805138030E-01  0.10200734692E+01  0.10197944638E+01 0.  0.
     999903    2    3    3    0    0  0.33753809850E-01  0.98554820418E-01 -0.72552767287E-01  0.12853041953E+00  0.20094586268E-01 0.  0.
         14    1    1    2    0    0  0.17818318854E-01  0.13561671126E-02 -0.15805138030E-01  0.23856530850E-01  0.00000000000E+00 0.  1.
     999901    1    3    3    0    0 -0.51572128705E-01 -0.99910987531E-01  0.88357905317E-01  0.89154304962E+00  0.88000000000E+00 0.  1.
        -11    1    4    4    0    0  0.10738085512E-01  0.58204658690E-01 -0.34739203163E-01  0.68630620944E-01  0.51100000000E-03 0. -1.
         11    1    4    4    0    0  0.23015724339E-01  0.40350161728E-01 -0.37813564124E-01  0.59899798589E-01  0.51100000000E-03 0.  1.
</event>
<event>
 8    1  0.1116841E+005  0.1043930E+01  0.7957747E-01            NaN
         13   -1    0    0    0    0  0.00000000000E+00  0.00000000000E+00  0.74505805969E-08  0.10566000000E+00  0.10566000000E+00 0.  1.
     999900   -1    0    0    0    0 -0.00000000000E+00 -0.00000000000E+00 -0.74505805969E-08  0.93827000000E+00  0.93827000000E+00 0. -1.
     999902    2    1    2    0    0  0.17467294183E-03  0.12010603543E-01 -0.23937391705E-01  0.10171478449E+01  0.10167951881E+01 0.  0.
     999903    2    3    3    0    0 -0.12263761733E+00 -0.27703512510E-01 -0.81951859994E-02  0.12759296372E+00  0.20132896667E-01 0.  0.
         14    1    1    2    0    0 -0.17467294183E-03 -0.12010603543E-01  0.23937391705E-01  0.26782155062E-01  0.00000000000E+00 0.  1.
     999901    1    3    3    0    0  0.12281229027E+00  0.39714116054E-01 -0.15742205706E-01  0.88955488122E+00  0.88000000000E+00 0. -1.
        -11    1    4    4    0    0 -0.73283574330E-01 -0.63767738739E-02 -0.46865613245E-02  0.73711399998E-01  0.51100000000E-03 0. -1.
         11    1    4    4    0    0 -0.49354042999E-01 -0.21326738637E-01 -0.35086246750E-02  0.53881563724E-01  0.51100000000E-03 0.  1.
</event>
<event>
 8    1  0.1116841E+005  0.1043930E+01  0.7957747E-01            NaN
         13   -1    0    0    0    0  0.00000000000E+00  0.00000000000E+00  0.74505805969E-08  0.10566000000E+00  0.10566000000E+00 0. -1.
     999900   -1    0    0    0    0 -0.00000000000E+00 -0.00000000000E+00 -0.74505805969E-08  0.93827000000E+00  0.93827000000E+00 0.  1.
     999902    2    1    2    0    0 -0.81959608513E-02  0.85191729210E-02  0.21013440810E-01  0.10198195297E+01  0.10195344813E+01 0.  0.
     999903    2    3    3    0    0  0.10636988612E+00 -0.62904893241E-01 -0.27693851976E-01  0.12819229211E+00  0.19867965463E-01 0.  0.
         14    1    1    2    0    0  0.81959608513E-02 -0.85191729210E-02 -0.21013440810E-01  0.24110470261E-01  0.00000000000E+00 0.  1.
     999901    1    3    3    0    0 -0.11456584697E+00  0.71424066162E-01  0.48707292786E-01  0.89162723763E+00  0.88000000000E+00 0. -1.
        -11    1    4    4    0    0  0.49513690384E-01 -0.24812796595E-01 -0.21723796931E-01  0.59493402024E-01  0.51100000000E-03 0.  1.
         11    1    4    4    0    0  0.56856195734E-01 -0.38092096646E-01 -0.59700550454E-02  0.68698890082E-01  0.51100000000E-03 0. -1.
</event>
<event>
 8    1  0.1116841E+005  0.1043930E+01  0.7957747E-01            NaN
         13   -1    0    0    0    0  0.00000000000E+00  0.00000000000E+00  0.74505805969E-08  0.10566000000E+00  0.10566000000E+00 0. -1.
     999900   -1    0    0    0    0 -0.00000000000E+00 -0.00000000000E+00 -0.74505805969E-08  0.93827000000E+00  0.93827000000E+00 0. -1.
     999902    2    1    2    0    0 -0.20647827459E-01  0.70113016039E-02 -0.97800992417E-02  0.10200314337E+01  0.10197514326E+01 0.  0.
     999903    2    3    3    0    0  0.61922352225E-01 -0.11029807307E+00 -0.98776975087E-02  0.12841529800E+00  0.19821130756E-01 0.  0.
         14    1    1    2    0    0  0.20647827459E-01 -0.70113016039E-02  0.97800992417E-02  0.23898566278E-01  0.00000000000E+00 0.  1.
     999901    1    3    3    0    0 -0.82570179684E-01  0.11730937467E+00  0.97598267026E-04  0.89161613572E+00  0.88000000000E+00 0. -1.
        -11    1    4    4    0    0  0.36426764454E-01 -0.73148940042E-01 -0.14937845679E-01  0.83072720868E-01  0.51100000000E-03 0.  1.
         11    1    4    4    0    0  0.25495587771E-01 -0.37149133025E-01  0.50601481700E-02  0.45342577130E-01  0.51100000000E-03 0. -1.
</event>
<event>
 8    1  0.1116841E+005  0.1043930E+01  0.7957747E-01            NaN
         13   -1    0    0    0    0  0.00000000000E+00  0.00000000000E+00  0.74505805969E-08  0.10566000000E+00  0.10566000000E+00 0.  1.
     999900   -1    0    0    0    0 -0.00000000000E+00 -0.00000000000E+00 -0.74505805969E-08  0.93827000000E+00  0.93827000000E+00 0. -1.
     999902    2    1    2    0    0  0.10681835917E-01  0.85431422596E-02  0.20581894107E-01  0.10192176293E+01  0.10189179921E+01 0.  0.
     999903    2    3    3    0    0 -0.96295474877E-01 -0.36015485561E-01  0.76698113328E-01  0.12984782640E+00  0.20197122332E-01 0.  0.
         14    1    1    2    0    0 -0.10681835917E-01 -0.85431422596E-02 -0.20581894107E-01  0.24712370652E-01  0.00000000000E+00 0. -1.
     999901    1    3    3    0    0  0.10697731079E+00  0.44558627821E-01 -0.56116219221E-01  0.88936980295E+00  0.88000000000E+00 0. -1.
        -11    1    4    4    0    0 -0.74133483587E-01 -0.18371600906E-01  0.53887472571E-01  0.93474113688E-01  0.51100000000E-03 0. -1.
         11    1    4    4    0    0 -0.22161991289E-01 -0.17643884655E-01  0.22810640757E-01  0.36373712711E-01  0.51100000000E-03 0.  1.
</event>
<event>
 8    1  0.1116841E+005  0.1043930E+01  0.7957747E-01            NaN
         13   -1    0    0    0    0  0.00000000000E+00  0.00000000000E+00  0.74505805969E-08  0.10566000000E+00  0.10566000000E+00 0. -1.
     999900   -1    0    0    0    0 -0.00000000000E+00 -0.00000000000E+00 -0.74505805969E-08  0.93827000000E+00  0.93827000000E+00 0.  1.
     999902    2    1    2    0    0  0.10563792608E-01 -0.38717758159E-02  0.19101659942E-01  0.10217611531E+01  0.10215206293E+01 0.  0.
     999903    2    3    3    0    0  0.81580476234E-01 -0.98188858838E-01 -0.29685719452E-01  0.13253717121E+00  0.19708721690E-01 0.  0.
         14    1    1    2    0    0 -0.10563792608E-01  0.38717758159E-02 -0.19101659942E-01  0.22168846943E-01  0.00000000000E+00 0.  1.
     999901    1    3    3    0    0 -0.71016683626E-01  0.94317083022E-01  0.48787379394E-01  0.88922398185E+00  0.88000000000E+00 0. -1.
        -11    1    4    4    0    0  0.56248788215E-01 -0.69404632967E-01 -0.11427472785E-01  0.90065406834E-01  0.51100000000E-03 0. -1.
         11    1    4    4    0    0  0.25331688019E-01 -0.28784225870E-01 -0.18258246667E-01  0.42471764376E-01  0.51100000000E-03 0.  1.
</event>
<event>
 8    1  0.1116841E+005  0.1043930E+01  0.7957747E-01            NaN
         13   -1    0    0    0    0  0.00000000000E+00  0.00000000000E+00  0.74505805969E-08  0.10566000000E+00  0.10566000000E+00 0. -1.
     999900   -1    0    0    0    0 -0.00000000000E+00 -0.00000000000E+00 -0.74505805969E-08  0.93827000000E+00  0.93827000000E+00 0.  1.
     999902    2    1    2    0    0  0.19326442509E-01 -0.74492438672E-02 -0.10762387055E-01  0.10205883722E+01  0.10203214169E+01 0.  0.
     999903    2    3    3    0    0 -0.18122221082E-01 -0.81837945294E-01  0.97416395699E-01  0.13006115174E+00  0.20002121234E-01 0.  0.
         14    1    1    2    0    0 -0.19326442509E-01  0.74492438672E-02  0.10762387055E-01  0.23341627822E-01  0.00000000000E+00 0. -1.
     999901    1    3    3    0    0  0.37448663590E-01  0.74388701427E-01 -0.10817878275E+00  0.89052722044E+00  0.88000000000E+00 0.  1.
        -11    1    4    4    0    0 -0.30052399222E-02 -0.46865434963E-01  0.43321291861E-01  0.63893629657E-01  0.51100000000E-03 0.  1.
         11    1    4    4    0    0 -0.15116981160E-01 -0.34972510331E-01  0.54095103838E-01  0.66167522082E-01  0.51100000000E-03 0. -1.
</event>
<event>
 8    1  0.1116841E+005  0.1043930E+01  0.7957747E-01            NaN
         13   -1    0    0    0    0  0.00000000000E+00  0.00000000000E+00  0.74505805969E-08  0.10566000000E+00  0.10566000000E+00 0.  1.
     999900   -1    0    0    0    0 -0.00000000000E+00 -0.00000000000E+00 -0.74505805969E-08  0.93827000000E+00  0.93827000000E+00 0.  1.
     999902    2    1    2    0    0 -0.31625700449E-02 -0.84428041836E-02 -0.22878053471E-01  0.10193395929E+01  0.10190429419E+01 0.  0.
     999903    2    3    3    0    0 -0.11110835608E+00 -0.25666458324E-01 -0.62407837447E-01  0.13169577309E+00  0.21099872086E-01 0.  0.
         14    1    1    2    0    0  0.31625700449E-02  0.84428041836E-02  0.22878053471E-01  0.24590407121E-01  0.00000000000E+00 0.  1.
     999901    1    3    3    0    0  0.10794578603E+00  0.17223654141E-01  0.39529783976E-01  0.88764381979E+00  0.88000000000E+00 0.  1.
        -11    1    4    4    0    0 -0.55065795862E-01 -0.14008829982E-01 -0.42973302473E-01  0.71242227912E-01  0.51100000000E-03 0.  1.
         11    1    4    4    0    0 -0.56042560216E-01 -0.11657628342E-01 -0.19434534974E-01  0.60453545180E-01  0.51100000000E-03 0. -1.
</event>
<event>
 8    1  0.1116841E+005  0.1043930E+01  0.7957747E-01            NaN
         13   -1    0    0    0    0  0.00000000000E+00  0.00000000000E+00  0.74505805969E-08  0.10566000000E+00  0.10566000000E+00 0.  1.
     999900   -1    0    0    0    0 -0.00000000000E+00 -0.00000000000E+00 -0.74505805969E-08  0.93827000000E+00  0.93827000000E+00 0. -1.
     999902    2    1    2    0    0  0.62678776957E-03  0.22863665262E-01 -0.46651409788E-02  0.10205868299E+01  0.10203198389E+01 0.  0.
     999903    2    3    3    0    0 -0.86570191197E-02 -0.11804563595E+00  0.46037185284E-01  0.12788735852E+00  0.15034556632E-01 0.  0.
         14    1    1    2    0    0 -0.62678776957E-03 -0.22863665262E-01  0.46651409788E-02  0.23343170146E-01  0.00000000000E+00 0.  1.
     999901    1    3    3    0    0  0.92838068892E-02  0.14090930121E+00 -0.50702326262E-01  0.89269947134E+00  0.88000000000E+00 0. -1.
        -11    1    4    4    0    0  0.37618943770E-02 -0.48747580610E-01  0.17886421958E-01  0.52064034382E-01  0.51100000000E-03 0. -1.
         11    1    4    4    0    0 -0.12418913497E-01 -0.69298055338E-01  0.28150763325E-01  0.75823324135E-01  0.51100000000E-03 0.  1.
</event>
<event>
 8    1  0.1116841E+005  0.1043930E+01  0.7957747E-01            NaN
         13   -1    0    0    0    0  0.00000000000E+00  0.00000000000E+00  0.74505805969E-08  0.10566000000E+00  0.10566000000E+00 0.  1.
     999900   -1    0    0    0    0 -0.00000000000E+00 -0.00000000000E+00 -0.74505805969E-08  0.93827000000E+00  0.93827000000E+00 0. -1.
     999902    2    1    2    0    0 -0.21341841585E-01 -0.55801992085E-02  0.82981572909E-02  0.10203615414E+01  0.10200893113E+01 0.  0.
     999903    2    3    3    0    0  0.51644774830E-01  0.48214961966E-01  0.10744500699E+00  0.13016433667E+00  0.20160845432E-01 0.  0.
         14    1    1    2    0    0  0.21341841585E-01  0.55801992085E-02 -0.82981572909E-02  0.23568458581E-01  0.00000000000E+00 0. -1.
     999901    1    3    3    0    0 -0.72986616415E-01 -0.53795161175E-01 -0.99146849699E-01  0.89019720475E+00  0.88000000000E+00 0. -1.
        -11    1    4    4    0    0  0.86374695234E-02  0.58481670691E-02  0.31260171253E-01  0.32958555272E-01  0.51100000000E-03 0. -1.
         11    1    4    4    0    0  0.43007305306E-01  0.42366794897E-01  0.76184835737E-01  0.97205781396E-01  0.51100000000E-03 0.  1.
</event>
<event>
 7    1  0.1116841E+005  0.1043930E+01  0.7957747E-01            NaN
         13   -1    0    0    0    0  0.00000000000E+00  0.00000000000E+00  0.74505805969E-08  0.10566000000E+00  0.10566000000E+00 0. -1.
     999900   -1    0    0    0    0 -0.00000000000E+00 -0.00000000000E+00 -0.74505805969E-08  0.93827000000E+00  0.93827000000E+00 0. -1.
     999902    2    1    2    0    0  0.11056913449E-01  0.12748696076E-01 -0.15931488077E-01  0.10207223095E+01  0.10204584441E+01 0.  0.
         14    1    1    2    0    0 -0.11056913449E-01 -0.12748696076E-01  0.15931488077E-01  0.23207690514E-01  0.00000000000E+00 0. -1.
     999901    1    3    3    0    0  0.28130360832E-01  0.80091400988E-02 -0.13854202960E+00  0.89131888653E+00  0.88000000000E+00 0. -1.
        -11    1    3    3    0    0 -0.27269555387E-01 -0.37234356446E-02  0.92339804645E-01  0.96355556492E-01  0.51100000000E-03 0. -1.
         11    1    3    3    0    0  0.10196108003E-01  0.84629916217E-02  0.30270736876E-01  0.33047866461E-01  0.51100000000E-03 0.  1.
</event>
<event>
 8    1  0.1116841E+005  0.1043930E+01  0.7957747E-01            NaN
         13   -1    0    0    0    0  0.00000000000E+00  0.00000000000E+00  0.74505805969E-08  0.10566000000E+00  0.10566000000E+00 0. -1.
     999900   -1    0    0    0    0 -0.00000000000E+00 -0.00000000000E+00 -0.74505805969E-08  0.93827000000E+00  0.93827000000E+00 0. -1.
     999902    2    1    2    0    0  0.17230343831E-01 -0.14230587235E-01 -0.73957204952E-02  0.10203908615E+01  0.10201193161E+01 0.  0.
     999903    2    3    3    0    0 -0.11716060678E+00  0.36148499086E-01  0.31004899453E-01  0.12793717215E+00  0.19320829714E-01 0.  0.
         14    1    1    2    0    0 -0.17230343831E-01  0.14230587235E-01  0.73957204952E-02  0.23539138541E-01  0.00000000000E+00 0.  1.
     999901    1    3    3    0    0  0.13439095061E+00 -0.50379086321E-01 -0.38400619948E-01  0.89245368931E+00  0.88000000000E+00 0.  1.
        -11    1    4    4    0    0 -0.71338347719E-01  0.14682924412E-01  0.24863720537E-01  0.76962418391E-01  0.51100000000E-03 0.  1.
         11    1    4    4    0    0 -0.45822259062E-01  0.21465574674E-01  0.61411789163E-02  0.50974753762E-01  0.51100000000E-03 0. -1.
</event>
<event>
 8    1  0.1116841E+005  0.1043930E+01  0.7957747E-01            NaN
         13   -1    0    0    0    0  0.00000000000E+00  0.00000000000E+00  0.74505805969E-08  0.10566000000E+00  0.10566000000E+00 0. -1.
     999900   -1    0    0    0    0 -0.00000000000E+00 -0.00000000000E+00 -0.74505805969E-08  0.93827000000E+00  0.93827000000E+00 0. -1.
     999902    2    1    2    0    0 -0.21969155481E-02 -0.30100919296E-01  0.10693075580E-01  0.10119107301E+01  0.10114040202E+01 0.  0.
     999903    2    3    3    0    0  0.10465118927E+00 -0.58880609402E-01 -0.24716011162E-01  0.12427421017E+00  0.20356829946E-01 0.  0.
         14    1    1    2    0    0  0.21969155481E-02  0.30100919296E-01 -0.10693075580E-01  0.32019269913E-01  0.00000000000E+00 0.  1.
     999901    1    3    3    0    0 -0.10684810482E+00  0.28779690107E-01  0.35409086742E-01  0.88763651992E+00  0.88000000000E+00 0. -1.
        -11    1    4    4    0    0  0.49655423589E-01 -0.17450048348E-01 -0.15034199207E-01  0.54739871629E-01  0.51100000000E-03 0.  1.
         11    1    4    4    0    0  0.54995765686E-01 -0.41430561054E-01 -0.96818119549E-02  0.69534338541E-01  0.51100000000E-03 0. -1.
</event>
<event>
 8    1  0.1116841E+005  0.1043930E+01  0.7957747E-01            NaN
         13   -1    0    0    0    0  0.00000000000E+00  0.00000000000E+00  0.74505805969E-08  0.10566000000E+00  0.10566000000E+00 0.  1.
     999900   -1    0    0    0    0 -0.00000000000E+00 -0.00000000000E+00 -0.74505805969E-08  0.93827000000E+00  0.93827000000E+00 0. -1.
     999902    2    1    2    0    0  0.75890759605E-02  0.22487198265E-01  0.41375473011E-02  0.10198387680E+01  0.10195541797E+01 0.  0.
     999903    2    3    3    0    0  0.11850767783E+00  0.37720895555E-01 -0.38607504133E-01  0.13171594928E+00  0.19789296452E-01 0.  0.
         14    1    1    2    0    0 -0.75890759605E-02 -0.22487198265E-01 -0.41375473011E-02  0.24091231961E-01  0.00000000000E+00 0. -1.
     999901    1    3    3    0    0 -0.11091860187E+00 -0.15233697290E-01  0.42745051434E-01  0.88812281876E+00  0.88000000000E+00 0.  1.
        -11    1    4    4    0    0  0.98915249804E-01  0.25158130724E-01 -0.36271980798E-01  0.10831932375E+00  0.51100000000E-03 0.  1.
         11    1    4    4    0    0  0.19592428025E-01  0.12562764831E-01 -0.23355233347E-02  0.23396625534E-01  0.51100000000E-03 0. -1.
</event>
<event>
 8    1  0.1116841E+005  0.1043930E+01  0.7957747E-01            NaN
         13   -1    0    0    0    0  0.00000000000E+00  0.00000000000E+00  0.74505805969E-08  0.10566000000E+00  0.10566000000E+00 0.  1.
     999900   -1    0    0    0    0 -0.00000000000E+00 -0.00000000000E+00 -0.74505805969E-08  0.93827000000E+00  0.93827000000E+00 0.  1.
     999902    2    1    2    0    0  0.12213668953E-01  0.15437785335E-01  0.13919216910E-01  0.10198210074E+01  0.10195359943E+01 0.  0.
     999903    2    3    3    0    0  0.11120554192E+00 -0.37141809276E-01 -0.52919881155E-01  0.13019666548E+00  0.20111472623E-01 0.  0.
         14    1    1    2    0    0 -0.12213668953E-01 -0.15437785335E-01 -0.13919216910E-01  0.24108992612E-01  0.00000000000E+00 0. -1.
     999901    1    3    3    0    0 -0.98991872967E-01  0.52579594611E-01  0.66839098065E-01  0.88962434191E+00  0.88000000000E+00 0. -1.
        -11    1    4    4    0    0  0.32957934560E-01 -0.18412522539E-01 -0.23792098650E-01  0.44627026742E-01  0.51100000000E-03 0. -1.
         11    1    4    4    0    0  0.78247607361E-01 -0.18729286736E-01 -0.29127782505E-01  0.85569638739E-01  0.51100000000E-03 0.  1.
</event>
<event>
 8    1  0.1116841E+005  0.1043930E+01  0.7957747E-01            NaN
         13   -1    0    0    0    0  0.00000000000E+00  0.00000000000E+00  0.74505805969E-08  0.10566000000E+00  0.10566000000E+00 0.  1.
     999900   -1    0    0    0    0 -0.00000000000E+00 -0.00000000000E+00 -0.74505805969E-08  0.93827000000E+00  0.93827000000E+00 0. -1.
     999902    2    1    2    0    0 -0.35373071053E-04 -0.21280929648E-01  0.10729821873E-01  0.10200970754E+01  0.10198186284E+01 0.  0.
     999903    2    3    3    0    0 -0.91129768898E-01 -0.38199361586E-01 -0.82510493785E-01  0.13033408518E+00  0.20375626848E-01 0.  0.
         14    1    1    2    0    0  0.35373071053E-04  0.21280929648E-01 -0.10729821873E-01  0.23832924608E-01  0.00000000000E+00 0. -1.
     999901    1    3    3    0    0  0.91094395827E-01  0.16918431938E-01  0.93240315659E-01  0.88976299021E+00  0.88000000000E+00 0.  1.
        -11    1    4    4    0    0 -0.48871959903E-01 -0.14985103074E-01 -0.53811784855E-01  0.74222578029E-01  0.51100000000E-03 0. -1.
         11    1    4    4    0    0 -0.42257808996E-01 -0.23214258511E-01 -0.28698708930E-01  0.56111507149E-01  0.51100000000E-03 0.  1.
</event>
<event>
 8    1  0.1116841E+005  0.1043930E+01  0.7957747E-01            NaN
         13   -1    0    0    0    0  0.00000000000E+00  0.00000000000E+00  0.74505805969E-08  0.10566000000E+00  0.10566000000E+00 0.  1.
     999900   -1    0    0    0    0 -0.00000000000E+00 -0.00000000000E+00 -0.74505805969E-08  0.93827000000E+00  0.93827000000E+00 0. -1.
     999902    2    1    2    0    0 -0.65893413751E-02 -0.20959630305E-01 -0.94232306974E-02  0.10200234570E+01  0.10197432667E+01 0.  0.
     999903    2    3    3    0    0  0.42424890792E-02 -0.48848205254E-01  0.11900440966E+00  0.13019832811E+00  0.19631842890E-01 0.  0.
         14    1    1    2    0    0  0.65893413751E-02  0.20959630305E-01  0.94232306974E-02  0.23906543017E-01  0.00000000000E+00 0. -1.
     999901    1    3    3    0    0 -0.10831830454E-01  0.27888574949E-01 -0.12842764035E+00  0.88982512887E+00  0.88000000000E+00 0. -1.
        -11    1    4    4    0    0  0.81351571765E-02 -0.24486240029E-01  0.79848631152E-01  0.83915563222E-01  0.51100000000E-03 0. -1.
         11    1    4    4    0    0 -0.38926680973E-02 -0.24361965224E-01  0.39155778505E-01  0.46282764890E-01  0.51100000000E-03 0.  1.
</event>
<event>
 8    1  0.1116841E+005  0.1043930E+01  0.7957747E-01            NaN
         13   -1    0    0    0    0  0.00000000000E+00  0.00000000000E+00  0.74505805969E-08  0.10566000000E+00  0.10566000000E+00 0.  1.
     999900   -1    0    0    0    0 -0.00000000000E+00 -0.00000000000E+00 -0.74505805969E-08  0.93827000000E+00  0.93827000000E+00 0.  1.
     999902    2    1    2    0    0  0.68410864859E-02  0.23156614063E-01 -0.31506823623E-03  0.10197819461E+01  0.10194959976E+01 0.  0.
     999903    2    3    3    0    0 -0.34003074799E-01  0.45844524099E-01 -0.11622941625E+00  0.13095174699E+00  0.19523149118E-01 0.  0.
         14    1    1    2    0    0 -0.68410864859E-02 -0.23156614063E-01  0.31506823623E-03  0.24148053900E-01  0.00000000000E+00 0. -1.
     999901    1    3    3    0    0  0.40844161285E-01 -0.22687910036E-01  0.11591434802E+00  0.88883019911E+00  0.88000000000E+00 0. -1.
        -11    1    4    4    0    0 -0.32531213138E-01  0.37778532212E-01 -0.83909491117E-01  0.97604104140E-01  0.51100000000E-03 0. -1.
         11    1    4    4    0    0 -0.14718616608E-02  0.80659918868E-02 -0.32319925136E-01  0.33347642851E-01  0.51100000000E-03 0.  1.
</event>
<event>
 8    1  0.1116841E+005  0.1043930E+01  0.7957747E-01            NaN
         13   -1    0    0    0    0  0.00000000000E+00  0.00000000000E+00  0.74505805969E-08  0.10566000000E+00  0.10566000000E+00 0. -1.
     999900   -1    0    0    0    0 -0.00000000000E+00 -0.00000000000E+00 -0.74505805969E-08  0.93827000000E+00  0.93827000000E+00 0.  1.
     999902    2    1    2    0    0  0.10941701499E-01 -0.18767812019E-01  0.82388709563E-02  0.10206957452E+01  0.10204312685E+01 0.  0.
     999903    2    3    3    0    0 -0.63880213707E-01 -0.16860786120E-01  0.11163266818E+00  0.13148697726E+00  0.21494296288E-01 0.  0.
         14    1    1    2    0    0 -0.10941701499E-01  0.18767812019E-01 -0.82388709563E-02  0.23234254762E-01  0.00000000000E+00 0.  1.
     999901    1    3    3    0    0  0.74821915206E-01 -0.19070258997E-02 -0.10339379722E+00  0.88920876798E+00  0.88000000000E+00 0.  1.
        -11    1    4    4    0    0 -0.63130584749E-01 -0.19871072913E-01  0.10456407841E+00  0.12375070862E+00  0.51100000000E-03 0. -1.
         11    1    4    4    0    0 -0.74962895727E-03  0.30102867937E-02  0.70685897731E-02  0.77362686441E-02  0.51100000000E-03 0.  1.
</event>
<event>
 8    1  0.1116841E+005  0.1043930E+01  0.7957747E-01            NaN
         13   -1    0    0    0    0  0.00000000000E+00  0.00000000000E+00  0.74505805969E-08  0.10566000000E+00  0.10566000000E+00 0.  1.
     999900   -1    0    0    0    0 -0.00000000000E+00 -0.00000000000E+00 -0.74505805969E-08  0.93827000000E+00  0.93827000000E+00 0. -1.
     999902    2    1    2    0    0 -0.60453180611E-02 -0.22474504536E-01  0.23437338834E-02  0.10205389266E+01  0.10202708260E+01 0.  0.
     999903    2    3    3    0    0  0.94184467341E-01  0.35750797421E-01  0.79085049922E-01  0.12962623436E+00  0.19992051141E-01 0.  0.
         14    1    1    2    0    0  0.60453180611E-02  0.22474504536E-01 -0.23437338834E-02  0.23391073364E-01  0.00000000000E+00 0. -1.
     999901    1    3    3    0    0 -0.10022978540E+00 -0.58225301957E-01 -0.76741316039E-01  0.89091269228E+00  0.88000000000E+00 0. -1.
        -11    1    4    4    0    0  0.69676698169E-01  0.17237483278E-01  0.59100406366E-01  0.92978988224E-01  0.51100000000E-03 0.  1.
         11    1    4    4    0    0  0.24507769171E-01  0.18513314144E-01  0.19984643556E-01  0.36647246137E-01  0.51100000000E-03 0. -1.
</event>
<event>
 8    1  0.1116841E+005  0.1043930E+01  0.7957747E-01            NaN
         13   -1    0    0    0    0  0.00000000000E+00  0.00000000000E+00  0.74505805969E-08  0.10566000000E+00  0.10566000000E+00 0. -1.
     999900   -1    0    0    0    0 -0.00000000000E+00 -0.00000000000E+00 -0.74505805969E-08  0.93827000000E+00  0.93827000000E+00 0. -1.
     999902    2    1    2    0    0  0.24934596103E-02  0.72964473270E-03 -0.20754363070E-01  0.10230136593E+01  0.10227998112E+01 0.  0.
     999903    2    3    3    0    0 -0.11046469902E+00 -0.38575937164E-01 -0.60083666864E-01  0.13405287922E+00  0.25876142418E-01 0.  0.
         14    1    1    2    0    0 -0.24934596103E-02 -0.72964473270E-03  0.20754363070E-01  0.20916340710E-01  0.00000000000E+00 0. -1.
     999901    1    3    3    0    0  0.11295815863E+00  0.39305581897E-01  0.39329303795E-01  0.88896078007E+00  0.88000000000E+00 0. -1.
        -11    1    4    4    0    0 -0.60504254807E-01 -0.14650370151E-01 -0.44443697500E-01  0.76491186183E-01  0.51100000000E-03 0. -1.
         11    1    4    4    0    0 -0.49960444208E-01 -0.23925567013E-01 -0.15639969364E-01  0.57561693035E-01  0.51100000000E-03 0.  1.
</event>
<event>
 8    1  0.1116841E+005  0.1043930E+01  0.7957747E-01            NaN
         13   -1    0    0    0    0  0.00000000000E+00  0.00000000000E+00  0.74505805969E-08  0.10566000000E+00  0.10566000000E+00 0. -1.
     999900   -1    0    0    0    0 -0.00000000000E+00 -0.00000000000E+00 -0.74505805969E-08  0.93827000000E+00  0.93827000000E+00 0.  1.
     999902    2    1    2    0    0 -0.10320250276E-01  0.17981866687E-01 -0.79949669130E-02  0.10217089606E+01  0.10214672905E+01 0.  0.
     999903    2    3    3    0    0  0.15949085748E-01 -0.83304836634E-01 -0.98319078416E-01  0.13091857034E+00  0.16702147692E-01 0.  0.
         14    1    1    2    0    0  0.10320250276E-01 -0.17981866687E-01  0.79949669130E-02  0.22221039383E-01  0.00000000000E+00 0. -1.
     999901    1    3    3    0    0 -0.26269336024E-01  0.10128670332E+00  0.90324111503E-01  0.89079039027E+00  0.88000000000E+00 0. -1.
        -11    1    4    4    0    0  0.15340981651E-01 -0.74882093640E-01 -0.79507922230E-01  0.11029254047E+00  0.51100000000E-03 0.  1.
         11    1    4    4    0    0  0.60810409703E-03 -0.84227429941E-02 -0.18811156186E-01  0.20626029869E-01  0.51100000000E-03 0. -1.
</event>
<event>
 8    1  0.1116841E+005  0.1043930E+01  0.7957747E-01            NaN
         13   -1    0    0    0    0  0.00000000000E+00  0.00000000000E+00  0.74505805969E-08  0.10566000000E+00  0.10566000000E+00 0. -1.
     999900   -1    0    0    0    0 -0.00000000000E+00 -0.00000000000E+00 -0.74505805969E-08  0.93827000000E+00  0.93827000000E+00 0.  1.
     999902    2    1    2    0    0 -0.11820981518E-01  0.12361905513E-01  0.16243007781E-01  0.10203421299E+01  0.10200694459E+01 0.  0.
     999903    2    3    3    0    0 -0.52293045720E-02  0.11232685904E+00 -0.64260027683E-01  0.13100688334E+00  0.19717592071E-01 0.  0.
         14    1    1    2    0    0  0.11820981518E-01 -0.12361905513E-01 -0.16243007781E-01  0.23587870056E-01  0.00000000000E+00 0.  1.
     999901    1    3    3    0    0 -0.65916769458E-02 -0.99964953522E-01  0.80503035465E-01  0.88933524661E+00  0.88000000000E+00 0. -1.
        -11    1    4    4    0    0  0.50040279734E-02  0.12665419405E-01 -0.45033829915E-02  0.14352516296E-01  0.51100000000E-03 0.  1.
         11    1    4    4    0    0 -0.10233332545E-01  0.99661439630E-01 -0.59756644692E-01  0.11665436704E+00  0.51100000000E-03 0. -1.
</event>
<event>
 8    1  0.1116841E+005  0.1043930E+01  0.7957747E-01            NaN
         13   -1    0    0    0    0  0.00000000000E+00  0.00000000000E+00  0.74505805969E-08  0.10566000000E+00  0.10566000000E+00 0. -1.
     999900   -1    0    0    0    0 -0.00000000000E+00 -0.00000000000E+00 -0.74505805969E-08  0.93827000000E+00  0.93827000000E+00 0.  1.
     999902    2    1    2    0    0  0.20733652765E-01  0.10677466829E-01 -0.21881033569E-02  0.10205060710E+01  0.10202372079E+01 0.  0.
     999903    2    3    3    0    0  0.58692837896E-01  0.43346707516E-01 -0.10829380643E+00  0.13271859683E+00  0.23725327385E-01 0.  0.
         14    1    1    2    0    0 -0.20733652765E-01 -0.10677466829E-01  0.21881033569E-02  0.23423929029E-01  0.00000000000E+00 0. -1.
     999901    1    3    3    0    0 -0.37959185132E-01 -0.32669240687E-01  0.10610570307E+00  0.88778747414E+00  0.88000000000E+00 0. -1.
        -11    1    4    4    0    0  0.21142950356E-01  0.66433966461E-02 -0.47285078239E-01  0.52223546546E-01  0.51100000000E-03 0.  1.
         11    1    4    4    0    0  0.37549887540E-01  0.36703310870E-01 -0.61008728191E-01  0.80495050281E-01  0.51100000000E-03 0. -1.
</event>
<event>
 8    1  0.1116841E+005  0.1043930E+01  0.7957747E-01            NaN
         13   -1    0    0    0    0  0.00000000000E+00  0.00000000000E+00  0.74505805969E-08  0.10566000000E+00  0.10566000000E+00 0.  1.
     999900   -1    0    0    0    0 -0.00000000000E+00 -0.00000000000E+00 -0.74505805969E-08  0.93827000000E+00  0.93827000000E+00 0. -1.
     999902    2    1    2    0    0 -0.16133310639E-01 -0.16268574008E-01 -0.72397247229E-02  0.10199016037E+01  0.10196185157E+01 0.  0.
     999903    2    3    3    0    0 -0.67896058584E-01 -0.30250163140E-01  0.10613304362E+00  0.13101001783E+00  0.19350831553E-01 0.  0.
         14    1    1    2    0    0  0.16133310639E-01  0.16268574008E-01  0.72397247229E-02  0.24028396253E-01  0.00000000000E+00 0.  1.
     999901    1    3    3    0    0  0.51762747945E-01  0.13981589132E-01 -0.11337276835E+00  0.88889158592E+00  0.88000000000E+00 0. -1.
        -11    1    4    4    0    0 -0.48358211060E-01 -0.17562664715E-01  0.57991531010E-01  0.77525754164E-01  0.51100000000E-03 0.  1.
         11    1    4    4    0    0 -0.19537847524E-01 -0.12687498425E-01  0.48141512615E-01  0.53484263667E-01  0.51100000000E-03 0. -1.
</event>
<event>
 8    1  0.1116841E+005  0.1043930E+01  0.7957747E-01            NaN
         13   -1    0    0    0    0  0.00000000000E+00  0.00000000000E+00  0.74505805969E-08  0.10566000000E+00  0.10566000000E+00 0.  1.
     999900   -1    0    0    0    0 -0.00000000000E+00 -0.00000000000E+00 -0.74505805969E-08  0.93827000000E+00  0.93827000000E+00 0.  1.
     999902    2    1    2    0    0  0.10236383211E-01  0.16901328251E-01 -0.12847512317E-01  0.10203610159E+01  0.10200887735E+01 0.  0.
     999903    2    3    3    0    0 -0.82238422016E-01  0.79143743067E-01 -0.62898355981E-01  0.13191811131E+00  0.20476688772E-01 0.  0.
         14    1    1    2    0    0 -0.10236383211E-01 -0.16901328251E-01  0.12847512317E-01  0.23568984082E-01  0.00000000000E+00 0.  1.
     999901    1    3    3    0    0  0.92474805227E-01 -0.62242414816E-01  0.50050843664E-01  0.88844290461E+00  0.88000000000E+00 0. -1.
        -11    1    4    4    0    0 -0.46042473628E-01  0.30264887049E-01 -0.28334715296E-01  0.61959583422E-01  0.51100000000E-03 0. -1.
         11    1    4    4    0    0 -0.36195948388E-01  0.48878856018E-01 -0.34563640686E-01  0.69958527885E-01  0.51100000000E-03 0.  1.
</event>
<event>
 8    1  0.1116841E+005  0.1043930E+01  0.7957747E-01            NaN
         13   -1    0    0    0    0  0.00000000000E+00  0.00000000000E+00  0.74505805969E-08  0.10566000000E+00  0.10566000000E+00 0. -1.
     999900   -1    0    0    0    0 -0.00000000000E+00 -0.00000000000E+00 -0.74505805969E-08  0.93827000000E+00  0.93827000000E+00 0. -1.
     999902    2    1    2    0    0  0.21906810549E-01 -0.60968987987E-02  0.14909390843E-03  0.10211901066E+01  0.10209368889E+01 0.  0.
     999903    2    3    3    0    0  0.57163870144E-01  0.10985273594E+00  0.41326706048E-01  0.13193031677E+00  0.19036286592E-01 0.  0.
         14    1    1    2    0    0 -0.21906810549E-01  0.60968987987E-02 -0.14909390843E-03  0.22739893411E-01  0.00000000000E+00 0. -1.
     999901    1    3    3    0    0 -0.35257059596E-01 -0.11594963474E+00 -0.41177612139E-01  0.88925978982E+00  0.88000000000E+00 0. -1.
        -11    1    4    4    0    0  0.17478287057E-01  0.22688315122E-01  0.16224947389E-01  0.32920513366E-01  0.51100000000E-03 0.  1.
         11    1    4    4    0    0  0.39685583087E-01  0.87164420817E-01  0.25101758658E-01  0.99009803404E-01  0.51100000000E-03 0. -1.
</event>
<event>
 8    1  0.1116841E+005  0.1043930E+01  0.7957747E-01            NaN
         13   -1    0    0    0    0  0.00000000000E+00  0.00000000000E+00  0.74505805969E-08  0.10566000000E+00  0.10566000000E+00 0.  1.
     999900   -1    0    0    0    0 -0.00000000000E+00 -0.00000000000E+00 -0.74505805969E-08  0.93827000000E+00  0.93827000000E+00 0.  1.
     999902    2    1    2    0    0  0.14140555023E-01 -0.27924129130E-02 -0.19385652822E-01  0.10197730879E+01  0.10194869271E+01 0.  0.
     999903    2    3    3    0    0  0.35369870116E-01 -0.44159311693E-01 -0.11871279948E+00  0.13296545026E+00  0.19647129082E-01 0.  0.
         14    1    1    2    0    0 -0.14140555023E-01  0.27924129130E-02  0.19385652822E-01  0.24156912087E-01  0.00000000000E+00 0.  1.
     999901    1    3    3    0    0 -0.21229315093E-01  0.41366898780E-01  0.99327146661E-01  0.88680763765E+00  0.88000000000E+00 0. -1.
        -11    1    4    4    0    0  0.23184333323E-01 -0.21903802672E-01 -0.84851300389E-01  0.90649292230E-01  0.51100000000E-03 0. -1.
         11    1    4    4    0    0  0.12185536793E-01 -0.22255509021E-01 -0.33861499093E-01  0.42316158031E-01  0.51100000000E-03 0.  1.
</event>
<event>
 8    1  0.1116841E+005  0.1043930E+01  0.7957747E-01            NaN
         13   -1    0    0    0    0  0.00000000000E+00  0.00000000000E+00  0.74505805969E-08  0.10566000000E+00  0.10566000000E+00 0. -1.
     999900   -1    0    0    0    0 -0.00000000000E+00 -0.00000000000E+00 -0.74505805969E-08  0.93827000000E+00  0.93827000000E+00 0. -1.
     999902    2    1    2    0    0  0.17242442826E-01  0.61164125246E-02 -0.14846307186E-01  0.10203689055E+01  0.10200968474E+01 0.  0.
     999903    2    3    3    0    0 -0.28143357051E-01  0.12177196748E+00 -0.35673329709E-01  0.13139767814E+00  0.19295148513E-01 0.  0.
         14    1    1    2    0    0 -0.17242442826E-01 -0.61164125246E-02  0.14846307186E-01  0.23561094495E-01  0.00000000000E+00 0.  1.
     999901    1    3    3    0    0  0.45385799877E-01 -0.11565555496E+00  0.20827022523E-01  0.88897122737E+00  0.88000000000E+00 0. -1.
        -11    1    4    4    0    0 -0.96096366015E-03  0.43111383264E-01 -0.95756666885E-02  0.44175438103E-01  0.51100000000E-03 0.  1.
         11    1    4    4    0    0 -0.27182393391E-01  0.78660584218E-01 -0.26097663021E-01  0.87222240032E-01  0.51100000000E-03 0. -1.
</event>
<event>
 7    1  0.1116841E+005  0.1043930E+01  0.7957747E-01            NaN
         13   -1    0    0    0    0  0.00000000000E+00  0.00000000000E+00  0.74505805969E-08  0.10566000000E+00  0.10566000000E+00 0.  1.
     999900   -1    0    0    0    0 -0.00000000000E+00 -0.00000000000E+00 -0.74505805969E-08  0.93827000000E+00  0.93827000000E+00 0.  1.
     999903    2    1    2    0    0  0.89760247257E-01  0.39962957627E-01 -0.45848795382E-01  0.11017182360E+00  0.19539158315E-01 0.  0.
         14    1    1    2    0    0 -0.26110559399E-01 -0.16921062872E-01 -0.35751146844E-01  0.47394389768E-01  0.00000000000E+00 0. -1.
     999901    1    1    2    0    0 -0.63649687858E-01 -0.23041894756E-01  0.81599942226E-01  0.88636378663E+00  0.88000000000E+00 0.  1.
        -11    1    3    3    0    0  0.27184106944E-01  0.92899061256E-02 -0.23084282696E-01  0.36856793875E-01  0.51100000000E-03 0. -1.
         11    1    3    3    0    0  0.62576140313E-01  0.30673051502E-01 -0.22764512686E-01  0.73315029726E-01  0.51100000000E-03 0.  1.
</event>
<event>
 8    1  0.1116841E+005  0.1043930E+01  0.7957747E-01            NaN
         13   -1    0    0    0    0  0.00000000000E+00  0.00000000000E+00  0.74505805969E-08  0.10566000000E+00  0.10566000000E+00 0. -1.
     999900   -1    0    0    0    0 -0.00000000000E+00 -0.00000000000E+00 -0.74505805969E-08  0.93827000000E+00  0.93827000000E+00 0.  1.
     999902    2    1    2    0    0  0.16900017056E-01  0.57435865890E-02 -0.14533033968E-01  0.10209124319E+01  0.10206529210E+01 0.  0.
     999903    2    3    3    0    0  0.41735541330E-01  0.12374210139E+00  0.96081300103E-02  0.13236122431E+00  0.19318759596E-01 0.  0.
         14    1    1    2    0    0 -0.16900017056E-01 -0.57435865890E-02  0.14533033968E-01  0.23017568066E-01  0.00000000000E+00 0. -1.
     999901    1    3    3    0    0 -0.24835524274E-01 -0.11799851481E+00 -0.24141163978E-01  0.88855120762E+00  0.88000000000E+00 0. -1.
        -11    1    4    4    0    0  0.25154566183E-01  0.49310473368E-01  0.91031189568E-02  0.56101719041E-01  0.51100000000E-03 0.  1.
         11    1    4    4    0    0  0.16580975147E-01  0.74431628026E-01  0.50501105353E-03  0.76259505274E-01  0.51100000000E-03 0. -1.
</event>
<event>
 8    1  0.1116841E+005  0.1043930E+01  0.7957747E-01            NaN
         13   -1    0    0    0    0  0.00000000000E+00  0.00000000000E+00  0.74505805969E-08  0.10566000000E+00  0.10566000000E+00 0.  1.
     999900   -1    0    0    0    0 -0.00000000000E+00 -0.00000000000E+00 -0.74505805969E-08  0.93827000000E+00  0.93827000000E+00 0.  1.
     999902    2    1    2    0    0  0.72460344471E-02  0.21543175934E-01 -0.71354021182E-02  0.10201071662E+01  0.10198289578E+01 0.  0.
     999903    2    3    3    0    0 -0.45483983252E-01  0.58487587144E-01  0.10574380700E+00  0.13056399128E+00  0.19380725403E-01 0.  0.
         14    1    1    2    0    0 -0.72460344471E-02 -0.21543175934E-01  0.71354021182E-02  0.23822833751E-01  0.00000000000E+00 0. -1.
     999901    1    3    3    0    0  0.52730017700E-01 -0.36944411210E-01 -0.11287920912E+00  0.88954317497E+00  0.88000000000E+00 0.  1.
        -11    1    4    4    0    0 -0.41604931868E-01  0.46655685756E-01  0.76626207780E-01  0.98891658944E-01  0.51100000000E-03 0.  1.
         11    1    4    4    0    0 -0.38790513848E-02  0.11831901388E-01  0.29117599220E-01  0.31672332334E-01  0.51100000000E-03 0. -1.
</event>
<event>
 8    1  0.1116841E+005  0.1043930E+01  0.7957747E-01            NaN
         13   -1    0    0    0    0  0.00000000000E+00  0.00000000000E+00  0.74505805969E-08  0.10566000000E+00  0.10566000000E+00 0.  1.
     999900   -1    0    0    0    0 -0.00000000000E+00 -0.00000000000E+00 -0.74505805969E-08  0.93827000000E+00  0.93827000000E+00 0.  1.
     999902    2    1    2    0    0 -0.29117127314E-02  0.22483046078E-01  0.36973978596E-02  0.10209596673E+01  0.10207012326E+01 0.  0.
     999903    2    3    3    0    0 -0.11064950172E+00 -0.32768810890E-01  0.58654645076E-01  0.13097062364E+00  0.19895468574E-01 0.  0.
         14    1    1    2    0    0  0.29117127314E-02 -0.22483046078E-01 -0.36973978596E-02  0.22970332668E-01  0.00000000000E+00 0. -1.
     999901    1    3    3    0    0  0.10773778898E+00  0.55251856968E-01 -0.54957247217E-01  0.88998904369E+00  0.88000000000E+00 0.  1.
        -11    1    4    4    0    0 -0.76071256661E-01 -0.24235258853E-01  0.50367842266E-01  0.94400023926E-01  0.51100000000E-03 0.  1.
         11    1    4    4    0    0 -0.34578245055E-01 -0.85335520370E-02  0.82868028108E-02  0.36570599712E-01  0.51100000000E-03 0. -1.
</event>
<event>
 8    1  0.1116841E+005  0.1043930E+01  0.7957747E-01            NaN
         13   -1    0    0    0    0  0.00000000000E+00  0.00000000000E+00  0.74505805969E-08  0.10566000000E+00  0.10566000000E+00 0. -1.
     999900   -1    0    0    0    0 -0.00000000000E+00 -0.00000000000E+00 -0.74505805969E-08  0.93827000000E+00  0.93827000000E+00 0. -1.
     999902    2    1    2    0    0 -0.23000777881E-01  0.71206032438E-02  0.49222695443E-02  0.10193542495E+01  0.10190579564E+01 0.  0.
     999903    2    3    3    0    0 -0.28499708009E-01  0.37147795431E-01 -0.11958231239E+00  0.13006618516E+00  0.20617735669E-01 0.  0.
         14    1    1    2    0    0  0.23000777881E-01 -0.71206032438E-02 -0.49222695443E-02  0.24575750470E-01  0.00000000000E+00 0.  1.
     999901    1    3    3    0    0  0.54989301285E-02 -0.30027192188E-01  0.12450458194E+00  0.88928806437E+00  0.88000000000E+00 0.  1.
        -11    1    4    4    0    0 -0.11137465618E-01  0.22087969008E-01 -0.38312227321E-01  0.45607120042E-01  0.51100000000E-03 0.  1.
         11    1    4    4    0    0 -0.17362242392E-01  0.15059826423E-01 -0.81270085070E-01  0.84459065121E-01  0.51100000000E-03 0. -1.
</event>
<event>
 8    1  0.1116841E+005  0.1043930E+01  0.7957747E-01            NaN
         13   -1    0    0    0    0  0.00000000000E+00  0.00000000000E+00  0.74505805969E-08  0.10566000000E+00  0.10566000000E+00 0. -1.
     999900   -1    0    0    0    0 -0.00000000000E+00 -0.00000000000E+00 -0.74505805969E-08  0.93827000000E+00  0.93827000000E+00 0. -1.
     999902    2    1    2    0    0 -0.21601618546E-01  0.16943179984E-02 -0.12735033300E-01  0.10187967211E+01  0.10184866603E+01 0.  0.
     999903    2    3    3    0    0 -0.10372357732E-01 -0.11335532413E+00 -0.60073680663E-01  0.12997533068E+00  0.18103153433E-01 0.  0.
         14    1    1    2    0    0  0.21601618546E-01 -0.16943179984E-02  0.12735033300E-01  0.25133278944E-01  0.00000000000E+00 0.  1.
     999901    1    3    3    0    0 -0.11229260814E-01  0.11504964213E+00  0.47338647363E-01  0.88882139037E+00  0.88000000000E+00 0.  1.
        -11    1    4    4    0    0  0.11115898409E-02 -0.65863720806E-01 -0.40556703994E-01  0.77358727434E-01  0.51100000000E-03 0.  1.
         11    1    4    4    0    0 -0.11483947573E-01 -0.47491603324E-01 -0.19516976669E-01  0.52616603249E-01  0.51100000000E-03 0. -1.
</event>
<event>
 8    1  0.1116841E+005  0.1043930E+01  0.7957747E-01            NaN
         13   -1    0    0    0    0  0.00000000000E+00  0.00000000000E+00  0.74505805969E-08  0.10566000000E+00  0.10566000000E+00 0.  1.
     999900   -1    0    0    0    0 -0.00000000000E+00 -0.00000000000E+00 -0.74505805969E-08  0.93827000000E+00  0.93827000000E+00 0.  1.
     999902    2    1    2    0    0 -0.35198956709E-02  0.13943550415E-01  0.18329217338E-01  0.10206325222E+01  0.10203665875E+01 0.  0.
     999903    2    3    3    0    0 -0.10236606776E-01 -0.10934113753E+00  0.67822371003E-01  0.13063600493E+00  0.20139992575E-01 0.  0.
         14    1    1    2    0    0  0.35198956709E-02 -0.13943550415E-01 -0.18329217338E-01  0.23297477801E-01  0.00000000000E+00 0. -1.
     999901    1    3    3    0    0  0.67167111048E-02  0.12328468795E+00 -0.49493153665E-01  0.88999651727E+00  0.88000000000E+00 0. -1.
        -11    1    4    4    0    0 -0.12725705181E-01 -0.80223457351E-01  0.57967581004E-01  0.99791022894E-01  0.51100000000E-03 0.  1.
         11    1    4    4    0    0  0.24890984055E-02 -0.29117680180E-01  0.98547899989E-02  0.30844982037E-01  0.51100000000E-03 0. -1.
</event>
<event>
 8    1  0.1116841E+005  0.1043930E+01  0.7957747E-01            NaN
         13   -1    0    0    0    0  0.00000000000E+00  0.00000000000E+00  0.74505805969E-08  0.10566000000E+00  0.10566000000E+00 0. -1.
     999900   -1    0    0    0    0 -0.00000000000E+00 -0.00000000000E+00 -0.74505805969E-08  0.93827000000E+00  0.93827000000E+00 0. -1.
     999902    2    1    2    0    0 -0.23784117937E-01 -0.60564925217E-02 -0.84944618294E-02  0.10179584531E+01  0.10176270884E+01 0.  0.
     999903    2    3    3    0    0  0.60340615813E-01  0.72034582789E-01 -0.83589097037E-01  0.12733261070E+00  0.19911945429E-01 0.  0.
         14    1    1    2    0    0  0.23784117937E-01  0.60564925217E-02  0.84944618294E-02  0.25971546921E-01  0.00000000000E+00 0.  1.
     999901    1    3    3    0    0 -0.84124733750E-01 -0.78091075310E-01  0.75094635207E-01  0.89062584238E+00  0.88000000000E+00 0.  1.
        -11    1    4    4    0    0  0.17351552490E-01  0.28341938985E-01 -0.18983364447E-01  0.38274941227E-01  0.51100000000E-03 0.  1.
         11    1    4    4    0    0  0.42989063323E-01  0.43692643804E-01 -0.64605732590E-01  0.89057669475E-01  0.51100000000E-03 0. -1.
</event>
<event>
 8    1  0.1116841E+005  0.1043930E+01  0.7957747E-01            NaN
         13   -1    0    0    0    0  0.00000000000E+00  0.00000000000E+00  0.74505805969E-08  0.10566000000E+00  0.10566000000E+00 0.  1.
     999900   -1    0    0    0    0 -0.00000000000E+00 -0.00000000000E+00 -0.74505805969E-08  0.93827000000E+00  0.93827000000E+00 0. -1.
     999902    2    1    2    0    0  0.35692101805E-02 -0.21883511986E-01 -0.85974305058E-02  0.10201488484E+01  0.10198716242E+01 0.  0.
     999903    2    3    3    0    0  0.74527491500E-02  0.14702686141E-01  0.12626545444E+00  0.12911482580E+00  0.21353238815E-01 0.  0.
         14    1    1    2    0    0 -0.35692101805E-02  0.21883511986E-01  0.85974305058E-02  0.23781151559E-01  0.00000000000E+00 0.  1.
     999901    1    3    3    0    0 -0.38835389695E-02 -0.36586198127E-01 -0.13486288494E+00  0.89103402264E+00  0.88000000000E+00 0. -1.
        -11    1    4    4    0    0  0.27924600794E-02  0.17563973956E-01  0.58968745970E-01  0.61594359618E-01  0.51100000000E-03 0.  1.
         11    1    4    4    0    0  0.46602890706E-02 -0.28612878149E-02  0.67296708466E-01  0.67520466183E-01  0.51100000000E-03 0. -1.
</event>
<event>
 8    1  0.1116841E+005  0.1043930E+01  0.7957747E-01            NaN
         13   -1    0    0    0    0  0.00000000000E+00  0.00000000000E+00  0.74505805969E-08  0.10566000000E+00  0.10566000000E+00 0. -1.
     999900   -1    0    0    0    0 -0.00000000000E+00 -0.00000000000E+00 -0.74505805969E-08  0.93827000000E+00  0.93827000000E+00 0. -1.
     999902    2    1    2    0    0 -0.12710697182E-01  0.20979324156E-01  0.56532144704E-02  0.10187575409E+01  0.10184465005E+01 0.  0.
     999903    2    3    3    0    0 -0.23942791329E-03  0.89048207467E-01 -0.93527572570E-01  0.13048633569E+00  0.18698566573E-01 0.  0.
         14    1    1    2    0    0  0.12710697182E-01 -0.20979324156E-01 -0.56532144704E-02  0.25172459132E-01  0.00000000000E+00 0.  1.
     999901    1    3    3    0    0 -0.12471269268E-01 -0.68068883311E-01  0.99180787041E-01  0.88827120518E+00  0.88000000000E+00 0. -1.
        -11    1    4    4    0    0 -0.46865500630E-02  0.34583433393E-01 -0.25495090210E-01  0.43223123008E-01  0.51100000000E-03 0. -1.
         11    1    4    4    0    0  0.44471221497E-02  0.54464774073E-01 -0.68032482360E-01  0.87263212681E-01  0.51100000000E-03 0.  1.
</event>
<event>
 7    1  0.1116841E+005  0.1043930E+01  0.7957747E-01            NaN
         13   -1    0    0    0    0  0.00000000000E+00  0.00000000000E+00  0.74505805969E-08  0.10566000000E+00  0.10566000000E+00 0.  1.
     999900   -1    0    0    0    0 -0.00000000000E+00 -0.00000000000E+00 -0.74505805969E-08  0.93827000000E+00  0.93827000000E+00 0.  1.
     999903    2    1    2    0    0  0.27616144076E-01 -0.21502830518E-01  0.53446144967E-01  0.66930064406E-01  0.19952944034E-01 0.  0.
         14    1    1    2    0    0 -0.57994873796E-01  0.47446014365E-01 -0.60121512279E-01  0.96068339762E-01  0.00000000000E+00 0. -1.
     999901    1    1    2    0    0  0.30378729720E-01 -0.25943183847E-01  0.66753673125E-02  0.88093159583E+00  0.88000000000E+00 0.  1.
        -11    1    3    3    0    0  0.19815640876E-01 -0.61422153324E-02  0.17817712214E-01  0.27351753546E-01  0.51100000000E-03 0. -1.
         11    1    3    3    0    0  0.78005031998E-02 -0.15360615185E-01  0.35628432753E-01  0.39578310860E-01  0.51100000000E-03 0.  1.
</event>
<event>
 8    1  0.1116841E+005  0.1043930E+01  0.7957747E-01            NaN
         13   -1    0    0    0    0  0.00000000000E+00  0.00000000000E+00  0.74505805969E-08  0.10566000000E+00  0.10566000000E+00 0.  1.
     999900   -1    0    0    0    0 -0.00000000000E+00 -0.00000000000E+00 -0.74505805969E-08  0.93827000000E+00  0.93827000000E+00 0. -1.
     999902    2    1    2    0    0 -0.78850557734E-02 -0.19836544330E-01  0.81507561121E-02  0.10210805488E+01  0.10208248575E+01 0.  0.
     999903    2    3    3    0    0  0.49557571948E-01 -0.54439517307E-01  0.10879637270E+00  0.13280887787E+00  0.19543115037E-01 0.  0.
         14    1    1    2    0    0  0.78850557734E-02  0.19836544330E-01 -0.81507561121E-02  0.22849451212E-01  0.00000000000E+00 0.  1.
     999901    1    3    3    0    0 -0.57442627721E-01  0.34602972977E-01 -0.10064561659E+00  0.88827167092E+00  0.88000000000E+00 0. -1.
        -11    1    4    4    0    0  0.92055871789E-02 -0.23523457564E-01  0.38748934937E-01  0.46258371899E-01  0.51100000000E-03 0. -1.
         11    1    4    4    0    0  0.40351984769E-01 -0.30916059743E-01  0.70047437767E-01  0.86550505969E-01  0.51100000000E-03 0.  1.
</event>
<event>
 8    1  0.1116841E+005  0.1043930E+01  0.7957747E-01            NaN
         13   -1    0    0    0    0  0.00000000000E+00  0.00000000000E+00  0.74505805969E-08  0.10566000000E+00  0.10566000000E+00 0. -1.
     999900   -1    0    0    0    0 -0.00000000000E+00 -0.00000000000E+00 -0.74505805969E-08  0.93827000000E+00  0.93827000000E+00 0. -1.
     999902    2    1    2    0    0 -0.21165007023E-01 -0.65739893612E-02  0.78953539266E-02  0.10204031755E+01  0.10201319175E+01 0.  0.
     999903    2    3    3    0    0 -0.10847280906E+00  0.62674532146E-01  0.39157600566E-01  0.13282481945E+00  0.20363391037E-01 0.  0.
         14    1    1    2    0    0  0.21165007023E-01  0.65739893612E-02 -0.78953539266E-02  0.23526824521E-01  0.00000000000E+00 0. -1.
     999901    1    3    3    0    0  0.87307802037E-01 -0.69248521507E-01 -0.31262246640E-01  0.88757835603E+00  0.88000000000E+00 0. -1.
        -11    1    4    4    0    0 -0.39056763141E-01  0.12391657054E-01  0.89730371023E-02  0.41949498536E-01  0.51100000000E-03 0. -1.
         11    1    4    4    0    0 -0.69416045919E-01  0.50282875092E-01  0.30184563464E-01  0.90875320913E-01  0.51100000000E-03 0.  1.
</event>
<event>
 8    1  0.1116841E+005  0.1043930E+01  0.7957747E-01            NaN
         13   -1    0    0    0    0  0.00000000000E+00  0.00000000000E+00  0.74505805969E-08  0.10566000000E+00  0.10566000000E+00 0. -1.
     999900   -1    0    0    0    0 -0.00000000000E+00 -0.00000000000E+00 -0.74505805969E-08  0.93827000000E+00  0.93827000000E+00 0. -1.
     999902    2    1    2    0    0  0.15775838350E-01 -0.17435786471E-01  0.57848929204E-03  0.10204094053E+01  0.10201382926E+01 0.  0.
     999903    2    3    3    0    0  0.64150880125E-01 -0.57407849891E-01  0.98952258211E-01  0.13270714162E+00  0.20214830735E-01 0.  0.
         14    1    1    2    0    0 -0.15775838350E-01  0.17435786471E-01 -0.57848929204E-03  0.23520594707E-01  0.00000000000E+00 0.  1.
     999901    1    3    3    0    0 -0.48375041775E-01  0.39972063419E-01 -0.98373768919E-01  0.88770226367E+00  0.88000000000E+00 0. -1.
        -11    1    4    4    0    0  0.45943345532E-01 -0.29332855812E-01  0.54687188413E-01  0.77215005836E-01  0.51100000000E-03 0. -1.
         11    1    4    4    0    0  0.18207534593E-01 -0.28074994079E-01  0.44265069797E-01  0.55492135782E-01  0.51100000000E-03 0.  1.
</event>
<event>
 8    1  0.1116841E+005  0.1043930E+01  0.7957747E-01            NaN
         13   -1    0    0    0    0  0.00000000000E+00  0.00000000000E+00  0.74505805969E-08  0.10566000000E+00  0.10566000000E+00 0.  1.
     999900   -1    0    0    0    0 -0.00000000000E+00 -0.00000000000E+00 -0.74505805969E-08  0.93827000000E+00  0.93827000000E+00 0.  1.
     999902    2    1    2    0    0 -0.15282977425E-01 -0.15464500763E-01 -0.92424018609E-02  0.10203049672E+01  0.10200314132E+01 0.  0.
     999903    2    3    3    0    0 -0.11726413061E+00 -0.57837775996E-01  0.14497086474E-01  0.13308503203E+00  0.20133940847E-01 0.  0.
         14    1    1    2    0    0  0.15282977425E-01  0.15464500763E-01  0.92424018609E-02  0.23625032804E-01  0.00000000000E+00 0.  1.
     999901    1    3    3    0    0  0.10198115318E+00  0.42373275234E-01 -0.23739488334E-01  0.88721993517E+00  0.88000000000E+00 0. -1.
        -11    1    4    4    0    0 -0.41189987532E-01 -0.23193633086E-01 -0.40908118424E-02  0.47450559018E-01  0.51100000000E-03 0. -1.
         11    1    4    4    0    0 -0.76074143074E-01 -0.34644142911E-01  0.18587898316E-01  0.85634473007E-01  0.51100000000E-03 0.  1.
</event>
<event>
 8    1  0.1116841E+005  0.1043930E+01  0.7957747E-01            NaN
         13   -1    0    0    0    0  0.00000000000E+00  0.00000000000E+00  0.74505805969E-08  0.10566000000E+00  0.10566000000E+00 0. -1.
     999900   -1    0    0    0    0 -0.00000000000E+00 -0.00000000000E+00 -0.74505805969E-08  0.93827000000E+00  0.93827000000E+00 0. -1.
     999902    2    1    2    0    0 -0.22565095217E-01 -0.44036011741E-02  0.16662486399E-01  0.10155360979E+01  0.10151390803E+01 0.  0.
     999903    2    3    3    0    0  0.11439177287E+00 -0.37987245981E-01 -0.17058286408E-01  0.12367168248E+00  0.21798884260E-01 0.  0.
         14    1    1    2    0    0  0.22565095217E-01  0.44036011741E-02 -0.16662486399E-01  0.28393902134E-01  0.00000000000E+00 0.  1.
     999901    1    3    3    0    0 -0.13695686808E+00  0.33583644807E-01  0.33720772806E-01  0.89186441539E+00  0.88000000000E+00 0. -1.
        -11    1    4    4    0    0  0.80042379669E-01 -0.24818012385E-01 -0.17456957838E-02  0.83821386631E-01  0.51100000000E-03 0.  1.
         11    1    4    4    0    0  0.34349393198E-01 -0.13169233595E-01 -0.15312590624E-01  0.39850295848E-01  0.51100000000E-03 0. -1.
</event>
<event>
 8    1  0.1116841E+005  0.1043930E+01  0.7957747E-01            NaN
         13   -1    0    0    0    0  0.00000000000E+00  0.00000000000E+00  0.74505805969E-08  0.10566000000E+00  0.10566000000E+00 0.  1.
     999900   -1    0    0    0    0 -0.00000000000E+00 -0.00000000000E+00 -0.74505805969E-08  0.93827000000E+00  0.93827000000E+00 0. -1.
     999902    2    1    2    0    0  0.10890103549E-01 -0.88599289231E-03  0.22964728550E-01  0.10184985609E+01  0.10181810057E+01 0.  0.
     999903    2    3    3    0    0 -0.11063196355E+00 -0.61782266218E-02 -0.56540681296E-01  0.12658111474E+00  0.23416407135E-01 0.  0.
         14    1    1    2    0    0 -0.10890103549E-01  0.88599289231E-03 -0.22964728550E-01  0.25431439127E-01  0.00000000000E+00 0. -1.
     999901    1    3    3    0    0  0.12152206710E+00  0.52922337295E-02  0.79505409846E-01  0.89191744614E+00  0.88000000000E+00 0.  1.
        -11    1    4    4    0    0 -0.86417201319E-01 -0.30259588945E-02 -0.32694221547E-01  0.92445996964E-01  0.51100000000E-03 0. -1.
         11    1    4    4    0    0 -0.24214762231E-01 -0.31522677273E-02 -0.23846459749E-01  0.34135117772E-01  0.51100000000E-03 0.  1.
</event>
<event>
 8    1  0.1116841E+005  0.1043930E+01  0.7957747E-01            NaN
         13   -1    0    0    0    0  0.00000000000E+00  0.00000000000E+00  0.74505805969E-08  0.10566000000E+00  0.10566000000E+00 0. -1.
     999900   -1    0    0    0    0 -0.00000000000E+00 -0.00000000000E+00 -0.74505805969E-08  0.93827000000E+00  0.93827000000E+00 0.  1.
     999902    2    1    2    0    0 -0.10991373525E-01  0.17347917294E-01  0.13326661088E-01  0.10194481614E+01  0.10191541558E+01 0.  0.
     999903    2    3    3    0    0  0.15381367052E-01  0.20957817973E-01  0.12762791059E+00  0.13165689736E+00  0.19205167931E-01 0.  0.
         14    1    1    2    0    0  0.10991373525E-01 -0.17347917294E-01 -0.13326661088E-01  0.24481838619E-01  0.00000000000E+00 0.  1.
     999901    1    3    3    0    0 -0.26372740577E-01 -0.36099006792E-02 -0.11430124950E+00  0.88779126402E+00  0.88000000000E+00 0.  1.
        -11    1    4    4    0    0  0.70712296198E-02  0.22309053065E-01  0.82945955397E-01  0.86185780583E-01  0.51100000000E-03 0. -1.
         11    1    4    4    0    0  0.83101374319E-02 -0.13512350912E-02  0.44681955192E-01  0.45471116780E-01  0.51100000000E-03 0.  1.
</event>
<event>
 8    1  0.1116841E+005  0.1043930E+01  0.7957747E-01            NaN
         13   -1    0    0    0    0  0.00000000000E+00  0.00000000000E+00  0.74505805969E-08  0.10566000000E+00  0.10566000000E+00 0. -1.
     999900   -1    0    0    0    0 -0.00000000000E+00 -0.00000000000E+00 -0.74505805969E-08  0.93827000000E+00  0.93827000000E+00 0. -1.
     999902    2    1    2    0    0  0.29085364760E-02 -0.15394472615E-01  0.16717420597E-01  0.10210188341E+01  0.10207617440E+01 0.  0.
     999903    2    3    3    0    0 -0.23836436719E-01  0.11095929930E+00 -0.57022828872E-01  0.12854015443E+00  0.19769331631E-01 0.  0.
         14    1    1    2    0    0 -0.29085364760E-02  0.15394472615E-01 -0.16717420597E-01  0.22911165901E-01  0.00000000000E+00 0.  1.
     999901    1    3    3    0    0  0.26744973195E-01 -0.12635377191E+00  0.73740249468E-01  0.89247867967E+00  0.88000000000E+00 0. -1.
        -11    1    4    4    0    0 -0.47872633803E-02  0.31139160640E-01 -0.65038296443E-02  0.32173376215E-01  0.51100000000E-03 0.  1.
         11    1    4    4    0    0 -0.19049173339E-01  0.79820138657E-01 -0.50518999227E-01  0.96366778218E-01  0.51100000000E-03 0. -1.
</event>
<event>
 8    1  0.1116841E+005  0.1043930E+01  0.7957747E-01            NaN
         13   -1    0    0    0    0  0.00000000000E+00  0.00000000000E+00  0.74505805969E-08  0.10566000000E+00  0.10566000000E+00 0. -1.
     999900   -1    0    0    0    0 -0.00000000000E+00 -0.00000000000E+00 -0.74505805969E-08  0.93827000000E+00  0.93827000000E+00 0.  1.
     999902    2    1    2    0    0 -0.56692696867E-02 -0.21038402381E-01 -0.75185996441E-02  0.10208803941E+01  0.10206201520E+01 0.  0.
     999903    2    3    3    0    0  0.58055917745E-02 -0.12570291209E+00  0.39512999930E-01  0.13335670232E+00  0.19692787689E-01 0.  0.
         14    1    1    2    0    0  0.56692696867E-02  0.21038402381E-01  0.75185996441E-02  0.23049605944E-01  0.00000000000E+00 0. -1.
     999901    1    3    3    0    0 -0.11474861461E-01  0.10466450970E+00 -0.47031599574E-01  0.88752369174E+00  0.88000000000E+00 0.  1.
        -11    1    4    4    0    0  0.12059981370E-01 -0.51607475532E-01  0.15731765227E-01  0.55285841222E-01  0.51100000000E-03 0. -1.
         11    1    4    4    0    0 -0.62543895957E-02 -0.74095436554E-01  0.23781234704E-01  0.78070861097E-01  0.51100000000E-03 0.  1.
</event>
<event>
 8    1  0.1116841E+005  0.1043930E+01  0.7957747E-01            NaN
         13   -1    0    0    0    0  0.00000000000E+00  0.00000000000E+00  0.74505805969E-08  0.10566000000E+00  0.10566000000E+00 0. -1.
     999900   -1    0    0    0    0 -0.00000000000E+00 -0.00000000000E+00 -0.74505805969E-08  0.93827000000E+00  0.93827000000E+00 0.  1.
     999902    2    1    2    0    0 -0.15151896036E-01 -0.49001061831E-02  0.16228989032E-01  0.10211930020E+01  0.10209398495E+01 0.  0.
     999903    2    3    3    0    0  0.31960209326E-01  0.68992602552E-01 -0.10218801286E+00  0.12894736920E+00  0.20089795034E-01 0.  0.
         14    1    1    2    0    0  0.15151896036E-01  0.49001061831E-02 -0.16228989032E-01  0.22736998023E-01  0.00000000000E+00 0. -1.
     999901    1    3    3    0    0 -0.47112105362E-01 -0.73892708735E-01  0.11841700189E+00  0.89224563278E+00  0.88000000000E+00 0.  1.
        -11    1    4    4    0    0  0.13306954069E-01  0.45260714049E-01 -0.50657300464E-01  0.69224493311E-01  0.51100000000E-03 0. -1.
         11    1    4    4    0    0  0.18653255257E-01  0.23731888503E-01 -0.51530712393E-01  0.59722875888E-01  0.51100000000E-03 0.  1.
</event>
<event>
 8    1  0.1116841E+005  0.1043930E+01  0.7957747E-01            NaN
         13   -1    0    0    0    0  0.00000000000E+00  0.00000000000E+00  0.74505805969E-08  0.10566000000E+00  0.10566000000E+00 0. -1.
     999900   -1    0    0    0    0 -0.00000000000E+00 -0.00000000000E+00 -0.74505805969E-08  0.93827000000E+00  0.93827000000E+00 0. -1.
     999902    2    1    2    0    0  0.18840780541E-01  0.56625250267E-02 -0.13696732337E-01  0.10199583568E+01  0.10196766203E+01 0.  0.
     999903    2    3    3    0    0 -0.11520215152E+00 -0.51102652061E-01 -0.10750529716E-01  0.12799508789E+00  0.19599792715E-01 0.  0.
         14    1    1    2    0    0 -0.18840780541E-01 -0.56625250267E-02  0.13696732337E-01  0.23971643202E-01  0.00000000000E+00 0. -1.
     999901    1    3    3    0    0  0.13404293206E+00  0.56765177087E-01 -0.29462026210E-02  0.89196326890E+00  0.88000000000E+00 0. -1.
        -11    1    4    4    0    0 -0.88999706200E-01 -0.30351214935E-01 -0.59281949482E-02  0.94220743831E-01  0.51100000000E-03 0.  1.
         11    1    4    4    0    0 -0.26202445315E-01 -0.20751437126E-01 -0.48223347679E-02  0.33774344063E-01  0.51100000000E-03 0. -1.
</event>
<event>
 8    1  0.1116841E+005  0.1043930E+01  0.7957747E-01            NaN
         13   -1    0    0    0    0  0.00000000000E+00  0.00000000000E+00  0.74505805969E-08  0.10566000000E+00  0.10566000000E+00 0.  1.
     999900   -1    0    0    0    0 -0.00000000000E+00 -0.00000000000E+00 -0.74505805969E-08  0.93827000000E+00  0.93827000000E+00 0.  1.
     999902    2    1    2    0    0 -0.15242140625E-01  0.20682839141E-01 -0.70290193120E-02  0.10172933749E+01  0.10169445908E+01 0.  0.
     999903    2    3    3    0    0 -0.47884960278E-01  0.59411422525E-01  0.10227560868E+00  0.12908565224E+00  0.19496639067E-01 0.  0.
         14    1    1    2    0    0  0.15242140625E-01 -0.20682839141E-01  0.70290193120E-02  0.26636625129E-01  0.00000000000E+00 0.  1.
     999901    1    3    3    0    0  0.32642819653E-01 -0.38728583385E-01 -0.10930462799E+00  0.88820772263E+00  0.88000000000E+00 0. -1.
        -11    1    4    4    0    0 -0.60918057339E-02  0.21417326637E-01  0.28653078840E-01  0.36291486955E-01  0.51100000000E-03 0. -1.
         11    1    4    4    0    0 -0.41793154544E-01  0.37994095888E-01  0.73622529842E-01  0.92794165282E-01  0.51100000000E-03 0.  1.
</event>
<event>
 8    1  0.1116841E+005  0.1043930E+01  0.7957747E-01            NaN
         13   -1    0    0    0    0  0.00000000000E+00  0.00000000000E+00  0.74505805969E-08  0.10566000000E+00  0.10566000000E+00 0. -1.
     999900   -1    0    0    0    0 -0.00000000000E+00 -0.00000000000E+00 -0.74505805969E-08  0.93827000000E+00  0.93827000000E+00 0. -1.
     999902    2    1    2    0    0  0.44543447306E-02 -0.17002500458E-01 -0.83402690864E-02  0.10244752757E+01  0.10242905370E+01 0.  0.
     999903    2    3    3    0    0  0.10029255017E+00 -0.50856835334E-01  0.71657442129E-01  0.13501998655E+00  0.21227209795E-01 0.  0.
         14    1    1    2    0    0 -0.44543447306E-02  0.17002500458E-01  0.83402690864E-02  0.19454724291E-01  0.00000000000E+00 0. -1.
     999901    1    3    3    0    0 -0.95838205440E-01  0.33854334876E-01 -0.79997711215E-01  0.88945528916E+00  0.88000000000E+00 0. -1.
        -11    1    4    4    0    0  0.72055685180E-03  0.68734744054E-03  0.38006244733E-02  0.39620090948E-02  0.51100000000E-03 0.  1.
         11    1    4    4    0    0  0.99571993319E-01 -0.51544182775E-01  0.67856817656E-01  0.13105797746E+00  0.51100000000E-03 0. -1.
</event>
<event>
 8    1  0.1116841E+005  0.1043930E+01  0.7957747E-01            NaN
         13   -1    0    0    0    0  0.00000000000E+00  0.00000000000E+00  0.74505805969E-08  0.10566000000E+00  0.10566000000E+00 0. -1.
     999900   -1    0    0    0    0 -0.00000000000E+00 -0.00000000000E+00 -0.74505805969E-08  0.93827000000E+00  0.93827000000E+00 0. -1.
     999902    2    1    2    0    0 -0.95700320108E-03  0.11567471586E-01 -0.19397004202E-01  0.10213254424E+01  0.10210752632E+01 0.  0.
     999903    2    3    3    0    0  0.12868717010E-02  0.57227766076E-01  0.11497275181E+00  0.12995283296E+00  0.19807369473E-01 0.  0.
         14    1    1    2    0    0  0.95700320108E-03 -0.11567471586E-01  0.19397004202E-01  0.22604557639E-01  0.00000000000E+00 0. -1.
     999901    1    3    3    0    0 -0.22438749021E-02 -0.45660294489E-01 -0.13436975601E+00  0.89137260941E+00  0.88000000000E+00 0. -1.
        -11    1    4    4    0    0  0.10193298190E-01  0.33767006674E-01  0.72273726413E-01  0.80423048427E-01  0.51100000000E-03 0.  1.
         11    1    4    4    0    0 -0.89064264886E-02  0.23460759402E-01  0.42699025398E-01  0.49529784529E-01  0.51100000000E-03 0. -1.
</event>
<event>
 8    1  0.1116841E+005  0.1043930E+01  0.7957747E-01            NaN
         13   -1    0    0    0    0  0.00000000000E+00  0.00000000000E+00  0.74505805969E-08  0.10566000000E+00  0.10566000000E+00 0.  1.
     999900   -1    0    0    0    0 -0.00000000000E+00 -0.00000000000E+00 -0.74505805969E-08  0.93827000000E+00  0.93827000000E+00 0. -1.
     999902    2    1    2    0    0  0.10171700363E-01  0.18886722465E-01  0.91504593378E-02  0.10206082788E+01  0.10203417839E+01 0.  0.
     999903    2    3    3    0    0  0.10681427125E-01  0.61710657272E-01  0.11580793833E+00  0.13313435409E+00  0.19773202874E-01 0.  0.
         14    1    1    2    0    0 -0.10171700363E-01 -0.18886722465E-01 -0.91504593378E-02  0.23321721202E-01  0.00000000000E+00 0. -1.
     999901    1    3    3    0    0 -0.50972676167E-03 -0.42823934807E-01 -0.10665747899E+00  0.88747392471E+00  0.88000000000E+00 0. -1.
        -11    1    4    4    0    0  0.63043360871E-02  0.50760127944E-01  0.75983846230E-01  0.91597714225E-01  0.51100000000E-03 0. -1.
         11    1    4    4    0    0  0.43770910380E-02  0.10950529328E-01  0.39824092100E-01  0.41536639863E-01  0.51100000000E-03 0.  1.
</event>
<event>
 8    1  0.1116841E+005  0.1043930E+01  0.7957747E-01            NaN
         13   -1    0    0    0    0  0.00000000000E+00  0.00000000000E+00  0.74505805969E-08  0.10566000000E+00  0.10566000000E+00 0. -1.
     999900   -1    0    0    0    0 -0.00000000000E+00 -0.00000000000E+00 -0.74505805969E-08  0.93827000000E+00  0.93827000000E+00 0. -1.
     999902    2    1    2    0    0  0.18727339348E-01 -0.89134367339E-02 -0.11328103202E-01  0.10202976384E+01  0.10200239126E+01 0.  0.
     999903    2    3    3    0    0  0.45958185816E-01 -0.12273216922E+00 -0.14577211287E-02  0.13249493096E+00  0.19427855655E-01 0.  0.
         14    1    1    2    0    0 -0.18727339348E-01  0.89134367339E-02  0.11328103202E-01  0.23632361618E-01  0.00000000000E+00 0. -1.
     999901    1    3    3    0    0 -0.27230846468E-01  0.11381873248E+00 -0.98703820736E-02  0.88780270742E+00  0.88000000000E+00 0. -1.
        -11    1    4    4    0    0  0.27992128903E-01 -0.86165613148E-01  0.70410169429E-02  0.90873038962E-01  0.51100000000E-03 0. -1.
         11    1    4    4    0    0  0.17966056913E-01 -0.36566556068E-01 -0.84987380716E-02  0.41621891998E-01  0.51100000000E-03 0.  1.
</event>
<event>
 8    1  0.1116841E+005  0.1043930E+01  0.7957747E-01            NaN
         13   -1    0    0    0    0  0.00000000000E+00  0.00000000000E+00  0.74505805969E-08  0.10566000000E+00  0.10566000000E+00 0. -1.
     999900   -1    0    0    0    0 -0.00000000000E+00 -0.00000000000E+00 -0.74505805969E-08  0.93827000000E+00  0.93827000000E+00 0. -1.
     999902    2    1    2    0    0  0.89689484202E-02 -0.20537764996E-01  0.72052704467E-02  0.10203894446E+01  0.10201178662E+01 0.  0.
     999903    2    3    3    0    0  0.22942794981E-01 -0.10564931704E+00  0.75757480013E-01  0.13351930183E+00  0.20001453713E-01 0.  0.
         14    1    1    2    0    0 -0.89689484202E-02  0.20537764996E-01 -0.72052704467E-02  0.23540555410E-01  0.00000000000E+00 0. -1.
     999901    1    3    3    0    0 -0.13973846561E-01  0.85111552047E-01 -0.68552209566E-01  0.88687014276E+00  0.88000000000E+00 0. -1.
        -11    1    4    4    0    0  0.23513872929E-02 -0.56573076438E-01  0.41875020184E-01  0.70425992618E-01  0.51100000000E-03 0. -1.
         11    1    4    4    0    0  0.20591407688E-01 -0.49076240605E-01  0.33882459829E-01  0.63093309214E-01  0.51100000000E-03 0.  1.
</event>
<event>
 8    1  0.1116841E+005  0.1043930E+01  0.7957747E-01            NaN
         13   -1    0    0    0    0  0.00000000000E+00  0.00000000000E+00  0.74505805969E-08  0.10566000000E+00  0.10566000000E+00 0.  1.
     999900   -1    0    0    0    0 -0.00000000000E+00 -0.00000000000E+00 -0.74505805969E-08  0.93827000000E+00  0.93827000000E+00 0. -1.
     999902    2    1    2    0    0  0.20590614982E-01  0.30745959194E-02 -0.10935416334E-01  0.10204138376E+01  0.10201428282E+01 0.  0.
     999903    2    3    3    0    0 -0.11766084915E+00  0.47107394937E-01 -0.10892267124E-01  0.12853247965E+00  0.18405835000E-01 0.  0.
         14    1    1    2    0    0 -0.20590614982E-01 -0.30745959194E-02  0.10935416334E-01  0.23516162438E-01  0.00000000000E+00 0.  1.
     999901    1    3    3    0    0  0.13825146413E+00 -0.44032799018E-01 -0.43149209712E-04  0.89188135791E+00  0.88000000000E+00 0.  1.
        -11    1    4    4    0    0 -0.40134883420E-01  0.13076674875E-01  0.45812244437E-02  0.42462419047E-01  0.51100000000E-03 0. -1.
         11    1    4    4    0    0 -0.77525965730E-01  0.34030720062E-01 -0.15473491568E-01  0.86070060606E-01  0.51100000000E-03 0.  1.
</event>
<event>
 8    1  0.1116841E+005  0.1043930E+01  0.7957747E-01            NaN
         13   -1    0    0    0    0  0.00000000000E+00  0.00000000000E+00  0.74505805969E-08  0.10566000000E+00  0.10566000000E+00 0. -1.
     999900   -1    0    0    0    0 -0.00000000000E+00 -0.00000000000E+00 -0.74505805969E-08  0.93827000000E+00  0.93827000000E+00 0.  1.
     999902    2    1    2    0    0  0.19229669213E-01 -0.13047635812E-01  0.49550450110E-02  0.10201692456E+01  0.10198925023E+01 0.  0.
     999903    2    3    3    0    0  0.84057992718E-01  0.75277426291E-01 -0.63101379062E-01  0.13076736514E+00  0.19643897185E-01 0.  0.
         14    1    1    2    0    0 -0.19229669213E-01  0.13047635812E-01 -0.49550450110E-02  0.23760754394E-01  0.00000000000E+00 0.  1.
     999901    1    3    3    0    0 -0.64828323505E-01 -0.88325062102E-01  0.68056424073E-01  0.88940188047E+00  0.88000000000E+00 0. -1.
        -11    1    4    4    0    0  0.52049315506E-01  0.41167567445E-01 -0.26866522124E-01  0.71595886656E-01  0.51100000000E-03 0.  1.
         11    1    4    4    0    0  0.32008677212E-01  0.34109858846E-01 -0.36234856938E-01  0.59171478481E-01  0.51100000000E-03 0. -1.
</event>
<event>
 8    1  0.1116841E+005  0.1043930E+01  0.7957747E-01            NaN
         13   -1    0    0    0    0  0.00000000000E+00  0.00000000000E+00  0.74505805969E-08  0.10566000000E+00  0.10566000000E+00 0. -1.
     999900   -1    0    0    0    0 -0.00000000000E+00 -0.00000000000E+00 -0.74505805969E-08  0.93827000000E+00  0.93827000000E+00 0.  1.
     999902    2    1    2    0    0 -0.19702143247E-01  0.11665968600E-01  0.51045531915E-02  0.10204709775E+01  0.10202012989E+01 0.  0.
     999903    2    3    3    0    0  0.11180752637E+00  0.47344793721E-01  0.39745182482E-01  0.12931008018E+00  0.19974104786E-01 0.  0.
         14    1    1    2    0    0  0.19702143247E-01 -0.11665968600E-01 -0.51045531915E-02  0.23459022469E-01  0.00000000000E+00 0.  1.
     999901    1    3    3    0    0 -0.13150966961E+00 -0.35678825121E-01 -0.34640629290E-01  0.89116089735E+00  0.88000000000E+00 0.  1.
        -11    1    4    4    0    0  0.71085052479E-01  0.26437045441E-01  0.34194860126E-01  0.83195863104E-01  0.51100000000E-03 0.  1.
         11    1    4    4    0    0  0.40722473887E-01  0.20907748280E-01  0.55503223564E-02  0.46114217080E-01  0.51100000000E-03 0. -1.
</event>
<event>
 8    1  0.1116841E+005  0.1043930E+01  0.7957747E-01            NaN
         13   -1    0    0    0    0  0.00000000000E+00  0.00000000000E+00  0.74505805969E-08  0.10566000000E+00  0.10566000000E+00 0. -1.
     999900   -1    0    0    0    0 -0.00000000000E+00 -0.00000000000E+00 -0.74505805969E-08  0.93827000000E+00  0.93827000000E+00 0.  1.
     999902    2    1    2    0    0  0.19594512735E-01 -0.72162202442E-02  0.14588109163E-01  0.10184578251E+01  0.10181392389E+01 0.  0.
     999903    2    3    3    0    0  0.76897546202E-01 -0.89254415252E-01  0.55645782407E-01  0.13183522468E+00  0.20111939570E-01 0.  0.
         14    1    1    2    0    0 -0.19594512735E-01  0.72162202442E-02 -0.14588109163E-01  0.25472174875E-01  0.00000000000E+00 0.  1.
     999901    1    3    3    0    0 -0.57303033466E-01  0.82038195008E-01 -0.41057673245E-01  0.88662260044E+00  0.88000000000E+00 0.  1.
        -11    1    4    4    0    0  0.69588134960E-01 -0.84772563007E-01  0.46038817278E-01  0.11894843329E+00  0.51100000000E-03 0. -1.
         11    1    4    4    0    0  0.73094112419E-02 -0.44818522452E-02  0.96069651288E-02  0.12886791386E-01  0.51100000000E-03 0.  1.
</event>
<event>
 8    1  0.1116841E+005  0.1043930E+01  0.7957747E-01            NaN
         13   -1    0    0    0    0  0.00000000000E+00  0.00000000000E+00  0.74505805969E-08  0.10566000000E+00  0.10566000000E+00 0.  1.
     999900   -1    0    0    0    0 -0.00000000000E+00 -0.00000000000E+00 -0.74505805969E-08  0.93827000000E+00  0.93827000000E+00 0.  1.
     999902    2    1    2    0    0 -0.59960802271E-02 -0.32613626508E-01  0.93524657144E-02  0.10094761145E+01  0.10088879797E+01 0.  0.
     999903    2    3    3    0    0  0.66948820624E-01  0.64969357139E-01  0.70287391351E-01  0.11899508582E+00  0.22723360570E-01 0.  0.
         14    1    1    2    0    0  0.59960802271E-02  0.32613626508E-01 -0.93524657144E-02  0.34453885514E-01  0.00000000000E+00 0. -1.
     999901    1    3    3    0    0 -0.72944900851E-01 -0.97582983647E-01 -0.60934925637E-01  0.89048102867E+00  0.88000000000E+00 0.  1.
        -11    1    4    4    0    0  0.27837156170E-01  0.23177047846E-01  0.14364138711E-01  0.38970147708E-01  0.51100000000E-03 0. -1.
         11    1    4    4    0    0  0.39111664454E-01  0.41792309293E-01  0.55923252640E-01  0.80024938109E-01  0.51100000000E-03 0.  1.
</event>
<event>
 8    1  0.1116841E+005  0.1043930E+01  0.7957747E-01            NaN
         13   -1    0    0    0    0  0.00000000000E+00  0.00000000000E+00  0.74505805969E-08  0.10566000000E+00  0.10566000000E+00 0.  1.
     999900   -1    0    0    0    0 -0.00000000000E+00 -0.00000000000E+00 -0.74505805969E-08  0.93827000000E+00  0.93827000000E+00 0.  1.
     999902    2    1    2    0    0  0.11587368965E-01  0.11846264170E-01  0.17239888828E-01  0.10200173494E+01  0.10197370142E+01 0.  0.
     999903    2    3    3    0    0 -0.25073466205E-02 -0.93475431754E-01  0.90368685041E-01  0.13061353697E+00  0.12225124757E-01 0.  0.
         14    1    1    2    0    0 -0.11587368965E-01 -0.11846264170E-01 -0.17239888828E-01  0.23912650650E-01  0.00000000000E+00 0. -1.
     999901    1    3    3    0    0  0.14094715585E-01  0.10532169592E+00 -0.73128796213E-01  0.88940381238E+00  0.88000000000E+00 0.  1.
        -11    1    4    4    0    0 -0.65657444340E-02 -0.32766029180E-01  0.30311388951E-01  0.45119431395E-01  0.51100000000E-03 0.  1.
         11    1    4    4    0    0  0.40583978135E-02 -0.60709402574E-01  0.60057296090E-01  0.85494105576E-01  0.51100000000E-03 0. -1.
</event>
<event>
 7    1  0.1116841E+005  0.1043930E+01  0.7957747E-01            NaN
         13   -1    0    0    0    0  0.00000000000E+00  0.00000000000E+00  0.74505805969E-08  0.10566000000E+00  0.10566000000E+00 0.  1.
     999900   -1    0    0    0    0 -0.00000000000E+00 -0.00000000000E+00 -0.74505805969E-08  0.93827000000E+00  0.93827000000E+00 0.  1.
     999902    2    1    2    0    0  0.10062893428E-01 -0.19753298805E-01 -0.48318931348E-02  0.10212407552E+01  0.10209886769E+01 0.  0.
         14    1    1    2    0    0 -0.10062893428E-01  0.19753298805E-01  0.48318931348E-02  0.22689244788E-01  0.00000000000E+00 0. -1.
     999901    1    3    3    0    0  0.10095402314E+00 -0.26951401674E-01  0.80500477290E-01  0.88983055673E+00  0.88000000000E+00 0.  1.
        -11    1    3    3    0    0 -0.75568353290E-01 -0.94544884161E-02 -0.56897548189E-01  0.95066058512E-01  0.51100000000E-03 0.  1.
         11    1    3    3    0    0 -0.15322776422E-01  0.16652591285E-01 -0.28434822235E-01  0.36344139973E-01  0.51100000000E-03 0. -1.
</event>
<event>
 8    1  0.1116841E+005  0.1043930E+01  0.7957747E-01            NaN
         13   -1    0    0    0    0  0.00000000000E+00  0.00000000000E+00  0.74505805969E-08  0.10566000000E+00  0.10566000000E+00 0. -1.
     999900   -1    0    0    0    0 -0.00000000000E+00 -0.00000000000E+00 -0.74505805969E-08  0.93827000000E+00  0.93827000000E+00 0.  1.
     999902    2    1    2    0    0 -0.20656064552E-01  0.18496225310E-02  0.38673797977E-02  0.10228337744E+01  0.10226161936E+01 0.  0.
     999903    2    3    3    0    0  0.11542780097E+00 -0.37676520683E-01 -0.42189859638E-01  0.13030791837E+00  0.21379239639E-01 0.  0.
         14    1    1    2    0    0  0.20656064552E-01 -0.18496225310E-02 -0.38673797977E-02  0.21096225558E-01  0.00000000000E+00 0.  1.
     999901    1    3    3    0    0 -0.13608386552E+00  0.39526143214E-01  0.46057239435E-01  0.89252585607E+00  0.88000000000E+00 0. -1.
        -11    1    4    4    0    0  0.72009263741E-01 -0.33492558227E-01 -0.31156032015E-01  0.85311458627E-01  0.51100000000E-03 0.  1.
         11    1    4    4    0    0  0.43418537224E-01 -0.41839624560E-02 -0.11033827623E-01  0.44996459745E-01  0.51100000000E-03 0. -1.
</event>
<event>
 8    1  0.1116841E+005  0.1043930E+01  0.7957747E-01            NaN
         13   -1    0    0    0    0  0.00000000000E+00  0.00000000000E+00  0.74505805969E-08  0.10566000000E+00  0.10566000000E+00 0. -1.
     999900   -1    0    0    0    0 -0.00000000000E+00 -0.00000000000E+00 -0.74505805969E-08  0.93827000000E+00  0.93827000000E+00 0. -1.
     999902    2    1    2    0    0 -0.25321487535E-02  0.88257612668E-02 -0.22065883315E-01  0.10200300200E+01  0.10197499853E+01 0.  0.
     999903    2    3    3    0    0 -0.31951321920E-01  0.10747144901E+00  0.62665484909E-01  0.12998740064E+00  0.19969026018E-01 0.  0.
         14    1    1    2    0    0  0.25321487535E-02 -0.88257612668E-02  0.22065883315E-01  0.23899980036E-01  0.00000000000E+00 0. -1.
     999901    1    3    3    0    0  0.29419173166E-01 -0.98645687744E-01 -0.84731368224E-01  0.89004261933E+00  0.88000000000E+00 0. -1.
        -11    1    4    4    0    0 -0.20021302313E-01  0.76723648620E-01  0.33959862890E-01  0.86260675933E-01  0.51100000000E-03 0.  1.
         11    1    4    4    0    0 -0.11930019607E-01  0.30747800390E-01  0.28705622019E-01  0.43726724702E-01  0.51100000000E-03 0. -1.
</event>
<event>
 8    1  0.1116841E+005  0.1043930E+01  0.7957747E-01            NaN
         13   -1    0    0    0    0  0.00000000000E+00  0.00000000000E+00  0.74505805969E-08  0.10566000000E+00  0.10566000000E+00 0. -1.
     999900   -1    0    0    0    0 -0.00000000000E+00 -0.00000000000E+00 -0.74505805969E-08  0.93827000000E+00  0.93827000000E+00 0.  1.
     999902    2    1    2    0    0 -0.64626131761E-02  0.21925778071E-01 -0.54457881765E-02  0.10204318783E+01  0.10201612895E+01 0.  0.
     999903    2    3    3    0    0 -0.22233889431E-02 -0.35904266723E-01  0.12250995948E+00  0.12928937656E+00  0.20322226547E-01 0.  0.
         14    1    1    2    0    0  0.64626131761E-02 -0.21925778071E-01  0.54457881765E-02  0.23498121669E-01  0.00000000000E+00 0. -1.
     999901    1    3    3    0    0 -0.42392242330E-02  0.57830044794E-01 -0.12795574766E+00  0.89114250177E+00  0.88000000000E+00 0.  1.
        -11    1    4    4    0    0 -0.27504589823E-02 -0.24097893027E-01  0.10736779729E+00  0.11007442250E+00  0.51100000000E-03 0.  1.
         11    1    4    4    0    0  0.52707003921E-03 -0.11806373696E-01  0.15142162192E-01  0.19214954060E-01  0.51100000000E-03 0. -1.
</event>
<event>
 8    1  0.1116841E+005  0.1043930E+01  0.7957747E-01            NaN
         13   -1    0    0    0    0  0.00000000000E+00  0.00000000000E+00  0.74505805969E-08  0.10566000000E+00  0.10566000000E+00 0.  1.
     999900   -1    0    0    0    0 -0.00000000000E+00 -0.00000000000E+00 -0.74505805969E-08  0.93827000000E+00  0.93827000000E+00 0. -1.
     999902    2    1    2    0    0  0.78228521910E-02 -0.30171704923E-02 -0.22125351569E-01  0.10202692410E+01  0.10199948493E+01 0.  0.
     999903    2    3    3    0    0 -0.69702078977E-01  0.64770899810E-01 -0.89137205008E-01  0.13173340834E+00  0.18830833235E-01 0.  0.
         14    1    1    2    0    0 -0.78228521910E-02  0.30171704923E-02  0.22125351569E-01  0.23660758995E-01  0.00000000000E+00 0.  1.
     999901    1    3    3    0    0  0.77524931168E-01 -0.67788070302E-01  0.67011853438E-01  0.88853583266E+00  0.88000000000E+00 0. -1.
        -11    1    4    4    0    0 -0.10323109127E-01  0.17596665161E-01 -0.26002613597E-01  0.33054594865E-01  0.51100000000E-03 0.  1.
         11    1    4    4    0    0 -0.59378969850E-01  0.47174234649E-01 -0.63134591411E-01  0.98678813475E-01  0.51100000000E-03 0. -1.
</event>
<event>
 8    1  0.1116841E+005  0.1043930E+01  0.7957747E-01            NaN
         13   -1    0    0    0    0  0.00000000000E+00  0.00000000000E+00  0.74505805969E-08  0.10566000000E+00  0.10566000000E+00 0. -1.
     999900   -1    0    0    0    0 -0.00000000000E+00 -0.00000000000E+00 -0.74505805969E-08  0.93827000000E+00  0.93827000000E+00 0. -1.
     999902    2    1    2    0    0 -0.20159185356E-01  0.11348920645E-01  0.51355942208E-02  0.10202326355E+01  0.10199573842E+01 0.  0.
     999903    2    3    3    0    0  0.38940624650E-01 -0.99954011854E-01 -0.67576265954E-01  0.12828636758E+00  0.19587334008E-01 0.  0.
         14    1    1    2    0    0  0.20159185356E-01 -0.11348920645E-01 -0.51355942208E-02  0.23697364453E-01  0.00000000000E+00 0.  1.
     999901    1    3    3    0    0 -0.59099810006E-01  0.11130293250E+00  0.72711860174E-01  0.89194626796E+00  0.88000000000E+00 0.  1.
        -11    1    4    4    0    0  0.14908950202E-01 -0.59558248675E-01 -0.45103460554E-01  0.76184283526E-01  0.51100000000E-03 0. -1.
         11    1    4    4    0    0  0.24031674448E-01 -0.40395763178E-01 -0.22472805400E-01  0.52102084057E-01  0.51100000000E-03 0.  1.
</event>
<event>
 8    1  0.1116841E+005  0.1043930E+01  0.7957747E-01            NaN
         13   -1    0    0    0    0  0.00000000000E+00  0.00000000000E+00  0.74505805969E-08  0.10566000000E+00  0.10566000000E+00 0.  1.
     999900   -1    0    0    0    0 -0.00000000000E+00 -0.00000000000E+00 -0.74505805969E-08  0.93827000000E+00  0.93827000000E+00 0. -1.
     999902    2    1    2    0    0 -0.22277859221E-01 -0.11500077351E-02 -0.62201840126E-02  0.10207714979E+01  0.10205087627E+01 0.  0.
     999903    2    3    3    0    0 -0.11356293862E+00  0.41984345085E-01  0.51197524997E-01  0.13313963086E+00  0.21112756337E-01 0.  0.
         14    1    1    2    0    0  0.22277859221E-01  0.11500077351E-02  0.62201840126E-02  0.23158502076E-01  0.00000000000E+00 0.  1.
     999901    1    3    3    0    0  0.91285079400E-01 -0.43134352820E-01 -0.57417709010E-01  0.88763186706E+00  0.88000000000E+00 0. -1.
        -11    1    4    4    0    0 -0.33123413862E-01  0.19062265108E-01  0.81927528852E-02  0.39088525398E-01  0.51100000000E-03 0. -1.
         11    1    4    4    0    0 -0.80439524758E-01  0.22922079977E-01  0.43004772112E-01  0.94051105465E-01  0.51100000000E-03 0.  1.
</event>
<event>
 8    1  0.1116841E+005  0.1043930E+01  0.7957747E-01            NaN
         13   -1    0    0    0    0  0.00000000000E+00  0.00000000000E+00  0.74505805969E-08  0.10566000000E+00  0.10566000000E+00 0. -1.
     999900   -1    0    0    0    0 -0.00000000000E+00 -0.00000000000E+00 -0.74505805969E-08  0.93827000000E+00  0.93827000000E+00 0.  1.
     999902    2    1    2    0    0  0.16186403339E-01  0.15190792988E-01 -0.60155455646E-02  0.10209311602E+01  0.10206720762E+01 0.  0.
     999903    2    3    3    0    0  0.10004458949E-01  0.11750735345E+00 -0.59064674003E-01  0.13339462290E+00  0.19935455611E-01 0.  0.
         14    1    1    2    0    0 -0.16186403339E-01 -0.15190792988E-01  0.60155455646E-02  0.22998839821E-01  0.00000000000E+00 0. -1.
     999901    1    3    3    0    0  0.61819443894E-02 -0.10231656046E+00  0.53049128438E-01  0.88753653728E+00  0.88000000000E+00 0. -1.
        -11    1    4    4    0    0 -0.30450563303E-02  0.75964775296E-01 -0.36086166546E-01  0.84156948559E-01  0.51100000000E-03 0.  1.
         11    1    4    4    0    0  0.13049515280E-01  0.41542578150E-01 -0.22978507457E-01  0.49237674339E-01  0.51100000000E-03 0. -1.
</event>
<event>
 8    1  0.1116841E+005  0.1043930E+01  0.7957747E-01            NaN
         13   -1    0    0    0    0  0.00000000000E+00  0.00000000000E+00  0.74505805969E-08  0.10566000000E+00  0.10566000000E+00 0.  1.
     999900   -1    0    0    0    0 -0.00000000000E+00 -0.00000000000E+00 -0.74505805969E-08  0.93827000000E+00  0.93827000000E+00 0.  1.
     999902    2    1    2    0    0  0.11736497612E-02 -0.32043880672E-02  0.23609956433E-01  0.10200746945E+01  0.10197957182E+01 0.  0.
     999903    2    3    3    0    0  0.11186126308E+00  0.40625557057E-01  0.52667281729E-01  0.13158319767E+00  0.19414357581E-01 0.  0.
         14    1    1    2    0    0 -0.11736497612E-02  0.32043880672E-02 -0.23609956433E-01  0.23855305477E-01  0.00000000000E+00 0. -1.
     999901    1    3    3    0    0 -0.11068761332E+00 -0.43829945124E-01 -0.29057325296E-01  0.88849149686E+00  0.88000000000E+00 0. -1.
        -11    1    4    4    0    0  0.40802549830E-01  0.14273258502E-01  0.91467693077E-02  0.44187085111E-01  0.51100000000E-03 0.  1.
         11    1    4    4    0    0  0.71058713247E-01  0.26352298556E-01  0.43520512421E-01  0.87396112556E-01  0.51100000000E-03 0. -1.
</event>
<event>
 7    1  0.1116841E+005  0.1043930E+01  0.7957747E-01            NaN
         13   -1    0    0    0    0  0.00000000000E+00  0.00000000000E+00  0.74505805969E-08  0.10566000000E+00  0.10566000000E+00 0. -1.
     999900   -1    0    0    0    0 -0.00000000000E+00 -0.00000000000E+00 -0.74505805969E-08  0.93827000000E+00  0.93827000000E+00 0.  1.
     999903    2    1    2    0    0 -0.20239140606E-01  0.64547723092E-01  0.78933530483E-02  0.70409053395E-01  0.17863325803E-01 0.  0.
         14    1    1    2    0    0 -0.69549316476E-01  0.56597730649E-02 -0.48925265090E-01  0.85222192048E-01  0.00000000000E+00 0.  1.
     999901    1    1    2    0    0  0.89788457082E-01 -0.70207496157E-01  0.41031912042E-01  0.88829875456E+00  0.88000000000E+00 0. -1.
        -11    1    3    3    0    0  0.49663530377E-03  0.16589970040E-01 -0.34039732203E-02  0.16950572476E-01  0.51100000000E-03 0. -1.
         11    1    3    3    0    0 -0.20735775909E-01  0.47957753052E-01  0.11297326269E-01  0.53458480919E-01  0.51100000000E-03 0.  1.
</event>
<event>
 8    1  0.1116841E+005  0.1043930E+01  0.7957747E-01            NaN
         13   -1    0    0    0    0  0.00000000000E+00  0.00000000000E+00  0.74505805969E-08  0.10566000000E+00  0.10566000000E+00 0. -1.
     999900   -1    0    0    0    0 -0.00000000000E+00 -0.00000000000E+00 -0.74505805969E-08  0.93827000000E+00  0.93827000000E+00 0. -1.
     999902    2    1    2    0    0 -0.13176353680E-01  0.15916841283E-01 -0.10922289657E-01  0.10205578254E+01  0.10202901629E+01 0.  0.
     999903    2    3    3    0    0  0.34625153069E-01 -0.34560075035E-01  0.11720299836E+00  0.12856623771E+00  0.19985861084E-01 0.  0.
         14    1    1    2    0    0  0.13176353680E-01 -0.15916841283E-01  0.10922289657E-01  0.23372174569E-01  0.00000000000E+00 0. -1.
     999901    1    3    3    0    0 -0.47801506749E-01  0.50476916318E-01 -0.12812528802E+00  0.89199158772E+00  0.88000000000E+00 0. -1.
        -11    1    4    4    0    0  0.13128800794E-02  0.37907407853E-03  0.19816524829E-01  0.19870156732E-01  0.51100000000E-03 0.  1.
         11    1    4    4    0    0  0.33312272989E-01 -0.34939149113E-01  0.97386473533E-01  0.10869608098E+00  0.51100000000E-03 0. -1.
</event>
<event>
 8    1  0.1116841E+005  0.1043930E+01  0.7957747E-01            NaN
         13   -1    0    0    0    0  0.00000000000E+00  0.00000000000E+00  0.74505805969E-08  0.10566000000E+00  0.10566000000E+00 0.  1.
     999900   -1    0    0    0    0 -0.00000000000E+00 -0.00000000000E+00 -0.74505805969E-08  0.93827000000E+00  0.93827000000E+00 0. -1.
     999902    2    1    2    0    0  0.62534616096E-02 -0.10845223745E-01 -0.18892445626E-01  0.10212661706E+01  0.10210146630E+01 0.  0.
     999903    2    3    3    0    0  0.20447354888E-01 -0.10841655574E+00  0.68461754256E-01  0.13146147988E+00  0.20563681993E-01 0.  0.
         14    1    1    2    0    0 -0.62534616096E-02  0.10845223745E-01  0.18892445626E-01  0.22663829374E-01  0.00000000000E+00 0.  1.
     999901    1    3    3    0    0 -0.14193893278E-01  0.97571331992E-01 -0.87354199882E-01  0.88980469074E+00  0.88000000000E+00 0. -1.
        -11    1    4    4    0    0  0.39549968371E-02 -0.72422259253E-01  0.41617114080E-01  0.83623387522E-01  0.51100000000E-03 0. -1.
         11    1    4    4    0    0  0.16492358051E-01 -0.35994296484E-01  0.26844640176E-01  0.47838092360E-01  0.51100000000E-03 0.  1.
</event>
<event>
 8    1  0.1116841E+005  0.1043930E+01  0.7957747E-01            NaN
         13   -1    0    0    0    0  0.00000000000E+00  0.00000000000E+00  0.74505805969E-08  0.10566000000E+00  0.10566000000E+00 0.  1.
     999900   -1    0    0    0    0 -0.00000000000E+00 -0.00000000000E+00 -0.74505805969E-08  0.93827000000E+00  0.93827000000E+00 0.  1.
     999902    2    1    2    0    0  0.17229519483E-01  0.94313183283E-02  0.14458319372E-01  0.10195404714E+01  0.10192487055E+01 0.  0.
     999903    2    3    3    0    0 -0.85230340547E-01 -0.90048890814E-01  0.24926586013E-01  0.12796662726E+00  0.19522021268E-01 0.  0.
         14    1    1    2    0    0 -0.17229519483E-01 -0.94313183283E-02 -0.14458319372E-01  0.24389528616E-01  0.00000000000E+00 0. -1.
     999901    1    3    3    0    0  0.10245986003E+00  0.99480209142E-01 -0.10468266641E-01  0.89157384413E+00  0.88000000000E+00 0.  1.
        -11    1    4    4    0    0 -0.75474096480E-01 -0.68910616871E-01  0.19273918782E-01  0.10400364139E+00  0.51100000000E-03 0.  1.
         11    1    4    4    0    0 -0.97562440667E-02 -0.21138273943E-01  0.56526672315E-02  0.23962985861E-01  0.51100000000E-03 0. -1.
</event>
<event>
 8    1  0.1116841E+005  0.1043930E+01  0.7957747E-01            NaN
         13   -1    0    0    0    0  0.00000000000E+00  0.00000000000E+00  0.74505805969E-08  0.10566000000E+00  0.10566000000E+00 0. -1.
     999900   -1    0    0    0    0 -0.00000000000E+00 -0.00000000000E+00 -0.74505805969E-08  0.93827000000E+00  0.93827000000E+00 0. -1.
     999902    2    1    2    0    0  0.14138588939E-01 -0.22539513731E-02  0.18636087309E-01  0.10204292820E+01  0.10201586327E+01 0.  0.
     999903    2    3    3    0    0  0.87565416824E-01 -0.14789096413E-01  0.97177914486E-01  0.13379663685E+00  0.23907600732E-01 0.  0.
         14    1    1    2    0    0 -0.14138588939E-01  0.22539513731E-02 -0.18636087309E-01  0.23500717950E-01  0.00000000000E+00 0.  1.
     999901    1    3    3    0    0 -0.73426827884E-01  0.12535145040E-01 -0.78541827177E-01  0.88663264520E+00  0.88000000000E+00 0.  1.
        -11    1    4    4    0    0  0.23372712868E-01 -0.14977196156E-01  0.28535837894E-01  0.39814008550E-01  0.51100000000E-03 0.  1.
         11    1    4    4    0    0  0.64192703956E-01  0.18809974290E-03  0.68642076592E-01  0.93982628302E-01  0.51100000000E-03 0. -1.
</event>
<event>
 8    1  0.1116841E+005  0.1043930E+01  0.7957747E-01            NaN
         13   -1    0    0    0    0  0.00000000000E+00  0.00000000000E+00  0.74505805969E-08  0.10566000000E+00  0.10566000000E+00 0. -1.
     999900   -1    0    0    0    0 -0.00000000000E+00 -0.00000000000E+00 -0.74505805969E-08  0.93827000000E+00  0.93827000000E+00 0.  1.
     999902    2    1    2    0    0  0.11427980452E-01  0.11903583386E-01 -0.17145360441E-01  0.10201338360E+01  0.10198562575E+01 0.  0.
     999903    2    3    3    0    0 -0.55982723980E-01 -0.29539659540E-02  0.11319314477E+00  0.12785973253E+00  0.19814940844E-01 0.  0.
         14    1    1    2    0    0 -0.11427980452E-01 -0.11903583386E-01  0.17145360441E-01  0.23796163962E-01  0.00000000000E+00 0. -1.
     999901    1    3    3    0    0  0.67410704433E-01  0.14857549340E-01 -0.13033850521E+00  0.89227410351E+00  0.88000000000E+00 0.  1.
        -11    1    4    4    0    0 -0.32375898232E-01  0.44319753598E-03  0.43732527752E-01  0.54416820148E-01  0.51100000000E-03 0. -1.
         11    1    4    4    0    0 -0.23606825748E-01 -0.33971634899E-02  0.69460617021E-01  0.73442912385E-01  0.51100000000E-03 0.  1.
</event>
<event>
 8    1  0.1116841E+005  0.1043930E+01  0.7957747E-01            NaN
         13   -1    0    0    0    0  0.00000000000E+00  0.00000000000E+00  0.74505805969E-08  0.10566000000E+00  0.10566000000E+00 0.  1.
     999900   -1    0    0    0    0 -0.00000000000E+00 -0.00000000000E+00 -0.74505805969E-08  0.93827000000E+00  0.93827000000E+00 0.  1.
     999902    2    1    2    0    0  0.13724066749E-01  0.13149162773E-01  0.97035663993E-02  0.10225896699E+01  0.10223669709E+01 0.  0.
     999903    2    3    3    0    0 -0.60092855169E-02 -0.34766251190E-01  0.12702472869E+00  0.13329244890E+00  0.19667015530E-01 0.  0.
         14    1    1    2    0    0 -0.13724066749E-01 -0.13149162773E-01 -0.97035663993E-02  0.21340330143E-01  0.00000000000E+00 0. -1.
     999901    1    3    3    0    0  0.19733352266E-01  0.47915413963E-01 -0.11732116229E+00  0.88929722096E+00  0.88000000000E+00 0.  1.
        -11    1    4    4    0    0 -0.60850018708E-02 -0.30693571422E-01  0.77244753309E-01  0.83343479704E-01  0.51100000000E-03 0. -1.
         11    1    4    4    0    0  0.75716353872E-04 -0.40726797677E-02  0.49779975381E-01  0.49948969192E-01  0.51100000000E-03 0.  1.
</event>
<event>
 8    1  0.1116841E+005  0.1043930E+01  0.7957747E-01            NaN
         13   -1    0    0    0    0  0.00000000000E+00  0.00000000000E+00  0.74505805969E-08  0.10566000000E+00  0.10566000000E+00 0. -1.
     999900   -1    0    0    0    0 -0.00000000000E+00 -0.00000000000E+00 -0.74505805969E-08  0.93827000000E+00  0.93827000000E+00 0.  1.
     999902    2    1    2    0    0 -0.40381929726E-02 -0.85269471894E-02  0.20932878949E-01  0.10209691365E+01  0.10207109172E+01 0.  0.
     999903    2    3    3    0    0 -0.68239296219E-02 -0.13072056860E+00  0.25758233520E-02  0.13233196481E+00  0.19253076988E-01 0.  0.
         14    1    1    2    0    0  0.40381929726E-02  0.85269471894E-02 -0.20932878949E-01  0.22960863484E-01  0.00000000000E+00 0.  1.
     999901    1    3    3    0    0  0.27857366494E-02  0.12219362141E+00  0.18357055597E-01  0.88863717170E+00  0.88000000000E+00 0.  1.
        -11    1    4    4    0    0 -0.45826573389E-02 -0.79319416592E-01 -0.78283839044E-02  0.79838056792E-01  0.51100000000E-03 0. -1.
         11    1    4    4    0    0 -0.22412722830E-02 -0.51401152012E-01  0.10404207256E-01  0.52493908020E-01  0.51100000000E-03 0.  1.
</event>
<event>
 8    1  0.1116841E+005  0.1043930E+01  0.7957747E-01            NaN
         13   -1    0    0    0    0  0.00000000000E+00  0.00000000000E+00  0.74505805969E-08  0.10566000000E+00  0.10566000000E+00 0. -1.
     999900   -1    0    0    0    0 -0.00000000000E+00 -0.00000000000E+00 -0.74505805969E-08  0.93827000000E+00  0.93827000000E+00 0.  1.
     999902    2    1    2    0    0  0.13118437455E-01 -0.13754820772E-01  0.13707537950E-01  0.10204953015E+01  0.10202261883E+01 0.  0.
     999903    2    3    3    0    0 -0.94905001838E-01 -0.83901244641E-01 -0.24387821998E-01  0.13030383860E+00  0.18383314903E-01 0.  0.
         14    1    1    2    0    0 -0.13118437455E-01  0.13754820772E-01 -0.13707537950E-01  0.23434698470E-01  0.00000000000E+00 0.  1.
     999901    1    3    3    0    0  0.10802343929E+00  0.70146423869E-01  0.38095359948E-01  0.89019146293E+00  0.88000000000E+00 0. -1.
        -11    1    4    4    0    0 -0.65114947472E-01 -0.68276001982E-01 -0.18644645110E-01  0.96174075213E-01  0.51100000000E-03 0.  1.
         11    1    4    4    0    0 -0.29790054366E-01 -0.15625242659E-01 -0.57431768878E-02  0.34129763390E-01  0.51100000000E-03 0. -1.
</event>
<event>
 8    1  0.1116841E+005  0.1043930E+01  0.7957747E-01            NaN
         13   -1    0    0    0    0  0.00000000000E+00  0.00000000000E+00  0.74505805969E-08  0.10566000000E+00  0.10566000000E+00 0.  1.
     999900   -1    0    0    0    0 -0.00000000000E+00 -0.00000000000E+00 -0.74505805969E-08  0.93827000000E+00  0.93827000000E+00 0.  1.
     999902    2    1    2    0    0 -0.88488343021E-02 -0.18204351473E-01  0.13329299453E-01  0.10196942721E+01  0.10194062184E+01 0.  0.
     999903    2    3    3    0    0 -0.49674956108E-01 -0.10539171927E-01 -0.11696739996E+00  0.12913110365E+00  0.20366488814E-01 0.  0.
         14    1    1    2    0    0  0.88488343021E-02  0.18204351473E-01 -0.13329299453E-01  0.24235727861E-01  0.00000000000E+00 0. -1.
     999901    1    3    3    0    0  0.40826121806E-01 -0.76651795464E-02  0.13029669941E+00  0.89056316849E+00  0.88000000000E+00 0. -1.
        -11    1    4    4    0    0 -0.39475668092E-01 -0.14512023812E-01 -0.10381493008E+00  0.11201217807E+00  0.51100000000E-03 0. -1.
         11    1    4    4    0    0 -0.10199288016E-01  0.39728518849E-02 -0.13152469877E-01  0.17118925580E-01  0.51100000000E-03 0.  1.
</event>
<event>
 8    1  0.1116841E+005  0.1043930E+01  0.7957747E-01            NaN
         13   -1    0    0    0    0  0.00000000000E+00  0.00000000000E+00  0.74505805969E-08  0.10566000000E+00  0.10566000000E+00 0.  1.
     999900   -1    0    0    0    0 -0.00000000000E+00 -0.00000000000E+00 -0.74505805969E-08  0.93827000000E+00  0.93827000000E+00 0.  1.
     999902    2    1    2    0    0 -0.11888860798E-01  0.14634302650E-01  0.13481641951E-01  0.10207510765E+01  0.10204878724E+01 0.  0.
     999903    2    3    3    0    0 -0.11923009679E+00  0.21860988043E-01  0.51916094997E-01  0.13336639491E+00  0.19939799224E-01 0.  0.
         14    1    1    2    0    0  0.11888860798E-01 -0.14634302650E-01 -0.13481641951E-01  0.23178923505E-01  0.00000000000E+00 0. -1.
     999901    1    3    3    0    0  0.10734123599E+00 -0.72266853925E-02 -0.38434453046E-01  0.88738468158E+00  0.88000000000E+00 0.  1.
        -11    1    4    4    0    0 -0.20101198441E-01  0.58134572519E-02  0.14588681912E-02  0.20981989453E-01  0.51100000000E-03 0.  1.
         11    1    4    4    0    0 -0.99128898350E-01  0.16047530791E-01  0.50457226806E-01  0.11238440546E+00  0.51100000000E-03 0. -1.
</event>
<event>
 8    1  0.1116841E+005  0.1043930E+01  0.7957747E-01            NaN
         13   -1    0    0    0    0  0.00000000000E+00  0.00000000000E+00  0.74505805969E-08  0.10566000000E+00  0.10566000000E+00 0.  1.
     999900   -1    0    0    0    0 -0.00000000000E+00 -0.00000000000E+00 -0.74505805969E-08  0.93827000000E+00  0.93827000000E+00 0. -1.
     999902    2    1    2    0    0 -0.28953963609E-01 -0.56448742140E-02 -0.97957351458E-02  0.10128469976E+01  0.10123699361E+01 0.  0.
     999903    2    3    3    0    0 -0.33949202729E-01  0.10085820354E+00  0.59847731873E-01  0.12367993200E+00  0.19749657743E-01 0.  0.
         14    1    1    2    0    0  0.28953963609E-01  0.56448742140E-02  0.97957351458E-02  0.31083002439E-01  0.00000000000E+00 0.  1.
     999901    1    3    3    0    0  0.49952391199E-02 -0.10650307776E+00 -0.69643467018E-01  0.88916706556E+00  0.88000000000E+00 0. -1.
        -11    1    4    4    0    0 -0.20842235164E-01  0.46233552753E-01  0.18739486947E-01  0.54068194521E-01  0.51100000000E-03 0.  1.
         11    1    4    4    0    0 -0.13106967565E-01  0.54624650789E-01  0.41108244925E-01  0.69611737476E-01  0.51100000000E-03 0. -1.
</event>
<event>
 8    1  0.1116841E+005  0.1043930E+01  0.7957747E-01            NaN
         13   -1    0    0    0    0  0.00000000000E+00  0.00000000000E+00  0.74505805969E-08  0.10566000000E+00  0.10566000000E+00 0.  1.
     999900   -1    0    0    0    0 -0.00000000000E+00 -0.00000000000E+00 -0.74505805969E-08  0.93827000000E+00  0.93827000000E+00 0.  1.
     999902    2    1    2    0    0 -0.20721153495E-01  0.98371290566E-02 -0.58810472021E-02  0.10202504302E+01  0.10199755969E+01 0.  0.
     999903    2    3    3    0    0 -0.16086592275E-01 -0.11133604203E+00 -0.62246168312E-01  0.13014850152E+00  0.20237447261E-01 0.  0.
         14    1    1    2    0    0  0.20721153495E-01 -0.98371290566E-02  0.58810472021E-02  0.23679569811E-01  0.00000000000E+00 0.  1.
     999901    1    3    3    0    0 -0.46345612201E-02  0.12117317109E+00  0.56365121110E-01  0.89010192867E+00  0.88000000000E+00 0. -1.
        -11    1    4    4    0    0 -0.68860916145E-02 -0.51632656773E-01 -0.40352098004E-01  0.65893113733E-01  0.51100000000E-03 0.  1.
         11    1    4    4    0    0 -0.92005006604E-02 -0.59703385257E-01 -0.21894070308E-01  0.64255387783E-01  0.51100000000E-03 0. -1.
</event>
<event>
 8    1  0.1222258E+005  0.1043930E+01  0.7957747E-01            NaN
         13   -1    0    0    0    0  0.00000000000E+00  0.00000000000E+00  0.74505805969E-08  0.10566000000E+00  0.10566000000E+00 0. -1.
     999900   -1    0    0    0    0 -0.00000000000E+00 -0.00000000000E+00 -0.74505805969E-08  0.93827000000E+00  0.93827000000E+00 0. -1.
     999902    2    1    2    0    0 -0.23347646337E-01  0.10189966940E-01 -0.16174125697E-02  0.10184042475E+01  0.10180843027E+01 0.  0.
     999903    2    3    3    0    0 -0.22075941172E-01  0.81307287767E-01  0.97256365893E-01  0.13001507908E+00  0.18625194185E-01 0.  0.
         14    1    1    2    0    0  0.23347646337E-01 -0.10189966940E-01  0.16174125697E-02  0.25525752470E-01  0.00000000000E+00 0. -1.
     999901    1    3    3    0    0 -0.12717051645E-02 -0.71117320827E-01 -0.98873778462E-01  0.88838916845E+00  0.88000000000E+00 0. -1.
        -11    1    4    4    0    0 -0.19917533867E-01  0.41771487459E-01  0.46086446021E-01  0.65312992181E-01  0.51100000000E-03 0.  1.
         11    1    4    4    0    0 -0.21584073051E-02  0.39535800309E-01  0.51169919872E-01  0.64702086897E-01  0.51100000000E-03 0. -1.
</event>
<event>
 8    1  0.1116841E+005  0.1043930E+01  0.7957747E-01            NaN
         13   -1    0    0    0    0  0.00000000000E+00  0.00000000000E+00  0.74505805969E-08  0.10566000000E+00  0.10566000000E+00 0. -1.
     999900   -1    0    0    0    0 -0.00000000000E+00 -0.00000000000E+00 -0.74505805969E-08  0.93827000000E+00  0.93827000000E+00 0. -1.
     999902    2    1    2    0    0 -0.11981100689E-01  0.65768972783E-02 -0.14508413832E-01  0.10239977040E+01  0.10238036928E+01 0.  0.
     999903    2    3    3    0    0 -0.12725169277E+00  0.42807773246E-01 -0.36875276558E-03  0.13562845883E+00  0.19220928713E-01 0.  0.
         14    1    1    2    0    0  0.11981100689E-01 -0.65768972783E-02  0.14508413832E-01  0.19932295990E-01  0.00000000000E+00 0. -1.
     999901    1    3    3    0    0  0.11527059209E+00 -0.36230875968E-01 -0.14139661067E-01  0.88836924518E+00  0.88000000000E+00 0. -1.
        -11    1    4    4    0    0 -0.45409943420E-01  0.23838300136E-01  0.44184950498E-02  0.51479235953E-01  0.51100000000E-03 0. -1.
         11    1    4    4    0    0 -0.81841749354E-01  0.18969473110E-01 -0.47872478154E-02  0.84149222873E-01  0.51100000000E-03 0.  1.
</event>
<event>
 8    1  0.1116841E+005  0.1043930E+01  0.7957747E-01            NaN
         13   -1    0    0    0    0  0.00000000000E+00  0.00000000000E+00  0.74505805969E-08  0.10566000000E+00  0.10566000000E+00 0. -1.
     999900   -1    0    0    0    0 -0.00000000000E+00 -0.00000000000E+00 -0.74505805969E-08  0.93827000000E+00  0.93827000000E+00 0. -1.
     999902    2    1    2    0    0  0.57695973145E-02  0.19477165597E-01  0.11824383930E-01  0.10204254411E+01  0.10201547023E+01 0.  0.
     999903    2    3    3    0    0 -0.24621672486E-01 -0.45250384944E-02  0.12797360227E+00  0.13194900586E+00  0.20164189555E-01 0.  0.
         14    1    1    2    0    0 -0.57695973145E-02 -0.19477165597E-01 -0.11824383930E-01  0.23504558881E-01  0.00000000000E+00 0. -1.
     999901    1    3    3    0    0  0.30391269800E-01  0.24002204091E-01 -0.11614921834E+00  0.88847643525E+00  0.88000000000E+00 0. -1.
        -11    1    4    4    0    0 -0.34906121513E-02  0.31469478795E-02  0.63327215216E-01  0.63503424806E-01  0.51100000000E-03 0. -1.
         11    1    4    4    0    0 -0.21131060335E-01 -0.76719863740E-02  0.64646387057E-01  0.68445581058E-01  0.51100000000E-03 0.  1.
</event>
<event>
 8    1  0.1273857E+005  0.1043930E+01  0.7957747E-01            NaN
         13   -1    0    0    0    0  0.00000000000E+00  0.00000000000E+00  0.74505805969E-08  0.10566000000E+00  0.10566000000E+00 0. -1.
     999900   -1    0    0    0    0 -0.00000000000E+00 -0.00000000000E+00 -0.74505805969E-08  0.93827000000E+00  0.93827000000E+00 0. -1.
     999902    2    1    2    0    0  0.17938370046E-01 -0.10875187798E-01 -0.10903908828E-01  0.10202878754E+01  0.10200139208E+01 0.  0.
     999903    2    3    3    0    0  0.82932827992E-01 -0.87550094241E-01 -0.53563202187E-01  0.13353924348E+00  0.20514384216E-01 0.  0.
         14    1    1    2    0    0 -0.17938370046E-01  0.10875187798E-01  0.10903908828E-01  0.23642124636E-01  0.00000000000E+00 0. -1.
     999901    1    3    3    0    0 -0.64994457946E-01  0.76674906443E-01  0.42659293360E-01  0.88674863189E+00  0.88000000000E+00 0. -1.
        -11    1    4    4    0    0  0.59471556113E-01 -0.74595596351E-01 -0.39350329628E-01  0.10319921775E+00  0.51100000000E-03 0.  1.
         11    1    4    4    0    0  0.23461271879E-01 -0.12954497890E-01 -0.14212872559E-01  0.30340025728E-01  0.51100000000E-03 0. -1.
</event>
<event>
 8    1  0.1116841E+005  0.1043930E+01  0.7957747E-01            NaN
         13   -1    0    0    0    0  0.00000000000E+00  0.00000000000E+00  0.74505805969E-08  0.10566000000E+00  0.10566000000E+00 0. -1.
     999900   -1    0    0    0    0 -0.00000000000E+00 -0.00000000000E+00 -0.74505805969E-08  0.93827000000E+00  0.93827000000E+00 0.  1.
     999902    2    1    2    0    0  0.20213960059E-01  0.99345794661E-02 -0.16945374231E-02  0.10213430235E+01  0.10210932377E+01 0.  0.
     999903    2    3    3    0    0  0.12566369185E+00  0.32809812065E-01  0.27449928643E-01  0.13427350982E+00  0.20199743559E-01 0.  0.
         14    1    1    2    0    0 -0.20213960059E-01 -0.99345794661E-02  0.16945374231E-02  0.22586976502E-01  0.00000000000E+00 0. -1.
     999901    1    3    3    0    0 -0.10544973179E+00 -0.22875232599E-01 -0.29144466066E-01  0.88706951368E+00  0.88000000000E+00 0.  1.
        -11    1    4    4    0    0  0.49295927826E-01  0.20317092635E-01  0.18183014093E-01  0.56336097450E-01  0.51100000000E-03 0. -1.
         11    1    4    4    0    0  0.76367764020E-01  0.12492719430E-01  0.92669145502E-02  0.77937412367E-01  0.51100000000E-03 0.  1.
</event>
<event>
 8    1  0.1116841E+005  0.1043930E+01  0.7957747E-01            NaN
         13   -1    0    0    0    0  0.00000000000E+00  0.00000000000E+00  0.74505805969E-08  0.10566000000E+00  0.10566000000E+00 0. -1.
     999900   -1    0    0    0    0 -0.00000000000E+00 -0.00000000000E+00 -0.74505805969E-08  0.93827000000E+00  0.93827000000E+00 0.  1.
     999902    2    1    2    0    0 -0.22975883157E-01  0.41493297219E-02  0.51292541378E-02  0.10200256616E+01  0.10197455237E+01 0.  0.
     999903    2    3    3    0    0 -0.95385055903E-01  0.80480634350E-01 -0.40077194332E-01  0.13260626849E+00  0.20069866556E-01 0.  0.
         14    1    1    2    0    0  0.22975883157E-01 -0.41493297219E-02 -0.51292541378E-02  0.23904338351E-01  0.00000000000E+00 0.  1.
     999901    1    3    3    0    0  0.72409172746E-01 -0.76331304628E-01  0.45206448470E-01  0.88741939315E+00  0.88000000000E+00 0. -1.
        -11    1    4    4    0    0 -0.79873410505E-01  0.75579714547E-01 -0.32601457162E-01  0.11469599421E+00  0.51100000000E-03 0.  1.
         11    1    4    4    0    0 -0.15511645398E-01  0.49009198024E-02 -0.74757371703E-02  0.17910274289E-01  0.51100000000E-03 0. -1.
</event>
<event>
 8    1  0.1116841E+005  0.1043930E+01  0.7957747E-01            NaN
         13   -1    0    0    0    0  0.00000000000E+00  0.00000000000E+00  0.74505805969E-08  0.10566000000E+00  0.10566000000E+00 0. -1.
     999900   -1    0    0    0    0 -0.00000000000E+00 -0.00000000000E+00 -0.74505805969E-08  0.93827000000E+00  0.93827000000E+00 0. -1.
     999902    2    1    2    0    0 -0.17977995070E-01  0.42220045067E-02  0.14148903944E-01  0.10206657547E+01  0.10204005868E+01 0.  0.
     999903    2    3    3    0    0 -0.12708190217E-01 -0.11562196155E+00 -0.55210517755E-01  0.12982285244E+00  0.16608300768E-01 0.  0.
         14    1    1    2    0    0  0.17977995070E-01 -0.42220045067E-02 -0.14148903944E-01  0.23264245347E-01  0.00000000000E+00 0.  1.
     999901    1    3    3    0    0 -0.52698048525E-02  0.11984396605E+00  0.69359421699E-01  0.89084290221E+00  0.88000000000E+00 0.  1.
        -11    1    4    4    0    0 -0.16317397028E-01 -0.10506902932E+00 -0.49671706607E-01  0.11735969464E+00  0.51100000000E-03 0.  1.
         11    1    4    4    0    0  0.36092068111E-02 -0.10552932226E-01 -0.55388111486E-02  0.12463157798E-01  0.51100000000E-03 0. -1.
</event>
<event>
 8    1  0.1116841E+005  0.1043930E+01  0.7957747E-01            NaN
         13   -1    0    0    0    0  0.00000000000E+00  0.00000000000E+00  0.74505805969E-08  0.10566000000E+00  0.10566000000E+00 0. -1.
     999900   -1    0    0    0    0 -0.00000000000E+00 -0.00000000000E+00 -0.74505805969E-08  0.93827000000E+00  0.93827000000E+00 0. -1.
     999902    2    1    2    0    0  0.21250142323E-01  0.47777878785E-03 -0.79828415286E-02  0.10212248777E+01  0.10209724424E+01 0.  0.
     999903    2    3    3    0    0  0.40276765433E-01  0.11096536892E+00  0.55216456473E-01  0.13186349374E+00  0.20089623720E-01 0.  0.
         14    1    1    2    0    0 -0.21250142323E-01 -0.47777878785E-03  0.79828415286E-02  0.22705122333E-01  0.00000000000E+00 0. -1.
     999901    1    3    3    0    0 -0.19026623110E-01 -0.11048759013E+00 -0.63199298002E-01  0.88936138393E+00  0.88000000000E+00 0.  1.
        -11    1    4    4    0    0  0.28474744124E-01  0.69059925342E-01  0.44766288193E-01  0.87088265689E-01  0.51100000000E-03 0. -1.
         11    1    4    4    0    0  0.11802021309E-01  0.41905443579E-01  0.10450168280E-01  0.44775228047E-01  0.51100000000E-03 0.  1.
</event>
<event>
 8    1  0.1116841E+005  0.1043930E+01  0.7957747E-01            NaN
         13   -1    0    0    0    0  0.00000000000E+00  0.00000000000E+00  0.74505805969E-08  0.10566000000E+00  0.10566000000E+00 0.  1.
     999900   -1    0    0    0    0 -0.00000000000E+00 -0.00000000000E+00 -0.74505805969E-08  0.93827000000E+00  0.93827000000E+00 0.  1.
     999902    2    1    2    0    0 -0.18372352356E-01  0.28039199231E-03  0.14933004904E-01  0.10202526567E+01  0.10199778757E+01 0.  0.
     999903    2    3    3    0    0 -0.11589515659E+00 -0.59282656552E-01  0.31386463242E-02  0.13278572154E+00  0.26001462518E-01 0.  0.
         14    1    1    2    0    0  0.18372352356E-01 -0.28039199231E-03 -0.14933004904E-01  0.23677343310E-01  0.00000000000E+00 0.  1.
     999901    1    3    3    0    0  0.97522804237E-01  0.59563048544E-01  0.11794358580E-01  0.88746693515E+00  0.88000000000E+00 0.  1.
        -11    1    4    4    0    0 -0.37713861481E-01 -0.19172570085E-01 -0.11162108999E-01  0.43758160265E-01  0.51100000000E-03 0.  1.
         11    1    4    4    0    0 -0.78181295112E-01 -0.40110086467E-01  0.14300755323E-01  0.89027561270E-01  0.51100000000E-03 0. -1.
</event>
<event>
 8    1  0.1116841E+005  0.1043930E+01  0.7957747E-01            NaN
         13   -1    0    0    0    0  0.00000000000E+00  0.00000000000E+00  0.74505805969E-08  0.10566000000E+00  0.10566000000E+00 0. -1.
     999900   -1    0    0    0    0 -0.00000000000E+00 -0.00000000000E+00 -0.74505805969E-08  0.93827000000E+00  0.93827000000E+00 0.  1.
     999902    2    1    2    0    0  0.16848541606E-02  0.20978625278E-01 -0.94922885939E-02  0.10208422328E+01  0.10205811184E+01 0.  0.
     999903    2    3    3    0    0 -0.64285812256E-01  0.11508268041E+00 -0.14499334189E-02  0.13333314467E+00  0.19973386570E-01 0.  0.
         14    1    1    2    0    0 -0.16848541606E-02 -0.20978625278E-01  0.94922885939E-02  0.23087767212E-01  0.00000000000E+00 0. -1.
     999901    1    3    3    0    0  0.65970666416E-01 -0.94104055136E-01 -0.80423551750E-02  0.88750908812E+00  0.88000000000E+00 0.  1.
        -11    1    4    4    0    0 -0.54525225653E-01  0.10725944685E+00 -0.46414739608E-02  0.12041342771E+00  0.51100000000E-03 0.  1.
         11    1    4    4    0    0 -0.97605866025E-02  0.78232335630E-02  0.31915405419E-02  0.12919716956E-01  0.51100000000E-03 0. -1.
</event>
<event>
 8    1  0.1116841E+005  0.1043930E+01  0.7957747E-01            NaN
         13   -1    0    0    0    0  0.00000000000E+00  0.00000000000E+00  0.74505805969E-08  0.10566000000E+00  0.10566000000E+00 0.  1.
     999900   -1    0    0    0    0 -0.00000000000E+00 -0.00000000000E+00 -0.74505805969E-08  0.93827000000E+00  0.93827000000E+00 0.  1.
     999902    2    1    2    0    0 -0.96917505793E-02  0.17554296392E-01  0.12865441080E-01  0.10201055813E+01  0.10198273354E+01 0.  0.
     999903    2    3    3    0    0  0.57223662232E-01 -0.14949179220E-01 -0.11193765469E+00  0.12819193017E+00  0.20127268703E-01 0.  0.
         14    1    1    2    0    0  0.96917505793E-02 -0.17554296392E-01 -0.12865441080E-01  0.23824418677E-01  0.00000000000E+00 0.  1.
     999901    1    3    3    0    0 -0.66915412811E-01  0.32503475613E-01  0.12480309577E+00  0.89191365115E+00  0.88000000000E+00 0. -1.
        -11    1    4    4    0    0  0.11510648157E-01 -0.78063600887E-02 -0.42746385821E-01  0.44954965249E-01  0.51100000000E-03 0.  1.
         11    1    4    4    0    0  0.45713014075E-01 -0.71428191314E-02 -0.69191268866E-01  0.83236964921E-01  0.51100000000E-03 0. -1.
</event>
<event>
 8    1  0.1116841E+005  0.1043930E+01  0.7957747E-01            NaN
         13   -1    0    0    0    0  0.00000000000E+00  0.00000000000E+00  0.74505805969E-08  0.10566000000E+00  0.10566000000E+00 0.  1.
     999900   -1    0    0    0    0 -0.00000000000E+00 -0.00000000000E+00 -0.74505805969E-08  0.93827000000E+00  0.93827000000E+00 0. -1.
     999902    2    1    2    0    0 -0.34686777338E-02  0.21291357494E-01 -0.11317301114E-01  0.10195694800E+01  0.10192784162E+01 0.  0.
     999903    2    3    3    0    0 -0.12458456450E+00  0.35656906007E-01 -0.22653150515E-02  0.13111162201E+00  0.19809016056E-01 0.  0.
         14    1    1    2    0    0  0.34686777338E-02 -0.21291357494E-01  0.11317301114E-01  0.24360519979E-01  0.00000000000E+00 0.  1.
     999901    1    3    3    0    0  0.12111588676E+00 -0.14365548513E-01 -0.90519860622E-02  0.88845785801E+00  0.88000000000E+00 0.  1.
        -11    1    4    4    0    0 -0.96010216616E-01  0.35895902782E-01 -0.24316353990E-02  0.10253122209E+00  0.51100000000E-03 0.  1.
         11    1    4    4    0    0 -0.28574347880E-01 -0.23899677463E-03  0.16632034751E-03  0.28580399922E-01  0.51100000000E-03 0. -1.
</event>
<event>
 8    1  0.1116841E+005  0.1043930E+01  0.7957747E-01            NaN
         13   -1    0    0    0    0  0.00000000000E+00  0.00000000000E+00  0.74505805969E-08  0.10566000000E+00  0.10566000000E+00 0.  1.
     999900   -1    0    0    0    0 -0.00000000000E+00 -0.00000000000E+00 -0.74505805969E-08  0.93827000000E+00  0.93827000000E+00 0.  1.
     999902    2    1    2    0    0 -0.11554908951E-01 -0.86051246020E-02  0.17439089364E-01  0.10213095241E+01  0.10210589886E+01 0.  0.
     999903    2    3    3    0    0 -0.38028872898E-02 -0.60510463723E-01  0.11795672790E+00  0.13403388843E+00  0.19373059108E-01 0.  0.
         14    1    1    2    0    0  0.11554908951E-01  0.86051246020E-02 -0.17439089364E-01  0.22620475860E-01  0.00000000000E+00 0. -1.
     999901    1    3    3    0    0 -0.77520216612E-02  0.51905339121E-01 -0.10051763854E+00  0.88727563571E+00  0.88000000000E+00 0.  1.
        -11    1    4    4    0    0  0.27877572727E-02 -0.75858727201E-02  0.30851263442E-01  0.31896373344E-01  0.51100000000E-03 0. -1.
         11    1    4    4    0    0 -0.65906445625E-02 -0.52924591002E-01  0.87105464457E-01  0.10213751509E+00  0.51100000000E-03 0.  1.
</event>
<event>
 8    1  0.1116841E+005  0.1043930E+01  0.7957747E-01            NaN
         13   -1    0    0    0    0  0.00000000000E+00  0.00000000000E+00  0.74505805969E-08  0.10566000000E+00  0.10566000000E+00 0. -1.
     999900   -1    0    0    0    0 -0.00000000000E+00 -0.00000000000E+00 -0.74505805969E-08  0.93827000000E+00  0.93827000000E+00 0.  1.
     999902    2    1    2    0    0  0.23382895829E-02 -0.15645488212E-01 -0.22892719537E-01  0.10161032951E+01  0.10157221966E+01 0.  0.
     999903    2    3    3    0    0  0.14507993932E-01  0.11578060929E+00  0.37614461491E-01  0.12420529655E+00  0.19911720231E-01 0.  0.
         14    1    1    2    0    0 -0.23382895829E-02  0.15645488212E-01  0.22892719537E-01  0.27826704931E-01  0.00000000000E+00 0. -1.
     999901    1    3    3    0    0 -0.12169704349E-01 -0.13142609750E+00 -0.60507181028E-01  0.89189799852E+00  0.88000000000E+00 0. -1.
        -11    1    4    4    0    0  0.10863628342E-01  0.36663319554E-01  0.19630231759E-01  0.42986329704E-01  0.51100000000E-03 0. -1.
         11    1    4    4    0    0  0.36443655902E-02  0.79117289733E-01  0.17984229732E-01  0.81218966845E-01  0.51100000000E-03 0.  1.
</event>
<event>
 8    1  0.1116841E+005  0.1043930E+01  0.7957747E-01            NaN
         13   -1    0    0    0    0  0.00000000000E+00  0.00000000000E+00  0.74505805969E-08  0.10566000000E+00  0.10566000000E+00 0. -1.
     999900   -1    0    0    0    0 -0.00000000000E+00 -0.00000000000E+00 -0.74505805969E-08  0.93827000000E+00  0.93827000000E+00 0. -1.
     999902    2    1    2    0    0 -0.11251930056E-01 -0.28498966916E-02  0.20439193912E-01  0.10204249263E+01  0.10201541755E+01 0.  0.
     999903    2    3    3    0    0 -0.11787388316E-01  0.12756642611E+00  0.17343287833E-01  0.13080799268E+00  0.19945067658E-01 0.  0.
         14    1    1    2    0    0  0.11251930056E-01  0.28498966916E-02 -0.20439193912E-01  0.23505073685E-01  0.00000000000E+00 0.  1.
     999901    1    3    3    0    0  0.53545826026E-03 -0.13041632280E+00  0.30959060793E-02  0.88961693363E+00  0.88000000000E+00 0.  1.
        -11    1    4    4    0    0 -0.75414540556E-02  0.12264936580E+00  0.18245409740E-01  0.12422920976E+00  0.51100000000E-03 0.  1.
         11    1    4    4    0    0 -0.42459342608E-02  0.49170603133E-02 -0.90212190732E-03  0.65787829275E-02  0.51100000000E-03 0. -1.
</event>
<event>
 8    1  0.1116841E+005  0.1043930E+01  0.7957747E-01            NaN
         13   -1    0    0    0    0  0.00000000000E+00  0.00000000000E+00  0.74505805969E-08  0.10566000000E+00  0.10566000000E+00 0. -1.
     999900   -1    0    0    0    0 -0.00000000000E+00 -0.00000000000E+00 -0.74505805969E-08  0.93827000000E+00  0.93827000000E+00 0. -1.
     999902    2    1    2    0    0 -0.23545933982E-01 -0.93583816676E-03  0.79094256413E-02  0.10190734955E+01  0.10187703095E+01 0.  0.
     999903    2    3    3    0    0 -0.62422912000E-01  0.67146732965E-01 -0.90241455358E-01  0.13015266028E+00  0.19770964130E-01 0.  0.
         14    1    1    2    0    0  0.23545933982E-01  0.93583816676E-03 -0.79094256413E-02  0.24856504463E-01  0.00000000000E+00 0.  1.
     999901    1    3    3    0    0  0.38876978018E-01 -0.68082571132E-01  0.98150880999E-01  0.88892083526E+00  0.88000000000E+00 0.  1.
        -11    1    4    4    0    0 -0.36532292655E-01  0.47758068860E-01 -0.47956804507E-01  0.76912663245E-01  0.51100000000E-03 0.  1.
         11    1    4    4    0    0 -0.25890619344E-01  0.19388664105E-01 -0.42284650851E-01  0.53239997036E-01  0.51100000000E-03 0. -1.
</event>
<event>
 8    1  0.1116841E+005  0.1043930E+01  0.7957747E-01            NaN
         13   -1    0    0    0    0  0.00000000000E+00  0.00000000000E+00  0.74505805969E-08  0.10566000000E+00  0.10566000000E+00 0. -1.
     999900   -1    0    0    0    0 -0.00000000000E+00 -0.00000000000E+00 -0.74505805969E-08  0.93827000000E+00  0.93827000000E+00 0.  1.
     999902    2    1    2    0    0  0.49075023630E-03 -0.23551717399E-01 -0.32432310523E-02  0.10201509593E+01  0.10198737848E+01 0.  0.
     999903    2    3    3    0    0  0.29069591781E-01  0.11851529934E+00 -0.32849536308E-01  0.12780779621E+00  0.19100350570E-01 0.  0.
         14    1    1    2    0    0 -0.49075023630E-03  0.23551717399E-01  0.32432310523E-02  0.23779040685E-01  0.00000000000E+00 0. -1.
     999901    1    3    3    0    0 -0.28578841544E-01 -0.14206701674E+00  0.29606305256E-01  0.89234316311E+00  0.88000000000E+00 0. -1.
        -11    1    4    4    0    0  0.15400090905E-01  0.74514934366E-01 -0.29495979685E-01  0.81608285008E-01  0.51100000000E-03 0. -1.
         11    1    4    4    0    0  0.13669500876E-01  0.44000364977E-01 -0.33535566232E-02  0.46199511202E-01  0.51100000000E-03 0.  1.
</event>
<event>
 8    1  0.1116841E+005  0.1043930E+01  0.7957747E-01            NaN
         13   -1    0    0    0    0  0.00000000000E+00  0.00000000000E+00  0.74505805969E-08  0.10566000000E+00  0.10566000000E+00 0. -1.
     999900   -1    0    0    0    0 -0.00000000000E+00 -0.00000000000E+00 -0.74505805969E-08  0.93827000000E+00  0.93827000000E+00 0. -1.
     999902    2    1    2    0    0  0.37904711747E-02  0.14029656917E-01 -0.18509449405E-01  0.10203970728E+01  0.10201256724E+01 0.  0.
     999903    2    3    3    0    0  0.49665685939E-01  0.52445090644E-01  0.10602885131E+00  0.12961647736E+00  0.18470138106E-01 0.  0.
         14    1    1    2    0    0 -0.37904711747E-02 -0.14029656917E-01  0.18509449405E-01  0.23532927191E-01  0.00000000000E+00 0. -1.
     999901    1    3    3    0    0 -0.45875214764E-01 -0.38415433727E-01 -0.12453830071E+00  0.89078059545E+00  0.88000000000E+00 0. -1.
        -11    1    4    4    0    0  0.37211437720E-01  0.26480484748E-01  0.67885882210E-01  0.81820909883E-01  0.51100000000E-03 0. -1.
         11    1    4    4    0    0  0.12454248219E-01  0.25964605896E-01  0.38142969099E-01  0.47795567479E-01  0.51100000000E-03 0.  1.
</event>
<event>
 8    1  0.1116841E+005  0.1043930E+01  0.7957747E-01            NaN
         13   -1    0    0    0    0  0.00000000000E+00  0.00000000000E+00  0.74505805969E-08  0.10566000000E+00  0.10566000000E+00 0.  1.
     999900   -1    0    0    0    0 -0.00000000000E+00 -0.00000000000E+00 -0.74505805969E-08  0.93827000000E+00  0.93827000000E+00 0. -1.
     999902    2    1    2    0    0  0.29870905552E-01  0.16425844147E-01 -0.43200455535E-02  0.10095680712E+01  0.10089831259E+01 0.  0.
     999903    2    3    3    0    0  0.10441804635E+00  0.43119638357E-01  0.48023221189E-01  0.12446375399E+00  0.20556377781E-01 0.  0.
         14    1    1    2    0    0 -0.29870905552E-01 -0.16425844147E-01  0.43200455535E-02  0.34361928759E-01  0.00000000000E+00 0.  1.
     999901    1    3    3    0    0 -0.74547140798E-01 -0.26693794210E-01 -0.52343266742E-01  0.88510431726E+00  0.88000000000E+00 0. -1.
        -11    1    4    4    0    0  0.40427848551E-01  0.17983627128E-01  0.29762445221E-01  0.53328098126E-01  0.51100000000E-03 0.  1.
         11    1    4    4    0    0  0.63990197798E-01  0.25136011229E-01  0.18260775968E-01  0.71135655861E-01  0.51100000000E-03 0. -1.
</event>
<event>
 8    1  0.1116841E+005  0.1043930E+01  0.7957747E-01            NaN
         13   -1    0    0    0    0  0.00000000000E+00  0.00000000000E+00  0.74505805969E-08  0.10566000000E+00  0.10566000000E+00 0.  1.
     999900   -1    0    0    0    0 -0.00000000000E+00 -0.00000000000E+00 -0.74505805969E-08  0.93827000000E+00  0.93827000000E+00 0.  1.
     999902    2    1    2    0    0  0.21803519504E-01 -0.60441053020E-02  0.64924187932E-02  0.10203911773E+01  0.10201196393E+01 0.  0.
     999903    2    3    3    0    0 -0.55707097920E-01  0.69517055182E-01  0.92119453608E-01  0.12963342468E+00  0.19568580460E-01 0.  0.
         14    1    1    2    0    0 -0.21803519504E-01  0.60441053020E-02 -0.64924187932E-02  0.23538822686E-01  0.00000000000E+00 0.  1.
     999901    1    3    3    0    0  0.77510617424E-01 -0.75561160484E-01 -0.85627034815E-01  0.89075775263E+00  0.88000000000E+00 0.  1.
        -11    1    4    4    0    0 -0.18498447322E-01  0.11022539893E-01  0.17252418566E-01  0.27597028942E-01  0.51100000000E-03 0. -1.
         11    1    4    4    0    0 -0.37208650598E-01  0.58494515289E-01  0.74867035041E-01  0.10203639574E+00  0.51100000000E-03 0.  1.
</event>
<event>
 8    1  0.1116841E+005  0.1043930E+01  0.7957747E-01            NaN
         13   -1    0    0    0    0  0.00000000000E+00  0.00000000000E+00  0.74505805969E-08  0.10566000000E+00  0.10566000000E+00 0. -1.
     999900   -1    0    0    0    0 -0.00000000000E+00 -0.00000000000E+00 -0.74505805969E-08  0.93827000000E+00  0.93827000000E+00 0.  1.
     999902    2    1    2    0    0  0.15974645341E-01  0.10380002588E-01 -0.14602896636E-01  0.10199262849E+01  0.10196437850E+01 0.  0.
     999903    2    3    3    0    0 -0.48544673838E-01  0.82016788327E-01  0.84741323841E-01  0.12910427926E+00  0.20086911972E-01 0.  0.
         14    1    1    2    0    0 -0.15974645341E-01 -0.10380002588E-01  0.14602896636E-01  0.24003715080E-01  0.00000000000E+00 0.  1.
     999901    1    3    3    0    0  0.64519319178E-01 -0.71636785739E-01 -0.99344220477E-01  0.89082200566E+00  0.88000000000E+00 0. -1.
        -11    1    4    4    0    0 -0.12492234058E-01  0.24969838468E-01  0.13652397194E-01  0.31083722669E-01  0.51100000000E-03 0. -1.
         11    1    4    4    0    0 -0.36052439780E-01  0.57046949860E-01  0.71088926647E-01  0.98020556595E-01  0.51100000000E-03 0.  1.
</event>
<event>
 8    1  0.1116841E+005  0.1043930E+01  0.7957747E-01            NaN
         13   -1    0    0    0    0  0.00000000000E+00  0.00000000000E+00  0.74505805969E-08  0.10566000000E+00  0.10566000000E+00 0. -1.
     999900   -1    0    0    0    0 -0.00000000000E+00 -0.00000000000E+00 -0.74505805969E-08  0.93827000000E+00  0.93827000000E+00 0. -1.
     999902    2    1    2    0    0  0.89610745786E-02  0.58303415436E-02  0.21052204000E-01  0.10203187943E+01  0.10200455642E+01 0.  0.
     999903    2    3    3    0    0 -0.45502011828E-01 -0.11972693386E+00  0.16985456846E-02  0.12952958173E+00  0.19236832207E-01 0.  0.
         14    1    1    2    0    0 -0.89610745786E-02 -0.58303415436E-02 -0.21052204000E-01  0.23611205674E-01  0.00000000000E+00 0.  1.
     999901    1    3    3    0    0  0.54463086407E-01  0.12555727540E+00  0.19353658315E-01  0.89078921260E+00  0.88000000000E+00 0. -1.
        -11    1    4    4    0    0 -0.19679654377E-01 -0.30794682746E-01 -0.38811598607E-02  0.36754942588E-01  0.51100000000E-03 0.  1.
         11    1    4    4    0    0 -0.25822357451E-01 -0.88932251116E-01  0.55797055453E-02  0.92774639141E-01  0.51100000000E-03 0. -1.
</event>
<event>
 8    1  0.1116841E+005  0.1043930E+01  0.7957747E-01            NaN
         13   -1    0    0    0    0  0.00000000000E+00  0.00000000000E+00  0.74505805969E-08  0.10566000000E+00  0.10566000000E+00 0.  1.
     999900   -1    0    0    0    0 -0.00000000000E+00 -0.00000000000E+00 -0.74505805969E-08  0.93827000000E+00  0.93827000000E+00 0. -1.
     999902    2    1    2    0    0 -0.47841168437E-02 -0.20640152818E-01  0.11298167705E-01  0.10199184970E+01  0.10196358116E+01 0.  0.
     999903    2    3    3    0    0  0.42405282657E-01  0.11545262730E+00 -0.26793621389E-01  0.12739450931E+00  0.19594532594E-01 0.  0.
         14    1    1    2    0    0  0.47841168437E-02  0.20640152818E-01 -0.11298167705E-01  0.24011502989E-01  0.00000000000E+00 0. -1.
     999901    1    3    3    0    0 -0.47189399501E-01 -0.13609278012E+00  0.38091789094E-01  0.89252398770E+00  0.88000000000E+00 0.  1.
        -11    1    4    4    0    0  0.27396962120E-01  0.70695312023E-01 -0.67950445639E-02  0.76123941221E-01  0.51100000000E-03 0.  1.
         11    1    4    4    0    0  0.15008320538E-01  0.44757315277E-01 -0.19998576825E-01  0.51270568089E-01  0.51100000000E-03 0. -1.
</event>
<event>
 8    1  0.1116841E+005  0.1043930E+01  0.7957747E-01            NaN
         13   -1    0    0    0    0  0.00000000000E+00  0.00000000000E+00  0.74505805969E-08  0.10566000000E+00  0.10566000000E+00 0. -1.
     999900   -1    0    0    0    0 -0.00000000000E+00 -0.00000000000E+00 -0.74505805969E-08  0.93827000000E+00  0.93827000000E+00 0.  1.
     999902    2    1    2    0    0 -0.10043852482E-02  0.59519669724E-02  0.22255777738E-01  0.10208702007E+01  0.10206097258E+01 0.  0.
     999903    2    3    3    0    0  0.36375734369E-01 -0.42065873775E-01 -0.11383137869E+00  0.12833297430E+00  0.20470411123E-01 0.  0.
         14    1    1    2    0    0  0.10043852482E-02 -0.59519669724E-02 -0.22255777738E-01  0.23059799290E-01  0.00000000000E+00 0.  1.
     999901    1    3    3    0    0 -0.37380119617E-01  0.48017840748E-01  0.13608715643E+00  0.89253722640E+00  0.88000000000E+00 0. -1.
        -11    1    4    4    0    0  0.57717393909E-02  0.14765405271E-02 -0.98913620671E-02  0.11558257311E-01  0.51100000000E-03 0.  1.
         11    1    4    4    0    0  0.30603994978E-01 -0.43542414302E-01 -0.10394001663E+00  0.11677471699E+00  0.51100000000E-03 0. -1.
</event>
<event>
 8    1  0.1116841E+005  0.1043930E+01  0.7957747E-01            NaN
         13   -1    0    0    0    0  0.00000000000E+00  0.00000000000E+00  0.74505805969E-08  0.10566000000E+00  0.10566000000E+00 0. -1.
     999900   -1    0    0    0    0 -0.00000000000E+00 -0.00000000000E+00 -0.74505805969E-08  0.93827000000E+00  0.93827000000E+00 0. -1.
     999902    2    1    2    0    0 -0.24575550229E-02 -0.65241667143E-02 -0.22890101055E-01  0.10200017520E+01  0.10197210466E+01 0.  0.
     999903    2    3    3    0    0 -0.12378991403E+00  0.34923903146E-01 -0.99329793805E-02  0.13061580039E+00  0.20449973278E-01 0.  0.
         14    1    1    2    0    0  0.24575550229E-02  0.65241667143E-02  0.22890101055E-01  0.23928248041E-01  0.00000000000E+00 0. -1.
     999901    1    3    3    0    0  0.12133235901E+00 -0.41448069860E-01 -0.12957121675E-01  0.88938595156E+00  0.88000000000E+00 0. -1.
        -11    1    4    4    0    0 -0.18787933288E-01  0.10420783255E-01  0.41128872061E-02  0.21880496407E-01  0.51100000000E-03 0.  1.
         11    1    4    4    0    0 -0.10500198074E+00  0.24503119891E-01 -0.14045866587E-01  0.10873530399E+00  0.51100000000E-03 0. -1.
</event>
<event>
 8    1  0.1116841E+005  0.1043930E+01  0.7957747E-01            NaN
         13   -1    0    0    0    0  0.00000000000E+00  0.00000000000E+00  0.74505805969E-08  0.10566000000E+00  0.10566000000E+00 0. -1.
     999900   -1    0    0    0    0 -0.00000000000E+00 -0.00000000000E+00 -0.74505805969E-08  0.93827000000E+00  0.93827000000E+00 0. -1.
     999902    2    1    2    0    0  0.82222891818E-02  0.16125909617E-01 -0.17153320650E-01  0.10189923295E+01  0.10186871356E+01 0.  0.
     999903    2    3    3    0    0  0.33247198316E-01 -0.12099410762E+00  0.12338424272E-01  0.12753402525E+00  0.19176564071E-01 0.  0.
         14    1    1    2    0    0 -0.82222891818E-02 -0.16125909617E-01  0.17153320650E-01  0.24937670495E-01  0.00000000000E+00 0. -1.
     999901    1    3    3    0    0 -0.25024909134E-01  0.13712001723E+00 -0.29491744922E-01  0.89145830425E+00  0.88000000000E+00 0. -1.
        -11    1    4    4    0    0  0.24279688349E-01 -0.99052740550E-01  0.29347587578E-02  0.10202853820E+00  0.51100000000E-03 0.  1.
         11    1    4    4    0    0  0.89675099670E-02 -0.21941367067E-01  0.94036655141E-02  0.25505487055E-01  0.51100000000E-03 0. -1.
</event>
<event>
 8    1  0.1116841E+005  0.1043930E+01  0.7957747E-01            NaN
         13   -1    0    0    0    0  0.00000000000E+00  0.00000000000E+00  0.74505805969E-08  0.10566000000E+00  0.10566000000E+00 0. -1.
     999900   -1    0    0    0    0 -0.00000000000E+00 -0.00000000000E+00 -0.74505805969E-08  0.93827000000E+00  0.93827000000E+00 0.  1.
     999902    2    1    2    0    0 -0.46410817093E-02  0.21928108627E-01 -0.40926927296E-02  0.10211455377E+01  0.10208913152E+01 0.  0.
     999903    2    3    3    0    0  0.12717892279E+00  0.10682634864E-01  0.20864838317E-01  0.13090632683E+00  0.20310781251E-01 0.  0.
         14    1    1    2    0    0  0.46410817093E-02 -0.21928108627E-01  0.40926927296E-02  0.22784462275E-01  0.00000000000E+00 0. -1.
     999901    1    3    3    0    0 -0.13182000450E+00  0.11245473763E-01 -0.24957531047E-01  0.89023921090E+00  0.88000000000E+00 0.  1.
        -11    1    4    4    0    0  0.73708298331E-01  0.12723929474E-01  0.44465667483E-02  0.74932267421E-01  0.51100000000E-03 0. -1.
         11    1    4    4    0    0  0.53470624460E-01 -0.20412946103E-02  0.16418271569E-01  0.55974059404E-01  0.51100000000E-03 0.  1.
</event>
<event>
 8    1  0.1116841E+005  0.1043930E+01  0.7957747E-01            NaN
         13   -1    0    0    0    0  0.00000000000E+00  0.00000000000E+00  0.74505805969E-08  0.10566000000E+00  0.10566000000E+00 0. -1.
     999900   -1    0    0    0    0 -0.00000000000E+00 -0.00000000000E+00 -0.74505805969E-08  0.93827000000E+00  0.93827000000E+00 0. -1.
     999902    2    1    2    0    0 -0.19563447224E-01 -0.12122448920E-01 -0.43981033953E-02  0.10204987058E+01  0.10202296717E+01 0.  0.
     999903    2    3    3    0    0 -0.10221346994E+00 -0.66839103511E-01  0.49413941554E-01  0.13330048964E+00  0.20303293424E-01 0.  0.
         14    1    1    2    0    0  0.19563447224E-01  0.12122448920E-01  0.43981033953E-02  0.23431294215E-01  0.00000000000E+00 0. -1.
     999901    1    3    3    0    0  0.82650022716E-01  0.54716654591E-01 -0.53812044950E-01  0.88719821614E+00  0.88000000000E+00 0. -1.
        -11    1    4    4    0    0 -0.51926685685E-01 -0.37758320748E-01  0.36262775306E-01  0.73738195433E-01  0.51100000000E-03 0.  1.
         11    1    4    4    0    0 -0.50286784255E-01 -0.29080782763E-01  0.13151166249E-01  0.59562294210E-01  0.51100000000E-03 0. -1.
</event>
<event>
 8    1  0.1116841E+005  0.1043930E+01  0.7957747E-01            NaN
         13   -1    0    0    0    0  0.00000000000E+00  0.00000000000E+00  0.74505805969E-08  0.10566000000E+00  0.10566000000E+00 0. -1.
     999900   -1    0    0    0    0 -0.00000000000E+00 -0.00000000000E+00 -0.74505805969E-08  0.93827000000E+00  0.93827000000E+00 0. -1.
     999902    2    1    2    0    0 -0.11555114384E-01 -0.69289731647E-02 -0.23280786737E-01  0.10170315545E+01  0.10166757873E+01 0.  0.
     999903    2    3    3    0    0 -0.10938392741E+00 -0.33663924362E-01 -0.59156871791E-01  0.13048075071E+00  0.20678187725E-01 0.  0.
         14    1    1    2    0    0  0.11555114384E-01  0.69289731647E-02  0.23280786737E-01  0.26898445469E-01  0.00000000000E+00 0. -1.
     999901    1    3    3    0    0  0.97828813025E-01  0.26734951197E-01  0.35876085054E-01  0.88655080382E+00  0.88000000000E+00 0. -1.
        -11    1    4    4    0    0 -0.39257275267E-01 -0.18930625710E-01 -0.13997952394E-01  0.45778882068E-01  0.51100000000E-03 0. -1.
         11    1    4    4    0    0 -0.70126652141E-01 -0.14733298652E-01 -0.45158919397E-01  0.84701868644E-01  0.51100000000E-03 0.  1.
</event>
<event>
 8    1  0.1116841E+005  0.1043930E+01  0.7957747E-01            NaN
         13   -1    0    0    0    0  0.00000000000E+00  0.00000000000E+00  0.74505805969E-08  0.10566000000E+00  0.10566000000E+00 0. -1.
     999900   -1    0    0    0    0 -0.00000000000E+00 -0.00000000000E+00 -0.74505805969E-08  0.93827000000E+00  0.93827000000E+00 0. -1.
     999902    2    1    2    0    0 -0.92897571968E-02  0.40313550121E-02 -0.24335506882E-01  0.10175715420E+01  0.10172300992E+01 0.  0.
     999903    2    3    3    0    0 -0.13701823833E-01 -0.72405620644E-01 -0.10566028903E+00  0.13051134239E+00  0.20947552052E-01 0.  0.
         14    1    1    2    0    0  0.92897571968E-02 -0.40313550121E-02  0.24335506882E-01  0.26358457983E-01  0.00000000000E+00 0. -1.
     999901    1    3    3    0    0  0.44120666358E-02  0.76436975656E-01  0.81324782144E-01  0.88706019963E+00  0.88000000000E+00 0. -1.
        -11    1    4    4    0    0 -0.10563143606E-01 -0.19907492489E-01 -0.20788298549E-01  0.30664356142E-01  0.51100000000E-03 0.  1.
         11    1    4    4    0    0 -0.31386802265E-02 -0.52498128155E-01 -0.84871990478E-01  0.99846986244E-01  0.51100000000E-03 0. -1.
</event>
<event>
 8    1  0.1116841E+005  0.1043930E+01  0.7957747E-01            NaN
         13   -1    0    0    0    0  0.00000000000E+00  0.00000000000E+00  0.74505805969E-08  0.10566000000E+00  0.10566000000E+00 0.  1.
     999900   -1    0    0    0    0 -0.00000000000E+00 -0.00000000000E+00 -0.74505805969E-08  0.93827000000E+00  0.93827000000E+00 0. -1.
     999902    2    1    2    0    0  0.90252272406E-02  0.19082413122E-01  0.74484926871E-02  0.10215453343E+01  0.10213000522E+01 0.  0.
     999903    2    3    3    0    0 -0.44610108745E-01 -0.71965491681E-02  0.12234937652E+00  0.13206821469E+00  0.20755511913E-01 0.  0.
         14    1    1    2    0    0 -0.90252272406E-02 -0.19082413122E-01 -0.74484926871E-02  0.22384665747E-01  0.00000000000E+00 0. -1.
     999901    1    3    3    0    0  0.53635335985E-01  0.26278962290E-01 -0.11490088383E+00  0.88947711957E+00  0.88000000000E+00 0.  1.
        -11    1    4    4    0    0 -0.36083622787E-01 -0.13593466411E-01  0.87480492426E-01  0.95602865222E-01  0.51100000000E-03 0.  1.
         11    1    4    4    0    0 -0.85264859575E-02  0.63969172425E-02  0.34868884090E-01  0.36465349466E-01  0.51100000000E-03 0. -1.
</event>
<event>
 8    1  0.1116841E+005  0.1043930E+01  0.7957747E-01            NaN
         13   -1    0    0    0    0  0.00000000000E+00  0.00000000000E+00  0.74505805969E-08  0.10566000000E+00  0.10566000000E+00 0. -1.
     999900   -1    0    0    0    0 -0.00000000000E+00 -0.00000000000E+00 -0.74505805969E-08  0.93827000000E+00  0.93827000000E+00 0.  1.
     999902    2    1    2    0    0  0.14331118905E-01 -0.15519513962E-01 -0.84315739734E-02  0.10211851605E+01  0.10209318314E+01 0.  0.
     999903    2    3    3    0    0 -0.11969773686E+00 -0.81625024885E-02 -0.46041540426E-01  0.13021245087E+00  0.21006766966E-01 0.  0.
         14    1    1    2    0    0 -0.14331118905E-01  0.15519513962E-01  0.84315739734E-02  0.22744839467E-01  0.00000000000E+00 0. -1.
     999901    1    3    3    0    0  0.13402885577E+00 -0.73570114739E-02  0.37609966452E-01  0.89097270967E+00  0.88000000000E+00 0. -1.
        -11    1    4    4    0    0 -0.21442408066E-01  0.49537182858E-02 -0.13762100017E-01  0.25960984311E-01  0.51100000000E-03 0.  1.
         11    1    4    4    0    0 -0.98255328798E-01 -0.13116220774E-01 -0.32279440408E-01  0.10425146655E+00  0.51100000000E-03 0. -1.
</event>
<event>
 8    1  0.1116841E+005  0.1043930E+01  0.7957747E-01            NaN
         13   -1    0    0    0    0  0.00000000000E+00  0.00000000000E+00  0.74505805969E-08  0.10566000000E+00  0.10566000000E+00 0. -1.
     999900   -1    0    0    0    0 -0.00000000000E+00 -0.00000000000E+00 -0.74505805969E-08  0.93827000000E+00  0.93827000000E+00 0.  1.
     999902    2    1    2    0    0 -0.15752876532E-01 -0.18217108230E-01  0.59936986528E-02  0.10191118499E+01  0.10188096103E+01 0.  0.
     999903    2    3    3    0    0 -0.66907003273E-01 -0.30944209163E-01 -0.10567530059E+00  0.13049005792E+00  0.20646909982E-01 0.  0.
         14    1    1    2    0    0  0.15752876532E-01  0.18217108230E-01 -0.59936986528E-02  0.24818150109E-01  0.00000000000E+00 0.  1.
     999901    1    3    3    0    0  0.51154126741E-01  0.12727100933E-01  0.11166899925E+00  0.88862179198E+00  0.88000000000E+00 0. -1.
        -11    1    4    4    0    0 -0.51042561947E-01 -0.16831357468E-01 -0.62933046442E-01  0.82761507839E-01  0.51100000000E-03 0.  1.
         11    1    4    4    0    0 -0.15864441326E-01 -0.14112851695E-01 -0.42742254151E-01  0.47728550077E-01  0.51100000000E-03 0. -1.
</event>
<event>
 8    1  0.1116841E+005  0.1043930E+01  0.7957747E-01            NaN
         13   -1    0    0    0    0  0.00000000000E+00  0.00000000000E+00  0.74505805969E-08  0.10566000000E+00  0.10566000000E+00 0.  1.
     999900   -1    0    0    0    0 -0.00000000000E+00 -0.00000000000E+00 -0.74505805969E-08  0.93827000000E+00  0.93827000000E+00 0. -1.
     999902    2    1    2    0    0  0.98766655434E-02  0.13928733537E-01 -0.14674898677E-01  0.10214153205E+01  0.10211671490E+01 0.  0.
     999903    2    3    3    0    0 -0.27135259794E-01  0.12385356567E+00  0.33109502790E-01  0.13251898217E+00  0.19723422832E-01 0.  0.
         14    1    1    2    0    0 -0.98766655434E-02 -0.13928733537E-01  0.14674898677E-01  0.22514679465E-01  0.00000000000E+00 0. -1.
     999901    1    3    3    0    0  0.37011925338E-01 -0.10992483213E+00 -0.47784401467E-01  0.88889633837E+00  0.88000000000E+00 0. -1.
        -11    1    4    4    0    0 -0.17717871817E-01  0.69889691875E-01  0.28545408055E-01  0.77547362651E-01  0.51100000000E-03 0. -1.
         11    1    4    4    0    0 -0.94173879773E-02  0.53963873791E-01  0.45640947351E-02  0.54971619519E-01  0.51100000000E-03 0.  1.
</event>
<event>
 8    1  0.1116841E+005  0.1043930E+01  0.7957747E-01            NaN
         13   -1    0    0    0    0  0.00000000000E+00  0.00000000000E+00  0.74505805969E-08  0.10566000000E+00  0.10566000000E+00 0. -1.
     999900   -1    0    0    0    0 -0.00000000000E+00 -0.00000000000E+00 -0.74505805969E-08  0.93827000000E+00  0.93827000000E+00 0. -1.
     999902    2    1    2    0    0  0.17023939440E-01 -0.23376050127E-02 -0.16653135566E-01  0.10200008162E+01  0.10197200887E+01 0.  0.
     999903    2    3    3    0    0 -0.73711660251E-01 -0.81295250234E-01  0.63283787221E-01  0.12822888889E+00  0.19886770799E-01 0.  0.
         14    1    1    2    0    0 -0.17023939440E-01  0.23376050127E-02  0.16653135566E-01  0.23929183760E-01  0.00000000000E+00 0. -1.
     999901    1    3    3    0    0  0.90735599690E-01  0.78957645221E-01 -0.79936922787E-01  0.89177192735E+00  0.88000000000E+00 0. -1.
        -11    1    4    4    0    0 -0.84314448969E-02 -0.54469254100E-02  0.12400016098E-01  0.15961822569E-01  0.51100000000E-03 0. -1.
         11    1    4    4    0    0 -0.65280215354E-01 -0.75848324824E-01  0.50883771122E-01  0.11226706632E+00  0.51100000000E-03 0.  1.
</event>
<event>
 8    1  0.1116841E+005  0.1043930E+01  0.7957747E-01            NaN
         13   -1    0    0    0    0  0.00000000000E+00  0.00000000000E+00  0.74505805969E-08  0.10566000000E+00  0.10566000000E+00 0.  1.
     999900   -1    0    0    0    0 -0.00000000000E+00 -0.00000000000E+00 -0.74505805969E-08  0.93827000000E+00  0.93827000000E+00 0.  1.
     999902    2    1    2    0    0  0.14426732386E-01 -0.18763501330E-01 -0.11648888807E-02  0.10202328154E+01  0.10199575683E+01 0.  0.
     999903    2    3    3    0    0  0.54156119438E-01 -0.12048188511E+00 -0.18827794407E-02  0.13348281169E+00  0.19114032737E-01 0.  0.
         14    1    1    2    0    0 -0.14426732386E-01  0.18763501330E-01  0.11648888807E-02  0.23697184550E-01  0.00000000000E+00 0. -1.
     999901    1    3    3    0    0 -0.39729387052E-01  0.10171838378E+00  0.71789055995E-03  0.88675000376E+00  0.88000000000E+00 0.  1.
        -11    1    4    4    0    0  0.15245434785E-01 -0.16849046102E-01  0.95522267500E-03  0.22748345164E-01  0.51100000000E-03 0. -1.
         11    1    4    4    0    0  0.38910684652E-01 -0.10363283901E+00 -0.28380021157E-02  0.11073446653E+00  0.51100000000E-03 0.  1.
</event>
<event>
 8    1  0.1116841E+005  0.1043930E+01  0.7957747E-01            NaN
         13   -1    0    0    0    0  0.00000000000E+00  0.00000000000E+00  0.74505805969E-08  0.10566000000E+00  0.10566000000E+00 0. -1.
     999900   -1    0    0    0    0 -0.00000000000E+00 -0.00000000000E+00 -0.74505805969E-08  0.93827000000E+00  0.93827000000E+00 0.  1.
     999902    2    1    2    0    0  0.38391545244E-03  0.19906925494E-02  0.24138189266E-01  0.10197068204E+01  0.10194190685E+01 0.  0.
     999903    2    3    3    0    0  0.10817635479E+00  0.14017894032E-01  0.71300320692E-01  0.13179458929E+00  0.19683824502E-01 0.  0.
         14    1    1    2    0    0 -0.38391545244E-03 -0.19906925494E-02 -0.24138189266E-01  0.24223179580E-01  0.00000000000E+00 0.  1.
     999901    1    3    3    0    0 -0.10779243933E+00 -0.12027201483E-01 -0.47162131425E-01  0.88791223113E+00  0.88000000000E+00 0.  1.
        -11    1    4    4    0    0  0.54966858281E-01  0.13230370349E-01  0.45904821004E-01  0.72827961123E-01  0.51100000000E-03 0.  1.
         11    1    4    4    0    0  0.53209496505E-01  0.78752368332E-03  0.25395499688E-01  0.58966628166E-01  0.51100000000E-03 0. -1.
</event>
<event>
 8    1  0.1116841E+005  0.1043930E+01  0.7957747E-01            NaN
         13   -1    0    0    0    0  0.00000000000E+00  0.00000000000E+00  0.74505805969E-08  0.10566000000E+00  0.10566000000E+00 0.  1.
     999900   -1    0    0    0    0 -0.00000000000E+00 -0.00000000000E+00 -0.74505805969E-08  0.93827000000E+00  0.93827000000E+00 0. -1.
     999902    2    1    2    0    0 -0.13370651454E-02  0.17104332707E-01  0.16629300037E-01  0.10200369140E+01  0.10197570428E+01 0.  0.
     999903    2    3    3    0    0 -0.67463914223E-01  0.45409193256E-01 -0.99037144988E-01  0.12955802494E+00  0.19067018219E-01 0.  0.
         14    1    1    2    0    0  0.13370651454E-02 -0.17104332707E-01 -0.16629300037E-01  0.23893086035E-01  0.00000000000E+00 0. -1.
     999901    1    3    3    0    0  0.66126849078E-01 -0.28304860549E-01  0.11566644502E+00  0.89047888903E+00  0.88000000000E+00 0.  1.
        -11    1    4    4    0    0 -0.50841126471E-01  0.41512680126E-01 -0.85343255232E-01  0.10766547769E+00  0.51100000000E-03 0. -1.
         11    1    4    4    0    0 -0.16622787752E-01  0.38965131298E-02 -0.13693889757E-01  0.21892547245E-01  0.51100000000E-03 0.  1.
</event>
<event>
 8    1  0.1116841E+005  0.1043930E+01  0.7957747E-01            NaN
         13   -1    0    0    0    0  0.00000000000E+00  0.00000000000E+00  0.74505805969E-08  0.10566000000E+00  0.10566000000E+00 0.  1.
     999900   -1    0    0    0    0 -0.00000000000E+00 -0.00000000000E+00 -0.74505805969E-08  0.93827000000E+00  0.93827000000E+00 0. -1.
     999902    2    1    2    0    0 -0.15025949500E-01 -0.17865096789E-01  0.87834872580E-02  0.10189882581E+01  0.10186829632E+01 0.  0.
     999903    2    3    3    0    0 -0.70577537053E-01 -0.61274710681E-01  0.91492146046E-01  0.13230280331E+00  0.19935899034E-01 0.  0.
         14    1    1    2    0    0  0.15025949500E-01  0.17865096789E-01 -0.87834872580E-02  0.24941741922E-01  0.00000000000E+00 0. -1.
     999901    1    3    3    0    0  0.55551587553E-01  0.43409613892E-01 -0.82708658788E-01  0.88668545477E+00  0.88000000000E+00 0. -1.
        -11    1    4    4    0    0 -0.31648469904E-01 -0.33382568704E-01  0.57175530016E-01  0.73384766090E-01  0.51100000000E-03 0.  1.
         11    1    4    4    0    0 -0.38929067149E-01 -0.27892141977E-01  0.34316616030E-01  0.58918037220E-01  0.51100000000E-03 0. -1.
</event>
<event>
 8    1  0.1116841E+005  0.1043930E+01  0.7957747E-01            NaN
         13   -1    0    0    0    0  0.00000000000E+00  0.00000000000E+00  0.74505805969E-08  0.10566000000E+00  0.10566000000E+00 0. -1.
     999900   -1    0    0    0    0 -0.00000000000E+00 -0.00000000000E+00 -0.74505805969E-08  0.93827000000E+00  0.93827000000E+00 0. -1.
     999902    2    1    2    0    0  0.17529902121E-01 -0.60280412224E-02 -0.12096496820E-01  0.10217949603E+01  0.10215551776E+01 0.  0.
     999903    2    3    3    0    0  0.98977828059E-01 -0.27149898798E-01  0.81779540166E-01  0.13281092900E+00  0.20423570183E-01 0.  0.
         14    1    1    2    0    0 -0.17529902121E-01  0.60280412224E-02  0.12096496820E-01  0.22135039748E-01  0.00000000000E+00 0. -1.
     999901    1    3    3    0    0 -0.81447925938E-01  0.21121857575E-01 -0.93876036986E-01  0.88898403126E+00  0.88000000000E+00 0. -1.
        -11    1    4    4    0    0  0.58314279809E-01 -0.23151315230E-01  0.40224421576E-01  0.74530556409E-01  0.51100000000E-03 0. -1.
         11    1    4    4    0    0  0.40663548250E-01 -0.39985835674E-02  0.41555118591E-01  0.58280372587E-01  0.51100000000E-03 0.  1.
</event>
<event>
 8    1  0.1116841E+005  0.1043930E+01  0.7957747E-01            NaN
         13   -1    0    0    0    0  0.00000000000E+00  0.00000000000E+00  0.74505805969E-08  0.10566000000E+00  0.10566000000E+00 0. -1.
     999900   -1    0    0    0    0 -0.00000000000E+00 -0.00000000000E+00 -0.74505805969E-08  0.93827000000E+00  0.93827000000E+00 0.  1.
     999902    2    1    2    0    0  0.16470876541E-01  0.17952586634E-01 -0.19212901408E-02  0.10194907591E+01  0.10191977881E+01 0.  0.
     999903    2    3    3    0    0  0.10421646411E+00  0.32073470957E-01 -0.72114223416E-01  0.13223333567E+00  0.19885042463E-01 0.  0.
         14    1    1    2    0    0 -0.16470876541E-01 -0.17952586634E-01  0.19212901408E-02  0.24439240918E-01  0.00000000000E+00 0. -1.
     999901    1    3    3    0    0 -0.87745587568E-01 -0.14120884323E-01  0.70192933276E-01  0.88725742341E+00  0.88000000000E+00 0. -1.
        -11    1    4    4    0    0  0.14521970396E-01  0.31107595619E-02 -0.18731471192E-01  0.23910114664E-01  0.51100000000E-03 0.  1.
         11    1    4    4    0    0  0.89694493713E-01  0.28962711395E-01 -0.53382752225E-01  0.10832322101E+00  0.51100000000E-03 0. -1.
</event>
<event>
 8    1  0.1116841E+005  0.1043930E+01  0.7957747E-01            NaN
         13   -1    0    0    0    0  0.00000000000E+00  0.00000000000E+00  0.74505805969E-08  0.10566000000E+00  0.10566000000E+00 0.  1.
     999900   -1    0    0    0    0 -0.00000000000E+00 -0.00000000000E+00 -0.74505805969E-08  0.93827000000E+00  0.93827000000E+00 0.  1.
     999902    2    1    2    0    0 -0.29496470152E-02 -0.21606344586E-01 -0.10199035095E-01  0.10198560543E+01  0.10195718791E+01 0.  0.
     999903    2    3    3    0    0  0.47411663305E-02  0.78462929661E-01  0.99621536929E-01  0.12736876236E+00  0.10928907401E-01 0.  0.
         14    1    1    2    0    0  0.29496470152E-02  0.21606344586E-01  0.10199035095E-01  0.24073945683E-01  0.00000000000E+00 0.  1.
     999901    1    3    3    0    0 -0.76908133457E-02 -0.10006927425E+00 -0.10982057202E+00  0.89248729195E+00  0.88000000000E+00 0.  1.
        -11    1    4    4    0    0  0.62216708751E-02  0.50416326505E-01  0.57345798718E-01  0.76611467277E-01  0.51100000000E-03 0.  1.
         11    1    4    4    0    0 -0.14805045446E-02  0.28046603156E-01  0.42275738211E-01  0.50757295087E-01  0.51100000000E-03 0. -1.
</event>
<event>
 8    1  0.1116841E+005  0.1043930E+01  0.7957747E-01            NaN
         13   -1    0    0    0    0  0.00000000000E+00  0.00000000000E+00  0.74505805969E-08  0.10566000000E+00  0.10566000000E+00 0. -1.
     999900   -1    0    0    0    0 -0.00000000000E+00 -0.00000000000E+00 -0.74505805969E-08  0.93827000000E+00  0.93827000000E+00 0.  1.
     999902    2    1    2    0    0 -0.74647094462E-02  0.49089613245E-03 -0.22405442432E-01  0.10203086809E+01  0.10200352139E+01 0.  0.
     999903    2    3    3    0    0  0.89876102688E-01  0.57269612997E-01 -0.74496016517E-01  0.13159473123E+00  0.20248318565E-01 0.  0.
         14    1    1    2    0    0  0.74647094462E-02 -0.49089613245E-03  0.22405442432E-01  0.23621319114E-01  0.00000000000E+00 0. -1.
     999901    1    3    3    0    0 -0.97340812134E-01 -0.56778716864E-01  0.52090574085E-01  0.88871394965E+00  0.88000000000E+00 0.  1.
        -11    1    4    4    0    0  0.99268560930E-02  0.12389328354E-01 -0.53608356639E-02  0.16764176358E-01  0.51100000000E-03 0. -1.
         11    1    4    4    0    0  0.79949246595E-01  0.44880284643E-01 -0.69135180853E-01  0.11483055488E+00  0.51100000000E-03 0.  1.
</event>
<event>
 8    1  0.1116841E+005  0.1043930E+01  0.7957747E-01            NaN
         13   -1    0    0    0    0  0.00000000000E+00  0.00000000000E+00  0.74505805969E-08  0.10566000000E+00  0.10566000000E+00 0.  1.
     999900   -1    0    0    0    0 -0.00000000000E+00 -0.00000000000E+00 -0.74505805969E-08  0.93827000000E+00  0.93827000000E+00 0.  1.
     999902    2    1    2    0    0  0.97932410073E-02 -0.20528737632E-01  0.56439571780E-02  0.10204951778E+01  0.10202260617E+01 0.  0.
     999903    2    3    3    0    0  0.12168669473E+00 -0.41633696089E-01 -0.27029773347E-01  0.13255760291E+00  0.17317422413E-01 0.  0.
         14    1    1    2    0    0 -0.97932410073E-02  0.20528737632E-01 -0.56439571780E-02  0.23434822184E-01  0.00000000000E+00 0. -1.
     999901    1    3    3    0    0 -0.11189345372E+00  0.21104958457E-01  0.32673730525E-01  0.88793757490E+00  0.88000000000E+00 0. -1.
        -11    1    4    4    0    0  0.62138458786E-01 -0.13569713905E-01 -0.18047049795E-01  0.66115673808E-01  0.51100000000E-03 0. -1.
         11    1    4    4    0    0  0.59548235942E-01 -0.28063982184E-01 -0.89827235525E-02  0.66441929105E-01  0.51100000000E-03 0.  1.
</event>
<event>
 8    1  0.1116841E+005  0.1043930E+01  0.7957747E-01            NaN
         13   -1    0    0    0    0  0.00000000000E+00  0.00000000000E+00  0.74505805969E-08  0.10566000000E+00  0.10566000000E+00 0. -1.
     999900   -1    0    0    0    0 -0.00000000000E+00 -0.00000000000E+00 -0.74505805969E-08  0.93827000000E+00  0.93827000000E+00 0. -1.
     999902    2    1    2    0    0  0.16669680681E-01 -0.12813139900E-01  0.11897598643E-01  0.10197720270E+01  0.10194858407E+01 0.  0.
     999903    2    3    3    0    0  0.12750552109E-01 -0.10860305272E+00 -0.69076885036E-01  0.13086936976E+00  0.19949342208E-01 0.  0.
         14    1    1    2    0    0 -0.16669680681E-01  0.12813139900E-01 -0.11897598643E-01  0.24157973044E-01  0.00000000000E+00 0.  1.
     999901    1    3    3    0    0  0.39191285722E-02  0.95789912824E-01  0.80974483678E-01  0.88890265720E+00  0.88000000000E+00 0.  1.
        -11    1    4    4    0    0  0.11898300240E-01 -0.90690557139E-01 -0.48367078944E-01  0.10346971610E+00  0.51100000000E-03 0. -1.
         11    1    4    4    0    0  0.85225186915E-03 -0.17912495585E-01 -0.20709806092E-01  0.27399653660E-01  0.51100000000E-03 0.  1.
</event>
<event>
 8    1  0.1116841E+005  0.1043930E+01  0.7957747E-01            NaN
         13   -1    0    0    0    0  0.00000000000E+00  0.00000000000E+00  0.74505805969E-08  0.10566000000E+00  0.10566000000E+00 0. -1.
     999900   -1    0    0    0    0 -0.00000000000E+00 -0.00000000000E+00 -0.74505805969E-08  0.93827000000E+00  0.93827000000E+00 0.  1.
     999902    2    1    2    0    0  0.17429315051E-01  0.11942398176E-01 -0.11163789539E-01  0.10200337222E+01  0.10197537753E+01 0.  0.
     999903    2    3    3    0    0 -0.68520164783E-01 -0.11438854642E-01 -0.10792758199E+00  0.13026002757E+00  0.22213767141E-01 0.  0.
         14    1    1    2    0    0 -0.17429315051E-01 -0.11942398176E-01  0.11163789539E-01  0.23896277832E-01  0.00000000000E+00 0. -1.
     999901    1    3    3    0    0  0.85949479835E-01  0.23381252818E-01  0.96763792453E-01  0.88977369460E+00  0.88000000000E+00 0. -1.
        -11    1    4    4    0    0 -0.27365726279E-01 -0.82700320412E-02 -0.26583149578E-01  0.39041021596E-01  0.51100000000E-03 0. -1.
         11    1    4    4    0    0 -0.41154438504E-01 -0.31688226008E-02 -0.81344432414E-01  0.91219005975E-01  0.51100000000E-03 0.  1.
</event>
<event>
 8    1  0.1116841E+005  0.1043930E+01  0.7957747E-01            NaN
         13   -1    0    0    0    0  0.00000000000E+00  0.00000000000E+00  0.74505805969E-08  0.10566000000E+00  0.10566000000E+00 0. -1.
     999900   -1    0    0    0    0 -0.00000000000E+00 -0.00000000000E+00 -0.74505805969E-08  0.93827000000E+00  0.93827000000E+00 0.  1.
     999902    2    1    2    0    0 -0.42232194728E-02 -0.16121921088E-01 -0.15481814339E-01  0.10211827255E+01  0.10209293415E+01 0.  0.
     999903    2    3    3    0    0 -0.65588281413E-01  0.34319976886E-01  0.10483950745E+00  0.12944998729E+00  0.16920207292E-01 0.  0.
         14    1    1    2    0    0  0.42232194728E-02  0.16121921088E-01  0.15481814339E-01  0.22747274508E-01  0.00000000000E+00 0. -1.
     999901    1    3    3    0    0  0.61365061940E-01 -0.50441897975E-01 -0.12032132179E+00  0.89173273820E+00  0.88000000000E+00 0.  1.
        -11    1    4    4    0    0 -0.61106178873E-01  0.25979677518E-01  0.90127811765E-01  0.11194727471E+00  0.51100000000E-03 0. -1.
         11    1    4    4    0    0 -0.44821025400E-02  0.83402993680E-02  0.14711695689E-01  0.17502712583E-01  0.51100000000E-03 0.  1.
</event>
<event>
 8    1  0.1116841E+005  0.1043930E+01  0.7957747E-01            NaN
         13   -1    0    0    0    0  0.00000000000E+00  0.00000000000E+00  0.74505805969E-08  0.10566000000E+00  0.10566000000E+00 0. -1.
     999900   -1    0    0    0    0 -0.00000000000E+00 -0.00000000000E+00 -0.74505805969E-08  0.93827000000E+00  0.93827000000E+00 0.  1.
     999902    2    1    2    0    0 -0.18395732511E-01 -0.12386044467E-01 -0.10539429635E-01  0.10193760462E+01  0.10190802848E+01 0.  0.
     999903    2    3    3    0    0 -0.65968501649E-01 -0.96258153080E-01 -0.61399693227E-01  0.13264921935E+00  0.14436683216E-01 0.  0.
         14    1    1    2    0    0  0.18395732511E-01  0.12386044467E-01  0.10539429635E-01  0.24553953840E-01  0.00000000000E+00 0.  1.
     999901    1    3    3    0    0  0.47572769138E-01  0.83872108614E-01  0.50860263591E-01  0.88672682681E+00  0.88000000000E+00 0. -1.
        -11    1    4    4    0    0 -0.18751779065E-01 -0.36972757497E-01 -0.16996522121E-01  0.44808000405E-01  0.51100000000E-03 0.  1.
         11    1    4    4    0    0 -0.47216722584E-01 -0.59285395583E-01 -0.44403171106E-01  0.87841218948E-01  0.51100000000E-03 0. -1.
</event>
<event>
 8    1  0.1116841E+005  0.1043930E+01  0.7957747E-01            NaN
         13   -1    0    0    0    0  0.00000000000E+00  0.00000000000E+00  0.74505805969E-08  0.10566000000E+00  0.10566000000E+00 0. -1.
     999900   -1    0    0    0    0 -0.00000000000E+00 -0.00000000000E+00 -0.74505805969E-08  0.93827000000E+00  0.93827000000E+00 0.  1.
     999902    2    1    2    0    0  0.61005939396E-02  0.16280891371E-01 -0.18850387794E-01  0.10182858625E+01  0.10179629050E+01 0.  0.
     999903    2    3    3    0    0 -0.14720374332E-01 -0.92852631443E-01  0.80929534792E-01  0.12570551791E+00  0.20346671608E-01 0.  0.
         14    1    1    2    0    0 -0.61005939396E-02 -0.16280891371E-01  0.18850387794E-01  0.25644137541E-01  0.00000000000E+00 0. -1.
     999901    1    3    3    0    0  0.20820968271E-01  0.10913352281E+00 -0.99779922585E-01  0.89258034455E+00  0.88000000000E+00 0. -1.
        -11    1    4    4    0    0 -0.15074009283E-01 -0.39232003682E-01  0.29054320006E-01  0.51095895146E-01  0.51100000000E-03 0. -1.
         11    1    4    4    0    0  0.35363495170E-03 -0.53620627761E-01  0.51875214786E-01  0.74609622766E-01  0.51100000000E-03 0.  1.
</event>
<event>
 8    1  0.1116841E+005  0.1043930E+01  0.7957747E-01            NaN
         13   -1    0    0    0    0  0.00000000000E+00  0.00000000000E+00  0.74505805969E-08  0.10566000000E+00  0.10566000000E+00 0. -1.
     999900   -1    0    0    0    0 -0.00000000000E+00 -0.00000000000E+00 -0.74505805969E-08  0.93827000000E+00  0.93827000000E+00 0.  1.
     999902    2    1    2    0    0 -0.25372229158E-02  0.16010895135E-01  0.16873300050E-01  0.10205313992E+01  0.10202631241E+01 0.  0.
     999903    2    3    3    0    0  0.28842042446E-01  0.85348547418E-01 -0.92248302963E-01  0.13053145959E+00  0.20309470336E-01 0.  0.
         14    1    1    2    0    0  0.25372229158E-02 -0.16010895135E-01 -0.16873300050E-01  0.23398600764E-01  0.00000000000E+00 0.  1.
     999901    1    3    3    0    0 -0.31379265362E-01 -0.69337652284E-01  0.10912160301E+00  0.88999993964E+00  0.88000000000E+00 0. -1.
        -11    1    4    4    0    0  0.30296024717E-01  0.74118277423E-01 -0.86316455125E-01  0.11773767328E+00  0.51100000000E-03 0. -1.
         11    1    4    4    0    0 -0.14539822705E-02  0.11230269995E-01 -0.59318478375E-02  0.12793786319E-01  0.51100000000E-03 0.  1.
</event>
<event>
 8    1  0.1116841E+005  0.1043930E+01  0.7957747E-01            NaN
         13   -1    0    0    0    0  0.00000000000E+00  0.00000000000E+00  0.74505805969E-08  0.10566000000E+00  0.10566000000E+00 0. -1.
     999900   -1    0    0    0    0 -0.00000000000E+00 -0.00000000000E+00 -0.74505805969E-08  0.93827000000E+00  0.93827000000E+00 0. -1.
     999902    2    1    2    0    0 -0.41778196441E-02 -0.79493785330E-02 -0.22008693488E-01  0.10201596532E+01  0.10198826838E+01 0.  0.
     999903    2    3    3    0    0  0.91088254006E-01 -0.20464505590E-01  0.86042816535E-01  0.12835957362E+00  0.18893063689E-01 0.  0.
         14    1    1    2    0    0  0.41778196441E-02  0.79493785330E-02  0.22008693488E-01  0.23770346760E-01  0.00000000000E+00 0. -1.
     999901    1    3    3    0    0 -0.95266073651E-01  0.12515127057E-01 -0.10805151002E+00  0.89180007962E+00  0.88000000000E+00 0. -1.
        -11    1    4    4    0    0  0.25319207315E-01 -0.12118550882E-01  0.33880922490E-01  0.44001131398E-01  0.51100000000E-03 0.  1.
         11    1    4    4    0    0  0.65769046692E-01 -0.83459547081E-02  0.52161894044E-01  0.84358442221E-01  0.51100000000E-03 0. -1.
</event>
<event>
 8    1  0.1116841E+005  0.1043930E+01  0.7957747E-01            NaN
         13   -1    0    0    0    0  0.00000000000E+00  0.00000000000E+00  0.74505805969E-08  0.10566000000E+00  0.10566000000E+00 0. -1.
     999900   -1    0    0    0    0 -0.00000000000E+00 -0.00000000000E+00 -0.74505805969E-08  0.93827000000E+00  0.93827000000E+00 0.  1.
     999902    2    1    2    0    0  0.17898891322E-01 -0.95595425295E-02  0.17122135224E-01  0.10173796200E+01  0.10170331206E+01 0.  0.
     999903    2    3    3    0    0 -0.11403857104E+00  0.26222488727E-02  0.51524957233E-01  0.12679585404E+00  0.20265623840E-01 0.  0.
         14    1    1    2    0    0 -0.17898891322E-01  0.95595425295E-02 -0.17122135224E-01  0.26550380008E-01  0.00000000000E+00 0.  1.
     999901    1    3    3    0    0  0.13193746236E+00 -0.12181791402E-01 -0.34402822009E-01  0.89058376595E+00  0.88000000000E+00 0.  1.
        -11    1    4    4    0    0 -0.96806128406E-01  0.83596649245E-02  0.38872259131E-01  0.10465478558E+00  0.51100000000E-03 0.  1.
         11    1    4    4    0    0 -0.17232442634E-01 -0.57374160518E-02  0.12652698102E-01  0.22141068455E-01  0.51100000000E-03 0. -1.
</event>
<event>
 8    1  0.1116841E+005  0.1043930E+01  0.7957747E-01            NaN
         13   -1    0    0    0    0  0.00000000000E+00  0.00000000000E+00  0.74505805969E-08  0.10566000000E+00  0.10566000000E+00 0. -1.
     999900   -1    0    0    0    0 -0.00000000000E+00 -0.00000000000E+00 -0.74505805969E-08  0.93827000000E+00  0.93827000000E+00 0. -1.
     999902    2    1    2    0    0 -0.18544987196E-01 -0.35904893788E-03 -0.14548595735E-01  0.10203565593E+01  0.10200842128E+01 0.  0.
     999903    2    3    3    0    0 -0.22112657797E-01  0.75123520605E-01 -0.10508901845E+00  0.13248950020E+00  0.19422998767E-01 0.  0.
         14    1    1    2    0    0  0.18544987196E-01  0.35904893788E-03  0.14548595735E-01  0.23573440650E-01  0.00000000000E+00 0. -1.
     999901    1    3    3    0    0  0.35676706010E-02 -0.75482569542E-01  0.90540422717E-01  0.88786705915E+00  0.88000000000E+00 0.  1.
        -11    1    4    4    0    0 -0.25043998312E-01  0.65119951041E-01 -0.86095743216E-01  0.11081763396E+00  0.51100000000E-03 0. -1.
         11    1    4    4    0    0  0.29313405152E-02  0.10003569563E-01 -0.18993275236E-01  0.21671866242E-01  0.51100000000E-03 0.  1.
</event>
<event>
 8    1  0.1116841E+005  0.1043930E+01  0.7957747E-01            NaN
         13   -1    0    0    0    0  0.00000000000E+00  0.00000000000E+00  0.74505805969E-08  0.10566000000E+00  0.10566000000E+00 0.  1.
     999900   -1    0    0    0    0 -0.00000000000E+00 -0.00000000000E+00 -0.74505805969E-08  0.93827000000E+00  0.93827000000E+00 0.  1.
     999902    2    1    2    0    0 -0.20621742121E-01  0.25860423351E-02  0.10857381589E-01  0.10204816184E+01  0.10202121872E+01 0.  0.
     999903    2    3    3    0    0  0.12317832935E-02 -0.12600383773E+00 -0.25298050841E-01  0.13013328822E+00  0.20400904703E-01 0.  0.
         14    1    1    2    0    0  0.20621742121E-01 -0.25860423351E-02 -0.10857381589E-01  0.23448381565E-01  0.00000000000E+00 0. -1.
     999901    1    3    3    0    0 -0.21853525415E-01  0.12858988007E+00  0.36155432429E-01  0.89034833022E+00  0.88000000000E+00 0.  1.
        -11    1    4    4    0    0 -0.31570968520E-02 -0.28525175323E-01  0.21013999642E-02  0.28780720813E-01  0.51100000000E-03 0. -1.
         11    1    4    4    0    0  0.43888801455E-02 -0.97478662408E-01 -0.27399450805E-01  0.10135256740E+00  0.51100000000E-03 0.  1.
</event>
<event>
 7    1  0.1356538E+005  0.1043930E+01  0.7957747E-01            NaN
         13   -1    0    0    0    0  0.00000000000E+00  0.00000000000E+00  0.74505805969E-08  0.10566000000E+00  0.10566000000E+00 0. -1.
     999900   -1    0    0    0    0 -0.00000000000E+00 -0.00000000000E+00 -0.74505805969E-08  0.93827000000E+00  0.93827000000E+00 0.  1.
     999903    2    1    2    0    0  0.75071956760E-01  0.11348513795E-01  0.46519882573E-01  0.92812075697E-01  0.26180039411E-01 0.  0.
         14    1    1    2    0    0  0.28503665476E-01  0.15055360809E-01 -0.55982096104E-01  0.64599674293E-01  0.00000000000E+00 0.  1.
     999901    1    1    2    0    0 -0.10357562224E+00 -0.26403874603E-01  0.94622135311E-02  0.88651825001E+00  0.88000000000E+00 0.  1.
        -11    1    3    3    0    0  0.21450026230E-01 -0.82793801877E-02  0.16444563361E-01  0.28272540507E-01  0.51100000000E-03 0. -1.
         11    1    3    3    0    0  0.53621930529E-01  0.19627893983E-01  0.30075319211E-01  0.64539535190E-01  0.51100000000E-03 0.  1.
</event>
<event>
 7    1  0.1116841E+005  0.1043930E+01  0.7957747E-01            NaN
         13   -1    0    0    0    0  0.00000000000E+00  0.00000000000E+00  0.74505805969E-08  0.10566000000E+00  0.10566000000E+00 0. -1.
     999900   -1    0    0    0    0 -0.00000000000E+00 -0.00000000000E+00 -0.74505805969E-08  0.93827000000E+00  0.93827000000E+00 0. -1.
     999903    2    1    2    0    0  0.57032757851E-01 -0.68550032168E-01 -0.42230442138E-01  0.10110790481E+00  0.22080665605E-01 0.  0.
         14    1    1    2    0    0  0.13466030432E-01  0.36154202811E-01  0.45170003322E-01  0.59403615687E-01  0.00000000000E+00 0. -1.
     999901    1    1    2    0    0 -0.70498788283E-01  0.32395829357E-01 -0.29395611844E-02  0.88341847950E+00  0.88000000000E+00 0. -1.
        -11    1    3    3    0    0  0.63154879388E-02 -0.12423610155E-01  0.99390716538E-03  0.13981432317E-01  0.51100000000E-03 0. -1.
         11    1    3    3    0    0  0.50717269912E-01 -0.56126422013E-01 -0.43224349303E-01  0.87126472493E-01  0.51100000000E-03 0.  1.
</event>
<event>
 8    1  0.1116841E+005  0.1043930E+01  0.7957747E-01            NaN
         13   -1    0    0    0    0  0.00000000000E+00  0.00000000000E+00  0.74505805969E-08  0.10566000000E+00  0.10566000000E+00 0.  1.
     999900   -1    0    0    0    0 -0.00000000000E+00 -0.00000000000E+00 -0.74505805969E-08  0.93827000000E+00  0.93827000000E+00 0. -1.
     999902    2    1    2    0    0 -0.18895810781E-01 -0.15031665470E-01  0.82487118297E-02  0.10184144385E+01  0.10180947523E+01 0.  0.
     999903    2    3    3    0    0 -0.10035834787E+00 -0.44969099948E-01  0.70259187088E-01  0.13197341171E+00  0.19662402980E-01 0.  0.
         14    1    1    2    0    0  0.18895810781E-01  0.15031665470E-01 -0.82487118297E-02  0.25515561501E-01  0.00000000000E+00 0. -1.
     999901    1    3    3    0    0  0.81462537089E-01  0.29937434478E-01 -0.62010475258E-01  0.88644102679E+00  0.88000000000E+00 0. -1.
        -11    1    4    4    0    0 -0.29260644132E-01 -0.21982907071E-01  0.17992861502E-01  0.40785263078E-01  0.51100000000E-03 0.  1.
         11    1    4    4    0    0 -0.71097703738E-01 -0.22986192877E-01  0.52266325585E-01  0.91188148632E-01  0.51100000000E-03 0. -1.
</event>
<event>
 8    1  0.1116841E+005  0.1043930E+01  0.7957747E-01            NaN
         13   -1    0    0    0    0  0.00000000000E+00  0.00000000000E+00  0.74505805969E-08  0.10566000000E+00  0.10566000000E+00 0. -1.
     999900   -1    0    0    0    0 -0.00000000000E+00 -0.00000000000E+00 -0.74505805969E-08  0.93827000000E+00  0.93827000000E+00 0. -1.
     999902    2    1    2    0    0 -0.20198782068E-01 -0.32012215601E-02  0.13171133868E-01  0.10196047583E+01  0.10193145470E+01 0.  0.
     999903    2    3    3    0    0 -0.19141620234E-01 -0.11443182148E+00  0.58426475198E-01  0.13144857278E+00  0.20100519677E-01 0.  0.
         14    1    1    2    0    0  0.20198782068E-01  0.32012215601E-02 -0.13171133868E-01  0.24325241702E-01  0.00000000000E+00 0.  1.
     999901    1    3    3    0    0 -0.10571618338E-02  0.11123059992E+00 -0.45255341331E-01  0.88815618551E+00  0.88000000000E+00 0.  1.
        -11    1    4    4    0    0 -0.48232076416E-02 -0.79298098991E-01  0.34666256918E-01  0.86680230302E-01  0.51100000000E-03 0.  1.
         11    1    4    4    0    0 -0.14318412592E-01 -0.35133722485E-01  0.23760218281E-01  0.44768342482E-01  0.51100000000E-03 0. -1.
</event>
<event>
 8    1  0.1116841E+005  0.1043930E+01  0.7957747E-01            NaN
         13   -1    0    0    0    0  0.00000000000E+00  0.00000000000E+00  0.74505805969E-08  0.10566000000E+00  0.10566000000E+00 0. -1.
     999900   -1    0    0    0    0 -0.00000000000E+00 -0.00000000000E+00 -0.74505805969E-08  0.93827000000E+00  0.93827000000E+00 0. -1.
     999902    2    1    2    0    0  0.96126549669E-02  0.19559038061E-01  0.97393844357E-02  0.10200592079E+01  0.10197798649E+01 0.  0.
     999903    2    3    3    0    0 -0.12452277208E+00  0.19831836870E-01 -0.21155303205E-01  0.12935899520E+00  0.19671814025E-01 0.  0.
         14    1    1    2    0    0 -0.96126549669E-02 -0.19559038061E-01 -0.97393844357E-02  0.23870792081E-01  0.00000000000E+00 0.  1.
     999901    1    3    3    0    0  0.13413542704E+00 -0.27279880955E-03  0.30894687641E-01  0.89070021272E+00  0.88000000000E+00 0.  1.
        -11    1    4    4    0    0 -0.81869774918E-01  0.45329274701E-02 -0.17884349715E-01  0.83924481305E-01  0.51100000000E-03 0. -1.
         11    1    4    4    0    0 -0.42652997159E-01  0.15298909400E-01 -0.32709534896E-02  0.45434513899E-01  0.51100000000E-03 0.  1.
</event>
<event>
 8    1  0.1116841E+005  0.1043930E+01  0.7957747E-01            NaN
         13   -1    0    0    0    0  0.00000000000E+00  0.00000000000E+00  0.74505805969E-08  0.10566000000E+00  0.10566000000E+00 0. -1.
     999900   -1    0    0    0    0 -0.00000000000E+00 -0.00000000000E+00 -0.74505805969E-08  0.93827000000E+00  0.93827000000E+00 0.  1.
     999902    2    1    2    0    0  0.13748515515E-02 -0.75159281765E-02 -0.22690362084E-01  0.10199877377E+01  0.10197066996E+01 0.  0.
     999903    2    3    3    0    0  0.53636252879E-01  0.55299859601E-01  0.98433779804E-01  0.12794057805E+00  0.27288466636E-01 0.  0.
         14    1    1    2    0    0 -0.13748515515E-02  0.75159281765E-02  0.22690362084E-01  0.23942262312E-01  0.00000000000E+00 0. -1.
     999901    1    3    3    0    0 -0.52261401328E-01 -0.62815787778E-01 -0.12112414189E+00  0.89204715963E+00  0.88000000000E+00 0.  1.
        -11    1    4    4    0    0  0.19362544148E-01  0.14086025948E-01  0.13464270405E-01  0.27474932965E-01  0.51100000000E-03 0.  1.
         11    1    4    4    0    0  0.34273708731E-01  0.41213833653E-01  0.84969509399E-01  0.10046564509E+00  0.51100000000E-03 0. -1.
</event>
<event>
 8    1  0.1116841E+005  0.1043930E+01  0.7957747E-01            NaN
         13   -1    0    0    0    0  0.00000000000E+00  0.00000000000E+00  0.74505805969E-08  0.10566000000E+00  0.10566000000E+00 0. -1.
     999900   -1    0    0    0    0 -0.00000000000E+00 -0.00000000000E+00 -0.74505805969E-08  0.93827000000E+00  0.93827000000E+00 0.  1.
     999902    2    1    2    0    0 -0.21325471197E-01 -0.75424329074E-02 -0.16149488078E-01  0.10161366558E+01  0.10157564833E+01 0.  0.
     999903    2    3    3    0    0 -0.10394815317E+00  0.31892421781E-01  0.63973115703E-01  0.12776666140E+00  0.20234008941E-01 0.  0.
         14    1    1    2    0    0  0.21325471197E-01  0.75424329074E-02  0.16149488078E-01  0.27793344187E-01  0.00000000000E+00 0.  1.
     999901    1    3    3    0    0  0.82622681972E-01 -0.39434854688E-01 -0.80122603781E-01  0.88836999442E+00  0.88000000000E+00 0.  1.
        -11    1    4    4    0    0 -0.73279132279E-01  0.22828317110E-01  0.55381039085E-01  0.94648211292E-01  0.51100000000E-03 0.  1.
         11    1    4    4    0    0 -0.30669020889E-01  0.90641046709E-02  0.85920766181E-02  0.33118450106E-01  0.51100000000E-03 0. -1.
</event>
<event>
 8    1  0.1116841E+005  0.1043930E+01  0.7957747E-01            NaN
         13   -1    0    0    0    0  0.00000000000E+00  0.00000000000E+00  0.74505805969E-08  0.10566000000E+00  0.10566000000E+00 0.  1.
     999900   -1    0    0    0    0 -0.00000000000E+00 -0.00000000000E+00 -0.74505805969E-08  0.93827000000E+00  0.93827000000E+00 0. -1.
     999902    2    1    2    0    0 -0.98876448263E-02 -0.94809191039E-02 -0.17522047434E-01  0.10216886985E+01  0.10214465826E+01 0.  0.
     999903    2    3    3    0    0 -0.61899919339E-01  0.11048753941E+00  0.26448094344E-01  0.13094121399E+00  0.20174326457E-01 0.  0.
         14    1    1    2    0    0  0.98876448263E-02  0.94809191039E-02  0.17522047434E-01  0.22241301526E-01  0.00000000000E+00 0.  1.
     999901    1    3    3    0    0  0.52012274513E-01 -0.11996845852E+00 -0.43970141778E-01  0.89074748448E+00  0.88000000000E+00 0.  1.
        -11    1    4    4    0    0 -0.65528015619E-02  0.30683758881E-02  0.29852305122E-02  0.78439059856E-02  0.51100000000E-03 0. -1.
         11    1    4    4    0    0 -0.55347117777E-01  0.10741916353E+00  0.23462863832E-01  0.12309730801E+00  0.51100000000E-03 0.  1.
</event>
<event>
 8    1  0.1116841E+005  0.1043930E+01  0.7957747E-01            NaN
         13   -1    0    0    0    0  0.00000000000E+00  0.00000000000E+00  0.74505805969E-08  0.10566000000E+00  0.10566000000E+00 0. -1.
     999900   -1    0    0    0    0 -0.00000000000E+00 -0.00000000000E+00 -0.74505805969E-08  0.93827000000E+00  0.93827000000E+00 0.  1.
     999902    2    1    2    0    0  0.22449705691E-01  0.98149284522E-03  0.18279341877E-01  0.10149630023E+01  0.10145495597E+01 0.  0.
     999903    2    3    3    0    0 -0.84833076567E-01  0.42850411400E-01 -0.74809500613E-01  0.12259080740E+00  0.19980891870E-01 0.  0.
         14    1    1    2    0    0 -0.22449705691E-01 -0.98149284522E-03 -0.18279341877E-01  0.28966997658E-01  0.00000000000E+00 0.  1.
     999901    1    3    3    0    0  0.10728278226E+00 -0.41868918555E-01  0.93088842490E-01  0.89237219494E+00  0.88000000000E+00 0. -1.
        -11    1    4    4    0    0 -0.18513116791E-01  0.16017049813E-01 -0.27488903426E-01  0.36812800906E-01  0.51100000000E-03 0. -1.
         11    1    4    4    0    0 -0.66319959777E-01  0.26833361587E-01 -0.47320597187E-01  0.85778006494E-01  0.51100000000E-03 0.  1.
</event>
<event>
 8    1  0.1116841E+005  0.1043930E+01  0.7957747E-01            NaN
         13   -1    0    0    0    0  0.00000000000E+00  0.00000000000E+00  0.74505805969E-08  0.10566000000E+00  0.10566000000E+00 0. -1.
     999900   -1    0    0    0    0 -0.00000000000E+00 -0.00000000000E+00 -0.74505805969E-08  0.93827000000E+00  0.93827000000E+00 0.  1.
     999902    2    1    2    0    0  0.14146025944E-01 -0.19043951676E-01  0.14360010391E-03  0.10202065355E+01  0.10199306704E+01 0.  0.
     999903    2    3    3    0    0  0.60319756357E-01  0.77503170531E-01  0.82477461060E-01  0.12990758302E+00  0.20693817749E-01 0.  0.
         14    1    1    2    0    0 -0.14146025944E-01  0.19043951676E-01 -0.14360010391E-03  0.23723464470E-01  0.00000000000E+00 0.  1.
     999901    1    3    3    0    0 -0.46173730412E-01 -0.96547122207E-01 -0.82333860956E-01  0.89029895251E+00  0.88000000000E+00 0.  1.
        -11    1    4    4    0    0  0.53385046833E-01  0.62762249212E-01  0.76826312244E-01  0.11265703052E+00  0.51100000000E-03 0. -1.
         11    1    4    4    0    0  0.69347095240E-02  0.14740921318E-01  0.56511488157E-02  0.17250552496E-01  0.51100000000E-03 0.  1.
</event>
<event>
 8    1  0.1116841E+005  0.1043930E+01  0.7957747E-01            NaN
         13   -1    0    0    0    0  0.00000000000E+00  0.00000000000E+00  0.74505805969E-08  0.10566000000E+00  0.10566000000E+00 0.  1.
     999900   -1    0    0    0    0 -0.00000000000E+00 -0.00000000000E+00 -0.74505805969E-08  0.93827000000E+00  0.93827000000E+00 0. -1.
     999902    2    1    2    0    0 -0.13984519474E-01 -0.60440456509E-02 -0.18224158745E-01  0.10201767427E+01  0.10199001760E+01 0.  0.
     999903    2    3    3    0    0 -0.12828244649E+00  0.15674466701E-01 -0.21373502152E-01  0.13251372761E+00  0.20024645484E-01 0.  0.
         14    1    1    2    0    0  0.13984519474E-01  0.60440456509E-02  0.18224158745E-01  0.23753257350E-01  0.00000000000E+00 0.  1.
     999901    1    3    3    0    0  0.11429792702E+00 -0.21718512352E-01  0.31493434071E-02  0.88766301504E+00  0.88000000000E+00 0.  1.
        -11    1    4    4    0    0 -0.63957216701E-01 -0.71388607895E-03 -0.15878479194E-01  0.65904646452E-01  0.51100000000E-03 0. -1.
         11    1    4    4    0    0 -0.64325229794E-01  0.16388352780E-01 -0.54950229584E-02  0.66609081162E-01  0.51100000000E-03 0.  1.
</event>
<event>
 8    1  0.1116841E+005  0.1043930E+01  0.7957747E-01            NaN
         13   -1    0    0    0    0  0.00000000000E+00  0.00000000000E+00  0.74505805969E-08  0.10566000000E+00  0.10566000000E+00 0.  1.
     999900   -1    0    0    0    0 -0.00000000000E+00 -0.00000000000E+00 -0.74505805969E-08  0.93827000000E+00  0.93827000000E+00 0. -1.
     999902    2    1    2    0    0  0.17100465178E-01 -0.14427176501E-01 -0.60786324256E-02  0.10207455418E+01  0.10204822105E+01 0.  0.
     999903    2    3    3    0    0  0.12423477366E+00 -0.38033952341E-01  0.23392493372E-01  0.13344424730E+00  0.19475571228E-01 0.  0.
         14    1    1    2    0    0 -0.17100465178E-01  0.14427176501E-01  0.60786324256E-02  0.23184458226E-01  0.00000000000E+00 0. -1.
     999901    1    3    3    0    0 -0.10713430848E+00  0.23606775839E-01 -0.29471125798E-01  0.88730129447E+00  0.88000000000E+00 0.  1.
        -11    1    4    4    0    0  0.11656689527E+00 -0.30649066461E-01  0.23430037543E-01  0.12278613166E+00  0.51100000000E-03 0. -1.
         11    1    4    4    0    0  0.76678783893E-02 -0.73848858791E-02 -0.37544170518E-04  0.10658115640E-01  0.51100000000E-03 0.  1.
</event>
<event>
 8    1  0.1116841E+005  0.1043930E+01  0.7957747E-01            NaN
         13   -1    0    0    0    0  0.00000000000E+00  0.00000000000E+00  0.74505805969E-08  0.10566000000E+00  0.10566000000E+00 0. -1.
     999900   -1    0    0    0    0 -0.00000000000E+00 -0.00000000000E+00 -0.74505805969E-08  0.93827000000E+00  0.93827000000E+00 0. -1.
     999902    2    1    2    0    0  0.62847161800E-02  0.23092870862E-01  0.26260077898E-02  0.10198535746E+01  0.10195693402E+01 0.  0.
     999903    2    3    3    0    0 -0.12641525943E-01 -0.84689231919E-01  0.93706167433E-01  0.12841048625E+00  0.19399303685E-01 0.  0.
         14    1    1    2    0    0 -0.62847161800E-02 -0.23092870862E-01 -0.26260077898E-02  0.24076425378E-01  0.00000000000E+00 0. -1.
     999901    1    3    3    0    0  0.18926242123E-01  0.10778210278E+00 -0.91080159643E-01  0.89144308837E+00  0.88000000000E+00 0.  1.
        -11    1    4    4    0    0 -0.64637078607E-02 -0.22768503079E-01  0.38636513947E-01  0.45312532293E-01  0.51100000000E-03 0.  1.
         11    1    4    4    0    0 -0.61778180827E-02 -0.61920728839E-01  0.55069653486E-01  0.83097953960E-01  0.51100000000E-03 0. -1.
</event>
<event>
 8    1  0.1116841E+005  0.1043930E+01  0.7957747E-01            NaN
         13   -1    0    0    0    0  0.00000000000E+00  0.00000000000E+00  0.74505805969E-08  0.10566000000E+00  0.10566000000E+00 0. -1.
     999900   -1    0    0    0    0 -0.00000000000E+00 -0.00000000000E+00 -0.74505805969E-08  0.93827000000E+00  0.93827000000E+00 0.  1.
     999902    2    1    2    0    0  0.22752127757E-01  0.12122350925E-01  0.57213690889E-02  0.10175227136E+01  0.10171799880E+01 0.  0.
     999903    2    3    3    0    0  0.12019608153E+00  0.38566525839E-01 -0.29248562221E-01  0.13105922616E+00  0.19661318353E-01 0.  0.
         14    1    1    2    0    0 -0.22752127757E-01 -0.12122350925E-01 -0.57213690889E-02  0.26407286375E-01  0.00000000000E+00 0. -1.
     999901    1    3    3    0    0 -0.97443953772E-01 -0.26444174914E-01  0.34969931310E-01  0.88646348747E+00  0.88000000000E+00 0.  1.
        -11    1    4    4    0    0  0.76146353031E-01  0.14908584306E-01 -0.14610873591E-01  0.78957404428E-01  0.51100000000E-03 0.  1.
         11    1    4    4    0    0  0.44049728498E-01  0.23657941533E-01 -0.14637688630E-01  0.52101821732E-01  0.51100000000E-03 0. -1.
</event>
<event>
 8    1  0.1116841E+005  0.1043930E+01  0.7957747E-01            NaN
         13   -1    0    0    0    0  0.00000000000E+00  0.00000000000E+00  0.74505805969E-08  0.10566000000E+00  0.10566000000E+00 0.  1.
     999900   -1    0    0    0    0 -0.00000000000E+00 -0.00000000000E+00 -0.74505805969E-08  0.93827000000E+00  0.93827000000E+00 0. -1.
     999902    2    1    2    0    0  0.86690881980E-02  0.21000288071E-01 -0.28454421341E-02  0.10210332376E+01  0.10207764743E+01 0.  0.
     999903    2    3    3    0    0 -0.79193502305E-01  0.82611021607E-01 -0.64192843688E-01  0.13239426645E+00  0.17644515022E-01 0.  0.
         14    1    1    2    0    0 -0.86690881980E-02 -0.21000288071E-01  0.28454421341E-02  0.22896762439E-01  0.00000000000E+00 0.  1.
     999901    1    3    3    0    0  0.87862590503E-01 -0.61610733536E-01  0.61347401553E-01  0.88863897111E+00  0.88000000000E+00 0.  1.
        -11    1    4    4    0    0 -0.63578628647E-01  0.60763286397E-01 -0.56204140802E-01  0.10437234097E+00  0.51100000000E-03 0. -1.
         11    1    4    4    0    0 -0.15614873658E-01  0.21847735210E-01 -0.79887028860E-02  0.28021925486E-01  0.51100000000E-03 0.  1.
</event>
<event>
 8    1  0.1116841E+005  0.1043930E+01  0.7957747E-01            NaN
         13   -1    0    0    0    0  0.00000000000E+00  0.00000000000E+00  0.74505805969E-08  0.10566000000E+00  0.10566000000E+00 0. -1.
     999900   -1    0    0    0    0 -0.00000000000E+00 -0.00000000000E+00 -0.74505805969E-08  0.93827000000E+00  0.93827000000E+00 0.  1.
     999902    2    1    2    0    0  0.15653624818E-01  0.17176338865E-01  0.40110519247E-02  0.10203471434E+01  0.10200745767E+01 0.  0.
     999903    2    3    3    0    0 -0.10988323545E+00 -0.59350914352E-01  0.19987755902E-01  0.12800686144E+00  0.19732960313E-01 0.  0.
         14    1    1    2    0    0 -0.15653624818E-01 -0.17176338865E-01 -0.40110519247E-02  0.23582856577E-01  0.00000000000E+00 0.  1.
     999901    1    3    3    0    0  0.12553686027E+00  0.76527253218E-01 -0.15976703978E-01  0.89234028198E+00  0.88000000000E+00 0. -1.
        -11    1    4    4    0    0 -0.27065444653E-01 -0.22352650466E-01  0.11318650898E-01  0.36885664645E-01  0.51100000000E-03 0.  1.
         11    1    4    4    0    0 -0.82817790801E-01 -0.36998263886E-01  0.86691050039E-02  0.91121196800E-01  0.51100000000E-03 0. -1.
</event>
<event>
 8    1  0.1116841E+005  0.1043930E+01  0.7957747E-01            NaN
         13   -1    0    0    0    0  0.00000000000E+00  0.00000000000E+00  0.74505805969E-08  0.10566000000E+00  0.10566000000E+00 0.  1.
     999900   -1    0    0    0    0 -0.00000000000E+00 -0.00000000000E+00 -0.74505805969E-08  0.93827000000E+00  0.93827000000E+00 0.  1.
     999902    2    1    2    0    0  0.22667534484E-01 -0.58508877342E-02 -0.27847471190E-02  0.10203544868E+01  0.10200820917E+01 0.  0.
     999903    2    3    3    0    0 -0.10938945844E+00 -0.15867390420E-02  0.63495149953E-01  0.12802592784E+00  0.19759371781E-01 0.  0.
         14    1    1    2    0    0 -0.22667534484E-01  0.58508877342E-02  0.27847471190E-02  0.23575513216E-01  0.00000000000E+00 0.  1.
     999901    1    3    3    0    0  0.13205699293E+00 -0.42641486922E-02 -0.66279897072E-01  0.89232855894E+00  0.88000000000E+00 0.  1.
        -11    1    4    4    0    0 -0.24038437815E-01  0.16197845003E-02  0.53063524872E-02  0.24675670044E-01  0.51100000000E-03 0. -1.
         11    1    4    4    0    0 -0.85351020629E-01 -0.32065235423E-02  0.58188797466E-01  0.10335025780E+00  0.51100000000E-03 0.  1.
</event>
<event>
 8    1  0.1116841E+005  0.1043930E+01  0.7957747E-01            NaN
         13   -1    0    0    0    0  0.00000000000E+00  0.00000000000E+00  0.74505805969E-08  0.10566000000E+00  0.10566000000E+00 0. -1.
     999900   -1    0    0    0    0 -0.00000000000E+00 -0.00000000000E+00 -0.74505805969E-08  0.93827000000E+00  0.93827000000E+00 0.  1.
     999902    2    1    2    0    0  0.63036998011E-02 -0.85275091461E-02 -0.21115024554E-01  0.10203016419E+01  0.10200280100E+01 0.  0.
     999903    2    3    3    0    0 -0.34443328334E-02 -0.12319532766E+00 -0.44519295405E-01  0.13250014799E+00  0.19630827000E-01 0.  0.
         14    1    1    2    0    0 -0.63036998011E-02  0.85275091461E-02  0.21115024554E-01  0.23628358075E-01  0.00000000000E+00 0. -1.
     999901    1    3    3    0    0  0.97480326345E-02  0.11466781851E+00  0.23404270851E-01  0.88780149394E+00  0.88000000000E+00 0.  1.
        -11    1    4    4    0    0  0.63143769699E-02 -0.24663976389E-01 -0.12991351010E-01  0.28587049688E-01  0.51100000000E-03 0. -1.
         11    1    4    4    0    0 -0.97587098033E-02 -0.98531351267E-01 -0.31527944395E-01  0.10391309830E+00  0.51100000000E-03 0.  1.
</event>
<event>
 8    1  0.1116841E+005  0.1043930E+01  0.7957747E-01            NaN
         13   -1    0    0    0    0  0.00000000000E+00  0.00000000000E+00  0.74505805969E-08  0.10566000000E+00  0.10566000000E+00 0.  1.
     999900   -1    0    0    0    0 -0.00000000000E+00 -0.00000000000E+00 -0.74505805969E-08  0.93827000000E+00  0.93827000000E+00 0.  1.
     999902    2    1    2    0    0  0.11608796618E-01  0.19370077284E-01  0.35087669294E-02  0.10210766524E+01  0.10208208729E+01 0.  0.
     999903    2    3    3    0    0  0.60623040525E-01  0.10992845418E+00 -0.40522785236E-01  0.13397914176E+00  0.23428534372E-01 0.  0.
         14    1    1    2    0    0 -0.11608796618E-01 -0.19370077284E-01 -0.35087669294E-02  0.22853347639E-01  0.00000000000E+00 0.  1.
     999901    1    3    3    0    0 -0.49014243907E-01 -0.90558376893E-01  0.44031552165E-01  0.88709751060E+00  0.88000000000E+00 0. -1.
        -11    1    4    4    0    0  0.45430213768E-01  0.58766033899E-01 -0.21721028522E-01  0.77391312590E-01  0.51100000000E-03 0.  1.
         11    1    4    4    0    0  0.15192826757E-01  0.51162420278E-01 -0.18801756714E-01  0.56587829169E-01  0.51100000000E-03 0. -1.
</event>
<event>
 8    1  0.1116841E+005  0.1043930E+01  0.7957747E-01            NaN
         13   -1    0    0    0    0  0.00000000000E+00  0.00000000000E+00  0.74505805969E-08  0.10566000000E+00  0.10566000000E+00 0.  1.
     999900   -1    0    0    0    0 -0.00000000000E+00 -0.00000000000E+00 -0.74505805969E-08  0.93827000000E+00  0.93827000000E+00 0.  1.
     999902    2    1    2    0    0 -0.13916577908E-01  0.15155138430E-01 -0.11237528411E-01  0.10204857810E+01  0.10202164465E+01 0.  0.
     999903    2    3    3    0    0  0.73507245653E-01  0.80829131725E-01  0.68208081663E-01  0.13016695982E+00  0.18826346585E-01 0.  0.
         14    1    1    2    0    0  0.13916577908E-01 -0.15155138430E-01  0.11237528411E-01  0.23444219038E-01  0.00000000000E+00 0.  1.
     999901    1    3    3    0    0 -0.87423823561E-01 -0.65673993294E-01 -0.79445610073E-01  0.89031882114E+00  0.88000000000E+00 0.  1.
        -11    1    4    4    0    0  0.38867670612E-01  0.47876441788E-01  0.28144736987E-01  0.67788176242E-01  0.51100000000E-03 0. -1.
         11    1    4    4    0    0  0.34639575040E-01  0.32952689936E-01  0.40063344675E-01  0.62378783578E-01  0.51100000000E-03 0.  1.
</event>
<event>
 8    1  0.1116841E+005  0.1043930E+01  0.7957747E-01            NaN
         13   -1    0    0    0    0  0.00000000000E+00  0.00000000000E+00  0.74505805969E-08  0.10566000000E+00  0.10566000000E+00 0.  1.
     999900   -1    0    0    0    0 -0.00000000000E+00 -0.00000000000E+00 -0.74505805969E-08  0.93827000000E+00  0.93827000000E+00 0.  1.
     999902    2    1    2    0    0 -0.40003261614E-02 -0.16208019272E-01 -0.18478689559E-01  0.10190268985E+01  0.10187225605E+01 0.  0.
     999903    2    3    3    0    0  0.90275593640E-01 -0.11800672005E-01  0.87345517156E-01  0.12767616139E+00  0.19571002856E-01 0.  0.
         14    1    1    2    0    0  0.40003261614E-02  0.16208019272E-01  0.18478689559E-01  0.24903101533E-01  0.00000000000E+00 0. -1.
     999901    1    3    3    0    0 -0.94275919801E-01 -0.44073472670E-02 -0.10582420672E+00  0.89135073708E+00  0.88000000000E+00 0.  1.
        -11    1    4    4    0    0  0.32476669368E-01 -0.86237220465E-02  0.21007272259E-01  0.39631669709E-01  0.51100000000E-03 0. -1.
         11    1    4    4    0    0  0.57798924272E-01 -0.31769499586E-02  0.66338244897E-01  0.88044491679E-01  0.51100000000E-03 0.  1.
</event>
<event>
 8    1  0.1116841E+005  0.1043930E+01  0.7957747E-01            NaN
         13   -1    0    0    0    0  0.00000000000E+00  0.00000000000E+00  0.74505805969E-08  0.10566000000E+00  0.10566000000E+00 0.  1.
     999900   -1    0    0    0    0 -0.00000000000E+00 -0.00000000000E+00 -0.74505805969E-08  0.93827000000E+00  0.93827000000E+00 0. -1.
     999902    2    1    2    0    0 -0.14999468796E-01 -0.40129843508E-03  0.17851979750E-01  0.10206096594E+01  0.10203431965E+01 0.  0.
     999903    2    3    3    0    0 -0.11745633708E+00 -0.24670266835E-01 -0.50413754813E-01  0.13170775075E+00  0.20019284374E-01 0.  0.
         14    1    1    2    0    0  0.14999468796E-01  0.40129843508E-03 -0.17851979750E-01  0.23320340597E-01  0.00000000000E+00 0. -1.
     999901    1    3    3    0    0  0.10245686829E+00  0.24268968399E-01  0.68265734563E-01  0.88890190865E+00  0.88000000000E+00 0.  1.
        -11    1    4    4    0    0 -0.51842055599E-01 -0.79211229517E-03 -0.21722204541E-01  0.56216914373E-01  0.51100000000E-03 0. -1.
         11    1    4    4    0    0 -0.65614281486E-01 -0.23878154539E-01 -0.28691550273E-01  0.75490836379E-01  0.51100000000E-03 0.  1.
</event>
<event>
 8    1  0.1116841E+005  0.1043930E+01  0.7957747E-01            NaN
         13   -1    0    0    0    0  0.00000000000E+00  0.00000000000E+00  0.74505805969E-08  0.10566000000E+00  0.10566000000E+00 0.  1.
     999900   -1    0    0    0    0 -0.00000000000E+00 -0.00000000000E+00 -0.74505805969E-08  0.93827000000E+00  0.93827000000E+00 0. -1.
     999902    2    1    2    0    0  0.18443318681E-01 -0.78943303745E-02  0.11812019958E-01  0.10206491007E+01  0.10203835487E+01 0.  0.
     999903    2    3    3    0    0  0.93699590220E-02 -0.10126853777E+00  0.83245882143E-01  0.13278432209E+00  0.18939018582E-01 0.  0.
         14    1    1    2    0    0 -0.18443318681E-01  0.78943303745E-02 -0.11812019958E-01  0.23280899285E-01  0.00000000000E+00 0. -1.
     999901    1    3    3    0    0  0.90733596586E-02  0.93374207393E-01 -0.71433862184E-01  0.88786477863E+00  0.88000000000E+00 0. -1.
        -11    1    4    4    0    0  0.11110036068E-01 -0.74219904019E-01  0.51402799369E-01  0.90964476352E-01  0.51100000000E-03 0. -1.
         11    1    4    4    0    0 -0.17400770458E-02 -0.27048633748E-01  0.31843082774E-01  0.41819845735E-01  0.51100000000E-03 0.  1.
</event>
<event>
 8    1  0.1116841E+005  0.1043930E+01  0.7957747E-01            NaN
         13   -1    0    0    0    0  0.00000000000E+00  0.00000000000E+00  0.74505805969E-08  0.10566000000E+00  0.10566000000E+00 0.  1.
     999900   -1    0    0    0    0 -0.00000000000E+00 -0.00000000000E+00 -0.74505805969E-08  0.93827000000E+00  0.93827000000E+00 0. -1.
     999902    2    1    2    0    0  0.17553030816E-01 -0.99567848902E-02 -0.12618049841E-01  0.10201295454E+01  0.10198518656E+01 0.  0.
     999903    2    3    3    0    0 -0.39162738592E-01 -0.12014063266E+00 -0.29594522158E-01  0.13128458739E+00  0.19806954228E-01 0.  0.
         14    1    1    2    0    0 -0.17553030816E-01  0.99567848902E-02  0.12618049841E-01  0.23800454575E-01  0.00000000000E+00 0.  1.
     999901    1    3    3    0    0  0.56715769408E-01  0.11018384777E+00  0.16976472317E-01  0.88884495803E+00  0.88000000000E+00 0.  1.
        -11    1    4    4    0    0  0.17106155835E-02 -0.11079824451E-01 -0.48884330713E-03  0.11233379025E-01  0.51100000000E-03 0.  1.
         11    1    4    4    0    0 -0.40873354176E-01 -0.10906080821E+00 -0.29105678851E-01  0.12005120837E+00  0.51100000000E-03 0. -1.
</event>
<event>
 8    1  0.1116841E+005  0.1043930E+01  0.7957747E-01            NaN
         13   -1    0    0    0    0  0.00000000000E+00  0.00000000000E+00  0.74505805969E-08  0.10566000000E+00  0.10566000000E+00 0. -1.
     999900   -1    0    0    0    0 -0.00000000000E+00 -0.00000000000E+00 -0.74505805969E-08  0.93827000000E+00  0.93827000000E+00 0.  1.
     999902    2    1    2    0    0 -0.12535489270E-01  0.79087038985E-02  0.18666160841E-01  0.10200949072E+01  0.10198164090E+01 0.  0.
     999903    2    3    3    0    0 -0.72211712242E-01 -0.47759582980E-01  0.98444346442E-01  0.13272532880E+00  0.20717490400E-01 0.  0.
         14    1    1    2    0    0  0.12535489270E-01 -0.79087038985E-02 -0.18666160841E-01  0.23835092807E-01  0.00000000000E+00 0. -1.
     999901    1    3    3    0    0  0.59676222972E-01  0.55668286878E-01 -0.79778185601E-01  0.88736957839E+00  0.88000000000E+00 0.  1.
        -11    1    4    4    0    0 -0.70644658114E-01 -0.40917043111E-01  0.93485777738E-01  0.12411576812E+00  0.51100000000E-03 0. -1.
         11    1    4    4    0    0 -0.15670541280E-02 -0.68425398688E-02  0.49585687043E-02  0.86095606794E-02  0.51100000000E-03 0.  1.
</event>
<event>
 8    1  0.1116841E+005  0.1043930E+01  0.7957747E-01            NaN
         13   -1    0    0    0    0  0.00000000000E+00  0.00000000000E+00  0.74505805969E-08  0.10566000000E+00  0.10566000000E+00 0. -1.
     999900   -1    0    0    0    0 -0.00000000000E+00 -0.00000000000E+00 -0.74505805969E-08  0.93827000000E+00  0.93827000000E+00 0. -1.
     999902    2    1    2    0    0 -0.13474174466E-01  0.26142965941E-02 -0.19124214929E-01  0.10203901716E+01  0.10201186102E+01 0.  0.
     999903    2    3    3    0    0 -0.38719699679E-01 -0.18973744929E-01 -0.12474790962E+00  0.13345176057E+00  0.19700591504E-01 0.  0.
         14    1    1    2    0    0  0.13474174466E-01 -0.26142965941E-02  0.19124214929E-01  0.23539828395E-01  0.00000000000E+00 0. -1.
     999901    1    3    3    0    0  0.25245525213E-01  0.21588041524E-01  0.10562369469E+00  0.88693841103E+00  0.88000000000E+00 0.  1.
        -11    1    4    4    0    0 -0.14587055499E-01 -0.15192391978E-01 -0.39442910820E-01  0.44716834605E-01  0.51100000000E-03 0. -1.
         11    1    4    4    0    0 -0.24132644180E-01 -0.37813529512E-02 -0.85304998801E-01  0.88734925969E-01  0.51100000000E-03 0.  1.
</event>
<event>
 8    1  0.1116841E+005  0.1043930E+01  0.7957747E-01            NaN
         13   -1    0    0    0    0  0.00000000000E+00  0.00000000000E+00  0.74505805969E-08  0.10566000000E+00  0.10566000000E+00 0.  1.
     999900   -1    0    0    0    0 -0.00000000000E+00 -0.00000000000E+00 -0.74505805969E-08  0.93827000000E+00  0.93827000000E+00 0.  1.
     999902    2    1    2    0    0  0.14497055209E-01  0.89948572270E-02  0.15683851470E-01  0.10207555472E+01  0.10204924458E+01 0.  0.
     999903    2    3    3    0    0  0.50136830645E-01 -0.11877054964E+00 -0.56987524931E-02  0.13055814855E+00  0.19819412792E-01 0.  0.
         14    1    1    2    0    0 -0.14497055209E-01 -0.89948572270E-02 -0.15683851470E-01  0.23174452814E-01  0.00000000000E+00 0. -1.
     999901    1    3    3    0    0 -0.35639775436E-01  0.12776540687E+00  0.21382603963E-01  0.89019739864E+00  0.88000000000E+00 0. -1.
        -11    1    4    4    0    0  0.37742529638E-02 -0.11105672737E-02 -0.10959616091E-03  0.39688131000E-02  0.51100000000E-03 0.  1.
         11    1    4    4    0    0  0.46362577681E-01 -0.11765998237E+00 -0.55891563322E-02  0.12658933545E+00  0.51100000000E-03 0. -1.
</event>
<event>
 8    1  0.1116841E+005  0.1043930E+01  0.7957747E-01            NaN
         13   -1    0    0    0    0  0.00000000000E+00  0.00000000000E+00  0.74505805969E-08  0.10566000000E+00  0.10566000000E+00 0. -1.
     999900   -1    0    0    0    0 -0.00000000000E+00 -0.00000000000E+00 -0.74505805969E-08  0.93827000000E+00  0.93827000000E+00 0.  1.
     999902    2    1    2    0    0 -0.18584716079E-01  0.19550626604E-02  0.12416417776E-01  0.10214938378E+01  0.10212474134E+01 0.  0.
     999903    2    3    3    0    0 -0.97241640396E-01  0.59423770373E-01 -0.65036719620E-01  0.13273709239E+00  0.20055913949E-01 0.  0.
         14    1    1    2    0    0  0.18584716079E-01 -0.19550626604E-02 -0.12416417776E-01  0.22436162152E-01  0.00000000000E+00 0. -1.
     999901    1    3    3    0    0  0.78656924317E-01 -0.57468707713E-01  0.77453137396E-01  0.88875674546E+00  0.88000000000E+00 0. -1.
        -11    1    4    4    0    0 -0.50157069302E-01  0.31362711144E-01 -0.22261356872E-01  0.63207439294E-01  0.51100000000E-03 0. -1.
         11    1    4    4    0    0 -0.47084571093E-01  0.28061059229E-01 -0.42775362748E-01  0.69529653094E-01  0.51100000000E-03 0.  1.
</event>
<event>
 8    1  0.1116841E+005  0.1043930E+01  0.7957747E-01            NaN
         13   -1    0    0    0    0  0.00000000000E+00  0.00000000000E+00  0.74505805969E-08  0.10566000000E+00  0.10566000000E+00 0.  1.
     999900   -1    0    0    0    0 -0.00000000000E+00 -0.00000000000E+00 -0.74505805969E-08  0.93827000000E+00  0.93827000000E+00 0.  1.
     999902    2    1    2    0    0 -0.82962946720E-02  0.17616297083E-01  0.13093780506E-01  0.10204649299E+01  0.10201951105E+01 0.  0.
     999903    2    3    3    0    0 -0.46644001646E-01 -0.10239744861E-01  0.12164654859E+00  0.13252900360E+00  0.22034943759E-01 0.  0.
         14    1    1    2    0    0  0.82962946720E-02 -0.17616297083E-01 -0.13093780506E-01  0.23465070129E-01  0.00000000000E+00 0.  1.
     999901    1    3    3    0    0  0.38347706974E-01  0.27856041944E-01 -0.10855276809E+00  0.88793592627E+00  0.88000000000E+00 0.  1.
        -11    1    4    4    0    0 -0.14163613881E-01 -0.79779873646E-02  0.19911349728E-01  0.25709515934E-01  0.51100000000E-03 0.  1.
         11    1    4    4    0    0 -0.32480387765E-01 -0.22617574964E-02  0.10173519886E+00  0.10681948767E+00  0.51100000000E-03 0. -1.
</event>
<event>
 8    1  0.1116841E+005  0.1043930E+01  0.7957747E-01            NaN
         13   -1    0    0    0    0  0.00000000000E+00  0.00000000000E+00  0.74505805969E-08  0.10566000000E+00  0.10566000000E+00 0.  1.
     999900   -1    0    0    0    0 -0.00000000000E+00 -0.00000000000E+00 -0.74505805969E-08  0.93827000000E+00  0.93827000000E+00 0.  1.
     999902    2    1    2    0    0 -0.65288130282E-02 -0.15845554989E-01 -0.20298548357E-01  0.10173642687E+01  0.10170173633E+01 0.  0.
     999903    2    3    3    0    0  0.20291533240E-01 -0.73380618726E-01  0.99818141699E-01  0.12693873352E+00  0.18796785056E-01 0.  0.
         14    1    1    2    0    0  0.65288130282E-02  0.15845554989E-01  0.20298548357E-01  0.26565731269E-01  0.00000000000E+00 0.  1.
     999901    1    3    3    0    0 -0.26820346268E-01  0.57535063737E-01 -0.12011669006E+00  0.89042553522E+00  0.88000000000E+00 0.  1.
        -11    1    4    4    0    0  0.95555829505E-02 -0.12149147063E-01  0.13276317594E-01  0.20382165482E-01  0.51100000000E-03 0. -1.
         11    1    4    4    0    0  0.10735950290E-01 -0.61231471663E-01  0.86541824105E-01  0.10655656803E+00  0.51100000000E-03 0.  1.
</event>
<event>
 8    1  0.1116841E+005  0.1043930E+01  0.7957747E-01            NaN
         13   -1    0    0    0    0  0.00000000000E+00  0.00000000000E+00  0.74505805969E-08  0.10566000000E+00  0.10566000000E+00 0.  1.
     999900   -1    0    0    0    0 -0.00000000000E+00 -0.00000000000E+00 -0.74505805969E-08  0.93827000000E+00  0.93827000000E+00 0. -1.
     999902    2    1    2    0    0  0.22006563379E-01  0.39114506017E-02 -0.91497116685E-02  0.10197782816E+01  0.10194922453E+01 0.  0.
     999903    2    3    3    0    0  0.66603010197E-01 -0.54847691392E-01 -0.98256261737E-01  0.13220774520E+00  0.19502940863E-01 0.  0.
         14    1    1    2    0    0 -0.22006563379E-01 -0.39114506017E-02  0.91497116685E-02  0.24151718389E-01  0.00000000000E+00 0.  1.
     999901    1    3    3    0    0 -0.44596446818E-01  0.58759141994E-01  0.89106550069E-01  0.88757053641E+00  0.88000000000E+00 0.  1.
        -11    1    4    4    0    0  0.23460302744E-01 -0.16643120395E-01 -0.20069780977E-01  0.35077578177E-01  0.51100000000E-03 0.  1.
         11    1    4    4    0    0  0.43142707453E-01 -0.38204570998E-01 -0.78186480760E-01  0.97130167024E-01  0.51100000000E-03 0. -1.
</event>
<event>
 8    1  0.1116841E+005  0.1043930E+01  0.7957747E-01            NaN
         13   -1    0    0    0    0  0.00000000000E+00  0.00000000000E+00  0.74505805969E-08  0.10566000000E+00  0.10566000000E+00 0.  1.
     999900   -1    0    0    0    0 -0.00000000000E+00 -0.00000000000E+00 -0.74505805969E-08  0.93827000000E+00  0.93827000000E+00 0. -1.
     999902    2    1    2    0    0 -0.20843457193E-01  0.10732403800E-01  0.32586880930E-02  0.10202603306E+01  0.10199857298E+01 0.  0.
     999903    2    3    3    0    0  0.12302053282E+00  0.17723658206E-01 -0.23718100297E-01  0.12814292113E+00  0.20245503183E-01 0.  0.
         14    1    1    2    0    0  0.20843457193E-01 -0.10732403800E-01 -0.32586880930E-02  0.23669669350E-01  0.00000000000E+00 0.  1.
     999901    1    3    3    0    0 -0.14386399001E+00 -0.69912544059E-02  0.26976788390E-01  0.89211740952E+00  0.88000000000E+00 0.  1.
        -11    1    4    4    0    0  0.55483775636E-01  0.13578935391E-01 -0.23055753210E-02  0.57170041488E-01  0.51100000000E-03 0.  1.
         11    1    4    4    0    0  0.67536757180E-01  0.41447228141E-02 -0.21412524976E-01  0.70972879641E-01  0.51100000000E-03 0. -1.
</event>
<event>
 8    1  0.1116841E+005  0.1043930E+01  0.7957747E-01            NaN
         13   -1    0    0    0    0  0.00000000000E+00  0.00000000000E+00  0.74505805969E-08  0.10566000000E+00  0.10566000000E+00 0. -1.
     999900   -1    0    0    0    0 -0.00000000000E+00 -0.00000000000E+00 -0.74505805969E-08  0.93827000000E+00  0.93827000000E+00 0.  1.
     999902    2    1    2    0    0  0.23299879258E-02 -0.26721446547E-02 -0.24389643739E-01  0.10192840283E+01  0.10189860187E+01 0.  0.
     999903    2    3    3    0    0  0.10437214825E+00 -0.21288841244E-01 -0.74770669056E-01  0.13176082768E+00  0.20579180447E-01 0.  0.
         14    1    1    2    0    0 -0.23299879258E-02  0.26721446547E-02  0.24389643739E-01  0.24645971730E-01  0.00000000000E+00 0. -1.
     999901    1    3    3    0    0 -0.10204216032E+00  0.18616696589E-01  0.50381025316E-01  0.88752320059E+00  0.88000000000E+00 0. -1.
        -11    1    4    4    0    0  0.55673224129E-01 -0.17304096268E-02 -0.33547766596E-01  0.65024733502E-01  0.51100000000E-03 0.  1.
         11    1    4    4    0    0  0.48698924121E-01 -0.19558431617E-01 -0.41222902459E-01  0.66736094177E-01  0.51100000000E-03 0. -1.
</event>
<event>
 8    1  0.1116841E+005  0.1043930E+01  0.7957747E-01            NaN
         13   -1    0    0    0    0  0.00000000000E+00  0.00000000000E+00  0.74505805969E-08  0.10566000000E+00  0.10566000000E+00 0.  1.
     999900   -1    0    0    0    0 -0.00000000000E+00 -0.00000000000E+00 -0.74505805969E-08  0.93827000000E+00  0.93827000000E+00 0. -1.
     999902    2    1    2    0    0  0.76874973793E-02  0.15134813309E-01 -0.16807497789E-01  0.10200416729E+01  0.10197619145E+01 0.  0.
     999903    2    3    3    0    0 -0.99067469794E-01 -0.61797675450E-01 -0.52395278891E-01  0.12954646179E+00  0.20092392828E-01 0.  0.
         14    1    1    2    0    0 -0.76874973793E-02 -0.15134813309E-01  0.16807497789E-01  0.23888327103E-01  0.00000000000E+00 0.  1.
     999901    1    3    3    0    0  0.10675496717E+00  0.76932488759E-01  0.35587781102E-01  0.89049521111E+00  0.88000000000E+00 0. -1.
        -11    1    4    4    0    0 -0.11874320738E-01 -0.13809614239E-01 -0.31068624080E-02  0.18482928704E-01  0.51100000000E-03 0. -1.
         11    1    4    4    0    0 -0.87193149055E-01 -0.47988061210E-01 -0.49288416483E-01  0.11106353308E+00  0.51100000000E-03 0.  1.
</event>
<event>
 8    1  0.1116841E+005  0.1043930E+01  0.7957747E-01            NaN
         13   -1    0    0    0    0  0.00000000000E+00  0.00000000000E+00  0.74505805969E-08  0.10566000000E+00  0.10566000000E+00 0. -1.
     999900   -1    0    0    0    0 -0.00000000000E+00 -0.00000000000E+00 -0.74505805969E-08  0.93827000000E+00  0.93827000000E+00 0.  1.
     999902    2    1    2    0    0 -0.22595755331E-01 -0.56604898617E-02 -0.91573067881E-02  0.10189007057E+01  0.10185932370E+01 0.  0.
     999903    2    3    3    0    0 -0.12464603082E+00 -0.26977306499E-01 -0.30136548840E-01  0.13249854305E+00  0.19576625528E-01 0.  0.
         14    1    1    2    0    0  0.22595755331E-01  0.56604898617E-02  0.91573067881E-02  0.25029294278E-01  0.00000000000E+00 0. -1.
     999901    1    3    3    0    0  0.10205027549E+00  0.21316816637E-01  0.20979242052E-01  0.88640216268E+00  0.88000000000E+00 0.  1.
        -11    1    4    4    0    0 -0.66096728173E-01 -0.18236552340E-01 -0.25352750414E-01  0.73105214527E-01  0.51100000000E-03 0. -1.
         11    1    4    4    0    0 -0.58549302651E-01 -0.87407541587E-02 -0.47837984263E-02  0.59393328519E-01  0.51100000000E-03 0.  1.
</event>
<event>
 8    1  0.1116841E+005  0.1043930E+01  0.7957747E-01            NaN
         13   -1    0    0    0    0  0.00000000000E+00  0.00000000000E+00  0.74505805969E-08  0.10566000000E+00  0.10566000000E+00 0. -1.
     999900   -1    0    0    0    0 -0.00000000000E+00 -0.00000000000E+00 -0.74505805969E-08  0.93827000000E+00  0.93827000000E+00 0. -1.
     999902    2    1    2    0    0 -0.62243056656E-02  0.87949437598E-02 -0.22060031637E-01  0.10193792767E+01  0.10190835941E+01 0.  0.
     999903    2    3    3    0    0 -0.11344204973E-01  0.10516063359E+00  0.71365582002E-01  0.12918777778E+00  0.20223397076E-01 0.  0.
         14    1    1    2    0    0  0.62243056656E-02 -0.87949437598E-02  0.22060031637E-01  0.24550723260E-01  0.00000000000E+00 0. -1.
     999901    1    3    3    0    0  0.51198993070E-02 -0.96365689827E-01 -0.93425613638E-01  0.89019149896E+00  0.88000000000E+00 0.  1.
        -11    1    4    4    0    0  0.45063349646E-02  0.22359327145E-01  0.20842704719E-01  0.30901877389E-01  0.51100000000E-03 0. -1.
         11    1    4    4    0    0 -0.15850539937E-01  0.82801306443E-01  0.50522877283E-01  0.98285900387E-01  0.51100000000E-03 0.  1.
</event>
<event>
 8    1  0.1116841E+005  0.1043930E+01  0.7957747E-01            NaN
         13   -1    0    0    0    0  0.00000000000E+00  0.00000000000E+00  0.74505805969E-08  0.10566000000E+00  0.10566000000E+00 0.  1.
     999900   -1    0    0    0    0 -0.00000000000E+00 -0.00000000000E+00 -0.74505805969E-08  0.93827000000E+00  0.93827000000E+00 0. -1.
     999902    2    1    2    0    0  0.91904058218E-03  0.14292740669E-03 -0.23913033762E-01  0.10199988854E+01  0.10197181120E+01 0.  0.
     999903    2    3    3    0    0 -0.86506509269E-02 -0.11971148314E+00 -0.49414036984E-01  0.13145684366E+00  0.20820224222E-01 0.  0.
         14    1    1    2    0    0 -0.91904058218E-03 -0.14292740669E-03  0.23913033762E-01  0.23931114632E-01  0.00000000000E+00 0.  1.
     999901    1    3    3    0    0  0.95696915091E-02  0.11985441054E+00  0.25501003223E-01  0.88854204171E+00  0.88000000000E+00 0.  1.
        -11    1    4    4    0    0 -0.10419729103E-01 -0.73567459423E-01 -0.20917456464E-01  0.77191598937E-01  0.51100000000E-03 0. -1.
         11    1    4    4    0    0  0.17690781759E-02 -0.46144023715E-01 -0.28496580520E-01  0.54265244720E-01  0.51100000000E-03 0.  1.
</event>
<event>
 8    1  0.1116841E+005  0.1043930E+01  0.7957747E-01            NaN
         13   -1    0    0    0    0  0.00000000000E+00  0.00000000000E+00  0.74505805969E-08  0.10566000000E+00  0.10566000000E+00 0. -1.
     999900   -1    0    0    0    0 -0.00000000000E+00 -0.00000000000E+00 -0.74505805969E-08  0.93827000000E+00  0.93827000000E+00 0.  1.
     999902    2    1    2    0    0  0.65330851796E-02 -0.42230281779E-02 -0.21609371514E-01  0.10209630649E+01  0.10207047075E+01 0.  0.
     999903    2    3    3    0    0 -0.57808664562E-02  0.11081183452E+00 -0.68976611883E-01  0.13212769857E+00  0.19679295103E-01 0.  0.
         14    1    1    2    0    0 -0.65330851796E-02  0.42230281779E-02  0.21609371514E-01  0.22966935063E-01  0.00000000000E+00 0. -1.
     999901    1    3    3    0    0  0.12313951636E-01 -0.11503486270E+00  0.47367240369E-01  0.88883536637E+00  0.88000000000E+00 0. -1.
        -11    1    4    4    0    0 -0.25080486749E-03  0.55066794438E-02  0.92375386907E-03  0.56125630321E-02  0.51100000000E-03 0.  1.
         11    1    4    4    0    0 -0.55300615887E-02  0.10530515508E+00 -0.69900365753E-01  0.12651513554E+00  0.51100000000E-03 0. -1.
</event>
<event>
 8    1  0.1116841E+005  0.1043930E+01  0.7957747E-01            NaN
         13   -1    0    0    0    0  0.00000000000E+00  0.00000000000E+00  0.74505805969E-08  0.10566000000E+00  0.10566000000E+00 0. -1.
     999900   -1    0    0    0    0 -0.00000000000E+00 -0.00000000000E+00 -0.74505805969E-08  0.93827000000E+00  0.93827000000E+00 0. -1.
     999902    2    1    2    0    0 -0.20686633728E-01 -0.12817411767E-01 -0.18697503681E-02  0.10195226481E+01  0.10192304505E+01 0.  0.
     999903    2    3    3    0    0 -0.53547888070E-01 -0.73278601015E-01  0.93742513957E-01  0.13167292968E+00  0.17691009139E-01 0.  0.
         14    1    1    2    0    0  0.20686633728E-01  0.12817411767E-01  0.18697503681E-02  0.24407351880E-01  0.00000000000E+00 0. -1.
     999901    1    3    3    0    0  0.32861254343E-01  0.60461189248E-01 -0.95612264325E-01  0.88784971844E+00  0.88000000000E+00 0. -1.
        -11    1    4    4    0    0 -0.17438230027E-01 -0.12094570955E-01  0.18099805635E-01  0.27896856420E-01  0.51100000000E-03 0. -1.
         11    1    4    4    0    0 -0.36109658044E-01 -0.61184030059E-01  0.75642708322E-01  0.10377607326E+00  0.51100000000E-03 0.  1.
</event>
<event>
 8    1  0.1116841E+005  0.1043930E+01  0.7957747E-01            NaN
         13   -1    0    0    0    0  0.00000000000E+00  0.00000000000E+00  0.74505805969E-08  0.10566000000E+00  0.10566000000E+00 0. -1.
     999900   -1    0    0    0    0 -0.00000000000E+00 -0.00000000000E+00 -0.74505805969E-08  0.93827000000E+00  0.93827000000E+00 0. -1.
     999902    2    1    2    0    0 -0.26240040201E-02  0.44104136566E-02 -0.22991854291E-01  0.10203723577E+01  0.10201003803E+01 0.  0.
     999903    2    3    3    0    0  0.91797653399E-01  0.53287814728E-01 -0.76477344080E-01  0.13236045052E+00  0.20102346532E-01 0.  0.
         14    1    1    2    0    0  0.26240040201E-02 -0.44104136566E-02  0.22991854291E-01  0.23557642273E-01  0.00000000000E+00 0. -1.
     999901    1    3    3    0    0 -0.94421657419E-01 -0.48877401072E-01  0.53485489788E-01  0.88801190721E+00  0.88000000000E+00 0.  1.
        -11    1    4    4    0    0  0.29002742956E-01  0.27784294031E-01 -0.25937365868E-01  0.47813535353E-01  0.51100000000E-03 0.  1.
         11    1    4    4    0    0  0.62794910442E-01  0.25503520697E-01 -0.50539978211E-01  0.84546915166E-01  0.51100000000E-03 0. -1.
</event>
<event>
 8    1  0.1116841E+005  0.1043930E+01  0.7957747E-01            NaN
         13   -1    0    0    0    0  0.00000000000E+00  0.00000000000E+00  0.74505805969E-08  0.10566000000E+00  0.10566000000E+00 0. -1.
     999900   -1    0    0    0    0 -0.00000000000E+00 -0.00000000000E+00 -0.74505805969E-08  0.93827000000E+00  0.93827000000E+00 0.  1.
     999902    2    1    2    0    0  0.10467179437E-01 -0.14646984563E-01 -0.14743332094E-01  0.10206606673E+01  0.10203953822E+01 0.  0.
     999903    2    3    3    0    0 -0.40997440429E-01 -0.11369291518E+00  0.47488491829E-01  0.13142981800E+00  0.20292144308E-01 0.  0.
         14    1    1    2    0    0 -0.10467179437E-01  0.14646984563E-01  0.14743332094E-01  0.23269332681E-01  0.00000000000E+00 0. -1.
     999901    1    3    3    0    0  0.51464619867E-01  0.99045930613E-01 -0.62231823923E-01  0.88923084932E+00  0.88000000000E+00 0.  1.
        -11    1    4    4    0    0 -0.18603451051E-01 -0.33516170366E-01  0.22777791787E-01  0.44592723473E-01  0.51100000000E-03 0.  1.
         11    1    4    4    0    0 -0.22393989378E-01 -0.80176744810E-01  0.24710700042E-01  0.86837094529E-01  0.51100000000E-03 0. -1.
</event>
<event>
 8    1  0.1116841E+005  0.1043930E+01  0.7957747E-01            NaN
         13   -1    0    0    0    0  0.00000000000E+00  0.00000000000E+00  0.74505805969E-08  0.10566000000E+00  0.10566000000E+00 0. -1.
     999900   -1    0    0    0    0 -0.00000000000E+00 -0.00000000000E+00 -0.74505805969E-08  0.93827000000E+00  0.93827000000E+00 0.  1.
     999902    2    1    2    0    0 -0.11139976160E-02 -0.22674564044E-01  0.17855598484E-02  0.10211579762E+01  0.10209040343E+01 0.  0.
     999903    2    3    3    0    0 -0.10208053145E+00 -0.70063043600E-01  0.44713360233E-01  0.13307987995E+00  0.19537269112E-01 0.  0.
         14    1    1    2    0    0  0.11139976160E-02  0.22674564044E-01 -0.17855598484E-02  0.22772023829E-01  0.00000000000E+00 0.  1.
     999901    1    3    3    0    0  0.10096653383E+00  0.47388479555E-01 -0.42927800384E-01  0.88807809622E+00  0.88000000000E+00 0.  1.
        -11    1    4    4    0    0 -0.85643201816E-02 -0.59711802323E-02 -0.16711387573E-02  0.10585669525E-01  0.51100000000E-03 0.  1.
         11    1    4    4    0    0 -0.93516211265E-01 -0.64091863367E-01  0.46384498990E-01  0.12249421042E+00  0.51100000000E-03 0. -1.
</event>
<event>
 8    1  0.1116841E+005  0.1043930E+01  0.7957747E-01            NaN
         13   -1    0    0    0    0  0.00000000000E+00  0.00000000000E+00  0.74505805969E-08  0.10566000000E+00  0.10566000000E+00 0.  1.
     999900   -1    0    0    0    0 -0.00000000000E+00 -0.00000000000E+00 -0.74505805969E-08  0.93827000000E+00  0.93827000000E+00 0. -1.
     999902    2    1    2    0    0  0.35876762972E-03  0.22151358740E-01 -0.28693204863E-02  0.10215906981E+01  0.10213464202E+01 0.  0.
     999903    2    3    3    0    0 -0.93869621248E-02  0.12155332964E+00 -0.53267737020E-01  0.13450798977E+00  0.19789403745E-01 0.  0.
         14    1    1    2    0    0 -0.35876762972E-03 -0.22151358740E-01  0.28693204863E-02  0.22339301876E-01  0.00000000000E+00 0. -1.
     999901    1    3    3    0    0  0.97457297546E-02 -0.99401970901E-01  0.50398416534E-01  0.88708270835E+00  0.88000000000E+00 0.  1.
        -11    1    4    4    0    0 -0.92728039153E-02  0.74680305173E-01 -0.42440540941E-01  0.86397879080E-01  0.51100000000E-03 0.  1.
         11    1    4    4    0    0 -0.11415820958E-03  0.46873024468E-01 -0.10827196079E-01  0.48110110692E-01  0.51100000000E-03 0. -1.
</event>
<event>
 8    1  0.1116841E+005  0.1043930E+01  0.7957747E-01            NaN
         13   -1    0    0    0    0  0.00000000000E+00  0.00000000000E+00  0.74505805969E-08  0.10566000000E+00  0.10566000000E+00 0. -1.
     999900   -1    0    0    0    0 -0.00000000000E+00 -0.00000000000E+00 -0.74505805969E-08  0.93827000000E+00  0.93827000000E+00 0. -1.
     999902    2    1    2    0    0  0.23384857290E-01  0.47616572853E-02  0.61254040939E-03  0.10200574187E+01  0.10197780334E+01 0.  0.
     999903    2    3    3    0    0  0.33475922908E-02  0.27825613569E-01  0.12605529759E+00  0.13063663901E+00  0.19761635986E-01 0.  0.
         14    1    1    2    0    0 -0.23384857290E-01 -0.47616572853E-02 -0.61254040939E-03  0.23872581267E-01  0.00000000000E+00 0. -1.
     999901    1    3    3    0    0  0.20037265000E-01 -0.23063956284E-01 -0.12544275718E+00  0.88942077972E+00  0.88000000000E+00 0. -1.
        -11    1    4    4    0    0 -0.23496579753E-02  0.31988354991E-02  0.29750033739E-02  0.49865025044E-02  0.51100000000E-03 0.  1.
         11    1    4    4    0    0  0.56972502661E-02  0.24626778070E-01  0.12308029422E+00  0.12565013651E+00  0.51100000000E-03 0. -1.
</event>
<event>
 8    1  0.1116841E+005  0.1043930E+01  0.7957747E-01            NaN
         13   -1    0    0    0    0  0.00000000000E+00  0.00000000000E+00  0.74505805969E-08  0.10566000000E+00  0.10566000000E+00 0.  1.
     999900   -1    0    0    0    0 -0.00000000000E+00 -0.00000000000E+00 -0.74505805969E-08  0.93827000000E+00  0.93827000000E+00 0.  1.
     999902    2    1    2    0    0 -0.28782945417E-02  0.14788777992E-01 -0.20005706279E-01  0.10188856230E+01  0.10185777791E+01 0.  0.
     999903    2    3    3    0    0  0.80142819880E-01  0.48941456990E-01  0.84908753071E-01  0.12811856330E+00  0.19665505930E-01 0.  0.
         14    1    1    2    0    0  0.28782945417E-02 -0.14788777992E-01  0.20005706279E-01  0.25044376968E-01  0.00000000000E+00 0.  1.
     999901    1    3    3    0    0 -0.83021114422E-01 -0.34152678998E-01 -0.10491445935E+00  0.89076705973E+00  0.88000000000E+00 0.  1.
        -11    1    4    4    0    0  0.48904319740E-01  0.19004229301E-01  0.50650720584E-01  0.72928388418E-01  0.51100000000E-03 0.  1.
         11    1    4    4    0    0  0.31238500140E-01  0.29937227688E-01  0.34258032487E-01  0.55190174883E-01  0.51100000000E-03 0. -1.
</event>
<event>
 8    1  0.1116841E+005  0.1043930E+01  0.7957747E-01            NaN
         13   -1    0    0    0    0  0.00000000000E+00  0.00000000000E+00  0.74505805969E-08  0.10566000000E+00  0.10566000000E+00 0.  1.
     999900   -1    0    0    0    0 -0.00000000000E+00 -0.00000000000E+00 -0.74505805969E-08  0.93827000000E+00  0.93827000000E+00 0. -1.
     999902    2    1    2    0    0 -0.93731757277E-02  0.16891248525E-01  0.14558337425E-01  0.10197408312E+01  0.10194538964E+01 0.  0.
     999903    2    3    3    0    0  0.10222334118E+00 -0.97605802238E-02 -0.73354328965E-01  0.12794896113E+00  0.21099731494E-01 0.  0.
         14    1    1    2    0    0  0.93731757277E-02 -0.16891248525E-01 -0.14558337425E-01  0.24189168827E-01  0.00000000000E+00 0. -1.
     999901    1    3    3    0    0 -0.11159651690E+00  0.26651828749E-01  0.87912666390E-01  0.89179187004E+00  0.88000000000E+00 0. -1.
        -11    1    4    4    0    0  0.10001135312E+00 -0.10853694359E-01 -0.66362259400E-01  0.12051673754E+00  0.51100000000E-03 0. -1.
         11    1    4    4    0    0  0.22119880557E-02  0.10931141354E-02 -0.69920695646E-02  0.74322235884E-02  0.51100000000E-03 0.  1.
</event>
<event>
 8    1  0.1116841E+005  0.1043930E+01  0.7957747E-01            NaN
         13   -1    0    0    0    0  0.00000000000E+00  0.00000000000E+00  0.74505805969E-08  0.10566000000E+00  0.10566000000E+00 0.  1.
     999900   -1    0    0    0    0 -0.00000000000E+00 -0.00000000000E+00 -0.74505805969E-08  0.93827000000E+00  0.93827000000E+00 0.  1.
     999902    2    1    2    0    0  0.15715154349E-01 -0.60402052378E-02 -0.16502792190E-01  0.10203547523E+01  0.10200823634E+01 0.  0.
     999903    2    3    3    0    0  0.11291782158E+00 -0.37555043157E-01 -0.57127033794E-01  0.13351098219E+00  0.20021705157E-01 0.  0.
         14    1    1    2    0    0 -0.15715154349E-01  0.60402052378E-02  0.16502792190E-01  0.23575247732E-01  0.00000000000E+00 0.  1.
     999901    1    3    3    0    0 -0.97202667232E-01  0.31514837919E-01  0.40624241604E-01  0.88684377008E+00  0.88000000000E+00 0. -1.
        -11    1    4    4    0    0  0.56114502965E-01 -0.16606489293E-01 -0.38938291239E-01  0.70292706415E-01  0.51100000000E-03 0.  1.
         11    1    4    4    0    0  0.56803318616E-01 -0.20948553864E-01 -0.18188742555E-01  0.63218275772E-01  0.51100000000E-03 0. -1.
</event>
<event>
 8    1  0.1116841E+005  0.1043930E+01  0.7957747E-01            NaN
         13   -1    0    0    0    0  0.00000000000E+00  0.00000000000E+00  0.74505805969E-08  0.10566000000E+00  0.10566000000E+00 0.  1.
     999900   -1    0    0    0    0 -0.00000000000E+00 -0.00000000000E+00 -0.74505805969E-08  0.93827000000E+00  0.93827000000E+00 0. -1.
     999902    2    1    2    0    0  0.13293266375E-01  0.15023600415E-01  0.12951703167E-01  0.10200518486E+01  0.10197723313E+01 0.  0.
     999903    2    3    3    0    0 -0.93294356412E-02 -0.56763424553E-01 -0.11260732691E+00  0.12795867316E+00  0.19593040271E-01 0.  0.
         14    1    1    2    0    0 -0.13293266375E-01 -0.15023600415E-01 -0.12951703167E-01  0.23878151421E-01  0.00000000000E+00 0. -1.
     999901    1    3    3    0    0  0.22622702016E-01  0.71787024968E-01  0.12555903007E+00  0.89209317542E+00  0.88000000000E+00 0.  1.
        -11    1    4    4    0    0 -0.96296990297E-02 -0.46808766453E-01 -0.74054230970E-01  0.88136723140E-01  0.51100000000E-03 0. -1.
         11    1    4    4    0    0  0.30026338848E-03 -0.99546580997E-02 -0.38553095936E-01  0.39821950018E-01  0.51100000000E-03 0.  1.
</event>
<event>
 8    1  0.1116841E+005  0.1043930E+01  0.7957747E-01            NaN
         13   -1    0    0    0    0  0.00000000000E+00  0.00000000000E+00  0.74505805969E-08  0.10566000000E+00  0.10566000000E+00 0. -1.
     999900   -1    0    0    0    0 -0.00000000000E+00 -0.00000000000E+00 -0.74505805969E-08  0.93827000000E+00  0.93827000000E+00 0.  1.
     999902    2    1    2    0    0 -0.18192676905E-02 -0.22718810373E-01 -0.39016027921E-02  0.10208069253E+01  0.10205450025E+01 0.  0.
     999903    2    3    3    0    0  0.14063968612E-01 -0.31611486516E-01 -0.12599615918E+00  0.13219090159E+00  0.20057942107E-01 0.  0.
         14    1    1    2    0    0  0.18192676905E-02  0.22718810373E-01  0.39016027921E-02  0.23123074710E-01  0.00000000000E+00 0. -1.
     999901    1    3    3    0    0 -0.15883236302E-01  0.88926761431E-02  0.12209455639E+00  0.88861602370E+00  0.88000000000E+00 0. -1.
        -11    1    4    4    0    0  0.13969935609E-02  0.52594046344E-04 -0.34694998462E-01  0.34726911703E-01  0.51100000000E-03 0.  1.
         11    1    4    4    0    0  0.12666975051E-01 -0.31664080562E-01 -0.91301160716E-01  0.97463989883E-01  0.51100000000E-03 0. -1.
</event>
<event>
 8    1  0.1116841E+005  0.1043930E+01  0.7957747E-01            NaN
         13   -1    0    0    0    0  0.00000000000E+00  0.00000000000E+00  0.74505805969E-08  0.10566000000E+00  0.10566000000E+00 0. -1.
     999900   -1    0    0    0    0 -0.00000000000E+00 -0.00000000000E+00 -0.74505805969E-08  0.93827000000E+00  0.93827000000E+00 0.  1.
     999902    2    1    2    0    0 -0.56640287329E-02  0.97970136973E-02  0.21004626442E-01  0.10200708921E+01  0.10197918257E+01 0.  0.
     999903    2    3    3    0    0  0.29569329796E-01  0.91913371150E-01  0.89141668407E-01  0.13292538981E+00  0.20012724648E-01 0.  0.
         14    1    1    2    0    0  0.56640287329E-02 -0.97970136973E-02 -0.21004626442E-01  0.23859107922E-01  0.00000000000E+00 0. -1.
     999901    1    3    3    0    0 -0.35233358528E-01 -0.82116357453E-01 -0.68137041966E-01  0.88714550227E+00  0.88000000000E+00 0.  1.
        -11    1    4    4    0    0  0.25064336115E-02  0.25232919337E-01  0.33177323698E-01  0.41760966901E-01  0.51100000000E-03 0. -1.
         11    1    4    4    0    0  0.27062896184E-01  0.66680451813E-01  0.55964344709E-01  0.91164422905E-01  0.51100000000E-03 0.  1.
</event>
<event>
 8    1  0.1116841E+005  0.1043930E+01  0.7957747E-01            NaN
         13   -1    0    0    0    0  0.00000000000E+00  0.00000000000E+00  0.74505805969E-08  0.10566000000E+00  0.10566000000E+00 0. -1.
     999900   -1    0    0    0    0 -0.00000000000E+00 -0.00000000000E+00 -0.74505805969E-08  0.93827000000E+00  0.93827000000E+00 0. -1.
     999902    2    1    2    0    0  0.20070934183E-01  0.12031249223E-01 -0.57062540855E-03  0.10205223310E+01  0.10202538454E+01 0.  0.
     999903    2    3    3    0    0  0.10395570550E+00  0.48894141778E-01  0.64742462828E-01  0.13335756204E+00  0.19880318272E-01 0.  0.
         14    1    1    2    0    0 -0.20070934183E-01 -0.12031249223E-01  0.57062540855E-03  0.23407669047E-01  0.00000000000E+00 0. -1.
     999901    1    3    3    0    0 -0.83884771313E-01 -0.36862892554E-01 -0.65313088237E-01  0.88716476891E+00  0.88000000000E+00 0. -1.
        -11    1    4    4    0    0  0.75072357557E-01  0.39656461943E-01  0.56303055083E-01  0.10187634159E+00  0.51100000000E-03 0. -1.
         11    1    4    4    0    0  0.28883347940E-01  0.92376798349E-02  0.84394077453E-02  0.31481220450E-01  0.51100000000E-03 0.  1.
</event>
<event>
 8    1  0.1116841E+005  0.1043930E+01  0.7957747E-01            NaN
         13   -1    0    0    0    0  0.00000000000E+00  0.00000000000E+00  0.74505805969E-08  0.10566000000E+00  0.10566000000E+00 0. -1.
     999900   -1    0    0    0    0 -0.00000000000E+00 -0.00000000000E+00 -0.74505805969E-08  0.93827000000E+00  0.93827000000E+00 0. -1.
     999902    2    1    2    0    0  0.12982198142E-01  0.23137819961E-01  0.16056155937E-01  0.10129187710E+01  0.10124439443E+01 0.  0.
     999903    2    3    3    0    0 -0.19368935981E-02  0.87901647835E-01  0.90178467510E-01  0.12730539611E+00  0.18548763489E-01 0.  0.
         14    1    1    2    0    0 -0.12982198142E-01 -0.23137819961E-01 -0.16056155937E-01  0.31011229008E-01  0.00000000000E+00 0. -1.
     999901    1    3    3    0    0  0.14919091740E-01 -0.64763827875E-01 -0.74122311573E-01  0.88561337488E+00  0.88000000000E+00 0. -1.
        -11    1    4    4    0    0  0.67983099152E-02  0.64411405467E-01  0.63801834599E-01  0.90917442722E-01  0.51100000000E-03 0. -1.
         11    1    4    4    0    0 -0.87352035134E-02  0.23490242368E-01  0.26376632911E-01  0.36387953387E-01  0.51100000000E-03 0.  1.
</event>
<event>
 8    1  0.1116841E+005  0.1043930E+01  0.7957747E-01            NaN
         13   -1    0    0    0    0  0.00000000000E+00  0.00000000000E+00  0.74505805969E-08  0.10566000000E+00  0.10566000000E+00 0. -1.
     999900   -1    0    0    0    0 -0.00000000000E+00 -0.00000000000E+00 -0.74505805969E-08  0.93827000000E+00  0.93827000000E+00 0.  1.
     999902    2    1    2    0    0  0.22083276852E-01 -0.51775410736E-02  0.64669501662E-02  0.10203439980E+01  0.10200713576E+01 0.  0.
     999903    2    3    3    0    0  0.72074650621E-01 -0.74136137718E-01  0.81405217853E-01  0.13306153477E+00  0.19688584633E-01 0.  0.
         14    1    1    2    0    0 -0.22083276852E-01  0.51775410736E-02 -0.64669501662E-02  0.23586002046E-01  0.00000000000E+00 0.  1.
     999901    1    3    3    0    0 -0.49991373769E-01  0.68958596645E-01 -0.74938267687E-01  0.88728246318E+00  0.88000000000E+00 0.  1.
        -11    1    4    4    0    0  0.63315840861E-01 -0.60907023379E-01  0.76365377593E-01  0.11640658580E+00  0.51100000000E-03 0.  1.
         11    1    4    4    0    0  0.87588097601E-02 -0.13229114340E-01  0.50398402602E-02  0.16654948978E-01  0.51100000000E-03 0. -1.
</event>
<event>
 8    1  0.1116841E+005  0.1043930E+01  0.7957747E-01            NaN
         13   -1    0    0    0    0  0.00000000000E+00  0.00000000000E+00  0.74505805969E-08  0.10566000000E+00  0.10566000000E+00 0. -1.
     999900   -1    0    0    0    0 -0.00000000000E+00 -0.00000000000E+00 -0.74505805969E-08  0.93827000000E+00  0.93827000000E+00 0. -1.
     999902    2    1    2    0    0  0.42662644358E-02  0.25565650219E-01 -0.11035929911E-01  0.10157591776E+01  0.10153684611E+01 0.  0.
     999903    2    3    3    0    0 -0.47741003496E-01  0.68747153954E-01 -0.95883198158E-01  0.12909776701E+00  0.21616455887E-01 0.  0.
         14    1    1    2    0    0 -0.42662644358E-02 -0.25565650219E-01  0.11035929911E-01  0.28170822358E-01  0.00000000000E+00 0.  1.
     999901    1    3    3    0    0  0.52007267931E-01 -0.43181503736E-01  0.84847268248E-01  0.88666141064E+00  0.88000000000E+00 0.  1.
        -11    1    4    4    0    0 -0.13302158466E-01  0.23834960378E-01 -0.17542986156E-01  0.32451043748E-01  0.51100000000E-03 0.  1.
         11    1    4    4    0    0 -0.34438845029E-01  0.44912193577E-01 -0.78340212002E-01  0.96646723257E-01  0.51100000000E-03 0. -1.
</event>
<event>
 8    1  0.1116841E+005  0.1043930E+01  0.7957747E-01            NaN
         13   -1    0    0    0    0  0.00000000000E+00  0.00000000000E+00  0.74505805969E-08  0.10566000000E+00  0.10566000000E+00 0.  1.
     999900   -1    0    0    0    0 -0.00000000000E+00 -0.00000000000E+00 -0.74505805969E-08  0.93827000000E+00  0.93827000000E+00 0. -1.
     999902    2    1    2    0    0  0.16283043026E-01 -0.16798034574E-01 -0.28873919188E-02  0.10203578027E+01  0.10200854851E+01 0.  0.
     999903    2    3    3    0    0  0.55008516326E-02 -0.79338373273E-01  0.10289407135E+00  0.13175369081E+00  0.21142570297E-01 0.  0.
         14    1    1    2    0    0 -0.16283043026E-01  0.16798034574E-01  0.28873919188E-02  0.23572197349E-01  0.00000000000E+00 0.  1.
     999901    1    3    3    0    0  0.10782191394E-01  0.62540338699E-01 -0.10578146327E+00  0.88860411185E+00  0.88000000000E+00 0. -1.
        -11    1    4    4    0    0 -0.30482440785E-02 -0.28774944695E-01  0.51950976086E-01  0.59468094567E-01  0.51100000000E-03 0. -1.
         11    1    4    4    0    0  0.85490957111E-02 -0.50563428578E-01  0.50943095268E-01  0.72285596239E-01  0.51100000000E-03 0.  1.
</event>
<event>
 8    1  0.1116841E+005  0.1043930E+01  0.7957747E-01            NaN
         13   -1    0    0    0    0  0.00000000000E+00  0.00000000000E+00  0.74505805969E-08  0.10566000000E+00  0.10566000000E+00 0.  1.
     999900   -1    0    0    0    0 -0.00000000000E+00 -0.00000000000E+00 -0.74505805969E-08  0.93827000000E+00  0.93827000000E+00 0.  1.
     999902    2    1    2    0    0 -0.44509964467E-02 -0.17937625280E-01 -0.12821810258E-01  0.10214362545E+01  0.10211885494E+01 0.  0.
     999903    2    3    3    0    0  0.11779782853E+00 -0.55498987243E-01 -0.10536723370E-01  0.13218890263E+00  0.20159797789E-01 0.  0.
         14    1    1    2    0    0  0.44509964467E-02  0.17937625280E-01  0.12821810258E-01  0.22493745538E-01  0.00000000000E+00 0.  1.
     999901    1    3    3    0    0 -0.12224882498E+00  0.37561361964E-01 -0.22850868874E-02  0.88924735183E+00  0.88000000000E+00 0. -1.
        -11    1    4    4    0    0  0.81856961372E-01 -0.48251743391E-01 -0.55466061558E-02  0.95183080567E-01  0.51100000000E-03 0.  1.
         11    1    4    4    0    0  0.35940867160E-01 -0.72472438524E-02 -0.49901172144E-02  0.37005822062E-01  0.51100000000E-03 0. -1.
</event>
<event>
 8    1  0.1116841E+005  0.1043930E+01  0.7957747E-01            NaN
         13   -1    0    0    0    0  0.00000000000E+00  0.00000000000E+00  0.74505805969E-08  0.10566000000E+00  0.10566000000E+00 0. -1.
     999900   -1    0    0    0    0 -0.00000000000E+00 -0.00000000000E+00 -0.74505805969E-08  0.93827000000E+00  0.93827000000E+00 0. -1.
     999902    2    1    2    0    0 -0.12790520371E-01 -0.19186894468E-01 -0.55863544258E-02  0.10202036078E+01  0.10199276738E+01 0.  0.
     999903    2    3    3    0    0  0.16644759569E-01  0.12523721010E+00 -0.10605268788E-02  0.12793389477E+00  0.20113425856E-01 0.  0.
         14    1    1    2    0    0  0.12790520371E-01  0.19186894468E-01  0.55863544258E-02  0.23726392192E-01  0.00000000000E+00 0.  1.
     999901    1    3    3    0    0 -0.29435279940E-01 -0.14442410457E+00 -0.45258275470E-02  0.89226971304E+00  0.88000000000E+00 0.  1.
        -11    1    4    4    0    0  0.19381651373E-01  0.75063968448E-01 -0.36847514179E-02  0.77614987490E-01  0.51100000000E-03 0. -1.
         11    1    4    4    0    0 -0.27368918048E-02  0.50173241653E-01  0.26242245391E-02  0.50318907283E-01  0.51100000000E-03 0.  1.
</event>
<event>
 8    1  0.1116841E+005  0.1043930E+01  0.7957747E-01            NaN
         13   -1    0    0    0    0  0.00000000000E+00  0.00000000000E+00  0.74505805969E-08  0.10566000000E+00  0.10566000000E+00 0.  1.
     999900   -1    0    0    0    0 -0.00000000000E+00 -0.00000000000E+00 -0.74505805969E-08  0.93827000000E+00  0.93827000000E+00 0. -1.
     999902    2    1    2    0    0 -0.22510614393E-01  0.65078566657E-02  0.95208875013E-02  0.10186371698E+01  0.10183231101E+01 0.  0.
     999903    2    3    3    0    0 -0.49827795221E-01 -0.12109714884E-01  0.11919178136E+00  0.13121362536E+00  0.19516156475E-01 0.  0.
         14    1    1    2    0    0  0.22510614393E-01 -0.65078566657E-02 -0.95208875013E-02  0.25292830161E-01  0.00000000000E+00 0. -1.
     999901    1    3    3    0    0  0.27317180828E-01  0.18617571550E-01 -0.10967089386E+00  0.88742354448E+00  0.88000000000E+00 0. -1.
        -11    1    4    4    0    0 -0.30487444081E-01 -0.66504146693E-02  0.48125613750E-01  0.57358940730E-01  0.51100000000E-03 0.  1.
         11    1    4    4    0    0 -0.19340351140E-01 -0.54593002146E-02  0.71066167614E-01  0.73854684628E-01  0.51100000000E-03 0. -1.
</event>
<event>
 8    1  0.1116841E+005  0.1043930E+01  0.7957747E-01            NaN
         13   -1    0    0    0    0  0.00000000000E+00  0.00000000000E+00  0.74505805969E-08  0.10566000000E+00  0.10566000000E+00 0. -1.
     999900   -1    0    0    0    0 -0.00000000000E+00 -0.00000000000E+00 -0.74505805969E-08  0.93827000000E+00  0.93827000000E+00 0. -1.
     999902    2    1    2    0    0 -0.19209869973E-01  0.30901428226E-02  0.13290728121E-01  0.10203670727E+01  0.10200949718E+01 0.  0.
     999903    2    3    3    0    0 -0.43698889876E-01  0.59473238441E-01 -0.10555007379E+00  0.13025365201E+00  0.19456020062E-01 0.  0.
         14    1    1    2    0    0  0.19209869973E-01 -0.30901428226E-02 -0.13290728121E-01  0.23562927260E-01  0.00000000000E+00 0.  1.
     999901    1    3    3    0    0  0.24489019903E-01 -0.56383095618E-01  0.11884080192E+00  0.89011342073E+00  0.88000000000E+00 0.  1.
        -11    1    4    4    0    0 -0.19633641372E-01  0.22771335111E-01 -0.59321459839E-01  0.66507971663E-01  0.51100000000E-03 0.  1.
         11    1    4    4    0    0 -0.24065248503E-01  0.36701903329E-01 -0.46228613955E-01  0.63745680345E-01  0.51100000000E-03 0. -1.
</event>
<event>
 8    1  0.1116841E+005  0.1043930E+01  0.7957747E-01            NaN
         13   -1    0    0    0    0  0.00000000000E+00  0.00000000000E+00  0.74505805969E-08  0.10566000000E+00  0.10566000000E+00 0.  1.
     999900   -1    0    0    0    0 -0.00000000000E+00 -0.00000000000E+00 -0.74505805969E-08  0.93827000000E+00  0.93827000000E+00 0. -1.
     999902    2    1    2    0    0 -0.14510740703E-01 -0.15426662892E-01  0.85210066576E-02  0.10211012664E+01  0.10208460438E+01 0.  0.
     999903    2    3    3    0    0  0.15309660987E-01 -0.45261160787E-01  0.12219907682E+00  0.13278710054E+00  0.20416691626E-01 0.  0.
         14    1    1    2    0    0  0.14510740703E-01  0.15426662892E-01 -0.85210066576E-02  0.22828733609E-01  0.00000000000E+00 0. -1.
     999901    1    3    3    0    0 -0.29820401690E-01  0.29834497895E-01 -0.11367807017E+00  0.88831416585E+00  0.88000000000E+00 0. -1.
        -11    1    4    4    0    0  0.14201596249E-01 -0.43218972498E-01  0.12221474148E+00  0.13040808670E+00  0.51100000000E-03 0.  1.
         11    1    4    4    0    0  0.11080647381E-02 -0.20421882891E-02 -0.15664655676E-04  0.23790138405E-02  0.51100000000E-03 0. -1.
</event>
<event>
 8    1  0.1116841E+005  0.1043930E+01  0.7957747E-01            NaN
         13   -1    0    0    0    0  0.00000000000E+00  0.00000000000E+00  0.74505805969E-08  0.10566000000E+00  0.10566000000E+00 0.  1.
     999900   -1    0    0    0    0 -0.00000000000E+00 -0.00000000000E+00 -0.74505805969E-08  0.93827000000E+00  0.93827000000E+00 0. -1.
     999902    2    1    2    0    0  0.10619029429E-01 -0.76085201743E-02 -0.19965803928E-01  0.10200702705E+01  0.10197911894E+01 0.  0.
     999903    2    3    3    0    0  0.11138282895E+00 -0.90853218107E-02  0.63850106565E-01  0.13036209863E+00  0.20706593021E-01 0.  0.
         14    1    1    2    0    0 -0.10619029429E-01  0.76085201743E-02  0.19965803928E-01  0.23859729498E-01  0.00000000000E+00 0.  1.
     999901    1    3    3    0    0 -0.10076379952E+00  0.14768016364E-02 -0.83815910492E-01  0.88970817187E+00  0.88000000000E+00 0. -1.
        -11    1    4    4    0    0  0.79596851321E-01 -0.14859125364E-01  0.40792717977E-01  0.90668403029E-01  0.51100000000E-03 0.  1.
         11    1    4    4    0    0  0.31785977629E-01  0.57738035536E-02  0.23057388587E-01  0.39693695605E-01  0.51100000000E-03 0. -1.
</event>
<event>
 8    1  0.1116841E+005  0.1043930E+01  0.7957747E-01            NaN
         13   -1    0    0    0    0  0.00000000000E+00  0.00000000000E+00  0.74505805969E-08  0.10566000000E+00  0.10566000000E+00 0. -1.
     999900   -1    0    0    0    0 -0.00000000000E+00 -0.00000000000E+00 -0.74505805969E-08  0.93827000000E+00  0.93827000000E+00 0.  1.
     999902    2    1    2    0    0 -0.19332113465E-01  0.57266300736E-02  0.13966925689E-01  0.10194024662E+01  0.10191073487E+01 0.  0.
     999903    2    3    3    0    0  0.36728648609E-01 -0.82937538783E-01  0.90804645616E-01  0.12984742060E+00  0.19678414631E-01 0.  0.
         14    1    1    2    0    0  0.19332113465E-01 -0.57266300736E-02 -0.13966925689E-01  0.24527533839E-01  0.00000000000E+00 0.  1.
     999901    1    3    3    0    0 -0.56060762074E-01  0.88664168857E-01 -0.76837719927E-01  0.88955504556E+00  0.88000000000E+00 0.  1.
        -11    1    4    4    0    0  0.17745205801E-01 -0.55953693427E-01  0.48173659443E-01  0.75938598369E-01  0.51100000000E-03 0.  1.
         11    1    4    4    0    0  0.18983442808E-01 -0.26983845356E-01  0.42630986173E-01  0.53908822229E-01  0.51100000000E-03 0. -1.
</event>
<event>
 8    1  0.1116841E+005  0.1043930E+01  0.7957747E-01            NaN
         13   -1    0    0    0    0  0.00000000000E+00  0.00000000000E+00  0.74505805969E-08  0.10566000000E+00  0.10566000000E+00 0. -1.
     999900   -1    0    0    0    0 -0.00000000000E+00 -0.00000000000E+00 -0.74505805969E-08  0.93827000000E+00  0.93827000000E+00 0.  1.
     999902    2    1    2    0    0  0.22069806131E-01 -0.13805318220E-03  0.10587118883E-01  0.10194517957E+01  0.10191578784E+01 0.  0.
     999903    2    3    3    0    0  0.24920812872E-01 -0.14246931880E-01  0.12696998691E+00  0.13167245333E+00  0.19804933949E-01 0.  0.
         14    1    1    2    0    0 -0.22069806131E-01  0.13805318220E-03 -0.10587118883E-01  0.24478204337E-01  0.00000000000E+00 0.  1.
     999901    1    3    3    0    0 -0.28510067415E-02  0.14108878698E-01 -0.11638286803E+00  0.88777934233E+00  0.88000000000E+00 0.  1.
        -11    1    4    4    0    0  0.60496517944E-02  0.44475980793E-02  0.41202621100E-01  0.41884323105E-01  0.51100000000E-03 0. -1.
         11    1    4    4    0    0  0.18871161078E-01 -0.18694529959E-01  0.85767365810E-01  0.89788130227E-01  0.51100000000E-03 0.  1.
</event>
<event>
 8    1  0.1116841E+005  0.1043930E+01  0.7957747E-01            NaN
         13   -1    0    0    0    0  0.00000000000E+00  0.00000000000E+00  0.74505805969E-08  0.10566000000E+00  0.10566000000E+00 0.  1.
     999900   -1    0    0    0    0 -0.00000000000E+00 -0.00000000000E+00 -0.74505805969E-08  0.93827000000E+00  0.93827000000E+00 0.  1.
     999902    2    1    2    0    0  0.22882083696E-01 -0.22889881758E-03  0.49248687331E-02  0.10205228113E+01  0.10202543369E+01 0.  0.
     999903    2    3    3    0    0 -0.87292324299E-01 -0.22395500543E-01  0.90437049913E-01  0.12926409944E+00  0.20219769551E-01 0.  0.
         14    1    1    2    0    0 -0.22882083696E-01  0.22889881758E-03 -0.49248687331E-02  0.23407188660E-01  0.00000000000E+00 0. -1.
     999901    1    3    3    0    0  0.11017440799E+00  0.22166601726E-01 -0.85512181180E-01  0.89125871190E+00  0.88000000000E+00 0.  1.
        -11    1    4    4    0    0 -0.44399917560E-01 -0.63710250332E-02  0.32386211786E-01  0.55326941666E-01  0.51100000000E-03 0.  1.
         11    1    4    4    0    0 -0.42892406739E-01 -0.16024475510E-01  0.58050838127E-01  0.73937157772E-01  0.51100000000E-03 0. -1.
</event>
<event>
 8    1  0.1116841E+005  0.1043930E+01  0.7957747E-01            NaN
         13   -1    0    0    0    0  0.00000000000E+00  0.00000000000E+00  0.74505805969E-08  0.10566000000E+00  0.10566000000E+00 0.  1.
     999900   -1    0    0    0    0 -0.00000000000E+00 -0.00000000000E+00 -0.74505805969E-08  0.93827000000E+00  0.93827000000E+00 0.  1.
     999902    2    1    2    0    0  0.19403280206E-01 -0.94298473131E-02  0.81737924189E-02  0.10208601022E+01  0.10205993964E+01 0.  0.
     999903    2    3    3    0    0 -0.84481610707E-01 -0.97022121939E-01  0.49296569848E-03  0.13039759750E+00  0.21280407084E-01 0.  0.
         14    1    1    2    0    0 -0.19403280206E-01  0.94298473131E-02 -0.81737924189E-02  0.23069897824E-01  0.00000000000E+00 0. -1.
     999901    1    3    3    0    0  0.10388489091E+00  0.87592274626E-01  0.76808267204E-02  0.89046250468E+00  0.88000000000E+00 0. -1.
        -11    1    4    4    0    0 -0.69549869038E-01 -0.76526730020E-01 -0.78227057514E-02  0.10370622227E+00  0.51100000000E-03 0. -1.
         11    1    4    4    0    0 -0.14931741669E-01 -0.20495391919E-01  0.83156714499E-02  0.26691375233E-01  0.51100000000E-03 0.  1.
</event>
<event>
 8    1  0.1116841E+005  0.1043930E+01  0.7957747E-01            NaN
         13   -1    0    0    0    0  0.00000000000E+00  0.00000000000E+00  0.74505805969E-08  0.10566000000E+00  0.10566000000E+00 0.  1.
     999900   -1    0    0    0    0 -0.00000000000E+00 -0.00000000000E+00 -0.74505805969E-08  0.93827000000E+00  0.93827000000E+00 0. -1.
     999902    2    1    2    0    0 -0.14747241314E-02 -0.21922335407E-01  0.74777842284E-02  0.10207205007E+01  0.10204565937E+01 0.  0.
     999903    2    3    3    0    0  0.11349705127E+00  0.24523672904E-01  0.56318937418E-01  0.13068611986E+00  0.20592426596E-01 0.  0.
         14    1    1    2    0    0  0.14747241314E-02  0.21922335407E-01 -0.74777842284E-02  0.23209499303E-01  0.00000000000E+00 0. -1.
     999901    1    3    3    0    0 -0.11497177540E+00 -0.46446008310E-01 -0.48841153190E-01  0.89003438084E+00  0.88000000000E+00 0. -1.
        -11    1    4    4    0    0  0.14658331452E-01  0.57688353392E-02  0.15534600547E-01  0.22129868443E-01  0.51100000000E-03 0. -1.
         11    1    4    4    0    0  0.98838719815E-01  0.18754837564E-01  0.40784336871E-01  0.10855625142E+00  0.51100000000E-03 0.  1.
</event>
<event>
 8    1  0.1116841E+005  0.1043930E+01  0.7957747E-01            NaN
         13   -1    0    0    0    0  0.00000000000E+00  0.00000000000E+00  0.74505805969E-08  0.10566000000E+00  0.10566000000E+00 0. -1.
     999900   -1    0    0    0    0 -0.00000000000E+00 -0.00000000000E+00 -0.74505805969E-08  0.93827000000E+00  0.93827000000E+00 0.  1.
     999902    2    1    2    0    0  0.13213401593E-01 -0.85000068724E-02 -0.17361035648E-01  0.10205152684E+01  0.10202466189E+01 0.  0.
     999903    2    3    3    0    0  0.47136063547E-01 -0.78549132411E-01 -0.95278413259E-01  0.13365071010E+00  0.19818213542E-01 0.  0.
         14    1    1    2    0    0 -0.13213401593E-01  0.85000068724E-02  0.17361035648E-01  0.23414731629E-01  0.00000000000E+00 0. -1.
     999901    1    3    3    0    0 -0.33922661953E-01  0.70049125538E-01  0.77917377612E-01  0.88686455827E+00  0.88000000000E+00 0. -1.
        -11    1    4    4    0    0  0.38404906683E-01 -0.73515458051E-01 -0.89490418801E-01  0.12201743977E+00  0.51100000000E-03 0.  1.
         11    1    4    4    0    0  0.87311568639E-02 -0.50336743600E-02 -0.57879944586E-02  0.11633270331E-01  0.51100000000E-03 0. -1.
</event>
<event>
 8    1  0.1116841E+005  0.1043930E+01  0.7957747E-01            NaN
         13   -1    0    0    0    0  0.00000000000E+00  0.00000000000E+00  0.74505805969E-08  0.10566000000E+00  0.10566000000E+00 0. -1.
     999900   -1    0    0    0    0 -0.00000000000E+00 -0.00000000000E+00 -0.74505805969E-08  0.93827000000E+00  0.93827000000E+00 0. -1.
     999902    2    1    2    0    0 -0.93698515766E-02 -0.31081919617E-02 -0.21873374923E-01  0.10199320937E+01  0.10196497321E+01 0.  0.
     999903    2    3    3    0    0 -0.45830334256E-02  0.12529348746E+00  0.24474028068E-01  0.12939406158E+00  0.20600556464E-01 0.  0.
         14    1    1    2    0    0  0.93698515766E-02  0.31081919617E-02  0.21873374923E-01  0.23997906291E-01  0.00000000000E+00 0. -1.
     999901    1    3    3    0    0 -0.47868181510E-02 -0.12840167942E+00 -0.46347402991E-01  0.89053803213E+00  0.88000000000E+00 0.  1.
        -11    1    4    4    0    0  0.57376294230E-02  0.88078623293E-01  0.13942965701E-01  0.89361242640E-01  0.51100000000E-03 0.  1.
         11    1    4    4    0    0 -0.10320662849E-01  0.37214864167E-01  0.10531062367E-01  0.40032818938E-01  0.51100000000E-03 0. -1.
</event>
<event>
 8    1  0.1116841E+005  0.1043930E+01  0.7957747E-01            NaN
         13   -1    0    0    0    0  0.00000000000E+00  0.00000000000E+00  0.74505805969E-08  0.10566000000E+00  0.10566000000E+00 0. -1.
     999900   -1    0    0    0    0 -0.00000000000E+00 -0.00000000000E+00 -0.74505805969E-08  0.93827000000E+00  0.93827000000E+00 0.  1.
     999902    2    1    2    0    0  0.92488299232E-02  0.15475312946E-01  0.13607593376E-01  0.10213425530E+01  0.10210927567E+01 0.  0.
     999903    2    3    3    0    0 -0.29803240587E-01  0.12741411541E+00  0.16511545942E-01  0.13338771592E+00  0.19926405926E-01 0.  0.
         14    1    1    2    0    0 -0.92488299232E-02 -0.15475312946E-01 -0.13607593376E-01  0.22587447028E-01  0.00000000000E+00 0.  1.
     999901    1    3    3    0    0  0.39052070510E-01 -0.11193880246E+00 -0.29039525654E-02  0.88795483705E+00  0.88000000000E+00 0. -1.
        -11    1    4    4    0    0 -0.11659908103E-01  0.89905060722E-01  0.99357188120E-02  0.91202264389E-01  0.51100000000E-03 0.  1.
         11    1    4    4    0    0 -0.18143332484E-01  0.37509054688E-01  0.65758271298E-02  0.42185451528E-01  0.51100000000E-03 0. -1.
</event>
<event>
 8    1  0.1116841E+005  0.1043930E+01  0.7957747E-01            NaN
         13   -1    0    0    0    0  0.00000000000E+00  0.00000000000E+00  0.74505805969E-08  0.10566000000E+00  0.10566000000E+00 0.  1.
     999900   -1    0    0    0    0 -0.00000000000E+00 -0.00000000000E+00 -0.74505805969E-08  0.93827000000E+00  0.93827000000E+00 0.  1.
     999902    2    1    2    0    0  0.11264674885E-01 -0.11477281460E-01  0.17601595719E-01  0.10200880818E+01  0.10198094222E+01 0.  0.
     999903    2    3    3    0    0 -0.76531164143E-01 -0.76152375633E-01 -0.68168233354E-01  0.12921915728E+00  0.19861499689E-01 0.  0.
         14    1    1    2    0    0 -0.11264674885E-01  0.11477281460E-01 -0.17601595719E-01  0.23841918166E-01  0.00000000000E+00 0. -1.
     999901    1    3    3    0    0  0.87795839028E-01  0.64675094173E-01  0.85769829073E-01  0.89086892455E+00  0.88000000000E+00 0.  1.
        -11    1    4    4    0    0  0.74597558699E-03 -0.34380791436E-02 -0.12408071306E-02  0.37653142113E-02  0.51100000000E-03 0.  1.
         11    1    4    4    0    0 -0.77277139730E-01 -0.72714296489E-01 -0.66927426223E-01  0.12545384307E+00  0.51100000000E-03 0. -1.
</event>
<event>
 8    1  0.1116841E+005  0.1043930E+01  0.7957747E-01            NaN
         13   -1    0    0    0    0  0.00000000000E+00  0.00000000000E+00  0.74505805969E-08  0.10566000000E+00  0.10566000000E+00 0.  1.
     999900   -1    0    0    0    0 -0.00000000000E+00 -0.00000000000E+00 -0.74505805969E-08  0.93827000000E+00  0.93827000000E+00 0. -1.
     999902    2    1    2    0    0  0.55238627397E-02  0.21181413628E-02  0.23034640157E-01  0.10201477749E+01  0.10198705253E+01 0.  0.
     999903    2    3    3    0    0 -0.12020509035E+00 -0.30560606275E-01  0.35332657533E-01  0.13052599494E+00  0.20135149961E-01 0.  0.
         14    1    1    2    0    0 -0.55238627397E-02 -0.21181413628E-02 -0.23034640157E-01  0.23782225076E-01  0.00000000000E+00 0. -1.
     999901    1    3    3    0    0  0.12572895309E+00  0.32678747638E-01 -0.12298017376E-01  0.88962177999E+00  0.88000000000E+00 0.  1.
        -11    1    4    4    0    0 -0.70418743724E-01 -0.77289583489E-02  0.21453987528E-01  0.74020746866E-01  0.51100000000E-03 0.  1.
         11    1    4    4    0    0 -0.49786346628E-01 -0.22831647926E-01  0.13878670005E-01  0.56505248072E-01  0.51100000000E-03 0. -1.
</event>
<event>
 8    1  0.1116841E+005  0.1043930E+01  0.7957747E-01            NaN
         13   -1    0    0    0    0  0.00000000000E+00  0.00000000000E+00  0.74505805969E-08  0.10566000000E+00  0.10566000000E+00 0. -1.
     999900   -1    0    0    0    0 -0.00000000000E+00 -0.00000000000E+00 -0.74505805969E-08  0.93827000000E+00  0.93827000000E+00 0. -1.
     999902    2    1    2    0    0 -0.10810641815E-01 -0.14405423372E-01  0.15059034931E-01  0.10204531874E+01  0.10201830948E+01 0.  0.
     999903    2    3    3    0    0 -0.12825953249E+00 -0.19635010704E-02  0.26567540301E-01  0.13248838566E+00  0.19823600257E-01 0.  0.
         14    1    1    2    0    0  0.10810641815E-01  0.14405423372E-01 -0.15059034931E-01  0.23476812646E-01  0.00000000000E+00 0.  1.
     999901    1    3    3    0    0  0.11744889067E+00 -0.12441922301E-01 -0.11508505370E-01  0.88796480169E+00  0.88000000000E+00 0. -1.
        -11    1    4    4    0    0 -0.64931366524E-01 -0.39848153525E-02  0.38243714556E-02  0.65167845216E-01  0.51100000000E-03 0. -1.
         11    1    4    4    0    0 -0.63328165963E-01  0.20213142821E-02  0.22743168845E-01  0.67320540445E-01  0.51100000000E-03 0.  1.
</event>
<event>
 8    1  0.1116841E+005  0.1043930E+01  0.7957747E-01            NaN
         13   -1    0    0    0    0  0.00000000000E+00  0.00000000000E+00  0.74505805969E-08  0.10566000000E+00  0.10566000000E+00 0.  1.
     999900   -1    0    0    0    0 -0.00000000000E+00 -0.00000000000E+00 -0.74505805969E-08  0.93827000000E+00  0.93827000000E+00 0.  1.
     999902    2    1    2    0    0  0.41300444532E-02 -0.81778793253E-02 -0.23277796958E-01  0.10189141888E+01  0.10186070554E+01 0.  0.
     999903    2    3    3    0    0  0.19897022250E-01  0.11887903780E+00  0.35975700136E-01  0.12767738825E+00  0.21889434642E-01 0.  0.
         14    1    1    2    0    0 -0.41300444532E-02  0.81778793253E-02  0.23277796958E-01  0.25015811174E-01  0.00000000000E+00 0.  1.
     999901    1    3    3    0    0 -0.15766977797E-01 -0.12705691712E+00 -0.59253497094E-01  0.89123680057E+00  0.88000000000E+00 0. -1.
        -11    1    4    4    0    0  0.14849093643E-01  0.33987795638E-01  0.15517907252E-01  0.40208611029E-01  0.51100000000E-03 0.  1.
         11    1    4    4    0    0  0.50479286071E-02  0.84891242159E-01  0.20457792884E-01  0.87468777225E-01  0.51100000000E-03 0. -1.
</event>
<event>
 8    1  0.1116841E+005  0.1043930E+01  0.7957747E-01            NaN
         13   -1    0    0    0    0  0.00000000000E+00  0.00000000000E+00  0.74505805969E-08  0.10566000000E+00  0.10566000000E+00 0. -1.
     999900   -1    0    0    0    0 -0.00000000000E+00 -0.00000000000E+00 -0.74505805969E-08  0.93827000000E+00  0.93827000000E+00 0.  1.
     999902    2    1    2    0    0  0.14432275500E-01  0.14298069057E-01 -0.12698960986E-01  0.10199719332E+01  0.10196905195E+01 0.  0.
     999903    2    3    3    0    0 -0.12634124282E+00  0.75050549378E-02  0.95322657417E-02  0.12848017443E+00  0.19946319091E-01 0.  0.
         14    1    1    2    0    0 -0.14432275500E-01 -0.14298069057E-01  0.12698960986E-01  0.23958066804E-01  0.00000000000E+00 0. -1.
     999901    1    3    3    0    0  0.14077351832E+00  0.67930141189E-02 -0.22231226728E-01  0.89149175876E+00  0.88000000000E+00 0. -1.
        -11    1    4    4    0    0 -0.79349544158E-01  0.17263479437E-02  0.15139210300E-01  0.80800911163E-01  0.51100000000E-03 0. -1.
         11    1    4    4    0    0 -0.46991698662E-01  0.57787069941E-02 -0.56069445587E-02  0.47679263270E-01  0.51100000000E-03 0.  1.
</event>
<event>
 8    1  0.1116841E+005  0.1043930E+01  0.7957747E-01            NaN
         13   -1    0    0    0    0  0.00000000000E+00  0.00000000000E+00  0.74505805969E-08  0.10566000000E+00  0.10566000000E+00 0.  1.
     999900   -1    0    0    0    0 -0.00000000000E+00 -0.00000000000E+00 -0.74505805969E-08  0.93827000000E+00  0.93827000000E+00 0.  1.
     999902    2    1    2    0    0 -0.21308560853E-01 -0.87264756804E-02 -0.27515567488E-02  0.10207399761E+01  0.10204765169E+01 0.  0.
     999903    2    3    3    0    0 -0.58082255887E-01  0.84892782182E-02  0.11633523689E+00  0.13179096112E+00  0.19732049995E-01 0.  0.
         14    1    1    2    0    0  0.21308560853E-01  0.87264756804E-02  0.27515567488E-02  0.23190023889E-01  0.00000000000E+00 0.  1.
     999901    1    3    3    0    0  0.36773695034E-01 -0.17215753899E-01 -0.11908679364E+00  0.88894901499E+00  0.88000000000E+00 0.  1.
        -11    1    4    4    0    0 -0.29218259562E-01 -0.62080721395E-03  0.38966139908E-01  0.48710504758E-01  0.51100000000E-03 0. -1.
         11    1    4    4    0    0 -0.28863996325E-01  0.91100854321E-02  0.77369096986E-01  0.83080456365E-01  0.51100000000E-03 0.  1.
</event>
<event>
 8    1  0.1116841E+005  0.1043930E+01  0.7957747E-01            NaN
         13   -1    0    0    0    0  0.00000000000E+00  0.00000000000E+00  0.74505805969E-08  0.10566000000E+00  0.10566000000E+00 0.  1.
     999900   -1    0    0    0    0 -0.00000000000E+00 -0.00000000000E+00 -0.74505805969E-08  0.93827000000E+00  0.93827000000E+00 0. -1.
     999902    2    1    2    0    0  0.99114407056E-03 -0.18204669637E-01 -0.14287625621E-01  0.10207669128E+01  0.10205040723E+01 0.  0.
     999903    2    3    3    0    0 -0.62148406629E-01  0.10833358217E+00 -0.26399009645E-01  0.12939425354E+00  0.21151256852E-01 0.  0.
         14    1    1    2    0    0 -0.99114407056E-03  0.18204669637E-01  0.14287625621E-01  0.23163087209E-01  0.00000000000E+00 0.  1.
     999901    1    3    3    0    0  0.63139550700E-01 -0.12653825181E+00  0.12111384024E-01  0.89137265925E+00  0.88000000000E+00 0. -1.
        -11    1    4    4    0    0 -0.50224241162E-01  0.72422367130E-01 -0.12198209830E-01  0.88974890306E-01  0.51100000000E-03 0.  1.
         11    1    4    4    0    0 -0.11924165467E-01  0.35911215044E-01 -0.14200799815E-01  0.40419363236E-01  0.51100000000E-03 0. -1.
</event>
<event>
 8    1  0.1116841E+005  0.1043930E+01  0.7957747E-01            NaN
         13   -1    0    0    0    0  0.00000000000E+00  0.00000000000E+00  0.74505805969E-08  0.10566000000E+00  0.10566000000E+00 0.  1.
     999900   -1    0    0    0    0 -0.00000000000E+00 -0.00000000000E+00 -0.74505805969E-08  0.93827000000E+00  0.93827000000E+00 0. -1.
     999902    2    1    2    0    0 -0.14220797631E-01  0.10720899952E-01 -0.12330307536E-01  0.10222688536E+01  0.10220393357E+01 0.  0.
     999903    2    3    3    0    0 -0.10949266622E+00 -0.73521573632E-02 -0.75972384896E-01  0.13465763329E+00  0.17837509973E-01 0.  0.
         14    1    1    2    0    0  0.14220797631E-01 -0.10720899952E-01  0.12330307536E-01  0.21661146437E-01  0.00000000000E+00 0.  1.
     999901    1    3    3    0    0  0.95271868590E-01  0.18073057315E-01  0.63642077360E-01  0.88761122027E+00  0.88000000000E+00 0.  1.
        -11    1    4    4    0    0 -0.55868640661E-01  0.38526340244E-02 -0.44044720786E-01  0.71248483130E-01  0.51100000000E-03 0.  1.
         11    1    4    4    0    0 -0.53624025561E-01 -0.11204791388E-01 -0.31927664110E-01  0.63409150159E-01  0.51100000000E-03 0. -1.
</event>
<event>
 8    1  0.1116841E+005  0.1043930E+01  0.7957747E-01            NaN
         13   -1    0    0    0    0  0.00000000000E+00  0.00000000000E+00  0.74505805969E-08  0.10566000000E+00  0.10566000000E+00 0. -1.
     999900   -1    0    0    0    0 -0.00000000000E+00 -0.00000000000E+00 -0.74505805969E-08  0.93827000000E+00  0.93827000000E+00 0.  1.
     999902    2    1    2    0    0 -0.14019724890E-01 -0.16154682972E-01 -0.11149156302E-01  0.10198088443E+01  0.10195235400E+01 0.  0.
     999903    2    3    3    0    0  0.57620551744E-01 -0.61784229066E-01 -0.98455896603E-01  0.13141881077E+00  0.20974300999E-01 0.  0.
         14    1    1    2    0    0  0.14019724890E-01  0.16154682972E-01  0.11149156302E-01  0.24121155739E-01  0.00000000000E+00 0. -1.
     999901    1    3    3    0    0 -0.71640276634E-01  0.45629546094E-01  0.87306740301E-01  0.88839003350E+00  0.88000000000E+00 0. -1.
        -11    1    4    4    0    0  0.19041886333E-01 -0.13068306837E-01 -0.15711589424E-01  0.27937237550E-01  0.51100000000E-03 0. -1.
         11    1    4    4    0    0  0.38578665412E-01 -0.48715922229E-01 -0.82744307179E-01  0.10348157322E+00  0.51100000000E-03 0.  1.
</event>
<event>
 8    1  0.1116841E+005  0.1043930E+01  0.7957747E-01            NaN
         13   -1    0    0    0    0  0.00000000000E+00  0.00000000000E+00  0.74505805969E-08  0.10566000000E+00  0.10566000000E+00 0. -1.
     999900   -1    0    0    0    0 -0.00000000000E+00 -0.00000000000E+00 -0.74505805969E-08  0.93827000000E+00  0.93827000000E+00 0.  1.
     999902    2    1    2    0    0  0.12890347671E-01 -0.65985615022E-02  0.18993433202E-01  0.10200458508E+01  0.10197661914E+01 0.  0.
     999903    2    3    3    0    0  0.11852866451E+00 -0.55015243649E-01  0.24425544931E-02  0.13225220325E+00  0.20222706228E-01 0.  0.
         14    1    1    2    0    0 -0.12890347671E-01  0.65985615022E-02 -0.18993433202E-01  0.23884149174E-01  0.00000000000E+00 0.  1.
     999901    1    3    3    0    0 -0.10563831684E+00  0.48416682147E-01  0.16550878709E-01  0.88779364758E+00  0.88000000000E+00 0.  1.
        -11    1    4    4    0    0  0.27733966462E-01 -0.69642724399E-02 -0.58475596043E-02  0.29191249728E-01  0.51100000000E-03 0. -1.
         11    1    4    4    0    0  0.90794698047E-01 -0.48050971209E-01  0.82901140974E-02  0.10306095352E+00  0.51100000000E-03 0.  1.
</event>
<event>
 8    1  0.1116841E+005  0.1043930E+01  0.7957747E-01            NaN
         13   -1    0    0    0    0  0.00000000000E+00  0.00000000000E+00  0.74505805969E-08  0.10566000000E+00  0.10566000000E+00 0. -1.
     999900   -1    0    0    0    0 -0.00000000000E+00 -0.00000000000E+00 -0.74505805969E-08  0.93827000000E+00  0.93827000000E+00 0. -1.
     999902    2    1    2    0    0 -0.77973476919E-02  0.71860415500E-02  0.17710294000E-01  0.10232879958E+01  0.10230797769E+01 0.  0.
     999903    2    3    3    0    0  0.47265442248E-02  0.88683386837E-01 -0.95714595536E-01  0.13218538064E+00  0.20606012132E-01 0.  0.
         14    1    1    2    0    0  0.77973476919E-02 -0.71860415500E-02 -0.17710294000E-01  0.20642004209E-01  0.00000000000E+00 0.  1.
     999901    1    3    3    0    0 -0.12523891917E-01 -0.81497345287E-01  0.11342488954E+00  0.89110261515E+00  0.88000000000E+00 0.  1.
        -11    1    4    4    0    0 -0.73237040434E-02  0.28247938517E-01 -0.36339110438E-01  0.46608741024E-01  0.51100000000E-03 0.  1.
         11    1    4    4    0    0  0.12050248268E-01  0.60435448320E-01 -0.59375485097E-01  0.85576639619E-01  0.51100000000E-03 0. -1.
</event>
<event>
 8    1  0.1116841E+005  0.1043930E+01  0.7957747E-01            NaN
         13   -1    0    0    0    0  0.00000000000E+00  0.00000000000E+00  0.74505805969E-08  0.10566000000E+00  0.10566000000E+00 0.  1.
     999900   -1    0    0    0    0 -0.00000000000E+00 -0.00000000000E+00 -0.74505805969E-08  0.93827000000E+00  0.93827000000E+00 0.  1.
     999902    2    1    2    0    0  0.68218572561E-02 -0.22457904807E-01 -0.38216809571E-02  0.10201497462E+01  0.10198725431E+01 0.  0.
     999903    2    3    3    0    0 -0.47089876964E-01  0.10157108785E+00  0.57927838918E-01  0.12767976391E+00  0.20306284505E-01 0.  0.
         14    1    1    2    0    0 -0.68218572561E-02  0.22457904807E-01  0.38216809571E-02  0.23780253785E-01  0.00000000000E+00 0.  1.
     999901    1    3    3    0    0  0.53911734220E-01 -0.12402899266E+00 -0.61749519876E-01  0.89246998230E+00  0.88000000000E+00 0.  1.
        -11    1    4    4    0    0 -0.44879222463E-01  0.10178316233E+00  0.55383271958E-01  0.12426393152E+00  0.51100000000E-03 0.  1.
         11    1    4    4    0    0 -0.22106545010E-02 -0.21207447794E-03  0.25445669601E-02  0.34158323908E-02  0.51100000000E-03 0. -1.
</event>
<event>
 8    1  0.1116841E+005  0.1043930E+01  0.7957747E-01            NaN
         13   -1    0    0    0    0  0.00000000000E+00  0.00000000000E+00  0.74505805969E-08  0.10566000000E+00  0.10566000000E+00 0. -1.
     999900   -1    0    0    0    0 -0.00000000000E+00 -0.00000000000E+00 -0.74505805969E-08  0.93827000000E+00  0.93827000000E+00 0.  1.
     999902    2    1    2    0    0  0.28994764327E-02  0.41343706562E-03 -0.22904405626E-01  0.10208390994E+01  0.10205779133E+01 0.  0.
     999903    2    3    3    0    0 -0.54511725454E-01 -0.10484233939E+00 -0.55729470947E-01  0.13210274395E+00  0.19542688766E-01 0.  0.
         14    1    1    2    0    0 -0.28994764327E-02 -0.41343706562E-03  0.22904405626E-01  0.23090900608E-01  0.00000000000E+00 0. -1.
     999901    1    3    3    0    0  0.57411201887E-01  0.10525577646E+00  0.32825065321E-01  0.88873635545E+00  0.88000000000E+00 0.  1.
        -11    1    4    4    0    0 -0.52588568320E-02 -0.27892278908E-01 -0.14232568914E-01  0.31756289720E-01  0.51100000000E-03 0. -1.
         11    1    4    4    0    0 -0.49252868622E-01 -0.76950060486E-01 -0.41496902033E-01  0.10034645423E+00  0.51100000000E-03 0.  1.
</event>
<event>
 8    1  0.1116841E+005  0.1043930E+01  0.7957747E-01            NaN
         13   -1    0    0    0    0  0.00000000000E+00  0.00000000000E+00  0.74505805969E-08  0.10566000000E+00  0.10566000000E+00 0.  1.
     999900   -1    0    0    0    0 -0.00000000000E+00 -0.00000000000E+00 -0.74505805969E-08  0.93827000000E+00  0.93827000000E+00 0.  1.
     999902    2    1    2    0    0  0.74518935605E-02  0.20273149441E-01  0.12419389842E-01  0.10190146925E+01  0.10187100524E+01 0.  0.
     999903    2    3    3    0    0 -0.51292952031E-01 -0.98481198584E-01  0.60132829665E-01  0.12781879682E+00  0.19803388972E-01 0.  0.
         14    1    1    2    0    0 -0.74518935605E-02 -0.20273149441E-01 -0.12419389842E-01  0.24915307543E-01  0.00000000000E+00 0. -1.
     999901    1    3    3    0    0  0.58744845592E-01  0.11875434802E+00 -0.47713439823E-01  0.89119589564E+00  0.88000000000E+00 0.  1.
        -11    1    4    4    0    0 -0.34194715784E-01 -0.77003622732E-01  0.37450168579E-01  0.92204190518E-01  0.51100000000E-03 0. -1.
         11    1    4    4    0    0 -0.17098236248E-01 -0.21477575852E-01  0.22682661086E-01  0.35614606304E-01  0.51100000000E-03 0.  1.
</event>
<event>
 8    1  0.1116841E+005  0.1043930E+01  0.7957747E-01            NaN
         13   -1    0    0    0    0  0.00000000000E+00  0.00000000000E+00  0.74505805969E-08  0.10566000000E+00  0.10566000000E+00 0.  1.
     999900   -1    0    0    0    0 -0.00000000000E+00 -0.00000000000E+00 -0.74505805969E-08  0.93827000000E+00  0.93827000000E+00 0.  1.
     999902    2    1    2    0    0  0.21851857173E-01  0.42505837814E-02  0.95906333248E-02  0.10196905410E+01  0.10194023975E+01 0.  0.
     999903    2    3    3    0    0  0.86014023786E-01  0.61543088637E-01  0.77962879285E-01  0.13285685945E+00  0.19666481883E-01 0.  0.
         14    1    1    2    0    0 -0.21851857173E-01 -0.42505837814E-02 -0.95906333248E-02  0.24239458987E-01  0.00000000000E+00 0.  1.
     999901    1    3    3    0    0 -0.64162166613E-01 -0.57292504855E-01 -0.68372245960E-01  0.88683368156E+00  0.88000000000E+00 0.  1.
        -11    1    4    4    0    0  0.11144063336E-01  0.11815055827E-01  0.47454740853E-02  0.16928270353E-01  0.51100000000E-03 0.  1.
         11    1    4    4    0    0  0.74869960450E-01  0.49728032809E-01  0.73217405200E-01  0.11592858910E+00  0.51100000000E-03 0. -1.
</event>
<event>
 8    1  0.1116841E+005  0.1043930E+01  0.7957747E-01            NaN
         13   -1    0    0    0    0  0.00000000000E+00  0.00000000000E+00  0.74505805969E-08  0.10566000000E+00  0.10566000000E+00 0. -1.
     999900   -1    0    0    0    0 -0.00000000000E+00 -0.00000000000E+00 -0.74505805969E-08  0.93827000000E+00  0.93827000000E+00 0. -1.
     999902    2    1    2    0    0  0.73744210078E-03 -0.12126011823E-01  0.17138113635E-01  0.10229228840E+01  0.10227071564E+01 0.  0.
     999903    2    3    3    0    0  0.14351697021E-02  0.11054992412E+00 -0.66500225860E-01  0.13048507445E+00  0.19512282788E-01 0.  0.
         14    1    1    2    0    0 -0.73744210078E-03  0.12126011823E-01 -0.17138113635E-01  0.21007115998E-01  0.00000000000E+00 0.  1.
     999901    1    3    3    0    0 -0.69772760131E-03 -0.12267593594E+00  0.83638339495E-01  0.89243780955E+00  0.88000000000E+00 0.  1.
        -11    1    4    4    0    0  0.55159300385E-02  0.94067284265E-02 -0.47083772297E-02  0.11888732524E-01  0.51100000000E-03 0.  1.
         11    1    4    4    0    0 -0.40807603364E-02  0.10114319570E+00 -0.61791848630E-01  0.11859634193E+00  0.51100000000E-03 0. -1.
</event>
<event>
 8    1  0.1116841E+005  0.1043930E+01  0.7957747E-01            NaN
         13   -1    0    0    0    0  0.00000000000E+00  0.00000000000E+00  0.74505805969E-08  0.10566000000E+00  0.10566000000E+00 0. -1.
     999900   -1    0    0    0    0 -0.00000000000E+00 -0.00000000000E+00 -0.74505805969E-08  0.93827000000E+00  0.93827000000E+00 0. -1.
     999902    2    1    2    0    0  0.14720711101E-01 -0.11494922278E-01 -0.15204933153E-01  0.10198463424E+01  0.10195619351E+01 0.  0.
     999903    2    3    3    0    0 -0.37226534158E-01  0.48359755723E-01 -0.11396344244E+00  0.13078259777E+00  0.19797496010E-01 0.  0.
         14    1    1    2    0    0 -0.14720711101E-01  0.11494922278E-01  0.15204933153E-01  0.24083657648E-01  0.00000000000E+00 0. -1.
     999901    1    3    3    0    0  0.51947245259E-01 -0.59854678002E-01  0.98758509287E-01  0.88906374458E+00  0.88000000000E+00 0.  1.
        -11    1    4    4    0    0 -0.22028414785E-01  0.17951127666E-01 -0.67227803154E-01  0.72988579109E-01  0.51100000000E-03 0. -1.
         11    1    4    4    0    0 -0.15198119374E-01  0.30408628057E-01 -0.46735639286E-01  0.57794018664E-01  0.51100000000E-03 0.  1.
</event>
<event>
 8    1  0.1116841E+005  0.1043930E+01  0.7957747E-01            NaN
         13   -1    0    0    0    0  0.00000000000E+00  0.00000000000E+00  0.74505805969E-08  0.10566000000E+00  0.10566000000E+00 0.  1.
     999900   -1    0    0    0    0 -0.00000000000E+00 -0.00000000000E+00 -0.74505805969E-08  0.93827000000E+00  0.93827000000E+00 0. -1.
     999902    2    1    2    0    0 -0.23401368191E-01 -0.76403590234E-02  0.16494185040E-02  0.10192577544E+01  0.10189591014E+01 0.  0.
     999903    2    3    3    0    0 -0.12527870076E-01 -0.10216255140E+00 -0.77873531109E-01  0.13056400667E+00  0.19711381323E-01 0.  0.
         14    1    1    2    0    0  0.23401368191E-01  0.76403590234E-02 -0.16494185040E-02  0.24672245553E-01  0.00000000000E+00 0. -1.
     999901    1    3    3    0    0 -0.10873498115E-01  0.94522192380E-01  0.79522949613E-01  0.88869374777E+00  0.88000000000E+00 0.  1.
        -11    1    4    4    0    0  0.85692642641E-03 -0.22029880131E-01 -0.81735085264E-02  0.23518446040E-01  0.51100000000E-03 0.  1.
         11    1    4    4    0    0 -0.13384796502E-01 -0.80132671272E-01 -0.69700022583E-01  0.10704556064E+00  0.51100000000E-03 0. -1.
</event>
<event>
 8    1  0.1116841E+005  0.1043930E+01  0.7957747E-01            NaN
         13   -1    0    0    0    0  0.00000000000E+00  0.00000000000E+00  0.74505805969E-08  0.10566000000E+00  0.10566000000E+00 0. -1.
     999900   -1    0    0    0    0 -0.00000000000E+00 -0.00000000000E+00 -0.74505805969E-08  0.93827000000E+00  0.93827000000E+00 0.  1.
     999902    2    1    2    0    0 -0.40603212183E-02  0.21154663897E-01 -0.93670913460E-02  0.10204406745E+01  0.10201702906E+01 0.  0.
     999903    2    3    3    0    0 -0.10756432324E+00 -0.41365620765E-01 -0.58445111612E-01  0.13081686831E+00  0.20396660209E-01 0.  0.
         14    1    1    2    0    0  0.40603212183E-02 -0.21154663897E-01  0.93670913460E-02  0.23489325517E-01  0.00000000000E+00 0. -1.
     999901    1    3    3    0    0  0.10350400203E+00  0.62520284662E-01  0.49078020266E-01  0.88962380617E+00  0.88000000000E+00 0. -1.
        -11    1    4    4    0    0 -0.84833943453E-01 -0.24774727376E-01 -0.38965378702E-01  0.96587509217E-01  0.51100000000E-03 0. -1.
         11    1    4    4    0    0 -0.22730379791E-01 -0.16590893389E-01 -0.19479732910E-01  0.34229359096E-01  0.51100000000E-03 0.  1.
</event>
<event>
 8    1  0.1116841E+005  0.1043930E+01  0.7957747E-01            NaN
         13   -1    0    0    0    0  0.00000000000E+00  0.00000000000E+00  0.74505805969E-08  0.10566000000E+00  0.10566000000E+00 0. -1.
     999900   -1    0    0    0    0 -0.00000000000E+00 -0.00000000000E+00 -0.74505805969E-08  0.93827000000E+00  0.93827000000E+00 0. -1.
     999902    2    1    2    0    0 -0.10635730379E-01  0.16429987250E-01  0.12385017731E-01  0.10207685686E+01  0.10205057661E+01 0.  0.
     999903    2    3    3    0    0  0.60160710176E-01 -0.10168826117E+00  0.48799013625E-01  0.12931467986E+00  0.19522530225E-01 0.  0.
         14    1    1    2    0    0  0.10635730379E-01 -0.16429987250E-01 -0.12385017731E-01  0.23161431431E-01  0.00000000000E+00 0.  1.
     999901    1    3    3    0    0 -0.70796440556E-01  0.11811824842E+00 -0.36413995894E-01  0.89145388871E+00  0.88000000000E+00 0. -1.
        -11    1    4    4    0    0  0.55949196365E-01 -0.82191354157E-01  0.36731621730E-01  0.10599624724E+00  0.51100000000E-03 0. -1.
         11    1    4    4    0    0  0.42115138111E-02 -0.19496907014E-01  0.12067391895E-01  0.23318432620E-01  0.51100000000E-03 0.  1.
</event>
<event>
 8    1  0.1116841E+005  0.1043930E+01  0.7957747E-01            NaN
         13   -1    0    0    0    0  0.00000000000E+00  0.00000000000E+00  0.74505805969E-08  0.10566000000E+00  0.10566000000E+00 0.  1.
     999900   -1    0    0    0    0 -0.00000000000E+00 -0.00000000000E+00 -0.74505805969E-08  0.93827000000E+00  0.93827000000E+00 0. -1.
     999902    2    1    2    0    0 -0.22675063524E-01  0.82995529057E-02 -0.28221224946E-02  0.10196193961E+01  0.10193295382E+01 0.  0.
     999903    2    3    3    0    0 -0.12478384281E+00  0.39996600740E-01  0.11482496762E-01  0.13303294927E+00  0.19879194219E-01 0.  0.
         14    1    1    2    0    0  0.22675063524E-01 -0.82995529057E-02  0.28221224946E-02  0.24310603852E-01  0.00000000000E+00 0. -1.
     999901    1    3    3    0    0  0.10210877929E+00 -0.31697047834E-01 -0.14304619256E-01  0.88658644687E+00  0.88000000000E+00 0. -1.
        -11    1    4    4    0    0 -0.55147944165E-01  0.23940784130E-01  0.13170860692E-01  0.61548270347E-01  0.51100000000E-03 0. -1.
         11    1    4    4    0    0 -0.69635898648E-01  0.16055816610E-01 -0.16883639305E-02  0.71484678927E-01  0.51100000000E-03 0.  1.
</event>
<event>
 8    1  0.1116841E+005  0.1043930E+01  0.7957747E-01            NaN
         13   -1    0    0    0    0  0.00000000000E+00  0.00000000000E+00  0.74505805969E-08  0.10566000000E+00  0.10566000000E+00 0. -1.
     999900   -1    0    0    0    0 -0.00000000000E+00 -0.00000000000E+00 -0.74505805969E-08  0.93827000000E+00  0.93827000000E+00 0.  1.
     999902    2    1    2    0    0 -0.16564994982E-01 -0.16342147751E-01  0.95140125280E-03  0.10206411611E+01  0.10203754259E+01 0.  0.
     999903    2    3    3    0    0  0.11054356999E-01 -0.65579209052E-01  0.11204113647E+00  0.13186219756E+00  0.20287715869E-01 0.  0.
         14    1    1    2    0    0  0.16564994982E-01  0.16342147751E-01 -0.95140125280E-03  0.23288838877E-01  0.00000000000E+00 0.  1.
     999901    1    3    3    0    0 -0.27619351981E-01  0.49237061300E-01 -0.11108973521E+00  0.88877896357E+00  0.88000000000E+00 0.  1.
        -11    1    4    4    0    0  0.14903573131E-01 -0.60048946763E-01  0.93407275212E-01  0.11204094199E+00  0.51100000000E-03 0. -1.
         11    1    4    4    0    0 -0.38492161320E-02 -0.55302622890E-02  0.18633861254E-01  0.19821255562E-01  0.51100000000E-03 0.  1.
</event>
<event>
 8    1  0.1116841E+005  0.1043930E+01  0.7957747E-01            NaN
         13   -1    0    0    0    0  0.00000000000E+00  0.00000000000E+00  0.74505805969E-08  0.10566000000E+00  0.10566000000E+00 0. -1.
     999900   -1    0    0    0    0 -0.00000000000E+00 -0.00000000000E+00 -0.74505805969E-08  0.93827000000E+00  0.93827000000E+00 0. -1.
     999902    2    1    2    0    0  0.24743572991E-01 -0.83008119028E-02  0.34955518822E-02  0.10175981416E+01  0.10172573967E+01 0.  0.
     999903    2    3    3    0    0  0.11619670851E+00 -0.29203983695E-01  0.50445914670E-01  0.13136738434E+00  0.18922252248E-01 0.  0.
         14    1    1    2    0    0 -0.24743572991E-01  0.83008119028E-02 -0.34955518822E-02  0.26331858376E-01  0.00000000000E+00 0.  1.
     999901    1    3    3    0    0 -0.91453135517E-01  0.20903171792E-01 -0.46950362788E-01  0.88623075728E+00  0.88000000000E+00 0. -1.
        -11    1    4    4    0    0  0.37754119024E-01 -0.14022009304E-01  0.86485402130E-02  0.41195249933E-01  0.51100000000E-03 0.  1.
         11    1    4    4    0    0  0.78442589484E-01 -0.15181974390E-01  0.41797374457E-01  0.90172134408E-01  0.51100000000E-03 0. -1.
</event>
<event>
 8    1  0.1116841E+005  0.1043930E+01  0.7957747E-01            NaN
         13   -1    0    0    0    0  0.00000000000E+00  0.00000000000E+00  0.74505805969E-08  0.10566000000E+00  0.10566000000E+00 0.  1.
     999900   -1    0    0    0    0 -0.00000000000E+00 -0.00000000000E+00 -0.74505805969E-08  0.93827000000E+00  0.93827000000E+00 0. -1.
     999902    2    1    2    0    0 -0.15627398667E-01  0.16295256918E-01 -0.94779390951E-02  0.10194436300E+01  0.10191495142E+01 0.  0.
     999903    2    3    3    0    0 -0.91571007086E-01  0.77707025680E-01  0.51343127817E-01  0.13195388966E+00  0.18763822716E-01 0.  0.
         14    1    1    2    0    0  0.15627398667E-01 -0.16295256918E-01  0.94779390951E-02  0.24486370017E-01  0.00000000000E+00 0.  1.
     999901    1    3    3    0    0  0.75943608419E-01 -0.61411768762E-01 -0.60821066912E-01  0.88748974033E+00  0.88000000000E+00 0. -1.
        -11    1    4    4    0    0 -0.40122049510E-01  0.42203745828E-01  0.17177248827E-01  0.60714528879E-01  0.51100000000E-03 0.  1.
         11    1    4    4    0    0 -0.51448957576E-01  0.35503279853E-01  0.34165878990E-01  0.71239360778E-01  0.51100000000E-03 0. -1.
</event>
<event>
 8    1  0.1116841E+005  0.1043930E+01  0.7957747E-01            NaN
         13   -1    0    0    0    0  0.00000000000E+00  0.00000000000E+00  0.74505805969E-08  0.10566000000E+00  0.10566000000E+00 0. -1.
     999900   -1    0    0    0    0 -0.00000000000E+00 -0.00000000000E+00 -0.74505805969E-08  0.93827000000E+00  0.93827000000E+00 0.  1.
     999902    2    1    2    0    0 -0.21888420358E-01  0.94137285235E-02 -0.11813015847E-02  0.10200738330E+01  0.10197948363E+01 0.  0.
     999903    2    3    3    0    0 -0.95900303839E-01  0.89054859933E-03  0.88937509956E-01  0.13233974912E+00  0.20156070210E-01 0.  0.
         14    1    1    2    0    0  0.21888420358E-01 -0.94137285235E-02  0.11813015847E-02  0.23856166999E-01  0.00000000000E+00 0. -1.
     999901    1    3    3    0    0  0.74011883481E-01  0.85231799242E-02 -0.90118811541E-01  0.88773408388E+00  0.88000000000E+00 0.  1.
        -11    1    4    4    0    0 -0.61246180926E-01 -0.12024554473E-03  0.43224122619E-01  0.74964625219E-01  0.51100000000E-03 0. -1.
         11    1    4    4    0    0 -0.34654122913E-01  0.10107941441E-02  0.45713387337E-01  0.57375123899E-01  0.51100000000E-03 0.  1.
</event>
<event>
 8    1  0.1116841E+005  0.1043930E+01  0.7957747E-01            NaN
         13   -1    0    0    0    0  0.00000000000E+00  0.00000000000E+00  0.74505805969E-08  0.10566000000E+00  0.10566000000E+00 0. -1.
     999900   -1    0    0    0    0 -0.00000000000E+00 -0.00000000000E+00 -0.74505805969E-08  0.93827000000E+00  0.93827000000E+00 0. -1.
     999902    2    1    2    0    0 -0.20295541016E-01  0.11380765316E-01 -0.20785023327E-02  0.10205686863E+01  0.10203012754E+01 0.  0.
     999903    2    3    3    0    0 -0.11244273382E+00 -0.52797854761E-01 -0.42026062730E-01  0.13253388521E+00  0.19184861880E-01 0.  0.
         14    1    1    2    0    0  0.20295541016E-01 -0.11380765316E-01  0.20785023327E-02  0.23361313667E-01  0.00000000000E+00 0. -1.
     999901    1    3    3    0    0  0.92147192803E-01  0.64178620077E-01  0.39947560398E-01  0.88803480112E+00  0.88000000000E+00 0.  1.
        -11    1    4    4    0    0 -0.41825358031E-01 -0.21682322321E-01 -0.25654780758E-01  0.53646179476E-01  0.51100000000E-03 0.  1.
         11    1    4    4    0    0 -0.70617375788E-01 -0.31115532441E-01 -0.16371281972E-01  0.78887705738E-01  0.51100000000E-03 0. -1.
</event>
<event>
 8    1  0.1116841E+005  0.1043930E+01  0.7957747E-01            NaN
         13   -1    0    0    0    0  0.00000000000E+00  0.00000000000E+00  0.74505805969E-08  0.10566000000E+00  0.10566000000E+00 0. -1.
     999900   -1    0    0    0    0 -0.00000000000E+00 -0.00000000000E+00 -0.74505805969E-08  0.93827000000E+00  0.93827000000E+00 0. -1.
     999902    2    1    2    0    0  0.22662065378E-01 -0.31562645632E-02 -0.52581402160E-02  0.10204527929E+01  0.10201826912E+01 0.  0.
     999903    2    3    3    0    0  0.72922459541E-01  0.83166556497E-01  0.68630704732E-01  0.13172488290E+00  0.20172008294E-01 0.  0.
         14    1    1    2    0    0 -0.22662065378E-01  0.31562645632E-02  0.52581402160E-02  0.23477207068E-01  0.00000000000E+00 0. -1.
     999901    1    3    3    0    0 -0.50260394163E-01 -0.86322821060E-01 -0.73888844948E-01  0.88872791003E+00  0.88000000000E+00 0. -1.
        -11    1    4    4    0    0  0.39501693770E-01  0.43660784004E-01  0.24728597278E-01  0.63862449960E-01  0.51100000000E-03 0. -1.
         11    1    4    4    0    0  0.33420765771E-01  0.39505772493E-01  0.43902107454E-01  0.67862432943E-01  0.51100000000E-03 0.  1.
</event>
<event>
 8    1  0.1116841E+005  0.1043930E+01  0.7957747E-01            NaN
         13   -1    0    0    0    0  0.00000000000E+00  0.00000000000E+00  0.74505805969E-08  0.10566000000E+00  0.10566000000E+00 0.  1.
     999900   -1    0    0    0    0 -0.00000000000E+00 -0.00000000000E+00 -0.74505805969E-08  0.93827000000E+00  0.93827000000E+00 0. -1.
     999902    2    1    2    0    0  0.63562771302E-02  0.13036974956E-01  0.15880546038E-01  0.10224228682E+01  0.10221966370E+01 0.  0.
     999903    2    3    3    0    0 -0.61150031000E-01 -0.93823736111E-01  0.66890257023E-01  0.13192957581E+00  0.19720211468E-01 0.  0.
         14    1    1    2    0    0 -0.63562771302E-02 -0.13036974956E-01 -0.15880546038E-01  0.21507131781E-01  0.00000000000E+00 0. -1.
     999901    1    3    3    0    0  0.67506308130E-01  0.10686071107E+00 -0.51009710985E-01  0.89049329241E+00  0.88000000000E+00 0.  1.
        -11    1    4    4    0    0 -0.33296596558E-01 -0.57594980632E-01  0.29045396004E-01  0.72592983727E-01  0.51100000000E-03 0. -1.
         11    1    4    4    0    0 -0.27853434442E-01 -0.36228755479E-01  0.37844861019E-01  0.59336592086E-01  0.51100000000E-03 0.  1.
</event>
<event>
 8    1  0.1116841E+005  0.1043930E+01  0.7957747E-01            NaN
         13   -1    0    0    0    0  0.00000000000E+00  0.00000000000E+00  0.74505805969E-08  0.10566000000E+00  0.10566000000E+00 0. -1.
     999900   -1    0    0    0    0 -0.00000000000E+00 -0.00000000000E+00 -0.74505805969E-08  0.93827000000E+00  0.93827000000E+00 0. -1.
     999902    2    1    2    0    0 -0.11085243593E-01  0.11705260109E-01 -0.17187022380E-01  0.10203654190E+01  0.10200932795E+01 0.  0.
     999903    2    3    3    0    0 -0.89802061335E-01 -0.91650941642E-01 -0.15515457951E-01  0.13082529288E+00  0.20253950188E-01 0.  0.
         14    1    1    2    0    0  0.11085243593E-01 -0.11705260109E-01  0.17187022380E-01  0.23564581006E-01  0.00000000000E+00 0. -1.
     999901    1    3    3    0    0  0.78716817742E-01  0.10335620175E+00 -0.16715644289E-02  0.88954012611E+00  0.88000000000E+00 0.  1.
        -11    1    4    4    0    0 -0.34592245262E-01 -0.25659960404E-01 -0.11990996877E-01  0.44711319901E-01  0.51100000000E-03 0.  1.
         11    1    4    4    0    0 -0.55209816073E-01 -0.65990981238E-01 -0.35244610734E-02  0.86113972980E-01  0.51100000000E-03 0. -1.
</event>
<event>
 8    1  0.1116841E+005  0.1043930E+01  0.7957747E-01            NaN
         13   -1    0    0    0    0  0.00000000000E+00  0.00000000000E+00  0.74505805969E-08  0.10566000000E+00  0.10566000000E+00 0. -1.
     999900   -1    0    0    0    0 -0.00000000000E+00 -0.00000000000E+00 -0.74505805969E-08  0.93827000000E+00  0.93827000000E+00 0.  1.
     999902    2    1    2    0    0 -0.18424725311E-01  0.61381248082E-02  0.14767657466E-01  0.10195326480E+01  0.10192406926E+01 0.  0.
     999903    2    3    3    0    0  0.12069931479E+00  0.37162191751E-01 -0.63101078219E-03  0.12793009624E+00  0.20404858799E-01 0.  0.
         14    1    1    2    0    0  0.18424725311E-01 -0.61381248082E-02 -0.14767657466E-01  0.24397352028E-01  0.00000000000E+00 0.  1.
     999901    1    3    3    0    0 -0.13912404011E+00 -0.31024066943E-01  0.15398668248E-01  0.89160255173E+00  0.88000000000E+00 0. -1.
        -11    1    4    4    0    0  0.23251245626E-01  0.11317106067E-01  0.70842727957E-02  0.26816885631E-01  0.51100000000E-03 0. -1.
         11    1    4    4    0    0  0.97448069168E-01  0.25845085684E-01 -0.77152835779E-02  0.10111321061E+00  0.51100000000E-03 0.  1.
</event>
<event>
 8    1  0.1116841E+005  0.1043930E+01  0.7957747E-01            NaN
         13   -1    0    0    0    0  0.00000000000E+00  0.00000000000E+00  0.74505805969E-08  0.10566000000E+00  0.10566000000E+00 0. -1.
     999900   -1    0    0    0    0 -0.00000000000E+00 -0.00000000000E+00 -0.74505805969E-08  0.93827000000E+00  0.93827000000E+00 0. -1.
     999902    2    1    2    0    0  0.97481831132E-02  0.32162740830E-01  0.80005126108E-02  0.10093832610E+01  0.10087918965E+01 0.  0.
     999903    2    3    3    0    0  0.52342150503E-01  0.71799728004E-01  0.84335093879E-01  0.12416447163E+00  0.20236261850E-01 0.  0.
         14    1    1    2    0    0 -0.97481831132E-02 -0.32162740830E-01 -0.80005126108E-02  0.34546738974E-01  0.00000000000E+00 0. -1.
     999901    1    3    3    0    0 -0.42593967390E-01 -0.39636987174E-01 -0.76334581268E-01  0.88521878940E+00  0.88000000000E+00 0. -1.
        -11    1    4    4    0    0  0.14659678089E-01  0.74101064091E-02  0.17364757825E-01  0.23908403836E-01  0.51100000000E-03 0.  1.
         11    1    4    4    0    0  0.37682472414E-01  0.64389621595E-01  0.66970336054E-01  0.10025606779E+00  0.51100000000E-03 0. -1.
</event>
<event>
 8    1  0.1116841E+005  0.1043930E+01  0.7957747E-01            NaN
         13   -1    0    0    0    0  0.00000000000E+00  0.00000000000E+00  0.74505805969E-08  0.10566000000E+00  0.10566000000E+00 0. -1.
     999900   -1    0    0    0    0 -0.00000000000E+00 -0.00000000000E+00 -0.74505805969E-08  0.93827000000E+00  0.93827000000E+00 0. -1.
     999902    2    1    2    0    0 -0.87762342698E-02 -0.12978021235E-01  0.16811991207E-01  0.10209496960E+01  0.10206910343E+01 0.  0.
     999903    2    3    3    0    0 -0.22658614942E-01 -0.26276663213E-01 -0.12330831819E+00  0.12965666032E+00  0.20050744851E-01 0.  0.
         14    1    1    2    0    0  0.87762342698E-02  0.12978021235E-01 -0.16811991207E-01  0.22980303990E-01  0.00000000000E+00 0.  1.
     999901    1    3    3    0    0  0.13882380672E-01  0.13298641978E-01  0.14012030940E+00  0.89129303569E+00  0.88000000000E+00 0.  1.
        -11    1    4    4    0    0 -0.92674787460E-02 -0.24914313690E-01 -0.83600041853E-01  0.87725921527E-01  0.51100000000E-03 0. -1.
         11    1    4    4    0    0 -0.13391136196E-01 -0.13623495232E-02 -0.39708276336E-01  0.41930738789E-01  0.51100000000E-03 0.  1.
</event>
<event>
 8    1  0.1116841E+005  0.1043930E+01  0.7957747E-01            NaN
         13   -1    0    0    0    0  0.00000000000E+00  0.00000000000E+00  0.74505805969E-08  0.10566000000E+00  0.10566000000E+00 0.  1.
     999900   -1    0    0    0    0 -0.00000000000E+00 -0.00000000000E+00 -0.74505805969E-08  0.93827000000E+00  0.93827000000E+00 0.  1.
     999902    2    1    2    0    0 -0.19960372853E-01 -0.12591268353E-01  0.55064053205E-03  0.10203236507E+01  0.10200505342E+01 0.  0.
     999903    2    3    3    0    0 -0.80590973883E-01  0.93539177891E-01  0.39103603139E-01  0.13103962838E+00  0.19945163691E-01 0.  0.
         14    1    1    2    0    0  0.19960372853E-01  0.12591268353E-01 -0.55064053205E-03  0.23606349318E-01  0.00000000000E+00 0. -1.
     999901    1    3    3    0    0  0.60630601030E-01 -0.10613044624E+00 -0.38552962607E-01  0.88928402231E+00  0.88000000000E+00 0.  1.
        -11    1    4    4    0    0 -0.46040755999E-01  0.54794421750E-01  0.12322752523E-01  0.72624315615E-01  0.51100000000E-03 0.  1.
         11    1    4    4    0    0 -0.34550217884E-01  0.38744756142E-01  0.26780850616E-01  0.58415312761E-01  0.51100000000E-03 0. -1.
</event>
<event>
 8    1  0.1116841E+005  0.1043930E+01  0.7957747E-01            NaN
         13   -1    0    0    0    0  0.00000000000E+00  0.00000000000E+00  0.74505805969E-08  0.10566000000E+00  0.10566000000E+00 0.  1.
     999900   -1    0    0    0    0 -0.00000000000E+00 -0.00000000000E+00 -0.74505805969E-08  0.93827000000E+00  0.93827000000E+00 0.  1.
     999902    2    1    2    0    0  0.82915406189E-02 -0.13967880644E-01 -0.15581960847E-01  0.10214211386E+01  0.10211730968E+01 0.  0.
     999903    2    3    3    0    0 -0.10990441109E+00  0.91761303100E-02  0.64586482697E-01  0.12960674788E+00  0.21524739327E-01 0.  0.
         14    1    1    2    0    0 -0.82915406189E-02  0.13967880644E-01  0.15581960847E-01  0.22508861352E-01  0.00000000000E+00 0.  1.
     999901    1    3    3    0    0  0.11819595171E+00 -0.23144010954E-01 -0.80168443543E-01  0.89181439077E+00  0.88000000000E+00 0.  1.
        -11    1    4    4    0    0 -0.45173708824E-01 -0.49876605680E-02  0.19494037893E-01  0.49455225823E-01  0.51100000000E-03 0.  1.
         11    1    4    4    0    0 -0.64730702270E-01  0.14163790878E-01  0.45092444803E-01  0.80151522055E-01  0.51100000000E-03 0. -1.
</event>
<event>
 8    1  0.1160790E+005  0.1043930E+01  0.7957747E-01            NaN
         13   -1    0    0    0    0  0.00000000000E+00  0.00000000000E+00  0.74505805969E-08  0.10566000000E+00  0.10566000000E+00 0.  1.
     999900   -1    0    0    0    0 -0.00000000000E+00 -0.00000000000E+00 -0.74505805969E-08  0.93827000000E+00  0.93827000000E+00 0. -1.
     999902    2    1    2    0    0  0.15823469222E-01  0.52459489357E-02 -0.19879546756E-01  0.10179858574E+01  0.10176552006E+01 0.  0.
     999903    2    3    3    0    0  0.85871101610E-01  0.58608995349E-01  0.71634740642E-01  0.12886879514E+00  0.25821887342E-01 0.  0.
         14    1    1    2    0    0 -0.15823469222E-01 -0.52459489357E-02  0.19879546756E-01  0.25944142647E-01  0.00000000000E+00 0.  1.
     999901    1    3    3    0    0 -0.70047632387E-01 -0.53363046413E-01 -0.91514287397E-01  0.88911706222E+00  0.88000000000E+00 0. -1.
        -11    1    4    4    0    0  0.14704908072E-01  0.15714484268E-01  0.27041059224E-01  0.34563844436E-01  0.51100000000E-03 0. -1.
         11    1    4    4    0    0  0.71166193537E-01  0.42894511081E-01  0.44593681418E-01  0.94304950702E-01  0.51100000000E-03 0.  1.
</event>
<event>
 8    1  0.1116841E+005  0.1043930E+01  0.7957747E-01            NaN
         13   -1    0    0    0    0  0.00000000000E+00  0.00000000000E+00  0.74505805969E-08  0.10566000000E+00  0.10566000000E+00 0. -1.
     999900   -1    0    0    0    0 -0.00000000000E+00 -0.00000000000E+00 -0.74505805969E-08  0.93827000000E+00  0.93827000000E+00 0.  1.
     999902    2    1    2    0    0  0.16878275830E-01  0.14675549698E-01  0.80406872525E-02  0.10201623622E+01  0.10198854567E+01 0.  0.
     999903    2    3    3    0    0  0.11889116627E+00  0.39532727754E-01 -0.38793358001E-01  0.13268394733E+00  0.20053909133E-01 0.  0.
         14    1    1    2    0    0 -0.16878275830E-01 -0.14675549698E-01 -0.80406872525E-02  0.23767637776E-01  0.00000000000E+00 0.  1.
     999901    1    3    3    0    0 -0.10201289044E+00 -0.24857178056E-01  0.46834045254E-01  0.88747841490E+00  0.88000000000E+00 0. -1.
        -11    1    4    4    0    0  0.59184224967E-01  0.30151677047E-01 -0.21503477654E-01  0.69818026225E-01  0.51100000000E-03 0. -1.
         11    1    4    4    0    0  0.59706941305E-01  0.93810507074E-02 -0.17289880347E-01  0.62865921100E-01  0.51100000000E-03 0.  1.
</event>
<event>
 8    1  0.1116841E+005  0.1043930E+01  0.7957747E-01            NaN
         13   -1    0    0    0    0  0.00000000000E+00  0.00000000000E+00  0.74505805969E-08  0.10566000000E+00  0.10566000000E+00 0.  1.
     999900   -1    0    0    0    0 -0.00000000000E+00 -0.00000000000E+00 -0.74505805969E-08  0.93827000000E+00  0.93827000000E+00 0.  1.
     999902    2    1    2    0    0 -0.17792657356E-01 -0.65043581338E-02 -0.12213708749E-01  0.10213898134E+01  0.10211410730E+01 0.  0.
     999903    2    3    3    0    0 -0.57405266706E-01  0.67181851665E-01 -0.97877572067E-01  0.13328108480E+00  0.19366533341E-01 0.  0.
         14    1    1    2    0    0  0.17792657356E-01  0.65043581338E-02  0.12213708749E-01  0.22540186599E-01  0.00000000000E+00 0.  1.
     999901    1    3    3    0    0  0.39612609350E-01 -0.73686209799E-01  0.85663863318E-01  0.88810872860E+00  0.88000000000E+00 0. -1.
        -11    1    4    4    0    0 -0.20055174692E-01  0.38303691089E-01 -0.47794115999E-01  0.64450922632E-01  0.51100000000E-03 0.  1.
         11    1    4    4    0    0 -0.37350092014E-01  0.28878160576E-01 -0.50083456068E-01  0.68830162170E-01  0.51100000000E-03 0. -1.
</event>
<event>
 8    1  0.1116841E+005  0.1043930E+01  0.7957747E-01            NaN
         13   -1    0    0    0    0  0.00000000000E+00  0.00000000000E+00  0.74505805969E-08  0.10566000000E+00  0.10566000000E+00 0. -1.
     999900   -1    0    0    0    0 -0.00000000000E+00 -0.00000000000E+00 -0.74505805969E-08  0.93827000000E+00  0.93827000000E+00 0. -1.
     999902    2    1    2    0    0 -0.76182083718E-02 -0.22611278489E-01 -0.45860999188E-02  0.10196331005E+01  0.10193435732E+01 0.  0.
     999903    2    3    3    0    0 -0.27345458233E-01  0.56995999142E-01 -0.11151314390E+00  0.12937478079E+00  0.17502418102E-01 0.  0.
         14    1    1    2    0    0  0.76182083718E-02  0.22611278489E-01  0.45860999188E-02  0.24296899518E-01  0.00000000000E+00 0.  1.
     999901    1    3    3    0    0  0.19727249861E-01 -0.79607277632E-01  0.10692704398E+00  0.89025831969E+00  0.88000000000E+00 0.  1.
        -11    1    4    4    0    0 -0.29471762140E-01  0.47928455655E-01 -0.95692852276E-01  0.11100948033E+00  0.51100000000E-03 0. -1.
         11    1    4    4    0    0  0.21263039069E-02  0.90675434873E-02 -0.15820291622E-01  0.18365300466E-01  0.51100000000E-03 0.  1.
</event>
<event>
 8    1  0.1116841E+005  0.1043930E+01  0.7957747E-01            NaN
         13   -1    0    0    0    0  0.00000000000E+00  0.00000000000E+00  0.74505805969E-08  0.10566000000E+00  0.10566000000E+00 0. -1.
     999900   -1    0    0    0    0 -0.00000000000E+00 -0.00000000000E+00 -0.74505805969E-08  0.93827000000E+00  0.93827000000E+00 0. -1.
     999902    2    1    2    0    0 -0.86583376981E-02 -0.25660219737E-01  0.14014759315E-01  0.10134369325E+01  0.10129780792E+01 0.  0.
     999903    2    3    3    0    0  0.10342041580E+00 -0.61096773053E-01  0.29654007575E-01  0.12548311476E+00  0.20929735865E-01 0.  0.
         14    1    1    2    0    0  0.86583376981E-02  0.25660219737E-01 -0.14014759315E-01  0.30493067529E-01  0.00000000000E+00 0.  1.
     999901    1    3    3    0    0 -0.11207875350E+00  0.35436553316E-01 -0.15639248260E-01  0.88795381771E+00  0.88000000000E+00 0. -1.
        -11    1    4    4    0    0  0.24074817256E-01 -0.14838056030E-01  0.16370623789E-01  0.32680623876E-01  0.51100000000E-03 0.  1.
         11    1    4    4    0    0  0.79345598545E-01 -0.46258717023E-01  0.13283383786E-01  0.92802490887E-01  0.51100000000E-03 0. -1.
</event>
<event>
 8    1  0.1116841E+005  0.1043930E+01  0.7957747E-01            NaN
         13   -1    0    0    0    0  0.00000000000E+00  0.00000000000E+00  0.74505805969E-08  0.10566000000E+00  0.10566000000E+00 0. -1.
     999900   -1    0    0    0    0 -0.00000000000E+00 -0.00000000000E+00 -0.74505805969E-08  0.93827000000E+00  0.93827000000E+00 0.  1.
     999902    2    1    2    0    0  0.11019157782E-01  0.16300805930E-01  0.13349673414E-01  0.10201528704E+01  0.10198757410E+01 0.  0.
     999903    2    3    3    0    0  0.83453067128E-01 -0.37687417463E-01 -0.89437232858E-01  0.12957634499E+00  0.20155761271E-01 0.  0.
         14    1    1    2    0    0 -0.11019157782E-01 -0.16300805930E-01 -0.13349673414E-01  0.23777129609E-01  0.00000000000E+00 0. -1.
     999901    1    3    3    0    0 -0.72433909347E-01  0.53988223393E-01  0.10278690627E+00  0.89057652540E+00  0.88000000000E+00 0. -1.
        -11    1    4    4    0    0  0.40106481890E-01 -0.28554862870E-01 -0.42603301724E-01  0.65109235304E-01  0.51100000000E-03 0.  1.
         11    1    4    4    0    0  0.43346585238E-01 -0.91325545930E-02 -0.46833931134E-01  0.64467109689E-01  0.51100000000E-03 0. -1.
</event>
<event>
 8    1  0.1116841E+005  0.1043930E+01  0.7957747E-01            NaN
         13   -1    0    0    0    0  0.00000000000E+00  0.00000000000E+00  0.74505805969E-08  0.10566000000E+00  0.10566000000E+00 0. -1.
     999900   -1    0    0    0    0 -0.00000000000E+00 -0.00000000000E+00 -0.74505805969E-08  0.93827000000E+00  0.93827000000E+00 0.  1.
     999902    2    1    2    0    0  0.81946748527E-02  0.14985454766E-01  0.16866919841E-01  0.10199256351E+01  0.10196431197E+01 0.  0.
     999903    2    3    3    0    0 -0.30992206789E-01  0.12549335423E+00  0.18009853111E-01  0.13214812138E+00  0.20728539196E-01 0.  0.
         14    1    1    2    0    0 -0.81946748527E-02 -0.14985454766E-01 -0.16866919841E-01  0.24004364924E-01  0.00000000000E+00 0.  1.
     999901    1    3    3    0    0  0.39186881642E-01 -0.11050789946E+00 -0.11429332703E-02  0.88777751370E+00  0.88000000000E+00 0. -1.
        -11    1    4    4    0    0 -0.13680496754E-01  0.25412116596E-01  0.87298617458E-02  0.30156313906E-01  0.51100000000E-03 0. -1.
         11    1    4    4    0    0 -0.17311710035E-01  0.10008123763E+00  0.92799913654E-02  0.10199180747E+00  0.51100000000E-03 0.  1.
</event>
<event>
 8    1  0.1116841E+005  0.1043930E+01  0.7957747E-01            NaN
         13   -1    0    0    0    0  0.00000000000E+00  0.00000000000E+00  0.74505805969E-08  0.10566000000E+00  0.10566000000E+00 0.  1.
     999900   -1    0    0    0    0 -0.00000000000E+00 -0.00000000000E+00 -0.74505805969E-08  0.93827000000E+00  0.93827000000E+00 0. -1.
     999902    2    1    2    0    0 -0.10186242383E-01 -0.89363492499E-02  0.19131527867E-01  0.10204857421E+01  0.10202164067E+01 0.  0.
     999903    2    3    3    0    0  0.13023763717E-01 -0.10467971272E+00 -0.73612247632E-01  0.13014485008E+00  0.19785305792E-01 0.  0.
         14    1    1    2    0    0  0.10186242383E-01  0.89363492499E-02 -0.19131527867E-01  0.23444257940E-01  0.00000000000E+00 0. -1.
     999901    1    3    3    0    0 -0.23210006101E-01  0.95743363470E-01  0.92743775500E-01  0.89034089198E+00  0.88000000000E+00 0.  1.
        -11    1    4    4    0    0  0.14977626477E-01 -0.48186283257E-01 -0.29612375718E-01  0.58509837683E-01  0.51100000000E-03 0. -1.
         11    1    4    4    0    0 -0.19538627598E-02 -0.56493429462E-01 -0.43999871914E-01  0.71635012400E-01  0.51100000000E-03 0.  1.
</event>
<event>
 7    1  0.1991637E+005  0.1043930E+01  0.7957747E-01            NaN
         13   -1    0    0    0    0  0.00000000000E+00  0.00000000000E+00  0.74505805969E-08  0.10566000000E+00  0.10566000000E+00 0. -1.
     999900   -1    0    0    0    0 -0.00000000000E+00 -0.00000000000E+00 -0.74505805969E-08  0.93827000000E+00  0.93827000000E+00 0.  1.
     999903    2    1    2    0    0 -0.33630755880E-01 -0.81647798392E-01  0.50934273569E-01  0.10395159547E+00  0.20352966699E-01 0.  0.
         14    1    1    2    0    0 -0.58134739807E-02  0.52905584167E-01  0.17361007620E-01  0.55983943246E-01  0.00000000000E+00 0. -1.
     999901    1    1    2    0    0  0.39444229861E-01  0.28742214225E-01 -0.68295281189E-01  0.88399446128E+00  0.88000000000E+00 0.  1.
        -11    1    3    3    0    0 -0.14774618019E-01 -0.35482230735E-01  0.33900702971E-01  0.51252285983E-01  0.51100000000E-03 0.  1.
         11    1    3    3    0    0 -0.18856137861E-01 -0.46165567657E-01  0.17033570598E-01  0.52699309487E-01  0.51100000000E-03 0. -1.
</event>
<event>
 8    1  0.1116841E+005  0.1043930E+01  0.7957747E-01            NaN
         13   -1    0    0    0    0  0.00000000000E+00  0.00000000000E+00  0.74505805969E-08  0.10566000000E+00  0.10566000000E+00 0. -1.
     999900   -1    0    0    0    0 -0.00000000000E+00 -0.00000000000E+00 -0.74505805969E-08  0.93827000000E+00  0.93827000000E+00 0.  1.
     999902    2    1    2    0    0  0.22046698267E-01 -0.37234138591E-02  0.69227248159E-02  0.10205239146E+01  0.10202554658E+01 0.  0.
     999903    2    3    3    0    0  0.90570539668E-01 -0.84646355772E-01 -0.43516414338E-01  0.13272430537E+00  0.18815810349E-01 0.  0.
         14    1    1    2    0    0 -0.22046698267E-01  0.37234138591E-02 -0.69227248159E-02  0.23406085407E-01  0.00000000000E+00 0.  1.
     999901    1    3    3    0    0 -0.68523841402E-01  0.80922941913E-01  0.50439139154E-01  0.88779960922E+00  0.88000000000E+00 0.  1.
        -11    1    4    4    0    0  0.87773218725E-01 -0.85238029981E-01 -0.41539629007E-01  0.12921091896E+00  0.51100000000E-03 0.  1.
         11    1    4    4    0    0  0.27973209434E-02  0.59167420895E-03 -0.19767853311E-02  0.35133864113E-02  0.51100000000E-03 0. -1.
</event>
<event>
 8    1  0.1116841E+005  0.1043930E+01  0.7957747E-01            NaN
         13   -1    0    0    0    0  0.00000000000E+00  0.00000000000E+00  0.74505805969E-08  0.10566000000E+00  0.10566000000E+00 0. -1.
     999900   -1    0    0    0    0 -0.00000000000E+00 -0.00000000000E+00 -0.74505805969E-08  0.93827000000E+00  0.93827000000E+00 0.  1.
     999902    2    1    2    0    0 -0.24507090433E-01 -0.52220149649E-02 -0.47855249544E-02  0.10184198418E+01  0.10181002927E+01 0.  0.
     999903    2    3    3    0    0  0.81496348962E-01  0.78730709343E-01 -0.52443267487E-01  0.12681676336E+00  0.22181426374E-01 0.  0.
         14    1    1    2    0    0  0.24507090433E-01  0.52220149649E-02  0.47855249544E-02  0.25510158190E-01  0.00000000000E+00 0. -1.
     999901    1    3    3    0    0 -0.10600343940E+00 -0.83952724308E-01  0.47657742532E-01  0.89160307845E+00  0.88000000000E+00 0. -1.
        -11    1    4    4    0    0  0.30311592598E-01  0.15570163444E-01 -0.17744705088E-01  0.38423408427E-01  0.51100000000E-03 0. -1.
         11    1    4    4    0    0  0.51184756365E-01  0.63160545900E-01 -0.34698562399E-01  0.88393354931E-01  0.51100000000E-03 0.  1.
</event>
<event>
 8    1  0.1116841E+005  0.1043930E+01  0.7957747E-01            NaN
         13   -1    0    0    0    0  0.00000000000E+00  0.00000000000E+00  0.74505805969E-08  0.10566000000E+00  0.10566000000E+00 0. -1.
     999900   -1    0    0    0    0 -0.00000000000E+00 -0.00000000000E+00 -0.74505805969E-08  0.93827000000E+00  0.93827000000E+00 0. -1.
     999902    2    1    2    0    0 -0.22710475877E-02  0.16318658304E-01  0.19741461901E-01  0.10182165486E+01  0.10178918205E+01 0.  0.
     999903    2    3    3    0    0  0.12843115971E-01  0.61712859263E-01 -0.10882856560E+00  0.12758793721E+00  0.21484934373E-01 0.  0.
         14    1    1    2    0    0  0.22710475877E-02 -0.16318658304E-01 -0.19741461901E-01  0.25713451421E-01  0.00000000000E+00 0.  1.
     999901    1    3    3    0    0 -0.15114163559E-01 -0.45394200959E-01  0.12857002750E+00  0.89062861137E+00  0.88000000000E+00 0.  1.
        -11    1    4    4    0    0  0.98921535637E-02  0.26558858222E-01 -0.67732566057E-01  0.73424718439E-01  0.51100000000E-03 0.  1.
         11    1    4    4    0    0  0.29509624076E-02  0.35154001041E-01 -0.41095999540E-01  0.54163218770E-01  0.51100000000E-03 0. -1.
</event>
<event>
 8    1  0.1116841E+005  0.1043930E+01  0.7957747E-01            NaN
         13   -1    0    0    0    0  0.00000000000E+00  0.00000000000E+00  0.74505805969E-08  0.10566000000E+00  0.10566000000E+00 0.  1.
     999900   -1    0    0    0    0 -0.00000000000E+00 -0.00000000000E+00 -0.74505805969E-08  0.93827000000E+00  0.93827000000E+00 0.  1.
     999902    2    1    2    0    0 -0.11824807572E-01  0.29143644772E-02  0.20306589580E-01  0.10202513773E+01  0.10199765662E+01 0.  0.
     999903    2    3    3    0    0 -0.12925135901E+00  0.17319256139E-01  0.95795016322E-02  0.13226963967E+00  0.19940418442E-01 0.  0.
         14    1    1    2    0    0  0.11824807572E-01 -0.29143644772E-02 -0.20306589580E-01  0.23678622739E-01  0.00000000000E+00 0. -1.
     999901    1    3    3    0    0  0.11742655144E+00 -0.14404891662E-01  0.10727087948E-01  0.88798173759E+00  0.88000000000E+00 0. -1.
        -11    1    4    4    0    0 -0.50644358487E-01  0.12122164238E-01 -0.43832749936E-02  0.52261574154E-01  0.51100000000E-03 0. -1.
         11    1    4    4    0    0 -0.78607000520E-01  0.51970919010E-02  0.13962776626E-01  0.80008065513E-01  0.51100000000E-03 0.  1.
</event>
<event>
 8    1  0.1116841E+005  0.1043930E+01  0.7957747E-01            NaN
         13   -1    0    0    0    0  0.00000000000E+00  0.00000000000E+00  0.74505805969E-08  0.10566000000E+00  0.10566000000E+00 0.  1.
     999900   -1    0    0    0    0 -0.00000000000E+00 -0.00000000000E+00 -0.74505805969E-08  0.93827000000E+00  0.93827000000E+00 0.  1.
     999902    2    1    2    0    0 -0.92576304708E-02 -0.35639312891E-02  0.22589757111E-01  0.10192581040E+01  0.10189594595E+01 0.  0.
     999903    2    3    3    0    0 -0.95386403854E-01 -0.73701279063E-01 -0.44293951900E-01  0.12975777023E+00  0.18565564511E-01 0.  0.
         14    1    1    2    0    0  0.92576304708E-02  0.35639312891E-02 -0.22589757111E-01  0.24671896046E-01  0.00000000000E+00 0. -1.
     999901    1    3    3    0    0  0.86128773383E-01  0.70137347774E-01  0.66883709010E-01  0.88950033372E+00  0.88000000000E+00 0. -1.
        -11    1    4    4    0    0 -0.75974560770E-01 -0.64438153007E-01 -0.42024286027E-01  0.10812359217E+00  0.51100000000E-03 0.  1.
         11    1    4    4    0    0 -0.19411843084E-01 -0.92631260553E-02 -0.22696658727E-02  0.21634178062E-01  0.51100000000E-03 0. -1.
</event>
<event>
 8    1  0.1116841E+005  0.1043930E+01  0.7957747E-01            NaN
         13   -1    0    0    0    0  0.00000000000E+00  0.00000000000E+00  0.74505805969E-08  0.10566000000E+00  0.10566000000E+00 0.  1.
     999900   -1    0    0    0    0 -0.00000000000E+00 -0.00000000000E+00 -0.74505805969E-08  0.93827000000E+00  0.93827000000E+00 0. -1.
     999902    2    1    2    0    0 -0.10801217634E-01  0.23375133537E-01  0.57122388934E-02  0.10175540101E+01  0.10172121070E+01 0.  0.
     999903    2    3    3    0    0  0.78313399606E-01  0.62522157004E-01 -0.77801039642E-01  0.12825744981E+00  0.18840461429E-01 0.  0.
         14    1    1    2    0    0  0.10801217634E-01 -0.23375133537E-01 -0.57122388934E-02  0.26375989904E-01  0.00000000000E+00 0. -1.
     999901    1    3    3    0    0 -0.89114617240E-01 -0.39147023467E-01  0.83513278535E-01  0.88929656029E+00  0.88000000000E+00 0.  1.
        -11    1    4    4    0    0  0.26151240206E-01  0.21618783746E-01 -0.15573146934E-01  0.37336887945E-01  0.51100000000E-03 0.  1.
         11    1    4    4    0    0  0.52162159401E-01  0.40903373258E-01 -0.62227892708E-01  0.90920561861E-01  0.51100000000E-03 0. -1.
</event>
<event>
 8    1  0.1116841E+005  0.1043930E+01  0.7957747E-01            NaN
         13   -1    0    0    0    0  0.00000000000E+00  0.00000000000E+00  0.74505805969E-08  0.10566000000E+00  0.10566000000E+00 0.  1.
     999900   -1    0    0    0    0 -0.00000000000E+00 -0.00000000000E+00 -0.74505805969E-08  0.93827000000E+00  0.93827000000E+00 0. -1.
     999902    2    1    2    0    0 -0.39741953201E-02  0.23228412725E-01  0.47009178059E-02  0.10198997687E+01  0.10196166369E+01 0.  0.
     999903    2    3    3    0    0 -0.82983013489E-02  0.41207299348E-01 -0.12210902653E+00  0.13061764239E+00  0.19581900305E-01 0.  0.
         14    1    1    2    0    0  0.39741953201E-02 -0.23228412725E-01 -0.47009178059E-02  0.24030231259E-01  0.00000000000E+00 0. -1.
     999901    1    3    3    0    0  0.43241060288E-02 -0.17978886623E-01  0.12680994434E+00  0.88928212635E+00  0.88000000000E+00 0.  1.
        -11    1    4    4    0    0  0.60985781138E-02  0.18256432843E-01 -0.52601075392E-01  0.56014500342E-01  0.51100000000E-03 0.  1.
         11    1    4    4    0    0 -0.14396879463E-01  0.22950866504E-01 -0.69507951139E-01  0.74603142052E-01  0.51100000000E-03 0. -1.
</event>
<event>
 8    1  0.1293194E+005  0.1043930E+01  0.7957747E-01            NaN
         13   -1    0    0    0    0  0.00000000000E+00  0.00000000000E+00  0.74505805969E-08  0.10566000000E+00  0.10566000000E+00 0.  1.
     999900   -1    0    0    0    0 -0.00000000000E+00 -0.00000000000E+00 -0.74505805969E-08  0.93827000000E+00  0.93827000000E+00 0.  1.
     999902    2    1    2    0    0 -0.17902890697E-01 -0.12652861693E-01 -0.79106085160E-02  0.10206236461E+01  0.10203575064E+01 0.  0.
     999903    2    3    3    0    0 -0.59390369165E-01  0.86983897523E-01  0.74632937456E-01  0.13019558521E+00  0.16952895866E-01 0.  0.
         14    1    1    2    0    0  0.17902890697E-01  0.12652861693E-01  0.79106085160E-02  0.23306353885E-01  0.00000000000E+00 0.  1.
     999901    1    3    3    0    0  0.41487478467E-01 -0.99636759216E-01 -0.82543545972E-01  0.89042806090E+00  0.88000000000E+00 0. -1.
        -11    1    4    4    0    0 -0.33113884687E-01  0.52665005902E-01  0.53627798493E-01  0.82136070626E-01  0.51100000000E-03 0.  1.
         11    1    4    4    0    0 -0.26276484478E-01  0.34318891621E-01  0.21005138963E-01  0.48059514588E-01  0.51100000000E-03 0. -1.
</event>
<event>
 8    1  0.1116841E+005  0.1043930E+01  0.7957747E-01            NaN
         13   -1    0    0    0    0  0.00000000000E+00  0.00000000000E+00  0.74505805969E-08  0.10566000000E+00  0.10566000000E+00 0.  1.
     999900   -1    0    0    0    0 -0.00000000000E+00 -0.00000000000E+00 -0.74505805969E-08  0.93827000000E+00  0.93827000000E+00 0. -1.
     999902    2    1    2    0    0 -0.92294897479E-02  0.14428140316E-01 -0.17288675343E-01  0.10195937511E+01  0.10193032740E+01 0.  0.
     999903    2    3    3    0    0 -0.75628622768E-01 -0.76610294132E-01  0.66926918911E-01  0.12842086794E+00  0.20588372912E-01 0.  0.
         14    1    1    2    0    0  0.92294897479E-02 -0.14428140316E-01  0.17288675343E-01  0.24336248871E-01  0.00000000000E+00 0.  1.
     999901    1    3    3    0    0  0.66399133020E-01  0.91038434448E-01 -0.84215594254E-01  0.89117288319E+00  0.88000000000E+00 0.  1.
        -11    1    4    4    0    0 -0.57730312126E-01 -0.46431839361E-01  0.40048357654E-01  0.84218980737E-01  0.51100000000E-03 0.  1.
         11    1    4    4    0    0 -0.17898310642E-01 -0.30178454770E-01  0.26878561257E-01  0.44201887204E-01  0.51100000000E-03 0. -1.
</event>
<event>
 8    1  0.1116841E+005  0.1043930E+01  0.7957747E-01            NaN
         13   -1    0    0    0    0  0.00000000000E+00  0.00000000000E+00  0.74505805969E-08  0.10566000000E+00  0.10566000000E+00 0. -1.
     999900   -1    0    0    0    0 -0.00000000000E+00 -0.00000000000E+00 -0.74505805969E-08  0.93827000000E+00  0.93827000000E+00 0. -1.
     999902    2    1    2    0    0 -0.71449031343E-02 -0.22244317495E-01 -0.13262642393E-02  0.10205287548E+01  0.10202604182E+01 0.  0.
     999903    2    3    3    0    0  0.34812809991E-01 -0.66563810493E-01  0.10608387683E+00  0.13189969517E+00  0.22384549534E-01 0.  0.
         14    1    1    2    0    0  0.71449031343E-02  0.22244317495E-01  0.13262642393E-02  0.23401245233E-01  0.00000000000E+00 0.  1.
     999901    1    3    3    0    0 -0.41957713126E-01  0.44319492998E-01 -0.10741014106E+00  0.88862905959E+00  0.88000000000E+00 0.  1.
        -11    1    4    4    0    0  0.26557924836E-02 -0.11200374050E-01  0.57500505756E-02  0.12877337271E-01  0.51100000000E-03 0. -1.
         11    1    4    4    0    0  0.32157017508E-01 -0.55363436443E-01  0.10033382625E+00  0.11902235790E+00  0.51100000000E-03 0.  1.
</event>
<event>
 8    1  0.1116841E+005  0.1043930E+01  0.7957747E-01            NaN
         13   -1    0    0    0    0  0.00000000000E+00  0.00000000000E+00  0.74505805969E-08  0.10566000000E+00  0.10566000000E+00 0.  1.
     999900   -1    0    0    0    0 -0.00000000000E+00 -0.00000000000E+00 -0.74505805969E-08  0.93827000000E+00  0.93827000000E+00 0.  1.
     999902    2    1    2    0    0  0.20598123173E-01 -0.35420170804E-02 -0.92959461049E-02  0.10210554907E+01  0.10207992319E+01 0.  0.
     999903    2    3    3    0    0 -0.69218382024E-01 -0.11344739640E-01  0.10624322838E+00  0.12893599871E+00  0.20420104318E-01 0.  0.
         14    1    1    2    0    0 -0.20598123173E-01  0.35420170804E-02  0.92959461049E-02  0.22874509333E-01  0.00000000000E+00 0.  1.
     999901    1    3    3    0    0  0.89816505196E-01  0.78027225593E-02 -0.11553917448E+00  0.89211949195E+00  0.88000000000E+00 0.  1.
        -11    1    4    4    0    0 -0.13233076894E-01 -0.22414245372E-02  0.84061095140E-02  0.15844939451E-01  0.51100000000E-03 0.  1.
         11    1    4    4    0    0 -0.55985305129E-01 -0.91033151025E-02  0.97837118864E-01  0.11309105926E+00  0.51100000000E-03 0. -1.
</event>
<event>
 8    1  0.1271940E+005  0.1043930E+01  0.7957747E-01            NaN
         13   -1    0    0    0    0  0.00000000000E+00  0.00000000000E+00  0.74505805969E-08  0.10566000000E+00  0.10566000000E+00 0.  1.
     999900   -1    0    0    0    0 -0.00000000000E+00 -0.00000000000E+00 -0.74505805969E-08  0.93827000000E+00  0.93827000000E+00 0.  1.
     999902    2    1    2    0    0 -0.49131283340E-02 -0.20125620272E-01 -0.11169603106E-01  0.10203940816E+01  0.10201226114E+01 0.  0.
     999903    2    3    3    0    0 -0.10175110589E+00  0.63089949054E-01 -0.47911700217E-01  0.13042081988E+00  0.19504615305E-01 0.  0.
         14    1    1    2    0    0  0.49131283340E-02  0.20125620272E-01  0.11169603106E-01  0.23535918399E-01  0.00000000000E+00 0.  1.
     999901    1    3    3    0    0  0.96837977561E-01 -0.83215569326E-01  0.36742097111E-01  0.88997326172E+00  0.88000000000E+00 0. -1.
        -11    1    4    4    0    0 -0.33163896507E-01  0.15240119403E-01 -0.64149018813E-02  0.37060995104E-01  0.51100000000E-03 0.  1.
         11    1    4    4    0    0 -0.68587209388E-01  0.47849829651E-01 -0.41496798336E-01  0.93359824777E-01  0.51100000000E-03 0. -1.
</event>
<event>
 8    1  0.1116841E+005  0.1043930E+01  0.7957747E-01            NaN
         13   -1    0    0    0    0  0.00000000000E+00  0.00000000000E+00  0.74505805969E-08  0.10566000000E+00  0.10566000000E+00 0.  1.
     999900   -1    0    0    0    0 -0.00000000000E+00 -0.00000000000E+00 -0.74505805969E-08  0.93827000000E+00  0.93827000000E+00 0. -1.
     999902    2    1    2    0    0  0.16197545561E-01 -0.17283079974E-01  0.16893736336E-01  0.10148359514E+01  0.10144188211E+01 0.  0.
     999903    2    3    3    0    0  0.11928396176E+00  0.58870348678E-02 -0.37303908856E-01  0.12686013633E+00  0.20942584922E-01 0.  0.
         14    1    1    2    0    0 -0.16197545561E-01  0.17283079974E-01 -0.16893736336E-01  0.29094048584E-01  0.00000000000E+00 0. -1.
     999901    1    3    3    0    0 -0.10308641619E+00 -0.23170114842E-01  0.54197645192E-01  0.88797581508E+00  0.88000000000E+00 0.  1.
        -11    1    4    4    0    0  0.59944656220E-01 -0.43569177580E-02 -0.10804899153E-01  0.61068416620E-01  0.51100000000E-03 0. -1.
         11    1    4    4    0    0  0.59339305535E-01  0.10243952626E-01 -0.26499009703E-01  0.65791719715E-01  0.51100000000E-03 0.  1.
</event>
<event>
 8    1  0.1116841E+005  0.1043930E+01  0.7957747E-01            NaN
         13   -1    0    0    0    0  0.00000000000E+00  0.00000000000E+00  0.74505805969E-08  0.10566000000E+00  0.10566000000E+00 0.  1.
     999900   -1    0    0    0    0 -0.00000000000E+00 -0.00000000000E+00 -0.74505805969E-08  0.93827000000E+00  0.93827000000E+00 0. -1.
     999902    2    1    2    0    0  0.21750741083E-01 -0.15239976765E-02 -0.16318413801E-01  0.10166956846E+01  0.10163308552E+01 0.  0.
     999903    2    3    3    0    0 -0.11041050349E+00 -0.36822291747E-01 -0.44185334181E-01  0.12569112266E+00  0.17307631501E-01 0.  0.
         14    1    1    2    0    0 -0.21750741083E-01  0.15239976765E-02  0.16318413801E-01  0.27234315405E-01  0.00000000000E+00 0. -1.
     999901    1    3    3    0    0  0.13216124458E+00  0.35298294070E-01  0.27866920379E-01  0.89100456193E+00  0.88000000000E+00 0. -1.
        -11    1    4    4    0    0 -0.50190655373E-01 -0.20488132126E-01 -0.28954421851E-01  0.61461248853E-01  0.51100000000E-03 0.  1.
         11    1    4    4    0    0 -0.60219848122E-01 -0.16334159621E-01 -0.15230912330E-01  0.64229873810E-01  0.51100000000E-03 0. -1.
</event>
<event>
 8    1  0.1116841E+005  0.1043930E+01  0.7957747E-01            NaN
         13   -1    0    0    0    0  0.00000000000E+00  0.00000000000E+00  0.74505805969E-08  0.10566000000E+00  0.10566000000E+00 0.  1.
     999900   -1    0    0    0    0 -0.00000000000E+00 -0.00000000000E+00 -0.74505805969E-08  0.93827000000E+00  0.93827000000E+00 0.  1.
     999902    2    1    2    0    0 -0.22666354719E-01 -0.62323135122E-02 -0.53817912597E-02  0.10198142573E+01  0.10195290827E+01 0.  0.
     999903    2    3    3    0    0  0.44067788184E-01 -0.74425748076E-01  0.93910073137E-01  0.12910517760E+00  0.19180279343E-01 0.  0.
         14    1    1    2    0    0  0.22666354719E-01  0.62323135122E-02  0.53817912597E-02  0.24115742683E-01  0.00000000000E+00 0.  1.
     999901    1    3    3    0    0 -0.66734142903E-01  0.68193434563E-01 -0.99291864397E-01  0.89070907971E+00  0.88000000000E+00 0. -1.
        -11    1    4    4    0    0  0.14600620957E-01 -0.42116131187E-01  0.42230940899E-01  0.61405701109E-01  0.51100000000E-03 0. -1.
         11    1    4    4    0    0  0.29467167228E-01 -0.32309616889E-01  0.51679132239E-01  0.67699476496E-01  0.51100000000E-03 0.  1.
</event>
<event>
 8    1  0.1116841E+005  0.1043930E+01  0.7957747E-01            NaN
         13   -1    0    0    0    0  0.00000000000E+00  0.00000000000E+00  0.74505805969E-08  0.10566000000E+00  0.10566000000E+00 0. -1.
     999900   -1    0    0    0    0 -0.00000000000E+00 -0.00000000000E+00 -0.74505805969E-08  0.93827000000E+00  0.93827000000E+00 0.  1.
     999902    2    1    2    0    0 -0.23102583144E-02  0.12255356224E-01  0.20244555853E-01  0.10201524246E+01  0.10198752847E+01 0.  0.
     999903    2    3    3    0    0 -0.23500293294E-01 -0.31528700957E-01 -0.11931713438E+00  0.12782763698E+00  0.23600920518E-01 0.  0.
         14    1    1    2    0    0  0.23102583144E-02 -0.12255356224E-01 -0.20244555853E-01  0.23777575388E-01  0.00000000000E+00 0.  1.
     999901    1    3    3    0    0  0.21190034979E-01  0.43784057181E-01  0.13956169023E+00  0.89232478763E+00  0.88000000000E+00 0. -1.
        -11    1    4    4    0    0 -0.21268167697E-01 -0.32739491494E-01 -0.86445116492E-01  0.94853721839E-01  0.51100000000E-03 0. -1.
         11    1    4    4    0    0 -0.22321255965E-02  0.12107905366E-02 -0.32872017890E-01  0.32973915139E-01  0.51100000000E-03 0.  1.
</event>
<event>
 8    1  0.1116841E+005  0.1043930E+01  0.7957747E-01            NaN
         13   -1    0    0    0    0  0.00000000000E+00  0.00000000000E+00  0.74505805969E-08  0.10566000000E+00  0.10566000000E+00 0.  1.
     999900   -1    0    0    0    0 -0.00000000000E+00 -0.00000000000E+00 -0.74505805969E-08  0.93827000000E+00  0.93827000000E+00 0.  1.
     999902    2    1    2    0    0 -0.22885285949E-01  0.35339495844E-02 -0.11605688340E-01  0.10180279322E+01  0.10176983609E+01 0.  0.
     999903    2    3    3    0    0 -0.95525267377E-01 -0.65986634148E-01 -0.57416773497E-01  0.13111850395E+00  0.20397637232E-01 0.  0.
         14    1    1    2    0    0  0.22885285949E-01 -0.35339495844E-02  0.11605688340E-01  0.25902067765E-01  0.00000000000E+00 0. -1.
     999901    1    3    3    0    0  0.72639981428E-01  0.69520583733E-01  0.45811085157E-01  0.88690942829E+00  0.88000000000E+00 0. -1.
        -11    1    4    4    0    0 -0.14258264230E-01 -0.12718880143E-01 -0.18009472446E-01  0.26261573253E-01  0.51100000000E-03 0. -1.
         11    1    4    4    0    0 -0.81267003147E-01 -0.53267754005E-01 -0.39407301051E-01  0.10485693069E+00  0.51100000000E-03 0.  1.
</event>
<event>
 8    1  0.1116841E+005  0.1043930E+01  0.7957747E-01            NaN
         13   -1    0    0    0    0  0.00000000000E+00  0.00000000000E+00  0.74505805969E-08  0.10566000000E+00  0.10566000000E+00 0.  1.
     999900   -1    0    0    0    0 -0.00000000000E+00 -0.00000000000E+00 -0.74505805969E-08  0.93827000000E+00  0.93827000000E+00 0. -1.
     999902    2    1    2    0    0  0.10272864077E-01  0.14642861633E-01  0.15935827261E-01  0.10199738792E+01  0.10196925118E+01 0.  0.
     999903    2    3    3    0    0 -0.12680851728E+00  0.10216130674E-01 -0.73637471457E-02  0.12904527868E+00  0.20339365701E-01 0.  0.
         14    1    1    2    0    0 -0.10272864077E-01 -0.14642861633E-01 -0.15935827261E-01  0.23956120797E-01  0.00000000000E+00 0. -1.
     999901    1    3    3    0    0  0.13708138136E+00  0.44267309599E-02  0.23299574406E-01  0.89092860052E+00  0.88000000000E+00 0.  1.
        -11    1    4    4    0    0 -0.14324158084E-01 -0.15694862905E-02  0.50206031333E-02  0.15268017843E-01  0.51100000000E-03 0.  1.
         11    1    4    4    0    0 -0.11248435920E+00  0.11785616964E-01 -0.12384350279E-01  0.11377726084E+00  0.51100000000E-03 0. -1.
</event>
<event>
 8    1  0.1116841E+005  0.1043930E+01  0.7957747E-01            NaN
         13   -1    0    0    0    0  0.00000000000E+00  0.00000000000E+00  0.74505805969E-08  0.10566000000E+00  0.10566000000E+00 0. -1.
     999900   -1    0    0    0    0 -0.00000000000E+00 -0.00000000000E+00 -0.74505805969E-08  0.93827000000E+00  0.93827000000E+00 0. -1.
     999902    2    1    2    0    0  0.93762803257E-02 -0.29346559633E-02 -0.18880804554E-01  0.10226459304E+01  0.10224244164E+01 0.  0.
     999903    2    3    3    0    0 -0.13134201083E-01  0.12972497108E+00  0.67080201382E-02  0.13205057538E+00  0.19780838300E-01 0.  0.
         14    1    1    2    0    0 -0.93762803257E-02  0.29346559633E-02  0.18880804554E-01  0.21284069606E-01  0.00000000000E+00 0. -1.
     999901    1    3    3    0    0  0.22510481409E-01 -0.13265962705E+00 -0.25588824693E-01  0.89059535501E+00  0.88000000000E+00 0.  1.
        -11    1    4    4    0    0 -0.47996195917E-02  0.11146855052E+00  0.28598865639E-02  0.11160965090E+00  0.51100000000E-03 0.  1.
         11    1    4    4    0    0 -0.83345814915E-02  0.18256420566E-01  0.38481335743E-02  0.20440924478E-01  0.51100000000E-03 0. -1.
</event>
<event>
 8    1  0.1116841E+005  0.1043930E+01  0.7957747E-01            NaN
         13   -1    0    0    0    0  0.00000000000E+00  0.00000000000E+00  0.74505805969E-08  0.10566000000E+00  0.10566000000E+00 0. -1.
     999900   -1    0    0    0    0 -0.00000000000E+00 -0.00000000000E+00 -0.74505805969E-08  0.93827000000E+00  0.93827000000E+00 0.  1.
     999902    2    1    2    0    0 -0.13154519632E-01 -0.13355497476E-01  0.11545270151E-01  0.10219140067E+01  0.10216768242E+01 0.  0.
     999903    2    3    3    0    0  0.50716306246E-01 -0.51652558286E-01  0.10839130832E+00  0.13347419308E+00  0.28749852212E-01 0.  0.
         14    1    1    2    0    0  0.13154519632E-01  0.13355497476E-01 -0.11545270151E-01  0.22015993333E-01  0.00000000000E+00 0.  1.
     999901    1    3    3    0    0 -0.63870825878E-01  0.38297060810E-01 -0.96846038165E-01  0.88843981359E+00  0.88000000000E+00 0.  1.
        -11    1    4    4    0    0  0.29413776839E-01 -0.41567834686E-01  0.54164067835E-01  0.74344216411E-01  0.51100000000E-03 0. -1.
         11    1    4    4    0    0  0.21302529407E-01 -0.10084723601E-01  0.54227240481E-01  0.59129976665E-01  0.51100000000E-03 0.  1.
</event>
<event>
 8    1  0.1116841E+005  0.1043930E+01  0.7957747E-01            NaN
         13   -1    0    0    0    0  0.00000000000E+00  0.00000000000E+00  0.74505805969E-08  0.10566000000E+00  0.10566000000E+00 0.  1.
     999900   -1    0    0    0    0 -0.00000000000E+00 -0.00000000000E+00 -0.74505805969E-08  0.93827000000E+00  0.93827000000E+00 0. -1.
     999902    2    1    2    0    0  0.14458369028E-01  0.14767034245E-01 -0.10869495529E-01  0.10205792898E+01  0.10203121243E+01 0.  0.
     999903    2    3    3    0    0 -0.35675933737E-01  0.10915327069E+00 -0.62840533761E-01  0.13259100225E+00  0.21076822469E-01 0.  0.
         14    1    1    2    0    0 -0.14458369028E-01 -0.14767034245E-01  0.10869495529E-01  0.23350710233E-01  0.00000000000E+00 0.  1.
     999901    1    3    3    0    0  0.50134302764E-01 -0.94386236445E-01  0.51971038232E-01  0.88798828751E+00  0.88000000000E+00 0.  1.
        -11    1    4    4    0    0 -0.85628860093E-02  0.12419614107E-01 -0.22226577566E-02  0.15256839774E-01  0.51100000000E-03 0. -1.
         11    1    4    4    0    0 -0.27113047727E-01  0.96733656582E-01 -0.60617876004E-01  0.11733416248E+00  0.51100000000E-03 0.  1.
</event>
<event>
 8    1  0.1116841E+005  0.1043930E+01  0.7957747E-01            NaN
         13   -1    0    0    0    0  0.00000000000E+00  0.00000000000E+00  0.74505805969E-08  0.10566000000E+00  0.10566000000E+00 0.  1.
     999900   -1    0    0    0    0 -0.00000000000E+00 -0.00000000000E+00 -0.74505805969E-08  0.93827000000E+00  0.93827000000E+00 0.  1.
     999902    2    1    2    0    0 -0.12142795789E-01  0.19409203790E-01 -0.71687958488E-02  0.10199392452E+01  0.10196570539E+01 0.  0.
     999903    2    3    3    0    0  0.10487977201E-02  0.21434958853E-01 -0.12830523881E+00  0.13154059616E+00  0.19497094519E-01 0.  0.
         14    1    1    2    0    0  0.12142795789E-01 -0.19409203790E-01  0.71687958488E-02  0.23990754787E-01  0.00000000000E+00 0.  1.
     999901    1    3    3    0    0 -0.13191593509E-01 -0.20257550627E-02  0.12113644296E+00  0.88839864905E+00  0.88000000000E+00 0. -1.
        -11    1    4    4    0    0  0.58152616081E-03 -0.27144158842E-02 -0.36524312234E-01  0.36633218961E-01  0.51100000000E-03 0.  1.
         11    1    4    4    0    0  0.46727155928E-03  0.24149374737E-01 -0.91780926576E-01  0.94907377200E-01  0.51100000000E-03 0. -1.
</event>
<event>
 8    1  0.1116841E+005  0.1043930E+01  0.7957747E-01            NaN
         13   -1    0    0    0    0  0.00000000000E+00  0.00000000000E+00  0.74505805969E-08  0.10566000000E+00  0.10566000000E+00 0. -1.
     999900   -1    0    0    0    0 -0.00000000000E+00 -0.00000000000E+00 -0.74505805969E-08  0.93827000000E+00  0.93827000000E+00 0. -1.
     999902    2    1    2    0    0 -0.11154311332E-01 -0.17428458378E-01 -0.77921417522E-03  0.10232230689E+01  0.10230135247E+01 0.  0.
     999903    2    3    3    0    0 -0.35013335181E-01  0.11853349051E+00 -0.40433267650E-01  0.13158000769E+00  0.20058097564E-01 0.  0.
         14    1    1    2    0    0  0.11154311332E-01  0.17428458378E-01  0.77921417522E-03  0.20706931145E-01  0.00000000000E+00 0.  1.
     999901    1    3    3    0    0  0.23859023849E-01 -0.13596194889E+00  0.39654053475E-01  0.89164306116E+00  0.88000000000E+00 0. -1.
        -11    1    4    4    0    0 -0.18772596903E-02  0.23171454647E-01 -0.14292450228E-01  0.27294242413E-01  0.51100000000E-03 0.  1.
         11    1    4    4    0    0 -0.33136075490E-01  0.95362035864E-01 -0.26140817422E-01  0.10428576528E+00  0.51100000000E-03 0. -1.
</event>
<event>
 8    1  0.1116841E+005  0.1043930E+01  0.7957747E-01            NaN
         13   -1    0    0    0    0  0.00000000000E+00  0.00000000000E+00  0.74505805969E-08  0.10566000000E+00  0.10566000000E+00 0.  1.
     999900   -1    0    0    0    0 -0.00000000000E+00 -0.00000000000E+00 -0.74505805969E-08  0.93827000000E+00  0.93827000000E+00 0.  1.
     999902    2    1    2    0    0  0.67677410778E-02  0.10927861490E-01  0.19390266306E-01  0.10206662320E+01  0.10204010751E+01 0.  0.
     999903    2    3    3    0    0  0.87736622648E-01  0.88157219729E-01 -0.37187231997E-01  0.13177852990E+00  0.22655691894E-01 0.  0.
         14    1    1    2    0    0 -0.67677410778E-02 -0.10927861490E-01 -0.19390266306E-01  0.23263768041E-01  0.00000000000E+00 0. -1.
     999901    1    3    3    0    0 -0.80968881570E-01 -0.77229358239E-01  0.56577498303E-01  0.88888770206E+00  0.88000000000E+00 0. -1.
        -11    1    4    4    0    0  0.45762113538E-01  0.31645826111E-01 -0.21536523680E-01  0.59663324739E-01  0.51100000000E-03 0. -1.
         11    1    4    4    0    0  0.41974509109E-01  0.56511393618E-01 -0.15650708317E-01  0.72115205161E-01  0.51100000000E-03 0.  1.
</event>
<event>
 8    1  0.1560243E+005  0.1043930E+01  0.7957747E-01            NaN
         13   -1    0    0    0    0  0.00000000000E+00  0.00000000000E+00  0.74505805969E-08  0.10566000000E+00  0.10566000000E+00 0.  1.
     999900   -1    0    0    0    0 -0.00000000000E+00 -0.00000000000E+00 -0.74505805969E-08  0.93827000000E+00  0.93827000000E+00 0. -1.
     999902    2    1    2    0    0 -0.19107684589E-01  0.10995116311E-01 -0.84297597615E-02  0.10203279441E+01  0.10200549282E+01 0.  0.
     999903    2    3    3    0    0  0.38606768608E-02  0.46646445332E-01 -0.12175868072E+00  0.13204757889E+00  0.20508317139E-01 0.  0.
         14    1    1    2    0    0  0.19107684589E-01 -0.10995116311E-01  0.84297597615E-02  0.23602055900E-01  0.00000000000E+00 0.  1.
     999901    1    3    3    0    0 -0.22968361450E-01 -0.35651329021E-01  0.11332892096E+00  0.88828036521E+00  0.88000000000E+00 0.  1.
        -11    1    4    4    0    0  0.95137454439E-02  0.37878090379E-01 -0.80324727520E-01  0.89317322258E-01  0.51100000000E-03 0.  1.
         11    1    4    4    0    0 -0.56530685830E-02  0.87683549526E-02 -0.41433953203E-01  0.42730256634E-01  0.51100000000E-03 0. -1.
</event>
<event>
 8    1  0.1116841E+005  0.1043930E+01  0.7957747E-01            NaN
         13   -1    0    0    0    0  0.00000000000E+00  0.00000000000E+00  0.74505805969E-08  0.10566000000E+00  0.10566000000E+00 0. -1.
     999900   -1    0    0    0    0 -0.00000000000E+00 -0.00000000000E+00 -0.74505805969E-08  0.93827000000E+00  0.93827000000E+00 0.  1.
     999902    2    1    2    0    0  0.18818424211E-01  0.13215202653E-01  0.56960245505E-02  0.10202399311E+01  0.10199648511E+01 0.  0.
     999903    2    3    3    0    0 -0.15867874024E-02  0.56676425726E-01 -0.11580489953E+00  0.13059521257E+00  0.20726786121E-01 0.  0.
         14    1    1    2    0    0 -0.18818424211E-01 -0.13215202653E-01 -0.56960245505E-02  0.23690068945E-01  0.00000000000E+00 0.  1.
     999901    1    3    3    0    0  0.20405211614E-01 -0.43461223073E-01  0.12150092409E+00  0.88964471848E+00  0.88000000000E+00 0. -1.
        -11    1    4    4    0    0 -0.10623593258E-01  0.38334271518E-01 -0.80491015175E-01  0.89785531972E-01  0.51100000000E-03 0. -1.
         11    1    4    4    0    0  0.90368058552E-02  0.18342154208E-01 -0.35313884360E-01  0.40809680600E-01  0.51100000000E-03 0.  1.
</event>
<event>
 8    1  0.1489182E+005  0.1043930E+01  0.7957747E-01            NaN
         13   -1    0    0    0    0  0.00000000000E+00  0.00000000000E+00  0.74505805969E-08  0.10566000000E+00  0.10566000000E+00 0. -1.
     999900   -1    0    0    0    0 -0.00000000000E+00 -0.00000000000E+00 -0.74505805969E-08  0.93827000000E+00  0.93827000000E+00 0.  1.
     999902    2    1    2    0    0  0.20199046200E-01 -0.11540374092E-01 -0.35534438282E-02  0.10203968603E+01  0.10201254549E+01 0.  0.
     999903    2    3    3    0    0  0.30006987132E-01  0.12093788038E+00  0.30151393767E-01  0.12978880975E+00  0.20239525771E-01 0.  0.
         14    1    1    2    0    0 -0.20199046200E-01  0.11540374092E-01  0.35534438282E-02  0.23533139710E-01  0.00000000000E+00 0. -1.
     999901    1    3    3    0    0 -0.98079409316E-02 -0.13247825447E+00 -0.33704837595E-01  0.89060805054E+00  0.88000000000E+00 0. -1.
        -11    1    4    4    0    0  0.95250297543E-03  0.43704095969E-01  0.10203593166E-01  0.44892423647E-01  0.51100000000E-03 0. -1.
         11    1    4    4    0    0  0.29054484156E-01  0.77233784406E-01  0.19947800601E-01  0.84896386102E-01  0.51100000000E-03 0.  1.
</event>
<event>
 8    1  0.1116841E+005  0.1043930E+01  0.7957747E-01            NaN
         13   -1    0    0    0    0  0.00000000000E+00  0.00000000000E+00  0.74505805969E-08  0.10566000000E+00  0.10566000000E+00 0. -1.
     999900   -1    0    0    0    0 -0.00000000000E+00 -0.00000000000E+00 -0.74505805969E-08  0.93827000000E+00  0.93827000000E+00 0. -1.
     999902    2    1    2    0    0  0.67759112447E-02  0.22380359581E-01 -0.38391095308E-02  0.10202333287E+01  0.10199580936E+01 0.  0.
     999903    2    3    3    0    0  0.12001262509E+00 -0.30768205027E-01  0.35908361645E-01  0.13049899491E+00  0.19770296268E-01 0.  0.
         14    1    1    2    0    0 -0.67759112447E-02 -0.22380359581E-01  0.38391095308E-02  0.23696671288E-01  0.00000000000E+00 0. -1.
     999901    1    3    3    0    0 -0.11323671385E+00  0.53148564608E-01 -0.39747471176E-01  0.88973433380E+00  0.88000000000E+00 0. -1.
        -11    1    4    4    0    0  0.54834993125E-01 -0.12993604047E-01  0.61998456165E-02  0.56695761957E-01  0.51100000000E-03 0.  1.
         11    1    4    4    0    0  0.65177631965E-01 -0.17774600980E-01  0.29708516029E-01  0.73803232952E-01  0.51100000000E-03 0. -1.
</event>
<event>
 8    1  0.1116841E+005  0.1043930E+01  0.7957747E-01            NaN
         13   -1    0    0    0    0  0.00000000000E+00  0.00000000000E+00  0.74505805969E-08  0.10566000000E+00  0.10566000000E+00 0. -1.
     999900   -1    0    0    0    0 -0.00000000000E+00 -0.00000000000E+00 -0.74505805969E-08  0.93827000000E+00  0.93827000000E+00 0. -1.
     999902    2    1    2    0    0 -0.91945858941E-02 -0.82367167294E-02  0.22118437272E-01  0.10185999945E+01  0.10182849992E+01 0.  0.
     999903    2    3    3    0    0  0.94927869096E-01  0.81161407995E-01  0.20345119182E-01  0.12796165318E+00  0.19020681673E-01 0.  0.
         14    1    1    2    0    0  0.91945858941E-02  0.82367167294E-02 -0.22118437272E-01  0.25330005519E-01  0.00000000000E+00 0.  1.
     999901    1    3    3    0    0 -0.10412245499E+00 -0.89398124724E-01  0.17733180904E-02  0.89063834130E+00  0.88000000000E+00 0.  1.
        -11    1    4    4    0    0  0.53759343382E-01  0.58042002330E-01  0.12732606715E-01  0.80133148136E-01  0.51100000000E-03 0. -1.
         11    1    4    4    0    0  0.41168525714E-01  0.23119405665E-01  0.76125124668E-02  0.47828505045E-01  0.51100000000E-03 0.  1.
</event>
<event>
 8    1  0.1116841E+005  0.1043930E+01  0.7957747E-01            NaN
         13   -1    0    0    0    0  0.00000000000E+00  0.00000000000E+00  0.74505805969E-08  0.10566000000E+00  0.10566000000E+00 0. -1.
     999900   -1    0    0    0    0 -0.00000000000E+00 -0.00000000000E+00 -0.74505805969E-08  0.93827000000E+00  0.93827000000E+00 0. -1.
     999902    2    1    2    0    0  0.10108640868E-01  0.88044321364E-02  0.19526543913E-01  0.10202448029E+01  0.10199698374E+01 0.  0.
     999903    2    3    3    0    0 -0.15310165301E-01  0.10814995793E+00 -0.67152892513E-01  0.13006000527E+00  0.21800904470E-01 0.  0.
         14    1    1    2    0    0 -0.10108640868E-01 -0.88044321364E-02 -0.19526543913E-01  0.23685197120E-01  0.00000000000E+00 0.  1.
     999901    1    3    3    0    0  0.25418806168E-01 -0.99345525793E-01  0.86679436425E-01  0.89018479761E+00  0.88000000000E+00 0.  1.
        -11    1    4    4    0    0 -0.48449204987E-02  0.16716305222E-01 -0.20442519003E-01  0.26852668752E-01  0.51100000000E-03 0.  1.
         11    1    4    4    0    0 -0.10465244802E-01  0.91433652708E-01 -0.46710373510E-01  0.10320733652E+00  0.51100000000E-03 0. -1.
</event>
<event>
 8    1  0.1116841E+005  0.1043930E+01  0.7957747E-01            NaN
         13   -1    0    0    0    0  0.00000000000E+00  0.00000000000E+00  0.74505805969E-08  0.10566000000E+00  0.10566000000E+00 0. -1.
     999900   -1    0    0    0    0 -0.00000000000E+00 -0.00000000000E+00 -0.74505805969E-08  0.93827000000E+00  0.93827000000E+00 0. -1.
     999902    2    1    2    0    0  0.16560489963E-02  0.48181308234E-02 -0.18850382037E-01  0.10244032546E+01  0.10242171324E+01 0.  0.
     999903    2    3    3    0    0  0.23301618184E-01 -0.12784906955E+00 -0.26986688254E-01  0.13415872853E+00  0.19543108837E-01 0.  0.
         14    1    1    2    0    0 -0.16560489963E-02 -0.48181308234E-02  0.18850382037E-01  0.19526745398E-01  0.00000000000E+00 0. -1.
     999901    1    3    3    0    0 -0.21645569188E-01  0.13266720037E+00  0.81363062176E-02  0.89024452607E+00  0.88000000000E+00 0. -1.
        -11    1    4    4    0    0  0.79148044850E-02 -0.13334171427E-01 -0.47585628303E-04  0.15514755656E-01  0.51100000000E-03 0. -1.
         11    1    4    4    0    0  0.15386813699E-01 -0.11451489812E+00 -0.26939102626E-01  0.11864397287E+00  0.51100000000E-03 0.  1.
</event>
<event>
 8    1  0.1116841E+005  0.1043930E+01  0.7957747E-01            NaN
         13   -1    0    0    0    0  0.00000000000E+00  0.00000000000E+00  0.74505805969E-08  0.10566000000E+00  0.10566000000E+00 0. -1.
     999900   -1    0    0    0    0 -0.00000000000E+00 -0.00000000000E+00 -0.74505805969E-08  0.93827000000E+00  0.93827000000E+00 0. -1.
     999902    2    1    2    0    0 -0.62353938585E-02 -0.20011667375E-02  0.21486949188E-01  0.10214672800E+01  0.10212202653E+01 0.  0.
     999903    2    3    3    0    0  0.27938587063E-01  0.42115180994E-01  0.12252747943E+00  0.13392950510E+00  0.19232160625E-01 0.  0.
         14    1    1    2    0    0  0.62353938585E-02  0.20011667375E-02 -0.21486949188E-01  0.22462720011E-01  0.00000000000E+00 0.  1.
     999901    1    3    3    0    0 -0.34173980922E-01 -0.44116347732E-01 -0.10104053024E+00  0.88753777489E+00  0.88000000000E+00 0. -1.
        -11    1    4    4    0    0  0.17849769143E-01  0.19059431095E-01  0.41067329529E-01  0.48668910485E-01  0.51100000000E-03 0. -1.
         11    1    4    4    0    0  0.10088817921E-01  0.23055749899E-01  0.81460149902E-01  0.85260594612E-01  0.51100000000E-03 0.  1.
</event>
<event>
 7    1  0.1116841E+005  0.1043930E+01  0.7957747E-01            NaN
         13   -1    0    0    0    0  0.00000000000E+00  0.00000000000E+00  0.74505805969E-08  0.10566000000E+00  0.10566000000E+00 0.  1.
     999900   -1    0    0    0    0 -0.00000000000E+00 -0.00000000000E+00 -0.74505805969E-08  0.93827000000E+00  0.93827000000E+00 0.  1.
     999902    2    1    2    0    0  0.51995178047E-02  0.20727173462E-01  0.92756608672E-02  0.10206343225E+01  0.10203684294E+01 0.  0.
         14    1    1    2    0    0 -0.51995178047E-02 -0.20727173462E-01 -0.92756608672E-02  0.23295677489E-01  0.00000000000E+00 0. -1.
     999901    1    3    3    0    0  0.39222478645E-01  0.38376716080E-01 -0.11192652678E+00  0.88878496981E+00  0.88000000000E+00 0.  1.
        -11    1    3    3    0    0 -0.89185373345E-02 -0.23396817710E-01  0.73303083202E-01  0.77463246221E-01  0.51100000000E-03 0.  1.
         11    1    3    3    0    0 -0.25104423506E-01  0.57472750924E-02  0.47899104441E-01  0.54386106478E-01  0.51100000000E-03 0. -1.
</event>
<event>
 8    1  0.1164143E+005  0.1043930E+01  0.7957747E-01            NaN
         13   -1    0    0    0    0  0.00000000000E+00  0.00000000000E+00  0.74505805969E-08  0.10566000000E+00  0.10566000000E+00 0.  1.
     999900   -1    0    0    0    0 -0.00000000000E+00 -0.00000000000E+00 -0.74505805969E-08  0.93827000000E+00  0.93827000000E+00 0. -1.
     999902    2    1    2    0    0  0.79562566650E-02  0.20502397980E-01 -0.86571047283E-02  0.10202953685E+01  0.10200215896E+01 0.  0.
     999903    2    3    3    0    0  0.85380383939E-01 -0.46099147381E-01  0.83391720863E-01  0.12961964323E+00  0.20787771667E-01 0.  0.
         14    1    1    2    0    0 -0.79562566650E-02 -0.20502397980E-01  0.86571047283E-02  0.23634631483E-01  0.00000000000E+00 0. -1.
     999901    1    3    3    0    0 -0.77424127274E-01  0.66601545361E-01 -0.92048825591E-01  0.89067572529E+00  0.88000000000E+00 0. -1.
        -11    1    4    4    0    0  0.57428554128E-01 -0.41546459669E-01  0.58270629958E-01  0.91759874548E-01  0.51100000000E-03 0.  1.
         11    1    4    4    0    0  0.27951829811E-01 -0.45526877121E-02  0.25121090905E-01  0.37859768680E-01  0.51100000000E-03 0. -1.
</event>
<event>
 8    1  0.1116841E+005  0.1043930E+01  0.7957747E-01            NaN
         13   -1    0    0    0    0  0.00000000000E+00  0.00000000000E+00  0.74505805969E-08  0.10566000000E+00  0.10566000000E+00 0. -1.
     999900   -1    0    0    0    0 -0.00000000000E+00 -0.00000000000E+00 -0.74505805969E-08  0.93827000000E+00  0.93827000000E+00 0. -1.
     999902    2    1    2    0    0 -0.17580560312E-01  0.14854795573E-01  0.51500369014E-02  0.10203447518E+01  0.10200721291E+01 0.  0.
     999903    2    3    3    0    0  0.72722819258E-01  0.75012763592E-01  0.76384657533E-01  0.13082350267E+00  0.19095805888E-01 0.  0.
         14    1    1    2    0    0  0.17580560312E-01 -0.14854795573E-01 -0.51500369014E-02  0.23585248197E-01  0.00000000000E+00 0. -1.
     999901    1    3    3    0    0 -0.90303379571E-01 -0.60157968019E-01 -0.71234620632E-01  0.88952124913E+00  0.88000000000E+00 0.  1.
        -11    1    4    4    0    0  0.10820275644E-01  0.99659198981E-02  0.19853685997E-01  0.24714932593E-01  0.51100000000E-03 0. -1.
         11    1    4    4    0    0  0.61902543614E-01  0.65046843694E-01  0.56530971536E-01  0.10610857008E+00  0.51100000000E-03 0.  1.
</event>
<event>
 8    1  0.1116841E+005  0.1043930E+01  0.7957747E-01            NaN
         13   -1    0    0    0    0  0.00000000000E+00  0.00000000000E+00  0.74505805969E-08  0.10566000000E+00  0.10566000000E+00 0. -1.
     999900   -1    0    0    0    0 -0.00000000000E+00 -0.00000000000E+00 -0.74505805969E-08  0.93827000000E+00  0.93827000000E+00 0.  1.
     999902    2    1    2    0    0  0.80876610374E-02  0.10262564727E-01 -0.20316253888E-01  0.10197746555E+01  0.10194885322E+01 0.  0.
     999903    2    3    3    0    0  0.85726713441E-01 -0.19149615367E-01 -0.97021508484E-01  0.13254492489E+00  0.20957262214E-01 0.  0.
         14    1    1    2    0    0 -0.80876610374E-02 -0.10262564727E-01  0.20316253888E-01  0.24155344500E-01  0.00000000000E+00 0. -1.
     999901    1    3    3    0    0 -0.77639052404E-01  0.29412180094E-01  0.76705254596E-01  0.88722973061E+00  0.88000000000E+00 0. -1.
        -11    1    4    4    0    0  0.15267810212E-01 -0.11893443659E-01 -0.23596193007E-01  0.30522147306E-01  0.51100000000E-03 0. -1.
         11    1    4    4    0    0  0.70458903229E-01 -0.72561717079E-02 -0.73425315477E-01  0.10202277758E+00  0.51100000000E-03 0.  1.
</event>
<event>
 8    1  0.1116841E+005  0.1043930E+01  0.7957747E-01            NaN
         13   -1    0    0    0    0  0.00000000000E+00  0.00000000000E+00  0.74505805969E-08  0.10566000000E+00  0.10566000000E+00 0. -1.
     999900   -1    0    0    0    0 -0.00000000000E+00 -0.00000000000E+00 -0.74505805969E-08  0.93827000000E+00  0.93827000000E+00 0.  1.
     999902    2    1    2    0    0  0.20920457235E-01  0.89174377849E-02  0.46418615201E-02  0.10207193751E+01  0.10204554423E+01 0.  0.
     999903    2    3    3    0    0  0.21344417803E-01  0.97469841221E-01  0.85118437283E-01  0.13262130222E+00  0.19680124936E-01 0.  0.
         14    1    1    2    0    0 -0.20920457235E-01 -0.89174377849E-02 -0.46418615201E-02  0.23210624851E-01  0.00000000000E+00 0. -1.
     999901    1    3    3    0    0 -0.42396056723E-03 -0.88552403436E-01 -0.80476575763E-01  0.88809807293E+00  0.88000000000E+00 0.  1.
        -11    1    4    4    0    0  0.23023306820E-01  0.82750685235E-01  0.78592227558E-01  0.11642485953E+00  0.51100000000E-03 0.  1.
         11    1    4    4    0    0 -0.16788890169E-02  0.14719155987E-01  0.65262097256E-02  0.16196442686E-01  0.51100000000E-03 0. -1.
</event>
<event>
 8    1  0.1116841E+005  0.1043930E+01  0.7957747E-01            NaN
         13   -1    0    0    0    0  0.00000000000E+00  0.00000000000E+00  0.74505805969E-08  0.10566000000E+00  0.10566000000E+00 0.  1.
     999900   -1    0    0    0    0 -0.00000000000E+00 -0.00000000000E+00 -0.74505805969E-08  0.93827000000E+00  0.93827000000E+00 0. -1.
     999902    2    1    2    0    0  0.26493561622E-02 -0.18600827637E-01 -0.12645301155E-01  0.10212824059E+01  0.10210312625E+01 0.  0.
     999903    2    3    3    0    0  0.61169844013E-01  0.79118734994E-01  0.79346093647E-01  0.12918589928E+00  0.19790653157E-01 0.  0.
         14    1    1    2    0    0 -0.26493561622E-02  0.18600827637E-01  0.12645301155E-01  0.22647594092E-01  0.00000000000E+00 0. -1.
     999901    1    3    3    0    0 -0.58520487850E-01 -0.97719562631E-01 -0.91991394802E-01  0.89209650663E+00  0.88000000000E+00 0. -1.
        -11    1    4    4    0    0  0.28294603608E-01  0.32168775086E-01  0.22229117462E-01  0.48268099900E-01  0.51100000000E-03 0. -1.
         11    1    4    4    0    0  0.32875240405E-01  0.46949959908E-01  0.57116976186E-01  0.80917799381E-01  0.51100000000E-03 0.  1.
</event>
<event>
 8    1  0.1116841E+005  0.1043930E+01  0.7957747E-01            NaN
         13   -1    0    0    0    0  0.00000000000E+00  0.00000000000E+00  0.74505805969E-08  0.10566000000E+00  0.10566000000E+00 0. -1.
     999900   -1    0    0    0    0 -0.00000000000E+00 -0.00000000000E+00 -0.74505805969E-08  0.93827000000E+00  0.93827000000E+00 0.  1.
     999902    2    1    2    0    0  0.14251968799E-01 -0.11163910364E-01 -0.16083410136E-01  0.10197137329E+01  0.10194261472E+01 0.  0.
     999903    2    3    3    0    0  0.98125382267E-01  0.44054218882E-01  0.69934297085E-01  0.12983574284E+00  0.19928606685E-01 0.  0.
         14    1    1    2    0    0 -0.14251968799E-01  0.11163910364E-01  0.16083410136E-01  0.24216267071E-01  0.00000000000E+00 0.  1.
     999901    1    3    3    0    0 -0.83873413468E-01 -0.55218129246E-01 -0.86017707221E-01  0.88987799009E+00  0.88000000000E+00 0.  1.
        -11    1    4    4    0    0  0.53887247350E-01  0.31984931352E-01  0.32237898265E-01  0.70472792382E-01  0.51100000000E-03 0.  1.
         11    1    4    4    0    0  0.44238134917E-01  0.12069287530E-01  0.37696398820E-01  0.59362950460E-01  0.51100000000E-03 0. -1.
</event>
<event>
 8    1  0.1116841E+005  0.1043930E+01  0.7957747E-01            NaN
         13   -1    0    0    0    0  0.00000000000E+00  0.00000000000E+00  0.74505805969E-08  0.10566000000E+00  0.10566000000E+00 0. -1.
     999900   -1    0    0    0    0 -0.00000000000E+00 -0.00000000000E+00 -0.74505805969E-08  0.93827000000E+00  0.93827000000E+00 0. -1.
     999902    2    1    2    0    0 -0.17800741634E-01 -0.15798251965E-01  0.16335161739E-02  0.10200737735E+01  0.10197947754E+01 0.  0.
     999903    2    3    3    0    0 -0.88381515350E-04  0.11489874853E+00 -0.54035867615E-01  0.12850520410E+00  0.19798542045E-01 0.  0.
         14    1    1    2    0    0  0.17800741634E-01  0.15798251965E-01 -0.16335161739E-02  0.23856226503E-01  0.00000000000E+00 0.  1.
     999901    1    3    3    0    0 -0.17712360119E-01 -0.13069700050E+00  0.55669383789E-01  0.89156856939E+00  0.88000000000E+00 0.  1.
        -11    1    4    4    0    0  0.23867214011E-02  0.72872319316E-01 -0.23905006057E-01  0.76731882534E-01  0.51100000000E-03 0.  1.
         11    1    4    4    0    0 -0.24751029165E-02  0.42026429216E-01 -0.30130861558E-01  0.51773321569E-01  0.51100000000E-03 0. -1.
</event>
<event>
 7    1  0.1629754E+005  0.1043930E+01  0.7957747E-01            NaN
         13   -1    0    0    0    0  0.00000000000E+00  0.00000000000E+00  0.74505805969E-08  0.10566000000E+00  0.10566000000E+00 0. -1.
     999900   -1    0    0    0    0 -0.00000000000E+00 -0.00000000000E+00 -0.74505805969E-08  0.93827000000E+00  0.93827000000E+00 0.  1.
     999903    2    1    2    0    0 -0.90170717326E-01  0.43459440442E-01  0.16490282703E-01  0.10334436184E+00  0.19714118622E-01 0.  0.
         14    1    1    2    0    0  0.11724915872E-01  0.45976479761E-01 -0.22610105523E-01  0.52559749003E-01  0.00000000000E+00 0.  1.
     999901    1    1    2    0    0  0.78445801454E-01 -0.89435920204E-01  0.61198228200E-02  0.88802588916E+00  0.88000000000E+00 0. -1.
        -11    1    3    3    0    0 -0.46968428756E-01  0.16324352125E-01  0.16280169683E-01  0.52324208718E-01  0.51100000000E-03 0.  1.
         11    1    3    3    0    0 -0.43202288571E-01  0.27135088317E-01  0.21011301991E-03  0.51020153118E-01  0.51100000000E-03 0. -1.
</event>
<event>
 8    1  0.1116841E+005  0.1043930E+01  0.7957747E-01            NaN
         13   -1    0    0    0    0  0.00000000000E+00  0.00000000000E+00  0.74505805969E-08  0.10566000000E+00  0.10566000000E+00 0.  1.
     999900   -1    0    0    0    0 -0.00000000000E+00 -0.00000000000E+00 -0.74505805969E-08  0.93827000000E+00  0.93827000000E+00 0. -1.
     999902    2    1    2    0    0  0.54701657688E-02  0.14205237846E-01 -0.18171451719E-01  0.10202252926E+01  0.10199498686E+01 0.  0.
     999903    2    3    3    0    0  0.25510045121E-02 -0.13241576149E-01  0.12580988647E+00  0.12809723292E+00  0.19973146626E-01 0.  0.
         14    1    1    2    0    0 -0.54701657688E-02 -0.14205237846E-01  0.18171451719E-01  0.23704707410E-01  0.00000000000E+00 0.  1.
     999901    1    3    3    0    0  0.29191612566E-02  0.27446813995E-01 -0.14398133819E+00  0.89212805967E+00  0.88000000000E+00 0. -1.
        -11    1    4    4    0    0 -0.41043051129E-02  0.14556552241E-03  0.75429408862E-01  0.75542857717E-01  0.51100000000E-03 0.  1.
         11    1    4    4    0    0  0.66553096250E-02 -0.13387141671E-01  0.50380477606E-01  0.52554375205E-01  0.51100000000E-03 0. -1.
</event>
<event>
 8    1  0.1116841E+005  0.1043930E+01  0.7957747E-01            NaN
         13   -1    0    0    0    0  0.00000000000E+00  0.00000000000E+00  0.74505805969E-08  0.10566000000E+00  0.10566000000E+00 0. -1.
     999900   -1    0    0    0    0 -0.00000000000E+00 -0.00000000000E+00 -0.74505805969E-08  0.93827000000E+00  0.93827000000E+00 0.  1.
     999902    2    1    2    0    0 -0.81309603777E-02 -0.72848270849E-02 -0.21089757538E-01  0.10201821770E+01  0.10199057384E+01 0.  0.
     999903    2    3    3    0    0 -0.40806074337E-01 -0.42604869049E-01  0.11269979781E+00  0.12877048003E+00  0.20007037050E-01 0.  0.
         14    1    1    2    0    0  0.81309603777E-02  0.72848270849E-02  0.21089757538E-01  0.23747822960E-01  0.00000000000E+00 0. -1.
     999901    1    3    3    0    0  0.32675113959E-01  0.35320041965E-01 -0.13378955535E+00  0.89141169701E+00  0.88000000000E+00 0.  1.
        -11    1    4    4    0    0 -0.14490504848E-01 -0.29389685629E-01  0.56285780946E-01  0.65131241427E-01  0.51100000000E-03 0.  1.
         11    1    4    4    0    0 -0.26315569489E-01 -0.13215183420E-01  0.56414016868E-01  0.63639238608E-01  0.51100000000E-03 0. -1.
</event>
<event>
 8    1  0.1116841E+005  0.1043930E+01  0.7957747E-01            NaN
         13   -1    0    0    0    0  0.00000000000E+00  0.00000000000E+00  0.74505805969E-08  0.10566000000E+00  0.10566000000E+00 0.  1.
     999900   -1    0    0    0    0 -0.00000000000E+00 -0.00000000000E+00 -0.74505805969E-08  0.93827000000E+00  0.93827000000E+00 0.  1.
     999902    2    1    2    0    0  0.20667675605E-01 -0.16678917942E-02  0.11991892486E-01  0.10199771262E+01  0.10196958359E+01 0.  0.
     999903    2    3    3    0    0 -0.59690240988E-01 -0.67956585016E-01  0.91657227614E-01  0.13025910838E+00  0.19630731679E-01 0.  0.
         14    1    1    2    0    0 -0.20667675605E-01  0.16678917942E-02 -0.11991892486E-01  0.23952873801E-01  0.00000000000E+00 0. -1.
     999901    1    3    3    0    0  0.80357916592E-01  0.66288693222E-01 -0.79665335128E-01  0.88971801782E+00  0.88000000000E+00 0. -1.
        -11    1    4    4    0    0 -0.65174995748E-02 -0.12772880583E-01  0.24351500512E-01  0.28264482611E-01  0.51100000000E-03 0. -1.
         11    1    4    4    0    0 -0.53172741413E-01 -0.55183704433E-01  0.67305727103E-01  0.10199462577E+00  0.51100000000E-03 0.  1.
</event>
<event>
 7    1  0.1116841E+005  0.1043930E+01  0.7957747E-01            NaN
         13   -1    0    0    0    0  0.00000000000E+00  0.00000000000E+00  0.74505805969E-08  0.10566000000E+00  0.10566000000E+00 0. -1.
     999900   -1    0    0    0    0 -0.00000000000E+00 -0.00000000000E+00 -0.74505805969E-08  0.93827000000E+00  0.93827000000E+00 0.  1.
     999903    2    1    2    0    0  0.40066785606E-01 -0.95001356150E-01 -0.11162420323E-02  0.10508137014E+00  0.20254465556E-01 0.  0.
         14    1    1    2    0    0 -0.76110584227E-03  0.42269674280E-01  0.36257671453E-01  0.55694913458E-01  0.00000000000E+00 0.  1.
     999901    1    1    2    0    0 -0.39305679764E-01  0.52731681870E-01 -0.35141429421E-01  0.88315371640E+00  0.88000000000E+00 0. -1.
        -11    1    3    3    0    0  0.35418468277E-01 -0.90587791052E-01 -0.52976278783E-02  0.97411199381E-01  0.51100000000E-03 0. -1.
         11    1    3    3    0    0  0.46483173293E-02 -0.44135650981E-02  0.41813858460E-02  0.76701707583E-02  0.51100000000E-03 0.  1.
</event>
<event>
 8    1  0.1116841E+005  0.1043930E+01  0.7957747E-01            NaN
         13   -1    0    0    0    0  0.00000000000E+00  0.00000000000E+00  0.74505805969E-08  0.10566000000E+00  0.10566000000E+00 0. -1.
     999900   -1    0    0    0    0 -0.00000000000E+00 -0.00000000000E+00 -0.74505805969E-08  0.93827000000E+00  0.93827000000E+00 0.  1.
     999902    2    1    2    0    0 -0.88662928767E-02  0.52434142449E-02 -0.21414595432E-01  0.10201668049E+01  0.10198900041E+01 0.  0.
     999903    2    3    3    0    0 -0.53040027787E-01  0.11134090022E+00  0.38463543126E-01  0.13067628398E+00  0.19667395233E-01 0.  0.
         14    1    1    2    0    0  0.88662928767E-02 -0.52434142449E-02  0.21414595432E-01  0.23763195068E-01  0.00000000000E+00 0. -1.
     999901    1    3    3    0    0  0.44173734911E-01 -0.10609748598E+00 -0.59878138558E-01  0.88949052095E+00  0.88000000000E+00 0.  1.
        -11    1    4    4    0    0 -0.25367662514E-01  0.57734019229E-01  0.95744907103E-02  0.63786105627E-01  0.51100000000E-03 0.  1.
         11    1    4    4    0    0 -0.27672365274E-01  0.53606880993E-01  0.28889052416E-01  0.66890178353E-01  0.51100000000E-03 0. -1.
</event>
<event>
 8    1  0.1116841E+005  0.1043930E+01  0.7957747E-01            NaN
         13   -1    0    0    0    0  0.00000000000E+00  0.00000000000E+00  0.74505805969E-08  0.10566000000E+00  0.10566000000E+00 0. -1.
     999900   -1    0    0    0    0 -0.00000000000E+00 -0.00000000000E+00 -0.74505805969E-08  0.93827000000E+00  0.93827000000E+00 0. -1.
     999902    2    1    2    0    0 -0.10015410928E-02  0.23151366464E-01 -0.40506744151E-02  0.10204056123E+01  0.10201344111E+01 0.  0.
     999903    2    3    3    0    0 -0.14849808616E-01 -0.10209203316E-01  0.12721700885E+00  0.12993612556E+00  0.19351608163E-01 0.  0.
         14    1    1    2    0    0  0.10015410928E-02 -0.23151366464E-01  0.40506744151E-02  0.23524387706E-01  0.00000000000E+00 0.  1.
     999901    1    3    3    0    0  0.13848267523E-01  0.33360569780E-01 -0.13126768326E+00  0.89046948673E+00  0.88000000000E+00 0. -1.
        -11    1    4    4    0    0 -0.12980592685E-01 -0.15645133074E-01  0.89572883694E-01  0.91852210587E-01  0.51100000000E-03 0.  1.
         11    1    4    4    0    0 -0.18692159308E-02  0.54359297579E-02  0.37644125152E-01  0.38083914977E-01  0.51100000000E-03 0. -1.
</event>
<event>
 8    1  0.1116841E+005  0.1043930E+01  0.7957747E-01            NaN
         13   -1    0    0    0    0  0.00000000000E+00  0.00000000000E+00  0.74505805969E-08  0.10566000000E+00  0.10566000000E+00 0.  1.
     999900   -1    0    0    0    0 -0.00000000000E+00 -0.00000000000E+00 -0.74505805969E-08  0.93827000000E+00  0.93827000000E+00 0. -1.
     999902    2    1    2    0    0  0.12195442807E-01  0.19992173460E-01 -0.16186727009E-02  0.10204558456E+01  0.10201858149E+01 0.  0.
     999903    2    3    3    0    0  0.98633231464E-01  0.73319885875E-01 -0.47671595227E-01  0.13341796143E+00  0.20577935457E-01 0.  0.
         14    1    1    2    0    0 -0.12195442807E-01 -0.19992173460E-01  0.16186727009E-02  0.23474154431E-01  0.00000000000E+00 0.  1.
     999901    1    3    3    0    0 -0.86437788658E-01 -0.53327712415E-01  0.46052922526E-01  0.88703788414E+00  0.88000000000E+00 0. -1.
        -11    1    4    4    0    0  0.11990206404E-01  0.51160643889E-02 -0.11435820322E-01  0.17348725368E-01  0.51100000000E-03 0.  1.
         11    1    4    4    0    0  0.86643025060E-01  0.68203821486E-01 -0.36235774905E-01  0.11606923607E+00  0.51100000000E-03 0. -1.
</event>
<event>
 8    1  0.1116841E+005  0.1043930E+01  0.7957747E-01            NaN
         13   -1    0    0    0    0  0.00000000000E+00  0.00000000000E+00  0.74505805969E-08  0.10566000000E+00  0.10566000000E+00 0. -1.
     999900   -1    0    0    0    0 -0.00000000000E+00 -0.00000000000E+00 -0.74505805969E-08  0.93827000000E+00  0.93827000000E+00 0.  1.
     999902    2    1    2    0    0 -0.11948930509E-02  0.23851375058E-01 -0.48128072314E-03  0.10200438640E+01  0.10197641575E+01 0.  0.
     999903    2    3    3    0    0  0.11287921068E+00 -0.52174693357E-01  0.27494643649E-01  0.12899082599E+00  0.20463697828E-01 0.  0.
         14    1    1    2    0    0  0.11948930509E-02 -0.23851375058E-01  0.48128072314E-03  0.23886135994E-01  0.00000000000E+00 0. -1.
     999901    1    3    3    0    0 -0.11407410373E+00  0.76026068416E-01 -0.27975924372E-01  0.89105303802E+00  0.88000000000E+00 0.  1.
        -11    1    4    4    0    0  0.14205682720E-01 -0.41013992119E-02 -0.29468867950E-02  0.15085362436E-01  0.51100000000E-03 0. -1.
         11    1    4    4    0    0  0.98673527959E-01 -0.48073294146E-01  0.30441530444E-01  0.11390546355E+00  0.51100000000E-03 0.  1.
</event>
<event>
 8    1  0.1116841E+005  0.1043930E+01  0.7957747E-01            NaN
         13   -1    0    0    0    0  0.00000000000E+00  0.00000000000E+00  0.74505805969E-08  0.10566000000E+00  0.10566000000E+00 0.  1.
     999900   -1    0    0    0    0 -0.00000000000E+00 -0.00000000000E+00 -0.74505805969E-08  0.93827000000E+00  0.93827000000E+00 0. -1.
     999902    2    1    2    0    0  0.66729744942E-02  0.22372833822E-01 -0.57492606439E-02  0.10198857433E+01  0.10196022769E+01 0.  0.
     999903    2    3    3    0    0 -0.12721081433E+00  0.38191927299E-02 -0.13138466410E-01  0.12953541514E+00  0.20239243062E-01 0.  0.
         14    1    1    2    0    0 -0.66729744942E-02 -0.22372833822E-01  0.57492606439E-02  0.24044256691E-01  0.00000000000E+00 0.  1.
     999901    1    3    3    0    0  0.13388378883E+00  0.18553641093E-01  0.73892057659E-02  0.89035032817E+00  0.88000000000E+00 0. -1.
        -11    1    4    4    0    0 -0.55401914668E-01  0.91285627309E-03 -0.15788031330E-01  0.57617085225E-01  0.51100000000E-03 0. -1.
         11    1    4    4    0    0 -0.71808899665E-01  0.29063364568E-02  0.26495649207E-02  0.71918329916E-01  0.51100000000E-03 0.  1.
</event>
<event>
 8    1  0.1116841E+005  0.1043930E+01  0.7957747E-01            NaN
         13   -1    0    0    0    0  0.00000000000E+00  0.00000000000E+00  0.74505805969E-08  0.10566000000E+00  0.10566000000E+00 0.  1.
     999900   -1    0    0    0    0 -0.00000000000E+00 -0.00000000000E+00 -0.74505805969E-08  0.93827000000E+00  0.93827000000E+00 0.  1.
     999902    2    1    2    0    0 -0.21733992230E-01  0.88257759395E-02 -0.59931270051E-02  0.10197188804E+01  0.10194314184E+01 0.  0.
     999903    2    3    3    0    0 -0.94960989490E-01 -0.73514796375E-01 -0.50577938623E-01  0.13172678115E+00  0.19282172718E-01 0.  0.
         14    1    1    2    0    0  0.21733992230E-01 -0.88257759395E-02  0.59931270051E-02  0.24211119563E-01  0.00000000000E+00 0.  1.
     999901    1    3    3    0    0  0.73226997259E-01  0.82340572315E-01  0.44584811617E-01  0.88799209929E+00  0.88000000000E+00 0. -1.
        -11    1    4    4    0    0 -0.78225283881E-01 -0.53264304817E-01 -0.45316712053E-01  0.10492924625E+00  0.51100000000E-03 0. -1.
         11    1    4    4    0    0 -0.16735705608E-01 -0.20250491558E-01 -0.52612265696E-02  0.26797534897E-01  0.51100000000E-03 0.  1.
</event>
<event>
 8    1  0.1116841E+005  0.1043930E+01  0.7957747E-01            NaN
         13   -1    0    0    0    0  0.00000000000E+00  0.00000000000E+00  0.74505805969E-08  0.10566000000E+00  0.10566000000E+00 0. -1.
     999900   -1    0    0    0    0 -0.00000000000E+00 -0.00000000000E+00 -0.74505805969E-08  0.93827000000E+00  0.93827000000E+00 0.  1.
     999902    2    1    2    0    0 -0.12094840859E-01 -0.10542131448E-01 -0.17222180828E-01  0.10203922596E+01  0.10201207469E+01 0.  0.
     999903    2    3    3    0    0  0.63374431803E-01  0.48330695932E-01 -0.10151920853E+00  0.13119733732E+00  0.23546057919E-01 0.  0.
         14    1    1    2    0    0  0.12094840859E-01  0.10542131448E-01  0.17222180828E-01  0.23537740404E-01  0.00000000000E+00 0. -1.
     999901    1    3    3    0    0 -0.75469272661E-01 -0.58872827380E-01  0.84297027704E-01  0.88919492227E+00  0.88000000000E+00 0. -1.
        -11    1    4    4    0    0  0.96520612577E-02  0.17814901969E-01 -0.16711260511E-01  0.26269000125E-01  0.51100000000E-03 0. -1.
         11    1    4    4    0    0  0.53722370545E-01  0.30515793962E-01 -0.84807948021E-01  0.10492833720E+00  0.51100000000E-03 0.  1.
</event>
<event>
 8    1  0.1116841E+005  0.1043930E+01  0.7957747E-01            NaN
         13   -1    0    0    0    0  0.00000000000E+00  0.00000000000E+00  0.74505805969E-08  0.10566000000E+00  0.10566000000E+00 0. -1.
     999900   -1    0    0    0    0 -0.00000000000E+00 -0.00000000000E+00 -0.74505805969E-08  0.93827000000E+00  0.93827000000E+00 0. -1.
     999902    2    1    2    0    0  0.18432436845E-01  0.80238515725E-02 -0.12391919344E-01  0.10203143995E+01  0.10200410664E+01 0.  0.
     999903    2    3    3    0    0  0.78960152557E-01 -0.10269765438E+00  0.68772288412E-02  0.13110455007E+00  0.18962933999E-01 0.  0.
         14    1    1    2    0    0 -0.18432436845E-01 -0.80238515725E-02  0.12391919344E-01  0.23615600504E-01  0.00000000000E+00 0. -1.
     999901    1    3    3    0    0 -0.60527715711E-01  0.11072150595E+00 -0.19269148186E-01  0.88920984943E+00  0.88000000000E+00 0. -1.
        -11    1    4    4    0    0  0.50170288804E-01 -0.52599312574E-01  0.92186080477E-02  0.73273388193E-01  0.51100000000E-03 0.  1.
         11    1    4    4    0    0  0.28789863753E-01 -0.50098341803E-01 -0.23413792065E-02  0.57831161875E-01  0.51100000000E-03 0. -1.
</event>
<event>
 8    1  0.1116841E+005  0.1043930E+01  0.7957747E-01            NaN
         13   -1    0    0    0    0  0.00000000000E+00  0.00000000000E+00  0.74505805969E-08  0.10566000000E+00  0.10566000000E+00 0.  1.
     999900   -1    0    0    0    0 -0.00000000000E+00 -0.00000000000E+00 -0.74505805969E-08  0.93827000000E+00  0.93827000000E+00 0.  1.
     999902    2    1    2    0    0  0.33188522237E-02  0.13472400873E-01 -0.19577817131E-01  0.10199339318E+01  0.10196516140E+01 0.  0.
     999903    2    3    3    0    0  0.11356083788E+00  0.34406979338E-01  0.49710784556E-01  0.13010672256E+00  0.19408581310E-01 0.  0.
         14    1    1    2    0    0 -0.33188522237E-02 -0.13472400873E-01  0.19577817131E-01  0.23996068199E-01  0.00000000000E+00 0.  1.
     999901    1    3    3    0    0 -0.11024198565E+00 -0.20934578465E-01 -0.69288601688E-01  0.88982720924E+00  0.88000000000E+00 0.  1.
        -11    1    4    4    0    0  0.81585451023E-01  0.26308634211E-01  0.44893700249E-01  0.96767946634E-01  0.51100000000E-03 0. -1.
         11    1    4    4    0    0  0.31975386854E-01  0.80983451270E-02  0.48170843078E-02  0.33338775930E-01  0.51100000000E-03 0.  1.
</event>
<event>
 7    1  0.1116841E+005  0.1043930E+01  0.7957747E-01            NaN
         13   -1    0    0    0    0  0.00000000000E+00  0.00000000000E+00  0.74505805969E-08  0.10566000000E+00  0.10566000000E+00 0.  1.
     999900   -1    0    0    0    0 -0.00000000000E+00 -0.00000000000E+00 -0.74505805969E-08  0.93827000000E+00  0.93827000000E+00 0. -1.
     999903    2    1    2    0    0  0.54486043153E-01 -0.18502495895E-01  0.81457545356E-01  0.10171674035E+00  0.19997307825E-01 0.  0.
         14    1    1    2    0    0 -0.18726867632E-01  0.17106574873E-01 -0.55593521865E-01  0.61106220211E-01  0.00000000000E+00 0. -1.
     999901    1    1    2    0    0 -0.35759175521E-01  0.13959210222E-02 -0.25864023491E-01  0.88110703943E+00  0.88000000000E+00 0. -1.
        -11    1    3    3    0    0  0.36290069469E-01 -0.38031779377E-02  0.40249193716E-01  0.54329476532E-01  0.51100000000E-03 0. -1.
         11    1    3    3    0    0  0.18195973684E-01 -0.14699317957E-01  0.41208351640E-01  0.47387263823E-01  0.51100000000E-03 0.  1.
</event>
<event>
 8    1  0.1116841E+005  0.1043930E+01  0.7957747E-01            NaN
         13   -1    0    0    0    0  0.00000000000E+00  0.00000000000E+00  0.74505805969E-08  0.10566000000E+00  0.10566000000E+00 0. -1.
     999900   -1    0    0    0    0 -0.00000000000E+00 -0.00000000000E+00 -0.74505805969E-08  0.93827000000E+00  0.93827000000E+00 0.  1.
     999902    2    1    2    0    0  0.16107883781E-01 -0.10600378837E-01  0.13898210174E-01  0.10201604355E+01  0.10198834845E+01 0.  0.
     999903    2    3    3    0    0  0.45496098573E-01 -0.65891836979E-01  0.10376602046E+00  0.13337013567E+00  0.24669351848E-01 0.  0.
         14    1    1    2    0    0 -0.16107883781E-01  0.10600378837E-01 -0.13898210174E-01  0.23769564519E-01  0.00000000000E+00 0. -1.
     999901    1    3    3    0    0 -0.29388214792E-01  0.55291458142E-01 -0.89867810287E-01  0.88679029981E+00  0.88000000000E+00 0.  1.
        -11    1    4    4    0    0  0.41719431334E-01 -0.60652882595E-01  0.79916223206E-01  0.10865609495E+00  0.51100000000E-03 0. -1.
         11    1    4    4    0    0  0.37766672389E-02 -0.52389543836E-02  0.23849797255E-01  0.24714040717E-01  0.51100000000E-03 0.  1.
</event>
<event>
 8    1  0.1116841E+005  0.1043930E+01  0.7957747E-01            NaN
         13   -1    0    0    0    0  0.00000000000E+00  0.00000000000E+00  0.74505805969E-08  0.10566000000E+00  0.10566000000E+00 0.  1.
     999900   -1    0    0    0    0 -0.00000000000E+00 -0.00000000000E+00 -0.74505805969E-08  0.93827000000E+00  0.93827000000E+00 0.  1.
     999902    2    1    2    0    0  0.40450714104E-02  0.33857770270E-02 -0.23104119203E-01  0.10202313415E+01  0.10199560598E+01 0.  0.
     999903    2    3    3    0    0  0.92846953935E-01  0.70347717419E-01 -0.59661518494E-01  0.13247793025E+00  0.20531610126E-01 0.  0.
         14    1    1    2    0    0 -0.40450714104E-02 -0.33857770270E-02  0.23104119203E-01  0.23698658463E-01  0.00000000000E+00 0.  1.
     999901    1    3    3    0    0 -0.88801882525E-01 -0.66961940392E-01  0.36557399291E-01  0.88775341128E+00  0.88000000000E+00 0. -1.
        -11    1    4    4    0    0  0.13631836012E-01  0.20246071220E-01 -0.14974325463E-01  0.28639516354E-01  0.51100000000E-03 0.  1.
         11    1    4    4    0    0  0.79215117923E-01  0.50101646199E-01 -0.44687193032E-01  0.10383841390E+00  0.51100000000E-03 0. -1.
</event>
<event>
 8    1  0.1116841E+005  0.1043930E+01  0.7957747E-01            NaN
         13   -1    0    0    0    0  0.00000000000E+00  0.00000000000E+00  0.74505805969E-08  0.10566000000E+00  0.10566000000E+00 0.  1.
     999900   -1    0    0    0    0 -0.00000000000E+00 -0.00000000000E+00 -0.74505805969E-08  0.93827000000E+00  0.93827000000E+00 0. -1.
     999902    2    1    2    0    0  0.59043163855E-02 -0.23188423349E-01  0.24785261845E-01  0.10094789748E+01  0.10088909394E+01 0.  0.
     999903    2    3    3    0    0 -0.97783670103E-01  0.56318508882E-01  0.35877121499E-01  0.11976240191E+00  0.17956739174E-01 0.  0.
         14    1    1    2    0    0 -0.59043163855E-02  0.23188423349E-01 -0.24785261845E-01  0.34451025153E-01  0.00000000000E+00 0. -1.
     999901    1    3    3    0    0  0.10368798649E+00 -0.79506932231E-01 -0.11091859654E-01  0.88971657294E+00  0.88000000000E+00 0. -1.
        -11    1    4    4    0    0 -0.76220356978E-01  0.37332811947E-01  0.21130746240E-01  0.87464571246E-01  0.51100000000E-03 0. -1.
         11    1    4    4    0    0 -0.21563313126E-01  0.18985696935E-01  0.14746375258E-01  0.32297830660E-01  0.51100000000E-03 0.  1.
</event>
<event>
 8    1  0.1116841E+005  0.1043930E+01  0.7957747E-01            NaN
         13   -1    0    0    0    0  0.00000000000E+00  0.00000000000E+00  0.74505805969E-08  0.10566000000E+00  0.10566000000E+00 0.  1.
     999900   -1    0    0    0    0 -0.00000000000E+00 -0.00000000000E+00 -0.74505805969E-08  0.93827000000E+00  0.93827000000E+00 0.  1.
     999902    2    1    2    0    0 -0.20929750685E-01  0.96049861419E-02 -0.41107135499E-02  0.10205375185E+01  0.10202693853E+01 0.  0.
     999903    2    3    3    0    0 -0.10255010335E+00 -0.80945915781E-01 -0.15416904663E-02  0.13212998386E+00  0.19677165627E-01 0.  0.
         14    1    1    2    0    0  0.20929750685E-01 -0.96049861419E-02  0.41107135499E-02  0.23392481450E-01  0.00000000000E+00 0.  1.
     999901    1    3    3    0    0  0.81620352667E-01  0.90550901923E-01 -0.25690230836E-02  0.88840753469E+00  0.88000000000E+00 0. -1.
        -11    1    4    4    0    0 -0.49529890495E-01 -0.29151298198E-01  0.51616107948E-02  0.57705386110E-01  0.51100000000E-03 0.  1.
         11    1    4    4    0    0 -0.53020212856E-01 -0.51794617584E-01 -0.67033012611E-02  0.74424597753E-01  0.51100000000E-03 0. -1.
</event>
<event>
 8    1  0.1116841E+005  0.1043930E+01  0.7957747E-01            NaN
         13   -1    0    0    0    0  0.00000000000E+00  0.00000000000E+00  0.74505805969E-08  0.10566000000E+00  0.10566000000E+00 0.  1.
     999900   -1    0    0    0    0 -0.00000000000E+00 -0.00000000000E+00 -0.74505805969E-08  0.93827000000E+00  0.93827000000E+00 0. -1.
     999902    2    1    2    0    0 -0.53392836590E-02  0.19075944409E-01 -0.14988544904E-01  0.10190893864E+01  0.10187865927E+01 0.  0.
     999903    2    3    3    0    0  0.11331236164E+00  0.47988491191E-01 -0.38387190628E-01  0.13034777891E+00  0.19348914054E-01 0.  0.
         14    1    1    2    0    0  0.53392836590E-02 -0.19075944409E-01  0.14988544904E-01  0.24840613588E-01  0.00000000000E+00 0.  1.
     999901    1    3    3    0    0 -0.11865164529E+00 -0.28912546782E-01  0.23398645724E-01  0.88874160751E+00  0.88000000000E+00 0.  1.
        -11    1    4    4    0    0  0.90336545530E-01  0.36050995550E-01 -0.22067822295E-01  0.99737734285E-01  0.51100000000E-03 0.  1.
         11    1    4    4    0    0  0.22975816106E-01  0.11937495641E-01 -0.16319368333E-01  0.30610044621E-01  0.51100000000E-03 0. -1.
</event>
<event>
 8    1  0.1116841E+005  0.1043930E+01  0.7957747E-01            NaN
         13   -1    0    0    0    0  0.00000000000E+00  0.00000000000E+00  0.74505805969E-08  0.10566000000E+00  0.10566000000E+00 0. -1.
     999900   -1    0    0    0    0 -0.00000000000E+00 -0.00000000000E+00 -0.74505805969E-08  0.93827000000E+00  0.93827000000E+00 0. -1.
     999902    2    1    2    0    0  0.13701315463E-01 -0.13206370651E-01 -0.13953988203E-01  0.10203323718E+01  0.10200594595E+01 0.  0.
     999903    2    3    3    0    0  0.56359679187E-01  0.10036508439E+00 -0.59307896571E-01  0.13085208059E+00  0.18848787702E-01 0.  0.
         14    1    1    2    0    0 -0.13701315463E-01  0.13206370651E-01  0.13953988203E-01  0.23597628227E-01  0.00000000000E+00 0. -1.
     999901    1    3    3    0    0 -0.42658363724E-01 -0.11357145504E+00  0.45353908368E-01  0.88948029118E+00  0.88000000000E+00 0.  1.
        -11    1    4    4    0    0  0.47331755031E-02  0.22977787702E-01 -0.14610663153E-01  0.27642617039E-01  0.51100000000E-03 0. -1.
         11    1    4    4    0    0  0.51626503684E-01  0.77387296683E-01 -0.44697233418E-01  0.10320946355E+00  0.51100000000E-03 0.  1.
</event>
<event>
 8    1  0.1116841E+005  0.1043930E+01  0.7957747E-01            NaN
         13   -1    0    0    0    0  0.00000000000E+00  0.00000000000E+00  0.74505805969E-08  0.10566000000E+00  0.10566000000E+00 0.  1.
     999900   -1    0    0    0    0 -0.00000000000E+00 -0.00000000000E+00 -0.74505805969E-08  0.93827000000E+00  0.93827000000E+00 0. -1.
     999902    2    1    2    0    0  0.39401262428E-02  0.28630687388E-02 -0.23558696522E-01  0.10198731104E+01  0.10195893425E+01 0.  0.
     999903    2    3    3    0    0 -0.42216176025E-01  0.41927677497E-01 -0.11712952839E+00  0.13284890073E+00  0.19732418607E-01 0.  0.
         14    1    1    2    0    0 -0.39401262428E-02 -0.28630687388E-02  0.23558696522E-01  0.24056889642E-01  0.00000000000E+00 0.  1.
     999901    1    3    3    0    0  0.46156302267E-01 -0.39064608759E-01  0.93570831870E-01  0.88702420963E+00  0.88000000000E+00 0.  1.
        -11    1    4    4    0    0 -0.13501012157E-01  0.26257203630E-01 -0.63451415540E-01  0.69986150964E-01  0.51100000000E-03 0.  1.
         11    1    4    4    0    0 -0.28715163867E-01  0.15670473867E-01 -0.53678112853E-01  0.62862749762E-01  0.51100000000E-03 0. -1.
</event>
<event>
 8    1  0.1116841E+005  0.1043930E+01  0.7957747E-01            NaN
         13   -1    0    0    0    0  0.00000000000E+00  0.00000000000E+00  0.74505805969E-08  0.10566000000E+00  0.10566000000E+00 0.  1.
     999900   -1    0    0    0    0 -0.00000000000E+00 -0.00000000000E+00 -0.74505805969E-08  0.93827000000E+00  0.93827000000E+00 0. -1.
     999902    2    1    2    0    0 -0.14892335804E-01  0.20879870352E-01  0.16798569091E-02  0.10182283936E+01  0.10179039685E+01 0.  0.
     999903    2    3    3    0    0 -0.37203255389E-01 -0.11699722136E+00 -0.24806540772E-01  0.12681973379E+00  0.19885884297E-01 0.  0.
         14    1    1    2    0    0  0.14892335804E-01 -0.20879870352E-01 -0.16798569091E-02  0.25701606386E-01  0.00000000000E+00 0. -1.
     999901    1    3    3    0    0  0.22310919586E-01  0.13787709172E+00  0.26486397681E-01  0.89140865983E+00  0.88000000000E+00 0.  1.
        -11    1    4    4    0    0 -0.22540490461E-01 -0.62091317615E-01 -0.35875597230E-02  0.66155401436E-01  0.51100000000E-03 0. -1.
         11    1    4    4    0    0 -0.14662764928E-01 -0.54905903749E-01 -0.21218981049E-01  0.60664332350E-01  0.51100000000E-03 0.  1.
</event>
<event>
 8    1  0.1116841E+005  0.1043930E+01  0.7957747E-01            NaN
         13   -1    0    0    0    0  0.00000000000E+00  0.00000000000E+00  0.74505805969E-08  0.10566000000E+00  0.10566000000E+00 0. -1.
     999900   -1    0    0    0    0 -0.00000000000E+00 -0.00000000000E+00 -0.74505805969E-08  0.93827000000E+00  0.93827000000E+00 0.  1.
     999902    2    1    2    0    0 -0.83983354449E-02  0.14555222562E-01 -0.15519355248E-01  0.10210556272E+01  0.10207993716E+01 0.  0.
     999903    2    3    3    0    0  0.87313829991E-01  0.95388146804E-01  0.14770009367E-01  0.13166694625E+00  0.19885374021E-01 0.  0.
         14    1    1    2    0    0  0.83983354449E-02 -0.14555222562E-01  0.15519355248E-01  0.22874372765E-01  0.00000000000E+00 0. -1.
     999901    1    3    3    0    0 -0.95712165436E-01 -0.80832924242E-01 -0.30289364615E-01  0.88938868098E+00  0.88000000000E+00 0.  1.
        -11    1    4    4    0    0  0.11815884440E-01  0.77118521936E-02  0.68486830546E-02  0.15692462202E-01  0.51100000000E-03 0. -1.
         11    1    4    4    0    0  0.75497945550E-01  0.87676294610E-01  0.79213263122E-02  0.11597448405E+00  0.51100000000E-03 0.  1.
</event>
<event>
 8    1  0.1358801E+005  0.1043930E+01  0.7957747E-01            NaN
         13   -1    0    0    0    0  0.00000000000E+00  0.00000000000E+00  0.74505805969E-08  0.10566000000E+00  0.10566000000E+00 0. -1.
     999900   -1    0    0    0    0 -0.00000000000E+00 -0.00000000000E+00 -0.74505805969E-08  0.93827000000E+00  0.93827000000E+00 0. -1.
     999902    2    1    2    0    0  0.10314756788E-01  0.22825096982E-01 -0.25188679427E-01  0.10084074884E+01  0.10077816300E+01 0.  0.
     999903    2    3    3    0    0 -0.53746071832E-01  0.78281777405E-01  0.69450820062E-01  0.11928664844E+00  0.19728435773E-01 0.  0.
         14    1    1    2    0    0 -0.10314756788E-01 -0.22825096982E-01  0.25188679427E-01  0.35522511610E-01  0.00000000000E+00 0. -1.
     999901    1    3    3    0    0  0.64060828620E-01 -0.55456680423E-01 -0.94639499489E-01  0.88912083995E+00  0.88000000000E+00 0. -1.
        -11    1    4    4    0    0 -0.11562577375E-01  0.33496479171E-01  0.24266339379E-01  0.42951410457E-01  0.51100000000E-03 0. -1.
         11    1    4    4    0    0 -0.42183494457E-01  0.44785298234E-01  0.45184480683E-01  0.76335237984E-01  0.51100000000E-03 0.  1.
</event>
<event>
 8    1  0.1116841E+005  0.1043930E+01  0.7957747E-01            NaN
         13   -1    0    0    0    0  0.00000000000E+00  0.00000000000E+00  0.74505805969E-08  0.10566000000E+00  0.10566000000E+00 0. -1.
     999900   -1    0    0    0    0 -0.00000000000E+00 -0.00000000000E+00 -0.74505805969E-08  0.93827000000E+00  0.93827000000E+00 0.  1.
     999902    2    1    2    0    0 -0.22490515068E-01 -0.70611117480E-02 -0.68051478406E-02  0.10193944624E+01  0.10190991499E+01 0.  0.
     999903    2    3    3    0    0 -0.67752545226E-02 -0.10785293616E+00 -0.67710573045E-01  0.13141054810E+00  0.31715146794E-01 0.  0.
         14    1    1    2    0    0  0.22490515068E-01  0.70611117480E-02  0.68051478406E-02  0.24535537579E-01  0.00000000000E+00 0.  1.
     999901    1    3    3    0    0 -0.15715260545E-01  0.10079182441E+00  0.60905425205E-01  0.88798391433E+00  0.88000000000E+00 0. -1.
        -11    1    4    4    0    0  0.10965777866E-01 -0.36935282761E-01 -0.31811417846E-01  0.49966897274E-01  0.51100000000E-03 0. -1.
         11    1    4    4    0    0 -0.17741032389E-01 -0.70917653400E-01 -0.35899155199E-01  0.81443650821E-01  0.51100000000E-03 0.  1.
</event>
<event>
 8    1  0.1116841E+005  0.1043930E+01  0.7957747E-01            NaN
         13   -1    0    0    0    0  0.00000000000E+00  0.00000000000E+00  0.74505805969E-08  0.10566000000E+00  0.10566000000E+00 0.  1.
     999900   -1    0    0    0    0 -0.00000000000E+00 -0.00000000000E+00 -0.74505805969E-08  0.93827000000E+00  0.93827000000E+00 0. -1.
     999902    2    1    2    0    0  0.12836508732E-01  0.28218221800E-02 -0.18924599134E-01  0.10208891864E+01  0.10206291451E+01 0.  0.
     999903    2    3    3    0    0  0.11320367686E+00 -0.65225148767E-01 -0.96445197372E-02  0.13252547795E+00  0.20014820975E-01 0.  0.
         14    1    1    2    0    0 -0.12836508732E-01 -0.28218221800E-02  0.18924599134E-01  0.23040813553E-01  0.00000000000E+00 0.  1.
     999901    1    3    3    0    0 -0.10036716813E+00  0.68046970947E-01 -0.92800793964E-02  0.88836370849E+00  0.88000000000E+00 0.  1.
        -11    1    4    4    0    0  0.51813212699E-01 -0.34989067706E-01 -0.13570174716E-01  0.63978548217E-01  0.51100000000E-03 0.  1.
         11    1    4    4    0    0  0.61390464165E-01 -0.30236081061E-01  0.39256549785E-02  0.68546929737E-01  0.51100000000E-03 0. -1.
</event>
<event>
 8    1  0.1116841E+005  0.1043930E+01  0.7957747E-01            NaN
         13   -1    0    0    0    0  0.00000000000E+00  0.00000000000E+00  0.74505805969E-08  0.10566000000E+00  0.10566000000E+00 0. -1.
     999900   -1    0    0    0    0 -0.00000000000E+00 -0.00000000000E+00 -0.74505805969E-08  0.93827000000E+00  0.93827000000E+00 0.  1.
     999902    2    1    2    0    0  0.30439057851E-02  0.12977203474E-02 -0.22292694722E-01  0.10213930597E+01  0.10211443917E+01 0.  0.
     999903    2    3    3    0    0  0.11296603766E+00  0.53759855397E-01 -0.39960538999E-01  0.13282831618E+00  0.19876347361E-01 0.  0.
         14    1    1    2    0    0 -0.30439057851E-02 -0.12977203474E-02  0.22292694722E-01  0.22536940309E-01  0.00000000000E+00 0. -1.
     999901    1    3    3    0    0 -0.10992213188E+00 -0.52462135049E-01  0.17667844277E-01  0.88856474351E+00  0.88000000000E+00 0.  1.
        -11    1    4    4    0    0  0.48132074702E-01  0.13859793411E-01 -0.21390548557E-01  0.54466569353E-01  0.51100000000E-03 0. -1.
         11    1    4    4    0    0  0.64833962962E-01  0.39900061985E-01 -0.18569990442E-01  0.78361746827E-01  0.51100000000E-03 0.  1.
</event>
<event>
 8    1  0.1116841E+005  0.1043930E+01  0.7957747E-01            NaN
         13   -1    0    0    0    0  0.00000000000E+00  0.00000000000E+00  0.74505805969E-08  0.10566000000E+00  0.10566000000E+00 0. -1.
     999900   -1    0    0    0    0 -0.00000000000E+00 -0.00000000000E+00 -0.74505805969E-08  0.93827000000E+00  0.93827000000E+00 0. -1.
     999902    2    1    2    0    0 -0.23529221216E-03 -0.22043035212E-01 -0.40979424811E-02  0.10215080488E+01  0.10212619399E+01 0.  0.
     999903    2    3    3    0    0  0.35848734307E-01 -0.16919353851E-01 -0.12504187011E+00  0.13248850867E+00  0.18610195134E-01 0.  0.
         14    1    1    2    0    0  0.23529221216E-03  0.22043035212E-01  0.40979424811E-02  0.22421951216E-01  0.00000000000E+00 0.  1.
     999901    1    3    3    0    0 -0.36084026519E-01 -0.51236813606E-02  0.12094392762E+00  0.88901954012E+00  0.88000000000E+00 0.  1.
        -11    1    4    4    0    0  0.22758296267E-01 -0.28878660244E-02 -0.49731813575E-01  0.54770377227E-01  0.51100000000E-03 0.  1.
         11    1    4    4    0    0  0.13090438040E-01 -0.14031487827E-01 -0.75310056531E-01  0.77718131440E-01  0.51100000000E-03 0. -1.
</event>
<event>
 7    1  0.1116841E+005  0.1043930E+01  0.7957747E-01            NaN
         13   -1    0    0    0    0  0.00000000000E+00  0.00000000000E+00  0.74505805969E-08  0.10566000000E+00  0.10566000000E+00 0. -1.
     999900   -1    0    0    0    0 -0.00000000000E+00 -0.00000000000E+00 -0.74505805969E-08  0.93827000000E+00  0.93827000000E+00 0. -1.
     999903    2    1    2    0    0 -0.50334541500E-01 -0.81089411719E-01  0.26785174892E-02  0.97709467024E-01  0.20758293023E-01 0.  0.
         14    1    1    2    0    0 -0.21935917737E-01  0.50810549659E-02  0.53670859762E-01  0.58202773080E-01  0.00000000000E+00 0. -1.
     999901    1    1    2    0    0  0.72270459237E-01  0.76008356753E-01 -0.56349377252E-01  0.88801775990E+00  0.88000000000E+00 0. -1.
        -11    1    3    3    0    0 -0.18579364804E-01 -0.32956480441E-01  0.11100846716E-01  0.39431108511E-01  0.51100000000E-03 0.  1.
         11    1    3    3    0    0 -0.31755176696E-01 -0.48132931278E-01 -0.84223292265E-02  0.58278358513E-01  0.51100000000E-03 0. -1.
</event>
<event>
 8    1  0.1116841E+005  0.1043930E+01  0.7957747E-01            NaN
         13   -1    0    0    0    0  0.00000000000E+00  0.00000000000E+00  0.74505805969E-08  0.10566000000E+00  0.10566000000E+00 0.  1.
     999900   -1    0    0    0    0 -0.00000000000E+00 -0.00000000000E+00 -0.74505805969E-08  0.93827000000E+00  0.93827000000E+00 0. -1.
     999902    2    1    2    0    0 -0.14917426122E-01 -0.83614362999E-02  0.16014368905E-01  0.10205013161E+01  0.10202323426E+01 0.  0.
     999903    2    3    3    0    0  0.36884939362E-01 -0.81908500448E-02 -0.12087574886E+00  0.12841252088E+00  0.21242412276E-01 0.  0.
         14    1    1    2    0    0  0.14917426122E-01  0.83614362999E-02 -0.16014368905E-01  0.23428683926E-01  0.00000000000E+00 0.  1.
     999901    1    3    3    0    0 -0.51802365485E-01 -0.17058625514E-03  0.13689011777E+00  0.89208879519E+00  0.88000000000E+00 0.  1.
        -11    1    4    4    0    0  0.20159539337E-01  0.46745651512E-02 -0.76838797774E-01  0.79578392482E-01  0.51100000000E-03 0. -1.
         11    1    4    4    0    0  0.16725400025E-01 -0.12865415196E-01 -0.44036951088E-01  0.48834128397E-01  0.51100000000E-03 0.  1.
</event>
<event>
 8    1  0.1116841E+005  0.1043930E+01  0.7957747E-01            NaN
         13   -1    0    0    0    0  0.00000000000E+00  0.00000000000E+00  0.74505805969E-08  0.10566000000E+00  0.10566000000E+00 0.  1.
     999900   -1    0    0    0    0 -0.00000000000E+00 -0.00000000000E+00 -0.74505805969E-08  0.93827000000E+00  0.93827000000E+00 0. -1.
     999902    2    1    2    0    0 -0.21187332805E-01 -0.71676696093E-02 -0.58295855439E-02  0.10208158782E+01  0.10205541605E+01 0.  0.
     999903    2    3    3    0    0  0.80391242069E-01  0.78224563813E-01 -0.60921657681E-01  0.12916281965E+00  0.19742123004E-01 0.  0.
         14    1    1    2    0    0  0.21187332805E-01  0.71676696093E-02  0.58295855439E-02  0.23114121801E-01  0.00000000000E+00 0.  1.
     999901    1    3    3    0    0 -0.10157857487E+00 -0.85392233423E-01  0.55092072137E-01  0.89165305855E+00  0.88000000000E+00 0. -1.
        -11    1    4    4    0    0  0.52746465178E-01  0.44603705501E-01 -0.27794583099E-01  0.74461265795E-01  0.51100000000E-03 0.  1.
         11    1    4    4    0    0  0.27644776892E-01  0.33620858313E-01 -0.33127074582E-01  0.54701553857E-01  0.51100000000E-03 0. -1.
</event>
<event>
 8    1  0.1116841E+005  0.1043930E+01  0.7957747E-01            NaN
         13   -1    0    0    0    0  0.00000000000E+00  0.00000000000E+00  0.74505805969E-08  0.10566000000E+00  0.10566000000E+00 0.  1.
     999900   -1    0    0    0    0 -0.00000000000E+00 -0.00000000000E+00 -0.74505805969E-08  0.93827000000E+00  0.93827000000E+00 0.  1.
     999902    2    1    2    0    0  0.26301470538E-02  0.21017397355E-03 -0.24802321075E-01  0.10189877271E+01  0.10186824191E+01 0.  0.
     999903    2    3    3    0    0 -0.92750587937E-01  0.86255472656E-01 -0.19380753835E-01  0.12964489589E+00  0.19735938938E-01 0.  0.
         14    1    1    2    0    0 -0.26301470538E-02 -0.21017397355E-03  0.24802321075E-01  0.24942272898E-01  0.00000000000E+00 0.  1.
     999901    1    3    3    0    0  0.95380734991E-01 -0.86045298682E-01 -0.54215672400E-02  0.88934283121E+00  0.88000000000E+00 0.  1.
        -11    1    4    4    0    0 -0.65744429539E-01  0.62664246506E-01 -0.22726592267E-01  0.93626368736E-01  0.51100000000E-03 0. -1.
         11    1    4    4    0    0 -0.27006158398E-01  0.23591226150E-01  0.33458384316E-02  0.36018527156E-01  0.51100000000E-03 0.  1.
</event>
<event>
 8    1  0.1116841E+005  0.1043930E+01  0.7957747E-01            NaN
         13   -1    0    0    0    0  0.00000000000E+00  0.00000000000E+00  0.74505805969E-08  0.10566000000E+00  0.10566000000E+00 0.  1.
     999900   -1    0    0    0    0 -0.00000000000E+00 -0.00000000000E+00 -0.74505805969E-08  0.93827000000E+00  0.93827000000E+00 0.  1.
     999902    2    1    2    0    0  0.23004847382E-01 -0.60280575086E-03  0.92283655177E-02  0.10191358655E+01  0.10188342177E+01 0.  0.
     999903    2    3    3    0    0 -0.53999239863E-01 -0.11187719755E+00 -0.25657246276E-01  0.12810913991E+00  0.17922951910E-01 0.  0.
         14    1    1    2    0    0 -0.23004847382E-01  0.60280575086E-03 -0.92283655177E-02  0.24794134548E-01  0.00000000000E+00 0. -1.
     999901    1    3    3    0    0  0.77004087245E-01  0.11127439180E+00  0.34885611793E-01  0.89102672554E+00  0.88000000000E+00 0.  1.
        -11    1    4    4    0    0 -0.11636498980E-01 -0.40066284145E-01 -0.36941863277E-02  0.41888224686E-01  0.51100000000E-03 0.  1.
         11    1    4    4    0    0 -0.42362740883E-01 -0.71810913401E-01 -0.21963059948E-01  0.86220915223E-01  0.51100000000E-03 0. -1.
</event>
<event>
 8    1  0.1116841E+005  0.1043930E+01  0.7957747E-01            NaN
         13   -1    0    0    0    0  0.00000000000E+00  0.00000000000E+00  0.74505805969E-08  0.10566000000E+00  0.10566000000E+00 0.  1.
     999900   -1    0    0    0    0 -0.00000000000E+00 -0.00000000000E+00 -0.74505805969E-08  0.93827000000E+00  0.93827000000E+00 0. -1.
     999902    2    1    2    0    0 -0.23896186471E-02  0.23459465571E-01  0.61011668241E-02  0.10195726389E+01  0.10192816515E+01 0.  0.
     999903    2    3    3    0    0  0.74151426035E-01  0.83934740589E-01 -0.65578717046E-01  0.13128563791E+00  0.19795856430E-01 0.  0.
         14    1    1    2    0    0  0.23896186471E-02 -0.23459465571E-01 -0.61011668241E-02  0.24357361080E-01  0.00000000000E+00 0. -1.
     999901    1    3    3    0    0 -0.76541044682E-01 -0.60475275018E-01  0.71679883870E-01  0.88828700101E+00  0.88000000000E+00 0.  1.
        -11    1    4    4    0    0  0.74255830907E-01  0.79119393225E-01 -0.60364821750E-01  0.12416915734E+00  0.51100000000E-03 0.  1.
         11    1    4    4    0    0 -0.10440487187E-03  0.48153473634E-02 -0.52138952956E-02  0.71164805741E-02  0.51100000000E-03 0. -1.
</event>
<event>
 8    1  0.1116841E+005  0.1043930E+01  0.7957747E-01            NaN
         13   -1    0    0    0    0  0.00000000000E+00  0.00000000000E+00  0.74505805969E-08  0.10566000000E+00  0.10566000000E+00 0. -1.
     999900   -1    0    0    0    0 -0.00000000000E+00 -0.00000000000E+00 -0.74505805969E-08  0.93827000000E+00  0.93827000000E+00 0.  1.
     999902    2    1    2    0    0  0.13929955121E-01  0.13328066432E-01 -0.22972087984E-01  0.10139400378E+01  0.10134964245E+01 0.  0.
     999903    2    3    3    0    0  0.29717937534E-01  0.54634715182E-02  0.11715896419E+00  0.12267810999E+00  0.20265498932E-01 0.  0.
         14    1    1    2    0    0 -0.13929955121E-01 -0.13328066432E-01  0.22972087984E-01  0.29989962168E-01  0.00000000000E+00 0.  1.
     999901    1    3    3    0    0 -0.15787982412E-01  0.78645949135E-02 -0.14013105218E+00  0.89126192785E+00  0.88000000000E+00 0.  1.
        -11    1    4    4    0    0  0.25725557122E-01 -0.26255817024E-02  0.69201524297E-01  0.73876992728E-01  0.51100000000E-03 0.  1.
         11    1    4    4    0    0  0.39923804117E-02  0.80890532207E-02  0.47957439895E-01  0.48801117259E-01  0.51100000000E-03 0. -1.
</event>
<event>
 8    1  0.1116841E+005  0.1043930E+01  0.7957747E-01            NaN
         13   -1    0    0    0    0  0.00000000000E+00  0.00000000000E+00  0.74505805969E-08  0.10566000000E+00  0.10566000000E+00 0.  1.
     999900   -1    0    0    0    0 -0.00000000000E+00 -0.00000000000E+00 -0.74505805969E-08  0.93827000000E+00  0.93827000000E+00 0.  1.
     999902    2    1    2    0    0 -0.16829219368E-01  0.15156804089E-01  0.37718191503E-02  0.10209696439E+01  0.10207114361E+01 0.  0.
     999903    2    3    3    0    0  0.11112676806E+00  0.10315282389E-01 -0.62307456616E-01  0.12925071631E+00  0.19182410848E-01 0.  0.
         14    1    1    2    0    0  0.16829219368E-01 -0.15156804089E-01 -0.37718191503E-02  0.22960356148E-01  0.00000000000E+00 0. -1.
     999901    1    3    3    0    0 -0.12795598743E+00  0.48415217003E-02  0.66079275766E-01  0.89171892754E+00  0.88000000000E+00 0. -1.
        -11    1    4    4    0    0  0.40002600785E-01  0.12934650236E-01 -0.21913585847E-01  0.47412863359E-01  0.51100000000E-03 0.  1.
         11    1    4    4    0    0  0.71124167278E-01 -0.26193678469E-02 -0.40393870769E-01  0.81837852950E-01  0.51100000000E-03 0. -1.
</event>
<event>
 8    1  0.1116841E+005  0.1043930E+01  0.7957747E-01            NaN
         13   -1    0    0    0    0  0.00000000000E+00  0.00000000000E+00  0.74505805969E-08  0.10566000000E+00  0.10566000000E+00 0.  1.
     999900   -1    0    0    0    0 -0.00000000000E+00 -0.00000000000E+00 -0.74505805969E-08  0.93827000000E+00  0.93827000000E+00 0.  1.
     999902    2    1    2    0    0  0.11455639628E-01  0.69911499046E-02  0.21895250373E-01  0.10182490762E+01  0.10179251797E+01 0.  0.
     999903    2    3    3    0    0  0.48154261752E-01 -0.47019437181E-01 -0.10531194541E+00  0.12670793695E+00  0.20847902612E-01 0.  0.
         14    1    1    2    0    0 -0.11455639628E-01 -0.69911499046E-02 -0.21895250373E-01  0.25680923760E-01  0.00000000000E+00 0. -1.
     999901    1    3    3    0    0 -0.36698622124E-01  0.54010587085E-01  0.12720719578E+00  0.89154113929E+00  0.88000000000E+00 0. -1.
        -11    1    4    4    0    0  0.28090786700E-01 -0.22919535050E-01 -0.73920969176E-01  0.82334489671E-01  0.51100000000E-03 0.  1.
         11    1    4    4    0    0  0.20063475051E-01 -0.24099902131E-01 -0.31390976232E-01  0.44373447282E-01  0.51100000000E-03 0. -1.
</event>
<event>
 8    1  0.1116841E+005  0.1043930E+01  0.7957747E-01            NaN
         13   -1    0    0    0    0  0.00000000000E+00  0.00000000000E+00  0.74505805969E-08  0.10566000000E+00  0.10566000000E+00 0.  1.
     999900   -1    0    0    0    0 -0.00000000000E+00 -0.00000000000E+00 -0.74505805969E-08  0.93827000000E+00  0.93827000000E+00 0. -1.
     999902    2    1    2    0    0 -0.21812868471E-01  0.33017652784E-02 -0.26015529617E-02  0.10217157937E+01  0.10214742738E+01 0.  0.
     999903    2    3    3    0    0 -0.34434097718E-01  0.30408091907E-01 -0.12298636989E+00  0.13301643364E+00  0.21386100647E-01 0.  0.
         14    1    1    2    0    0  0.21812868471E-01 -0.33017652784E-02  0.26015529617E-02  0.22214206326E-01  0.00000000000E+00 0. -1.
     999901    1    3    3    0    0  0.12621229247E-01 -0.27106326628E-01  0.12038481693E+00  0.88869936003E+00  0.88000000000E+00 0.  1.
        -11    1    4    4    0    0 -0.23818106642E-01  0.28421159585E-01 -0.11019180672E+00  0.11626504163E+00  0.51100000000E-03 0.  1.
         11    1    4    4    0    0 -0.10615991077E-01  0.19869323221E-02 -0.12794563170E-01  0.16751392011E-01  0.51100000000E-03 0. -1.
</event>
<event>
 8    1  0.1116841E+005  0.1043930E+01  0.7957747E-01            NaN
         13   -1    0    0    0    0  0.00000000000E+00  0.00000000000E+00  0.74505805969E-08  0.10566000000E+00  0.10566000000E+00 0. -1.
     999900   -1    0    0    0    0 -0.00000000000E+00 -0.00000000000E+00 -0.74505805969E-08  0.93827000000E+00  0.93827000000E+00 0. -1.
     999902    2    1    2    0    0 -0.19788252331E-02  0.14736780522E-01 -0.17396506405E-01  0.10210449200E+01  0.10207884217E+01 0.  0.
     999903    2    3    3    0    0 -0.20318362804E-01  0.12968521346E+00 -0.11635822730E-01  0.13336104256E+00  0.20461789840E-01 0.  0.
         14    1    1    2    0    0  0.19788252331E-02 -0.14736780522E-01  0.17396506405E-01  0.22885079955E-01  0.00000000000E+00 0. -1.
     999901    1    3    3    0    0  0.18339537571E-01 -0.11494843294E+00 -0.57606836743E-02  0.88768387749E+00  0.88000000000E+00 0. -1.
        -11    1    4    4    0    0  0.25704304603E-02  0.45207727897E-01 -0.23425430879E-02  0.45344177172E-01  0.51100000000E-03 0.  1.
         11    1    4    4    0    0 -0.22888793265E-01  0.84477485567E-01 -0.92932796423E-02  0.88016865386E-01  0.51100000000E-03 0. -1.
</event>
<event>
 8    1  0.1116841E+005  0.1043930E+01  0.7957747E-01            NaN
         13   -1    0    0    0    0  0.00000000000E+00  0.00000000000E+00  0.74505805969E-08  0.10566000000E+00  0.10566000000E+00 0. -1.
     999900   -1    0    0    0    0 -0.00000000000E+00 -0.00000000000E+00 -0.74505805969E-08  0.93827000000E+00  0.93827000000E+00 0.  1.
     999902    2    1    2    0    0  0.83233274742E-02 -0.12367716213E-01  0.25544576993E-01  0.10143535973E+01  0.10139223130E+01 0.  0.
     999903    2    3    3    0    0 -0.93248507132E-02  0.10474327080E+00 -0.59860280330E-01  0.12232196604E+00  0.17924971282E-01 0.  0.
         14    1    1    2    0    0 -0.83233274742E-02  0.12367716213E-01 -0.25544576993E-01  0.29576402728E-01  0.00000000000E+00 0.  1.
     999901    1    3    3    0    0  0.17648178187E-01 -0.11711098701E+00  0.85404857323E-01  0.89203163124E+00  0.88000000000E+00 0.  1.
        -11    1    4    4    0    0 -0.10794652849E-01  0.74125043267E-01 -0.50216637451E-01  0.90183248818E-01  0.51100000000E-03 0.  1.
         11    1    4    4    0    0  0.14698021356E-02  0.30618227531E-01 -0.96436428793E-02  0.32138717218E-01  0.51100000000E-03 0. -1.
</event>
<event>
 8    1  0.1116841E+005  0.1043930E+01  0.7957747E-01            NaN
         13   -1    0    0    0    0  0.00000000000E+00  0.00000000000E+00  0.74505805969E-08  0.10566000000E+00  0.10566000000E+00 0.  1.
     999900   -1    0    0    0    0 -0.00000000000E+00 -0.00000000000E+00 -0.74505805969E-08  0.93827000000E+00  0.93827000000E+00 0. -1.
     999902    2    1    2    0    0  0.10595759423E-01  0.17604349197E-01  0.12618486962E-01  0.10198175667E+01  0.10195324712E+01 0.  0.
     999903    2    3    3    0    0 -0.76616519008E-01 -0.54077963989E-01 -0.84469492046E-01  0.12730963325E+00  0.16677243696E-01 0.  0.
         14    1    1    2    0    0 -0.10595759423E-01 -0.17604349197E-01 -0.12618486962E-01  0.24112433341E-01  0.00000000000E+00 0. -1.
     999901    1    3    3    0    0  0.87212278431E-01  0.71682313186E-01  0.97087979008E-01  0.89250793341E+00  0.88000000000E+00 0.  1.
        -11    1    4    4    0    0 -0.18394656119E-01 -0.20447322612E-01 -0.18772947553E-01  0.33303769405E-01  0.51100000000E-03 0. -1.
         11    1    4    4    0    0 -0.58221862889E-01 -0.33630641376E-01 -0.65696544493E-01  0.94005863844E-01  0.51100000000E-03 0.  1.
</event>
<event>
 8    1  0.1116841E+005  0.1043930E+01  0.7957747E-01            NaN
         13   -1    0    0    0    0  0.00000000000E+00  0.00000000000E+00  0.74505805969E-08  0.10566000000E+00  0.10566000000E+00 0.  1.
     999900   -1    0    0    0    0 -0.00000000000E+00 -0.00000000000E+00 -0.74505805969E-08  0.93827000000E+00  0.93827000000E+00 0.  1.
     999902    2    1    2    0    0 -0.16795756091E-01 -0.14348319248E-01 -0.41571258605E-02  0.10214521579E+01  0.10212048069E+01 0.  0.
     999903    2    3    3    0    0  0.50997405161E-01  0.97911019496E-01  0.63748843474E-01  0.12914655306E+00  0.20678830975E-01 0.  0.
         14    1    1    2    0    0  0.16795756091E-01  0.14348319248E-01  0.41571258605E-02  0.22477842052E-01  0.00000000000E+00 0.  1.
     999901    1    3    3    0    0 -0.67793161252E-01 -0.11225933874E+00 -0.67905969334E-01  0.89230560489E+00  0.88000000000E+00 0.  1.
        -11    1    4    4    0    0  0.23477991076E-01  0.43400987346E-01  0.16829651110E-01  0.52137894521E-01  0.51100000000E-03 0.  1.
         11    1    4    4    0    0  0.27519414084E-01  0.54510032150E-01  0.46919192364E-01  0.77008658536E-01  0.51100000000E-03 0. -1.
</event>
<event>
 8    1  0.1116841E+005  0.1043930E+01  0.7957747E-01            NaN
         13   -1    0    0    0    0  0.00000000000E+00  0.00000000000E+00  0.74505805969E-08  0.10566000000E+00  0.10566000000E+00 0.  1.
     999900   -1    0    0    0    0 -0.00000000000E+00 -0.00000000000E+00 -0.74505805969E-08  0.93827000000E+00  0.93827000000E+00 0. -1.
     999902    2    1    2    0    0 -0.60856864615E-02  0.22680469867E-01  0.35024703200E-02  0.10201874940E+01  0.10199111806E+01 0.  0.
     999903    2    3    3    0    0  0.70167759565E-01  0.84426165824E-01  0.70816830768E-01  0.13217941851E+00  0.20126678808E-01 0.  0.
         14    1    1    2    0    0  0.60856864615E-02 -0.22680469867E-01 -0.35024703200E-02  0.23742506006E-01  0.00000000000E+00 0. -1.
     999901    1    3    3    0    0 -0.76253446026E-01 -0.61745695957E-01 -0.67314360448E-01  0.88800807548E+00  0.88000000000E+00 0.  1.
        -11    1    4    4    0    0  0.32822360265E-01  0.27301299594E-01  0.34342518552E-01  0.54793594465E-01  0.51100000000E-03 0. -1.
         11    1    4    4    0    0  0.37345399299E-01  0.57124866231E-01  0.36474312216E-01  0.77385824046E-01  0.51100000000E-03 0.  1.
</event>
<event>
 8    1  0.1116841E+005  0.1043930E+01  0.7957747E-01            NaN
         13   -1    0    0    0    0  0.00000000000E+00  0.00000000000E+00  0.74505805969E-08  0.10566000000E+00  0.10566000000E+00 0.  1.
     999900   -1    0    0    0    0 -0.00000000000E+00 -0.00000000000E+00 -0.74505805969E-08  0.93827000000E+00  0.93827000000E+00 0.  1.
     999902    2    1    2    0    0  0.11526625640E-01  0.14685315772E-01 -0.14684907866E-01  0.10201777766E+01  0.10199012343E+01 0.  0.
     999903    2    3    3    0    0 -0.35295729883E-02  0.59625723604E-01  0.11368885280E+00  0.12960147340E+00  0.17427043787E-01 0.  0.
         14    1    1    2    0    0 -0.11526625640E-01 -0.14685315772E-01  0.14684907866E-01  0.23752223412E-01  0.00000000000E+00 0.  1.
     999901    1    3    3    0    0  0.15056198629E-01 -0.44940407832E-01 -0.12837376067E+00  0.89057630319E+00  0.88000000000E+00 0.  1.
        -11    1    4    4    0    0  0.13877128732E-02  0.16123527609E-01  0.48015697703E-01  0.50672105112E-01  0.51100000000E-03 0. -1.
         11    1    4    4    0    0 -0.49172858614E-02  0.43502195995E-01  0.65673155098E-01  0.78929368287E-01  0.51100000000E-03 0.  1.
</event>
<event>
 8    1  0.1116841E+005  0.1043930E+01  0.7957747E-01            NaN
         13   -1    0    0    0    0  0.00000000000E+00  0.00000000000E+00  0.74505805969E-08  0.10566000000E+00  0.10566000000E+00 0. -1.
     999900   -1    0    0    0    0 -0.00000000000E+00 -0.00000000000E+00 -0.74505805969E-08  0.93827000000E+00  0.93827000000E+00 0.  1.
     999902    2    1    2    0    0 -0.21865185934E-01 -0.67196818255E-03  0.83466430318E-02  0.10205162359E+01  0.10202476089E+01 0.  0.
     999903    2    3    3    0    0 -0.96235413363E-01  0.74164544338E-01  0.50926732392E-01  0.13319188807E+00  0.19619188378E-01 0.  0.
         14    1    1    2    0    0  0.21865185934E-01  0.67196818255E-03 -0.83466430318E-02  0.23413764052E-01  0.00000000000E+00 0.  1.
     999901    1    3    3    0    0  0.74370227429E-01 -0.74836512520E-01 -0.42580089361E-01  0.88732434788E+00  0.88000000000E+00 0.  1.
        -11    1    4    4    0    0 -0.27418661611E-01  0.12254234666E-01  0.75869091356E-02  0.30980180487E-01  0.51100000000E-03 0. -1.
         11    1    4    4    0    0 -0.68816751752E-01  0.61910309672E-01  0.43339823257E-01  0.10221170758E+00  0.51100000000E-03 0.  1.
</event>
<event>
 8    1  0.1116841E+005  0.1043930E+01  0.7957747E-01            NaN
         13   -1    0    0    0    0  0.00000000000E+00  0.00000000000E+00  0.74505805969E-08  0.10566000000E+00  0.10566000000E+00 0. -1.
     999900   -1    0    0    0    0 -0.00000000000E+00 -0.00000000000E+00 -0.74505805969E-08  0.93827000000E+00  0.93827000000E+00 0. -1.
     999902    2    1    2    0    0  0.73203559613E-02  0.20038461305E-01 -0.15365815877E-01  0.10176386356E+01  0.10172989516E+01 0.  0.
     999903    2    3    3    0    0  0.12594244476E+00  0.19509880667E-01  0.83962110025E-02  0.12936158804E+00  0.20537508768E-01 0.  0.
         14    1    1    2    0    0 -0.73203559613E-02 -0.20038461305E-01  0.15365815877E-01  0.26291364370E-01  0.00000000000E+00 0. -1.
     999901    1    3    3    0    0 -0.11862208880E+00  0.52858063825E-03 -0.23762026880E-01  0.88827704759E+00  0.88000000000E+00 0.  1.
        -11    1    4    4    0    0  0.17335316918E-01 -0.26021416313E-03  0.76729013443E-02  0.18966166194E-01  0.51100000000E-03 0.  1.
         11    1    4    4    0    0  0.10860712784E+00  0.19770094830E-01  0.72330965822E-03  0.11039542185E+00  0.51100000000E-03 0. -1.
</event>
<event>
 8    1  0.1116841E+005  0.1043930E+01  0.7957747E-01            NaN
         13   -1    0    0    0    0  0.00000000000E+00  0.00000000000E+00  0.74505805969E-08  0.10566000000E+00  0.10566000000E+00 0. -1.
     999900   -1    0    0    0    0 -0.00000000000E+00 -0.00000000000E+00 -0.74505805969E-08  0.93827000000E+00  0.93827000000E+00 0. -1.
     999902    2    1    2    0    0 -0.13004048331E-03  0.96424687259E-02 -0.21607529069E-01  0.10202682286E+01  0.10199938131E+01 0.  0.
     999903    2    3    3    0    0 -0.41032162893E-01 -0.12038657745E+00 -0.15768967759E-01  0.12975454242E+00  0.20273492847E-01 0.  0.
         14    1    1    2    0    0  0.13004048331E-03 -0.96424687259E-02  0.21607529069E-01  0.23661771407E-01  0.00000000000E+00 0. -1.
     999901    1    3    3    0    0  0.40902122410E-01  0.13002904618E+00 -0.58385613097E-02  0.89051368618E+00  0.88000000000E+00 0. -1.
        -11    1    4    4    0    0 -0.33035256471E-01 -0.76232881811E-01 -0.17244892558E-01  0.84855335010E-01  0.51100000000E-03 0.  1.
         11    1    4    4    0    0 -0.79969064228E-02 -0.44153695639E-01  0.14759247989E-02  0.44899207409E-01  0.51100000000E-03 0. -1.
</event>
<event>
 8    1  0.1116841E+005  0.1043930E+01  0.7957747E-01            NaN
         13   -1    0    0    0    0  0.00000000000E+00  0.00000000000E+00  0.74505805969E-08  0.10566000000E+00  0.10566000000E+00 0. -1.
     999900   -1    0    0    0    0 -0.00000000000E+00 -0.00000000000E+00 -0.74505805969E-08  0.93827000000E+00  0.93827000000E+00 0.  1.
     999902    2    1    2    0    0  0.24320269244E-01 -0.88383958239E-02  0.93401827162E-02  0.10164194248E+01  0.10160470537E+01 0.  0.
     999903    2    3    3    0    0 -0.11883814418E+00 -0.13400843559E-01  0.29442811323E-01  0.12461268396E+00  0.18956654385E-01 0.  0.
         14    1    1    2    0    0 -0.24320269244E-01  0.88383958239E-02 -0.93401827162E-02  0.27510575240E-01  0.00000000000E+00 0.  1.
     999901    1    3    3    0    0  0.14315841342E+00  0.45624477351E-02 -0.20102628607E-01  0.89180674080E+00  0.88000000000E+00 0. -1.
        -11    1    4    4    0    0 -0.94116149252E-01 -0.13605034411E-01  0.15890256197E-01  0.96414251407E-01  0.51100000000E-03 0.  1.
         11    1    4    4    0    0 -0.24721994924E-01  0.20419085203E-03  0.13552555126E-01  0.28198432552E-01  0.51100000000E-03 0. -1.
</event>
<event>
 8    1  0.1116841E+005  0.1043930E+01  0.7957747E-01            NaN
         13   -1    0    0    0    0  0.00000000000E+00  0.00000000000E+00  0.74505805969E-08  0.10566000000E+00  0.10566000000E+00 0.  1.
     999900   -1    0    0    0    0 -0.00000000000E+00 -0.00000000000E+00 -0.74505805969E-08  0.93827000000E+00  0.93827000000E+00 0. -1.
     999902    2    1    2    0    0  0.13528560853E-01  0.17491478922E-01  0.91233795928E-02  0.10200090918E+01  0.10197285607E+01 0.  0.
     999903    2    3    3    0    0 -0.73068042606E-01 -0.93031456027E-01 -0.42549756240E-01  0.12738128368E+00  0.20535798352E-01 0.  0.
         14    1    1    2    0    0 -0.13528560853E-01 -0.17491478922E-01 -0.91233795928E-02  0.23920908194E-01  0.00000000000E+00 0. -1.
     999901    1    3    3    0    0  0.86596603459E-01  0.11052293495E+00  0.51673135833E-01  0.89262780813E+00  0.88000000000E+00 0.  1.
        -11    1    4    4    0    0 -0.28440366597E-01 -0.49374800065E-01 -0.26925716041E-01  0.63023651425E-01  0.51100000000E-03 0.  1.
         11    1    4    4    0    0 -0.44627676009E-01 -0.43656655962E-01 -0.15624040199E-01  0.64357632250E-01  0.51100000000E-03 0. -1.
</event>
<event>
 8    1  0.1116841E+005  0.1043930E+01  0.7957747E-01            NaN
         13   -1    0    0    0    0  0.00000000000E+00  0.00000000000E+00  0.74505805969E-08  0.10566000000E+00  0.10566000000E+00 0. -1.
     999900   -1    0    0    0    0 -0.00000000000E+00 -0.00000000000E+00 -0.74505805969E-08  0.93827000000E+00  0.93827000000E+00 0.  1.
     999902    2    1    2    0    0 -0.15080734082E-01  0.33956282259E-02 -0.13434765331E-01  0.10234494787E+01  0.10232445376E+01 0.  0.
     999903    2    3    3    0    0  0.10760946430E+00  0.68541747360E-01 -0.28693086301E-01  0.13242214023E+00  0.20846152749E-01 0.  0.
         14    1    1    2    0    0  0.15080734082E-01 -0.33956282259E-02  0.13434765331E-01  0.20480521258E-01  0.00000000000E+00 0.  1.
     999901    1    3    3    0    0 -0.12269019838E+00 -0.65146119134E-01  0.15258320969E-01  0.89102733851E+00  0.88000000000E+00 0. -1.
        -11    1    4    4    0    0  0.55735959408E-01  0.47709255039E-01 -0.15708199273E-01  0.75031185735E-01  0.51100000000E-03 0. -1.
         11    1    4    4    0    0  0.51873504888E-01  0.20832492321E-01 -0.12984887028E-01  0.57390954495E-01  0.51100000000E-03 0.  1.
</event>
<event>
 8    1  0.1116841E+005  0.1043930E+01  0.7957747E-01            NaN
         13   -1    0    0    0    0  0.00000000000E+00  0.00000000000E+00  0.74505805969E-08  0.10566000000E+00  0.10566000000E+00 0.  1.
     999900   -1    0    0    0    0 -0.00000000000E+00 -0.00000000000E+00 -0.74505805969E-08  0.93827000000E+00  0.93827000000E+00 0. -1.
     999902    2    1    2    0    0 -0.99087133357E-02  0.19621987847E-01  0.73952461357E-02  0.10207374436E+01  0.10204739262E+01 0.  0.
     999903    2    3    3    0    0 -0.30608181580E-01 -0.48455149611E-01  0.11615006607E+00  0.13119229270E+00  0.20876242790E-01 0.  0.
         14    1    1    2    0    0  0.99087133357E-02 -0.19621987847E-01 -0.73952461357E-02  0.23192556402E-01  0.00000000000E+00 0.  1.
     999901    1    3    3    0    0  0.20699468245E-01  0.68077137458E-01 -0.10875481993E+00  0.88954515090E+00  0.88000000000E+00 0.  1.
        -11    1    4    4    0    0 -0.12878392877E-01 -0.23513498196E-01  0.76767019471E-01  0.81315275317E-01  0.51100000000E-03 0. -1.
         11    1    4    4    0    0 -0.17729788703E-01 -0.24941651415E-01  0.39383046595E-01  0.49877017382E-01  0.51100000000E-03 0.  1.
</event>
<event>
 8    1  0.1116841E+005  0.1043930E+01  0.7957747E-01            NaN
         13   -1    0    0    0    0  0.00000000000E+00  0.00000000000E+00  0.74505805969E-08  0.10566000000E+00  0.10566000000E+00 0. -1.
     999900   -1    0    0    0    0 -0.00000000000E+00 -0.00000000000E+00 -0.74505805969E-08  0.93827000000E+00  0.93827000000E+00 0. -1.
     999902    2    1    2    0    0  0.97160790907E-02 -0.17133493627E-02 -0.21614760705E-01  0.10201700413E+01  0.10198933167E+01 0.  0.
     999903    2    3    3    0    0 -0.45822837789E-01 -0.15246475427E-01 -0.12186728593E+00  0.13263509231E+00  0.20205070081E-01 0.  0.
         14    1    1    2    0    0 -0.97160790907E-02  0.17133493627E-02  0.21614760705E-01  0.23759958739E-01  0.00000000000E+00 0. -1.
     999901    1    3    3    0    0  0.55538916880E-01  0.13533126064E-01  0.10025252523E+00  0.88753494895E+00  0.88000000000E+00 0.  1.
        -11    1    4    4    0    0 -0.33868872037E-01 -0.46778151994E-02 -0.63469156680E-01  0.72094225974E-01  0.51100000000E-03 0.  1.
         11    1    4    4    0    0 -0.11953965752E-01 -0.10568660227E-01 -0.58398129250E-01  0.60540866340E-01  0.51100000000E-03 0. -1.
</event>
<event>
 8    1  0.1116841E+005  0.1043930E+01  0.7957747E-01            NaN
         13   -1    0    0    0    0  0.00000000000E+00  0.00000000000E+00  0.74505805969E-08  0.10566000000E+00  0.10566000000E+00 0. -1.
     999900   -1    0    0    0    0 -0.00000000000E+00 -0.00000000000E+00 -0.74505805969E-08  0.93827000000E+00  0.93827000000E+00 0.  1.
     999902    2    1    2    0    0  0.35904473104E-03  0.24004100421E-01 -0.75826178158E-02  0.10187541814E+01  0.10184430569E+01 0.  0.
     999903    2    3    3    0    0 -0.10701874961E+00 -0.63175226966E-01  0.20882609139E-01  0.12749636516E+00  0.19367955319E-01 0.  0.
         14    1    1    2    0    0 -0.35904473104E-03 -0.24004100421E-01  0.75826178158E-02  0.25175818618E-01  0.00000000000E+00 0. -1.
     999901    1    3    3    0    0  0.10737779434E+00  0.87179327387E-01 -0.28465226954E-01  0.89125781623E+00  0.88000000000E+00 0.  1.
        -11    1    4    4    0    0 -0.85740691573E-01 -0.42872292221E-01  0.20740789792E-01  0.98081298492E-01  0.51100000000E-03 0.  1.
         11    1    4    4    0    0 -0.21278058035E-01 -0.20302934746E-01  0.14181934683E-03  0.29415066663E-01  0.51100000000E-03 0. -1.
</event>
<event>
 8    1  0.1116841E+005  0.1043930E+01  0.7957747E-01            NaN
         13   -1    0    0    0    0  0.00000000000E+00  0.00000000000E+00  0.74505805969E-08  0.10566000000E+00  0.10566000000E+00 0.  1.
     999900   -1    0    0    0    0 -0.00000000000E+00 -0.00000000000E+00 -0.74505805969E-08  0.93827000000E+00  0.93827000000E+00 0.  1.
     999902    2    1    2    0    0  0.21097565843E-01 -0.97295431255E-02  0.18866196929E-01  0.10140016743E+01  0.10135599098E+01 0.  0.
     999903    2    3    3    0    0 -0.79899822575E-01  0.37086027444E-01  0.85627018139E-01  0.12447979295E+00  0.20096704656E-01 0.  0.
         14    1    1    2    0    0 -0.21097565843E-01  0.97295431255E-02 -0.18866196929E-01  0.29928325722E-01  0.00000000000E+00 0. -1.
     999901    1    3    3    0    0  0.10099738842E+00 -0.46815570570E-01 -0.66760821210E-01  0.88952188133E+00  0.88000000000E+00 0.  1.
        -11    1    4    4    0    0 -0.41402876233E-01  0.12293066173E-01  0.30824023513E-01  0.53063162202E-01  0.51100000000E-03 0. -1.
         11    1    4    4    0    0 -0.38496946342E-01  0.24792961271E-01  0.54802994627E-01  0.71416630747E-01  0.51100000000E-03 0.  1.
</event>
<event>
 8    1  0.1116841E+005  0.1043930E+01  0.7957747E-01            NaN
         13   -1    0    0    0    0  0.00000000000E+00  0.00000000000E+00  0.74505805969E-08  0.10566000000E+00  0.10566000000E+00 0.  1.
     999900   -1    0    0    0    0 -0.00000000000E+00 -0.00000000000E+00 -0.74505805969E-08  0.93827000000E+00  0.93827000000E+00 0.  1.
     999902    2    1    2    0    0 -0.18390117017E-01 -0.28525009394E-02 -0.15398813411E-01  0.10197751533E+01  0.10194890419E+01 0.  0.
     999903    2    3    3    0    0  0.12993920756E-01  0.37281524335E-01  0.12007346301E+00  0.12795205676E+00  0.19883115392E-01 0.  0.
         14    1    1    2    0    0  0.18390117017E-01  0.28525009394E-02  0.15398813411E-01  0.24154846718E-01  0.00000000000E+00 0. -1.
     999901    1    3    3    0    0 -0.31384037773E-01 -0.40134025275E-01 -0.13547227642E+00  0.89182309652E+00  0.88000000000E+00 0.  1.
        -11    1    4    4    0    0  0.15891788023E-01  0.24344950706E-01  0.63453502183E-01  0.69798521559E-01  0.51100000000E-03 0.  1.
         11    1    4    4    0    0 -0.28978672663E-02  0.12936573629E-01  0.56619960822E-01  0.58153535202E-01  0.51100000000E-03 0. -1.
</event>
<event>
 8    1  0.1116841E+005  0.1043930E+01  0.7957747E-01            NaN
         13   -1    0    0    0    0  0.00000000000E+00  0.00000000000E+00  0.74505805969E-08  0.10566000000E+00  0.10566000000E+00 0.  1.
     999900   -1    0    0    0    0 -0.00000000000E+00 -0.00000000000E+00 -0.74505805969E-08  0.93827000000E+00  0.93827000000E+00 0. -1.
     999902    2    1    2    0    0 -0.13333895037E-01  0.18508558605E-01 -0.26147703114E-03  0.10211171118E+01  0.10208622474E+01 0.  0.
     999903    2    3    3    0    0 -0.40667589745E-01 -0.23371110393E-01 -0.12146042504E+00  0.13140354971E+00  0.17725585112E-01 0.  0.
         14    1    1    2    0    0  0.13333895037E-01 -0.18508558605E-01  0.26147703114E-03  0.22812888215E-01  0.00000000000E+00 0.  1.
     999901    1    3    3    0    0  0.27333694708E-01  0.41879668998E-01  0.12119894801E+00  0.88971356208E+00  0.88000000000E+00 0.  1.
        -11    1    4    4    0    0 -0.27515350539E-01 -0.84677714130E-02 -0.55688523145E-01  0.62691868684E-01  0.51100000000E-03 0. -1.
         11    1    4    4    0    0 -0.13152239206E-01 -0.14903338980E-01 -0.65771901900E-01  0.68711681026E-01  0.51100000000E-03 0.  1.
</event>
<event>
 8    1  0.1116841E+005  0.1043930E+01  0.7957747E-01            NaN
         13   -1    0    0    0    0  0.00000000000E+00  0.00000000000E+00  0.74505805969E-08  0.10566000000E+00  0.10566000000E+00 0. -1.
     999900   -1    0    0    0    0 -0.00000000000E+00 -0.00000000000E+00 -0.74505805969E-08  0.93827000000E+00  0.93827000000E+00 0. -1.
     999902    2    1    2    0    0  0.25351207107E-02  0.53018563934E-02  0.23119890533E-01  0.10200748987E+01  0.10197959272E+01 0.  0.
     999903    2    3    3    0    0  0.24038648658E-01 -0.11480599874E+00 -0.48862175284E-01  0.12874459162E+00  0.20721576209E-01 0.  0.
         14    1    1    2    0    0 -0.25351207107E-02 -0.53018563934E-02 -0.23119890533E-01  0.23855101268E-01  0.00000000000E+00 0.  1.
     999901    1    3    3    0    0 -0.21503527947E-01  0.12010785514E+00  0.71982065817E-01  0.89133030711E+00  0.88000000000E+00 0.  1.
        -11    1    4    4    0    0  0.18960988372E-01 -0.95530049578E-01 -0.31665071393E-01  0.10241312084E+00  0.51100000000E-03 0. -1.
         11    1    4    4    0    0  0.50776602860E-02 -0.19275949166E-01 -0.17197103891E-01  0.26331470781E-01  0.51100000000E-03 0.  1.
</event>
<event>
 8    1  0.1116841E+005  0.1043930E+01  0.7957747E-01            NaN
         13   -1    0    0    0    0  0.00000000000E+00  0.00000000000E+00  0.74505805969E-08  0.10566000000E+00  0.10566000000E+00 0. -1.
     999900   -1    0    0    0    0 -0.00000000000E+00 -0.00000000000E+00 -0.74505805969E-08  0.93827000000E+00  0.93827000000E+00 0.  1.
     999902    2    1    2    0    0  0.15257858099E-01  0.67766580224E-02  0.15723548772E-01  0.10209962843E+01  0.10207386822E+01 0.  0.
     999903    2    3    3    0    0  0.68239392674E-02  0.12238197145E+00  0.48738815794E-01  0.13278137379E+00  0.15215386193E-01 0.  0.
         14    1    1    2    0    0 -0.15257858099E-01 -0.67766580224E-02 -0.15723548772E-01  0.22933715654E-01  0.00000000000E+00 0.  1.
     999901    1    3    3    0    0  0.84339188314E-02 -0.11560531343E+00 -0.33015267021E-01  0.88821491056E+00  0.88000000000E+00 0.  1.
        -11    1    4    4    0    0  0.91829784917E-02  0.10134670641E+00  0.45050540351E-01  0.11128923713E+00  0.51100000000E-03 0.  1.
         11    1    4    4    0    0 -0.23590392243E-02  0.21035265044E-01  0.36882754424E-02  0.21492136661E-01  0.51100000000E-03 0. -1.
</event>
<event>
 8    1  0.1116841E+005  0.1043930E+01  0.7957747E-01            NaN
         13   -1    0    0    0    0  0.00000000000E+00  0.00000000000E+00  0.74505805969E-08  0.10566000000E+00  0.10566000000E+00 0. -1.
     999900   -1    0    0    0    0 -0.00000000000E+00 -0.00000000000E+00 -0.74505805969E-08  0.93827000000E+00  0.93827000000E+00 0. -1.
     999902    2    1    2    0    0 -0.13494797377E-01  0.13319130230E-04  0.21705028256E-01  0.10183718705E+01  0.10180511031E+01 0.  0.
     999903    2    3    3    0    0  0.78664273991E-01  0.48708479462E-01  0.88670247125E-01  0.12969372085E+00  0.19936512423E-01 0.  0.
         14    1    1    2    0    0  0.13494797377E-01 -0.13319130230E-04 -0.21705028256E-01  0.25558129533E-01  0.00000000000E+00 0.  1.
     999901    1    3    3    0    0 -0.92159071368E-01 -0.48695160331E-01 -0.66965218869E-01  0.88867814962E+00  0.88000000000E+00 0. -1.
        -11    1    4    4    0    0  0.33013810884E-01  0.10003518369E-01  0.27569507444E-01  0.44162438232E-01  0.51100000000E-03 0. -1.
         11    1    4    4    0    0  0.45650463107E-01  0.38704961092E-01  0.61100739681E-01  0.85531282614E-01  0.51100000000E-03 0.  1.
</event>
<event>
 8    1  0.1116841E+005  0.1043930E+01  0.7957747E-01            NaN
         13   -1    0    0    0    0  0.00000000000E+00  0.00000000000E+00  0.74505805969E-08  0.10566000000E+00  0.10566000000E+00 0. -1.
     999900   -1    0    0    0    0 -0.00000000000E+00 -0.00000000000E+00 -0.74505805969E-08  0.93827000000E+00  0.93827000000E+00 0. -1.
     999902    2    1    2    0    0 -0.88637056589E-02  0.12352636722E-01  0.18538357878E-01  0.10199545203E+01  0.10196726926E+01 0.  0.
     999903    2    3    3    0    0  0.31091824327E-01 -0.46971876650E-01 -0.11244140296E+00  0.12738993444E+00  0.20299447267E-01 0.  0.
         14    1    1    2    0    0  0.88637056589E-02 -0.12352636722E-01 -0.18538357878E-01  0.23975479658E-01  0.00000000000E+00 0.  1.
     999901    1    3    3    0    0 -0.39955529986E-01  0.59324513372E-01  0.13097976084E+00  0.89256458591E+00  0.88000000000E+00 0.  1.
        -11    1    4    4    0    0  0.74381963375E-02 -0.28184786363E-01 -0.46937687218E-01  0.55255013795E-01  0.51100000000E-03 0. -1.
         11    1    4    4    0    0  0.23653627990E-01 -0.18787090287E-01 -0.65503715745E-01  0.72134920641E-01  0.51100000000E-03 0.  1.
</event>
<event>
 8    1  0.1116841E+005  0.1043930E+01  0.7957747E-01            NaN
         13   -1    0    0    0    0  0.00000000000E+00  0.00000000000E+00  0.74505805969E-08  0.10566000000E+00  0.10566000000E+00 0. -1.
     999900   -1    0    0    0    0 -0.00000000000E+00 -0.00000000000E+00 -0.74505805969E-08  0.93827000000E+00  0.93827000000E+00 0.  1.
     999902    2    1    2    0    0 -0.11120444387E-02 -0.24109696148E-01  0.35903129973E-02  0.10195290894E+01  0.10192370478E+01 0.  0.
     999903    2    3    3    0    0  0.46891598053E-01  0.10092622882E+00  0.58862244307E-01  0.12768082953E+00  0.21276860515E-01 0.  0.
         14    1    1    2    0    0  0.11120444387E-02  0.24109696148E-01 -0.35903129973E-02  0.24400910610E-01  0.00000000000E+00 0.  1.
     999901    1    3    3    0    0 -0.48003642492E-01 -0.12503592497E+00 -0.55271931310E-01  0.89184825986E+00  0.88000000000E+00 0.  1.
        -11    1    4    4    0    0  0.30389815046E-01  0.41368460872E-01  0.30153502349E-01  0.59534739760E-01  0.51100000000E-03 0. -1.
         11    1    4    4    0    0  0.16501783007E-01  0.59557767946E-01  0.28708741959E-01  0.68146089770E-01  0.51100000000E-03 0.  1.
</event>
<event>
 8    1  0.1116841E+005  0.1043930E+01  0.7957747E-01            NaN
         13   -1    0    0    0    0  0.00000000000E+00  0.00000000000E+00  0.74505805969E-08  0.10566000000E+00  0.10566000000E+00 0.  1.
     999900   -1    0    0    0    0 -0.00000000000E+00 -0.00000000000E+00 -0.74505805969E-08  0.93827000000E+00  0.93827000000E+00 0.  1.
     999902    2    1    2    0    0 -0.22293057216E-01 -0.65634380482E-03 -0.65552036066E-02  0.10206838846E+01  0.10204191347E+01 0.  0.
     999903    2    3    3    0    0 -0.11991974364E+00 -0.13591449124E-01  0.52896070760E-01  0.13319712927E+00  0.19442441725E-01 0.  0.
         14    1    1    2    0    0  0.22293057216E-01  0.65634380482E-03  0.65552036066E-02  0.23246115408E-01  0.00000000000E+00 0.  1.
     999901    1    3    3    0    0  0.97626686421E-01  0.12935105319E-01 -0.59451274366E-01  0.88748675532E+00  0.88000000000E+00 0.  1.
        -11    1    4    4    0    0 -0.35262454901E-01 -0.11325382265E-01  0.10562233927E-01  0.38516579749E-01  0.51100000000E-03 0.  1.
         11    1    4    4    0    0 -0.84657288736E-01 -0.22660668587E-02  0.42333836832E-01  0.94680549519E-01  0.51100000000E-03 0. -1.
</event>
<event>
 8    1  0.1116841E+005  0.1043930E+01  0.7957747E-01            NaN
         13   -1    0    0    0    0  0.00000000000E+00  0.00000000000E+00  0.74505805969E-08  0.10566000000E+00  0.10566000000E+00 0. -1.
     999900   -1    0    0    0    0 -0.00000000000E+00 -0.00000000000E+00 -0.74505805969E-08  0.93827000000E+00  0.93827000000E+00 0.  1.
     999902    2    1    2    0    0 -0.10515598800E-01 -0.63549784147E-02  0.20139820272E-01  0.10203381385E+01  0.10200653611E+01 0.  0.
     999903    2    3    3    0    0 -0.11888428956E+00 -0.12119222321E-01  0.51746095454E-01  0.13310876777E+00  0.27566933243E-01 0.  0.
         14    1    1    2    0    0  0.10515598800E-01  0.63549784147E-02 -0.20139820272E-01  0.23591861507E-01  0.00000000000E+00 0.  1.
     999901    1    3    3    0    0  0.10836869076E+00  0.57642439068E-02 -0.31606275182E-01  0.88722937072E+00  0.88000000000E+00 0. -1.
        -11    1    4    4    0    0 -0.28499173593E-01  0.88605042478E-02  0.12708570058E-01  0.32441952853E-01  0.51100000000E-03 0.  1.
         11    1    4    4    0    0 -0.90385115967E-01 -0.20979726569E-01  0.39037525397E-01  0.10066681492E+00  0.51100000000E-03 0. -1.
</event>
<event>
 8    1  0.1116841E+005  0.1043930E+01  0.7957747E-01            NaN
         13   -1    0    0    0    0  0.00000000000E+00  0.00000000000E+00  0.74505805969E-08  0.10566000000E+00  0.10566000000E+00 0.  1.
     999900   -1    0    0    0    0 -0.00000000000E+00 -0.00000000000E+00 -0.74505805969E-08  0.93827000000E+00  0.93827000000E+00 0.  1.
     999902    2    1    2    0    0 -0.89308623112E-02 -0.41377894596E-04 -0.21449443597E-01  0.10206955290E+01  0.10204310473E+01 0.  0.
     999903    2    3    3    0    0  0.12097001804E+00 -0.40703000703E-01 -0.17195837689E-01  0.13022054366E+00  0.19266904934E-01 0.  0.
         14    1    1    2    0    0  0.89308623112E-02  0.41377894596E-04  0.21449443597E-01  0.23234471037E-01  0.00000000000E+00 0.  1.
     999901    1    3    3    0    0 -0.12990088035E+00  0.40661622808E-01 -0.42536059081E-02  0.89047498530E+00  0.88000000000E+00 0.  1.
        -11    1    4    4    0    0  0.97068324950E-01 -0.26165916290E-01 -0.83731404689E-02  0.10088253311E+00  0.51100000000E-03 0.  1.
         11    1    4    4    0    0  0.23901693093E-01 -0.14537084413E-01 -0.88226972202E-02  0.29338010553E-01  0.51100000000E-03 0. -1.
</event>
<event>
 8    1  0.1116841E+005  0.1043930E+01  0.7957747E-01            NaN
         13   -1    0    0    0    0  0.00000000000E+00  0.00000000000E+00  0.74505805969E-08  0.10566000000E+00  0.10566000000E+00 0. -1.
     999900   -1    0    0    0    0 -0.00000000000E+00 -0.00000000000E+00 -0.74505805969E-08  0.93827000000E+00  0.93827000000E+00 0.  1.
     999902    2    1    2    0    0  0.15356778007E-01  0.18228369964E-01  0.20433497262E-02  0.10200076385E+01  0.10197270729E+01 0.  0.
     999903    2    3    3    0    0 -0.69277236227E-01  0.80100365104E-01 -0.73712494882E-01  0.13055274467E+00  0.19876702169E-01 0.  0.
         14    1    1    2    0    0 -0.15356778007E-01 -0.18228369964E-01 -0.20433497262E-02  0.23922361514E-01  0.00000000000E+00 0.  1.
     999901    1    3    3    0    0  0.84634014235E-01 -0.61871995141E-01  0.75755844608E-01  0.88945489382E+00  0.88000000000E+00 0.  1.
        -11    1    4    4    0    0 -0.34817756240E-01  0.43110959739E-01 -0.26693271843E-01  0.61511160628E-01  0.51100000000E-03 0. -1.
         11    1    4    4    0    0 -0.34459479988E-01  0.36989405365E-01 -0.47019223039E-01  0.69041584038E-01  0.51100000000E-03 0.  1.
</event>
<event>
 8    1  0.1116841E+005  0.1043930E+01  0.7957747E-01            NaN
         13   -1    0    0    0    0  0.00000000000E+00  0.00000000000E+00  0.74505805969E-08  0.10566000000E+00  0.10566000000E+00 0.  1.
     999900   -1    0    0    0    0 -0.00000000000E+00 -0.00000000000E+00 -0.74505805969E-08  0.93827000000E+00  0.93827000000E+00 0. -1.
     999902    2    1    2    0    0 -0.47349460471E-02  0.20356136492E-01  0.12843021230E-01  0.10193997085E+01  0.10191045238E+01 0.  0.
     999903    2    3    3    0    0  0.33431309485E-01  0.69243219563E-01 -0.10244237992E+00  0.12971586933E+00  0.20481446302E-01 0.  0.
         14    1    1    2    0    0  0.47349460471E-02 -0.20356136492E-01 -0.12843021230E-01  0.24530291503E-01  0.00000000000E+00 0. -1.
     999901    1    3    3    0    0 -0.38166255532E-01 -0.48887083072E-01  0.11528540115E+00  0.88968383917E+00  0.88000000000E+00 0.  1.
        -11    1    4    4    0    0  0.26248549755E-01  0.31780645951E-01 -0.57809548907E-01  0.71001414684E-01  0.51100000000E-03 0.  1.
         11    1    4    4    0    0  0.71827597302E-02  0.37462573612E-01 -0.44632831017E-01  0.58714454648E-01  0.51100000000E-03 0. -1.
</event>
<event>
 8    1  0.1116841E+005  0.1043930E+01  0.7957747E-01            NaN
         13   -1    0    0    0    0  0.00000000000E+00  0.00000000000E+00  0.74505805969E-08  0.10566000000E+00  0.10566000000E+00 0. -1.
     999900   -1    0    0    0    0 -0.00000000000E+00 -0.00000000000E+00 -0.74505805969E-08  0.93827000000E+00  0.93827000000E+00 0.  1.
     999902    2    1    2    0    0 -0.10956085867E-01 -0.15070261940E-01  0.15396005179E-01  0.10197600685E+01  0.10194735954E+01 0.  0.
     999903    2    3    3    0    0  0.36328956892E-01 -0.69838739404E-01  0.10455011293E+00  0.13230082082E+00  0.19378814322E-01 0.  0.
         14    1    1    2    0    0  0.10956085867E-01  0.15070261940E-01 -0.15396005179E-01  0.24169931484E-01  0.00000000000E+00 0.  1.
     999901    1    3    3    0    0 -0.47285042759E-01  0.54768477463E-01 -0.89154107756E-01  0.88745924770E+00  0.88000000000E+00 0.  1.
        -11    1    4    4    0    0  0.11837057094E-01 -0.42126286961E-01  0.50735429263E-01  0.67000633409E-01  0.51100000000E-03 0.  1.
         11    1    4    4    0    0  0.24491899799E-01 -0.27712452443E-01  0.53814683672E-01  0.65300187411E-01  0.51100000000E-03 0. -1.
</event>
<event>
 8    1  0.1116841E+005  0.1043930E+01  0.7957747E-01            NaN
         13   -1    0    0    0    0  0.00000000000E+00  0.00000000000E+00  0.74505805969E-08  0.10566000000E+00  0.10566000000E+00 0. -1.
     999900   -1    0    0    0    0 -0.00000000000E+00 -0.00000000000E+00 -0.74505805969E-08  0.93827000000E+00  0.93827000000E+00 0. -1.
     999902    2    1    2    0    0  0.19851960336E-01 -0.18025534447E-02 -0.13539480763E-01  0.10198329656E+01  0.10195482385E+01 0.  0.
     999903    2    3    3    0    0 -0.99355653763E-01  0.10050866712E-03 -0.80219407754E-01  0.12929364048E+00  0.20251815991E-01 0.  0.
         14    1    1    2    0    0 -0.19851960336E-01  0.18025534447E-02  0.13539480763E-01  0.24097034412E-01  0.00000000000E+00 0. -1.
     999901    1    3    3    0    0  0.11920761410E+00 -0.19030621119E-02  0.66679926991E-01  0.89053932511E+00  0.88000000000E+00 0.  1.
        -11    1    4    4    0    0 -0.13765355609E-01 -0.30499138602E-02 -0.20475726355E-01  0.24865708926E-01  0.51100000000E-03 0. -1.
         11    1    4    4    0    0 -0.85590298154E-01  0.31504225274E-02 -0.59743681399E-01  0.10442793155E+00  0.51100000000E-03 0.  1.
</event>
<event>
 8    1  0.1116841E+005  0.1043930E+01  0.7957747E-01            NaN
         13   -1    0    0    0    0  0.00000000000E+00  0.00000000000E+00  0.74505805969E-08  0.10566000000E+00  0.10566000000E+00 0. -1.
     999900   -1    0    0    0    0 -0.00000000000E+00 -0.00000000000E+00 -0.74505805969E-08  0.93827000000E+00  0.93827000000E+00 0. -1.
     999902    2    1    2    0    0 -0.22460775769E-01  0.11601549521E-01  0.28427575624E-02  0.10184905883E+01  0.10181728314E+01 0.  0.
     999903    2    3    3    0    0  0.57512322691E-01  0.36953350996E-01 -0.10622409203E+00  0.12779760636E+00  0.19376610999E-01 0.  0.
         14    1    1    2    0    0  0.22460775769E-01 -0.11601549521E-01 -0.28427575624E-02  0.25439411746E-01  0.00000000000E+00 0. -1.
     999901    1    3    3    0    0 -0.79973098460E-01 -0.25351801475E-01  0.10906684959E+00  0.89069298189E+00  0.88000000000E+00 0. -1.
        -11    1    4    4    0    0  0.21464216330E-01  0.34610050990E-02 -0.29517050806E-01  0.36663449759E-01  0.51100000000E-03 0. -1.
         11    1    4    4    0    0  0.36048106361E-01  0.33492345897E-01 -0.76707041219E-01  0.91134156602E-01  0.51100000000E-03 0.  1.
</event>
<event>
 8    1  0.1116841E+005  0.1043930E+01  0.7957747E-01            NaN
         13   -1    0    0    0    0  0.00000000000E+00  0.00000000000E+00  0.74505805969E-08  0.10566000000E+00  0.10566000000E+00 0.  1.
     999900   -1    0    0    0    0 -0.00000000000E+00 -0.00000000000E+00 -0.74505805969E-08  0.93827000000E+00  0.93827000000E+00 0. -1.
     999902    2    1    2    0    0 -0.16923479886E-02 -0.32617401848E-02 -0.22512304456E-01  0.10211197645E+01  0.10208649600E+01 0.  0.
     999903    2    3    3    0    0  0.48484170863E-01  0.46903479649E-01 -0.11350518326E+00  0.13358726578E+00  0.20284962981E-01 0.  0.
         14    1    1    2    0    0  0.16923479886E-02  0.32617401848E-02  0.22512304456E-01  0.22810235481E-01  0.00000000000E+00 0.  1.
     999901    1    3    3    0    0 -0.50176518851E-01 -0.50165219834E-01  0.90992878808E-01  0.88753249874E+00  0.88000000000E+00 0.  1.
        -11    1    4    4    0    0  0.39122586291E-01  0.33016334954E-01 -0.68156976103E-01  0.85242534244E-01  0.51100000000E-03 0.  1.
         11    1    4    4    0    0  0.93615845720E-02  0.13887144695E-01 -0.45348207161E-01  0.48344731535E-01  0.51100000000E-03 0. -1.
</event>
<event>
 8    1  0.1116841E+005  0.1043930E+01  0.7957747E-01            NaN
         13   -1    0    0    0    0  0.00000000000E+00  0.00000000000E+00  0.74505805969E-08  0.10566000000E+00  0.10566000000E+00 0.  1.
     999900   -1    0    0    0    0 -0.00000000000E+00 -0.00000000000E+00 -0.74505805969E-08  0.93827000000E+00  0.93827000000E+00 0. -1.
     999902    2    1    2    0    0  0.10874957174E-01 -0.11913629224E-01 -0.17687595193E-01  0.10199915314E+01  0.10197105834E+01 0.  0.
     999903    2    3    3    0    0 -0.84271371991E-01  0.84220119580E-01  0.41981715591E-01  0.12766034387E+00  0.18439259001E-01 0.  0.
         14    1    1    2    0    0 -0.10874957174E-01  0.11913629224E-01  0.17687595193E-01  0.23938468592E-01  0.00000000000E+00 0.  1.
     999901    1    3    3    0    0  0.95146329165E-01 -0.96133748804E-01 -0.59669310783E-01  0.89233118754E+00  0.88000000000E+00 0. -1.
        -11    1    4    4    0    0 -0.46728703218E-01  0.34376858180E-01  0.17114112361E-01  0.60485486240E-01  0.51100000000E-03 0. -1.
         11    1    4    4    0    0 -0.37542668773E-01  0.49843261400E-01  0.24867603230E-01  0.67174857625E-01  0.51100000000E-03 0.  1.
</event>
<event>
 8    1  0.1116841E+005  0.1043930E+01  0.7957747E-01            NaN
         13   -1    0    0    0    0  0.00000000000E+00  0.00000000000E+00  0.74505805969E-08  0.10566000000E+00  0.10566000000E+00 0.  1.
     999900   -1    0    0    0    0 -0.00000000000E+00 -0.00000000000E+00 -0.74505805969E-08  0.93827000000E+00  0.93827000000E+00 0. -1.
     999902    2    1    2    0    0  0.85130428191E-02 -0.24159292550E-01 -0.10946257574E-01  0.10160738720E+01  0.10156919560E+01 0.  0.
     999903    2    3    3    0    0 -0.12067488146E+00 -0.16640809540E-01 -0.26986366803E-01  0.12646534431E+00  0.20636757470E-01 0.  0.
         14    1    1    2    0    0 -0.85130428191E-02  0.24159292550E-01  0.10946257574E-01  0.27856128041E-01  0.00000000000E+00 0.  1.
     999901    1    3    3    0    0  0.12918792428E+00 -0.75184830101E-02  0.16040109229E-01  0.88960852765E+00  0.88000000000E+00 0. -1.
        -11    1    4    4    0    0 -0.95267760586E-01 -0.20119537381E-01 -0.26068572751E-01  0.10079967062E+00  0.51100000000E-03 0.  1.
         11    1    4    4    0    0 -0.25407120878E-01  0.34787278407E-02 -0.91779405168E-03  0.25665673683E-01  0.51100000000E-03 0. -1.
</event>
<event>
 8    1  0.1116841E+005  0.1043930E+01  0.7957747E-01            NaN
         13   -1    0    0    0    0  0.00000000000E+00  0.00000000000E+00  0.74505805969E-08  0.10566000000E+00  0.10566000000E+00 0. -1.
     999900   -1    0    0    0    0 -0.00000000000E+00 -0.00000000000E+00 -0.74505805969E-08  0.93827000000E+00  0.93827000000E+00 0. -1.
     999902    2    1    2    0    0 -0.10813727139E-01  0.29895325304E-02  0.20050286554E-01  0.10209541868E+01  0.10206956273E+01 0.  0.
     999903    2    3    3    0    0 -0.80896166190E-01  0.50012450874E-01  0.92248793986E-01  0.13397316811E+00  0.19837712445E-01 0.  0.
         14    1    1    2    0    0  0.10813727139E-01 -0.29895325304E-02 -0.20050286554E-01  0.22975813158E-01  0.00000000000E+00 0.  1.
     999901    1    3    3    0    0  0.70082439052E-01 -0.47022918343E-01 -0.72198507432E-01  0.88698101873E+00  0.88000000000E+00 0. -1.
        -11    1    4    4    0    0 -0.47630586049E-01  0.29057359034E-01  0.67236551889E-01  0.87372866912E-01  0.51100000000E-03 0. -1.
         11    1    4    4    0    0 -0.33265580141E-01  0.20955091839E-01  0.25012242097E-01  0.46600301199E-01  0.51100000000E-03 0.  1.
</event>
<event>
 8    1  0.1116841E+005  0.1043930E+01  0.7957747E-01            NaN
         13   -1    0    0    0    0  0.00000000000E+00  0.00000000000E+00  0.74505805969E-08  0.10566000000E+00  0.10566000000E+00 0.  1.
     999900   -1    0    0    0    0 -0.00000000000E+00 -0.00000000000E+00 -0.74505805969E-08  0.93827000000E+00  0.93827000000E+00 0.  1.
     999902    2    1    2    0    0  0.24290303950E-01 -0.13733006620E-02  0.23032586390E-02  0.10194921232E+01  0.10191991854E+01 0.  0.
     999903    2    3    3    0    0 -0.33190163409E-01 -0.12383999762E+00 -0.71830381673E-02  0.12910339586E+00  0.13347615100E-01 0.  0.
         14    1    1    2    0    0 -0.24290303950E-01  0.13733006620E-02 -0.23032586390E-02  0.24437876771E-01  0.00000000000E+00 0.  1.
     999901    1    3    3    0    0  0.57480467360E-01  0.12246669696E+00  0.94862968063E-02  0.89038872736E+00  0.88000000000E+00 0. -1.
        -11    1    4    4    0    0 -0.58824116400E-02 -0.37475806088E-01  0.24229508170E-02  0.38015399778E-01  0.51100000000E-03 0.  1.
         11    1    4    4    0    0 -0.27307751769E-01 -0.86364191531E-01 -0.96059889842E-02  0.91087996086E-01  0.51100000000E-03 0. -1.
</event>
<event>
 8    1  0.1116841E+005  0.1043930E+01  0.7957747E-01            NaN
         13   -1    0    0    0    0  0.00000000000E+00  0.00000000000E+00  0.74505805969E-08  0.10566000000E+00  0.10566000000E+00 0.  1.
     999900   -1    0    0    0    0 -0.00000000000E+00 -0.00000000000E+00 -0.74505805969E-08  0.93827000000E+00  0.93827000000E+00 0. -1.
     999902    2    1    2    0    0  0.13716043429E-01 -0.10986567909E-01  0.14812497238E-01  0.10209464277E+01  0.10206876915E+01 0.  0.
     999903    2    3    3    0    0  0.23031374128E-01 -0.12834718630E+00 -0.14364648296E-01  0.13262689286E+00  0.19496285912E-01 0.  0.
         14    1    1    2    0    0 -0.13716043429E-01  0.10986567909E-01 -0.14812497238E-01  0.22983572311E-01  0.00000000000E+00 0. -1.
     999901    1    3    3    0    0 -0.93153306984E-02  0.11736061839E+00  0.29177145534E-01  0.88831953483E+00  0.88000000000E+00 0. -1.
        -11    1    4    4    0    0  0.15646341146E-01 -0.37743203443E-01 -0.23231787478E-02  0.40926955395E-01  0.51100000000E-03 0.  1.
         11    1    4    4    0    0  0.73850329814E-02 -0.90603982855E-01 -0.12041469548E-01  0.91699937466E-01  0.51100000000E-03 0. -1.
</event>
<event>
 8    1  0.1116841E+005  0.1043930E+01  0.7957747E-01            NaN
         13   -1    0    0    0    0  0.00000000000E+00  0.00000000000E+00  0.74505805969E-08  0.10566000000E+00  0.10566000000E+00 0.  1.
     999900   -1    0    0    0    0 -0.00000000000E+00 -0.00000000000E+00 -0.74505805969E-08  0.93827000000E+00  0.93827000000E+00 0.  1.
     999902    2    1    2    0    0  0.16772474532E-01 -0.16692181288E-01  0.76655333204E-02  0.10190562142E+01  0.10187526012E+01 0.  0.
     999903    2    3    3    0    0 -0.10541056413E+00  0.60219791228E-01  0.31152132958E-01  0.12698235695E+00  0.20402286712E-01 0.  0.
         14    1    1    2    0    0 -0.16772474532E-01  0.16692181288E-01 -0.76655333204E-02  0.24873785783E-01  0.00000000000E+00 0. -1.
     999901    1    3    3    0    0  0.12218303866E+00 -0.76911972516E-01 -0.23486599637E-01  0.89207385727E+00  0.88000000000E+00 0.  1.
        -11    1    4    4    0    0 -0.42959786652E-01  0.31235053762E-01  0.50776688409E-02  0.53359307478E-01  0.51100000000E-03 0.  1.
         11    1    4    4    0    0 -0.62450777480E-01  0.28984737466E-01  0.26074464117E-01  0.73623049473E-01  0.51100000000E-03 0. -1.
</event>
<event>
 8    1  0.1116841E+005  0.1043930E+01  0.7957747E-01            NaN
         13   -1    0    0    0    0  0.00000000000E+00  0.00000000000E+00  0.74505805969E-08  0.10566000000E+00  0.10566000000E+00 0. -1.
     999900   -1    0    0    0    0 -0.00000000000E+00 -0.00000000000E+00 -0.74505805969E-08  0.93827000000E+00  0.93827000000E+00 0. -1.
     999902    2    1    2    0    0  0.12724732294E-01  0.23096414888E-01 -0.56152184052E-02  0.10169690306E+01  0.10166115853E+01 0.  0.
     999903    2    3    3    0    0 -0.10705149371E+00  0.58628219204E-01 -0.32056777420E-01  0.12775139163E+00  0.19886947786E-01 0.  0.
         14    1    1    2    0    0 -0.12724732294E-01 -0.23096414888E-01  0.56152184052E-02  0.26960969389E-01  0.00000000000E+00 0. -1.
     999901    1    3    3    0    0  0.11977622600E+00 -0.35531804315E-01  0.26441559015E-01  0.88921763898E+00  0.88000000000E+00 0.  1.
        -11    1    4    4    0    0 -0.63286279923E-01  0.26475700512E-01 -0.24857213016E-01  0.72967514032E-01  0.51100000000E-03 0.  1.
         11    1    4    4    0    0 -0.43765213786E-01  0.32152518691E-01 -0.71995644038E-02  0.54783877597E-01  0.51100000000E-03 0. -1.
</event>
<event>
 8    1  0.1116841E+005  0.1043930E+01  0.7957747E-01            NaN
         13   -1    0    0    0    0  0.00000000000E+00  0.00000000000E+00  0.74505805969E-08  0.10566000000E+00  0.10566000000E+00 0.  1.
     999900   -1    0    0    0    0 -0.00000000000E+00 -0.00000000000E+00 -0.74505805969E-08  0.93827000000E+00  0.93827000000E+00 0.  1.
     999902    2    1    2    0    0  0.10849849080E-01 -0.16032062802E-01 -0.16146595800E-01  0.10187216915E+01  0.10184097534E+01 0.  0.
     999903    2    3    3    0    0 -0.83518187670E-01 -0.77409875191E-01  0.56303984414E-01  0.12859717839E+00  0.19987975918E-01 0.  0.
         14    1    1    2    0    0 -0.10849849080E-01  0.16032062802E-01  0.16146595800E-01  0.25208308525E-01  0.00000000000E+00 0.  1.
     999901    1    3    3    0    0  0.94368036750E-01  0.61377812389E-01 -0.72450580215E-01  0.89012451308E+00  0.88000000000E+00 0.  1.
        -11    1    4    4    0    0 -0.51409318311E-01 -0.44905627190E-01  0.44223173099E-01  0.81335007976E-01  0.51100000000E-03 0.  1.
         11    1    4    4    0    0 -0.32108869359E-01 -0.32504248001E-01  0.12080811316E-01  0.47262170418E-01  0.51100000000E-03 0. -1.
</event>
<event>
 8    1  0.1116841E+005  0.1043930E+01  0.7957747E-01            NaN
         13   -1    0    0    0    0  0.00000000000E+00  0.00000000000E+00  0.74505805969E-08  0.10566000000E+00  0.10566000000E+00 0. -1.
     999900   -1    0    0    0    0 -0.00000000000E+00 -0.00000000000E+00 -0.74505805969E-08  0.93827000000E+00  0.93827000000E+00 0.  1.
     999902    2    1    2    0    0 -0.15603161107E-01 -0.10124760564E-01  0.14185431167E-01  0.10205377818E+01  0.10202696547E+01 0.  0.
     999903    2    3    3    0    0 -0.17920668829E-01  0.10382937592E+00 -0.71745614763E-01  0.12903620544E+00  0.20030461869E-01 0.  0.
         14    1    1    2    0    0  0.15603161107E-01  0.10124760564E-01 -0.14185431167E-01  0.23392218159E-01  0.00000000000E+00 0.  1.
     999901    1    3    3    0    0  0.23175077214E-02 -0.11395413648E+00  0.85931045930E-01  0.89150157640E+00  0.88000000000E+00 0. -1.
        -11    1    4    4    0    0 -0.44125326232E-02  0.38166837252E-02 -0.14139514127E-02  0.60247737224E-02  0.51100000000E-03 0. -1.
         11    1    4    4    0    0 -0.13508136206E-01  0.10001269219E+00 -0.70331663351E-01  0.12301143172E+00  0.51100000000E-03 0.  1.
</event>
<event>
 8    1  0.1116841E+005  0.1043930E+01  0.7957747E-01            NaN
         13   -1    0    0    0    0  0.00000000000E+00  0.00000000000E+00  0.74505805969E-08  0.10566000000E+00  0.10566000000E+00 0. -1.
     999900   -1    0    0    0    0 -0.00000000000E+00 -0.00000000000E+00 -0.74505805969E-08  0.93827000000E+00  0.93827000000E+00 0. -1.
     999902    2    1    2    0    0 -0.11126141906E-01 -0.18695661562E-01  0.97845296468E-02  0.10200751092E+01  0.10197961427E+01 0.  0.
     999903    2    3    3    0    0 -0.45029447756E-01  0.11739316714E+00 -0.19041134466E-01  0.12850317022E+00  0.18484942498E-01 0.  0.
         14    1    1    2    0    0  0.11126141906E-01  0.18695661562E-01 -0.97845296468E-02  0.23854890806E-01  0.00000000000E+00 0.  1.
     999901    1    3    3    0    0  0.33903305850E-01 -0.13608882870E+00  0.28825664113E-01  0.89157193897E+00  0.88000000000E+00 0.  1.
        -11    1    4    4    0    0 -0.10413386720E-01  0.51910820225E-01 -0.99875370222E-02  0.53881201696E-01  0.51100000000E-03 0.  1.
         11    1    4    4    0    0 -0.34616061037E-01  0.65482346917E-01 -0.90535974442E-02  0.74621968529E-01  0.51100000000E-03 0. -1.
</event>
<event>
 8    1  0.1116841E+005  0.1043930E+01  0.7957747E-01            NaN
         13   -1    0    0    0    0  0.00000000000E+00  0.00000000000E+00  0.74505805969E-08  0.10566000000E+00  0.10566000000E+00 0. -1.
     999900   -1    0    0    0    0 -0.00000000000E+00 -0.00000000000E+00 -0.74505805969E-08  0.93827000000E+00  0.93827000000E+00 0. -1.
     999902    2    1    2    0    0  0.13464388357E-01  0.14502854675E-01  0.14144498043E-01  0.10196053341E+01  0.10193151367E+01 0.  0.
     999903    2    3    3    0    0 -0.46462981352E-01 -0.10953825609E-01 -0.11649157040E+00  0.12758228808E+00  0.20692011120E-01 0.  0.
         14    1    1    2    0    0 -0.13464388357E-01 -0.14502854675E-01 -0.14144498043E-01  0.24324665927E-01  0.00000000000E+00 0.  1.
     999901    1    3    3    0    0  0.59927369709E-01  0.25456680283E-01  0.13063606845E+00  0.89202304600E+00  0.88000000000E+00 0.  1.
        -11    1    4    4    0    0 -0.14567554403E-01 -0.13667186051E-01 -0.46960358928E-01  0.51034714141E-01  0.51100000000E-03 0. -1.
         11    1    4    4    0    0 -0.31895426949E-01  0.27133604419E-02 -0.69531211475E-01  0.76547573935E-01  0.51100000000E-03 0.  1.
</event>
<event>
 8    1  0.1116841E+005  0.1043930E+01  0.7957747E-01            NaN
         13   -1    0    0    0    0  0.00000000000E+00  0.00000000000E+00  0.74505805969E-08  0.10566000000E+00  0.10566000000E+00 0.  1.
     999900   -1    0    0    0    0 -0.00000000000E+00 -0.00000000000E+00 -0.74505805969E-08  0.93827000000E+00  0.93827000000E+00 0. -1.
     999902    2    1    2    0    0 -0.87872684823E-02 -0.23222777156E-01 -0.41449496417E-02  0.10187567191E+01  0.10184456581E+01 0.  0.
     999903    2    3    3    0    0 -0.12671196668E+00  0.84548183463E-02 -0.23642915480E-01  0.13011175329E+00  0.15578011365E-01 0.  0.
         14    1    1    2    0    0  0.87872684823E-02  0.23222777156E-01  0.41449496417E-02  0.25173280949E-01  0.00000000000E+00 0.  1.
     999901    1    3    3    0    0  0.11792469820E+00 -0.31677595502E-01  0.19497965839E-01  0.88864496576E+00  0.88000000000E+00 0. -1.
        -11    1    4    4    0    0 -0.35470460479E-01 -0.31569030079E-02 -0.22960498712E-02  0.35688269350E-01  0.51100000000E-03 0. -1.
         11    1    4    4    0    0 -0.91241506202E-01  0.11611721354E-01 -0.21346865609E-01  0.94423483939E-01  0.51100000000E-03 0.  1.
</event>
<event>
 8    1  0.1116841E+005  0.1043930E+01  0.7957747E-01            NaN
         13   -1    0    0    0    0  0.00000000000E+00  0.00000000000E+00  0.74505805969E-08  0.10566000000E+00  0.10566000000E+00 0. -1.
     999900   -1    0    0    0    0 -0.00000000000E+00 -0.00000000000E+00 -0.74505805969E-08  0.93827000000E+00  0.93827000000E+00 0. -1.
     999902    2    1    2    0    0  0.33876610772E-02 -0.13401192368E-01 -0.15866838177E-01  0.10228865982E+01  0.10226701169E+01 0.  0.
     999903    2    3    3    0    0 -0.34595873795E-01 -0.12589730284E+00 -0.28859018166E-01  0.13481738891E+00  0.17201164980E-01 0.  0.
         14    1    1    2    0    0 -0.33876610772E-02  0.13401192368E-01  0.15866838177E-01  0.21043401773E-01  0.00000000000E+00 0. -1.
     999901    1    3    3    0    0  0.37983534872E-01  0.11249611048E+00  0.12992179989E-01  0.88806920932E+00  0.88000000000E+00 0. -1.
        -11    1    4    4    0    0 -0.28500988060E-01 -0.77989087226E-01 -0.13420876632E-01  0.84112930619E-01  0.51100000000E-03 0. -1.
         11    1    4    4    0    0 -0.60948857347E-02 -0.47908215617E-01 -0.15438141534E-01  0.50704458293E-01  0.51100000000E-03 0.  1.
</event>
<event>
 8    1  0.1116841E+005  0.1043930E+01  0.7957747E-01            NaN
         13   -1    0    0    0    0  0.00000000000E+00  0.00000000000E+00  0.74505805969E-08  0.10566000000E+00  0.10566000000E+00 0. -1.
     999900   -1    0    0    0    0 -0.00000000000E+00 -0.00000000000E+00 -0.74505805969E-08  0.93827000000E+00  0.93827000000E+00 0.  1.
     999902    2    1    2    0    0 -0.21088953083E-01 -0.89157421044E-02 -0.75993346582E-02  0.10198056495E+01  0.10195202688E+01 0.  0.
     999903    2    3    3    0    0 -0.81497336312E-01  0.98588103419E-01  0.18812592117E-01  0.13081530117E+00  0.19932371554E-01 0.  0.
         14    1    1    2    0    0  0.21088953083E-01  0.89157421044E-02  0.75993346582E-02  0.24124350492E-01  0.00000000000E+00 0.  1.
     999901    1    3    3    0    0  0.60408383229E-01 -0.10750384552E+00 -0.26411926775E-01  0.88899034834E+00  0.88000000000E+00 0.  1.
        -11    1    4    4    0    0 -0.41684505561E-01  0.64436893099E-01  0.71499845933E-02  0.77078496332E-01  0.51100000000E-03 0.  1.
         11    1    4    4    0    0 -0.39812830751E-01  0.34151210320E-01  0.11662607524E-01  0.53736804836E-01  0.51100000000E-03 0. -1.
</event>
<event>
 8    1  0.1116841E+005  0.1043930E+01  0.7957747E-01            NaN
         13   -1    0    0    0    0  0.00000000000E+00  0.00000000000E+00  0.74505805969E-08  0.10566000000E+00  0.10566000000E+00 0.  1.
     999900   -1    0    0    0    0 -0.00000000000E+00 -0.00000000000E+00 -0.74505805969E-08  0.93827000000E+00  0.93827000000E+00 0.  1.
     999902    2    1    2    0    0  0.24289361957E-01  0.87528423910E-02 -0.80460067881E-02  0.10168870050E+01  0.10165273520E+01 0.  0.
     999903    2    3    3    0    0  0.12386486127E-01  0.12280960798E+00  0.30120165090E-01  0.12862618692E+00  0.20046116005E-01 0.  0.
         14    1    1    2    0    0 -0.24289361957E-01 -0.87528423910E-02  0.80460067881E-02  0.27042995016E-01  0.00000000000E+00 0.  1.
     999901    1    3    3    0    0  0.11902875830E-01 -0.11405676559E+00 -0.38166171878E-01  0.88826081806E+00  0.88000000000E+00 0. -1.
        -11    1    4    4    0    0  0.60372684636E-02  0.65995894348E-01  0.26391727382E-01  0.71335062041E-01  0.51100000000E-03 0.  1.
         11    1    4    4    0    0  0.63492176634E-02  0.56813713630E-01  0.37284377083E-02  0.57291124880E-01  0.51100000000E-03 0. -1.
</event>
<event>
 8    1  0.1116841E+005  0.1043930E+01  0.7957747E-01            NaN
         13   -1    0    0    0    0  0.00000000000E+00  0.00000000000E+00  0.74505805969E-08  0.10566000000E+00  0.10566000000E+00 0. -1.
     999900   -1    0    0    0    0 -0.00000000000E+00 -0.00000000000E+00 -0.74505805969E-08  0.93827000000E+00  0.93827000000E+00 0. -1.
     999902    2    1    2    0    0 -0.13483197876E-01 -0.30479921553E-02 -0.19084528976E-01  0.10203650657E+01  0.10200929179E+01 0.  0.
     999903    2    3    3    0    0 -0.59364549689E-01  0.82329286484E-03 -0.11807936007E+00  0.13361816730E+00  0.19653289436E-01 0.  0.
         14    1    1    2    0    0  0.13483197876E-01  0.30479921553E-02  0.19084528976E-01  0.23564934275E-01  0.00000000000E+00 0. -1.
     999901    1    3    3    0    0  0.45881351813E-01 -0.38712850201E-02  0.98994831094E-01  0.88674689843E+00  0.88000000000E+00 0.  1.
        -11    1    4    4    0    0 -0.43482884471E-01 -0.59907664180E-02 -0.71107865404E-01  0.83565783474E-01  0.51100000000E-03 0.  1.
         11    1    4    4    0    0 -0.15881665218E-01  0.68140592828E-02 -0.46971494666E-01  0.50052383821E-01  0.51100000000E-03 0. -1.
</event>
<event>
 8    1  0.1116841E+005  0.1043930E+01  0.7957747E-01            NaN
         13   -1    0    0    0    0  0.00000000000E+00  0.00000000000E+00  0.74505805969E-08  0.10566000000E+00  0.10566000000E+00 0.  1.
     999900   -1    0    0    0    0 -0.00000000000E+00 -0.00000000000E+00 -0.74505805969E-08  0.93827000000E+00  0.93827000000E+00 0. -1.
     999902    2    1    2    0    0 -0.10291397354E-01 -0.17378722249E-01  0.11500466247E-01  0.10206879353E+01  0.10204232787E+01 0.  0.
     999903    2    3    3    0    0  0.74303373314E-01 -0.10732396407E+00 -0.61754228911E-03  0.13198479710E+00  0.19498224510E-01 0.  0.
         14    1    1    2    0    0  0.10291397354E-01  0.17378722249E-01 -0.11500466247E-01  0.23242064676E-01  0.00000000000E+00 0.  1.
     999901    1    3    3    0    0 -0.84594770668E-01  0.89945241819E-01  0.12118008536E-01  0.88870313822E+00  0.88000000000E+00 0.  1.
        -11    1    4    4    0    0  0.45055382385E-01 -0.63731567288E-01 -0.98881473802E-02  0.78674879920E-01  0.51100000000E-03 0.  1.
         11    1    4    4    0    0  0.29247990929E-01 -0.43592396780E-01  0.92706050911E-02  0.53309917184E-01  0.51100000000E-03 0. -1.
</event>
<event>
 8    1  0.1116841E+005  0.1043930E+01  0.7957747E-01            NaN
         13   -1    0    0    0    0  0.00000000000E+00  0.00000000000E+00  0.74505805969E-08  0.10566000000E+00  0.10566000000E+00 0.  1.
     999900   -1    0    0    0    0 -0.00000000000E+00 -0.00000000000E+00 -0.74505805969E-08  0.93827000000E+00  0.93827000000E+00 0. -1.
     999902    2    1    2    0    0 -0.81344719510E-02  0.72400210485E-02 -0.17831865904E-01  0.10230359104E+01  0.10228225217E+01 0.  0.
     999903    2    3    3    0    0 -0.10257220972E+00 -0.72548126885E-01 -0.42420570295E-01  0.13405377377E+00  0.19662669058E-01 0.  0.
         14    1    1    2    0    0  0.81344719510E-02 -0.72400210485E-02  0.17831865904E-01  0.20894089602E-01  0.00000000000E+00 0.  1.
     999901    1    3    3    0    0  0.94437737773E-01  0.79788147934E-01  0.24588704391E-01  0.88898213663E+00  0.88000000000E+00 0. -1.
        -11    1    4    4    0    0 -0.53236169206E-01 -0.26472283569E-01 -0.23621751963E-01  0.63977494448E-01  0.51100000000E-03 0. -1.
         11    1    4    4    0    0 -0.49336040518E-01 -0.46075843317E-01 -0.18798818332E-01  0.70076279318E-01  0.51100000000E-03 0.  1.
</event>
<event>
 8    1  0.1116841E+005  0.1043930E+01  0.7957747E-01            NaN
         13   -1    0    0    0    0  0.00000000000E+00  0.00000000000E+00  0.74505805969E-08  0.10566000000E+00  0.10566000000E+00 0. -1.
     999900   -1    0    0    0    0 -0.00000000000E+00 -0.00000000000E+00 -0.74505805969E-08  0.93827000000E+00  0.93827000000E+00 0.  1.
     999902    2    1    2    0    0  0.73050111693E-02 -0.24148477121E-01  0.34799461069E-02  0.10184619384E+01  0.10181434564E+01 0.  0.
     999903    2    3    3    0    0  0.12527528092E+00 -0.22665824345E-01 -0.19166975220E-01  0.13029975400E+00  0.20075292027E-01 0.  0.
         14    1    1    2    0    0 -0.73050111693E-02  0.24148477121E-01 -0.34799461069E-02  0.25468061574E-01  0.00000000000E+00 0. -1.
     999901    1    3    3    0    0 -0.11797026975E+00 -0.14826527763E-02  0.22646921327E-01  0.88816218443E+00  0.88000000000E+00 0. -1.
        -11    1    4    4    0    0  0.49939067872E-01 -0.10263849141E-01 -0.17580472747E-01  0.53931356761E-01  0.51100000000E-03 0.  1.
         11    1    4    4    0    0  0.75336213047E-01 -0.12401975204E-01 -0.15865024737E-02  0.76368397235E-01  0.51100000000E-03 0. -1.
</event>
<event>
 8    1  0.1116841E+005  0.1043930E+01  0.7957747E-01            NaN
         13   -1    0    0    0    0  0.00000000000E+00  0.00000000000E+00  0.74505805969E-08  0.10566000000E+00  0.10566000000E+00 0. -1.
     999900   -1    0    0    0    0 -0.00000000000E+00 -0.00000000000E+00 -0.74505805969E-08  0.93827000000E+00  0.93827000000E+00 0. -1.
     999902    2    1    2    0    0  0.21627779056E-01  0.46165739310E-02 -0.20943763669E-02  0.10217160406E+01  0.10214745261E+01 0.  0.
     999903    2    3    3    0    0 -0.11678289857E+00  0.51535128587E-01 -0.62015921512E-02  0.12965341065E+00  0.21850223624E-01 0.  0.
         14    1    1    2    0    0 -0.21627779056E-01 -0.46165739310E-02  0.20943763669E-02  0.22213959443E-01  0.00000000000E+00 0. -1.
     999901    1    3    3    0    0  0.13841067762E+00 -0.46918554656E-01  0.41072157843E-02  0.89206262990E+00  0.88000000000E+00 0.  1.
        -11    1    4    4    0    0 -0.56727625021E-01  0.33974167197E-01 -0.10411414151E-01  0.66939720218E-01  0.51100000000E-03 0. -1.
         11    1    4    4    0    0 -0.60055273546E-01  0.17560961390E-01  0.42098219999E-02  0.62713690434E-01  0.51100000000E-03 0.  1.
</event>
<event>
 8    1  0.1116841E+005  0.1043930E+01  0.7957747E-01            NaN
         13   -1    0    0    0    0  0.00000000000E+00  0.00000000000E+00  0.74505805969E-08  0.10566000000E+00  0.10566000000E+00 0. -1.
     999900   -1    0    0    0    0 -0.00000000000E+00 -0.00000000000E+00 -0.74505805969E-08  0.93827000000E+00  0.93827000000E+00 0. -1.
     999902    2    1    2    0    0 -0.12208747962E-02 -0.17539300244E-01  0.16136737958E-01  0.10200655515E+01  0.10197863588E+01 0.  0.
     999903    2    3    3    0    0  0.52766546827E-01  0.13336951236E-01 -0.11440508793E+00  0.12826447905E+00  0.20026724849E-01 0.  0.
         14    1    1    2    0    0  0.12208747962E-02  0.17539300244E-01 -0.16136737958E-01  0.23864448459E-01  0.00000000000E+00 0.  1.
     999901    1    3    3    0    0 -0.53987421623E-01 -0.30876251481E-01  0.13054182589E+00  0.89180107250E+00  0.88000000000E+00 0.  1.
        -11    1    4    4    0    0  0.13028436404E-01 -0.37669360708E-02 -0.39442341963E-01  0.41711981768E-01  0.51100000000E-03 0.  1.
         11    1    4    4    0    0  0.39738110423E-01  0.17103887307E-01 -0.74962745966E-01  0.86552497277E-01  0.51100000000E-03 0. -1.
</event>
<event>
 8    1  0.1116841E+005  0.1043930E+01  0.7957747E-01            NaN
         13   -1    0    0    0    0  0.00000000000E+00  0.00000000000E+00  0.74505805969E-08  0.10566000000E+00  0.10566000000E+00 0.  1.
     999900   -1    0    0    0    0 -0.00000000000E+00 -0.00000000000E+00 -0.74505805969E-08  0.93827000000E+00  0.93827000000E+00 0. -1.
     999902    2    1    2    0    0  0.10201673270E-01  0.19827162787E-01 -0.43212030109E-02  0.10212173754E+01  0.10209647714E+01 0.  0.
     999903    2    3    3    0    0 -0.65657866383E-01  0.47596539769E-01 -0.10230198764E+00  0.13210206103E+00  0.20220579527E-01 0.  0.
         14    1    1    2    0    0 -0.10201673270E-01 -0.19827162787E-01  0.43212030109E-02  0.22712624620E-01  0.00000000000E+00 0.  1.
     999901    1    3    3    0    0  0.75859539653E-01 -0.27769376983E-01  0.97980784633E-01  0.88911531435E+00  0.88000000000E+00 0.  1.
        -11    1    4    4    0    0 -0.31058900865E-01  0.34869913461E-01 -0.56171716053E-01  0.73048538609E-01  0.51100000000E-03 0.  1.
         11    1    4    4    0    0 -0.34598965518E-01  0.12726626309E-01 -0.46130271592E-01  0.59053522420E-01  0.51100000000E-03 0. -1.
</event>
<event>
 8    1  0.1116841E+005  0.1043930E+01  0.7957747E-01            NaN
         13   -1    0    0    0    0  0.00000000000E+00  0.00000000000E+00  0.74505805969E-08  0.10566000000E+00  0.10566000000E+00 0.  1.
     999900   -1    0    0    0    0 -0.00000000000E+00 -0.00000000000E+00 -0.74505805969E-08  0.93827000000E+00  0.93827000000E+00 0. -1.
     999902    2    1    2    0    0 -0.23293269255E-01  0.34518996308E-02 -0.64593009482E-02  0.10195124946E+01  0.10192200508E+01 0.  0.
     999903    2    3    3    0    0 -0.12807837175E+00  0.29821041293E-01  0.83171331243E-03  0.13287366829E+00  0.19009370418E-01 0.  0.
         14    1    1    2    0    0  0.23293269255E-01 -0.34518996308E-02  0.64593009482E-02  0.24417505449E-01  0.00000000000E+00 0. -1.
     999901    1    3    3    0    0  0.10478510250E+00 -0.26369141662E-01 -0.72910142607E-02  0.88663882626E+00  0.88000000000E+00 0. -1.
        -11    1    4    4    0    0 -0.62059764781E-01  0.19779026600E-01  0.83558607754E-02  0.65671194813E-01  0.51100000000E-03 0. -1.
         11    1    4    4    0    0 -0.66018606973E-01  0.10042014693E-01 -0.75241474629E-02  0.67202473480E-01  0.51100000000E-03 0.  1.
</event>
<event>
 8    1  0.1116841E+005  0.1043930E+01  0.7957747E-01            NaN
         13   -1    0    0    0    0  0.00000000000E+00  0.00000000000E+00  0.74505805969E-08  0.10566000000E+00  0.10566000000E+00 0.  1.
     999900   -1    0    0    0    0 -0.00000000000E+00 -0.00000000000E+00 -0.74505805969E-08  0.93827000000E+00  0.93827000000E+00 0. -1.
     999902    2    1    2    0    0  0.11576621078E-01  0.85699109240E-02 -0.18739990477E-01  0.10202942480E+01  0.10200204428E+01 0.  0.
     999903    2    3    3    0    0 -0.12461736764E+00  0.24542167291E-01  0.11298032225E-01  0.12916788305E+00  0.20612864581E-01 0.  0.
         14    1    1    2    0    0 -0.11576621078E-01 -0.85699109240E-02  0.18739990477E-01  0.23635751985E-01  0.00000000000E+00 0.  1.
     999901    1    3    3    0    0  0.13619398871E+00 -0.15972256367E-01 -0.30038022702E-01  0.89112636497E+00  0.88000000000E+00 0.  1.
        -11    1    4    4    0    0 -0.79178945852E-01  0.23849234265E-01  0.16623191592E-02  0.82711038364E-01  0.51100000000E-03 0. -1.
         11    1    4    4    0    0 -0.45438421785E-01  0.69293302565E-03  0.96357130655E-02  0.46456844681E-01  0.51100000000E-03 0.  1.
</event>
<event>
 8    1  0.1116841E+005  0.1043930E+01  0.7957747E-01            NaN
         13   -1    0    0    0    0  0.00000000000E+00  0.00000000000E+00  0.74505805969E-08  0.10566000000E+00  0.10566000000E+00 0. -1.
     999900   -1    0    0    0    0 -0.00000000000E+00 -0.00000000000E+00 -0.74505805969E-08  0.93827000000E+00  0.93827000000E+00 0.  1.
     999902    2    1    2    0    0 -0.84210329230E-03  0.20677712423E-01  0.10108165580E-01  0.10208984577E+01  0.10206386280E+01 0.  0.
     999903    2    3    3    0    0  0.31239582275E-01  0.32590182156E-01 -0.12088922838E+00  0.13054377630E+00  0.19734247315E-01 0.  0.
         14    1    1    2    0    0  0.84210329230E-03 -0.20677712423E-01 -0.10108165580E-01  0.23031542293E-01  0.00000000000E+00 0.  1.
     999901    1    3    3    0    0 -0.32081685568E-01 -0.11912469733E-01  0.13099739396E+00  0.89035468141E+00  0.88000000000E+00 0. -1.
        -11    1    4    4    0    0  0.18109586915E-01  0.54407556813E-02 -0.52294582447E-01  0.55610641382E-01  0.51100000000E-03 0.  1.
         11    1    4    4    0    0  0.13129995360E-01  0.27149426475E-01 -0.68594645935E-01  0.74933134914E-01  0.51100000000E-03 0. -1.
</event>
<event>
 8    1  0.1116841E+005  0.1043930E+01  0.7957747E-01            NaN
         13   -1    0    0    0    0  0.00000000000E+00  0.00000000000E+00  0.74505805969E-08  0.10566000000E+00  0.10566000000E+00 0. -1.
     999900   -1    0    0    0    0 -0.00000000000E+00 -0.00000000000E+00 -0.74505805969E-08  0.93827000000E+00  0.93827000000E+00 0. -1.
     999902    2    1    2    0    0 -0.19452109323E-01 -0.12756666858E-01 -0.38194532212E-02  0.10203565970E+01  0.10200842513E+01 0.  0.
     999903    2    3    3    0    0 -0.58727190302E-02 -0.35773028544E-01  0.12400281419E+00  0.13072033155E+00  0.19922568923E-01 0.  0.
         14    1    1    2    0    0  0.19452109323E-01  0.12756666858E-01  0.38194532212E-02  0.23573403008E-01  0.00000000000E+00 0. -1.
     999901    1    3    3    0    0 -0.13579390293E-01  0.23016361686E-01 -0.12782226741E+00  0.88963626544E+00  0.88000000000E+00 0. -1.
        -11    1    4    4    0    0  0.59389831777E-02 -0.36201349475E-02  0.17291212824E-01  0.18644679137E-01  0.51100000000E-03 0.  1.
         11    1    4    4    0    0 -0.11811702208E-01 -0.32152893597E-01  0.10671160137E+00  0.11207565241E+00  0.51100000000E-03 0. -1.
</event>
<event>
 8    1  0.1116841E+005  0.1043930E+01  0.7957747E-01            NaN
         13   -1    0    0    0    0  0.00000000000E+00  0.00000000000E+00  0.74505805969E-08  0.10566000000E+00  0.10566000000E+00 0.  1.
     999900   -1    0    0    0    0 -0.00000000000E+00 -0.00000000000E+00 -0.74505805969E-08  0.93827000000E+00  0.93827000000E+00 0.  1.
     999902    2    1    2    0    0  0.40549135722E-02  0.50477417276E-02  0.23710793428E-01  0.10193510711E+01  0.10190547004E+01 0.  0.
     999903    2    3    3    0    0 -0.71764791063E-01 -0.12497536902E-01 -0.10230965300E+00  0.12697356280E+00  0.18672088481E-01 0.  0.
         14    1    1    2    0    0 -0.40549135722E-02 -0.50477417276E-02 -0.23710793428E-01  0.24578928895E-01  0.00000000000E+00 0. -1.
     999901    1    3    3    0    0  0.75819704635E-01  0.17545278629E-01  0.12602044643E+00  0.89237750831E+00  0.88000000000E+00 0. -1.
        -11    1    4    4    0    0 -0.14052769324E-01 -0.54746697644E-02 -0.34473049136E-01  0.37631164910E-01  0.51100000000E-03 0.  1.
         11    1    4    4    0    0 -0.57712021739E-01 -0.70228671374E-02 -0.67836603862E-01  0.89342397889E-01  0.51100000000E-03 0. -1.
</event>
<event>
 8    1  0.1116841E+005  0.1043930E+01  0.7957747E-01            NaN
         13   -1    0    0    0    0  0.00000000000E+00  0.00000000000E+00  0.74505805969E-08  0.10566000000E+00  0.10566000000E+00 0. -1.
     999900   -1    0    0    0    0 -0.00000000000E+00 -0.00000000000E+00 -0.74505805969E-08  0.93827000000E+00  0.93827000000E+00 0.  1.
     999902    2    1    2    0    0  0.11085125556E-01 -0.14931930107E-03 -0.16835872305E-01  0.10237719023E+01  0.10235734263E+01 0.  0.
     999903    2    3    3    0    0 -0.85139683742E-01  0.96094818455E-01  0.25189477664E-01  0.13231899948E+00  0.19769369186E-01 0.  0.
         14    1    1    2    0    0 -0.11085125556E-01  0.14931930107E-03  0.16835872305E-01  0.20158097656E-01  0.00000000000E+00 0. -1.
     999901    1    3    3    0    0  0.96224809298E-01 -0.96244137756E-01 -0.42025349969E-01  0.89145290286E+00  0.88000000000E+00 0.  1.
        -11    1    4    4    0    0 -0.53634405138E-01  0.66379932829E-01  0.79783077939E-02  0.85713822766E-01  0.51100000000E-03 0.  1.
         11    1    4    4    0    0 -0.31505278604E-01  0.29714885626E-01  0.17211169870E-01  0.46605176719E-01  0.51100000000E-03 0. -1.
</event>
<event>
 8    1  0.1116841E+005  0.1043930E+01  0.7957747E-01            NaN
         13   -1    0    0    0    0  0.00000000000E+00  0.00000000000E+00  0.74505805969E-08  0.10566000000E+00  0.10566000000E+00 0.  1.
     999900   -1    0    0    0    0 -0.00000000000E+00 -0.00000000000E+00 -0.74505805969E-08  0.93827000000E+00  0.93827000000E+00 0. -1.
     999902    2    1    2    0    0  0.19113287333E-01  0.34584625662E-02 -0.13759778458E-01  0.10201264242E+01  0.10198486707E+01 0.  0.
     999903    2    3    3    0    0  0.11774322811E+00 -0.56234977957E-01 -0.13262255916E-01  0.13260661060E+00  0.19564897984E-01 0.  0.
         14    1    1    2    0    0 -0.19113287333E-01 -0.34584625662E-02  0.13759778458E-01  0.23803575765E-01  0.00000000000E+00 0.  1.
     999901    1    3    3    0    0 -0.98629940775E-01  0.59693440523E-01 -0.49752254164E-03  0.88751981363E+00  0.88000000000E+00 0.  1.
        -11    1    4    4    0    0  0.55597425611E-01 -0.36783356764E-01 -0.99205782636E-02  0.67400059818E-01  0.51100000000E-03 0. -1.
         11    1    4    4    0    0  0.62145802496E-01 -0.19451621193E-01 -0.33416776525E-02  0.65206550786E-01  0.51100000000E-03 0.  1.
</event>
<event>
 7    1  0.1116841E+005  0.1043930E+01  0.7957747E-01            NaN
         13   -1    0    0    0    0  0.00000000000E+00  0.00000000000E+00  0.74505805969E-08  0.10566000000E+00  0.10566000000E+00 0. -1.
     999900   -1    0    0    0    0 -0.00000000000E+00 -0.00000000000E+00 -0.74505805969E-08  0.93827000000E+00  0.93827000000E+00 0.  1.
     999903    2    1    2    0    0  0.45194060545E-01 -0.10429889565E+00  0.13089545344E-01  0.11628870114E+00  0.20759650130E-01 0.  0.
         14    1    1    2    0    0 -0.26791103731E-01  0.62295062359E-02 -0.31489871880E-01  0.41811266640E-01  0.00000000000E+00 0. -1.
     999901    1    1    2    0    0 -0.18402956814E-01  0.98069389416E-01  0.18400326536E-01  0.88583003222E+00  0.88000000000E+00 0.  1.
        -11    1    3    3    0    0  0.31089533140E-01 -0.47144250618E-01  0.29615587601E-02  0.56552377390E-01  0.51100000000E-03 0. -1.
         11    1    3    3    0    0  0.14104527405E-01 -0.57154645035E-01  0.10127986584E-01  0.59736323754E-01  0.51100000000E-03 0.  1.
</event>
<event>
 8    1  0.1116841E+005  0.1043930E+01  0.7957747E-01            NaN
         13   -1    0    0    0    0  0.00000000000E+00  0.00000000000E+00  0.74505805969E-08  0.10566000000E+00  0.10566000000E+00 0. -1.
     999900   -1    0    0    0    0 -0.00000000000E+00 -0.00000000000E+00 -0.74505805969E-08  0.93827000000E+00  0.93827000000E+00 0.  1.
     999902    2    1    2    0    0 -0.16357484101E-02 -0.17253155070E-01 -0.12232665202E-01  0.10227171470E+01  0.10224971285E+01 0.  0.
     999903    2    3    3    0    0 -0.11242152306E+00  0.66464312385E-01 -0.34953977118E-02  0.13178592519E+00  0.17297647417E-01 0.  0.
         14    1    1    2    0    0  0.16357484101E-02  0.17253155070E-01  0.12232665202E-01  0.21212852960E-01  0.00000000000E+00 0. -1.
     999901    1    3    3    0    0  0.11078577465E+00 -0.83717467455E-01 -0.87372674902E-02  0.89093122185E+00  0.88000000000E+00 0. -1.
        -11    1    4    4    0    0 -0.51125313558E-01  0.21304423283E-01  0.22276894753E-02  0.55433742966E-01  0.51100000000E-03 0. -1.
         11    1    4    4    0    0 -0.61296209499E-01  0.45159889102E-01 -0.57230871871E-02  0.76352182226E-01  0.51100000000E-03 0.  1.
</event>
<event>
 8    1  0.1116841E+005  0.1043930E+01  0.7957747E-01            NaN
         13   -1    0    0    0    0  0.00000000000E+00  0.00000000000E+00  0.74505805969E-08  0.10566000000E+00  0.10566000000E+00 0.  1.
     999900   -1    0    0    0    0 -0.00000000000E+00 -0.00000000000E+00 -0.74505805969E-08  0.93827000000E+00  0.93827000000E+00 0.  1.
     999902    2    1    2    0    0 -0.15668949906E-01  0.12525296415E-01 -0.12683322464E-01  0.10201967805E+01  0.10199206857E+01 0.  0.
     999903    2    3    3    0    0  0.17216130618E-01  0.12218288907E+00 -0.43175516365E-01  0.13225759895E+00  0.20072212923E-01 0.  0.
         14    1    1    2    0    0  0.15668949906E-01 -0.12525296415E-01  0.12683322464E-01  0.23733219549E-01  0.00000000000E+00 0.  1.
     999901    1    3    3    0    0 -0.32885080524E-01 -0.10965759266E+00  0.30492193901E-01  0.88793918150E+00  0.88000000000E+00 0. -1.
        -11    1    4    4    0    0  0.83582220032E-02  0.41660784086E-01 -0.52736932922E-02  0.42820015970E-01  0.51100000000E-03 0.  1.
         11    1    4    4    0    0  0.88579086144E-02  0.80522104988E-01 -0.37901823073E-01  0.89437582984E-01  0.51100000000E-03 0. -1.
</event>
<event>
 8    1  0.1116841E+005  0.1043930E+01  0.7957747E-01            NaN
         13   -1    0    0    0    0  0.00000000000E+00  0.00000000000E+00  0.74505805969E-08  0.10566000000E+00  0.10566000000E+00 0.  1.
     999900   -1    0    0    0    0 -0.00000000000E+00 -0.00000000000E+00 -0.74505805969E-08  0.93827000000E+00  0.93827000000E+00 0.  1.
     999902    2    1    2    0    0  0.23230805987E-01  0.37664212012E-02  0.24570752869E-02  0.10202679313E+01  0.10199935089E+01 0.  0.
     999903    2    3    3    0    0  0.49620761584E-01  0.37001351862E-02  0.12056252626E+00  0.13198569480E+00  0.20223499049E-01 0.  0.
         14    1    1    2    0    0 -0.23230805987E-01 -0.37664212012E-02 -0.24570752869E-02  0.23662068685E-01  0.00000000000E+00 0. -1.
     999901    1    3    3    0    0 -0.26389955597E-01  0.66286015034E-04 -0.11810545098E+00  0.88828223651E+00  0.88000000000E+00 0.  1.
        -11    1    4    4    0    0  0.40616865118E-01  0.11018916952E-01  0.95455845637E-01  0.10432270055E+00  0.51100000000E-03 0.  1.
         11    1    4    4    0    0  0.90038964657E-02 -0.73187817659E-02  0.25106680626E-01  0.27662994255E-01  0.51100000000E-03 0. -1.
</event>
<event>
 8    1  0.1116841E+005  0.1043930E+01  0.7957747E-01            NaN
         13   -1    0    0    0    0  0.00000000000E+00  0.00000000000E+00  0.74505805969E-08  0.10566000000E+00  0.10566000000E+00 0.  1.
     999900   -1    0    0    0    0 -0.00000000000E+00 -0.00000000000E+00 -0.74505805969E-08  0.93827000000E+00  0.93827000000E+00 0.  1.
     999902    2    1    2    0    0 -0.12506881131E-01  0.19136105451E-01 -0.72386621925E-02  0.10199506164E+01  0.10196686957E+01 0.  0.
     999903    2    3    3    0    0  0.49004104655E-01 -0.91705542531E-01 -0.72893526475E-01  0.12844625101E+00  0.19330400764E-01 0.  0.
         14    1    1    2    0    0  0.12506881131E-01 -0.19136105451E-01  0.72386621925E-02  0.23979383599E-01  0.00000000000E+00 0.  1.
     999901    1    3    3    0    0 -0.61510985786E-01  0.11084164798E+00  0.65654864283E-01  0.89150436539E+00  0.88000000000E+00 0. -1.
        -11    1    4    4    0    0  0.47734429285E-01 -0.82446022822E-01 -0.71197101827E-01  0.11893364052E+00  0.51100000000E-03 0. -1.
         11    1    4    4    0    0  0.12696753702E-02 -0.92595197081E-02 -0.16964246479E-02  0.95126104912E-02  0.51100000000E-03 0.  1.
</event>
<event>
 8    1  0.1116841E+005  0.1043930E+01  0.7957747E-01            NaN
         13   -1    0    0    0    0  0.00000000000E+00  0.00000000000E+00  0.74505805969E-08  0.10566000000E+00  0.10566000000E+00 0. -1.
     999900   -1    0    0    0    0 -0.00000000000E+00 -0.00000000000E+00 -0.74505805969E-08  0.93827000000E+00  0.93827000000E+00 0. -1.
     999902    2    1    2    0    0 -0.45712701802E-02 -0.14019012216E-02  0.13942233635E-01  0.10291906745E+01  0.10290851261E+01 0.  0.
     999903    2    3    3    0    0  0.34964860510E-01  0.92098184247E-01 -0.92853396488E-01  0.13694032944E+00  0.20646635924E-01 0.  0.
         14    1    1    2    0    0  0.45712701802E-02  0.14019012216E-02 -0.13942233635E-01  0.14739325521E-01  0.00000000000E+00 0.  1.
     999901    1    3    3    0    0 -0.39536130691E-01 -0.93500085469E-01  0.10679563012E+00  0.89225034504E+00  0.88000000000E+00 0.  1.
        -11    1    4    4    0    0  0.34198546821E-01  0.71419017206E-01 -0.80062079209E-01  0.11260734555E+00  0.51100000000E-03 0.  1.
         11    1    4    4    0    0  0.76631368971E-03  0.20679167041E-01 -0.12791317279E-01  0.24332983889E-01  0.51100000000E-03 0. -1.
</event>
<event>
 8    1  0.1116841E+005  0.1043930E+01  0.7957747E-01            NaN
         13   -1    0    0    0    0  0.00000000000E+00  0.00000000000E+00  0.74505805969E-08  0.10566000000E+00  0.10566000000E+00 0.  1.
     999900   -1    0    0    0    0 -0.00000000000E+00 -0.00000000000E+00 -0.74505805969E-08  0.93827000000E+00  0.93827000000E+00 0. -1.
     999902    2    1    2    0    0  0.17239758296E-01  0.12175651350E-02 -0.15891714360E-01  0.10204515351E+01  0.10201814040E+01 0.  0.
     999903    2    3    3    0    0  0.56817300876E-01 -0.57446251541E-01 -0.10403276606E+00  0.13322176196E+00  0.19923452318E-01 0.  0.
         14    1    1    2    0    0 -0.17239758296E-01 -0.12175651350E-02  0.15891714360E-01  0.23478464947E-01  0.00000000000E+00 0.  1.
     999901    1    3    3    0    0 -0.39577542580E-01  0.58663816675E-01  0.88141051697E-01  0.88722977309E+00  0.88000000000E+00 0.  1.
        -11    1    4    4    0    0  0.11984376450E-01 -0.18803348364E-01 -0.41527109741E-01  0.47137598083E-01  0.51100000000E-03 0. -1.
         11    1    4    4    0    0  0.44832924426E-01 -0.38642903177E-01 -0.62505656315E-01  0.86084163880E-01  0.51100000000E-03 0.  1.
</event>
<event>
 8    1  0.1116841E+005  0.1043930E+01  0.7957747E-01            NaN
         13   -1    0    0    0    0  0.00000000000E+00  0.00000000000E+00  0.74505805969E-08  0.10566000000E+00  0.10566000000E+00 0. -1.
     999900   -1    0    0    0    0 -0.00000000000E+00 -0.00000000000E+00 -0.74505805969E-08  0.93827000000E+00  0.93827000000E+00 0.  1.
     999902    2    1    2    0    0 -0.83265537850E-02  0.22063184189E-01 -0.38161486149E-02  0.10200411201E+01  0.10197613486E+01 0.  0.
     999903    2    3    3    0    0  0.17177219766E-01  0.44875099515E-01  0.12012949622E+00  0.13069678359E+00  0.18485722654E-01 0.  0.
         14    1    1    2    0    0  0.83265537850E-02 -0.22063184189E-01  0.38161486149E-02  0.23888879939E-01  0.00000000000E+00 0. -1.
     999901    1    3    3    0    0 -0.25503773551E-01 -0.22811915326E-01 -0.12394564484E+00  0.88934433647E+00  0.88000000000E+00 0.  1.
        -11    1    4    4    0    0 -0.28372650364E-02  0.16506757615E-01  0.39969648662E-01  0.43340016786E-01  0.51100000000E-03 0.  1.
         11    1    4    4    0    0  0.20014484803E-01  0.28368341901E-01  0.80159847558E-01  0.87356766800E-01  0.51100000000E-03 0. -1.
</event>
<event>
 8    1  0.1116841E+005  0.1043930E+01  0.7957747E-01            NaN
         13   -1    0    0    0    0  0.00000000000E+00  0.00000000000E+00  0.74505805969E-08  0.10566000000E+00  0.10566000000E+00 0. -1.
     999900   -1    0    0    0    0 -0.00000000000E+00 -0.00000000000E+00 -0.74505805969E-08  0.93827000000E+00  0.93827000000E+00 0. -1.
     999902    2    1    2    0    0 -0.22254739365E-01 -0.74307061857E-02  0.47469877650E-02  0.10199921072E+01  0.10197111729E+01 0.  0.
     999903    2    3    3    0    0 -0.59995693105E-01  0.52857760256E-01 -0.10174441747E+00  0.13072302635E+00  0.18524500539E-01 0.  0.
         14    1    1    2    0    0  0.22254739365E-01  0.74307061857E-02 -0.47469877650E-02  0.23937892795E-01  0.00000000000E+00 0.  1.
     999901    1    3    3    0    0  0.37740953740E-01 -0.60288466442E-01  0.10649140524E+00  0.88926908086E+00  0.88000000000E+00 0.  1.
        -11    1    4    4    0    0 -0.37290555171E-01  0.42704707682E-01 -0.63815594618E-01  0.85363744064E-01  0.51100000000E-03 0. -1.
         11    1    4    4    0    0 -0.22705137934E-01  0.10153052575E-01 -0.37928822857E-01  0.45359282286E-01  0.51100000000E-03 0.  1.
</event>
<event>
 8    1  0.1116841E+005  0.1043930E+01  0.7957747E-01            NaN
         13   -1    0    0    0    0  0.00000000000E+00  0.00000000000E+00  0.74505805969E-08  0.10566000000E+00  0.10566000000E+00 0. -1.
     999900   -1    0    0    0    0 -0.00000000000E+00 -0.00000000000E+00 -0.74505805969E-08  0.93827000000E+00  0.93827000000E+00 0.  1.
     999902    2    1    2    0    0 -0.46394868964E-04 -0.14996964509E-01 -0.17008891838E-01  0.10212537239E+01  0.10210019368E+01 0.  0.
     999903    2    3    3    0    0  0.74488202176E-01  0.76881154806E-01 -0.73783443701E-01  0.13152323396E+00  0.19878638741E-01 0.  0.
         14    1    1    2    0    0  0.46394868964E-04  0.14996964509E-01  0.17008891838E-01  0.22676276117E-01  0.00000000000E+00 0. -1.
     999901    1    3    3    0    0 -0.74534597045E-01 -0.91878119316E-01  0.56774551863E-01  0.88973048993E+00  0.88000000000E+00 0. -1.
        -11    1    4    4    0    0  0.63030382172E-01  0.67366429862E-01 -0.70879060083E-01  0.11634073761E+00  0.51100000000E-03 0.  1.
         11    1    4    4    0    0  0.11457820004E-01  0.95147249444E-02 -0.29043836178E-02  0.15182496343E-01  0.51100000000E-03 0. -1.
</event>
<event>
 8    1  0.1116841E+005  0.1043930E+01  0.7957747E-01            NaN
         13   -1    0    0    0    0  0.00000000000E+00  0.00000000000E+00  0.74505805969E-08  0.10566000000E+00  0.10566000000E+00 0.  1.
     999900   -1    0    0    0    0 -0.00000000000E+00 -0.00000000000E+00 -0.74505805969E-08  0.93827000000E+00  0.93827000000E+00 0. -1.
     999902    2    1    2    0    0 -0.12456784591E-01  0.18096458394E-01  0.10001813405E-01  0.10197910365E+01  0.10195053058E+01 0.  0.
     999903    2    3    3    0    0 -0.40925698784E-01  0.12234067209E+00  0.25312241965E-01  0.13304882794E+00  0.20472619654E-01 0.  0.
         14    1    1    2    0    0  0.12456784591E-01 -0.18096458394E-01 -0.10001813405E-01  0.24138963526E-01  0.00000000000E+00 0. -1.
     999901    1    3    3    0    0  0.28468914193E-01 -0.10424421370E+00 -0.15310428560E-01  0.88674220853E+00  0.88000000000E+00 0. -1.
        -11    1    4    4    0    0 -0.18929599063E-01  0.36358300557E-01  0.91704395643E-03  0.41004363557E-01  0.51100000000E-03 0.  1.
         11    1    4    4    0    0 -0.21996099721E-01  0.85982371534E-01  0.24395198008E-01  0.92044464387E-01  0.51100000000E-03 0. -1.
</event>
<event>
 8    1  0.1116841E+005  0.1043930E+01  0.7957747E-01            NaN
         13   -1    0    0    0    0  0.00000000000E+00  0.00000000000E+00  0.74505805969E-08  0.10566000000E+00  0.10566000000E+00 0. -1.
     999900   -1    0    0    0    0 -0.00000000000E+00 -0.00000000000E+00 -0.74505805969E-08  0.93827000000E+00  0.93827000000E+00 0.  1.
     999902    2    1    2    0    0  0.10194922086E-01  0.13830626765E-01  0.16383078281E-01  0.10201891507E+01  0.10199128763E+01 0.  0.
     999903    2    3    3    0    0 -0.91215021738E-01 -0.76755545997E-01 -0.41533456967E-01  0.12786401012E+00  0.20312139327E-01 0.  0.
         14    1    1    2    0    0 -0.10194922086E-01 -0.13830626765E-01 -0.16383078281E-01  0.23740849332E-01  0.00000000000E+00 0.  1.
     999901    1    3    3    0    0  0.10140994382E+00  0.90586172762E-01  0.57916535247E-01  0.89232514055E+00  0.88000000000E+00 0. -1.
        -11    1    4    4    0    0 -0.10339885102E-01 -0.16669452528E-02 -0.22802392470E-02  0.10730915265E-01  0.51100000000E-03 0. -1.
         11    1    4    4    0    0 -0.80875136635E-01 -0.75088600745E-01 -0.39253217720E-01  0.11713309485E+00  0.51100000000E-03 0.  1.
</event>
<event>
 8    1  0.1116841E+005  0.1043930E+01  0.7957747E-01            NaN
         13   -1    0    0    0    0  0.00000000000E+00  0.00000000000E+00  0.74505805969E-08  0.10566000000E+00  0.10566000000E+00 0.  1.
     999900   -1    0    0    0    0 -0.00000000000E+00 -0.00000000000E+00 -0.74505805969E-08  0.93827000000E+00  0.93827000000E+00 0.  1.
     999902    2    1    2    0    0  0.19081252620E-01 -0.14935741866E-01 -0.11581555026E-02  0.10196707356E+01  0.10193821153E+01 0.  0.
     999903    2    3    3    0    0 -0.47213709742E-01 -0.39416690114E-01  0.11133052954E+00  0.12969992530E+00  0.25392399816E-01 0.  0.
         14    1    1    2    0    0 -0.19081252620E-01  0.14935741866E-01  0.11581555026E-02  0.24259264432E-01  0.00000000000E+00 0. -1.
     999901    1    3    3    0    0  0.66294962362E-01  0.24480948248E-01 -0.11248868504E+00  0.88997081027E+00  0.88000000000E+00 0. -1.
        -11    1    4    4    0    0 -0.11600923836E-01 -0.19592254030E-01  0.59842477529E-01  0.64029845304E-01  0.51100000000E-03 0.  1.
         11    1    4    4    0    0 -0.35612785906E-01 -0.19824436083E-01  0.51488052012E-01  0.65670079998E-01  0.51100000000E-03 0. -1.
</event>
<event>
 8    1  0.1116841E+005  0.1043930E+01  0.7957747E-01            NaN
         13   -1    0    0    0    0  0.00000000000E+00  0.00000000000E+00  0.74505805969E-08  0.10566000000E+00  0.10566000000E+00 0.  1.
     999900   -1    0    0    0    0 -0.00000000000E+00 -0.00000000000E+00 -0.74505805969E-08  0.93827000000E+00  0.93827000000E+00 0.  1.
     999902    2    1    2    0    0 -0.21737125902E-01 -0.90246061000E-02  0.27451350710E-02  0.10202343902E+01  0.10199591801E+01 0.  0.
     999903    2    3    3    0    0 -0.93936777069E-01  0.85138554563E-01 -0.29352200987E-01  0.13169079000E+00  0.20204477447E-01 0.  0.
         14    1    1    2    0    0  0.21737125902E-01  0.90246061000E-02 -0.27451350710E-02  0.23695609811E-01  0.00000000000E+00 0.  1.
     999901    1    3    3    0    0  0.72199651167E-01 -0.94163160663E-01  0.32097336058E-01  0.88854360019E+00  0.88000000000E+00 0.  1.
        -11    1    4    4    0    0 -0.42446435583E-01  0.37171763683E-01 -0.23341873575E-01  0.61061805509E-01  0.51100000000E-03 0.  1.
         11    1    4    4    0    0 -0.51490341486E-01  0.47966790880E-01 -0.60103274115E-02  0.70628984491E-01  0.51100000000E-03 0. -1.
</event>
<event>
 8    1  0.1116841E+005  0.1043930E+01  0.7957747E-01            NaN
         13   -1    0    0    0    0  0.00000000000E+00  0.00000000000E+00  0.74505805969E-08  0.10566000000E+00  0.10566000000E+00 0.  1.
     999900   -1    0    0    0    0 -0.00000000000E+00 -0.00000000000E+00 -0.74505805969E-08  0.93827000000E+00  0.93827000000E+00 0. -1.
     999902    2    1    2    0    0  0.19145149034E-01 -0.15806942762E-01 -0.26056189559E-02  0.10189663180E+01  0.10186604791E+01 0.  0.
     999903    2    3    3    0    0  0.12295699164E+00  0.14186665850E-01  0.38337662785E-01  0.13141188721E+00  0.21900329441E-01 0.  0.
         14    1    1    2    0    0 -0.19145149034E-01  0.15806942762E-01  0.26056189559E-02  0.24963682044E-01  0.00000000000E+00 0.  1.
     999901    1    3    3    0    0 -0.10381184261E+00 -0.29993608612E-01 -0.40943281741E-01  0.88755443075E+00  0.88000000000E+00 0.  1.
        -11    1    4    4    0    0  0.30025344246E-01 -0.32930468704E-02  0.16254130733E-01  0.34304858864E-01  0.51100000000E-03 0.  1.
         11    1    4    4    0    0  0.92931647397E-01  0.17479712720E-01  0.22083532052E-01  0.97107028343E-01  0.51100000000E-03 0. -1.
</event>
<event>
 8    1  0.1116841E+005  0.1043930E+01  0.7957747E-01            NaN
         13   -1    0    0    0    0  0.00000000000E+00  0.00000000000E+00  0.74505805969E-08  0.10566000000E+00  0.10566000000E+00 0.  1.
     999900   -1    0    0    0    0 -0.00000000000E+00 -0.00000000000E+00 -0.74505805969E-08  0.93827000000E+00  0.93827000000E+00 0. -1.
     999902    2    1    2    0    0 -0.14486996370E-01  0.14475216552E-01  0.11927833829E-01  0.10202302494E+01  0.10199549420E+01 0.  0.
     999903    2    3    3    0    0  0.29608493204E-01 -0.33445234880E-01  0.12161370615E+00  0.13103298645E+00  0.19608758494E-01 0.  0.
         14    1    1    2    0    0  0.14486996370E-01 -0.14475216552E-01 -0.11927833829E-01  0.23699750587E-01  0.00000000000E+00 0.  1.
     999901    1    3    3    0    0 -0.44095489574E-01  0.47920451432E-01 -0.10968587232E+00  0.88919726296E+00  0.88000000000E+00 0. -1.
        -11    1    4    4    0    0  0.90220076407E-02 -0.14225015765E-01  0.23250040485E-01  0.28715382619E-01  0.51100000000E-03 0.  1.
         11    1    4    4    0    0  0.20586485563E-01 -0.19220219116E-01  0.98363665664E-01  0.10231760384E+00  0.51100000000E-03 0. -1.
</event>
<event>
 8    1  0.1116841E+005  0.1043930E+01  0.7957747E-01            NaN
         13   -1    0    0    0    0  0.00000000000E+00  0.00000000000E+00  0.74505805969E-08  0.10566000000E+00  0.10566000000E+00 0. -1.
     999900   -1    0    0    0    0 -0.00000000000E+00 -0.00000000000E+00 -0.74505805969E-08  0.93827000000E+00  0.93827000000E+00 0.  1.
     999902    2    1    2    0    0 -0.16399068618E-01  0.10451365282E-01 -0.11384575356E-01  0.10213962688E+01  0.10211476724E+01 0.  0.
     999903    2    3    3    0    0  0.24200979526E-01  0.19788425747E-01 -0.12726950135E+00  0.13282164573E+00  0.21605425188E-01 0.  0.
         14    1    1    2    0    0  0.16399068618E-01 -0.10451365282E-01  0.11384575356E-01  0.22533731245E-01  0.00000000000E+00 0. -1.
     999901    1    3    3    0    0 -0.40600048144E-01 -0.93370604649E-02  0.11588492599E+00  0.88857462302E+00  0.88000000000E+00 0. -1.
        -11    1    4    4    0    0  0.24759948721E-01  0.85412237200E-02 -0.78098028316E-01  0.82374575635E-01  0.51100000000E-03 0. -1.
         11    1    4    4    0    0 -0.55896919484E-03  0.11247202027E-01 -0.49171473034E-01  0.50447070097E-01  0.51100000000E-03 0.  1.
</event>
<event>
 8    1  0.1116841E+005  0.1043930E+01  0.7957747E-01            NaN
         13   -1    0    0    0    0  0.00000000000E+00  0.00000000000E+00  0.74505805969E-08  0.10566000000E+00  0.10566000000E+00 0.  1.
     999900   -1    0    0    0    0 -0.00000000000E+00 -0.00000000000E+00 -0.74505805969E-08  0.93827000000E+00  0.93827000000E+00 0.  1.
     999902    2    1    2    0    0  0.14412644687E-01 -0.38957768361E-02 -0.17065920529E-01  0.10212551891E+01  0.10210034350E+01 0.  0.
     999903    2    3    3    0    0 -0.45498366173E-01 -0.82802603617E-01  0.86453917388E-01  0.12966561239E+00  0.20310556697E-01 0.  0.
         14    1    1    2    0    0 -0.14412644687E-01  0.38957768361E-02  0.17065920529E-01  0.22674810860E-01  0.00000000000E+00 0.  1.
     999901    1    3    3    0    0  0.59911010860E-01  0.78906826781E-01 -0.10351983792E+00  0.89158957675E+00  0.88000000000E+00 0. -1.
        -11    1    4    4    0    0 -0.29466190341E-01 -0.68662644666E-01  0.61271971239E-01  0.96629864567E-01  0.51100000000E-03 0. -1.
         11    1    4    4    0    0 -0.16032175832E-01 -0.14139958951E-01  0.25181946150E-01  0.33035747818E-01  0.51100000000E-03 0.  1.
</event>
<event>
 8    1  0.1116841E+005  0.1043930E+01  0.7957747E-01            NaN
         13   -1    0    0    0    0  0.00000000000E+00  0.00000000000E+00  0.74505805969E-08  0.10566000000E+00  0.10566000000E+00 0.  1.
     999900   -1    0    0    0    0 -0.00000000000E+00 -0.00000000000E+00 -0.74505805969E-08  0.93827000000E+00  0.93827000000E+00 0.  1.
     999902    2    1    2    0    0  0.30494701459E-02 -0.23168482401E-01 -0.14707979207E-02  0.10205154513E+01  0.10202468060E+01 0.  0.
     999903    2    3    3    0    0 -0.18933537683E-01  0.11204834131E+00 -0.56140801285E-01  0.12823990454E+00  0.19503176884E-01 0.  0.
         14    1    1    2    0    0 -0.30494701459E-02  0.23168482401E-01  0.14707979207E-02  0.23414548713E-01  0.00000000000E+00 0.  1.
     999901    1    3    3    0    0  0.21983007829E-01 -0.13521682371E+00  0.54670003364E-01  0.89227554674E+00  0.88000000000E+00 0.  1.
        -11    1    4    4    0    0 -0.78264417433E-02  0.59331918698E-01 -0.40048764989E-01  0.72011766156E-01  0.51100000000E-03 0. -1.
         11    1    4    4    0    0 -0.11107095940E-01  0.52716422614E-01 -0.16092036296E-01  0.56228138388E-01  0.51100000000E-03 0.  1.
</event>
<event>
 8    1  0.1116841E+005  0.1043930E+01  0.7957747E-01            NaN
         13   -1    0    0    0    0  0.00000000000E+00  0.00000000000E+00  0.74505805969E-08  0.10566000000E+00  0.10566000000E+00 0. -1.
     999900   -1    0    0    0    0 -0.00000000000E+00 -0.00000000000E+00 -0.74505805969E-08  0.93827000000E+00  0.93827000000E+00 0. -1.
     999902    2    1    2    0    0 -0.14136708458E-01  0.89469281053E-03  0.18826931425E-01  0.10203694323E+01  0.10200973866E+01 0.  0.
     999903    2    3    3    0    0  0.31548306512E-01 -0.50724903640E-01  0.11664092104E+00  0.13227074420E+00  0.17948086696E-01 0.  0.
         14    1    1    2    0    0  0.14136708458E-01 -0.89469281053E-03 -0.18826931425E-01  0.23560567653E-01  0.00000000000E+00 0.  1.
     999901    1    3    3    0    0 -0.45685014970E-01  0.51619596451E-01 -0.97813989615E-01  0.88809868815E+00  0.88000000000E+00 0. -1.
        -11    1    4    4    0    0  0.24931774670E-01 -0.31204183845E-01  0.90909244175E-01  0.99297765711E-01  0.51100000000E-03 0. -1.
         11    1    4    4    0    0  0.66165318418E-02 -0.19520719795E-01  0.25731676865E-01  0.32972978486E-01  0.51100000000E-03 0.  1.
</event>
<event>
 8    1  0.1116841E+005  0.1043930E+01  0.7957747E-01            NaN
         13   -1    0    0    0    0  0.00000000000E+00  0.00000000000E+00  0.74505805969E-08  0.10566000000E+00  0.10566000000E+00 0. -1.
     999900   -1    0    0    0    0 -0.00000000000E+00 -0.00000000000E+00 -0.74505805969E-08  0.93827000000E+00  0.93827000000E+00 0. -1.
     999902    2    1    2    0    0  0.77287574948E-02  0.22347449360E-01  0.26223386826E-02  0.10201388494E+01  0.10198613892E+01 0.  0.
     999903    2    3    3    0    0 -0.81583744152E-01  0.10099551375E+00  0.12741924089E-01  0.13207092016E+00  0.20600247960E-01 0.  0.
         14    1    1    2    0    0 -0.77287574948E-02 -0.22347449360E-01 -0.26223386826E-02  0.23791150571E-01  0.00000000000E+00 0.  1.
     999901    1    3    3    0    0  0.89312501647E-01 -0.78648064388E-01 -0.10119585407E-01  0.88806792927E+00  0.88000000000E+00 0.  1.
        -11    1    4    4    0    0 -0.62431557308E-01  0.82956248197E-01  0.25664567481E-02  0.10385704735E+00  0.51100000000E-03 0. -1.
         11    1    4    4    0    0 -0.19152186845E-01  0.18039265551E-01  0.10175467341E-01  0.28213872814E-01  0.51100000000E-03 0.  1.
</event>
<event>
 8    1  0.1116841E+005  0.1043930E+01  0.7957747E-01            NaN
         13   -1    0    0    0    0  0.00000000000E+00  0.00000000000E+00  0.74505805969E-08  0.10566000000E+00  0.10566000000E+00 0. -1.
     999900   -1    0    0    0    0 -0.00000000000E+00 -0.00000000000E+00 -0.74505805969E-08  0.93827000000E+00  0.93827000000E+00 0.  1.
     999902    2    1    2    0    0  0.97357836638E-02  0.12893053869E-01 -0.17499669007E-01  0.10201128898E+01  0.10198348167E+01 0.  0.
     999903    2    3    3    0    0 -0.59002138884E-01 -0.95912943254E-01  0.56580275226E-01  0.12767158355E+00  0.20448976160E-01 0.  0.
         14    1    1    2    0    0 -0.97357836638E-02 -0.12893053869E-01  0.17499669007E-01  0.23817110173E-01  0.00000000000E+00 0. -1.
     999901    1    3    3    0    0  0.68737922547E-01  0.10880599712E+00 -0.74079944233E-01  0.89244130627E+00  0.88000000000E+00 0. -1.
        -11    1    4    4    0    0 -0.37100262609E-01 -0.76284885963E-01  0.45307922566E-01  0.96171109385E-01  0.51100000000E-03 0.  1.
         11    1    4    4    0    0 -0.21901876275E-01 -0.19628057290E-01  0.11272352660E-01  0.31500474169E-01  0.51100000000E-03 0. -1.
</event>
<event>
 8    1  0.1116841E+005  0.1043930E+01  0.7957747E-01            NaN
         13   -1    0    0    0    0  0.00000000000E+00  0.00000000000E+00  0.74505805969E-08  0.10566000000E+00  0.10566000000E+00 0. -1.
     999900   -1    0    0    0    0 -0.00000000000E+00 -0.00000000000E+00 -0.74505805969E-08  0.93827000000E+00  0.93827000000E+00 0.  1.
     999902    2    1    2    0    0  0.11529458825E-01  0.21806316619E-01  0.33936985590E-02  0.10190309828E+01  0.10187267460E+01 0.  0.
     999903    2    3    3    0    0  0.72970222857E-01  0.58993471612E-01 -0.89491797921E-01  0.13123282592E+00  0.20208651317E-01 0.  0.
         14    1    1    2    0    0 -0.11529458825E-01 -0.21806316619E-01 -0.33936985590E-02  0.24899017153E-01  0.00000000000E+00 0. -1.
     999901    1    3    3    0    0 -0.61440764032E-01 -0.37187154992E-01  0.92885496480E-01  0.88779815692E+00  0.88000000000E+00 0. -1.
        -11    1    4    4    0    0  0.55418587340E-01  0.49865813876E-01 -0.79767209684E-01  0.10918281952E+00  0.51100000000E-03 0.  1.
         11    1    4    4    0    0  0.17551635517E-01  0.91276577351E-02 -0.97245882369E-02  0.22050006404E-01  0.51100000000E-03 0. -1.
</event>
<event>
 8    1  0.1116841E+005  0.1043930E+01  0.7957747E-01            NaN
         13   -1    0    0    0    0  0.00000000000E+00  0.00000000000E+00  0.74505805969E-08  0.10566000000E+00  0.10566000000E+00 0.  1.
     999900   -1    0    0    0    0 -0.00000000000E+00 -0.00000000000E+00 -0.74505805969E-08  0.93827000000E+00  0.93827000000E+00 0. -1.
     999902    2    1    2    0    0 -0.20784523440E-01 -0.49586770636E-02  0.91912775348E-02  0.10206692073E+01  0.10204041191E+01 0.  0.
     999903    2    3    3    0    0  0.82045967795E-01 -0.78667979275E-01 -0.57863545507E-01  0.12909558701E+00  0.19932107064E-01 0.  0.
         14    1    1    2    0    0  0.20784523440E-01  0.49586770636E-02 -0.91912775348E-02  0.23260792669E-01  0.00000000000E+00 0. -1.
     999901    1    3    3    0    0 -0.10283049124E+00  0.73709302212E-01  0.67054823042E-01  0.89157362032E+00  0.88000000000E+00 0.  1.
        -11    1    4    4    0    0  0.46660762680E-01 -0.57509463551E-01 -0.39855682666E-01  0.84102923454E-01  0.51100000000E-03 0.  1.
         11    1    4    4    0    0  0.35385205115E-01 -0.21158515724E-01 -0.18007862842E-01  0.44992663555E-01  0.51100000000E-03 0. -1.
</event>
<event>
 8    1  0.1116841E+005  0.1043930E+01  0.7957747E-01            NaN
         13   -1    0    0    0    0  0.00000000000E+00  0.00000000000E+00  0.74505805969E-08  0.10566000000E+00  0.10566000000E+00 0. -1.
     999900   -1    0    0    0    0 -0.00000000000E+00 -0.00000000000E+00 -0.74505805969E-08  0.93827000000E+00  0.93827000000E+00 0. -1.
     999902    2    1    2    0    0 -0.17197009529E-01 -0.95237390726E-02  0.13061157847E-01  0.10203284622E+01  0.10200554584E+01 0.  0.
     999903    2    3    3    0    0 -0.91005650266E-01 -0.94383350045E-01 -0.87218045022E-02  0.13290332931E+00  0.19924354986E-01 0.  0.
         14    1    1    2    0    0  0.17197009529E-01  0.95237390726E-02 -0.13061157847E-01  0.23601537809E-01  0.00000000000E+00 0.  1.
     999901    1    3    3    0    0  0.73808640737E-01  0.84859610972E-01  0.21782962349E-01  0.88742513288E+00  0.88000000000E+00 0.  1.
        -11    1    4    4    0    0 -0.66821415554E-01 -0.59189807265E-01  0.23814008076E-03  0.89268430547E-01  0.51100000000E-03 0. -1.
         11    1    4    4    0    0 -0.24184234712E-01 -0.35193542780E-01 -0.89599445830E-02  0.43634898762E-01  0.51100000000E-03 0.  1.
</event>
<event>
 8    1  0.1116841E+005  0.1043930E+01  0.7957747E-01            NaN
         13   -1    0    0    0    0  0.00000000000E+00  0.00000000000E+00  0.74505805969E-08  0.10566000000E+00  0.10566000000E+00 0. -1.
     999900   -1    0    0    0    0 -0.00000000000E+00 -0.00000000000E+00 -0.74505805969E-08  0.93827000000E+00  0.93827000000E+00 0.  1.
     999902    2    1    2    0    0 -0.10827960585E-01  0.20125560935E-01  0.74257335307E-02  0.10199003422E+01  0.10196172241E+01 0.  0.
     999903    2    3    3    0    0 -0.61845971891E-01 -0.86802859856E-01 -0.69266641530E-01  0.12865500843E+00  0.19864109530E-01 0.  0.
         14    1    1    2    0    0  0.10827960585E-01 -0.20125560935E-01 -0.74257335307E-02  0.24029657755E-01  0.00000000000E+00 0.  1.
     999901    1    3    3    0    0  0.51018011307E-01  0.10692842079E+00  0.76692375061E-01  0.89124533381E+00  0.88000000000E+00 0. -1.
        -11    1    4    4    0    0 -0.41328627032E-01 -0.56046547354E-01 -0.56034242846E-01  0.89383266750E-01  0.51100000000E-03 0. -1.
         11    1    4    4    0    0 -0.20517344859E-01 -0.30756312501E-01 -0.13232398685E-01  0.39271741682E-01  0.51100000000E-03 0.  1.
</event>
<event>
 8    1  0.1116841E+005  0.1043930E+01  0.7957747E-01            NaN
         13   -1    0    0    0    0  0.00000000000E+00  0.00000000000E+00  0.74505805969E-08  0.10566000000E+00  0.10566000000E+00 0. -1.
     999900   -1    0    0    0    0 -0.00000000000E+00 -0.00000000000E+00 -0.74505805969E-08  0.93827000000E+00  0.93827000000E+00 0. -1.
     999902    2    1    2    0    0  0.12211177087E-01 -0.12265102119E-01 -0.17519997014E-01  0.10193028631E+01  0.10190053145E+01 0.  0.
     999903    2    3    3    0    0  0.12492625879E+00  0.31922889121E-01 -0.14220920346E-01  0.13100778144E+00  0.18307464000E-01 0.  0.
         14    1    1    2    0    0 -0.12211177087E-01  0.12265102119E-01  0.17519997014E-01  0.24627136886E-01  0.00000000000E+00 0. -1.
     999901    1    3    3    0    0 -0.11271508170E+00 -0.44187991240E-01 -0.32990766682E-02  0.88829508167E+00  0.88000000000E+00 0. -1.
        -11    1    4    4    0    0  0.13687080899E-01  0.92622094564E-03 -0.67248692141E-02  0.15286564549E-01  0.51100000000E-03 0.  1.
         11    1    4    4    0    0  0.11123917789E+00  0.30996668176E-01 -0.74960511316E-02  0.11572121689E+00  0.51100000000E-03 0. -1.
</event>
<event>
 8    1  0.1116841E+005  0.1043930E+01  0.7957747E-01            NaN
         13   -1    0    0    0    0  0.00000000000E+00  0.00000000000E+00  0.74505805969E-08  0.10566000000E+00  0.10566000000E+00 0. -1.
     999900   -1    0    0    0    0 -0.00000000000E+00 -0.00000000000E+00 -0.74505805969E-08  0.93827000000E+00  0.93827000000E+00 0.  1.
     999902    2    1    2    0    0 -0.21277026316E-01  0.11022532332E-01 -0.15789909456E-02  0.10199153944E+01  0.10196326351E+01 0.  0.
     999903    2    3    3    0    0  0.37071262145E-02 -0.12439134019E-02 -0.12881866799E+00  0.13032863139E+00  0.19391050334E-01 0.  0.
         14    1    1    2    0    0  0.21277026316E-01 -0.11022532332E-01  0.15789909456E-02  0.24014605562E-01  0.00000000000E+00 0. -1.
     999901    1    3    3    0    0 -0.24984152531E-01  0.12266445734E-01  0.12723967704E+00  0.88958676304E+00  0.88000000000E+00 0. -1.
        -11    1    4    4    0    0 -0.80139254661E-03 -0.66788549891E-02 -0.11024664297E+00  0.11045285303E+00  0.51100000000E-03 0. -1.
         11    1    4    4    0    0  0.45085187611E-02  0.54349415872E-02 -0.18572025019E-01  0.19875778369E-01  0.51100000000E-03 0.  1.
</event>
<event>
 8    1  0.1116841E+005  0.1043930E+01  0.7957747E-01            NaN
         13   -1    0    0    0    0  0.00000000000E+00  0.00000000000E+00  0.74505805969E-08  0.10566000000E+00  0.10566000000E+00 0. -1.
     999900   -1    0    0    0    0 -0.00000000000E+00 -0.00000000000E+00 -0.74505805969E-08  0.93827000000E+00  0.93827000000E+00 0. -1.
     999902    2    1    2    0    0  0.93934060088E-02  0.99375691426E-02 -0.69697264079E-02  0.10285817609E+01  0.10284672432E+01 0.  0.
     999903    2    3    3    0    0  0.37484733272E-01 -0.78733299351E-01 -0.10541535423E+00  0.13822049310E+00  0.19709646121E-01 0.  0.
         14    1    1    2    0    0 -0.93934060088E-02 -0.99375691426E-02  0.69697264079E-02  0.15348239088E-01  0.00000000000E+00 0.  1.
     999901    1    3    3    0    0 -0.28091327263E-01  0.88670868494E-01  0.98445627819E-01  0.89036126781E+00  0.88000000000E+00 0.  1.
        -11    1    4    4    0    0  0.10744632988E-01 -0.23884178196E-01 -0.18693521188E-01  0.32180894355E-01  0.51100000000E-03 0.  1.
         11    1    4    4    0    0  0.26740100284E-01 -0.54849121155E-01 -0.86721833039E-01  0.10603959874E+00  0.51100000000E-03 0. -1.
</event>
<event>
 8    1  0.1116841E+005  0.1043930E+01  0.7957747E-01            NaN
         13   -1    0    0    0    0  0.00000000000E+00  0.00000000000E+00  0.74505805969E-08  0.10566000000E+00  0.10566000000E+00 0.  1.
     999900   -1    0    0    0    0 -0.00000000000E+00 -0.00000000000E+00 -0.74505805969E-08  0.93827000000E+00  0.93827000000E+00 0. -1.
     999902    2    1    2    0    0  0.13185841202E-02  0.40510502825E-02  0.24348896747E-01  0.10192112127E+01  0.10189114180E+01 0.  0.
     999903    2    3    3    0    0  0.34518187978E-01 -0.47333729649E-01  0.11683664252E+00  0.13225202964E+00  0.20194331977E-01 0.  0.
         14    1    1    2    0    0 -0.13185841202E-02 -0.40510502825E-02 -0.24348896747E-01  0.24718787294E-01  0.00000000000E+00 0. -1.
     999901    1    3    3    0    0 -0.33199603858E-01  0.51384779932E-01 -0.92487745777E-01  0.88695918307E+00  0.88000000000E+00 0. -1.
        -11    1    4    4    0    0  0.99350831012E-02 -0.87450278010E-02  0.46436288897E-01  0.48288419264E-01  0.51100000000E-03 0.  1.
         11    1    4    4    0    0  0.24583104877E-01 -0.38588701848E-01  0.70400353627E-01  0.83963610377E-01  0.51100000000E-03 0. -1.
</event>
<event>
 8    1  0.1116841E+005  0.1043930E+01  0.7957747E-01            NaN
         13   -1    0    0    0    0  0.00000000000E+00  0.00000000000E+00  0.74505805969E-08  0.10566000000E+00  0.10566000000E+00 0.  1.
     999900   -1    0    0    0    0 -0.00000000000E+00 -0.00000000000E+00 -0.74505805969E-08  0.93827000000E+00  0.93827000000E+00 0.  1.
     999902    2    1    2    0    0 -0.83633520713E-02  0.75382620332E-02 -0.20492627226E-01  0.10205479808E+01  0.10202800901E+01 0.  0.
     999903    2    3    3    0    0  0.81955309012E-01  0.95548882900E-01  0.26364493684E-01  0.13032389679E+00  0.21046848915E-01 0.  0.
         14    1    1    2    0    0  0.83633520713E-02 -0.75382620332E-02  0.20492627226E-01  0.23382019224E-01  0.00000000000E+00 0.  1.
     999901    1    3    3    0    0 -0.90318661083E-01 -0.88010620867E-01 -0.46857120910E-01  0.89022408398E+00  0.88000000000E+00 0.  1.
        -11    1    4    4    0    0  0.44114757822E-01  0.63082538005E-01  0.23030723632E-01  0.80350443750E-01  0.51100000000E-03 0. -1.
         11    1    4    4    0    0  0.37840551190E-01  0.32466344895E-01  0.33337700521E-02  0.49973453042E-01  0.51100000000E-03 0.  1.
</event>
<event>
 8    1  0.1116841E+005  0.1043930E+01  0.7957747E-01            NaN
         13   -1    0    0    0    0  0.00000000000E+00  0.00000000000E+00  0.74505805969E-08  0.10566000000E+00  0.10566000000E+00 0.  1.
     999900   -1    0    0    0    0 -0.00000000000E+00 -0.00000000000E+00 -0.74505805969E-08  0.93827000000E+00  0.93827000000E+00 0. -1.
     999902    2    1    2    0    0 -0.21208251083E-01  0.10428543505E-01  0.53029288717E-02  0.10197088215E+01  0.10194211177E+01 0.  0.
     999903    2    3    3    0    0 -0.56219622470E-01  0.82867749861E-01 -0.83056190074E-01  0.13163192806E+00  0.20023083133E-01 0.  0.
         14    1    1    2    0    0  0.21208251083E-01 -0.10428543505E-01 -0.53029288717E-02  0.24221178507E-01  0.00000000000E+00 0. -1.
     999901    1    3    3    0    0  0.35011371387E-01 -0.72439206356E-01  0.88359118946E-01  0.88807689343E+00  0.88000000000E+00 0.  1.
        -11    1    4    4    0    0 -0.49438810430E-01  0.60970593732E-01 -0.57543463402E-01  0.97329957249E-01  0.51100000000E-03 0.  1.
         11    1    4    4    0    0 -0.67808120401E-02  0.21897156128E-01 -0.25512726672E-01  0.34301970813E-01  0.51100000000E-03 0. -1.
</event>
<event>
 8    1  0.1116841E+005  0.1043930E+01  0.7957747E-01            NaN
         13   -1    0    0    0    0  0.00000000000E+00  0.00000000000E+00  0.74505805969E-08  0.10566000000E+00  0.10566000000E+00 0. -1.
     999900   -1    0    0    0    0 -0.00000000000E+00 -0.00000000000E+00 -0.74505805969E-08  0.93827000000E+00  0.93827000000E+00 0. -1.
     999902    2    1    2    0    0 -0.12879826396E-01 -0.23720236487E-02  0.18260367981E-01  0.10214587414E+01  0.10212115368E+01 0.  0.
     999903    2    3    3    0    0 -0.91089351397E-01 -0.92097942731E-01  0.24663613889E-01  0.13342244039E+00  0.20345828966E-01 0.  0.
         14    1    1    2    0    0  0.12879826396E-01  0.23720236487E-02 -0.18260367981E-01  0.22471258598E-01  0.00000000000E+00 0.  1.
     999901    1    3    3    0    0  0.78209525001E-01  0.89725919082E-01 -0.64032459081E-02  0.88803630101E+00  0.88000000000E+00 0. -1.
        -11    1    4    4    0    0 -0.49499991164E-01 -0.63755215339E-01  0.12998224252E-01  0.81756905292E-01  0.51100000000E-03 0.  1.
         11    1    4    4    0    0 -0.41589360233E-01 -0.28342727392E-01  0.11665389637E-01  0.51665535098E-01  0.51100000000E-03 0. -1.
</event>
<event>
 8    1  0.1116841E+005  0.1043930E+01  0.7957747E-01            NaN
         13   -1    0    0    0    0  0.00000000000E+00  0.00000000000E+00  0.74505805969E-08  0.10566000000E+00  0.10566000000E+00 0. -1.
     999900   -1    0    0    0    0 -0.00000000000E+00 -0.00000000000E+00 -0.74505805969E-08  0.93827000000E+00  0.93827000000E+00 0. -1.
     999902    2    1    2    0    0  0.32125700020E-02  0.23078465363E-01 -0.38699119805E-02  0.10203098309E+01  0.10200363908E+01 0.  0.
     999903    2    3    3    0    0  0.26168990759E-02 -0.24207794769E-01  0.12559207244E+00  0.12958161723E+00  0.20619441717E-01 0.  0.
         14    1    1    2    0    0 -0.32125700020E-02 -0.23078465363E-01  0.38699119805E-02  0.23620169099E-01  0.00000000000E+00 0. -1.
     999901    1    3    3    0    0  0.59567092607E-03  0.47286260132E-01 -0.12946198442E+00  0.89072821367E+00  0.88000000000E+00 0. -1.
        -11    1    4    4    0    0  0.98568565205E-02 -0.21581232699E-01  0.10330807318E+00  0.10599870910E+00  0.51100000000E-03 0. -1.
         11    1    4    4    0    0 -0.72399574446E-02 -0.26265620701E-02  0.22283999257E-01  0.23582908133E-01  0.51100000000E-03 0.  1.
</event>
<event>
 8    1  0.1116841E+005  0.1043930E+01  0.7957747E-01            NaN
         13   -1    0    0    0    0  0.00000000000E+00  0.00000000000E+00  0.74505805969E-08  0.10566000000E+00  0.10566000000E+00 0. -1.
     999900   -1    0    0    0    0 -0.00000000000E+00 -0.00000000000E+00 -0.74505805969E-08  0.93827000000E+00  0.93827000000E+00 0. -1.
     999902    2    1    2    0    0 -0.50201752003E-02  0.21829521356E-01  0.67386274319E-02  0.10205389919E+01  0.10202708928E+01 0.  0.
     999903    2    3    3    0    0  0.12516713473E+00  0.25557092433E-01 -0.17226945548E-01  0.13063058133E+00  0.21156666487E-01 0.  0.
         14    1    1    2    0    0  0.50201752003E-02 -0.21829521356E-01 -0.67386274319E-02  0.23391008130E-01  0.00000000000E+00 0. -1.
     999901    1    3    3    0    0 -0.13018730993E+00 -0.37275710767E-02  0.23965572979E-01  0.88990841054E+00  0.88000000000E+00 0.  1.
        -11    1    4    4    0    0  0.51547515888E-01  0.19868896990E-01 -0.12471984678E-01  0.56636834169E-01  0.51100000000E-03 0.  1.
         11    1    4    4    0    0  0.73619618841E-01  0.56881954429E-02 -0.47549608692E-02  0.73993747166E-01  0.51100000000E-03 0. -1.
</event>
<event>
 8    1  0.1116841E+005  0.1043930E+01  0.7957747E-01            NaN
         13   -1    0    0    0    0  0.00000000000E+00  0.00000000000E+00  0.74505805969E-08  0.10566000000E+00  0.10566000000E+00 0. -1.
     999900   -1    0    0    0    0 -0.00000000000E+00 -0.00000000000E+00 -0.74505805969E-08  0.93827000000E+00  0.93827000000E+00 0.  1.
     999902    2    1    2    0    0 -0.43381989307E-02 -0.11520309409E-01 -0.21095839976E-01  0.10195051773E+01  0.10192125561E+01 0.  0.
     999903    2    3    3    0    0 -0.48377994963E-01 -0.10365190424E-01 -0.12155149819E+00  0.13269506393E+00  0.19630224408E-01 0.  0.
         14    1    1    2    0    0  0.43381989307E-02  0.11520309409E-01  0.21095839976E-01  0.24424822684E-01  0.00000000000E+00 0. -1.
     999901    1    3    3    0    0  0.44039796032E-01 -0.11551189857E-02  0.10045565821E+00  0.88681011338E+00  0.88000000000E+00 0. -1.
        -11    1    4    4    0    0 -0.17325413697E-01 -0.13510579921E-01 -0.52628625635E-01  0.57032789576E-01  0.51100000000E-03 0.  1.
         11    1    4    4    0    0 -0.31052581266E-01  0.31453894978E-02 -0.68922872555E-01  0.75662274355E-01  0.51100000000E-03 0. -1.
</event>
<event>
 8    1  0.1116841E+005  0.1043930E+01  0.7957747E-01            NaN
         13   -1    0    0    0    0  0.00000000000E+00  0.00000000000E+00  0.74505805969E-08  0.10566000000E+00  0.10566000000E+00 0.  1.
     999900   -1    0    0    0    0 -0.00000000000E+00 -0.00000000000E+00 -0.74505805969E-08  0.93827000000E+00  0.93827000000E+00 0.  1.
     999902    2    1    2    0    0 -0.21920671730E-01  0.24260593597E-02  0.98116014783E-02  0.10197914595E+01  0.10195057390E+01 0.  0.
     999903    2    3    3    0    0 -0.85918224743E-01  0.13669492272E-01  0.98392671462E-01  0.13296074989E+00  0.20703788356E-01 0.  0.
         14    1    1    2    0    0  0.21920671730E-01 -0.24260593597E-02 -0.98116014783E-02  0.24138540483E-01  0.00000000000E+00 0. -1.
     999901    1    3    3    0    0  0.63997553013E-01 -0.11243432913E-01 -0.88581069983E-01  0.88683070963E+00  0.88000000000E+00 0.  1.
        -11    1    4    4    0    0 -0.68821882246E-01  0.31796275367E-02  0.70237144459E-01  0.98387392942E-01  0.51100000000E-03 0. -1.
         11    1    4    4    0    0 -0.17096342497E-01  0.10489864736E-01  0.28155527003E-01  0.34573356949E-01  0.51100000000E-03 0.  1.
</event>
<event>
 8    1  0.1116841E+005  0.1043930E+01  0.7957747E-01            NaN
         13   -1    0    0    0    0  0.00000000000E+00  0.00000000000E+00  0.74505805969E-08  0.10566000000E+00  0.10566000000E+00 0. -1.
     999900   -1    0    0    0    0 -0.00000000000E+00 -0.00000000000E+00 -0.74505805969E-08  0.93827000000E+00  0.93827000000E+00 0. -1.
     999902    2    1    2    0    0 -0.48035802306E-02  0.23487902448E-01  0.25193014452E-02  0.10198239256E+01  0.10195389823E+01 0.  0.
     999903    2    3    3    0    0  0.11457402822E-01  0.11389495858E+00  0.64416703892E-01  0.13288021609E+00  0.20107372248E-01 0.  0.
         14    1    1    2    0    0  0.48035802306E-02 -0.23487902448E-01 -0.25193014452E-02  0.24106074426E-01  0.00000000000E+00 0.  1.
     999901    1    3    3    0    0 -0.16260983053E-01 -0.90407056128E-01 -0.61897402447E-01  0.88694370949E+00  0.88000000000E+00 0. -1.
        -11    1    4    4    0    0  0.13092356123E-01  0.65815806281E-01  0.46030548599E-01  0.81376917308E-01  0.51100000000E-03 0. -1.
         11    1    4    4    0    0 -0.16349533005E-02  0.48079152295E-01  0.18386155293E-01  0.51503298780E-01  0.51100000000E-03 0.  1.
</event>
<event>
 8    1  0.1116841E+005  0.1043930E+01  0.7957747E-01            NaN
         13   -1    0    0    0    0  0.00000000000E+00  0.00000000000E+00  0.74505805969E-08  0.10566000000E+00  0.10566000000E+00 0.  1.
     999900   -1    0    0    0    0 -0.00000000000E+00 -0.00000000000E+00 -0.74505805969E-08  0.93827000000E+00  0.93827000000E+00 0.  1.
     999902    2    1    2    0    0  0.15231930105E-01 -0.39789517138E-02 -0.16464108865E-01  0.10211503900E+01  0.10208962770E+01 0.  0.
     999903    2    3    3    0    0 -0.76689066629E-01 -0.68853596700E-01  0.75215058826E-01  0.12926292008E+00  0.20725991256E-01 0.  0.
         14    1    1    2    0    0 -0.15231930105E-01  0.39789517138E-02  0.16464108865E-01  0.22779610009E-01  0.00000000000E+00 0. -1.
     999901    1    3    3    0    0  0.91920996733E-01  0.64874644986E-01 -0.91679167691E-01  0.89188746991E+00  0.88000000000E+00 0. -1.
        -11    1    4    4    0    0 -0.68469211330E-01 -0.51085007424E-01  0.58791083721E-01  0.10370324744E+00  0.51100000000E-03 0. -1.
         11    1    4    4    0    0 -0.82198552987E-02 -0.17768589276E-01  0.16423975105E-01  0.25559672635E-01  0.51100000000E-03 0.  1.
</event>
<event>
 8    1  0.1116841E+005  0.1043930E+01  0.7957747E-01            NaN
         13   -1    0    0    0    0  0.00000000000E+00  0.00000000000E+00  0.74505805969E-08  0.10566000000E+00  0.10566000000E+00 0. -1.
     999900   -1    0    0    0    0 -0.00000000000E+00 -0.00000000000E+00 -0.74505805969E-08  0.93827000000E+00  0.93827000000E+00 0.  1.
     999902    2    1    2    0    0 -0.18423289754E-01  0.13291452038E-01 -0.73797822017E-02  0.10200439897E+01  0.10197642862E+01 0.  0.
     999903    2    3    3    0    0  0.78538243249E-03  0.13063243020E+00  0.69442016094E-03  0.13201072963E+00  0.18997417519E-01 0.  0.
         14    1    1    2    0    0  0.18423289754E-01 -0.13291452038E-01  0.73797822017E-02  0.23886010298E-01  0.00000000000E+00 0. -1.
     999901    1    3    3    0    0 -0.19208672186E-01 -0.11734097817E+00 -0.80742023626E-02  0.88803326007E+00  0.88000000000E+00 0.  1.
        -11    1    4    4    0    0  0.12918475802E-02  0.97100360509E-01 -0.77659861787E-02  0.97420329210E-01  0.51100000000E-03 0. -1.
         11    1    4    4    0    0 -0.50646514772E-03  0.33532069695E-01  0.84604063396E-02  0.34590400423E-01  0.51100000000E-03 0.  1.
</event>
<event>
 8    1  0.1116841E+005  0.1043930E+01  0.7957747E-01            NaN
         13   -1    0    0    0    0  0.00000000000E+00  0.00000000000E+00  0.74505805969E-08  0.10566000000E+00  0.10566000000E+00 0.  1.
     999900   -1    0    0    0    0 -0.00000000000E+00 -0.00000000000E+00 -0.74505805969E-08  0.93827000000E+00  0.93827000000E+00 0. -1.
     999902    2    1    2    0    0  0.15605840673E-01 -0.14228111104E-01  0.11988636625E-01  0.10196460790E+01  0.10193568647E+01 0.  0.
     999903    2    3    3    0    0 -0.10433171401E+00 -0.71892575531E-01  0.18218794635E-01  0.12961853883E+00  0.20381171818E-01 0.  0.
         14    1    1    2    0    0 -0.15605840673E-01  0.14228111104E-01 -0.11988636625E-01  0.24283920952E-01  0.00000000000E+00 0. -1.
     999901    1    3    3    0    0  0.11993755469E+00  0.57664464426E-01 -0.62301580107E-02  0.89002754022E+00  0.88000000000E+00 0. -1.
        -11    1    4    4    0    0 -0.62655232100E-01 -0.54947984211E-01  0.12125046269E-01  0.84215419884E-01  0.51100000000E-03 0.  1.
         11    1    4    4    0    0 -0.41676481913E-01 -0.16944591320E-01  0.60937483660E-02  0.45403118943E-01  0.51100000000E-03 0. -1.
</event>
<event>
 8    1  0.1116841E+005  0.1043930E+01  0.7957747E-01            NaN
         13   -1    0    0    0    0  0.00000000000E+00  0.00000000000E+00  0.74505805969E-08  0.10566000000E+00  0.10566000000E+00 0.  1.
     999900   -1    0    0    0    0 -0.00000000000E+00 -0.00000000000E+00 -0.74505805969E-08  0.93827000000E+00  0.93827000000E+00 0. -1.
     999902    2    1    2    0    0  0.14477668958E-01  0.13449749191E-01  0.12851887763E-02  0.10241272133E+01  0.10239357395E+01 0.  0.
     999903    2    3    3    0    0 -0.76743148381E-01  0.92198768080E-01 -0.56300535273E-01  0.13404926101E+00  0.20231916562E-01 0.  0.
         14    1    1    2    0    0 -0.14477668958E-01 -0.13449749191E-01 -0.12851887763E-02  0.19802786721E-01  0.00000000000E+00 0. -1.
     999901    1    3    3    0    0  0.91220817338E-01 -0.78749018889E-01  0.57585724049E-01  0.89007795226E+00  0.88000000000E+00 0.  1.
        -11    1    4    4    0    0 -0.48891845676E-01  0.50383892213E-01 -0.41991274606E-01  0.81807563416E-01  0.51100000000E-03 0.  1.
         11    1    4    4    0    0 -0.27851302705E-01  0.41814875867E-01 -0.14309260667E-01  0.52241697598E-01  0.51100000000E-03 0. -1.
</event>
<event>
 8    1  0.1116841E+005  0.1043930E+01  0.7957747E-01            NaN
         13   -1    0    0    0    0  0.00000000000E+00  0.00000000000E+00  0.74505805969E-08  0.10566000000E+00  0.10566000000E+00 0. -1.
     999900   -1    0    0    0    0 -0.00000000000E+00 -0.00000000000E+00 -0.74505805969E-08  0.93827000000E+00  0.93827000000E+00 0.  1.
     999902    2    1    2    0    0  0.32807751723E-02 -0.11713748492E-01 -0.21106113170E-01  0.10195693062E+01  0.10192782381E+01 0.  0.
     999903    2    3    3    0    0  0.41533174429E-01  0.42983058372E-01 -0.11591625742E+00  0.13196356591E+00  0.20130973853E-01 0.  0.
         14    1    1    2    0    0 -0.32807751723E-02  0.11713748492E-01  0.21106113170E-01  0.24360693804E-01  0.00000000000E+00 0. -1.
     999901    1    3    3    0    0 -0.38252399257E-01 -0.54696806863E-01  0.94810144254E-01  0.88760574028E+00  0.88000000000E+00 0. -1.
        -11    1    4    4    0    0  0.20626773343E-01  0.10089796536E-01 -0.55500377153E-01  0.60065137624E-01  0.51100000000E-03 0. -1.
         11    1    4    4    0    0  0.20906401086E-01  0.32893261836E-01 -0.60415880271E-01  0.71898428289E-01  0.51100000000E-03 0.  1.
</event>
<event>
 8    1  0.1116841E+005  0.1043930E+01  0.7957747E-01            NaN
         13   -1    0    0    0    0  0.00000000000E+00  0.00000000000E+00  0.74505805969E-08  0.10566000000E+00  0.10566000000E+00 0. -1.
     999900   -1    0    0    0    0 -0.00000000000E+00 -0.00000000000E+00 -0.74505805969E-08  0.93827000000E+00  0.93827000000E+00 0.  1.
     999902    2    1    2    0    0  0.53699752161E-03 -0.13061574277E-01 -0.18247600367E-01  0.10214829956E+01  0.10212363302E+01 0.  0.
     999903    2    3    3    0    0 -0.13003341915E+00 -0.30060523151E-02  0.67397687786E-03  0.13159099464E+00  0.19950167385E-01 0.  0.
         14    1    1    2    0    0 -0.53699752161E-03  0.13061574277E-01  0.18247600367E-01  0.22447004435E-01  0.00000000000E+00 0. -1.
     999901    1    3    3    0    0  0.13057041667E+00 -0.10055521962E-01 -0.18921577245E-01  0.88989200093E+00  0.88000000000E+00 0.  1.
        -11    1    4    4    0    0 -0.37448478785E-01  0.75038303702E-02  0.35883206851E-02  0.38364478361E-01  0.51100000000E-03 0.  1.
         11    1    4    4    0    0 -0.92584940363E-01 -0.10509882685E-01 -0.29143438073E-02  0.93226516276E-01  0.51100000000E-03 0. -1.
</event>
<event>
 8    1  0.1116841E+005  0.1043930E+01  0.7957747E-01            NaN
         13   -1    0    0    0    0  0.00000000000E+00  0.00000000000E+00  0.74505805969E-08  0.10566000000E+00  0.10566000000E+00 0.  1.
     999900   -1    0    0    0    0 -0.00000000000E+00 -0.00000000000E+00 -0.74505805969E-08  0.93827000000E+00  0.93827000000E+00 0.  1.
     999902    2    1    2    0    0  0.40820912668E-02  0.20521388061E-01  0.10454677949E-01  0.10205400208E+01  0.10202719456E+01 0.  0.
     999903    2    3    3    0    0  0.47160370357E-02  0.11588163182E+00  0.63032269066E-01  0.13382790229E+00  0.22046471147E-01 0.  0.
         14    1    1    2    0    0 -0.40820912668E-02 -0.20521388061E-01 -0.10454677949E-01  0.23389979224E-01  0.00000000000E+00 0. -1.
     999901    1    3    3    0    0 -0.63394576898E-03 -0.95360243759E-01 -0.52577591117E-01  0.88671211848E+00  0.88000000000E+00 0. -1.
        -11    1    4    4    0    0  0.12544612248E-01  0.44446397053E-01  0.25201875304E-01  0.52614115475E-01  0.51100000000E-03 0.  1.
         11    1    4    4    0    0 -0.78285752126E-02  0.71435234768E-01  0.37830393762E-01  0.81213786818E-01  0.51100000000E-03 0. -1.
</event>
<event>
 8    1  0.1116841E+005  0.1043930E+01  0.7957747E-01            NaN
         13   -1    0    0    0    0  0.00000000000E+00  0.00000000000E+00  0.74505805969E-08  0.10566000000E+00  0.10566000000E+00 0.  1.
     999900   -1    0    0    0    0 -0.00000000000E+00 -0.00000000000E+00 -0.74505805969E-08  0.93827000000E+00  0.93827000000E+00 0. -1.
     999902    2    1    2    0    0  0.19712971448E-01  0.24291478896E-02 -0.12056688046E-01  0.10206949891E+01  0.10204304950E+01 0.  0.
     999903    2    3    3    0    0 -0.10994637564E+00  0.45427033928E-01  0.44282569024E-01  0.12837527269E+00  0.19168823376E-01 0.  0.
         14    1    1    2    0    0 -0.19712971448E-01 -0.24291478896E-02  0.12056688046E-01  0.23235010855E-01  0.00000000000E+00 0.  1.
     999901    1    3    3    0    0  0.12965934709E+00 -0.42997886038E-01 -0.56339257070E-01  0.89231971646E+00  0.88000000000E+00 0. -1.
        -11    1    4    4    0    0 -0.66366482039E-01  0.26770351564E-01  0.36492270544E-01  0.80331242935E-01  0.51100000000E-03 0.  1.
         11    1    4    4    0    0 -0.43579893604E-01  0.18656682364E-01  0.77902984798E-02  0.48044029752E-01  0.51100000000E-03 0. -1.
</event>
<event>
 8    1  0.1116841E+005  0.1043930E+01  0.7957747E-01            NaN
         13   -1    0    0    0    0  0.00000000000E+00  0.00000000000E+00  0.74505805969E-08  0.10566000000E+00  0.10566000000E+00 0. -1.
     999900   -1    0    0    0    0 -0.00000000000E+00 -0.00000000000E+00 -0.74505805969E-08  0.93827000000E+00  0.93827000000E+00 0. -1.
     999902    2    1    2    0    0 -0.34435991601E-02 -0.16664969950E-01 -0.14700495459E-01  0.10214425776E+01  0.10211950133E+01 0.  0.
     999903    2    3    3    0    0 -0.38007611539E-02 -0.96853450757E-01 -0.90920385825E-01  0.13451541505E+00  0.20804894088E-01 0.  0.
         14    1    1    2    0    0  0.34435991601E-02  0.16664969950E-01  0.14700495459E-01  0.22487422381E-01  0.00000000000E+00 0. -1.
     999901    1    3    3    0    0  0.35716199376E-03  0.80188480808E-01  0.76219890366E-01  0.88692716257E+00  0.88000000000E+00 0.  1.
        -11    1    4    4    0    0  0.21472689296E-02 -0.51999234853E-01 -0.35651660338E-01  0.63085919151E-01  0.51100000000E-03 0. -1.
         11    1    4    4    0    0 -0.59480300835E-02 -0.44854215904E-01 -0.55268725486E-01  0.71429495897E-01  0.51100000000E-03 0.  1.
</event>
<event>
 8    1  0.1116841E+005  0.1043930E+01  0.7957747E-01            NaN
         13   -1    0    0    0    0  0.00000000000E+00  0.00000000000E+00  0.74505805969E-08  0.10566000000E+00  0.10566000000E+00 0. -1.
     999900   -1    0    0    0    0 -0.00000000000E+00 -0.00000000000E+00 -0.74505805969E-08  0.93827000000E+00  0.93827000000E+00 0.  1.
     999902    2    1    2    0    0 -0.14572205971E-01 -0.10728133047E-01 -0.14483392003E-01  0.10207521945E+01  0.10204890160E+01 0.  0.
     999903    2    3    3    0    0  0.60924412975E-01  0.47968107757E-01  0.10012636976E+00  0.12818265339E+00  0.19818659149E-01 0.  0.
         14    1    1    2    0    0  0.14572205971E-01  0.10728133047E-01  0.14483392003E-01  0.23177805536E-01  0.00000000000E+00 0. -1.
     999901    1    3    3    0    0 -0.75496618946E-01 -0.58696240804E-01 -0.11460976177E+00  0.89256954107E+00  0.88000000000E+00 0.  1.
        -11    1    4    4    0    0  0.11218390238E-01  0.63284276780E-02  0.30100649065E-01  0.32744640348E-01  0.51100000000E-03 0. -1.
         11    1    4    4    0    0  0.49706022736E-01  0.41639680079E-01  0.70025720699E-01  0.95438013044E-01  0.51100000000E-03 0.  1.
</event>
<event>
 8    1  0.1116841E+005  0.1043930E+01  0.7957747E-01            NaN
         13   -1    0    0    0    0  0.00000000000E+00  0.00000000000E+00  0.74505805969E-08  0.10566000000E+00  0.10566000000E+00 0.  1.
     999900   -1    0    0    0    0 -0.00000000000E+00 -0.00000000000E+00 -0.74505805969E-08  0.93827000000E+00  0.93827000000E+00 0. -1.
     999902    2    1    2    0    0 -0.67145813868E-02  0.28845027136E-01 -0.32973727449E-02  0.10141307742E+01  0.10136928693E+01 0.  0.
     999903    2    3    3    0    0  0.12179161874E+00 -0.11536434143E-01  0.14479757236E-02  0.12386843967E+00  0.19365071761E-01 0.  0.
         14    1    1    2    0    0  0.67145813868E-02 -0.28845027136E-01  0.32973727449E-02  0.29799225840E-01  0.00000000000E+00 0.  1.
     999901    1    3    3    0    0 -0.12850620012E+00  0.40381461279E-01 -0.47453484685E-02  0.89026233449E+00  0.88000000000E+00 0.  1.
        -11    1    4    4    0    0  0.10993556208E+00 -0.90276756867E-02 -0.44177396869E-02  0.11039521857E+00  0.51100000000E-03 0.  1.
         11    1    4    4    0    0  0.11856056662E-01 -0.25087584564E-02  0.58657154105E-02  0.13473221101E-01  0.51100000000E-03 0. -1.
</event>
<event>
 8    1  0.1116841E+005  0.1043930E+01  0.7957747E-01            NaN
         13   -1    0    0    0    0  0.00000000000E+00  0.00000000000E+00  0.74505805969E-08  0.10566000000E+00  0.10566000000E+00 0. -1.
     999900   -1    0    0    0    0 -0.00000000000E+00 -0.00000000000E+00 -0.74505805969E-08  0.93827000000E+00  0.93827000000E+00 0. -1.
     999902    2    1    2    0    0  0.37409005042E-02  0.23357512359E-01 -0.48538856283E-02  0.10197819581E+01  0.10194960099E+01 0.  0.
     999903    2    3    3    0    0 -0.10914962375E+00 -0.27562376807E-01 -0.61053479015E-01  0.12933516024E+00  0.18075712845E-01 0.  0.
         14    1    1    2    0    0 -0.37409005042E-02 -0.23357512359E-01  0.48538856283E-02  0.24148041864E-01  0.00000000000E+00 0. -1.
     999901    1    3    3    0    0  0.11289052426E+00  0.50919889166E-01  0.56199593386E-01  0.89044679789E+00  0.88000000000E+00 0. -1.
        -11    1    4    4    0    0 -0.10440223465E+00 -0.28174673696E-01 -0.61661355784E-01  0.12448302196E+00  0.51100000000E-03 0.  1.
         11    1    4    4    0    0 -0.47473891034E-02  0.61229688907E-03  0.60787676910E-03  0.48521382859E-02  0.51100000000E-03 0. -1.
</event>
<event>
 8    1  0.1116841E+005  0.1043930E+01  0.7957747E-01            NaN
         13   -1    0    0    0    0  0.00000000000E+00  0.00000000000E+00  0.74505805969E-08  0.10566000000E+00  0.10566000000E+00 0.  1.
     999900   -1    0    0    0    0 -0.00000000000E+00 -0.00000000000E+00 -0.74505805969E-08  0.93827000000E+00  0.93827000000E+00 0.  1.
     999902    2    1    2    0    0  0.18997883014E-01 -0.11003381922E-01 -0.63208307107E-02  0.10210838434E+01  0.10208282266E+01 0.  0.
     999903    2    3    3    0    0 -0.12104380968E+00 -0.17822989550E-01 -0.37270589257E-01  0.12944710662E+00  0.19954793156E-01 0.  0.
         14    1    1    2    0    0 -0.18997883014E-01  0.11003381922E-01  0.63208307107E-02  0.22846156649E-01  0.00000000000E+00 0. -1.
     999901    1    3    3    0    0  0.14004169269E+00  0.68196076286E-02  0.30949758547E-01  0.89163673673E+00  0.88000000000E+00 0. -1.
        -11    1    4    4    0    0 -0.40887109780E-01 -0.12357313935E-02 -0.21019091028E-01  0.45992891699E-01  0.51100000000E-03 0.  1.
         11    1    4    4    0    0 -0.80156699898E-01 -0.16587258157E-01 -0.16251498230E-01  0.83454214917E-01  0.51100000000E-03 0. -1.
</event>
<event>
 8    1  0.1116841E+005  0.1043930E+01  0.7957747E-01            NaN
         13   -1    0    0    0    0  0.00000000000E+00  0.00000000000E+00  0.74505805969E-08  0.10566000000E+00  0.10566000000E+00 0. -1.
     999900   -1    0    0    0    0 -0.00000000000E+00 -0.00000000000E+00 -0.74505805969E-08  0.93827000000E+00  0.93827000000E+00 0. -1.
     999902    2    1    2    0    0  0.20067893209E-01  0.51697284707E-02  0.10574121698E-01  0.10206650375E+01  0.10203998531E+01 0.  0.
     999903    2    3    3    0    0 -0.69090119149E-02 -0.32131519065E-01 -0.12356484471E+00  0.12931078762E+00  0.19309064801E-01 0.  0.
         14    1    1    2    0    0 -0.20067893209E-01 -0.51697284707E-02 -0.10574121698E-01  0.23264962497E-01  0.00000000000E+00 0. -1.
     999901    1    3    3    0    0  0.26976905123E-01  0.37301247535E-01  0.13413896641E+00  0.89135424988E+00  0.88000000000E+00 0. -1.
        -11    1    4    4    0    0 -0.10545078145E-04 -0.85846258954E-02 -0.10302679058E-01  0.13420217202E-01  0.51100000000E-03 0.  1.
         11    1    4    4    0    0 -0.68984668367E-02 -0.23546893169E-01 -0.11326216565E+00  0.11589057042E+00  0.51100000000E-03 0. -1.
</event>
<event>
 8    1  0.1116841E+005  0.1043930E+01  0.7957747E-01            NaN
         13   -1    0    0    0    0  0.00000000000E+00  0.00000000000E+00  0.74505805969E-08  0.10566000000E+00  0.10566000000E+00 0.  1.
     999900   -1    0    0    0    0 -0.00000000000E+00 -0.00000000000E+00 -0.74505805969E-08  0.93827000000E+00  0.93827000000E+00 0.  1.
     999902    2    1    2    0    0 -0.24757345098E-02 -0.23391191022E-01  0.16855861400E-02  0.10203478398E+01  0.10200752893E+01 0.  0.
     999903    2    3    3    0    0  0.11699397250E+00  0.34965569219E-01 -0.30623635105E-01  0.12977363844E+00  0.31515227666E-01 0.  0.
         14    1    1    2    0    0  0.24757345098E-02  0.23391191022E-01 -0.16855861400E-02  0.23582160194E-01  0.00000000000E+00 0.  1.
     999901    1    3    3    0    0 -0.11946970701E+00 -0.58356760241E-01  0.32309221245E-01  0.89057420136E+00  0.88000000000E+00 0.  1.
        -11    1    4    4    0    0  0.11405570190E+00  0.26499102882E-01 -0.27620239837E-01  0.12030812258E+00  0.51100000000E-03 0. -1.
         11    1    4    4    0    0  0.29382706024E-02  0.84664663378E-02 -0.30033952678E-02  0.94655158611E-02  0.51100000000E-03 0.  1.
</event>
<event>
 8    1  0.1116841E+005  0.1043930E+01  0.7957747E-01            NaN
         13   -1    0    0    0    0  0.00000000000E+00  0.00000000000E+00  0.74505805969E-08  0.10566000000E+00  0.10566000000E+00 0.  1.
     999900   -1    0    0    0    0 -0.00000000000E+00 -0.00000000000E+00 -0.74505805969E-08  0.93827000000E+00  0.93827000000E+00 0.  1.
     999902    2    1    2    0    0 -0.11047508578E-01  0.17991028158E-01  0.85295410239E-02  0.10211598966E+01  0.10209059980E+01 0.  0.
     999903    2    3    3    0    0 -0.68513537090E-01 -0.75743981488E-01  0.80265163118E-01  0.13142139794E+00  0.19945724633E-01 0.  0.
         14    1    1    2    0    0  0.11047508578E-01 -0.17991028158E-01 -0.85295410239E-02  0.22770103426E-01  0.00000000000E+00 0.  1.
     999901    1    3    3    0    0  0.57466028512E-01  0.93735009646E-01 -0.71735622094E-01  0.88973849863E+00  0.88000000000E+00 0.  1.
        -11    1    4    4    0    0 -0.40219438866E-01 -0.51009056217E-01  0.39747038436E-01  0.76155205103E-01  0.51100000000E-03 0. -1.
         11    1    4    4    0    0 -0.28294098223E-01 -0.24734925271E-01  0.40518124682E-01  0.55266192841E-01  0.51100000000E-03 0.  1.
</event>
<event>
 8    1  0.1116841E+005  0.1043930E+01  0.7957747E-01            NaN
         13   -1    0    0    0    0  0.00000000000E+00  0.00000000000E+00  0.74505805969E-08  0.10566000000E+00  0.10566000000E+00 0. -1.
     999900   -1    0    0    0    0 -0.00000000000E+00 -0.00000000000E+00 -0.74505805969E-08  0.93827000000E+00  0.93827000000E+00 0. -1.
     999902    2    1    2    0    0  0.72311662979E-02 -0.21827130562E-01  0.49680206243E-02  0.10204056589E+01  0.10201344588E+01 0.  0.
     999903    2    3    3    0    0  0.10548391064E+00  0.70874816676E-01  0.18826048981E-01  0.12999041997E+00  0.19824079358E-01 0.  0.
         14    1    1    2    0    0 -0.72311662979E-02  0.21827130562E-01 -0.49680206243E-02  0.23524341086E-01  0.00000000000E+00 0. -1.
     999901    1    3    3    0    0 -0.98252744337E-01 -0.92701947238E-01 -0.13858028357E-01  0.89041523894E+00  0.88000000000E+00 0. -1.
        -11    1    4    4    0    0  0.21865288437E-01  0.65894924023E-02 -0.35631101267E-04  0.22842386897E-01  0.51100000000E-03 0. -1.
         11    1    4    4    0    0  0.83618622198E-01  0.64285324274E-01  0.18861680082E-01  0.10714803307E+00  0.51100000000E-03 0.  1.
</event>
<event>
 8    1  0.1116841E+005  0.1043930E+01  0.7957747E-01            NaN
         13   -1    0    0    0    0  0.00000000000E+00  0.00000000000E+00  0.74505805969E-08  0.10566000000E+00  0.10566000000E+00 0.  1.
     999900   -1    0    0    0    0 -0.00000000000E+00 -0.00000000000E+00 -0.74505805969E-08  0.93827000000E+00  0.93827000000E+00 0.  1.
     999902    2    1    2    0    0 -0.32289672780E-02  0.19746784485E-01 -0.11160545203E-01  0.10210188783E+01  0.10207617893E+01 0.  0.
     999903    2    3    3    0    0  0.10499416543E-01 -0.55218103653E-01 -0.11702960016E+00  0.13140297257E+00  0.20286378880E-01 0.  0.
         14    1    1    2    0    0  0.32289672780E-02 -0.19746784485E-01  0.11160545203E-01  0.22911121675E-01  0.00000000000E+00 0.  1.
     999901    1    3    3    0    0 -0.13728383821E-01  0.74964888138E-01  0.10586905495E+00  0.88961590576E+00  0.88000000000E+00 0. -1.
        -11    1    4    4    0    0  0.20035159023E-02 -0.37398065232E-01 -0.56967821479E-01  0.68177878848E-01  0.51100000000E-03 0. -1.
         11    1    4    4    0    0  0.84959006410E-02 -0.17820038421E-01 -0.60061778679E-01  0.63225093722E-01  0.51100000000E-03 0.  1.
</event>
<event>
 8    1  0.1116841E+005  0.1043930E+01  0.7957747E-01            NaN
         13   -1    0    0    0    0  0.00000000000E+00  0.00000000000E+00  0.74505805969E-08  0.10566000000E+00  0.10566000000E+00 0.  1.
     999900   -1    0    0    0    0 -0.00000000000E+00 -0.00000000000E+00 -0.74505805969E-08  0.93827000000E+00  0.93827000000E+00 0. -1.
     999902    2    1    2    0    0 -0.49039648994E-02 -0.16884261353E-01  0.14379495248E-01  0.10212166331E+01  0.10209640124E+01 0.  0.
     999903    2    3    3    0    0 -0.12708843272E+00  0.16657622590E-01 -0.21620696566E-01  0.13141321886E+00  0.19314073824E-01 0.  0.
         14    1    1    2    0    0  0.49039648994E-02  0.16884261353E-01 -0.14379495248E-01  0.22713366918E-01  0.00000000000E+00 0.  1.
     999901    1    3    3    0    0  0.12218446782E+00 -0.33541883943E-01  0.36000191814E-01  0.88980341423E+00  0.88000000000E+00 0.  1.
        -11    1    4    4    0    0 -0.27083303758E-01  0.84830715725E-02 -0.11269871815E-01  0.30540775653E-01  0.51100000000E-03 0.  1.
         11    1    4    4    0    0 -0.10000512897E+00  0.81745510177E-02 -0.10350824751E-01  0.10087244320E+00  0.51100000000E-03 0. -1.
</event>
<event>
 8    1  0.1116841E+005  0.1043930E+01  0.7957747E-01            NaN
         13   -1    0    0    0    0  0.00000000000E+00  0.00000000000E+00  0.74505805969E-08  0.10566000000E+00  0.10566000000E+00 0. -1.
     999900   -1    0    0    0    0 -0.00000000000E+00 -0.00000000000E+00 -0.74505805969E-08  0.93827000000E+00  0.93827000000E+00 0.  1.
     999902    2    1    2    0    0 -0.18772522652E-01 -0.87105515226E-02 -0.11735049732E-01  0.10201393988E+01  0.10198619516E+01 0.  0.
     999903    2    3    3    0    0  0.99148403789E-01  0.73615197298E-01 -0.28020190883E-01  0.12831650176E+00  0.20745849711E-01 0.  0.
         14    1    1    2    0    0  0.18772522652E-01  0.87105515226E-02  0.11735049732E-01  0.23790601227E-01  0.00000000000E+00 0. -1.
     999901    1    3    3    0    0 -0.11792092644E+00 -0.82325748820E-01  0.16285141151E-01  0.89182289701E+00  0.88000000000E+00 0. -1.
        -11    1    4    4    0    0  0.60798152451E-01  0.57275853804E-01 -0.18438548060E-01  0.85540516400E-01  0.51100000000E-03 0.  1.
         11    1    4    4    0    0  0.38350251338E-01  0.16339343494E-01 -0.95816428235E-02  0.42775985362E-01  0.51100000000E-03 0. -1.
</event>
<event>
 8    1  0.1116841E+005  0.1043930E+01  0.7957747E-01            NaN
         13   -1    0    0    0    0  0.00000000000E+00  0.00000000000E+00  0.74505805969E-08  0.10566000000E+00  0.10566000000E+00 0.  1.
     999900   -1    0    0    0    0 -0.00000000000E+00 -0.00000000000E+00 -0.74505805969E-08  0.93827000000E+00  0.93827000000E+00 0. -1.
     999902    2    1    2    0    0  0.12177684340E-01 -0.18583496789E-01 -0.60995530640E-02  0.10208898851E+01  0.10206298597E+01 0.  0.
     999903    2    3    3    0    0  0.40976474400E-02  0.81974506484E-02  0.12837352272E+00  0.13023534246E+00  0.19937256049E-01 0.  0.
         14    1    1    2    0    0 -0.12177684340E-01  0.18583496789E-01  0.60995530640E-02  0.23040114938E-01  0.00000000000E+00 0.  1.
     999901    1    3    3    0    0  0.80800368997E-02 -0.26780947437E-01 -0.13447307579E+00  0.89065454260E+00  0.88000000000E+00 0. -1.
        -11    1    4    4    0    0  0.41614073598E-02  0.11990894757E-01  0.44581310278E-01  0.46355724732E-01  0.51100000000E-03 0. -1.
         11    1    4    4    0    0 -0.63759919759E-04 -0.37934441088E-02  0.83792212443E-01  0.83879617731E-01  0.51100000000E-03 0.  1.
</event>
<event>
 8    1  0.1116841E+005  0.1043930E+01  0.7957747E-01            NaN
         13   -1    0    0    0    0  0.00000000000E+00  0.00000000000E+00  0.74505805969E-08  0.10566000000E+00  0.10566000000E+00 0.  1.
     999900   -1    0    0    0    0 -0.00000000000E+00 -0.00000000000E+00 -0.74505805969E-08  0.93827000000E+00  0.93827000000E+00 0. -1.
     999902    2    1    2    0    0  0.23947521006E-01  0.91801220524E-03  0.27385764329E-02  0.10198089240E+01  0.10195236216E+01 0.  0.
     999903    2    3    3    0    0  0.18607426506E-02  0.69846184860E-01  0.10858396069E+00  0.13051585408E+00  0.19025239619E-01 0.  0.
         14    1    1    2    0    0 -0.23947521006E-01 -0.91801220524E-03 -0.27385764329E-02  0.24121076046E-01  0.00000000000E+00 0. -1.
     999901    1    3    3    0    0  0.22086778355E-01 -0.68928172655E-01 -0.10584538426E+00  0.88929306988E+00  0.88000000000E+00 0. -1.
        -11    1    4    4    0    0  0.68668084381E-02  0.40757350069E-01  0.49670749752E-01  0.64620114088E-01  0.51100000000E-03 0. -1.
         11    1    4    4    0    0 -0.50060657874E-02  0.29088834791E-01  0.58913210941E-01  0.65895739988E-01  0.51100000000E-03 0.  1.
</event>
<event>
 8    1  0.1116841E+005  0.1043930E+01  0.7957747E-01            NaN
         13   -1    0    0    0    0  0.00000000000E+00  0.00000000000E+00  0.74505805969E-08  0.10566000000E+00  0.10566000000E+00 0. -1.
     999900   -1    0    0    0    0 -0.00000000000E+00 -0.00000000000E+00 -0.74505805969E-08  0.93827000000E+00  0.93827000000E+00 0.  1.
     999902    2    1    2    0    0 -0.21681996340E-01 -0.96879059316E-02  0.33357996996E-02  0.10199489232E+01  0.10196669622E+01 0.  0.
     999903    2    3    3    0    0 -0.12873124635E+00 -0.15750163455E-01 -0.22452704476E-01  0.13306598847E+00  0.19560979383E-01 0.  0.
         14    1    1    2    0    0  0.21681996340E-01  0.96879059316E-02 -0.33357996996E-02  0.23981076837E-01  0.00000000000E+00 0.  1.
     999901    1    3    3    0    0  0.10704925001E+00  0.60622575238E-02  0.25788504176E-01  0.88688293469E+00  0.88000000000E+00 0.  1.
        -11    1    4    4    0    0 -0.76260752099E-01 -0.63620865014E-02 -0.22476322313E-01  0.79759793387E-01  0.51100000000E-03 0.  1.
         11    1    4    4    0    0 -0.52470494252E-01 -0.93880769539E-02  0.23617836465E-04  0.53306195088E-01  0.51100000000E-03 0. -1.
</event>
<event>
 8    1  0.1116841E+005  0.1043930E+01  0.7957747E-01            NaN
         13   -1    0    0    0    0  0.00000000000E+00  0.00000000000E+00  0.74505805969E-08  0.10566000000E+00  0.10566000000E+00 0. -1.
     999900   -1    0    0    0    0 -0.00000000000E+00 -0.00000000000E+00 -0.74505805969E-08  0.93827000000E+00  0.93827000000E+00 0. -1.
     999902    2    1    2    0    0  0.15462073616E-01 -0.17771016125E-01 -0.40442229849E-02  0.10200293625E+01  0.10197493122E+01 0.  0.
     999903    2    3    3    0    0  0.12981722090E+00  0.83418395234E-02  0.12214242751E-01  0.13209731628E+00  0.19452920440E-01 0.  0.
         14    1    1    2    0    0 -0.15462073616E-01  0.17771016125E-01  0.40442229849E-02  0.23900637527E-01  0.00000000000E+00 0.  1.
     999901    1    3    3    0    0 -0.11435514729E+00 -0.26112855649E-01 -0.16258465735E-01  0.88793204619E+00  0.88000000000E+00 0. -1.
        -11    1    4    4    0    0  0.78252178904E-01 -0.35905461297E-02  0.11396975566E-01  0.79160897531E-01  0.51100000000E-03 0. -1.
         11    1    4    4    0    0  0.51565042000E-01  0.11932385653E-01  0.81726718408E-03  0.52936418754E-01  0.51100000000E-03 0.  1.
</event>
<event>
 8    1  0.1116841E+005  0.1043930E+01  0.7957747E-01            NaN
         13   -1    0    0    0    0  0.00000000000E+00  0.00000000000E+00  0.74505805969E-08  0.10566000000E+00  0.10566000000E+00 0.  1.
     999900   -1    0    0    0    0 -0.00000000000E+00 -0.00000000000E+00 -0.74505805969E-08  0.93827000000E+00  0.93827000000E+00 0. -1.
     999902    2    1    2    0    0  0.15348951295E-01 -0.82079747233E-02 -0.15618279956E-01  0.10205442816E+01  0.10202763052E+01 0.  0.
     999903    2    3    3    0    0  0.97245117500E-02 -0.11534619646E+00  0.57815667503E-01  0.13099227218E+00  0.20420891174E-01 0.  0.
         14    1    1    2    0    0 -0.15348951295E-01  0.82079747233E-02  0.15618279956E-01  0.23385718370E-01  0.00000000000E+00 0.  1.
     999901    1    3    3    0    0  0.56244395454E-02  0.10713822173E+00 -0.73433947458E-01  0.88955200945E+00  0.88000000000E+00 0. -1.
        -11    1    4    4    0    0 -0.26614876407E-02 -0.52082743259E-01  0.34050435476E-01  0.62284740820E-01  0.51100000000E-03 0. -1.
         11    1    4    4    0    0  0.12385999391E-01 -0.63263453197E-01  0.23765232027E-01  0.68707531360E-01  0.51100000000E-03 0.  1.
</event>
<event>
 8    1  0.1116841E+005  0.1043930E+01  0.7957747E-01            NaN
         13   -1    0    0    0    0  0.00000000000E+00  0.00000000000E+00  0.74505805969E-08  0.10566000000E+00  0.10566000000E+00 0.  1.
     999900   -1    0    0    0    0 -0.00000000000E+00 -0.00000000000E+00 -0.74505805969E-08  0.93827000000E+00  0.93827000000E+00 0.  1.
     999902    2    1    2    0    0 -0.13462980687E-01  0.12968779280E-01  0.12671318385E-01  0.10213467453E+01  0.10210970427E+01 0.  0.
     999903    2    3    3    0    0 -0.45699213641E-01 -0.85377125178E-01 -0.84274056737E-01  0.12999412290E+00  0.20461762331E-01 0.  0.
         14    1    1    2    0    0  0.13462980687E-01 -0.12968779280E-01 -0.12671318385E-01  0.22583254739E-01  0.00000000000E+00 0.  1.
     999901    1    3    3    0    0  0.32236232954E-01  0.98345904458E-01  0.96945375122E-01  0.89135262236E+00  0.88000000000E+00 0. -1.
        -11    1    4    4    0    0 -0.53635506220E-02 -0.20284186900E-01 -0.27852787005E-01  0.34874844493E-01  0.51100000000E-03 0.  1.
         11    1    4    4    0    0 -0.40335663019E-01 -0.65092938278E-01 -0.56421269732E-01  0.95119278403E-01  0.51100000000E-03 0. -1.
</event>
<event>
 8    1  0.1116841E+005  0.1043930E+01  0.7957747E-01            NaN
         13   -1    0    0    0    0  0.00000000000E+00  0.00000000000E+00  0.74505805969E-08  0.10566000000E+00  0.10566000000E+00 0.  1.
     999900   -1    0    0    0    0 -0.00000000000E+00 -0.00000000000E+00 -0.74505805969E-08  0.93827000000E+00  0.93827000000E+00 0.  1.
     999902    2    1    2    0    0 -0.18489393115E-03  0.15973129741E-01  0.16278342909E-01  0.10211229943E+01  0.10208682628E+01 0.  0.
     999903    2    3    3    0    0  0.10729403256E-01  0.99659198133E-01  0.86923520427E-01  0.13426718811E+00  0.20613188340E-01 0.  0.
         14    1    1    2    0    0  0.18489393115E-03 -0.15973129741E-01 -0.16278342909E-01  0.22807005663E-01  0.00000000000E+00 0. -1.
     999901    1    3    3    0    0 -0.10914297187E-01 -0.83686068392E-01 -0.70645177518E-01  0.88685580622E+00  0.88000000000E+00 0. -1.
        -11    1    4    4    0    0  0.15943208443E-01  0.60759605384E-01  0.58129020546E-01  0.85587146771E-01  0.51100000000E-03 0.  1.
         11    1    4    4    0    0 -0.52138051875E-02  0.38899592749E-01  0.28794499881E-01  0.48680041341E-01  0.51100000000E-03 0. -1.
</event>
<event>
 8    1  0.1116841E+005  0.1043930E+01  0.7957747E-01            NaN
         13   -1    0    0    0    0  0.00000000000E+00  0.00000000000E+00  0.74505805969E-08  0.10566000000E+00  0.10566000000E+00 0. -1.
     999900   -1    0    0    0    0 -0.00000000000E+00 -0.00000000000E+00 -0.74505805969E-08  0.93827000000E+00  0.93827000000E+00 0. -1.
     999902    2    1    2    0    0  0.22137860648E-01  0.46337686198E-02 -0.67229896808E-02  0.10203343378E+01  0.10200614715E+01 0.  0.
     999903    2    3    3    0    0  0.10348487461E+00  0.64979200815E-01 -0.52357758346E-01  0.13334987343E+00  0.10461265422E-01 0.  0.
         14    1    1    2    0    0 -0.22137860648E-01 -0.46337686198E-02  0.67229896808E-02  0.23595662227E-01  0.00000000000E+00 0. -1.
     999901    1    3    3    0    0 -0.81347013962E-01 -0.60345432195E-01  0.45634768665E-01  0.88698446434E+00  0.88000000000E+00 0.  1.
        -11    1    4    4    0    0  0.57732589861E-01  0.39949407866E-01 -0.25581669785E-01  0.74724092975E-01  0.51100000000E-03 0.  1.
         11    1    4    4    0    0  0.45752284749E-01  0.25029792948E-01 -0.26776088561E-01  0.58625780459E-01  0.51100000000E-03 0. -1.
</event>
<event>
 8    1  0.1116841E+005  0.1043930E+01  0.7957747E-01            NaN
         13   -1    0    0    0    0  0.00000000000E+00  0.00000000000E+00  0.74505805969E-08  0.10566000000E+00  0.10566000000E+00 0.  1.
     999900   -1    0    0    0    0 -0.00000000000E+00 -0.00000000000E+00 -0.74505805969E-08  0.93827000000E+00  0.93827000000E+00 0.  1.
     999902    2    1    2    0    0  0.23484342322E-01  0.19647947352E-02  0.56006276405E-02  0.10197072466E+01  0.10194195049E+01 0.  0.
     999903    2    3    3    0    0  0.54909096308E-01  0.11275807326E+00  0.35248608298E-01  0.13170855938E+00  0.19372358788E-01 0.  0.
         14    1    1    2    0    0 -0.23484342322E-01 -0.19647947352E-02 -0.56006276405E-02  0.24222753407E-01  0.00000000000E+00 0. -1.
     999901    1    3    3    0    0 -0.31424753986E-01 -0.11079327853E+00 -0.29647980657E-01  0.88799868721E+00  0.88000000000E+00 0.  1.
        -11    1    4    4    0    0  0.29546831213E-01  0.39285368935E-01  0.12623503252E-01  0.50754008733E-01  0.51100000000E-03 0.  1.
         11    1    4    4    0    0  0.25362265096E-01  0.73472704326E-01  0.22625105046E-01  0.80954550651E-01  0.51100000000E-03 0. -1.
</event>
<event>
 8    1  0.1116841E+005  0.1043930E+01  0.7957747E-01            NaN
         13   -1    0    0    0    0  0.00000000000E+00  0.00000000000E+00  0.74505805969E-08  0.10566000000E+00  0.10566000000E+00 0.  1.
     999900   -1    0    0    0    0 -0.00000000000E+00 -0.00000000000E+00 -0.74505805969E-08  0.93827000000E+00  0.93827000000E+00 0. -1.
     999902    2    1    2    0    0  0.21526640040E-01 -0.15459229210E-01  0.58161716238E-02  0.10167967759E+01  0.10164346863E+01 0.  0.
     999903    2    3    3    0    0  0.34481781707E-01 -0.11936373212E+00  0.33448491478E-01  0.13015844683E+00  0.19639905423E-01 0.  0.
         14    1    1    2    0    0 -0.21526640040E-01  0.15459229210E-01 -0.58161716238E-02  0.27133224127E-01  0.00000000000E+00 0.  1.
     999901    1    3    3    0    0 -0.12955141667E-01  0.10390450291E+00 -0.27632319854E-01  0.88663832904E+00  0.88000000000E+00 0. -1.
        -11    1    4    4    0    0  0.55000461376E-02 -0.27543038123E-01  0.15919127014E-01  0.32288530200E-01  0.51100000000E-03 0. -1.
         11    1    4    4    0    0  0.28981735570E-01 -0.91820693996E-01  0.17529364464E-01  0.97869916634E-01  0.51100000000E-03 0.  1.
</event>
<event>
 8    1  0.1116841E+005  0.1043930E+01  0.7957747E-01            NaN
         13   -1    0    0    0    0  0.00000000000E+00  0.00000000000E+00  0.74505805969E-08  0.10566000000E+00  0.10566000000E+00 0. -1.
     999900   -1    0    0    0    0 -0.00000000000E+00 -0.00000000000E+00 -0.74505805969E-08  0.93827000000E+00  0.93827000000E+00 0.  1.
     999902    2    1    2    0    0  0.77578532395E-02  0.31509179903E-02 -0.21762089834E-01  0.10206126004E+01  0.10203462054E+01 0.  0.
     999903    2    3    3    0    0  0.15449911403E-01 -0.12033246083E+00 -0.46485560848E-01  0.13161397123E+00  0.21041130290E-01 0.  0.
         14    1    1    2    0    0 -0.77578532395E-02 -0.31509179903E-02  0.21762089834E-01  0.23317399620E-01  0.00000000000E+00 0. -1.
     999901    1    3    3    0    0 -0.76920581639E-02  0.12348337882E+00  0.24723471013E-01  0.88899862915E+00  0.88000000000E+00 0. -1.
        -11    1    4    4    0    0  0.30288212375E-02 -0.93574098177E-01 -0.35640606108E-01  0.10017883775E+00  0.51100000000E-03 0. -1.
         11    1    4    4    0    0  0.12421090166E-01 -0.26758362657E-01 -0.10844954740E-01  0.31435133487E-01  0.51100000000E-03 0.  1.
</event>
<event>
 8    1  0.1116841E+005  0.1043930E+01  0.7957747E-01            NaN
         13   -1    0    0    0    0  0.00000000000E+00  0.00000000000E+00  0.74505805969E-08  0.10566000000E+00  0.10566000000E+00 0. -1.
     999900   -1    0    0    0    0 -0.00000000000E+00 -0.00000000000E+00 -0.74505805969E-08  0.93827000000E+00  0.93827000000E+00 0. -1.
     999902    2    1    2    0    0  0.20921149560E-01  0.62628834275E-02 -0.91187919481E-02  0.10202641898E+01  0.10199896795E+01 0.  0.
     999903    2    3    3    0    0  0.14183851739E-01  0.12622793524E+00  0.27519998064E-01  0.13134383013E+00  0.18951995495E-01 0.  0.
         14    1    1    2    0    0 -0.20921149560E-01 -0.62628834275E-02  0.91187919481E-02  0.23665810240E-01  0.00000000000E+00 0. -1.
     999901    1    3    3    0    0  0.67372978206E-02 -0.11996505181E+00 -0.36638790012E-01  0.88892035963E+00  0.88000000000E+00 0.  1.
        -11    1    4    4    0    0  0.12778380805E-01  0.87611750488E-01  0.10655100363E-01  0.89179022894E-01  0.51100000000E-03 0.  1.
         11    1    4    4    0    0  0.14054709347E-02  0.38616184753E-01  0.16864897701E-01  0.42164807231E-01  0.51100000000E-03 0. -1.
</event>
<event>
 8    1  0.1116841E+005  0.1043930E+01  0.7957747E-01            NaN
         13   -1    0    0    0    0  0.00000000000E+00  0.00000000000E+00  0.74505805969E-08  0.10566000000E+00  0.10566000000E+00 0.  1.
     999900   -1    0    0    0    0 -0.00000000000E+00 -0.00000000000E+00 -0.74505805969E-08  0.93827000000E+00  0.93827000000E+00 0.  1.
     999902    2    1    2    0    0  0.19543754881E-01 -0.13703356085E-01  0.44981737273E-02  0.10196406219E+01  0.10193512760E+01 0.  0.
     999903    2    3    3    0    0  0.11887674029E+00 -0.13678521006E-01  0.53812273065E-01  0.13268012501E+00  0.19735083534E-01 0.  0.
         14    1    1    2    0    0 -0.19543754881E-01  0.13703356085E-01 -0.44981737273E-02  0.24289378125E-01  0.00000000000E+00 0.  1.
     999901    1    3    3    0    0 -0.99332985406E-01 -0.24835079350E-04 -0.49314099338E-01  0.88696049687E+00  0.88000000000E+00 0. -1.
        -11    1    4    4    0    0  0.70473539636E-01 -0.29669573496E-03  0.24988791224E-01  0.74775053494E-01  0.51100000000E-03 0. -1.
         11    1    4    4    0    0  0.48403200650E-01 -0.13381825271E-01  0.28823481841E-01  0.57905071515E-01  0.51100000000E-03 0.  1.
</event>
<event>
 8    1  0.1116841E+005  0.1043930E+01  0.7957747E-01            NaN
         13   -1    0    0    0    0  0.00000000000E+00  0.00000000000E+00  0.74505805969E-08  0.10566000000E+00  0.10566000000E+00 0. -1.
     999900   -1    0    0    0    0 -0.00000000000E+00 -0.00000000000E+00 -0.74505805969E-08  0.93827000000E+00  0.93827000000E+00 0.  1.
     999902    2    1    2    0    0 -0.20577061860E-01  0.78971112062E-02  0.55830717594E-02  0.10211934539E+01  0.10209403115E+01 0.  0.
     999903    2    3    3    0    0  0.26936794738E-01 -0.97465214811E-01  0.80381684402E-01  0.13048945209E+00  0.18472219966E-01 0.  0.
         14    1    1    2    0    0  0.20577061860E-01 -0.78971112062E-02 -0.55830717594E-02  0.22736546142E-01  0.00000000000E+00 0. -1.
     999901    1    3    3    0    0 -0.47513856597E-01  0.10536232602E+00 -0.74798612643E-01  0.89070400177E+00  0.88000000000E+00 0.  1.
        -11    1    4    4    0    0  0.14398128113E-02 -0.33668944236E-01  0.21257703789E-01  0.39847483713E-01  0.51100000000E-03 0. -1.
         11    1    4    4    0    0  0.25496981926E-01 -0.63796270576E-01  0.59123980614E-01  0.90641968377E-01  0.51100000000E-03 0.  1.
</event>
<event>
 8    1  0.1116841E+005  0.1043930E+01  0.7957747E-01            NaN
         13   -1    0    0    0    0  0.00000000000E+00  0.00000000000E+00  0.74505805969E-08  0.10566000000E+00  0.10566000000E+00 0. -1.
     999900   -1    0    0    0    0 -0.00000000000E+00 -0.00000000000E+00 -0.74505805969E-08  0.93827000000E+00  0.93827000000E+00 0.  1.
     999902    2    1    2    0    0  0.13926032149E-02  0.17322386419E-01 -0.15007003020E-01  0.10209688468E+01  0.10207106209E+01 0.  0.
     999903    2    3    3    0    0  0.95468075602E-01 -0.61496447865E-01 -0.62087232301E-01  0.13120531020E+00  0.21541644555E-01 0.  0.
         14    1    1    2    0    0 -0.13926032149E-02 -0.17322386419E-01  0.15007003020E-01  0.22961153164E-01  0.00000000000E+00 0. -1.
     999901    1    3    3    0    0 -0.94075472387E-01  0.78818834284E-01  0.47080229281E-01  0.88976353664E+00  0.88000000000E+00 0. -1.
        -11    1    4    4    0    0  0.27227796331E-01 -0.27139591802E-01 -0.27894576532E-01  0.47500303758E-01  0.51100000000E-03 0.  1.
         11    1    4    4    0    0  0.68240279271E-01 -0.34356856063E-01 -0.34192655769E-01  0.83705006440E-01  0.51100000000E-03 0. -1.
</event>
<event>
 8    1  0.1116841E+005  0.1043930E+01  0.7957747E-01            NaN
         13   -1    0    0    0    0  0.00000000000E+00  0.00000000000E+00  0.74505805969E-08  0.10566000000E+00  0.10566000000E+00 0. -1.
     999900   -1    0    0    0    0 -0.00000000000E+00 -0.00000000000E+00 -0.74505805969E-08  0.93827000000E+00  0.93827000000E+00 0. -1.
     999902    2    1    2    0    0  0.97160268178E-02  0.15505596092E-01  0.16068987637E-01  0.10195776479E+01  0.10192867816E+01 0.  0.
     999903    2    3    3    0    0 -0.73613745469E-02  0.52456707545E-01  0.11992177957E+00  0.13253625958E+00  0.19461009352E-01 0.  0.
         14    1    1    2    0    0 -0.97160268178E-02 -0.15505596092E-01 -0.16068987637E-01  0.24352352063E-01  0.00000000000E+00 0.  1.
     999901    1    3    3    0    0  0.17077401365E-01 -0.36951111453E-01 -0.10385279193E+00  0.88704138836E+00  0.88000000000E+00 0. -1.
        -11    1    4    4    0    0  0.21630168739E-02  0.29343208123E-01  0.81930498200E-01  0.87054983552E-01  0.51100000000E-03 0.  1.
         11    1    4    4    0    0 -0.95243914208E-02  0.23113499423E-01  0.37991281370E-01  0.45481276023E-01  0.51100000000E-03 0. -1.
</event>
<event>
 8    1  0.1116841E+005  0.1043930E+01  0.7957747E-01            NaN
         13   -1    0    0    0    0  0.00000000000E+00  0.00000000000E+00  0.74505805969E-08  0.10566000000E+00  0.10566000000E+00 0.  1.
     999900   -1    0    0    0    0 -0.00000000000E+00 -0.00000000000E+00 -0.74505805969E-08  0.93827000000E+00  0.93827000000E+00 0.  1.
     999902    2    1    2    0    0  0.10091941242E-01  0.60660859624E-02  0.20927631737E-01  0.10199172857E+01  0.10196345714E+01 0.  0.
     999903    2    3    3    0    0  0.10496551883E+00 -0.62280909311E-01 -0.40230851031E-01  0.13007872311E+00  0.20131592700E-01 0.  0.
         14    1    1    2    0    0 -0.10091941242E-01 -0.60660859624E-02 -0.20927631737E-01  0.24012714279E-01  0.00000000000E+00 0. -1.
     999901    1    3    3    0    0 -0.94873577588E-01  0.68346995274E-01  0.61158482768E-01  0.88983856261E+00  0.88000000000E+00 0. -1.
        -11    1    4    4    0    0  0.28855581073E-01 -0.90048038596E-02 -0.46228001995E-02  0.30583695890E-01  0.51100000000E-03 0. -1.
         11    1    4    4    0    0  0.76109937757E-01 -0.53276105452E-01 -0.35608050831E-01  0.99495027225E-01  0.51100000000E-03 0.  1.
</event>
<event>
 8    1  0.1116841E+005  0.1043930E+01  0.7957747E-01            NaN
         13   -1    0    0    0    0  0.00000000000E+00  0.00000000000E+00  0.74505805969E-08  0.10566000000E+00  0.10566000000E+00 0. -1.
     999900   -1    0    0    0    0 -0.00000000000E+00 -0.00000000000E+00 -0.74505805969E-08  0.93827000000E+00  0.93827000000E+00 0.  1.
     999902    2    1    2    0    0 -0.19173821423E-01 -0.72878591962E-02  0.12781417206E-01  0.10197615713E+01  0.10194751343E+01 0.  0.
     999903    2    3    3    0    0 -0.65733680013E-01 -0.64342742564E-01  0.93831427587E-01  0.13297400693E+00  0.20416770266E-01 0.  0.
         14    1    1    2    0    0  0.19173821423E-01  0.72878591962E-02 -0.12781417206E-01  0.24168428692E-01  0.00000000000E+00 0. -1.
     999901    1    3    3    0    0  0.46559858589E-01  0.57054883368E-01 -0.81050010381E-01  0.88678756438E+00  0.88000000000E+00 0.  1.
        -11    1    4    4    0    0 -0.36969954061E-02 -0.13456594536E-01  0.12978874782E-01  0.19064627538E-01  0.51100000000E-03 0. -1.
         11    1    4    4    0    0 -0.62036684607E-01 -0.50886148028E-01  0.80852552805E-01  0.11390937939E+00  0.51100000000E-03 0.  1.
</event>
<event>
 8    1  0.1116841E+005  0.1043930E+01  0.7957747E-01            NaN
         13   -1    0    0    0    0  0.00000000000E+00  0.00000000000E+00  0.74505805969E-08  0.10566000000E+00  0.10566000000E+00 0.  1.
     999900   -1    0    0    0    0 -0.00000000000E+00 -0.00000000000E+00 -0.74505805969E-08  0.93827000000E+00  0.93827000000E+00 0. -1.
     999902    2    1    2    0    0  0.12471740045E-01 -0.10365425667E-01 -0.17686748200E-01  0.10199340126E+01  0.10196516967E+01 0.  0.
     999903    2    3    3    0    0 -0.70240766942E-01 -0.90199356774E-01 -0.61541622693E-01  0.13137446740E+00  0.20054676697E-01 0.  0.
         14    1    1    2    0    0 -0.12471740045E-01  0.10365425667E-01  0.17686748200E-01  0.23995987392E-01  0.00000000000E+00 0.  1.
     999901    1    3    3    0    0  0.82712506987E-01  0.79833931107E-01  0.43854874493E-01  0.88855954521E+00  0.88000000000E+00 0.  1.
        -11    1    4    4    0    0 -0.16769323874E-01 -0.36991882500E-01 -0.20552046878E-01  0.45522053402E-01  0.51100000000E-03 0.  1.
         11    1    4    4    0    0 -0.53471443069E-01 -0.53207474273E-01 -0.40989575814E-01  0.85852413995E-01  0.51100000000E-03 0. -1.
</event>
<event>
 8    1  0.1116841E+005  0.1043930E+01  0.7957747E-01            NaN
         13   -1    0    0    0    0  0.00000000000E+00  0.00000000000E+00  0.74505805969E-08  0.10566000000E+00  0.10566000000E+00 0.  1.
     999900   -1    0    0    0    0 -0.00000000000E+00 -0.00000000000E+00 -0.74505805969E-08  0.93827000000E+00  0.93827000000E+00 0.  1.
     999902    2    1    2    0    0 -0.11534958675E-01  0.13646457780E-01 -0.16274552328E-01  0.10197609674E+01  0.10194745159E+01 0.  0.
     999903    2    3    3    0    0  0.59734002066E-01 -0.55688163835E-01  0.95547277070E-01  0.12712964598E+00  0.19061535529E-01 0.  0.
         14    1    1    2    0    0  0.11534958675E-01 -0.13646457780E-01  0.16274552328E-01  0.24169032563E-01  0.00000000000E+00 0.  1.
     999901    1    3    3    0    0 -0.71268960741E-01  0.69334621615E-01 -0.11182182940E+00  0.89263132146E+00  0.88000000000E+00 0.  1.
        -11    1    4    4    0    0  0.36023961907E-01 -0.20595138859E-01  0.48119437210E-01  0.63542323962E-01  0.51100000000E-03 0. -1.
         11    1    4    4    0    0  0.23710040160E-01 -0.35093024976E-01  0.47427839860E-01  0.63587322016E-01  0.51100000000E-03 0.  1.
</event>
<event>
 8    1  0.1116841E+005  0.1043930E+01  0.7957747E-01            NaN
         13   -1    0    0    0    0  0.00000000000E+00  0.00000000000E+00  0.74505805969E-08  0.10566000000E+00  0.10566000000E+00 0.  1.
     999900   -1    0    0    0    0 -0.00000000000E+00 -0.00000000000E+00 -0.74505805969E-08  0.93827000000E+00  0.93827000000E+00 0.  1.
     999902    2    1    2    0    0  0.18993895827E-01  0.12516502401E-01 -0.51570625183E-02  0.10206056307E+01  0.10203390746E+01 0.  0.
     999903    2    3    3    0    0 -0.14660081186E-01 -0.68018215912E-01 -0.10831813187E+00  0.13029072163E+00  0.20036436198E-01 0.  0.
         14    1    1    2    0    0 -0.18993895827E-01 -0.12516502401E-01  0.51570625183E-02  0.23324369334E-01  0.00000000000E+00 0.  1.
     999901    1    3    3    0    0  0.33653977012E-01  0.80534718313E-01  0.10316106935E+00  0.89031490904E+00  0.88000000000E+00 0. -1.
        -11    1    4    4    0    0  0.10474237437E-02 -0.40338713586E-01 -0.55453094479E-01  0.68582911272E-01  0.51100000000E-03 0.  1.
         11    1    4    4    0    0 -0.15707504929E-01 -0.27679502325E-01 -0.52865037388E-01  0.61707810358E-01  0.51100000000E-03 0. -1.
</event>
<event>
 8    1  0.1116841E+005  0.1043930E+01  0.7957747E-01            NaN
         13   -1    0    0    0    0  0.00000000000E+00  0.00000000000E+00  0.74505805969E-08  0.10566000000E+00  0.10566000000E+00 0.  1.
     999900   -1    0    0    0    0 -0.00000000000E+00 -0.00000000000E+00 -0.74505805969E-08  0.93827000000E+00  0.93827000000E+00 0. -1.
     999902    2    1    2    0    0  0.15939571228E-01 -0.57549338108E-02  0.16110590074E-01  0.10205475214E+01  0.10202796200E+01 0.  0.
     999903    2    3    3    0    0 -0.60751545739E-01 -0.76125468534E-02 -0.11086219686E+00  0.12813110133E+00  0.19453823685E-01 0.  0.
         14    1    1    2    0    0 -0.15939571228E-01  0.57549338108E-02 -0.16110590074E-01  0.23382478624E-01  0.00000000000E+00 0.  1.
     999901    1    3    3    0    0  0.76691116967E-01  0.18576130426E-02  0.12697278693E+00  0.89241642005E+00  0.88000000000E+00 0.  1.
        -11    1    4    4    0    0 -0.65161386612E-02 -0.72076627857E-02 -0.21449953837E-01  0.23553600712E-01  0.51100000000E-03 0.  1.
         11    1    4    4    0    0 -0.54235407078E-01 -0.40488406767E-03 -0.89412243022E-01  0.10457750062E+00  0.51100000000E-03 0. -1.
</event>
<event>
 8    1  0.1116841E+005  0.1043930E+01  0.7957747E-01            NaN
         13   -1    0    0    0    0  0.00000000000E+00  0.00000000000E+00  0.74505805969E-08  0.10566000000E+00  0.10566000000E+00 0. -1.
     999900   -1    0    0    0    0 -0.00000000000E+00 -0.00000000000E+00 -0.74505805969E-08  0.93827000000E+00  0.93827000000E+00 0. -1.
     999902    2    1    2    0    0  0.56932801910E-02  0.15503083936E-01  0.17153927385E-01  0.10201178964E+01  0.10198399415E+01 0.  0.
     999903    2    3    3    0    0  0.11500169663E+00  0.61677750588E-01 -0.12064193169E-02  0.13196389399E+00  0.19582612793E-01 0.  0.
         14    1    1    2    0    0 -0.56932801910E-02 -0.15503083936E-01 -0.17153927385E-01  0.23812103552E-01  0.00000000000E+00 0. -1.
     999901    1    3    3    0    0 -0.10930841644E+00 -0.46174666653E-01  0.18360346702E-01  0.88815400245E+00  0.88000000000E+00 0. -1.
        -11    1    4    4    0    0  0.32675799369E-01  0.24243043321E-01  0.64638829481E-02  0.41200435891E-01  0.51100000000E-03 0. -1.
         11    1    4    4    0    0  0.82325897265E-01  0.37434707267E-01 -0.76703022649E-02  0.90763458101E-01  0.51100000000E-03 0.  1.
</event>
<event>
 8    1  0.1116841E+005  0.1043930E+01  0.7957747E-01            NaN
         13   -1    0    0    0    0  0.00000000000E+00  0.00000000000E+00  0.74505805969E-08  0.10566000000E+00  0.10566000000E+00 0.  1.
     999900   -1    0    0    0    0 -0.00000000000E+00 -0.00000000000E+00 -0.74505805969E-08  0.93827000000E+00  0.93827000000E+00 0.  1.
     999902    2    1    2    0    0  0.75771112350E-02 -0.84721626958E-02 -0.19959643135E-01  0.10209609445E+01  0.10207025388E+01 0.  0.
     999903    2    3    3    0    0 -0.90821224409E-01  0.50142243989E-01 -0.78267279475E-01  0.13162542764E+00  0.20898486323E-01 0.  0.
         14    1    1    2    0    0 -0.75771112350E-02  0.84721626958E-02  0.19959643135E-01  0.22969055477E-01  0.00000000000E+00 0.  1.
     999901    1    3    3    0    0  0.98398335644E-01 -0.58614406685E-01  0.58307636340E-01  0.88933551688E+00  0.88000000000E+00 0.  1.
        -11    1    4    4    0    0 -0.67041714665E-01  0.26198473598E-01 -0.55891105172E-01  0.91131927898E-01  0.51100000000E-03 0.  1.
         11    1    4    4    0    0 -0.23779509743E-01  0.23943770391E-01 -0.22376174303E-01  0.40493499745E-01  0.51100000000E-03 0. -1.
</event>
<event>
 8    1  0.1116841E+005  0.1043930E+01  0.7957747E-01            NaN
         13   -1    0    0    0    0  0.00000000000E+00  0.00000000000E+00  0.74505805969E-08  0.10566000000E+00  0.10566000000E+00 0.  1.
     999900   -1    0    0    0    0 -0.00000000000E+00 -0.00000000000E+00 -0.74505805969E-08  0.93827000000E+00  0.93827000000E+00 0.  1.
     999902    2    1    2    0    0 -0.45989418319E-02  0.23138885608E-01  0.42897580015E-02  0.10199516698E+01  0.10196697742E+01 0.  0.
     999903    2    3    3    0    0  0.59967235370E-01 -0.55769259058E-01 -0.96898737785E-01  0.12830465549E+00  0.19142613784E-01 0.  0.
         14    1    1    2    0    0  0.45989418319E-02 -0.23138885608E-01 -0.42897580015E-02  0.23978330152E-01  0.00000000000E+00 0. -1.
     999901    1    3    3    0    0 -0.64566177202E-01  0.78908144666E-01  0.10118849579E+00  0.89164701436E+00  0.88000000000E+00 0. -1.
        -11    1    4    4    0    0  0.90895751913E-02 -0.78321069895E-03 -0.11910668879E-01  0.15011960242E-01  0.51100000000E-03 0. -1.
         11    1    4    4    0    0  0.50877660179E-01 -0.54986048359E-01 -0.84988068906E-01  0.11329269525E+00  0.51100000000E-03 0.  1.
</event>
<event>
 8    1  0.1116841E+005  0.1043930E+01  0.7957747E-01            NaN
         13   -1    0    0    0    0  0.00000000000E+00  0.00000000000E+00  0.74505805969E-08  0.10566000000E+00  0.10566000000E+00 0.  1.
     999900   -1    0    0    0    0 -0.00000000000E+00 -0.00000000000E+00 -0.74505805969E-08  0.93827000000E+00  0.93827000000E+00 0.  1.
     999902    2    1    2    0    0  0.93870699184E-02 -0.20612695348E-01 -0.76264356172E-02  0.10200309872E+01  0.10197509755E+01 0.  0.
     999903    2    3    3    0    0 -0.11756025571E+00 -0.34073811809E-01 -0.40141115326E-01  0.13022537389E+00  0.19128525564E-01 0.  0.
         14    1    1    2    0    0 -0.93870699184E-02  0.20612695348E-01  0.76264356172E-02  0.23899012770E-01  0.00000000000E+00 0.  1.
     999901    1    3    3    0    0  0.12694732563E+00  0.13461116461E-01  0.32514679709E-01  0.88980561334E+00  0.88000000000E+00 0.  1.
        -11    1    4    4    0    0 -0.39249988505E-01 -0.17150387407E-01 -0.21662782826E-01  0.48002444381E-01  0.51100000000E-03 0.  1.
         11    1    4    4    0    0 -0.78310267206E-01 -0.16923424402E-01 -0.18478332500E-01  0.82222929505E-01  0.51100000000E-03 0. -1.
</event>
<event>
 8    1  0.1116841E+005  0.1043930E+01  0.7957747E-01            NaN
         13   -1    0    0    0    0  0.00000000000E+00  0.00000000000E+00  0.74505805969E-08  0.10566000000E+00  0.10566000000E+00 0. -1.
     999900   -1    0    0    0    0 -0.00000000000E+00 -0.00000000000E+00 -0.74505805969E-08  0.93827000000E+00  0.93827000000E+00 0. -1.
     999902    2    1    2    0    0 -0.20612278581E-01 -0.19858192839E-02 -0.10624458179E-01  0.10206557950E+01  0.10203903975E+01 0.  0.
     999903    2    3    3    0    0  0.11751698125E+00 -0.16501482693E-01  0.44104799712E-01  0.12808328334E+00  0.19430756570E-01 0.  0.
         14    1    1    2    0    0  0.20612278581E-01  0.19858192839E-02  0.10624458179E-01  0.23274204995E-01  0.00000000000E+00 0.  1.
     999901    1    3    3    0    0 -0.13812925983E+00  0.14515663409E-01 -0.54729257891E-01  0.89257251166E+00  0.88000000000E+00 0. -1.
        -11    1    4    4    0    0  0.63192359451E-01 -0.51859842010E-02  0.33037125770E-01  0.71497423207E-01  0.51100000000E-03 0. -1.
         11    1    4    4    0    0  0.54324621800E-01 -0.11315498492E-01  0.11067673942E-01  0.56585860136E-01  0.51100000000E-03 0.  1.
</event>
<event>
 8    1  0.1116841E+005  0.1043930E+01  0.7957747E-01            NaN
         13   -1    0    0    0    0  0.00000000000E+00  0.00000000000E+00  0.74505805969E-08  0.10566000000E+00  0.10566000000E+00 0. -1.
     999900   -1    0    0    0    0 -0.00000000000E+00 -0.00000000000E+00 -0.74505805969E-08  0.93827000000E+00  0.93827000000E+00 0.  1.
     999902    2    1    2    0    0 -0.12015254001E-01 -0.14816649756E-01  0.14855383858E-03  0.10248532732E+01  0.10246757097E+01 0.  0.
     999903    2    3    3    0    0  0.56718851771E-01  0.13780332444E-01  0.11875263545E+00  0.13378139454E+00  0.19706531709E-01 0.  0.
         14    1    1    2    0    0  0.12015254001E-01  0.14816649756E-01 -0.14855383858E-03  0.19076726840E-01  0.00000000000E+00 0.  1.
     999901    1    3    3    0    0 -0.68734105772E-01 -0.28596982199E-01 -0.11860408161E+00  0.89107187862E+00  0.88000000000E+00 0.  1.
        -11    1    4    4    0    0  0.12278355811E-01  0.22894951422E-02  0.46733045586E-01  0.48376011412E-01  0.51100000000E-03 0.  1.
         11    1    4    4    0    0  0.44440495960E-01  0.11490837301E-01  0.72019589860E-01  0.85405383131E-01  0.51100000000E-03 0. -1.
</event>
<event>
 8    1  0.1116841E+005  0.1043930E+01  0.7957747E-01            NaN
         13   -1    0    0    0    0  0.00000000000E+00  0.00000000000E+00  0.74505805969E-08  0.10566000000E+00  0.10566000000E+00 0.  1.
     999900   -1    0    0    0    0 -0.00000000000E+00 -0.00000000000E+00 -0.74505805969E-08  0.93827000000E+00  0.93827000000E+00 0. -1.
     999902    2    1    2    0    0  0.15538306401E-01 -0.41492862583E-02 -0.17398076705E-01  0.10202372033E+01  0.10199620593E+01 0.  0.
     999903    2    3    3    0    0  0.12229050351E-01 -0.10770326929E-01 -0.13055756099E+00  0.13296055071E+00  0.19175027983E-01 0.  0.
         14    1    1    2    0    0 -0.15538306401E-01  0.41492862583E-02  0.17398076705E-01  0.23692796696E-01  0.00000000000E+00 0.  1.
     999901    1    3    3    0    0  0.33092560497E-02  0.66210406709E-02  0.11315948429E+00  0.88727665259E+00  0.88000000000E+00 0.  1.
        -11    1    4    4    0    0  0.14020639910E-01 -0.32045681615E-02 -0.11065852168E+00  0.11159039897E+00  0.51100000000E-03 0. -1.
         11    1    4    4    0    0 -0.17915895588E-02 -0.75657587677E-02 -0.19899039308E-01  0.21370151737E-01  0.51100000000E-03 0.  1.
</event>
<event>
 8    1  0.1116841E+005  0.1043930E+01  0.7957747E-01            NaN
         13   -1    0    0    0    0  0.00000000000E+00  0.00000000000E+00  0.74505805969E-08  0.10566000000E+00  0.10566000000E+00 0. -1.
     999900   -1    0    0    0    0 -0.00000000000E+00 -0.00000000000E+00 -0.74505805969E-08  0.93827000000E+00  0.93827000000E+00 0. -1.
     999902    2    1    2    0    0  0.15291615078E-01 -0.22661129687E-01 -0.82895288800E-02  0.10153629459E+01  0.10149610019E+01 0.  0.
     999903    2    3    3    0    0  0.17307301456E-01 -0.87498290316E-01 -0.91403916229E-01  0.12906958490E+00  0.18675876190E-01 0.  0.
         14    1    1    2    0    0 -0.15291615078E-01  0.22661129687E-01  0.82895288800E-02  0.28567054091E-01  0.00000000000E+00 0.  1.
     999901    1    3    3    0    0 -0.20156863774E-02  0.64837160629E-01  0.83114387349E-01  0.88629336101E+00  0.88000000000E+00 0.  1.
        -11    1    4    4    0    0 -0.17008545596E-02 -0.10675102640E-01 -0.18682159497E-01  0.21590158107E-01  0.51100000000E-03 0. -1.
         11    1    4    4    0    0  0.19008156015E-01 -0.76823187677E-01 -0.72721756731E-01  0.10747942679E+00  0.51100000000E-03 0.  1.
</event>
<event>
 8    1  0.1116841E+005  0.1043930E+01  0.7957747E-01            NaN
         13   -1    0    0    0    0  0.00000000000E+00  0.00000000000E+00  0.74505805969E-08  0.10566000000E+00  0.10566000000E+00 0. -1.
     999900   -1    0    0    0    0 -0.00000000000E+00 -0.00000000000E+00 -0.74505805969E-08  0.93827000000E+00  0.93827000000E+00 0. -1.
     999902    2    1    2    0    0 -0.14799800579E-02  0.19524179493E-01 -0.12345059776E-01  0.10207829823E+01  0.10205205106E+01 0.  0.
     999903    2    3    3    0    0  0.31727314072E-01  0.95871537737E-01  0.82336775865E-01  0.13179687812E+00  0.19826704605E-01 0.  0.
         14    1    1    2    0    0  0.14799800579E-02 -0.19524179493E-01  0.12345059776E-01  0.23147017664E-01  0.00000000000E+00 0. -1.
     999901    1    3    3    0    0 -0.33207294130E-01 -0.76347358244E-01 -0.94681835640E-01  0.88898610422E+00  0.88000000000E+00 0. -1.
        -11    1    4    4    0    0 -0.26035347262E-02  0.11565395961E-01  0.10281719623E-01  0.15700689673E-01  0.51100000000E-03 0.  1.
         11    1    4    4    0    0  0.34330848798E-01  0.84306141776E-01  0.72055056242E-01  0.11609618844E+00  0.51100000000E-03 0. -1.
</event>
<event>
 8    1  0.1116841E+005  0.1043930E+01  0.7957747E-01            NaN
         13   -1    0    0    0    0  0.00000000000E+00  0.00000000000E+00  0.74505805969E-08  0.10566000000E+00  0.10566000000E+00 0.  1.
     999900   -1    0    0    0    0 -0.00000000000E+00 -0.00000000000E+00 -0.74505805969E-08  0.93827000000E+00  0.93827000000E+00 0. -1.
     999902    2    1    2    0    0  0.21965078832E-01  0.72225716688E-02  0.25218523132E-02  0.10206708089E+01  0.10204057577E+01 0.  0.
     999903    2    3    3    0    0  0.12727558083E+00 -0.17511601495E-01 -0.29690788740E-01  0.13346185081E+00  0.20610507590E-01 0.  0.
         14    1    1    2    0    0 -0.21965078832E-01 -0.72225716688E-02 -0.25218523132E-02  0.23259191058E-01  0.00000000000E+00 0.  1.
     999901    1    3    3    0    0 -0.10531050199E+00  0.24734173164E-01  0.32212641053E-01  0.88720895814E+00  0.88000000000E+00 0.  1.
        -11    1    4    4    0    0  0.22161077779E-01 -0.56781022588E-02  0.21771587628E-02  0.22985981703E-01  0.51100000000E-03 0.  1.
         11    1    4    4    0    0  0.10511450305E+00 -0.11833499237E-01 -0.31867947503E-01  0.11047586910E+00  0.51100000000E-03 0. -1.
</event>
<event>
 8    1  0.1116841E+005  0.1043930E+01  0.7957747E-01            NaN
         13   -1    0    0    0    0  0.00000000000E+00  0.00000000000E+00  0.74505805969E-08  0.10566000000E+00  0.10566000000E+00 0.  1.
     999900   -1    0    0    0    0 -0.00000000000E+00 -0.00000000000E+00 -0.74505805969E-08  0.93827000000E+00  0.93827000000E+00 0.  1.
     999902    2    1    2    0    0 -0.12538655996E-01  0.19711681798E-01  0.36592511280E-02  0.10202834693E+01  0.10200094114E+01 0.  0.
     999903    2    3    3    0    0 -0.14734468693E-01  0.11287638275E+00  0.66040612062E-01  0.13316683817E+00  0.20343598455E-01 0.  0.
         14    1    1    2    0    0  0.12538655996E-01 -0.19711681798E-01 -0.36592511280E-02  0.23646530661E-01  0.00000000000E+00 0. -1.
     999901    1    3    3    0    0  0.21958126963E-02 -0.93164700950E-01 -0.62381360934E-01  0.88711663116E+00  0.88000000000E+00 0.  1.
        -11    1    4    4    0    0 -0.27114275196E-02  0.72157294839E-01  0.49749799292E-01  0.87688828755E-01  0.51100000000E-03 0. -1.
         11    1    4    4    0    0 -0.12023041173E-01  0.40719087908E-01  0.16290812770E-01  0.45478009420E-01  0.51100000000E-03 0.  1.
</event>
<event>
 8    1  0.1116841E+005  0.1043930E+01  0.7957747E-01            NaN
         13   -1    0    0    0    0  0.00000000000E+00  0.00000000000E+00  0.74505805969E-08  0.10566000000E+00  0.10566000000E+00 0. -1.
     999900   -1    0    0    0    0 -0.00000000000E+00 -0.00000000000E+00 -0.74505805969E-08  0.93827000000E+00  0.93827000000E+00 0.  1.
     999902    2    1    2    0    0  0.58699874574E-02 -0.23012457062E-01 -0.64097900100E-02  0.10193309077E+01  0.10190340446E+01 0.  0.
     999903    2    3    3    0    0  0.30512911482E-01  0.86808837979E-01 -0.87198724509E-01  0.12849150442E+00  0.20967523291E-01 0.  0.
         14    1    1    2    0    0 -0.58699874574E-02  0.23012457062E-01  0.64097900100E-02  0.24599092275E-01  0.00000000000E+00 0.  1.
     999901    1    3    3    0    0 -0.24642924025E-01 -0.10982129504E+00  0.80788934499E-01  0.89083940331E+00  0.88000000000E+00 0.  1.
        -11    1    4    4    0    0  0.12191109150E-01  0.59820168330E-01 -0.49199025897E-01  0.78408423984E-01  0.51100000000E-03 0. -1.
         11    1    4    4    0    0  0.18321802332E-01  0.26988669649E-01 -0.37999698612E-01  0.50083080434E-01  0.51100000000E-03 0.  1.
</event>
<event>
 8    1  0.1116841E+005  0.1043930E+01  0.7957747E-01            NaN
         13   -1    0    0    0    0  0.00000000000E+00  0.00000000000E+00  0.74505805969E-08  0.10566000000E+00  0.10566000000E+00 0.  1.
     999900   -1    0    0    0    0 -0.00000000000E+00 -0.00000000000E+00 -0.74505805969E-08  0.93827000000E+00  0.93827000000E+00 0. -1.
     999902    2    1    2    0    0 -0.27931153201E-02 -0.14429412970E-01 -0.18216496781E-01  0.10205237998E+01  0.10202553483E+01 0.  0.
     999903    2    3    3    0    0  0.12539798774E+00 -0.30044458429E-01  0.75524147011E-02  0.13072560621E+00  0.20120147609E-01 0.  0.
         14    1    1    2    0    0  0.27931153201E-02  0.14429412970E-01  0.18216496781E-01  0.23406200179E-01  0.00000000000E+00 0.  1.
     999901    1    3    3    0    0 -0.12819110306E+00  0.15615045459E-01 -0.25768911482E-01  0.88979819361E+00  0.88000000000E+00 0. -1.
        -11    1    4    4    0    0  0.10523553470E+00 -0.25415311049E-01  0.13731020567E-01  0.10912954617E+00  0.51100000000E-03 0.  1.
         11    1    4    4    0    0  0.20162453039E-01 -0.46291473792E-02 -0.61786058661E-02  0.21596060044E-01  0.51100000000E-03 0. -1.
</event>
<event>
 8    1  0.1116841E+005  0.1043930E+01  0.7957747E-01            NaN
         13   -1    0    0    0    0  0.00000000000E+00  0.00000000000E+00  0.74505805969E-08  0.10566000000E+00  0.10566000000E+00 0.  1.
     999900   -1    0    0    0    0 -0.00000000000E+00 -0.00000000000E+00 -0.74505805969E-08  0.93827000000E+00  0.93827000000E+00 0. -1.
     999902    2    1    2    0    0  0.50586028494E-02  0.18259006587E-01  0.13146654781E-01  0.10208688787E+01  0.10206083735E+01 0.  0.
     999903    2    3    3    0    0  0.45816593993E-01 -0.56131295796E-01 -0.10481994228E+00  0.12895450558E+00  0.19803069385E-01 0.  0.
         14    1    1    2    0    0 -0.50586028494E-02 -0.18259006587E-01 -0.13146654781E-01  0.23061121314E-01  0.00000000000E+00 0.  1.
     999901    1    3    3    0    0 -0.40757991143E-01  0.74390302383E-01  0.11796659706E+00  0.89191437311E+00  0.88000000000E+00 0.  1.
        -11    1    4    4    0    0  0.12153068250E-01 -0.35787168792E-02 -0.16546568919E-01  0.20845967149E-01  0.51100000000E-03 0. -1.
         11    1    4    4    0    0  0.33663525743E-01 -0.52552578917E-01 -0.88273373361E-01  0.10810853843E+00  0.51100000000E-03 0.  1.
</event>
<event>
 8    1  0.1116841E+005  0.1043930E+01  0.7957747E-01            NaN
         13   -1    0    0    0    0  0.00000000000E+00  0.00000000000E+00  0.74505805969E-08  0.10566000000E+00  0.10566000000E+00 0.  1.
     999900   -1    0    0    0    0 -0.00000000000E+00 -0.00000000000E+00 -0.74505805969E-08  0.93827000000E+00  0.93827000000E+00 0. -1.
     999902    2    1    2    0    0 -0.67686260693E-02  0.10930279448E-01  0.19737198209E-01  0.10203749092E+01  0.10201029914E+01 0.  0.
     999903    2    3    3    0    0  0.85848720420E-02 -0.77232474591E-01 -0.99753654253E-01  0.12780196268E+00  0.18547101358E-01 0.  0.
         14    1    1    2    0    0  0.67686260693E-02 -0.10930279448E-01 -0.19737198209E-01  0.23555090762E-01  0.00000000000E+00 0. -1.
     999901    1    3    3    0    0 -0.15353498111E-01  0.88162754039E-01  0.11949085246E+00  0.89257294656E+00  0.88000000000E+00 0.  1.
        -11    1    4    4    0    0  0.25987828455E-02 -0.65186798759E-01 -0.73356234747E-01  0.98170620361E-01  0.51100000000E-03 0.  1.
         11    1    4    4    0    0  0.59860891965E-02 -0.12045675832E-01 -0.26397419505E-01  0.29631342320E-01  0.51100000000E-03 0. -1.
</event>
<event>
 8    1  0.1116841E+005  0.1043930E+01  0.7957747E-01            NaN
         13   -1    0    0    0    0  0.00000000000E+00  0.00000000000E+00  0.74505805969E-08  0.10566000000E+00  0.10566000000E+00 0.  1.
     999900   -1    0    0    0    0 -0.00000000000E+00 -0.00000000000E+00 -0.74505805969E-08  0.93827000000E+00  0.93827000000E+00 0. -1.
     999902    2    1    2    0    0 -0.66841012302E-02  0.51270618520E-02 -0.22799586365E-01  0.10196239285E+01  0.10193341800E+01 0.  0.
     999903    2    3    3    0    0  0.12089602777E+00  0.40834125869E-01  0.27508312793E-02  0.12934054241E+00  0.20931638100E-01 0.  0.
         14    1    1    2    0    0  0.66841012302E-02 -0.51270618520E-02  0.22799586365E-01  0.24306071482E-01  0.00000000000E+00 0.  1.
     999901    1    3    3    0    0 -0.12758012900E+00 -0.35707064017E-01 -0.25550417644E-01  0.89028338611E+00  0.88000000000E+00 0.  1.
        -11    1    4    4    0    0  0.51376095837E-01  0.26835167129E-01 -0.40018993217E-02  0.58102545018E-01  0.51100000000E-03 0. -1.
         11    1    4    4    0    0  0.69519931928E-01  0.13998958740E-01  0.67527306010E-02  0.71237997394E-01  0.51100000000E-03 0.  1.
</event>
<event>
 7    1  0.1116841E+005  0.1043930E+01  0.7957747E-01            NaN
         13   -1    0    0    0    0  0.00000000000E+00  0.00000000000E+00  0.74505805969E-08  0.10566000000E+00  0.10566000000E+00 0. -1.
     999900   -1    0    0    0    0 -0.00000000000E+00 -0.00000000000E+00 -0.74505805969E-08  0.93827000000E+00  0.93827000000E+00 0. -1.
     999903    2    1    2    0    0  0.40864672249E-01 -0.63163858023E-01 -0.23176071659E-01  0.81102364351E-01  0.19515860406E-01 0.  0.
         14    1    1    2    0    0  0.34652853780E-01 -0.53109558913E-01  0.33901962296E-01  0.71908195434E-01  0.00000000000E+00 0. -1.
     999901    1    1    2    0    0 -0.75517526029E-01  0.11627341694E+00 -0.10725890637E-01  0.89091944022E+00  0.88000000000E+00 0. -1.
        -11    1    3    3    0    0  0.10700520980E-01 -0.23103622863E-01 -0.16895189358E-01  0.30561202252E-01  0.51100000000E-03 0. -1.
         11    1    3    3    0    0  0.30164151269E-01 -0.40060235160E-01 -0.62808823009E-02  0.50541162099E-01  0.51100000000E-03 0.  1.
</event>
<event>
 8    1  0.1116841E+005  0.1043930E+01  0.7957747E-01            NaN
         13   -1    0    0    0    0  0.00000000000E+00  0.00000000000E+00  0.74505805969E-08  0.10566000000E+00  0.10566000000E+00 0.  1.
     999900   -1    0    0    0    0 -0.00000000000E+00 -0.00000000000E+00 -0.74505805969E-08  0.93827000000E+00  0.93827000000E+00 0.  1.
     999902    2    1    2    0    0  0.21657957399E-01  0.17415934237E-01 -0.17496339386E-02  0.10160832210E+01  0.10157015648E+01 0.  0.
     999903    2    3    3    0    0  0.78207193207E-01  0.23790354593E-01  0.97396880027E-01  0.12868901288E+00  0.19808173952E-01 0.  0.
         14    1    1    2    0    0 -0.21657957399E-01 -0.17415934237E-01  0.17496339386E-02  0.27846779041E-01  0.00000000000E+00 0. -1.
     999901    1    3    3    0    0 -0.56549235809E-01 -0.63744203558E-02 -0.99146513965E-01  0.88739420808E+00  0.88000000000E+00 0.  1.
        -11    1    4    4    0    0  0.24090655951E-01  0.10386676678E-01  0.45476126796E-01  0.52503161676E-01  0.51100000000E-03 0.  1.
         11    1    4    4    0    0  0.54116537256E-01  0.13403677914E-01  0.51920753231E-01  0.76185851201E-01  0.51100000000E-03 0. -1.
</event>
<event>
 8    1  0.1116841E+005  0.1043930E+01  0.7957747E-01            NaN
         13   -1    0    0    0    0  0.00000000000E+00  0.00000000000E+00  0.74505805969E-08  0.10566000000E+00  0.10566000000E+00 0.  1.
     999900   -1    0    0    0    0 -0.00000000000E+00 -0.00000000000E+00 -0.74505805969E-08  0.93827000000E+00  0.93827000000E+00 0.  1.
     999902    2    1    2    0    0  0.15337696937E-02 -0.88377161172E-02 -0.23980898903E-01  0.10183264614E+01  0.10180045387E+01 0.  0.
     999903    2    3    3    0    0  0.72588419562E-01 -0.42174666027E-01 -0.99222011586E-01  0.13163522963E+00  0.20857732068E-01 0.  0.
         14    1    1    2    0    0 -0.15337696937E-02  0.88377161172E-02  0.23980898903E-01  0.25603538581E-01  0.00000000000E+00 0.  1.
     999901    1    3    3    0    0 -0.71054649868E-01  0.33336949910E-01  0.75241112683E-01  0.88669123179E+00  0.88000000000E+00 0. -1.
        -11    1    4    4    0    0  0.32686973051E-01 -0.77596303330E-02 -0.43144085669E-01  0.54683848798E-01  0.51100000000E-03 0.  1.
         11    1    4    4    0    0  0.39901446511E-01 -0.34415035694E-01 -0.56077925917E-01  0.76951380830E-01  0.51100000000E-03 0. -1.
</event>
<event>
 8    1  0.1116841E+005  0.1043930E+01  0.7957747E-01            NaN
         13   -1    0    0    0    0  0.00000000000E+00  0.00000000000E+00  0.74505805969E-08  0.10566000000E+00  0.10566000000E+00 0. -1.
     999900   -1    0    0    0    0 -0.00000000000E+00 -0.00000000000E+00 -0.74505805969E-08  0.93827000000E+00  0.93827000000E+00 0. -1.
     999902    2    1    2    0    0  0.42895425797E-02  0.84626166313E-02  0.17041273671E-01  0.10244256142E+01  0.10242399221E+01 0.  0.
     999903    2    3    3    0    0 -0.71698360470E-01 -0.10570489679E+00  0.33809624181E-01  0.13364530456E+00  0.20094691902E-01 0.  0.
         14    1    1    2    0    0 -0.42895425797E-02 -0.84626166313E-02 -0.17041273671E-01  0.19504385767E-01  0.00000000000E+00 0.  1.
     999901    1    3    3    0    0  0.75987903050E-01  0.11416751342E+00 -0.16768350510E-01  0.89078030968E+00  0.88000000000E+00 0.  1.
        -11    1    4    4    0    0 -0.35530662895E-01 -0.62419788382E-01  0.10411917960E-01  0.72576353891E-01  0.51100000000E-03 0.  1.
         11    1    4    4    0    0 -0.36167697575E-01 -0.43285108409E-01  0.23397706222E-01  0.61068950665E-01  0.51100000000E-03 0. -1.
</event>
<event>
 8    1  0.1116841E+005  0.1043930E+01  0.7957747E-01            NaN
         13   -1    0    0    0    0  0.00000000000E+00  0.00000000000E+00  0.74505805969E-08  0.10566000000E+00  0.10566000000E+00 0. -1.
     999900   -1    0    0    0    0 -0.00000000000E+00 -0.00000000000E+00 -0.74505805969E-08  0.93827000000E+00  0.93827000000E+00 0.  1.
     999902    2    1    2    0    0  0.10623962195E-01 -0.10284472329E-01 -0.18561232022E-01  0.10201990439E+01  0.10199230024E+01 0.  0.
     999903    2    3    3    0    0 -0.15764943957E-01  0.44990446772E-01 -0.12156283799E+00  0.13207685529E+00  0.19851910826E-01 0.  0.
         14    1    1    2    0    0 -0.10623962195E-01  0.10284472329E-01  0.18561232022E-01  0.23730956112E-01  0.00000000000E+00 0. -1.
     999901    1    3    3    0    0  0.26388906152E-01 -0.55274919102E-01  0.10300160597E+00  0.88812218860E+00  0.88000000000E+00 0. -1.
        -11    1    4    4    0    0 -0.52150102763E-02  0.61075657829E-02 -0.71079061526E-02  0.10736952214E-01  0.51100000000E-03 0.  1.
         11    1    4    4    0    0 -0.10549933681E-01  0.38882880989E-01 -0.11445493184E+00  0.12133990307E+00  0.51100000000E-03 0. -1.
</event>
<event>
 8    1  0.1116841E+005  0.1043930E+01  0.7957747E-01            NaN
         13   -1    0    0    0    0  0.00000000000E+00  0.00000000000E+00  0.74505805969E-08  0.10566000000E+00  0.10566000000E+00 0. -1.
     999900   -1    0    0    0    0 -0.00000000000E+00 -0.00000000000E+00 -0.74505805969E-08  0.93827000000E+00  0.93827000000E+00 0. -1.
     999902    2    1    2    0    0 -0.29131037427E-02  0.20326742997E-01 -0.11556608727E-01  0.10203669387E+01  0.10200948346E+01 0.  0.
     999903    2    3    3    0    0  0.57375714915E-01 -0.40640747872E-01  0.10585306596E+00  0.12843823730E+00  0.18651170985E-01 0.  0.
         14    1    1    2    0    0  0.29131037427E-02 -0.20326742997E-01  0.11556608727E-01  0.23563061337E-01  0.00000000000E+00 0. -1.
     999901    1    3    3    0    0 -0.60288818657E-01  0.60967490869E-01 -0.11740967469E+00  0.89192870136E+00  0.88000000000E+00 0. -1.
        -11    1    4    4    0    0  0.31398014928E-01 -0.24819015995E-01  0.75561236234E-01  0.85507779989E-01  0.51100000000E-03 0. -1.
         11    1    4    4    0    0  0.25977699986E-01 -0.15821731877E-01  0.30291829726E-01  0.42930457315E-01  0.51100000000E-03 0.  1.
</event>
<event>
 8    1  0.1116841E+005  0.1043930E+01  0.7957747E-01            NaN
         13   -1    0    0    0    0  0.00000000000E+00  0.00000000000E+00  0.74505805969E-08  0.10566000000E+00  0.10566000000E+00 0. -1.
     999900   -1    0    0    0    0 -0.00000000000E+00 -0.00000000000E+00 -0.74505805969E-08  0.93827000000E+00  0.93827000000E+00 0. -1.
     999902    2    1    2    0    0  0.20024476202E-01 -0.10627578112E-01 -0.87227965913E-02  0.10196398324E+01  0.10193504674E+01 0.  0.
     999903    2    3    3    0    0  0.14095538922E-02  0.60919822401E-01  0.11124540580E+00  0.12842834487E+00  0.20126794309E-01 0.  0.
         14    1    1    2    0    0 -0.20024476202E-01  0.10627578112E-01  0.87227965913E-02  0.24290167642E-01  0.00000000000E+00 0.  1.
     999901    1    3    3    0    0  0.18614922310E-01 -0.71547400513E-01 -0.11996820239E+00  0.89121148749E+00  0.88000000000E+00 0. -1.
        -11    1    4    4    0    0 -0.67061029259E-02  0.72471356839E-02  0.17481771764E-01  0.20083980111E-01  0.51100000000E-03 0.  1.
         11    1    4    4    0    0  0.81156568181E-02  0.53672686717E-01  0.93763634039E-01  0.10834436476E+00  0.51100000000E-03 0. -1.
</event>
<event>
 8    1  0.1116841E+005  0.1043930E+01  0.7957747E-01            NaN
         13   -1    0    0    0    0  0.00000000000E+00  0.00000000000E+00  0.74505805969E-08  0.10566000000E+00  0.10566000000E+00 0. -1.
     999900   -1    0    0    0    0 -0.00000000000E+00 -0.00000000000E+00 -0.74505805969E-08  0.93827000000E+00  0.93827000000E+00 0. -1.
     999902    2    1    2    0    0 -0.15458438211E-01  0.96181639735E-02 -0.14508656680E-01  0.10206496755E+01  0.10203841368E+01 0.  0.
     999903    2    3    3    0    0  0.33087488115E-01  0.42413543399E-01 -0.11822029422E+00  0.13262470534E+00  0.26825062289E-01 0.  0.
         14    1    1    2    0    0  0.15458438211E-01 -0.96181639735E-02  0.14508656680E-01  0.23280324499E-01  0.00000000000E+00 0. -1.
     999901    1    3    3    0    0 -0.48545926326E-01 -0.32795379425E-01  0.10371163754E+00  0.88802497016E+00  0.88000000000E+00 0. -1.
        -11    1    4    4    0    0  0.16163440280E-01  0.32135401747E-01 -0.50066962135E-01  0.61651461179E-01  0.51100000000E-03 0. -1.
         11    1    4    4    0    0  0.16924047835E-01  0.10278141652E-01 -0.68153332085E-01  0.70973244157E-01  0.51100000000E-03 0.  1.
</event>
<event>
 8    1  0.1116841E+005  0.1043930E+01  0.7957747E-01            NaN
         13   -1    0    0    0    0  0.00000000000E+00  0.00000000000E+00  0.74505805969E-08  0.10566000000E+00  0.10566000000E+00 0.  1.
     999900   -1    0    0    0    0 -0.00000000000E+00 -0.00000000000E+00 -0.74505805969E-08  0.93827000000E+00  0.93827000000E+00 0.  1.
     999902    2    1    2    0    0  0.23706332026E-02  0.26587350127E-01  0.13442833898E-01  0.10140432660E+01  0.10136027468E+01 0.  0.
     999903    2    3    3    0    0 -0.11508605343E+00 -0.37169838316E-01  0.17178620694E-01  0.12394495205E+00  0.20996417673E-01 0.  0.
         14    1    1    2    0    0 -0.23706332026E-02 -0.26587350127E-01 -0.13442833898E-01  0.29886734043E-01  0.00000000000E+00 0. -1.
     999901    1    3    3    0    0  0.11745668663E+00  0.63757188443E-01 -0.37357867961E-02  0.89009831390E+00  0.88000000000E+00 0. -1.
        -11    1    4    4    0    0 -0.74215851275E-01 -0.34093243139E-01  0.92468113601E-02  0.82195537894E-01  0.51100000000E-03 0.  1.
         11    1    4    4    0    0 -0.40870202157E-01 -0.30765951763E-02  0.79318093343E-02  0.41749414158E-01  0.51100000000E-03 0. -1.
</event>
<event>
 8    1  0.1116841E+005  0.1043930E+01  0.7957747E-01            NaN
         13   -1    0    0    0    0  0.00000000000E+00  0.00000000000E+00  0.74505805969E-08  0.10566000000E+00  0.10566000000E+00 0. -1.
     999900   -1    0    0    0    0 -0.00000000000E+00 -0.00000000000E+00 -0.74505805969E-08  0.93827000000E+00  0.93827000000E+00 0. -1.
     999902    2    1    2    0    0 -0.26177035860E-01  0.36048530271E-02  0.54081702790E-02  0.10169581540E+01  0.10166004163E+01 0.  0.
     999903    2    3    3    0    0 -0.23314321007E-01  0.45968740606E-01  0.11674925994E+00  0.12892677371E+00  0.18304114423E-01 0.  0.
         14    1    1    2    0    0  0.26177035860E-01 -0.36048530271E-02 -0.54081702790E-02  0.26971846016E-01  0.00000000000E+00 0.  1.
     999901    1    3    3    0    0 -0.28627148526E-02 -0.42363887579E-01 -0.11134108966E+00  0.88803138028E+00  0.88000000000E+00 0. -1.
        -11    1    4    4    0    0 -0.17597887996E-01  0.23648094427E-01  0.47125335243E-01  0.55587555934E-01  0.51100000000E-03 0. -1.
         11    1    4    4    0    0 -0.57164330110E-02  0.22320646180E-01  0.69623924699E-01  0.73339217775E-01  0.51100000000E-03 0.  1.
</event>
<event>
 8    1  0.1116841E+005  0.1043930E+01  0.7957747E-01            NaN
         13   -1    0    0    0    0  0.00000000000E+00  0.00000000000E+00  0.74505805969E-08  0.10566000000E+00  0.10566000000E+00 0.  1.
     999900   -1    0    0    0    0 -0.00000000000E+00 -0.00000000000E+00 -0.74505805969E-08  0.93827000000E+00  0.93827000000E+00 0. -1.
     999902    2    1    2    0    0  0.18488612114E-01 -0.10675909445E-01  0.11368386869E-01  0.10197423163E+01  0.10194554172E+01 0.  0.
     999903    2    3    3    0    0  0.10912452103E+00 -0.39820141952E-01  0.61827532014E-01  0.13317005218E+00  0.20440506026E-01 0.  0.
         14    1    1    2    0    0 -0.18488612114E-01  0.10675909445E-01 -0.11368386869E-01  0.24187683651E-01  0.00000000000E+00 0. -1.
     999901    1    3    3    0    0 -0.90635908915E-01  0.29144232507E-01 -0.50459145145E-01  0.88657226417E+00  0.88000000000E+00 0. -1.
        -11    1    4    4    0    0  0.69767063048E-01 -0.28817369095E-01  0.29442001316E-01  0.81024542025E-01  0.51100000000E-03 0. -1.
         11    1    4    4    0    0  0.39357457981E-01 -0.11002772857E-01  0.32385530698E-01  0.52145510151E-01  0.51100000000E-03 0.  1.
</event>
<event>
 8    1  0.1116841E+005  0.1043930E+01  0.7957747E-01            NaN
         13   -1    0    0    0    0  0.00000000000E+00  0.00000000000E+00  0.74505805969E-08  0.10566000000E+00  0.10566000000E+00 0.  1.
     999900   -1    0    0    0    0 -0.00000000000E+00 -0.00000000000E+00 -0.74505805969E-08  0.93827000000E+00  0.93827000000E+00 0. -1.
     999902    2    1    2    0    0 -0.83572543534E-02 -0.18287973238E-01  0.12623180676E-01  0.10201889310E+01  0.10199126515E+01 0.  0.
     999903    2    3    3    0    0  0.10896686982E-02  0.90130768725E-01  0.91625003086E-01  0.12997257760E+00  0.19312868491E-01 0.  0.
         14    1    1    2    0    0  0.83572543534E-02  0.18287973238E-01 -0.12623180676E-01  0.23741068970E-01  0.00000000000E+00 0. -1.
     999901    1    3    3    0    0 -0.94469230516E-02 -0.10841874196E+00 -0.79001822411E-01  0.89021635343E+00  0.88000000000E+00 0. -1.
        -11    1    4    4    0    0  0.13798435875E-02  0.40596176791E-01  0.28005277202E-01  0.49340756080E-01  0.51100000000E-03 0. -1.
         11    1    4    4    0    0 -0.29017488932E-03  0.49534591934E-01  0.63619725884E-01  0.80631821523E-01  0.51100000000E-03 0.  1.
</event>
<event>
 8    1  0.1116841E+005  0.1043930E+01  0.7957747E-01            NaN
         13   -1    0    0    0    0  0.00000000000E+00  0.00000000000E+00  0.74505805969E-08  0.10566000000E+00  0.10566000000E+00 0.  1.
     999900   -1    0    0    0    0 -0.00000000000E+00 -0.00000000000E+00 -0.74505805969E-08  0.93827000000E+00  0.93827000000E+00 0. -1.
     999902    2    1    2    0    0  0.19804812385E-01  0.25476214810E-01  0.66492054546E-02  0.10109833758E+01  0.10104463895E+01 0.  0.
     999903    2    3    3    0    0  0.27933908185E-01  0.12021093473E+00  0.14946645229E-01  0.12582260119E+00  0.19415270041E-01 0.  0.
         14    1    1    2    0    0 -0.19804812385E-01 -0.25476214810E-01 -0.66492054546E-02  0.32946624226E-01  0.00000000000E+00 0.  1.
     999901    1    3    3    0    0 -0.81290957997E-02 -0.94734719922E-01 -0.82974397743E-02  0.88516077459E+00  0.88000000000E+00 0. -1.
        -11    1    4    4    0    0  0.19638536636E-01  0.66279230858E-01  0.17095989429E-01  0.71211955035E-01  0.51100000000E-03 0. -1.
         11    1    4    4    0    0  0.82953715487E-02  0.53931703874E-01 -0.21493442003E-02  0.54610646154E-01  0.51100000000E-03 0.  1.
</event>
<event>
 8    1  0.1116841E+005  0.1043930E+01  0.7957747E-01            NaN
         13   -1    0    0    0    0  0.00000000000E+00  0.00000000000E+00  0.74505805969E-08  0.10566000000E+00  0.10566000000E+00 0.  1.
     999900   -1    0    0    0    0 -0.00000000000E+00 -0.00000000000E+00 -0.74505805969E-08  0.93827000000E+00  0.93827000000E+00 0.  1.
     999902    2    1    2    0    0 -0.64667504694E-02  0.92399539266E-02  0.18678074223E-01  0.10221110617E+01  0.10218781515E+01 0.  0.
     999903    2    3    3    0    0 -0.89502370743E-01  0.13073417575E-01  0.97675656127E-01  0.13467079466E+00  0.20349459934E-01 0.  0.
         14    1    1    2    0    0  0.64667504694E-02 -0.92399539266E-02 -0.18678074223E-01  0.21818938262E-01  0.00000000000E+00 0. -1.
     999901    1    3    3    0    0  0.83035620274E-01 -0.38334636488E-02 -0.78997581904E-01  0.88744026707E+00  0.88000000000E+00 0.  1.
        -11    1    4    4    0    0 -0.44276357315E-01 -0.18778525040E-02  0.38518853599E-01  0.58718696773E-01  0.51100000000E-03 0.  1.
         11    1    4    4    0    0 -0.45226013428E-01  0.14951270079E-01  0.59156802529E-01  0.75952097891E-01  0.51100000000E-03 0. -1.
</event>
<event>
 8    1  0.1116841E+005  0.1043930E+01  0.7957747E-01            NaN
         13   -1    0    0    0    0  0.00000000000E+00  0.00000000000E+00  0.74505805969E-08  0.10566000000E+00  0.10566000000E+00 0.  1.
     999900   -1    0    0    0    0 -0.00000000000E+00 -0.00000000000E+00 -0.74505805969E-08  0.93827000000E+00  0.93827000000E+00 0. -1.
     999902    2    1    2    0    0  0.11534351596E-01 -0.34001414969E-02  0.20328829464E-01  0.10203108650E+01  0.10200374492E+01 0.  0.
     999903    2    3    3    0    0  0.23856413305E-01 -0.12759952036E+00  0.37539591382E-02  0.13134964809E+00  0.19694460950E-01 0.  0.
         14    1    1    2    0    0 -0.11534351596E-01  0.34001414969E-02 -0.20328829464E-01  0.23619134961E-01  0.00000000000E+00 0. -1.
     999901    1    3    3    0    0 -0.12322061709E-01  0.12419937886E+00  0.16574870325E-01  0.88896121695E+00  0.88000000000E+00 0. -1.
        -11    1    4    4    0    0  0.12054130747E-01 -0.83078386487E-01 -0.63604341811E-02  0.84190478163E-01  0.51100000000E-03 0. -1.
         11    1    4    4    0    0  0.11802282558E-01 -0.44521133873E-01  0.10114393319E-01  0.47159169926E-01  0.51100000000E-03 0.  1.
</event>
<event>
 8    1  0.1116841E+005  0.1043930E+01  0.7957747E-01            NaN
         13   -1    0    0    0    0  0.00000000000E+00  0.00000000000E+00  0.74505805969E-08  0.10566000000E+00  0.10566000000E+00 0. -1.
     999900   -1    0    0    0    0 -0.00000000000E+00 -0.00000000000E+00 -0.74505805969E-08  0.93827000000E+00  0.93827000000E+00 0.  1.
     999902    2    1    2    0    0  0.18635606422E-01  0.65947143415E-02 -0.12512206377E-01  0.10205348853E+01  0.10202666910E+01 0.  0.
     999903    2    3    3    0    0 -0.17182900162E-01  0.63543189237E-01  0.10910886625E+00  0.12962648398E+00  0.23775863812E-01 0.  0.
         14    1    1    2    0    0 -0.18635606422E-01 -0.65947143415E-02  0.12512206377E-01  0.23395114712E-01  0.00000000000E+00 0. -1.
     999901    1    3    3    0    0  0.35818506585E-01 -0.56948474895E-01 -0.12162107262E+00  0.89090840130E+00  0.88000000000E+00 0.  1.
        -11    1    4    4    0    0 -0.13155597612E-01  0.24364704623E-01  0.27597131991E-01  0.39096948666E-01  0.51100000000E-03 0.  1.
         11    1    4    4    0    0 -0.40273025509E-02  0.39178484614E-01  0.81511734256E-01  0.90529535318E-01  0.51100000000E-03 0. -1.
</event>
<event>
 8    1  0.1116841E+005  0.1043930E+01  0.7957747E-01            NaN
         13   -1    0    0    0    0  0.00000000000E+00  0.00000000000E+00  0.74505805969E-08  0.10566000000E+00  0.10566000000E+00 0. -1.
     999900   -1    0    0    0    0 -0.00000000000E+00 -0.00000000000E+00 -0.74505805969E-08  0.93827000000E+00  0.93827000000E+00 0. -1.
     999902    2    1    2    0    0 -0.21808139178E-01 -0.70914191499E-02 -0.62181651494E-02  0.10201697656E+01  0.10198930346E+01 0.  0.
     999903    2    3    3    0    0  0.14920782230E-01  0.10928441454E+00  0.63763946377E-01  0.12899646919E+00  0.20212253748E-01 0.  0.
         14    1    1    2    0    0  0.21808139178E-01  0.70914191499E-02  0.62181651494E-02  0.23760234380E-01  0.00000000000E+00 0. -1.
     999901    1    3    3    0    0 -0.36728921408E-01 -0.11637583369E+00 -0.69982111526E-01  0.89117329643E+00  0.88000000000E+00 0. -1.
        -11    1    4    4    0    0  0.54649227246E-02  0.13099796119E-01  0.21170791717E-02  0.14360124789E-01  0.51100000000E-03 0.  1.
         11    1    4    4    0    0  0.94558595050E-02  0.96184618424E-01  0.61646867205E-01  0.11463634440E+00  0.51100000000E-03 0. -1.
</event>
<event>
 8    1  0.1116841E+005  0.1043930E+01  0.7957747E-01            NaN
         13   -1    0    0    0    0  0.00000000000E+00  0.00000000000E+00  0.74505805969E-08  0.10566000000E+00  0.10566000000E+00 0.  1.
     999900   -1    0    0    0    0 -0.00000000000E+00 -0.00000000000E+00 -0.74505805969E-08  0.93827000000E+00  0.93827000000E+00 0. -1.
     999902    2    1    2    0    0  0.22764762257E-01 -0.39434221512E-02 -0.17921833155E-02  0.10207568064E+01  0.10204937339E+01 0.  0.
     999903    2    3    3    0    0 -0.73857177351E-01 -0.89490665057E-01 -0.54652510898E-01  0.12977513198E+00  0.19779437681E-01 0.  0.
         14    1    1    2    0    0 -0.22764762257E-01  0.39434221512E-02  0.17921833155E-02  0.23173193563E-01  0.00000000000E+00 0.  1.
     999901    1    3    3    0    0  0.96621939608E-01  0.85547242905E-01  0.52860327583E-01  0.89098167445E+00  0.88000000000E+00 0.  1.
        -11    1    4    4    0    0 -0.64149657093E-01 -0.76149843924E-01 -0.38721194066E-01  0.10683430734E+00  0.51100000000E-03 0. -1.
         11    1    4    4    0    0 -0.97075202578E-02 -0.13340821132E-01 -0.15931316833E-01  0.22940824638E-01  0.51100000000E-03 0.  1.
</event>
<event>
 8    1  0.1116841E+005  0.1043930E+01  0.7957747E-01            NaN
         13   -1    0    0    0    0  0.00000000000E+00  0.00000000000E+00  0.74505805969E-08  0.10566000000E+00  0.10566000000E+00 0. -1.
     999900   -1    0    0    0    0 -0.00000000000E+00 -0.00000000000E+00 -0.74505805969E-08  0.93827000000E+00  0.93827000000E+00 0. -1.
     999902    2    1    2    0    0 -0.18616431279E-01 -0.13479474326E-01 -0.65293727161E-02  0.10200364768E+01  0.10197565953E+01 0.  0.
     999903    2    3    3    0    0 -0.19344506980E-02  0.10608303794E+00 -0.71391208117E-01  0.12942963848E+00  0.19949277744E-01 0.  0.
         14    1    1    2    0    0  0.18616431279E-01  0.13479474326E-01  0.65293727161E-02  0.23893523176E-01  0.00000000000E+00 0.  1.
     999901    1    3    3    0    0 -0.16681980581E-01 -0.11956251227E+00  0.64861835401E-01  0.89060683835E+00  0.88000000000E+00 0.  1.
        -11    1    4    4    0    0 -0.49581549269E-02  0.31898698883E-01 -0.31665207190E-01  0.45222303769E-01  0.51100000000E-03 0.  1.
         11    1    4    4    0    0  0.30237042290E-02  0.74184339056E-01 -0.39726000927E-01  0.84207334711E-01  0.51100000000E-03 0. -1.
</event>
<event>
 8    1  0.1116841E+005  0.1043930E+01  0.7957747E-01            NaN
         13   -1    0    0    0    0  0.00000000000E+00  0.00000000000E+00  0.74505805969E-08  0.10566000000E+00  0.10566000000E+00 0. -1.
     999900   -1    0    0    0    0 -0.00000000000E+00 -0.00000000000E+00 -0.74505805969E-08  0.93827000000E+00  0.93827000000E+00 0. -1.
     999902    2    1    2    0    0  0.91546474303E-02 -0.11800018268E-01  0.17827225704E-01  0.10206736465E+01  0.10204086607E+01 0.  0.
     999903    2    3    3    0    0 -0.72361574215E-01 -0.93764882596E-01  0.55642769326E-01  0.13230821005E+00  0.19526751862E-01 0.  0.
         14    1    1    2    0    0 -0.91546474303E-02  0.11800018268E-01 -0.17827225704E-01  0.23256353476E-01  0.00000000000E+00 0.  1.
     999901    1    3    3    0    0  0.81516221645E-01  0.81964864328E-01 -0.37815543622E-01  0.88836543647E+00  0.88000000000E+00 0. -1.
        -11    1    4    4    0    0 -0.30293059693E-01 -0.26786065194E-01  0.13174905047E-01  0.42532364126E-01  0.51100000000E-03 0. -1.
         11    1    4    4    0    0 -0.42068514522E-01 -0.66978817402E-01  0.42467864279E-01  0.89775845928E-01  0.51100000000E-03 0.  1.
</event>
<event>
 8    1  0.1116841E+005  0.1043930E+01  0.7957747E-01            NaN
         13   -1    0    0    0    0  0.00000000000E+00  0.00000000000E+00  0.74505805969E-08  0.10566000000E+00  0.10566000000E+00 0.  1.
     999900   -1    0    0    0    0 -0.00000000000E+00 -0.00000000000E+00 -0.74505805969E-08  0.93827000000E+00  0.93827000000E+00 0.  1.
     999902    2    1    2    0    0 -0.20881231735E-02 -0.13398059367E-01  0.19719500396E-01  0.10199982857E+01  0.10197174981E+01 0.  0.
     999903    2    3    3    0    0 -0.87924374579E-01 -0.66638347207E-01  0.71058216990E-01  0.13273392030E+00  0.19941374873E-01 0.  0.
         14    1    1    2    0    0  0.20881231735E-02  0.13398059367E-01 -0.19719500396E-01  0.23931714294E-01  0.00000000000E+00 0. -1.
     999901    1    3    3    0    0  0.85836251406E-01  0.53240287840E-01 -0.51338716594E-01  0.88726436541E+00  0.88000000000E+00 0.  1.
        -11    1    4    4    0    0 -0.20044286634E-01 -0.25815961705E-01  0.17097961084E-01  0.36889547296E-01  0.51100000000E-03 0. -1.
         11    1    4    4    0    0 -0.67880087945E-01 -0.40822385502E-01  0.53960255905E-01  0.95844373000E-01  0.51100000000E-03 0.  1.
</event>
<event>
 8    1  0.1116841E+005  0.1043930E+01  0.7957747E-01            NaN
         13   -1    0    0    0    0  0.00000000000E+00  0.00000000000E+00  0.74505805969E-08  0.10566000000E+00  0.10566000000E+00 0.  1.
     999900   -1    0    0    0    0 -0.00000000000E+00 -0.00000000000E+00 -0.74505805969E-08  0.93827000000E+00  0.93827000000E+00 0. -1.
     999902    2    1    2    0    0  0.14141535754E-01  0.58271215223E-02 -0.17601839750E-01  0.10206112706E+01  0.10203448449E+01 0.  0.
     999903    2    3    3    0    0  0.24237515753E-01  0.65050017315E-01 -0.11206098168E+00  0.13351949986E+00  0.21232788463E-01 0.  0.
         14    1    1    2    0    0 -0.14141535754E-01 -0.58271215223E-02  0.17601839750E-01  0.23318729410E-01  0.00000000000E+00 0.  1.
     999901    1    3    3    0    0 -0.10095979999E-01 -0.59222895793E-01  0.94459141929E-01  0.88709177073E+00  0.88000000000E+00 0.  1.
        -11    1    4    4    0    0  0.96499300192E-02  0.22184289881E-01 -0.21947593577E-01  0.32668361632E-01  0.51100000000E-03 0. -1.
         11    1    4    4    0    0  0.14587585734E-01  0.42865727434E-01 -0.90113388103E-01  0.10085113823E+00  0.51100000000E-03 0.  1.
</event>
<event>
 8    1  0.1116841E+005  0.1043930E+01  0.7957747E-01            NaN
         13   -1    0    0    0    0  0.00000000000E+00  0.00000000000E+00  0.74505805969E-08  0.10566000000E+00  0.10566000000E+00 0. -1.
     999900   -1    0    0    0    0 -0.00000000000E+00 -0.00000000000E+00 -0.74505805969E-08  0.93827000000E+00  0.93827000000E+00 0. -1.
     999902    2    1    2    0    0 -0.74931685467E-02  0.22002392291E-01  0.56044150696E-02  0.10200205393E+01  0.10197402798E+01 0.  0.
     999903    2    3    3    0    0  0.48561162258E-01 -0.32620734031E-01 -0.11299045001E+00  0.12862247115E+00  0.18830813081E-01 0.  0.
         14    1    1    2    0    0  0.74931685467E-02 -0.22002392291E-01 -0.56044150696E-02  0.23909460673E-01  0.00000000000E+00 0. -1.
     999901    1    3    3    0    0 -0.56054330805E-01  0.54623126322E-01  0.11859486508E+00  0.89139806818E+00  0.88000000000E+00 0.  1.
        -11    1    4    4    0    0  0.37933477067E-01 -0.15597256910E-01 -0.69068991759E-01  0.80330628338E-01  0.51100000000E-03 0. -1.
         11    1    4    4    0    0  0.10627685192E-01 -0.17023477121E-01 -0.43921458253E-01  0.48291842809E-01  0.51100000000E-03 0.  1.
</event>
<event>
 8    1  0.1116841E+005  0.1043930E+01  0.7957747E-01            NaN
         13   -1    0    0    0    0  0.00000000000E+00  0.00000000000E+00  0.74505805969E-08  0.10566000000E+00  0.10566000000E+00 0.  1.
     999900   -1    0    0    0    0 -0.00000000000E+00 -0.00000000000E+00 -0.74505805969E-08  0.93827000000E+00  0.93827000000E+00 0.  1.
     999902    2    1    2    0    0  0.15879612182E-01 -0.12997505560E-01  0.12252529285E-01  0.10200297551E+01  0.10197497142E+01 0.  0.
     999903    2    3    3    0    0 -0.32846741939E-01 -0.29315676190E-01 -0.11923756624E+00  0.12877772253E+00  0.20683019390E-01 0.  0.
         14    1    1    2    0    0 -0.15879612182E-01  0.12997505560E-01 -0.12252529285E-01  0.23900244930E-01  0.00000000000E+00 0. -1.
     999901    1    3    3    0    0  0.48726354121E-01  0.16318170630E-01  0.13149009553E+00  0.89125203254E+00  0.88000000000E+00 0. -1.
        -11    1    4    4    0    0 -0.12380837172E-01 -0.23150516395E-01 -0.78422688431E-01  0.82701939035E-01  0.51100000000E-03 0. -1.
         11    1    4    4    0    0 -0.20465904767E-01 -0.61651597947E-02 -0.40814877811E-01  0.46075783498E-01  0.51100000000E-03 0.  1.
</event>
<event>
 8    1  0.1116841E+005  0.1043930E+01  0.7957747E-01            NaN
         13   -1    0    0    0    0  0.00000000000E+00  0.00000000000E+00  0.74505805969E-08  0.10566000000E+00  0.10566000000E+00 0. -1.
     999900   -1    0    0    0    0 -0.00000000000E+00 -0.00000000000E+00 -0.74505805969E-08  0.93827000000E+00  0.93827000000E+00 0.  1.
     999902    2    1    2    0    0 -0.42272334352E-02 -0.23710478658E-01 -0.33183928019E-02  0.10196181093E+01  0.10193282203E+01 0.  0.
     999903    2    3    3    0    0  0.77577173775E-01  0.83472752439E-01  0.53624960871E-01  0.12752912737E+00  0.20053019970E-01 0.  0.
         14    1    1    2    0    0  0.42272334352E-02  0.23710478658E-01  0.33183928019E-02  0.24311890743E-01  0.00000000000E+00 0.  1.
     999901    1    3    3    0    0 -0.81804407210E-01 -0.10718323110E+00 -0.56943353673E-01  0.89208898188E+00  0.88000000000E+00 0. -1.
        -11    1    4    4    0    0  0.76949757073E-02  0.91709623300E-02  0.13147531580E-01  0.17788701719E-01  0.51100000000E-03 0.  1.
         11    1    4    4    0    0  0.69882198068E-01  0.74301790109E-01  0.40477429291E-01  0.10974042566E+00  0.51100000000E-03 0. -1.
</event>
<event>
 8    1  0.1116841E+005  0.1043930E+01  0.7957747E-01            NaN
         13   -1    0    0    0    0  0.00000000000E+00  0.00000000000E+00  0.74505805969E-08  0.10566000000E+00  0.10566000000E+00 0.  1.
     999900   -1    0    0    0    0 -0.00000000000E+00 -0.00000000000E+00 -0.74505805969E-08  0.93827000000E+00  0.93827000000E+00 0.  1.
     999902    2    1    2    0    0  0.19509500979E-02 -0.23005665437E-01  0.27385514284E-02  0.10206799137E+01  0.10204150723E+01 0.  0.
     999903    2    3    3    0    0 -0.10834321245E+00  0.52504134322E-01  0.44373152828E-01  0.12961315292E+00  0.18320941942E-01 0.  0.
         14    1    1    2    0    0 -0.19509500979E-02  0.23005665437E-01 -0.27385514284E-02  0.23250086288E-01  0.00000000000E+00 0. -1.
     999901    1    3    3    0    0  0.11029416255E+00 -0.75509799759E-01 -0.41634601400E-01  0.89106676079E+00  0.88000000000E+00 0. -1.
        -11    1    4    4    0    0 -0.51639192871E-01  0.34568112637E-01  0.19330275790E-01  0.65080575711E-01  0.51100000000E-03 0.  1.
         11    1    4    4    0    0 -0.56704019578E-01  0.17936021685E-01  0.25042877038E-01  0.64532577211E-01  0.51100000000E-03 0. -1.
</event>
<event>
 8    1  0.1116841E+005  0.1043930E+01  0.7957747E-01            NaN
         13   -1    0    0    0    0  0.00000000000E+00  0.00000000000E+00  0.74505805969E-08  0.10566000000E+00  0.10566000000E+00 0. -1.
     999900   -1    0    0    0    0 -0.00000000000E+00 -0.00000000000E+00 -0.74505805969E-08  0.93827000000E+00  0.93827000000E+00 0. -1.
     999902    2    1    2    0    0  0.99184885455E-02 -0.20322699052E-01  0.64452130525E-02  0.10204155516E+01  0.10201445822E+01 0.  0.
     999903    2    3    3    0    0  0.96038655945E-01  0.26477819705E-01  0.83359039725E-01  0.13163959080E+00  0.21348395467E-01 0.  0.
         14    1    1    2    0    0 -0.99184885455E-02  0.20322699052E-01 -0.64452130525E-02  0.23514448390E-01  0.00000000000E+00 0.  1.
     999901    1    3    3    0    0 -0.86120167399E-01 -0.46800518757E-01 -0.76913826672E-01  0.88877596081E+00  0.88000000000E+00 0. -1.
        -11    1    4    4    0    0  0.50098699710E-01  0.18008873464E-01  0.31582701512E-01  0.61902563694E-01  0.51100000000E-03 0.  1.
         11    1    4    4    0    0  0.45939956235E-01  0.84689462405E-02  0.51776338212E-01  0.69737027102E-01  0.51100000000E-03 0. -1.
</event>
<event>
 8    1  0.1116841E+005  0.1043930E+01  0.7957747E-01            NaN
         13   -1    0    0    0    0  0.00000000000E+00  0.00000000000E+00  0.74505805969E-08  0.10566000000E+00  0.10566000000E+00 0.  1.
     999900   -1    0    0    0    0 -0.00000000000E+00 -0.00000000000E+00 -0.74505805969E-08  0.93827000000E+00  0.93827000000E+00 0. -1.
     999902    2    1    2    0    0 -0.18170436721E-01  0.15049178320E-01 -0.41530313098E-02  0.10199739943E+01  0.10196926296E+01 0.  0.
     999903    2    3    3    0    0 -0.95737137374E-01  0.89464641957E-01  0.13608951234E-01  0.13325546948E+00  0.20057291947E-01 0.  0.
         14    1    1    2    0    0  0.18170436721E-01 -0.15049178320E-01  0.41530313098E-02  0.23956005673E-01  0.00000000000E+00 0. -1.
     999901    1    3    3    0    0  0.77566700653E-01 -0.74415463637E-01 -0.17761982544E-01  0.88671852484E+00  0.88000000000E+00 0. -1.
        -11    1    4    4    0    0 -0.46858692637E-01  0.56104750827E-01  0.11806963900E-01  0.74048265736E-01  0.51100000000E-03 0.  1.
         11    1    4    4    0    0 -0.48878444737E-01  0.33359891130E-01  0.18019873336E-02  0.59207203746E-01  0.51100000000E-03 0. -1.
</event>
<event>
 8    1  0.1116841E+005  0.1043930E+01  0.7957747E-01            NaN
         13   -1    0    0    0    0  0.00000000000E+00  0.00000000000E+00  0.74505805969E-08  0.10566000000E+00  0.10566000000E+00 0. -1.
     999900   -1    0    0    0    0 -0.00000000000E+00 -0.00000000000E+00 -0.74505805969E-08  0.93827000000E+00  0.93827000000E+00 0. -1.
     999902    2    1    2    0    0 -0.23129562553E-01  0.19049259652E-02  0.62105918717E-02  0.10199054946E+01  0.10196224993E+01 0.  0.
     999903    2    3    3    0    0  0.11239167913E+00 -0.14530062588E-01  0.50146943630E-01  0.12829654515E+00  0.33200531377E-01 0.  0.
         14    1    1    2    0    0  0.23129562553E-01 -0.19049259652E-02 -0.62105918717E-02  0.24024505369E-01  0.00000000000E+00 0.  1.
     999901    1    3    3    0    0 -0.13552124169E+00  0.16434988553E-01 -0.43936351758E-01  0.89160894949E+00  0.88000000000E+00 0. -1.
        -11    1    4    4    0    0  0.41572243746E-01 -0.16984672468E-02  0.19117414879E-02  0.41653956806E-01  0.51100000000E-03 0.  1.
         11    1    4    4    0    0  0.70819435387E-01 -0.12831595341E-01  0.48235202142E-01  0.86642588340E-01  0.51100000000E-03 0. -1.
</event>
<event>
 8    1  0.1116841E+005  0.1043930E+01  0.7957747E-01            NaN
         13   -1    0    0    0    0  0.00000000000E+00  0.00000000000E+00  0.74505805969E-08  0.10566000000E+00  0.10566000000E+00 0. -1.
     999900   -1    0    0    0    0 -0.00000000000E+00 -0.00000000000E+00 -0.74505805969E-08  0.93827000000E+00  0.93827000000E+00 0. -1.
     999902    2    1    2    0    0  0.15167278296E-01  0.10575097025E-01  0.12837119393E-01  0.10214206543E+01  0.10211726017E+01 0.  0.
     999903    2    3    3    0    0 -0.99994938024E-01 -0.83434066121E-02 -0.78616170869E-01  0.12901718608E+00  0.19908086762E-01 0.  0.
         14    1    1    2    0    0 -0.15167278296E-01 -0.10575097025E-01 -0.12837119393E-01  0.22509345666E-01  0.00000000000E+00 0. -1.
     999901    1    3    3    0    0  0.11516221632E+00  0.18918503637E-01  0.91453290261E-01  0.89240346825E+00  0.88000000000E+00 0.  1.
        -11    1    4    4    0    0 -0.69843744960E-01 -0.13034114627E-01 -0.47715079271E-01  0.85586370206E-01  0.51100000000E-03 0.  1.
         11    1    4    4    0    0 -0.30151193063E-01  0.46907080152E-02 -0.30901091598E-01  0.43430815877E-01  0.51100000000E-03 0. -1.
</event>
<event>
 8    1  0.1116841E+005  0.1043930E+01  0.7957747E-01            NaN
         13   -1    0    0    0    0  0.00000000000E+00  0.00000000000E+00  0.74505805969E-08  0.10566000000E+00  0.10566000000E+00 0.  1.
     999900   -1    0    0    0    0 -0.00000000000E+00 -0.00000000000E+00 -0.74505805969E-08  0.93827000000E+00  0.93827000000E+00 0.  1.
     999902    2    1    2    0    0  0.23002631869E-01  0.54021795346E-02 -0.17040495159E-02  0.10202401625E+01  0.10199650880E+01 0.  0.
     999903    2    3    3    0    0  0.49060637606E-01 -0.96294440988E-01 -0.71600225657E-01  0.13124820655E+00  0.20492288305E-01 0.  0.
         14    1    1    2    0    0 -0.23002631869E-01 -0.54021795346E-02  0.17040495159E-02  0.23689837513E-01  0.00000000000E+00 0.  1.
     999901    1    3    3    0    0 -0.26058005737E-01  0.10169662052E+00  0.69896176141E-01  0.88899195594E+00  0.88000000000E+00 0. -1.
        -11    1    4    4    0    0  0.29687947454E-01 -0.53600370379E-01 -0.52242651949E-01  0.80522852237E-01  0.51100000000E-03 0.  1.
         11    1    4    4    0    0  0.19372690153E-01 -0.42694070609E-01 -0.19357573708E-01  0.50725354309E-01  0.51100000000E-03 0. -1.
</event>
<event>
 8    1  0.1116841E+005  0.1043930E+01  0.7957747E-01            NaN
         13   -1    0    0    0    0  0.00000000000E+00  0.00000000000E+00  0.74505805969E-08  0.10566000000E+00  0.10566000000E+00 0.  1.
     999900   -1    0    0    0    0 -0.00000000000E+00 -0.00000000000E+00 -0.74505805969E-08  0.93827000000E+00  0.93827000000E+00 0. -1.
     999902    2    1    2    0    0 -0.85439168311E-02 -0.17743259360E-01  0.75794179350E-02  0.10228285938E+01  0.10226109050E+01 0.  0.
     999903    2    3    3    0    0  0.85430702312E-01 -0.57053457575E-03  0.10006424854E+00  0.13284006836E+00  0.18300260058E-01 0.  0.
         14    1    1    2    0    0  0.85439168311E-02  0.17743259360E-01 -0.75794179350E-02  0.21101406204E-01  0.00000000000E+00 0.  1.
     999901    1    3    3    0    0 -0.93974619143E-01 -0.17172724785E-01 -0.92484830605E-01  0.88998852544E+00  0.88000000000E+00 0. -1.
        -11    1    4    4    0    0  0.29061990014E-01  0.84733574885E-02  0.35143956797E-01  0.46387022658E-01  0.51100000000E-03 0. -1.
         11    1    4    4    0    0  0.56368712298E-01 -0.90438920643E-02  0.64920291743E-01  0.86453045700E-01  0.51100000000E-03 0.  1.
</event>
<event>
 8    1  0.1116841E+005  0.1043930E+01  0.7957747E-01            NaN
         13   -1    0    0    0    0  0.00000000000E+00  0.00000000000E+00  0.74505805969E-08  0.10566000000E+00  0.10566000000E+00 0.  1.
     999900   -1    0    0    0    0 -0.00000000000E+00 -0.00000000000E+00 -0.74505805969E-08  0.93827000000E+00  0.93827000000E+00 0. -1.
     999902    2    1    2    0    0 -0.13652366930E-01  0.19994673138E-01  0.62718647943E-02  0.10189197948E+01  0.10186128007E+01 0.  0.
     999903    2    3    3    0    0 -0.90321340485E-01 -0.99142900028E-02  0.92630688513E-01  0.13087107765E+00  0.17045727233E-01 0.  0.
         14    1    1    2    0    0  0.13652366930E-01 -0.19994673138E-01 -0.62718647943E-02  0.25010205211E-01  0.00000000000E+00 0.  1.
     999901    1    3    3    0    0  0.76668973556E-01  0.29908963141E-01 -0.86358823719E-01  0.88804871714E+00  0.88000000000E+00 0. -1.
        -11    1    4    4    0    0 -0.26233341467E-01 -0.90856926070E-02  0.34998552047E-01  0.44675471806E-01  0.51100000000E-03 0.  1.
         11    1    4    4    0    0 -0.64087999018E-01 -0.82859739587E-03  0.57632136466E-01  0.86195605842E-01  0.51100000000E-03 0. -1.
</event>
<event>
 8    1  0.1116841E+005  0.1043930E+01  0.7957747E-01            NaN
         13   -1    0    0    0    0  0.00000000000E+00  0.00000000000E+00  0.74505805969E-08  0.10566000000E+00  0.10566000000E+00 0. -1.
     999900   -1    0    0    0    0 -0.00000000000E+00 -0.00000000000E+00 -0.74505805969E-08  0.93827000000E+00  0.93827000000E+00 0.  1.
     999902    2    1    2    0    0  0.13731671601E-01  0.18152666603E-01  0.68864446256E-02  0.10201497303E+01  0.10198725268E+01 0.  0.
     999903    2    3    3    0    0 -0.35419614480E-01  0.10451439949E-01 -0.12233860210E+00  0.12932187341E+00  0.19840153577E-01 0.  0.
         14    1    1    2    0    0 -0.13731671601E-01 -0.18152666603E-01 -0.68864446256E-02  0.23780269749E-01  0.00000000000E+00 0.  1.
     999901    1    3    3    0    0  0.49151286081E-01  0.77012266536E-02  0.12922504672E+00  0.89082785684E+00  0.88000000000E+00 0. -1.
        -11    1    4    4    0    0 -0.26524823696E-01 -0.19285034836E-02 -0.81273666891E-01  0.85515819874E-01  0.51100000000E-03 0.  1.
         11    1    4    4    0    0 -0.88947907837E-02  0.12379943433E-01 -0.41064935205E-01  0.43806053541E-01  0.51100000000E-03 0. -1.
</event>
<event>
 8    1  0.1116841E+005  0.1043930E+01  0.7957747E-01            NaN
         13   -1    0    0    0    0  0.00000000000E+00  0.00000000000E+00  0.74505805969E-08  0.10566000000E+00  0.10566000000E+00 0. -1.
     999900   -1    0    0    0    0 -0.00000000000E+00 -0.00000000000E+00 -0.74505805969E-08  0.93827000000E+00  0.93827000000E+00 0.  1.
     999902    2    1    2    0    0 -0.43142745384E-02 -0.13085522464E-02 -0.22273872954E-01  0.10212044485E+01  0.10209515537E+01 0.  0.
     999903    2    3    3    0    0  0.10344977493E+00 -0.68927411449E-01  0.33800851476E-01  0.13028931496E+00  0.19492666609E-01 0.  0.
         14    1    1    2    0    0  0.43142745384E-02  0.13085522464E-02  0.22273872954E-01  0.22725551482E-01  0.00000000000E+00 0. -1.
     999901    1    3    3    0    0 -0.10776404947E+00  0.67618859202E-01 -0.56074724430E-01  0.89091513355E+00  0.88000000000E+00 0.  1.
        -11    1    4    4    0    0  0.87728489116E-01 -0.55616133423E-01  0.35096761004E-01  0.10964253670E+00  0.51100000000E-03 0. -1.
         11    1    4    4    0    0  0.15721285811E-01 -0.13311278026E-01 -0.12959095284E-02  0.20646778266E-01  0.51100000000E-03 0.  1.
</event>
<event>
 8    1  0.1116841E+005  0.1043930E+01  0.7957747E-01            NaN
         13   -1    0    0    0    0  0.00000000000E+00  0.00000000000E+00  0.74505805969E-08  0.10566000000E+00  0.10566000000E+00 0. -1.
     999900   -1    0    0    0    0 -0.00000000000E+00 -0.00000000000E+00 -0.74505805969E-08  0.93827000000E+00  0.93827000000E+00 0.  1.
     999902    2    1    2    0    0  0.20362153107E-01 -0.12393276956E-01  0.11759755916E-01  0.10173498862E+01  0.10170026000E+01 0.  0.
     999903    2    3    3    0    0 -0.16435445766E-01 -0.11391866441E+00  0.56278664624E-01  0.12963179982E+00  0.19736500540E-01 0.  0.
         14    1    1    2    0    0 -0.20362153107E-01  0.12393276956E-01 -0.11759755916E-01  0.26580113845E-01  0.00000000000E+00 0.  1.
     999901    1    3    3    0    0  0.36797598873E-01  0.10152538745E+00 -0.44518908708E-01  0.88771808634E+00  0.88000000000E+00 0.  1.
        -11    1    4    4    0    0  0.38777843843E-02 -0.37335829014E-01  0.18666161749E-01  0.41924790463E-01  0.51100000000E-03 0. -1.
         11    1    4    4    0    0 -0.20313230151E-01 -0.76582835394E-01  0.37612502875E-01  0.87707009353E-01  0.51100000000E-03 0.  1.
</event>
<event>
 7    1  0.1116841E+005  0.1043930E+01  0.7957747E-01            NaN
         13   -1    0    0    0    0  0.00000000000E+00  0.00000000000E+00  0.74505805969E-08  0.10566000000E+00  0.10566000000E+00 0. -1.
     999900   -1    0    0    0    0 -0.00000000000E+00 -0.00000000000E+00 -0.74505805969E-08  0.93827000000E+00  0.93827000000E+00 0.  1.
     999902    2    1    2    0    0 -0.27872229628E-02 -0.17686994889E-01 -0.16259142575E-01  0.10197440926E+01  0.10194572361E+01 0.  0.
         14    1    1    2    0    0  0.27872229628E-02  0.17686994889E-01  0.16259142575E-01  0.24185907411E-01  0.00000000000E+00 0. -1.
     999901    1    3    3    0    0  0.83404226484E-01 -0.10352532037E+00  0.31858889961E-03  0.88998531362E+00  0.88000000000E+00 0. -1.
        -11    1    3    3    0    0 -0.49158730727E-01  0.61608670671E-01 -0.28681769505E-01  0.83875587219E-01  0.51100000000E-03 0. -1.
         11    1    3    3    0    0 -0.37032718720E-01  0.24229654807E-01  0.12104038030E-01  0.45883191754E-01  0.51100000000E-03 0.  1.
</event>
<event>
 7    1  0.1751266E+005  0.1043930E+01  0.7957747E-01            NaN
         13   -1    0    0    0    0  0.00000000000E+00  0.00000000000E+00  0.74505805969E-08  0.10566000000E+00  0.10566000000E+00 0.  1.
     999900   -1    0    0    0    0 -0.00000000000E+00 -0.00000000000E+00 -0.74505805969E-08  0.93827000000E+00  0.93827000000E+00 0. -1.
     999903    2    1    2    0    0  0.69165649568E-01  0.10133507282E-01  0.80328426042E-01  0.10872576297E+00  0.21955875115E-01 0.  0.
         14    1    1    2    0    0 -0.22069507092E-01 -0.36138891467E-01  0.21867759433E-01  0.47657963892E-01  0.00000000000E+00 0.  1.
     999901    1    1    2    0    0 -0.47096142475E-01  0.26005384185E-01 -0.10219618547E+00  0.88754627314E+00  0.88000000000E+00 0. -1.
        -11    1    3    3    0    0  0.36654723113E-01 -0.56657408020E-02  0.39199386981E-01  0.53967790450E-01  0.51100000000E-03 0. -1.
         11    1    3    3    0    0  0.32510926454E-01  0.15799248084E-01  0.41129039061E-01  0.54757972516E-01  0.51100000000E-03 0.  1.
</event>
<event>
 8    1  0.1116841E+005  0.1043930E+01  0.7957747E-01            NaN
         13   -1    0    0    0    0  0.00000000000E+00  0.00000000000E+00  0.74505805969E-08  0.10566000000E+00  0.10566000000E+00 0. -1.
     999900   -1    0    0    0    0 -0.00000000000E+00 -0.00000000000E+00 -0.74505805969E-08  0.93827000000E+00  0.93827000000E+00 0. -1.
     999902    2    1    2    0    0  0.11975396028E-01  0.18077421839E-01  0.14812821227E-01  0.10176693267E+01  0.10173304456E+01 0.  0.
     999903    2    3    3    0    0 -0.54389381334E-01  0.37257225125E-01  0.10997348372E+00  0.12984744127E+00  0.20491101886E-01 0.  0.
         14    1    1    2    0    0 -0.11975396028E-01 -0.18077421839E-01 -0.14812821227E-01  0.26260673317E-01  0.00000000000E+00 0.  1.
     999901    1    3    3    0    0  0.66364777362E-01 -0.19179803285E-01 -0.95160662496E-01  0.88782188541E+00  0.88000000000E+00 0. -1.
        -11    1    4    4    0    0 -0.36593909703E-01  0.14064301816E-01  0.71259943117E-01  0.81333630356E-01  0.51100000000E-03 0.  1.
         11    1    4    4    0    0 -0.17795471631E-01  0.23192923309E-01  0.38713540607E-01  0.48513810915E-01  0.51100000000E-03 0. -1.
</event>
<event>
 8    1  0.1116841E+005  0.1043930E+01  0.7957747E-01            NaN
         13   -1    0    0    0    0  0.00000000000E+00  0.00000000000E+00  0.74505805969E-08  0.10566000000E+00  0.10566000000E+00 0.  1.
     999900   -1    0    0    0    0 -0.00000000000E+00 -0.00000000000E+00 -0.74505805969E-08  0.93827000000E+00  0.93827000000E+00 0. -1.
     999902    2    1    2    0    0 -0.58438571458E-02  0.17314135947E-01 -0.15216910422E-01  0.10201500855E+01  0.10198728904E+01 0.  0.
     999903    2    3    3    0    0  0.17208764961E-01 -0.80029623151E-01  0.95932621367E-01  0.12753513536E+00  0.19006860259E-01 0.  0.
         14    1    1    2    0    0  0.58438571458E-02 -0.17314135947E-01  0.15216910422E-01  0.23779914481E-01  0.00000000000E+00 0.  1.
     999901    1    3    3    0    0 -0.23052622107E-01  0.97343759098E-01 -0.11114953179E+00  0.89261495015E+00  0.88000000000E+00 0. -1.
        -11    1    4    4    0    0  0.78353296974E-02 -0.15212357988E-01  0.30380774547E-01  0.34872063462E-01  0.51100000000E-03 0. -1.
         11    1    4    4    0    0  0.93734352640E-02 -0.64817265164E-01  0.65551846820E-01  0.92663071903E-01  0.51100000000E-03 0.  1.
</event>
<event>
 8    1  0.1116841E+005  0.1043930E+01  0.7957747E-01            NaN
         13   -1    0    0    0    0  0.00000000000E+00  0.00000000000E+00  0.74505805969E-08  0.10566000000E+00  0.10566000000E+00 0. -1.
     999900   -1    0    0    0    0 -0.00000000000E+00 -0.00000000000E+00 -0.74505805969E-08  0.93827000000E+00  0.93827000000E+00 0.  1.
     999902    2    1    2    0    0 -0.68480605570E-02  0.21019147498E-01  0.81199244825E-02  0.10203793383E+01  0.10201075239E+01 0.  0.
     999903    2    3    3    0    0 -0.79554843041E-01 -0.74788068353E-01 -0.65806020598E-01  0.12912721670E+00  0.20522610113E-01 0.  0.
         14    1    1    2    0    0  0.68480605570E-02 -0.21019147498E-01 -0.81199244825E-02  0.23550661743E-01  0.00000000000E+00 0.  1.
     999901    1    3    3    0    0  0.72706782484E-01  0.95807215851E-01  0.73925945081E-01  0.89125212156E+00  0.88000000000E+00 0. -1.
        -11    1    4    4    0    0 -0.33400294196E-01 -0.42275921738E-01 -0.39692383941E-01  0.66922191201E-01  0.51100000000E-03 0. -1.
         11    1    4    4    0    0 -0.46154548845E-01 -0.32512146615E-01 -0.26113636657E-01  0.62205025497E-01  0.51100000000E-03 0.  1.
</event>
<event>
 8    1  0.1116841E+005  0.1043930E+01  0.7957747E-01            NaN
         13   -1    0    0    0    0  0.00000000000E+00  0.00000000000E+00  0.74505805969E-08  0.10566000000E+00  0.10566000000E+00 0. -1.
     999900   -1    0    0    0    0 -0.00000000000E+00 -0.00000000000E+00 -0.74505805969E-08  0.93827000000E+00  0.93827000000E+00 0.  1.
     999902    2    1    2    0    0 -0.37640660432E-02  0.21253802010E-01  0.87143234359E-02  0.10206527208E+01  0.10203872524E+01 0.  0.
     999903    2    3    3    0    0  0.88838542312E-01  0.34048151396E-01 -0.86668129528E-01  0.13057589785E+00  0.22071185076E-01 0.  0.
         14    1    1    2    0    0  0.37640660432E-02 -0.21253802010E-01 -0.87143234359E-02  0.23277279179E-01  0.00000000000E+00 0.  1.
     999901    1    3    3    0    0 -0.92602608356E-01 -0.12794349386E-01  0.95382452964E-01  0.89007682297E+00  0.88000000000E+00 0. -1.
        -11    1    4    4    0    0  0.69546881292E-01  0.22210952482E-01 -0.53910890072E-01  0.90756489007E-01  0.51100000000E-03 0. -1.
         11    1    4    4    0    0  0.19291661020E-01  0.11837198914E-01 -0.32757239456E-01  0.39819408846E-01  0.51100000000E-03 0.  1.
</event>
<event>
 8    1  0.1116841E+005  0.1043930E+01  0.7957747E-01            NaN
         13   -1    0    0    0    0  0.00000000000E+00  0.00000000000E+00  0.74505805969E-08  0.10566000000E+00  0.10566000000E+00 0.  1.
     999900   -1    0    0    0    0 -0.00000000000E+00 -0.00000000000E+00 -0.74505805969E-08  0.93827000000E+00  0.93827000000E+00 0. -1.
     999902    2    1    2    0    0  0.46928297576E-02  0.17608689942E-01  0.15845013212E-01  0.10197814378E+01  0.10194954771E+01 0.  0.
     999903    2    3    3    0    0 -0.68369708470E-01  0.24442279060E-01  0.10801848689E+00  0.13192965868E+00  0.21577749864E-01 0.  0.
         14    1    1    2    0    0 -0.46928297576E-02 -0.17608689942E-01 -0.15845013212E-01  0.24148562200E-01  0.00000000000E+00 0. -1.
     999901    1    3    3    0    0  0.73062538228E-01 -0.68335891175E-02 -0.92173473674E-01  0.88785177912E+00  0.88000000000E+00 0. -1.
        -11    1    4    4    0    0 -0.36492207835E-01  0.26906003240E-02  0.44617761012E-01  0.57705513441E-01  0.51100000000E-03 0. -1.
         11    1    4    4    0    0 -0.31877500635E-01  0.21751678736E-01  0.63400725874E-01  0.74224145242E-01  0.51100000000E-03 0.  1.
</event>
<event>
 8    1  0.1116841E+005  0.1043930E+01  0.7957747E-01            NaN
         13   -1    0    0    0    0  0.00000000000E+00  0.00000000000E+00  0.74505805969E-08  0.10566000000E+00  0.10566000000E+00 0. -1.
     999900   -1    0    0    0    0 -0.00000000000E+00 -0.00000000000E+00 -0.74505805969E-08  0.93827000000E+00  0.93827000000E+00 0. -1.
     999902    2    1    2    0    0 -0.16481417376E-01  0.14761966059E-01  0.78908039417E-02  0.10204392029E+01  0.10201687847E+01 0.  0.
     999903    2    3    3    0    0  0.10476787177E+00 -0.57465257840E-01  0.42867000684E-01  0.12850787354E+00  0.19953220289E-01 0.  0.
         14    1    1    2    0    0  0.16481417376E-01 -0.14761966059E-01 -0.78908039417E-02  0.23490797081E-01  0.00000000000E+00 0. -1.
     999901    1    3    3    0    0 -0.12124928915E+00  0.72227223898E-01 -0.34976196742E-01  0.89193132938E+00  0.88000000000E+00 0.  1.
        -11    1    4    4    0    0  0.42961689796E-01 -0.14485839433E-01  0.10376652493E-01  0.46513249426E-01  0.51100000000E-03 0.  1.
         11    1    4    4    0    0  0.61806181976E-01 -0.42979418407E-01  0.32490348191E-01  0.81994624114E-01  0.51100000000E-03 0. -1.
</event>
<event>
 8    1  0.1116841E+005  0.1043930E+01  0.7957747E-01            NaN
         13   -1    0    0    0    0  0.00000000000E+00  0.00000000000E+00  0.74505805969E-08  0.10566000000E+00  0.10566000000E+00 0. -1.
     999900   -1    0    0    0    0 -0.00000000000E+00 -0.00000000000E+00 -0.74505805969E-08  0.93827000000E+00  0.93827000000E+00 0.  1.
     999902    2    1    2    0    0 -0.62845688232E-02  0.15005244673E-01  0.17172860447E-01  0.10202749729E+01  0.10200007157E+01 0.  0.
     999903    2    3    3    0    0 -0.87695246518E-03 -0.93710545412E-01 -0.84412060928E-01  0.12776846780E+00  0.20419352745E-01 0.  0.
         14    1    1    2    0    0  0.62845688232E-02 -0.15005244673E-01 -0.17172860447E-01  0.23655027138E-01  0.00000000000E+00 0.  1.
     999901    1    3    3    0    0 -0.54076163580E-02  0.10871579008E+00  0.10158492138E+00  0.89250650506E+00  0.88000000000E+00 0. -1.
        -11    1    4    4    0    0  0.62824655079E-02 -0.47414721374E-01 -0.32424412885E-01  0.57786061016E-01  0.51100000000E-03 0. -1.
         11    1    4    4    0    0 -0.71594179731E-02 -0.46295824038E-01 -0.51987648043E-01  0.69982406783E-01  0.51100000000E-03 0.  1.
</event>
<event>
 8    1  0.1116841E+005  0.1043930E+01  0.7957747E-01            NaN
         13   -1    0    0    0    0  0.00000000000E+00  0.00000000000E+00  0.74505805969E-08  0.10566000000E+00  0.10566000000E+00 0.  1.
     999900   -1    0    0    0    0 -0.00000000000E+00 -0.00000000000E+00 -0.74505805969E-08  0.93827000000E+00  0.93827000000E+00 0.  1.
     999902    2    1    2    0    0  0.48190746288E-02  0.15165218566E-01  0.20509419391E-01  0.10179715020E+01  0.10176404745E+01 0.  0.
     999903    2    3    3    0    0  0.10387483214E+00  0.71810457164E-01  0.26539625986E-01  0.13058371217E+00  0.20025774065E-01 0.  0.
         14    1    1    2    0    0 -0.48190746288E-02 -0.15165218566E-01 -0.20509419391E-01  0.25958497996E-01  0.00000000000E+00 0. -1.
     999901    1    3    3    0    0 -0.99055757511E-01 -0.56645238598E-01 -0.60302065957E-02  0.88738778983E+00  0.88000000000E+00 0. -1.
        -11    1    4    4    0    0  0.26374212290E-01  0.28598209440E-01  0.46071494758E-02  0.39178356326E-01  0.51100000000E-03 0.  1.
         11    1    4    4    0    0  0.77500619850E-01  0.43212247724E-01  0.21932476511E-01  0.91405355847E-01  0.51100000000E-03 0. -1.
</event>
<event>
 8    1  0.1116841E+005  0.1043930E+01  0.7957747E-01            NaN
         13   -1    0    0    0    0  0.00000000000E+00  0.00000000000E+00  0.74505805969E-08  0.10566000000E+00  0.10566000000E+00 0. -1.
     999900   -1    0    0    0    0 -0.00000000000E+00 -0.00000000000E+00 -0.74505805969E-08  0.93827000000E+00  0.93827000000E+00 0.  1.
     999902    2    1    2    0    0 -0.20082034077E-02  0.98621346825E-02  0.21000512450E-01  0.10206423186E+01  0.10203766101E+01 0.  0.
     999903    2    3    3    0    0 -0.72054310651E-01 -0.10525669283E+00  0.17406946442E-01  0.13037734945E+00  0.20602339583E-01 0.  0.
         14    1    1    2    0    0  0.20082034077E-02 -0.98621346825E-02 -0.21000512450E-01  0.23287681392E-01  0.00000000000E+00 0.  1.
     999901    1    3    3    0    0  0.70046107243E-01  0.11511882752E+00  0.35935660082E-02  0.89026496916E+00  0.88000000000E+00 0. -1.
        -11    1    4    4    0    0 -0.37117555517E-01 -0.68196919147E-01  0.16788925330E-01  0.79439674240E-01  0.51100000000E-03 0. -1.
         11    1    4    4    0    0 -0.34936755133E-01 -0.37059773687E-01  0.61802111261E-03  0.50937675213E-01  0.51100000000E-03 0.  1.
</event>
<event>
 8    1  0.1116841E+005  0.1043930E+01  0.7957747E-01            NaN
         13   -1    0    0    0    0  0.00000000000E+00  0.00000000000E+00  0.74505805969E-08  0.10566000000E+00  0.10566000000E+00 0.  1.
     999900   -1    0    0    0    0 -0.00000000000E+00 -0.00000000000E+00 -0.74505805969E-08  0.93827000000E+00  0.93827000000E+00 0.  1.
     999902    2    1    2    0    0  0.24162453488E-01 -0.60853541937E-02 -0.55606362013E-02  0.10184000887E+01  0.10180800383E+01 0.  0.
     999903    2    3    3    0    0 -0.65133851454E-01  0.15450810507E-02 -0.10820204986E+00  0.12791296731E+00  0.20229625119E-01 0.  0.
         14    1    1    2    0    0 -0.24162453488E-01  0.60853541937E-02  0.55606362013E-02  0.25529911265E-01  0.00000000000E+00 0. -1.
     999901    1    3    3    0    0  0.89296304943E-01 -0.76304352444E-02  0.10264141366E+00  0.89048712142E+00  0.88000000000E+00 0. -1.
        -11    1    4    4    0    0 -0.87371365534E-02  0.73836343178E-02 -0.20412910781E-01  0.23405205798E-01  0.51100000000E-03 0. -1.
         11    1    4    4    0    0 -0.56396714901E-01 -0.58385532670E-02 -0.87789139079E-01  0.10450776152E+00  0.51100000000E-03 0.  1.
</event>
<event>
 8    1  0.1116841E+005  0.1043930E+01  0.7957747E-01            NaN
         13   -1    0    0    0    0  0.00000000000E+00  0.00000000000E+00  0.74505805969E-08  0.10566000000E+00  0.10566000000E+00 0.  1.
     999900   -1    0    0    0    0 -0.00000000000E+00 -0.00000000000E+00 -0.74505805969E-08  0.93827000000E+00  0.93827000000E+00 0.  1.
     999902    2    1    2    0    0  0.11935948176E-02  0.17601935356E-01 -0.16305946252E-01  0.10199063308E+01  0.10196233555E+01 0.  0.
     999903    2    3    3    0    0  0.58878057192E-01 -0.88250212012E-01 -0.72827477746E-01  0.12989124230E+00  0.17696546909E-01 0.  0.
         14    1    1    2    0    0 -0.11935948176E-02 -0.17601935356E-01  0.16305946252E-01  0.24023669163E-01  0.00000000000E+00 0.  1.
     999901    1    3    3    0    0 -0.57684462374E-01  0.10585214737E+00  0.56521531494E-01  0.89001508854E+00  0.88000000000E+00 0.  1.
        -11    1    4    4    0    0  0.56973642324E-01 -0.81191106020E-01 -0.62534280285E-01  0.11725522994E+00  0.51100000000E-03 0. -1.
         11    1    4    4    0    0  0.19044148675E-02 -0.70591059917E-02 -0.10293197461E-01  0.12636012360E-01  0.51100000000E-03 0.  1.
</event>
<event>
 8    1  0.1116841E+005  0.1043930E+01  0.7957747E-01            NaN
         13   -1    0    0    0    0  0.00000000000E+00  0.00000000000E+00  0.74505805969E-08  0.10566000000E+00  0.10566000000E+00 0.  1.
     999900   -1    0    0    0    0 -0.00000000000E+00 -0.00000000000E+00 -0.74505805969E-08  0.93827000000E+00  0.93827000000E+00 0.  1.
     999902    2    1    2    0    0  0.28320297629E-02 -0.10851930688E-01 -0.21365510064E-01  0.10197997324E+01  0.10195142100E+01 0.  0.
     999903    2    3    3    0    0  0.12386636574E+00  0.10777365453E-01  0.30458721876E-01  0.12974193210E+00  0.21123613268E-01 0.  0.
         14    1    1    2    0    0 -0.28320297629E-02  0.10851930688E-01  0.21365510064E-01  0.24130267560E-01  0.00000000000E+00 0.  1.
     999901    1    3    3    0    0 -0.12103433598E+00 -0.21629296140E-01 -0.51824231940E-01  0.89005780034E+00  0.88000000000E+00 0. -1.
        -11    1    4    4    0    0  0.50060120198E-01  0.12642378836E-01  0.19037924272E-01  0.55032254710E-01  0.51100000000E-03 0.  1.
         11    1    4    4    0    0  0.73806245543E-01 -0.18650133839E-02  0.11420797603E-01  0.74709677385E-01  0.51100000000E-03 0. -1.
</event>
<event>
 8    1  0.1116841E+005  0.1043930E+01  0.7957747E-01            NaN
         13   -1    0    0    0    0  0.00000000000E+00  0.00000000000E+00  0.74505805969E-08  0.10566000000E+00  0.10566000000E+00 0.  1.
     999900   -1    0    0    0    0 -0.00000000000E+00 -0.00000000000E+00 -0.74505805969E-08  0.93827000000E+00  0.93827000000E+00 0.  1.
     999902    2    1    2    0    0  0.15462293491E-01 -0.29306713687E-02 -0.18444386266E-01  0.10196840366E+01  0.10193957366E+01 0.  0.
     999903    2    3    3    0    0 -0.19875243974E-01 -0.12298692574E+00 -0.34116116859E-01  0.13069143323E+00  0.19887987986E-01 0.  0.
         14    1    1    2    0    0 -0.15462293491E-01  0.29306713687E-02  0.18444386266E-01  0.24245963363E-01  0.00000000000E+00 0.  1.
     999901    1    3    3    0    0  0.35337537465E-01  0.12005625437E+00  0.15671730593E-01  0.88899260340E+00  0.88000000000E+00 0.  1.
        -11    1    4    4    0    0 -0.21142116195E-01 -0.83806762826E-01 -0.17910720307E-01  0.88270139886E-01  0.51100000000E-03 0.  1.
         11    1    4    4    0    0  0.12668722213E-02 -0.39180162910E-01 -0.16205396552E-01  0.42421293347E-01  0.51100000000E-03 0. -1.
</event>
<event>
 8    1  0.1116841E+005  0.1043930E+01  0.7957747E-01            NaN
         13   -1    0    0    0    0  0.00000000000E+00  0.00000000000E+00  0.74505805969E-08  0.10566000000E+00  0.10566000000E+00 0. -1.
     999900   -1    0    0    0    0 -0.00000000000E+00 -0.00000000000E+00 -0.74505805969E-08  0.93827000000E+00  0.93827000000E+00 0.  1.
     999902    2    1    2    0    0 -0.21630857859E-01 -0.96563269454E-02  0.31258418899E-02  0.10200362864E+01  0.10197564003E+01 0.  0.
     999903    2    3    3    0    0  0.11458813080E+00  0.35391700305E-01  0.38594812773E-01  0.12771180197E+00  0.20922060591E-01 0.  0.
         14    1    1    2    0    0  0.21630857859E-01  0.96563269454E-02 -0.31258418899E-02  0.23893713594E-01  0.00000000000E+00 0.  1.
     999901    1    3    3    0    0 -0.13621898866E+00 -0.45048027251E-01 -0.35468970883E-01  0.89232448444E+00  0.88000000000E+00 0.  1.
        -11    1    4    4    0    0  0.41647144122E-01  0.22541957523E-01  0.10593206282E-01  0.48529389063E-01  0.51100000000E-03 0. -1.
         11    1    4    4    0    0  0.72940986675E-01  0.12849742782E-01  0.28001606491E-01  0.79182412907E-01  0.51100000000E-03 0.  1.
</event>
<event>
 8    1  0.1116841E+005  0.1043930E+01  0.7957747E-01            NaN
         13   -1    0    0    0    0  0.00000000000E+00  0.00000000000E+00  0.74505805969E-08  0.10566000000E+00  0.10566000000E+00 0. -1.
     999900   -1    0    0    0    0 -0.00000000000E+00 -0.00000000000E+00 -0.74505805969E-08  0.93827000000E+00  0.93827000000E+00 0.  1.
     999902    2    1    2    0    0 -0.68583958224E-02  0.17474638300E-01  0.15966269821E-01  0.10192860890E+01  0.10189881299E+01 0.  0.
     999903    2    3    3    0    0  0.70844518266E-01 -0.10230230641E+00  0.20283390704E-01  0.12776890080E+00  0.20706723710E-01 0.  0.
         14    1    1    2    0    0  0.68583958224E-02 -0.17474638300E-01 -0.15966269821E-01  0.24643910992E-01  0.00000000000E+00 0.  1.
     999901    1    3    3    0    0 -0.77702914088E-01  0.11977694471E+00 -0.43171208825E-02  0.89151718821E+00  0.88000000000E+00 0. -1.
        -11    1    4    4    0    0  0.35959272279E-01 -0.40839754737E-01  0.17029711385E-01  0.57019531922E-01  0.51100000000E-03 0. -1.
         11    1    4    4    0    0  0.34885245987E-01 -0.61462551676E-01  0.32536793186E-02  0.70749368875E-01  0.51100000000E-03 0.  1.
</event>
<event>
 8    1  0.1116841E+005  0.1043930E+01  0.7957747E-01            NaN
         13   -1    0    0    0    0  0.00000000000E+00  0.00000000000E+00  0.74505805969E-08  0.10566000000E+00  0.10566000000E+00 0. -1.
     999900   -1    0    0    0    0 -0.00000000000E+00 -0.00000000000E+00 -0.74505805969E-08  0.93827000000E+00  0.93827000000E+00 0.  1.
     999902    2    1    2    0    0 -0.42248666395E-02 -0.26658025552E-02  0.23561998213E-01  0.10198442415E+01  0.10195597840E+01 0.  0.
     999903    2    3    3    0    0 -0.35961287312E-01  0.21221441221E-01 -0.11876075453E+00  0.12752503476E+00  0.20370417805E-01 0.  0.
         14    1    1    2    0    0  0.42248666395E-02  0.26658025552E-02 -0.23561998213E-01  0.24085758472E-01  0.00000000000E+00 0.  1.
     999901    1    3    3    0    0  0.31736420672E-01 -0.23887243776E-01  0.14232275275E+00  0.89231920676E+00  0.88000000000E+00 0. -1.
        -11    1    4    4    0    0 -0.12377253189E-01 -0.25281414777E-02 -0.39862339362E-01  0.41819315109E-01  0.51100000000E-03 0. -1.
         11    1    4    4    0    0 -0.23584034123E-01  0.23749582698E-01 -0.78898415171E-01  0.85705719654E-01  0.51100000000E-03 0.  1.
</event>
<event>
 8    1  0.1116841E+005  0.1043930E+01  0.7957747E-01            NaN
         13   -1    0    0    0    0  0.00000000000E+00  0.00000000000E+00  0.74505805969E-08  0.10566000000E+00  0.10566000000E+00 0. -1.
     999900   -1    0    0    0    0 -0.00000000000E+00 -0.00000000000E+00 -0.74505805969E-08  0.93827000000E+00  0.93827000000E+00 0.  1.
     999902    2    1    2    0    0  0.15815683766E-01 -0.20088464695E-02  0.17850057143E-01  0.10199968461E+01  0.10197160243E+01 0.  0.
     999903    2    3    3    0    0 -0.39178382485E-01  0.12030257528E+00  0.19220617851E-01  0.12983601248E+00  0.21915809692E-01 0.  0.
         14    1    1    2    0    0 -0.15815683766E-01  0.20088464695E-02 -0.17850057143E-01  0.23933153932E-01  0.00000000000E+00 0.  1.
     999901    1    3    3    0    0  0.54994066251E-01 -0.12231142175E+00 -0.13705607079E-02  0.89016083359E+00  0.88000000000E+00 0.  1.
        -11    1    4    4    0    0 -0.38631771135E-01  0.89975989689E-01  0.11999930914E-01  0.98652683311E-01  0.51100000000E-03 0.  1.
         11    1    4    4    0    0 -0.54661135020E-03  0.30326585587E-01  0.72206869371E-02  0.31183329171E-01  0.51100000000E-03 0. -1.
</event>
<event>
 8    1  0.1116841E+005  0.1043930E+01  0.7957747E-01            NaN
         13   -1    0    0    0    0  0.00000000000E+00  0.00000000000E+00  0.74505805969E-08  0.10566000000E+00  0.10566000000E+00 0.  1.
     999900   -1    0    0    0    0 -0.00000000000E+00 -0.00000000000E+00 -0.74505805969E-08  0.93827000000E+00  0.93827000000E+00 0. -1.
     999902    2    1    2    0    0 -0.61169026854E-02  0.13441042051E-01 -0.19026309596E-01  0.10198451797E+01  0.10195607447E+01 0.  0.
     999903    2    3    3    0    0 -0.74033563716E-01  0.38062238600E-01 -0.10178726077E+00  0.13301472740E+00  0.20064114419E-01 0.  0.
         14    1    1    2    0    0  0.61169026854E-02 -0.13441042051E-01  0.19026309596E-01  0.24084820255E-01  0.00000000000E+00 0.  1.
     999901    1    3    3    0    0  0.67916661031E-01 -0.24621196549E-01  0.82760951171E-01  0.88683045234E+00  0.88000000000E+00 0.  1.
        -11    1    4    4    0    0 -0.23681913904E-01  0.26628511826E-02 -0.24073686250E-01  0.33878124405E-01  0.51100000000E-03 0.  1.
         11    1    4    4    0    0 -0.50351649813E-01  0.35399387417E-01 -0.77713574517E-01  0.99136602996E-01  0.51100000000E-03 0. -1.
</event>
<event>
 8    1  0.1247928E+005  0.1043930E+01  0.7957747E-01            NaN
         13   -1    0    0    0    0  0.00000000000E+00  0.00000000000E+00  0.74505805969E-08  0.10566000000E+00  0.10566000000E+00 0. -1.
     999900   -1    0    0    0    0 -0.00000000000E+00 -0.00000000000E+00 -0.74505805969E-08  0.93827000000E+00  0.93827000000E+00 0.  1.
     999902    2    1    2    0    0 -0.59591018505E-02 -0.22691620629E-01  0.47049754131E-02  0.10200018297E+01  0.10197211262E+01 0.  0.
     999903    2    3    3    0    0 -0.41581238777E-01  0.88814750015E-01  0.81400320956E-01  0.12894359175E+00  0.19580050156E-01 0.  0.
         14    1    1    2    0    0  0.59591018505E-02  0.22691620629E-01 -0.47049754131E-02  0.23928170328E-01  0.00000000000E+00 0. -1.
     999901    1    3    3    0    0  0.35622136926E-01 -0.11150637064E+00 -0.76695345543E-01  0.89105823792E+00  0.88000000000E+00 0.  1.
        -11    1    4    4    0    0 -0.28342741286E-01  0.37766718666E-01  0.40303826893E-01  0.62082973557E-01  0.51100000000E-03 0.  1.
         11    1    4    4    0    0 -0.13238497491E-01  0.51048031349E-01  0.41096494063E-01  0.66860618197E-01  0.51100000000E-03 0. -1.
</event>
<event>
 8    1  0.1116841E+005  0.1043930E+01  0.7957747E-01            NaN
         13   -1    0    0    0    0  0.00000000000E+00  0.00000000000E+00  0.74505805969E-08  0.10566000000E+00  0.10566000000E+00 0. -1.
     999900   -1    0    0    0    0 -0.00000000000E+00 -0.00000000000E+00 -0.74505805969E-08  0.93827000000E+00  0.93827000000E+00 0.  1.
     999902    2    1    2    0    0  0.24731761253E-02 -0.49097349295E-02 -0.22474378718E-01  0.10207930210E+01  0.10205307795E+01 0.  0.
     999903    2    3    3    0    0  0.93087119950E-01  0.69013751148E-01  0.54973231853E-01  0.12968489011E+00  0.19183449989E-01 0.  0.
         14    1    1    2    0    0 -0.24731761253E-02  0.49097349295E-02  0.22474378718E-01  0.23136978973E-01  0.00000000000E+00 0. -1.
     999901    1    3    3    0    0 -0.90613943825E-01 -0.73923486077E-01 -0.77447610571E-01  0.89110813092E+00  0.88000000000E+00 0.  1.
        -11    1    4    4    0    0  0.15179565804E-01  0.35287327545E-02  0.90510390357E-02  0.18029242954E-01  0.51100000000E-03 0.  1.
         11    1    4    4    0    0  0.77907554146E-01  0.65485018393E-01  0.45922192817E-01  0.11165564715E+00  0.51100000000E-03 0. -1.
</event>
<event>
 8    1  0.1116841E+005  0.1043930E+01  0.7957747E-01            NaN
         13   -1    0    0    0    0  0.00000000000E+00  0.00000000000E+00  0.74505805969E-08  0.10566000000E+00  0.10566000000E+00 0. -1.
     999900   -1    0    0    0    0 -0.00000000000E+00 -0.00000000000E+00 -0.74505805969E-08  0.93827000000E+00  0.93827000000E+00 0. -1.
     999902    2    1    2    0    0  0.14745608986E-01 -0.19078696112E-01 -0.25760743511E-02  0.10196799322E+01  0.10193915334E+01 0.  0.
     999903    2    3    3    0    0  0.48738524616E-01 -0.11409855526E+00  0.42030410950E-01  0.13278984290E+00  0.21740810474E-01 0.  0.
         14    1    1    2    0    0 -0.14745608986E-01  0.19078696112E-01  0.25760743511E-02  0.24250067810E-01  0.00000000000E+00 0.  1.
     999901    1    3    3    0    0 -0.33992915630E-01  0.95019859146E-01 -0.44606485301E-01  0.88689008929E+00  0.88000000000E+00 0. -1.
        -11    1    4    4    0    0  0.28605338529E-01 -0.80143069059E-01  0.37701363267E-01  0.93074329564E-01  0.51100000000E-03 0.  1.
         11    1    4    4    0    0  0.20133186086E-01 -0.33955486198E-01  0.43290476829E-02  0.39715513339E-01  0.51100000000E-03 0. -1.
</event>
<event>
 8    1  0.1116841E+005  0.1043930E+01  0.7957747E-01            NaN
         13   -1    0    0    0    0  0.00000000000E+00  0.00000000000E+00  0.74505805969E-08  0.10566000000E+00  0.10566000000E+00 0. -1.
     999900   -1    0    0    0    0 -0.00000000000E+00 -0.00000000000E+00 -0.74505805969E-08  0.93827000000E+00  0.93827000000E+00 0.  1.
     999902    2    1    2    0    0 -0.72735493062E-02 -0.18389102630E-01  0.13104871983E-01  0.10202065668E+01  0.10199307023E+01 0.  0.
     999903    2    3    3    0    0  0.57090629834E-01  0.11069813139E+00  0.23616030510E-01  0.12840123711E+00  0.20389813257E-01 0.  0.
         14    1    1    2    0    0  0.72735493062E-02  0.18389102630E-01 -0.13104871983E-01  0.23723433241E-01  0.00000000000E+00 0.  1.
     999901    1    3    3    0    0 -0.64364179140E-01 -0.12908723402E+00 -0.10511158526E-01  0.89180532965E+00  0.88000000000E+00 0.  1.
        -11    1    4    4    0    0  0.40954948059E-01  0.74318667313E-01  0.25348816635E-01  0.88562947712E-01  0.51100000000E-03 0. -1.
         11    1    4    4    0    0  0.16135681775E-01  0.36379464080E-01 -0.17327861248E-02  0.39838289394E-01  0.51100000000E-03 0.  1.
</event>
<event>
 8    1  0.1116841E+005  0.1043930E+01  0.7957747E-01            NaN
         13   -1    0    0    0    0  0.00000000000E+00  0.00000000000E+00  0.74505805969E-08  0.10566000000E+00  0.10566000000E+00 0.  1.
     999900   -1    0    0    0    0 -0.00000000000E+00 -0.00000000000E+00 -0.74505805969E-08  0.93827000000E+00  0.93827000000E+00 0. -1.
     999902    2    1    2    0    0  0.12630423947E-01 -0.19600700050E-01 -0.15472012427E-02  0.10205610273E+01  0.10202934390E+01 0.  0.
     999903    2    3    3    0    0 -0.39028820537E-01  0.12001145911E+00 -0.10004037923E-01  0.12801873108E+00  0.19045093396E-01 0.  0.
         14    1    1    2    0    0 -0.12630423947E-01  0.19600700050E-01  0.15472012427E-02  0.23368972660E-01  0.00000000000E+00 0.  1.
     999901    1    3    3    0    0  0.51659244484E-01 -0.13961215916E+00  0.84568366799E-02  0.89254229626E+00  0.88000000000E+00 0.  1.
        -11    1    4    4    0    0 -0.33640205354E-01  0.10933038782E+00 -0.36160707636E-02  0.11444708037E+00  0.51100000000E-03 0.  1.
         11    1    4    4    0    0 -0.53886151826E-02  0.10681071288E-01 -0.63879671591E-02  0.13571650706E-01  0.51100000000E-03 0. -1.
</event>
<event>
 8    1  0.1116841E+005  0.1043930E+01  0.7957747E-01            NaN
         13   -1    0    0    0    0  0.00000000000E+00  0.00000000000E+00  0.74505805969E-08  0.10566000000E+00  0.10566000000E+00 0. -1.
     999900   -1    0    0    0    0 -0.00000000000E+00 -0.00000000000E+00 -0.74505805969E-08  0.93827000000E+00  0.93827000000E+00 0.  1.
     999902    2    1    2    0    0 -0.67416334419E-02  0.17113068771E-01 -0.14305790290E-01  0.10206284468E+01  0.10203624180E+01 0.  0.
     999903    2    3    3    0    0  0.10474313117E+00 -0.53379735546E-02  0.71713002513E-01  0.12915094585E+00  0.23186086263E-01 0.  0.
         14    1    1    2    0    0  0.67416334419E-02 -0.17113068771E-01  0.14305790290E-01  0.23301553168E-01  0.00000000000E+00 0. -1.
     999901    1    3    3    0    0 -0.11148476461E+00  0.22451042325E-01 -0.86018792803E-01  0.89147750098E+00  0.88000000000E+00 0. -1.
        -11    1    4    4    0    0  0.30346847639E-01 -0.29992549668E-02  0.34111401259E-01  0.45757791783E-01  0.51100000000E-03 0.  1.
         11    1    4    4    0    0  0.74396283528E-01 -0.23387185878E-02  0.37601601253E-01  0.83393154067E-01  0.51100000000E-03 0. -1.
</event>
<event>
 8    1  0.1116841E+005  0.1043930E+01  0.7957747E-01            NaN
         13   -1    0    0    0    0  0.00000000000E+00  0.00000000000E+00  0.74505805969E-08  0.10566000000E+00  0.10566000000E+00 0.  1.
     999900   -1    0    0    0    0 -0.00000000000E+00 -0.00000000000E+00 -0.74505805969E-08  0.93827000000E+00  0.93827000000E+00 0. -1.
     999902    2    1    2    0    0  0.17504353520E-01 -0.14150718309E-01  0.10999118076E-01  0.10188775387E+01  0.10185694934E+01 0.  0.
     999903    2    3    3    0    0 -0.10702988901E+00 -0.61204616742E-01  0.33783940473E-01  0.12857309913E+00  0.13721695730E-01 0.  0.
         14    1    1    2    0    0 -0.17504353520E-01  0.14150718309E-01 -0.10999118076E-01  0.25052461341E-01  0.00000000000E+00 0. -1.
     999901    1    3    3    0    0  0.12453424253E+00  0.47053898434E-01 -0.22784822397E-01  0.89030443953E+00  0.88000000000E+00 0.  1.
        -11    1    4    4    0    0 -0.77894097247E-01 -0.46834866044E-01  0.18900973780E-01  0.92835892812E-01  0.51100000000E-03 0.  1.
         11    1    4    4    0    0 -0.29135791759E-01 -0.14369750698E-01  0.14882966693E-01  0.35737206314E-01  0.51100000000E-03 0. -1.
</event>
<event>
 8    1  0.1116841E+005  0.1043930E+01  0.7957747E-01            NaN
         13   -1    0    0    0    0  0.00000000000E+00  0.00000000000E+00  0.74505805969E-08  0.10566000000E+00  0.10566000000E+00 0. -1.
     999900   -1    0    0    0    0 -0.00000000000E+00 -0.00000000000E+00 -0.74505805969E-08  0.93827000000E+00  0.93827000000E+00 0. -1.
     999902    2    1    2    0    0 -0.13344708321E-01 -0.14053706777E-01  0.13826206960E-01  0.10201234481E+01  0.10198456243E+01 0.  0.
     999903    2    3    3    0    0  0.77401129486E-01 -0.10216058993E+00 -0.14860805916E-01  0.13061764450E+00  0.20307745339E-01 0.  0.
         14    1    1    2    0    0  0.13344708321E-01  0.14053706777E-01 -0.13826206960E-01  0.23806551897E-01  0.00000000000E+00 0.  1.
     999901    1    3    3    0    0 -0.90745837807E-01  0.88106883155E-01  0.28687012876E-01  0.88950580360E+00  0.88000000000E+00 0.  1.
        -11    1    4    4    0    0  0.29633946417E-01 -0.44518068703E-01  0.32964061131E-02  0.53583174930E-01  0.51100000000E-03 0.  1.
         11    1    4    4    0    0  0.47767183069E-01 -0.57642521229E-01 -0.18157212029E-01  0.77034469568E-01  0.51100000000E-03 0. -1.
</event>
<event>
 8    1  0.1116841E+005  0.1043930E+01  0.7957747E-01            NaN
         13   -1    0    0    0    0  0.00000000000E+00  0.00000000000E+00  0.74505805969E-08  0.10566000000E+00  0.10566000000E+00 0.  1.
     999900   -1    0    0    0    0 -0.00000000000E+00 -0.00000000000E+00 -0.74505805969E-08  0.93827000000E+00  0.93827000000E+00 0. -1.
     999902    2    1    2    0    0 -0.20733126393E-01  0.55532061563E-02  0.63070544852E-02  0.10215585994E+01  0.10213136112E+01 0.  0.
     999903    2    3    3    0    0 -0.21256520842E-02  0.18500148883E-01 -0.12821933122E+00  0.13104683088E+00  0.19654543482E-01 0.  0.
         14    1    1    2    0    0  0.20733126393E-01 -0.55532061563E-02 -0.63070544852E-02  0.22371400602E-01  0.00000000000E+00 0.  1.
     999901    1    3    3    0    0 -0.18607474309E-01 -0.12946942727E-01  0.13452638570E+00  0.89051176852E+00  0.88000000000E+00 0.  1.
        -11    1    4    4    0    0  0.27186025811E-02  0.19565045034E-01 -0.73798244302E-01  0.76397799512E-01  0.51100000000E-03 0. -1.
         11    1    4    4    0    0 -0.48442546653E-02 -0.10648961508E-02 -0.54421086914E-01  0.54649031364E-01  0.51100000000E-03 0.  1.
</event>
<event>
 8    1  0.1116841E+005  0.1043930E+01  0.7957747E-01            NaN
         13   -1    0    0    0    0  0.00000000000E+00  0.00000000000E+00  0.74505805969E-08  0.10566000000E+00  0.10566000000E+00 0.  1.
     999900   -1    0    0    0    0 -0.00000000000E+00 -0.00000000000E+00 -0.74505805969E-08  0.93827000000E+00  0.93827000000E+00 0. -1.
     999902    2    1    2    0    0  0.14153377600E-01 -0.17687721593E-01 -0.80228623670E-02  0.10198979399E+01  0.10196147644E+01 0.  0.
     999903    2    3    3    0    0  0.20035722227E-01 -0.93704367992E-01  0.87530682302E-01  0.13144782176E+00  0.20855952500E-01 0.  0.
         14    1    1    2    0    0 -0.14153377600E-01  0.17687721593E-01  0.80228623670E-02  0.24032060111E-01  0.00000000000E+00 0. -1.
     999901    1    3    3    0    0 -0.58823446276E-02  0.76016646399E-01 -0.95553544669E-01  0.88845011813E+00  0.88000000000E+00 0. -1.
        -11    1    4    4    0    0  0.88150125667E-02 -0.78846127545E-01  0.73171303421E-01  0.10792922237E+00  0.51100000000E-03 0.  1.
         11    1    4    4    0    0  0.11220709660E-01 -0.14858240447E-01  0.14359378881E-01  0.23518599391E-01  0.51100000000E-03 0. -1.
</event>
<event>
 8    1  0.1116841E+005  0.1043930E+01  0.7957747E-01            NaN
         13   -1    0    0    0    0  0.00000000000E+00  0.00000000000E+00  0.74505805969E-08  0.10566000000E+00  0.10566000000E+00 0.  1.
     999900   -1    0    0    0    0 -0.00000000000E+00 -0.00000000000E+00 -0.74505805969E-08  0.93827000000E+00  0.93827000000E+00 0.  1.
     999902    2    1    2    0    0 -0.11368311094E-01 -0.17486228834E-01 -0.10297817394E-01  0.10206694811E+01  0.10204043992E+01 0.  0.
     999903    2    3    3    0    0  0.12054401802E+00  0.38417356516E-01 -0.12125317239E-01  0.12908134010E+00  0.22543635109E-01 0.  0.
         14    1    1    2    0    0  0.11368311094E-01  0.17486228834E-01  0.10297817394E-01  0.23260518890E-01  0.00000000000E+00 0. -1.
     999901    1    3    3    0    0 -0.13191232911E+00 -0.55903585350E-01  0.18274998449E-02  0.89158814101E+00  0.88000000000E+00 0. -1.
        -11    1    4    4    0    0  0.42362682532E-01  0.14852350541E-01 -0.15113603950E-01  0.47369519031E-01  0.51100000000E-03 0.  1.
         11    1    4    4    0    0  0.78181335483E-01  0.23565005975E-01  0.29882867111E-02  0.81711821073E-01  0.51100000000E-03 0. -1.
</event>
<event>
 8    1  0.1116841E+005  0.1043930E+01  0.7957747E-01            NaN
         13   -1    0    0    0    0  0.00000000000E+00  0.00000000000E+00  0.74505805969E-08  0.10566000000E+00  0.10566000000E+00 0. -1.
     999900   -1    0    0    0    0 -0.00000000000E+00 -0.00000000000E+00 -0.74505805969E-08  0.93827000000E+00  0.93827000000E+00 0. -1.
     999902    2    1    2    0    0 -0.79403518075E-02  0.20330783736E-02 -0.22019895127E-01  0.10204340775E+01  0.10201635399E+01 0.  0.
     999903    2    3    3    0    0  0.47258995454E-01  0.11241620680E+00 -0.44916174220E-01  0.13152708425E+00  0.20275477352E-01 0.  0.
         14    1    1    2    0    0  0.79403518075E-02 -0.20330783736E-02  0.22019895127E-01  0.23495922538E-01  0.00000000000E+00 0.  1.
     999901    1    3    3    0    0 -0.55199347261E-01 -0.11038312843E+00  0.22896279092E-01  0.88890699321E+00  0.88000000000E+00 0.  1.
        -11    1    4    4    0    0  0.23468638794E-01  0.59251093674E-01 -0.12772451678E-01  0.64998967309E-01  0.51100000000E-03 0.  1.
         11    1    4    4    0    0  0.23790356659E-01  0.53165113131E-01 -0.32143722542E-01  0.66528116944E-01  0.51100000000E-03 0. -1.
</event>
<event>
 8    1  0.1116841E+005  0.1043930E+01  0.7957747E-01            NaN
         13   -1    0    0    0    0  0.00000000000E+00  0.00000000000E+00  0.74505805969E-08  0.10566000000E+00  0.10566000000E+00 0. -1.
     999900   -1    0    0    0    0 -0.00000000000E+00 -0.00000000000E+00 -0.74505805969E-08  0.93827000000E+00  0.93827000000E+00 0.  1.
     999902    2    1    2    0    0  0.18521590654E-01  0.11841551163E-03  0.15586428658E-01  0.10197225610E+01  0.10194351874E+01 0.  0.
     999903    2    3    3    0    0 -0.99971315326E-01 -0.64229003544E-01  0.46481498616E-01  0.12891637311E+00  0.18419358255E-01 0.  0.
         14    1    1    2    0    0 -0.18521590654E-01 -0.11841551163E-03 -0.15586428658E-01  0.24207438958E-01  0.00000000000E+00 0.  1.
     999901    1    3    3    0    0  0.11849290598E+00  0.64347419056E-01 -0.30895069957E-01  0.89080618793E+00  0.88000000000E+00 0. -1.
        -11    1    4    4    0    0 -0.28560024577E-01 -0.97513247490E-02  0.81889751595E-02  0.31274330902E-01  0.51100000000E-03 0.  1.
         11    1    4    4    0    0 -0.71411290749E-01 -0.54477678795E-01  0.38292523456E-01  0.97642042210E-01  0.51100000000E-03 0. -1.
</event>
<event>
 8    1  0.1116841E+005  0.1043930E+01  0.7957747E-01            NaN
         13   -1    0    0    0    0  0.00000000000E+00  0.00000000000E+00  0.74505805969E-08  0.10566000000E+00  0.10566000000E+00 0. -1.
     999900   -1    0    0    0    0 -0.00000000000E+00 -0.00000000000E+00 -0.74505805969E-08  0.93827000000E+00  0.93827000000E+00 0.  1.
     999902    2    1    2    0    0  0.18158154582E-01  0.12777145064E-01 -0.81170229871E-02  0.10202897784E+01  0.10200158684E+01 0.  0.
     999903    2    3    3    0    0 -0.13512442250E-01  0.11693159639E+00 -0.51569651511E-01  0.13251767515E+00  0.32340700986E-01 0.  0.
         14    1    1    2    0    0 -0.18158154582E-01 -0.12777145064E-01  0.81170229871E-02  0.23640221572E-01  0.00000000000E+00 0. -1.
     999901    1    3    3    0    0  0.31670596831E-01 -0.10415445133E+00  0.43452628524E-01  0.88777210328E+00  0.88000000000E+00 0. -1.
        -11    1    4    4    0    0 -0.31067282668E-02  0.68508442587E-01 -0.13143964618E-01  0.69828958127E-01  0.51100000000E-03 0.  1.
         11    1    4    4    0    0 -0.10405713983E-01  0.48423153802E-01 -0.38425686893E-01  0.62688717022E-01  0.51100000000E-03 0. -1.
</event>
<event>
 8    1  0.1116841E+005  0.1043930E+01  0.7957747E-01            NaN
         13   -1    0    0    0    0  0.00000000000E+00  0.00000000000E+00  0.74505805969E-08  0.10566000000E+00  0.10566000000E+00 0. -1.
     999900   -1    0    0    0    0 -0.00000000000E+00 -0.00000000000E+00 -0.74505805969E-08  0.93827000000E+00  0.93827000000E+00 0. -1.
     999902    2    1    2    0    0 -0.11337396068E-01  0.23710350746E-02  0.20919542765E-01  0.10200179606E+01  0.10197376400E+01 0.  0.
     999903    2    3    3    0    0 -0.97710873234E-02 -0.12861191890E+00  0.64607816343E-02  0.13020447269E+00  0.16582013748E-01 0.  0.
         14    1    1    2    0    0  0.11337396068E-01 -0.23710350746E-02 -0.20919542765E-01  0.23912039362E-01  0.00000000000E+00 0.  1.
     999901    1    3    3    0    0 -0.15663087443E-02  0.13098295397E+00  0.14458761131E-01  0.88981348794E+00  0.88000000000E+00 0. -1.
        -11    1    4    4    0    0 -0.28098182076E-02 -0.58363534309E-01 -0.51573575938E-02  0.58660520571E-01  0.51100000000E-03 0.  1.
         11    1    4    4    0    0 -0.69612691158E-02 -0.70248384590E-01  0.11618139228E-01  0.71543952122E-01  0.51100000000E-03 0. -1.
</event>
<event>
 8    1  0.1116841E+005  0.1043930E+01  0.7957747E-01            NaN
         13   -1    0    0    0    0  0.00000000000E+00  0.00000000000E+00  0.74505805969E-08  0.10566000000E+00  0.10566000000E+00 0.  1.
     999900   -1    0    0    0    0 -0.00000000000E+00 -0.00000000000E+00 -0.74505805969E-08  0.93827000000E+00  0.93827000000E+00 0. -1.
     999902    2    1    2    0    0 -0.15230460172E-01  0.71767386303E-02 -0.16918873846E-01  0.10200611754E+01  0.10197818790E+01 0.  0.
     999903    2    3    3    0    0 -0.46279498892E-01  0.85669634126E-01 -0.88891168229E-01  0.13309714650E+00  0.18224499660E-01 0.  0.
         14    1    1    2    0    0  0.15230460172E-01 -0.71767386303E-02  0.16918873846E-01  0.23868824576E-01  0.00000000000E+00 0.  1.
     999901    1    3    3    0    0  0.31049038720E-01 -0.78492895496E-01  0.71972294383E-01  0.88696402893E+00  0.88000000000E+00 0.  1.
        -11    1    4    4    0    0 -0.17366692080E-01  0.34271843477E-01 -0.47260064276E-01  0.60909244335E-01  0.51100000000E-03 0.  1.
         11    1    4    4    0    0 -0.28912806812E-01  0.51397790649E-01 -0.41631103953E-01  0.72187902163E-01  0.51100000000E-03 0. -1.
</event>
<event>
 8    1  0.1116841E+005  0.1043930E+01  0.7957747E-01            NaN
         13   -1    0    0    0    0  0.00000000000E+00  0.00000000000E+00  0.74505805969E-08  0.10566000000E+00  0.10566000000E+00 0.  1.
     999900   -1    0    0    0    0 -0.00000000000E+00 -0.00000000000E+00 -0.74505805969E-08  0.93827000000E+00  0.93827000000E+00 0.  1.
     999902    2    1    2    0    0 -0.45233551846E-02  0.22665826399E-01  0.14651266504E-02  0.10207708328E+01  0.10205080823E+01 0.  0.
     999903    2    3    3    0    0 -0.93647294557E-01  0.75354907963E-01 -0.53203182787E-01  0.13301645240E+00  0.20362220404E-01 0.  0.
         14    1    1    2    0    0  0.45233551846E-02 -0.22665826399E-01 -0.14651266504E-02  0.23159167182E-01  0.00000000000E+00 0.  1.
     999901    1    3    3    0    0  0.89123939372E-01 -0.52689081564E-01  0.54668309438E-01  0.88775438041E+00  0.88000000000E+00 0. -1.
        -11    1    4    4    0    0 -0.39130477498E-01  0.25727519356E-01 -0.11151658710E-01  0.48142705932E-01  0.51100000000E-03 0. -1.
         11    1    4    4    0    0 -0.54516817058E-01  0.49627388607E-01 -0.42051524077E-01  0.84873746473E-01  0.51100000000E-03 0.  1.
</event>
<event>
 7    1  0.1311572E+005  0.1043930E+01  0.7957747E-01            NaN
         13   -1    0    0    0    0  0.00000000000E+00  0.00000000000E+00  0.74505805969E-08  0.10566000000E+00  0.10566000000E+00 0. -1.
     999900   -1    0    0    0    0 -0.00000000000E+00 -0.00000000000E+00 -0.74505805969E-08  0.93827000000E+00  0.93827000000E+00 0.  1.
     999903    2    1    2    0    0 -0.40915430906E-01 -0.95794393045E-01  0.39440771607E-01  0.11280120038E+00  0.17829697641E-01 0.  0.
         14    1    1    2    0    0 -0.17543297411E-01 -0.80996348372E-02 -0.38515046294E-01  0.43090372006E-01  0.00000000000E+00 0.  1.
     999901    1    1    2    0    0  0.58458728317E-01  0.10389402788E+00 -0.92572531259E-03  0.88803842761E+00  0.88000000000E+00 0.  1.
        -11    1    3    3    0    0 -0.33296527513E-01 -0.56078032530E-01  0.23348064944E-01  0.69273355156E-01  0.51100000000E-03 0.  1.
         11    1    3    3    0    0 -0.76189033930E-02 -0.39716360515E-01  0.16092706663E-01  0.43527845228E-01  0.51100000000E-03 0. -1.
</event>
<event>
 8    1  0.1116841E+005  0.1043930E+01  0.7957747E-01            NaN
         13   -1    0    0    0    0  0.00000000000E+00  0.00000000000E+00  0.74505805969E-08  0.10566000000E+00  0.10566000000E+00 0.  1.
     999900   -1    0    0    0    0 -0.00000000000E+00 -0.00000000000E+00 -0.74505805969E-08  0.93827000000E+00  0.93827000000E+00 0.  1.
     999902    2    1    2    0    0 -0.21462422080E-01  0.78742465401E-03  0.88965840106E-02  0.10206833915E+01  0.10204186302E+01 0.  0.
     999903    2    3    3    0    0 -0.25664107029E-01 -0.11738801456E+00 -0.47927098200E-01  0.13095758012E+00  0.20354083075E-01 0.  0.
         14    1    1    2    0    0  0.21462422080E-01 -0.78742465401E-03 -0.88965840106E-02  0.23246608488E-01  0.00000000000E+00 0. -1.
     999901    1    3    3    0    0  0.42016849493E-02  0.11817543922E+00  0.56823682210E-01  0.88972581139E+00  0.88000000000E+00 0. -1.
        -11    1    4    4    0    0 -0.81564770153E-02 -0.42953286911E-01 -0.28052969792E-01  0.51949429342E-01  0.51100000000E-03 0.  1.
         11    1    4    4    0    0 -0.17507630014E-01 -0.74434727650E-01 -0.19874128407E-01  0.79008150782E-01  0.51100000000E-03 0. -1.
</event>
<event>
 8    1  0.1116841E+005  0.1043930E+01  0.7957747E-01            NaN
         13   -1    0    0    0    0  0.00000000000E+00  0.00000000000E+00  0.74505805969E-08  0.10566000000E+00  0.10566000000E+00 0. -1.
     999900   -1    0    0    0    0 -0.00000000000E+00 -0.00000000000E+00 -0.74505805969E-08  0.93827000000E+00  0.93827000000E+00 0.  1.
     999902    2    1    2    0    0  0.20381279818E-01  0.51564392157E-02 -0.11472548439E-01  0.10199799520E+01  0.10196987289E+01 0.  0.
     999903    2    3    3    0    0  0.10448986291E+00 -0.52928481979E-01  0.58560460558E-01  0.13129961903E+00  0.95240098199E-02 0.  0.
         14    1    1    2    0    0 -0.20381279818E-01 -0.51564392157E-02  0.11472548439E-01  0.23950048018E-01  0.00000000000E+00 0.  1.
     999901    1    3    3    0    0 -0.84108583088E-01  0.58084921195E-01 -0.70033008997E-01  0.88868033295E+00  0.88000000000E+00 0. -1.
        -11    1    4    4    0    0  0.18617077267E-01 -0.59716884082E-02  0.79208331197E-02  0.21101121930E-01  0.51100000000E-03 0.  1.
         11    1    4    4    0    0  0.85872785638E-01 -0.46956793571E-01  0.50639627439E-01  0.11019849710E+00  0.51100000000E-03 0. -1.
</event>
<event>
 8    1  0.1116841E+005  0.1043930E+01  0.7957747E-01            NaN
         13   -1    0    0    0    0  0.00000000000E+00  0.00000000000E+00  0.74505805969E-08  0.10566000000E+00  0.10566000000E+00 0.  1.
     999900   -1    0    0    0    0 -0.00000000000E+00 -0.00000000000E+00 -0.74505805969E-08  0.93827000000E+00  0.93827000000E+00 0. -1.
     999902    2    1    2    0    0 -0.22839902543E-01 -0.23366467537E-02 -0.25332329940E-02  0.10208315512E+01  0.10205701924E+01 0.  0.
     999903    2    3    3    0    0  0.22671265265E-01 -0.10998203951E+00 -0.64358523764E-01  0.13095450154E+00  0.19925526625E-01 0.  0.
         14    1    1    2    0    0  0.22839902543E-01  0.23366467537E-02  0.25332329940E-02  0.23098448771E-01  0.00000000000E+00 0.  1.
     999901    1    3    3    0    0 -0.45511167808E-01  0.10764539275E+00  0.61825290770E-01  0.88987704968E+00  0.88000000000E+00 0.  1.
        -11    1    4    4    0    0  0.77506151199E-02 -0.46209929594E-01 -0.15906338263E-01  0.49484364659E-01  0.51100000000E-03 0. -1.
         11    1    4    4    0    0  0.14920650145E-01 -0.63772109912E-01 -0.48452185501E-01  0.81470136886E-01  0.51100000000E-03 0.  1.
</event>
<event>
 8    1  0.1116841E+005  0.1043930E+01  0.7957747E-01            NaN
         13   -1    0    0    0    0  0.00000000000E+00  0.00000000000E+00  0.74505805969E-08  0.10566000000E+00  0.10566000000E+00 0. -1.
     999900   -1    0    0    0    0 -0.00000000000E+00 -0.00000000000E+00 -0.74505805969E-08  0.93827000000E+00  0.93827000000E+00 0. -1.
     999902    2    1    2    0    0  0.29810904858E-02 -0.23501177722E-01 -0.70356167108E-02  0.10192178136E+01  0.10189181809E+01 0.  0.
     999903    2    3    3    0    0 -0.16162675419E-01  0.10907134530E+00 -0.60532349703E-01  0.12747577798E+00  0.20691016604E-01 0.  0.
         14    1    1    2    0    0 -0.29810904858E-02  0.23501177722E-01  0.70356167108E-02  0.24712186413E-01  0.00000000000E+00 0. -1.
     999901    1    3    3    0    0  0.19143765905E-01 -0.13257252302E+00  0.53496732993E-01  0.89174203561E+00  0.88000000000E+00 0.  1.
        -11    1    4    4    0    0 -0.17486442080E-01  0.52277871358E-01 -0.25573386650E-01  0.60770146586E-01  0.51100000000E-03 0. -1.
         11    1    4    4    0    0  0.13237666608E-02  0.56793473942E-01 -0.34958963054E-01  0.66705631392E-01  0.51100000000E-03 0.  1.
</event>
<event>
 8    1  0.1116841E+005  0.1043930E+01  0.7957747E-01            NaN
         13   -1    0    0    0    0  0.00000000000E+00  0.00000000000E+00  0.74505805969E-08  0.10566000000E+00  0.10566000000E+00 0. -1.
     999900   -1    0    0    0    0 -0.00000000000E+00 -0.00000000000E+00 -0.74505805969E-08  0.93827000000E+00  0.93827000000E+00 0. -1.
     999902    2    1    2    0    0 -0.19849572399E-01  0.30545981922E-02  0.11430539217E-01  0.10208217045E+01  0.10205601202E+01 0.  0.
     999903    2    3    3    0    0 -0.85973697481E-01 -0.98784022503E-01  0.62758100500E-02  0.13246925427E+00  0.18946180994E-01 0.  0.
         14    1    1    2    0    0  0.19849572399E-01 -0.30545981922E-02 -0.11430539217E-01  0.23108295509E-01  0.00000000000E+00 0.  1.
     999901    1    3    3    0    0  0.66124125083E-01  0.10183862070E+00  0.51547291671E-02  0.88835245022E+00  0.88000000000E+00 0.  1.
        -11    1    4    4    0    0 -0.70791744694E-01 -0.77709643729E-01  0.12190525964E-01  0.10582594148E+00  0.51100000000E-03 0. -1.
         11    1    4    4    0    0 -0.15181952787E-01 -0.21074378774E-01 -0.59147159144E-02  0.26643312792E-01  0.51100000000E-03 0.  1.
</event>
